<event>
 6    1  0.9131597E-012  0.3000000E+03  0.7818608E-02  0.1093470E+00
          1   -1    0    0  502    0  0.00000000000E+00  0.00000000000E+00  0.22004190385E+03  0.22004190385E+03  0.00000000000E+00 0.  1.
         13   -1    0    0    0    0 -0.00000000000E+00 -0.00000000000E+00 -0.27500000000E+03  0.27500000000E+03  0.00000000000E+00 0.  1.
    9000005    2    1    2  501    0 -0.29229792100E+02  0.12336788416E+02 -0.56808552499E+02  0.46326138650E+03  0.45866907841E+03 0.  0.
         13    1    3    3    0    0  0.11046516661E+03 -0.17223908312E+03  0.46402383313E+02  0.20981428923E+03  0.00000000000E+00 0.  1.
          3    1    3    3  501    0 -0.13969495871E+03  0.18457587153E+03 -0.10321093581E+03  0.25344709727E+03  0.00000000000E+00 0.  1.
         21    1    1    2  502  501  0.29229792100E+02 -0.12336788416E+02  0.18504563511E+01  0.31780517354E+02  0.00000000000E+00 0.  1.
<scales pt_clust_4="550.00000" pt_clust_5="550.00000" pt_clust_6="31.72660"></scales>
<mgrwt>
<rscale>  0 0.30000000E+03</rscale>
<asrwt>  1 0.31726599E+02</asrwt>
<pdfrwt beam="1">  1        1 0.80015238E+00 0.30000000E+03</pdfrwt>
<pdfrwt beam="2">0</pdfrwt>
<totfact> 0.10537468E-03</totfact>
</mgrwt>
<clustering>
<clus scale="   31.727">  1  6  2 -1</clus>
<clus scale="  458.669">  4  5 -1 -1</clus>
<clus scale="  300.000">  1  4  2 -1</clus>
</clustering>
</event>
<event>
 6    1  0.9131597E-012  0.3000000E+03  0.7818608E-02  0.1093470E+00
          1   -1    0    0  502    0  0.00000000000E+00  0.00000000000E+00  0.23502594799E+03  0.23502594799E+03  0.00000000000E+00 0.  1.
         13   -1    0    0    0    0 -0.00000000000E+00 -0.00000000000E+00 -0.27500000000E+03  0.27500000000E+03  0.00000000000E+00 0.  1.
    9000005    2    1    2  501    0 -0.13893979813E+02 -0.26876982970E+02 -0.67750050928E+02  0.46895380409E+03  0.46304663489E+03 0.  0.
         13    1    3    3    0    0  0.19724728433E+03 -0.11418672220E+03  0.85340657003E+01  0.22807439352E+03  0.00000000000E+00 0.  1.
          1    1    3    3  501    0 -0.21114126414E+03  0.87309739234E+02 -0.76284116628E+02  0.24087941057E+03  0.00000000000E+00 0.  1.
         21    1    1    2  502  501  0.13893979813E+02  0.26876982970E+02  0.27775998915E+02  0.41072143897E+02  0.00000000000E+00 0.  1.
<scales pt_clust_4="550.00000" pt_clust_5="550.00000" pt_clust_6="30.25582"></scales>
<mgrwt>
<rscale>  0 0.30000000E+03</rscale>
<asrwt>  1 0.30255824E+02</asrwt>
<pdfrwt beam="1">  1        1 0.85463981E+00 0.30000000E+03</pdfrwt>
<pdfrwt beam="2">0</pdfrwt>
<totfact> 0.37762139E-04</totfact>
</mgrwt>
<clustering>
<clus scale="   30.256">  1  6  2 -1</clus>
<clus scale="  463.047">  4  5 -1 -1</clus>
<clus scale="  300.000">  1  4  2 -1</clus>
</clustering>
</event>
<event>
 6    1  0.9131597E-012  0.3000000E+03  0.7818608E-02  0.1093470E+00
          1   -1    0    0  502    0  0.00000000000E+00  0.00000000000E+00  0.22850909434E+03  0.22850909434E+03  0.00000000000E+00 0.  1.
         13   -1    0    0    0    0 -0.00000000000E+00 -0.00000000000E+00 -0.27500000000E+03  0.27500000000E+03  0.00000000000E+00 0.  1.
    9000005    2    1    2  501    0  0.32051560099E+02  0.13039227039E+02 -0.38937607031E+02  0.46809191960E+03  0.46518446234E+03 0.  0.
         13    1    3    3    0    0 -0.78873187547E+02  0.20351282686E+03 -0.98957065108E+02  0.23964755610E+03  0.00000000000E+00 0.  1.
          1    1    3    3  501    0  0.11092474765E+03 -0.19047359982E+03  0.60019458077E+02  0.22844436350E+03  0.00000000000E+00 0.  1.
         21    1    1    2  502  501 -0.32051560099E+02 -0.13039227039E+02 -0.75532986290E+01  0.35417174742E+02  0.00000000000E+00 0.  1.
<scales pt_clust_4="550.00000" pt_clust_5="550.00000" pt_clust_6="34.60239"></scales>
<mgrwt>
<rscale>  0 0.30000000E+03</rscale>
<asrwt>  1 0.34602386E+02</asrwt>
<pdfrwt beam="1">  1        1 0.83094216E+00 0.30000000E+03</pdfrwt>
<pdfrwt beam="2">0</pdfrwt>
<totfact> 0.58193874E-04</totfact>
</mgrwt>
<clustering>
<clus scale="   34.602">  1  6  2 -1</clus>
<clus scale="  465.184">  4  5 -1 -1</clus>
<clus scale="  300.000">  1  4  2 -1</clus>
</clustering>
</event>
<event>
 6    1  0.9131597E-012  0.3000000E+03  0.7818608E-02  0.1093470E+00
          1   -1    0    0  502    0  0.00000000000E+00  0.00000000000E+00  0.25114455870E+03  0.25114455870E+03  0.00000000000E+00 0.  1.
         13   -1    0    0    0    0 -0.00000000000E+00 -0.00000000000E+00 -0.27500000000E+03  0.27500000000E+03  0.00000000000E+00 0.  1.
    9000005    2    1    2  501    0  0.41712246497E+02  0.17176751315E+02 -0.52540148376E+02  0.47268649370E+03  0.46758646456E+03 0.  0.
         13    1    3    3    0    0 -0.70639528956E+02  0.13910700204E+03 -0.19802889628E+03  0.25210344073E+03  0.00000000000E+00 0.  1.
          1    1    3    3  501    0  0.11235177545E+03 -0.12193025073E+03  0.14548874790E+03  0.22058305297E+03  0.00000000000E+00 0.  1.
         21    1    1    2  502  501 -0.41712246497E+02 -0.17176751315E+02  0.28684707077E+02  0.53458065001E+02  0.00000000000E+00 0. -1.
<scales pt_clust_4="550.00000" pt_clust_5="550.00000" pt_clust_6="45.11045"></scales>
<mgrwt>
<rscale>  0 0.30000000E+03</rscale>
<asrwt>  1 0.45110446E+02</asrwt>
<pdfrwt beam="1">  1        1 0.91325294E+00 0.30000000E+03</pdfrwt>
<pdfrwt beam="2">0</pdfrwt>
<totfact> 0.56949521E-05</totfact>
</mgrwt>
<clustering>
<clus scale="   45.110">  1  6  2 -1</clus>
<clus scale="  467.586">  4  5 -1 -1</clus>
<clus scale="  300.000">  1  4  2 -1</clus>
</clustering>
</event>
<event>
 6    1  0.9131597E-012  0.3000000E+03  0.7818608E-02  0.1093470E+00
          1   -1    0    0  502    0  0.00000000000E+00  0.00000000000E+00  0.25279377054E+03  0.25279377054E+03  0.00000000000E+00 0.  1.
         13   -1    0    0    0    0 -0.00000000000E+00 -0.00000000000E+00 -0.27500000000E+03  0.27500000000E+03  0.00000000000E+00 0.  1.
    9000005    2    1    2  501    0  0.54970143611E+00 -0.55794949088E+02 -0.17719050992E+02  0.47181597775E+03  0.46816981276E+03 0.  0.
         13    1    3    3    0    0 -0.97449433712E+02 -0.10973852511E+03 -0.20592694441E+03  0.25287317465E+03  0.00000000000E+00 0.  1.
          3    1    3    3  501    0  0.97999135148E+02  0.53943576023E+02  0.18820789342E+03  0.21894280310E+03  0.00000000000E+00 0.  1.
         21    1    1    2  502  501 -0.54970143611E+00  0.55794949088E+02 -0.44871784656E+01  0.55977792793E+02  0.00000000000E+00 0. -1.
<scales pt_clust_4="550.00000" pt_clust_5="550.00000" pt_clust_6="55.79768"></scales>
<mgrwt>
<rscale>  0 0.30000000E+03</rscale>
<asrwt>  1 0.55797685E+02</asrwt>
<pdfrwt beam="1">  1        1 0.91925007E+00 0.30000000E+03</pdfrwt>
<pdfrwt beam="2">0</pdfrwt>
<totfact> 0.39922593E-05</totfact>
</mgrwt>
<clustering>
<clus scale="   55.798">  1  6  2 -1</clus>
<clus scale="  468.170">  4  5 -1 -1</clus>
<clus scale="  300.000">  1  4  2 -1</clus>
</clustering>
</event>
<event>
 6    1  0.9131597E-012  0.3000000E+03  0.7818608E-02  0.1093470E+00
          1   -1    0    0  502    0  0.00000000000E+00  0.00000000000E+00  0.22673078681E+03  0.22673078681E+03  0.00000000000E+00 0.  1.
         13   -1    0    0    0    0 -0.00000000000E+00 -0.00000000000E+00 -0.27500000000E+03  0.27500000000E+03  0.00000000000E+00 0.  1.
    9000005    2    1    2  501    0 -0.31564847891E+02 -0.76599897924E+01 -0.66600246867E+02  0.46443411321E+03  0.45848493712E+03 0.  0.
         13    1    3    3    0    0  0.19105279711E+03  0.79009668149E+02  0.25685040255E+02  0.20833487523E+03  0.00000000000E+00 0.  1.
          3    1    3    3  501    0 -0.22261764500E+03 -0.86669657941E+02 -0.92285287122E+02  0.25609923798E+03  0.00000000000E+00 0.  1.
         21    1    1    2  502  501  0.31564847891E+02  0.76599897924E+01  0.18331033681E+02  0.37296673602E+02  0.00000000000E+00 0. -1.
<scales pt_clust_4="550.00000" pt_clust_5="550.00000" pt_clust_6="32.48100"></scales>
<mgrwt>
<rscale>  0 0.30000000E+03</rscale>
<asrwt>  1 0.32480995E+02</asrwt>
<pdfrwt beam="1">  1        1 0.82447559E+00 0.30000000E+03</pdfrwt>
<pdfrwt beam="2">0</pdfrwt>
<totfact> 0.66960784E-04</totfact>
</mgrwt>
<clustering>
<clus scale="   32.481">  1  6  2 -1</clus>
<clus scale="  458.485">  4  5 -1 -1</clus>
<clus scale="  300.000">  1  4  2 -1</clus>
</clustering>
</event>
<event>
 6    1  0.9131597E-012  0.3000000E+03  0.7818608E-02  0.1093470E+00
          1   -1    0    0  502    0  0.00000000000E+00  0.00000000000E+00  0.23476829812E+03  0.23476829812E+03  0.00000000000E+00 0.  1.
         13   -1    0    0    0    0 -0.00000000000E+00 -0.00000000000E+00 -0.27500000000E+03  0.27500000000E+03  0.00000000000E+00 0.  1.
    9000005    2    1    2  501    0  0.26754847430E+02  0.37694182472E+02 -0.43263180319E+02  0.46344483630E+03  0.45909992406E+03 0.  0.
         13    1    3    3    0    0  0.16623587047E+03  0.67328867102E+02  0.14263522216E+03  0.22915572779E+03  0.00000000000E+00 0.  1.
          1    1    3    3  501    0 -0.13948102304E+03 -0.29634684630E+02 -0.18589840248E+03  0.23428910851E+03  0.00000000000E+00 0.  1.
         21    1    1    2  502  501 -0.26754847430E+02 -0.37694182472E+02  0.30314784377E+01  0.46323461817E+02  0.00000000000E+00 0.  1.
<scales pt_clust_4="550.00000" pt_clust_5="550.00000" pt_clust_6="46.22416"></scales>
<mgrwt>
<rscale>  0 0.30000000E+03</rscale>
<asrwt>  1 0.46224163E+02</asrwt>
<pdfrwt beam="1">  1        1 0.85370290E+00 0.30000000E+03</pdfrwt>
<pdfrwt beam="2">0</pdfrwt>
<totfact> 0.35659281E-04</totfact>
</mgrwt>
<clustering>
<clus scale="   46.224">  1  6  2 -1</clus>
<clus scale="  459.100">  4  5 -1 -1</clus>
<clus scale="  300.000">  1  4  2 -1</clus>
</clustering>
</event>
<event>
 6    1  0.9131597E-012  0.3000000E+03  0.7818608E-02  0.1093470E+00
          1   -1    0    0  502    0  0.00000000000E+00  0.00000000000E+00  0.25633873522E+03  0.25633873522E+03  0.00000000000E+00 0.  1.
         13   -1    0    0    0    0 -0.00000000000E+00 -0.00000000000E+00 -0.27500000000E+03  0.27500000000E+03  0.00000000000E+00 0.  1.
    9000005    2    1    2  501    0 -0.33045473782E+02  0.28993927766E+02 -0.40996107641E+02  0.48202852948E+03  0.47826579556E+03 0.  0.
         13    1    3    3    0    0 -0.55313462274E+00 -0.19511119888E+03 -0.13455921200E+03  0.23701237820E+03  0.00000000000E+00 0.  1.
          3    1    3    3  501    0 -0.32492339159E+02  0.22410512664E+03  0.93563104360E+02  0.24501615128E+03  0.00000000000E+00 0.  1.
         21    1    1    2  502  501  0.33045473782E+02 -0.28993927766E+02  0.22334842864E+02  0.49310205744E+02  0.00000000000E+00 0. -1.
<scales pt_clust_4="550.00000" pt_clust_5="550.00000" pt_clust_6="43.96193"></scales>
<mgrwt>
<rscale>  0 0.30000000E+03</rscale>
<asrwt>  1 0.43961929E+02</asrwt>
<pdfrwt beam="1">  1        1 0.93214086E+00 0.30000000E+03</pdfrwt>
<pdfrwt beam="2">0</pdfrwt>
<totfact> 0.23467033E-05</totfact>
</mgrwt>
<clustering>
<clus scale="   43.962">  1  6  2 -1</clus>
<clus scale="  478.266">  4  5 -1 -1</clus>
<clus scale="  300.000">  1  4  2 -1</clus>
</clustering>
</event>
<event>
 6    1  0.9131597E-012  0.3000000E+03  0.7818608E-02  0.1093470E+00
          1   -1    0    0  502    0  0.00000000000E+00  0.00000000000E+00  0.22692647558E+03  0.22692647558E+03  0.00000000000E+00 0.  1.
         13   -1    0    0    0    0 -0.00000000000E+00 -0.00000000000E+00 -0.27500000000E+03  0.27500000000E+03  0.00000000000E+00 0.  1.
    9000005    2    1    2  501    0 -0.50126011120E+01  0.29937439428E+02 -0.45758221499E+02  0.47148411895E+03  0.46827564867E+03 0.  0.
         13    1    3    3    0    0 -0.17349285202E+03 -0.51907860584E+02  0.12336702597E+03  0.21912010129E+03  0.00000000000E+00 0.  1.
          1    1    3    3  501    0  0.16848025091E+03  0.81845300011E+02 -0.16912524747E+03  0.25236401766E+03  0.00000000000E+00 0.  1.
         21    1    1    2  502  501  0.50126011120E+01 -0.29937439428E+02 -0.23153029224E+01  0.30442356627E+02  0.00000000000E+00 0. -1.
<scales pt_clust_4="550.00000" pt_clust_5="550.00000" pt_clust_6="30.35418"></scales>
<mgrwt>
<rscale>  0 0.30000000E+03</rscale>
<asrwt>  1 0.30354183E+02</asrwt>
<pdfrwt beam="1">  1        1 0.82518718E+00 0.30000000E+03</pdfrwt>
<pdfrwt beam="2">0</pdfrwt>
<totfact> 0.66846956E-04</totfact>
</mgrwt>
<clustering>
<clus scale="   30.354">  1  6  2 -1</clus>
<clus scale="  468.276">  4  5 -1 -1</clus>
<clus scale="  300.000">  1  4  2 -1</clus>
</clustering>
</event>
<event>
 6    1  0.9131597E-012  0.3000000E+03  0.7818608E-02  0.1093470E+00
          1   -1    0    0  502    0  0.00000000000E+00  0.00000000000E+00  0.24896681135E+03  0.24896681135E+03  0.00000000000E+00 0.  1.
         13   -1    0    0    0    0 -0.00000000000E+00 -0.00000000000E+00 -0.27500000000E+03  0.27500000000E+03  0.00000000000E+00 0.  1.
    9000005    2    1    2  501    0 -0.42255250623E+02 -0.13049788674E+02 -0.27447087813E+02  0.47971975155E+03  0.47688771656E+03 0.  0.
         13    1    3    3    0    0 -0.25176430209E+03  0.34117402907E+02  0.34045448449E+02  0.25633640699E+03  0.00000000000E+00 0.  1.
          3    1    3    3  501    0  0.20950905147E+03 -0.47167191581E+02 -0.61492536261E+02  0.22338334456E+03  0.00000000000E+00 0.  1.
         21    1    1    2  502  501  0.42255250623E+02  0.13049788674E+02  0.14138991595E+01  0.44247059795E+02  0.00000000000E+00 0. -1.
<scales pt_clust_4="550.00000" pt_clust_5="550.00000" pt_clust_6="44.22446"></scales>
<mgrwt>
<rscale>  0 0.30000000E+03</rscale>
<asrwt>  1 0.44224464E+02</asrwt>
<pdfrwt beam="1">  1        1 0.90533386E+00 0.30000000E+03</pdfrwt>
<pdfrwt beam="2">0</pdfrwt>
<totfact> 0.87295428E-05</totfact>
</mgrwt>
<clustering>
<clus scale="   44.224">  1  6  2 -1</clus>
<clus scale="  476.888">  4  5 -1 -1</clus>
<clus scale="  300.000">  1  4  2 -1</clus>
</clustering>
</event>
<event>
 6    1  0.9131597E-012  0.3000000E+03  0.7818608E-02  0.1093470E+00
          1   -1    0    0  502    0  0.00000000000E+00  0.00000000000E+00  0.25952877818E+03  0.25952877818E+03  0.00000000000E+00 0.  1.
         13   -1    0    0    0    0 -0.00000000000E+00 -0.00000000000E+00 -0.27500000000E+03  0.27500000000E+03  0.00000000000E+00 0.  1.
    9000005    2    1    2  501    0  0.30377916596E+02  0.27933771579E+02 -0.67704439372E+02  0.46795984829E+03  0.46119346817E+03 0.  0.
         13    1    3    3    0    0 -0.16771828747E+03  0.31516035824E+01 -0.17407766441E+03  0.24174860869E+03  0.00000000000E+00 0.  1.
          3    1    3    3  501    0  0.19809620406E+03  0.24782167997E+02  0.10637322504E+03  0.22621123960E+03  0.00000000000E+00 0.  1.
         21    1    1    2  502  501 -0.30377916596E+02 -0.27933771579E+02  0.52233217550E+02  0.66568929892E+02  0.00000000000E+00 0. -1.
<scales pt_clust_4="550.00000" pt_clust_5="550.00000" pt_clust_6="41.26879"></scales>
<mgrwt>
<rscale>  0 0.30000000E+03</rscale>
<asrwt>  1 0.41268795E+02</asrwt>
<pdfrwt beam="1">  1        1 0.94374101E+00 0.30000000E+03</pdfrwt>
<pdfrwt beam="2">0</pdfrwt>
<totfact> 0.15938458E-05</totfact>
</mgrwt>
<clustering>
<clus scale="   41.269">  1  6  2 -1</clus>
<clus scale="  461.193">  4  5 -1 -1</clus>
<clus scale="  300.000">  1  4  2 -1</clus>
</clustering>
</event>
<event>
 6    1  0.9131597E-012  0.3000000E+03  0.7818608E-02  0.1093470E+00
          1   -1    0    0  502    0  0.00000000000E+00  0.00000000000E+00  0.23475664124E+03  0.23475664124E+03  0.00000000000E+00 0.  1.
         13   -1    0    0    0    0 -0.00000000000E+00 -0.00000000000E+00 -0.27500000000E+03  0.27500000000E+03  0.00000000000E+00 0.  1.
    9000005    2    1    2  501    0 -0.31675717635E+02 -0.16731964110E+01 -0.68038032628E+02  0.46758206869E+03  0.46151670220E+03 0.  0.
         13    1    3    3    0    0 -0.14547483203E+03  0.18670957206E+03  0.17379690102E+01  0.23669898941E+03  0.00000000000E+00 0.  1.
          1    1    3    3  501    0  0.11379911439E+03 -0.18838276847E+03 -0.69776001639E+02  0.23088307928E+03  0.00000000000E+00 0.  1.
         21    1    1    2  502  501  0.31675717635E+02  0.16731964110E+01  0.27794673864E+02  0.42174572543E+02  0.00000000000E+00 0.  1.
<scales pt_clust_4="550.00000" pt_clust_5="550.00000" pt_clust_6="31.71988"></scales>
<mgrwt>
<rscale>  0 0.30000000E+03</rscale>
<asrwt>  1 0.31719878E+02</asrwt>
<pdfrwt beam="1">  1        1 0.85366051E+00 0.30000000E+03</pdfrwt>
<pdfrwt beam="2">0</pdfrwt>
<totfact> 0.38254082E-04</totfact>
</mgrwt>
<clustering>
<clus scale="   31.720">  1  6  2 -1</clus>
<clus scale="  461.517">  4  5 -1 -1</clus>
<clus scale="  300.000">  1  4  2 -1</clus>
</clustering>
</event>
<event>
 6    1  0.9131597E-012  0.3000000E+03  0.7818608E-02  0.1093470E+00
          1   -1    0    0  502    0  0.00000000000E+00  0.00000000000E+00  0.24261094965E+03  0.24261094965E+03  0.00000000000E+00 0.  1.
         13   -1    0    0    0    0 -0.00000000000E+00 -0.00000000000E+00 -0.27500000000E+03  0.27500000000E+03  0.00000000000E+00 0.  1.
    9000005    2    1    2  501    0 -0.27738875071E+02 -0.13048787126E+02 -0.63084039948E+02  0.47423009648E+03  0.46901478897E+03 0.  0.
         13    1    3    3    0    0 -0.24486242249E+03  0.10983987759E+02  0.57998455665E+01  0.24517726677E+03  0.00000000000E+00 0.  1.
          1    1    3    3  501    0  0.21712354742E+03 -0.24032774885E+02 -0.68883885514E+02  0.22905282970E+03  0.00000000000E+00 0.  1.
         21    1    1    2  502  501  0.27738875071E+02  0.13048787126E+02  0.30694989598E+02  0.43380853174E+02  0.00000000000E+00 0. -1.
<scales pt_clust_4="550.00000" pt_clust_5="550.00000" pt_clust_6="30.65479"></scales>
<mgrwt>
<rscale>  0 0.30000000E+03</rscale>
<asrwt>  1 0.30654788E+02</asrwt>
<pdfrwt beam="1">  1        1 0.88222164E+00 0.30000000E+03</pdfrwt>
<pdfrwt beam="2">0</pdfrwt>
<totfact> 0.18963918E-04</totfact>
</mgrwt>
<clustering>
<clus scale="   30.655">  1  6  2 -1</clus>
<clus scale="  469.015">  4  5 -1 -1</clus>
<clus scale="  300.000">  1  4  2 -1</clus>
</clustering>
</event>
<event>
 6    1  0.9131597E-012  0.3000000E+03  0.7818608E-02  0.1093470E+00
          1   -1    0    0  502    0  0.00000000000E+00  0.00000000000E+00  0.24961390754E+03  0.24961390754E+03  0.00000000000E+00 0.  1.
         13   -1    0    0    0    0 -0.00000000000E+00 -0.00000000000E+00 -0.27500000000E+03  0.27500000000E+03  0.00000000000E+00 0.  1.
    9000005    2    1    2  501    0 -0.31915943075E+02 -0.15893804082E+02 -0.72680014556E+02  0.46538591164E+03  0.45829076121E+03 0.  0.
         13    1    3    3    0    0 -0.18261206477E+03 -0.66267512196E+02  0.11002179401E+03  0.22325623066E+03  0.00000000000E+00 0.  1.
          1    1    3    3  501    0  0.15069612169E+03  0.50373708114E+02 -0.18270180856E+03  0.24212968099E+03  0.00000000000E+00 0.  1.
         21    1    1    2  502  501  0.31915943075E+02  0.15893804082E+02  0.47293922099E+02  0.59227995898E+02  0.00000000000E+00 0. -1.
<scales pt_clust_4="550.00000" pt_clust_5="550.00000" pt_clust_6="35.65446"></scales>
<mgrwt>
<rscale>  0 0.30000000E+03</rscale>
<asrwt>  1 0.35654459E+02</asrwt>
<pdfrwt beam="1">  1        1 0.90768694E+00 0.30000000E+03</pdfrwt>
<pdfrwt beam="2">0</pdfrwt>
<totfact> 0.81098819E-05</totfact>
</mgrwt>
<clustering>
<clus scale="   35.654">  1  6  2 -1</clus>
<clus scale="  458.291">  4  5 -1 -1</clus>
<clus scale="  300.000">  1  4  2 -1</clus>
</clustering>
</event>
<event>
 6    1  0.9131597E-012  0.3000000E+03  0.7818608E-02  0.1093470E+00
          1   -1    0    0  502    0  0.00000000000E+00  0.00000000000E+00  0.22667635547E+03  0.22667635547E+03  0.00000000000E+00 0.  1.
         13   -1    0    0    0    0 -0.00000000000E+00 -0.00000000000E+00 -0.27500000000E+03  0.27500000000E+03  0.00000000000E+00 0.  1.
    9000005    2    1    2  501    0 -0.19706113160E+02  0.24566906114E+02 -0.32689586138E+02  0.46651547445E+03  0.46430185773E+03 0.  0.
         13    1    3    3    0    0 -0.12364891148E+03  0.13456281216E+03  0.14487653961E+03  0.23320680834E+03  0.00000000000E+00 0.  1.
          3    1    3    3  501    0  0.10394279832E+03 -0.10999590604E+03 -0.17756612575E+03  0.23330866611E+03  0.00000000000E+00 0.  1.
         21    1    1    2  502  501  0.19706113160E+02 -0.24566906114E+02 -0.15634058394E+02  0.35160881015E+02  0.00000000000E+00 0.  1.
<scales pt_clust_4="550.00000" pt_clust_5="550.00000" pt_clust_6="31.49388"></scales>
<mgrwt>
<rscale>  0 0.30000000E+03</rscale>
<asrwt>  1 0.31493885E+02</asrwt>
<pdfrwt beam="1">  1        1 0.82427766E+00 0.30000000E+03</pdfrwt>
<pdfrwt beam="2">0</pdfrwt>
<totfact> 0.67629934E-04</totfact>
</mgrwt>
<clustering>
<clus scale="   31.494">  1  6  2 -1</clus>
<clus scale="  464.302">  4  5 -1 -1</clus>
<clus scale="  300.000">  1  4  2 -1</clus>
</clustering>
</event>
<event>
 6    1  0.9131597E-012  0.3000000E+03  0.7818608E-02  0.1093470E+00
          1   -1    0    0  502    0  0.00000000000E+00  0.00000000000E+00  0.22887871681E+03  0.22887871681E+03  0.00000000000E+00 0.  1.
         13   -1    0    0    0    0 -0.00000000000E+00 -0.00000000000E+00 -0.27500000000E+03  0.27500000000E+03  0.00000000000E+00 0.  1.
    9000005    2    1    2  501    0  0.15005041919E+01  0.35266487453E+02 -0.64012268756E+02  0.46430519012E+03  0.45851473517E+03 0.  0.
         13    1    3    3    0    0 -0.49513102375E+02  0.20809467985E+03 -0.15333170565E+03  0.26318350071E+03  0.00000000000E+00 0.  1.
          1    1    3    3  501    0  0.51013606567E+02 -0.17282819240E+03  0.89319436897E+02  0.20112168941E+03  0.00000000000E+00 0.  1.
         21    1    1    2  502  501 -0.15005041919E+01 -0.35266487453E+02  0.17890985567E+02  0.39573526689E+02  0.00000000000E+00 0.  1.
<scales pt_clust_4="550.00000" pt_clust_5="550.00000" pt_clust_6="35.29839"></scales>
<mgrwt>
<rscale>  0 0.30000000E+03</rscale>
<asrwt>  1 0.35298394E+02</asrwt>
<pdfrwt beam="1">  1        1 0.83228624E+00 0.30000000E+03</pdfrwt>
<pdfrwt beam="2">0</pdfrwt>
<totfact> 0.56590085E-04</totfact>
</mgrwt>
<clustering>
<clus scale="   35.298">  1  6  2 -1</clus>
<clus scale="  458.515">  4  5 -1 -1</clus>
<clus scale="  300.000">  1  4  2 -1</clus>
</clustering>
</event>
<event>
 6    1  0.9131597E-012  0.3000000E+03  0.7818608E-02  0.1093470E+00
          1   -1    0    0  502    0  0.00000000000E+00  0.00000000000E+00  0.23101567366E+03  0.23101567366E+03  0.00000000000E+00 0.  1.
         13   -1    0    0    0    0 -0.00000000000E+00 -0.00000000000E+00 -0.27500000000E+03  0.27500000000E+03  0.00000000000E+00 0.  1.
    9000005    2    1    2  501    0 -0.30723000439E+02  0.11302363160E+02 -0.58835911208E+02  0.47006827122E+03  0.46522131184E+03 0.  0.
         13    1    3    3    0    0  0.15441188244E+02  0.12154424732E+03 -0.23041579868E+03  0.26096527477E+03  0.00000000000E+00 0.  1.
          3    1    3    3  501    0 -0.46164188683E+02 -0.11024188416E+03  0.17157988748E+03  0.20910299645E+03  0.00000000000E+00 0.  1.
         21    1    1    2  502  501  0.30723000439E+02 -0.11302363160E+02  0.14851584867E+02  0.35947402438E+02  0.00000000000E+00 0. -1.
<scales pt_clust_4="550.00000" pt_clust_5="550.00000" pt_clust_6="32.73601"></scales>
<mgrwt>
<rscale>  0 0.30000000E+03</rscale>
<asrwt>  1 0.32736007E+02</asrwt>
<pdfrwt beam="1">  1        1 0.84005700E+00 0.30000000E+03</pdfrwt>
<pdfrwt beam="2">0</pdfrwt>
<totfact> 0.50283002E-04</totfact>
</mgrwt>
<clustering>
<clus scale="   32.736">  1  6  2 -1</clus>
<clus scale="  465.221">  4  5 -1 -1</clus>
<clus scale="  300.000">  1  4  2 -1</clus>
</clustering>
</event>
<event>
 6    1  0.9131597E-012  0.3000000E+03  0.7818608E-02  0.1093470E+00
          1   -1    0    0  502    0  0.00000000000E+00  0.00000000000E+00  0.23260550444E+03  0.23260550444E+03  0.00000000000E+00 0.  1.
         13   -1    0    0    0    0 -0.00000000000E+00 -0.00000000000E+00 -0.27500000000E+03  0.27500000000E+03  0.00000000000E+00 0.  1.
    9000005    2    1    2  501    0  0.34378496667E+02  0.12654193203E+02 -0.57423104208E+02  0.46800918243E+03  0.46302610326E+03 0.  0.
         13    1    3    3    0    0 -0.16333480480E+03  0.14450899194E+03 -0.72668233834E+02  0.22987339868E+03  0.00000000000E+00 0.  1.
          1    1    3    3  501    0  0.19771330147E+03 -0.13185479873E+03  0.15245129626E+02  0.23813578375E+03  0.00000000000E+00 0.  1.
         21    1    1    2  502  501 -0.34378496667E+02 -0.12654193203E+02  0.15028608645E+02  0.39596322008E+02  0.00000000000E+00 0.  1.
<scales pt_clust_4="550.00000" pt_clust_5="550.00000" pt_clust_6="36.63345"></scales>
<mgrwt>
<rscale>  0 0.30000000E+03</rscale>
<asrwt>  1 0.36633450E+02</asrwt>
<pdfrwt beam="1">  1        1 0.84583820E+00 0.30000000E+03</pdfrwt>
<pdfrwt beam="2">0</pdfrwt>
<totfact> 0.44045748E-04</totfact>
</mgrwt>
<clustering>
<clus scale="   36.633">  1  6  2 -1</clus>
<clus scale="  463.026">  4  5 -1 -1</clus>
<clus scale="  300.000">  1  4  2 -1</clus>
</clustering>
</event>
<event>
 6    1  0.9131597E-012  0.3000000E+03  0.7818608E-02  0.1093470E+00
          1   -1    0    0  502    0  0.00000000000E+00  0.00000000000E+00  0.22898598830E+03  0.22898598830E+03  0.00000000000E+00 0.  1.
         13   -1    0    0    0    0 -0.00000000000E+00 -0.00000000000E+00 -0.27500000000E+03  0.27500000000E+03  0.00000000000E+00 0.  1.
    9000005    2    1    2  501    0  0.25741533298E+02  0.16001203971E+02 -0.51177089006E+02  0.47323989209E+03  0.46948720532E+03 0.  0.
         13    1    3    3    0    0  0.24344133925E+03 -0.81991249212E+01 -0.69871754649E+02  0.25340278886E+03  0.00000000000E+00 0.  1.
          3    1    3    3  501    0 -0.21769980595E+03  0.24200328892E+02  0.18694665643E+02  0.21983710322E+03  0.00000000000E+00 0.  1.
         21    1    1    2  502  501 -0.25741533298E+02 -0.16001203971E+02  0.51630773039E+01  0.30746096212E+02  0.00000000000E+00 0.  1.
<scales pt_clust_4="550.00000" pt_clust_5="550.00000" pt_clust_6="30.30949"></scales>
<mgrwt>
<rscale>  0 0.30000000E+03</rscale>
<asrwt>  1 0.30309488E+02</asrwt>
<pdfrwt beam="1">  1        1 0.83267632E+00 0.30000000E+03</pdfrwt>
<pdfrwt beam="2">0</pdfrwt>
<totfact> 0.57849143E-04</totfact>
</mgrwt>
<clustering>
<clus scale="   30.309">  1  6  2 -1</clus>
<clus scale="  469.487">  4  5 -1 -1</clus>
<clus scale="  300.000">  1  4  2 -1</clus>
</clustering>
</event>
<event>
 6    1  0.9131597E-012  0.3000000E+03  0.7818608E-02  0.1093470E+00
          1   -1    0    0  502    0  0.00000000000E+00  0.00000000000E+00  0.22057677035E+03  0.22057677035E+03  0.00000000000E+00 0.  1.
         13   -1    0    0    0    0 -0.00000000000E+00 -0.00000000000E+00 -0.27500000000E+03  0.27500000000E+03  0.00000000000E+00 0.  1.
    9000005    2    1    2  501    0  0.32606150923E+02  0.10003823989E+02 -0.50781246868E+02  0.46127660109E+03  0.45720250449E+03 0.  0.
         13    1    3    3    0    0  0.77180818175E+02  0.10475022794E+03 -0.22389683417E+03  0.25895806861E+03  0.00000000000E+00 0.  1.
          3    1    3    3  501    0 -0.44574667252E+02 -0.94746403951E+02  0.17311558730E+03  0.20231853249E+03  0.00000000000E+00 0.  1.
         21    1    1    2  502  501 -0.32606150923E+02 -0.10003823989E+02 -0.36419827817E+01  0.34300169256E+02  0.00000000000E+00 0.  1.
<scales pt_clust_4="550.00000" pt_clust_5="550.00000" pt_clust_6="34.10627"></scales>
<mgrwt>
<rscale>  0 0.30000000E+03</rscale>
<asrwt>  1 0.34106269E+02</asrwt>
<pdfrwt beam="1">  1        1 0.80209735E+00 0.30000000E+03</pdfrwt>
<pdfrwt beam="2">0</pdfrwt>
<totfact> 0.10061984E-03</totfact>
</mgrwt>
<clustering>
<clus scale="   34.106">  1  6  2 -1</clus>
<clus scale="  457.203">  4  5 -1 -1</clus>
<clus scale="  300.000">  1  4  2 -1</clus>
</clustering>
</event>
<event>
 6    1  0.9131597E-012  0.3000000E+03  0.7818608E-02  0.1093470E+00
          1   -1    0    0  502    0  0.00000000000E+00  0.00000000000E+00  0.23006261874E+03  0.23006261874E+03  0.00000000000E+00 0.  1.
         13   -1    0    0    0    0 -0.00000000000E+00 -0.00000000000E+00 -0.27500000000E+03  0.27500000000E+03  0.00000000000E+00 0.  1.
    9000005    2    1    2  501    0 -0.23824518876E+02 -0.24977360006E+02 -0.48254471732E+02  0.47038583542E+03  0.46662925745E+03 0.  0.
         13    1    3    3    0    0  0.73228988076E+02  0.12550008634E+03 -0.19198707392E+03  0.24077332269E+03  0.00000000000E+00 0.  1.
          3    1    3    3  501    0 -0.97053506953E+02 -0.15047744635E+03  0.14373260218E+03  0.22961251273E+03  0.00000000000E+00 0.  1.
         21    1    1    2  502  501  0.23824518876E+02  0.24977360006E+02  0.33170904765E+01  0.34676783326E+02  0.00000000000E+00 0. -1.
<scales pt_clust_4="550.00000" pt_clust_5="550.00000" pt_clust_6="34.51777"></scales>
<mgrwt>
<rscale>  0 0.30000000E+03</rscale>
<asrwt>  1 0.34517767E+02</asrwt>
<pdfrwt beam="1">  1        1 0.83659134E+00 0.30000000E+03</pdfrwt>
<pdfrwt beam="2">0</pdfrwt>
<totfact> 0.52814737E-04</totfact>
</mgrwt>
<clustering>
<clus scale="   34.518">  1  6  2 -1</clus>
<clus scale="  466.629">  4  5 -1 -1</clus>
<clus scale="  300.000">  1  4  2 -1</clus>
</clustering>
</event>
<event>
 6    1  0.9131597E-012  0.3000000E+03  0.7818608E-02  0.1093470E+00
          1   -1    0    0  502    0  0.00000000000E+00  0.00000000000E+00  0.23478111685E+03  0.23478111685E+03  0.00000000000E+00 0.  1.
         13   -1    0    0    0    0 -0.00000000000E+00 -0.00000000000E+00 -0.27500000000E+03  0.27500000000E+03  0.00000000000E+00 0.  1.
    9000005    2    1    2  501    0  0.97311558822E+01  0.38154394537E+02 -0.62580567012E+02  0.46449869065E+03  0.45857633283E+03 0.  0.
         13    1    3    3    0    0 -0.72565317522E+02  0.84116799986E+02  0.17591201492E+03  0.20805383520E+03  0.00000000000E+00 0.  1.
          3    1    3    3  501    0  0.82296473404E+02 -0.45962405448E+02 -0.23849258193E+03  0.25644485545E+03  0.00000000000E+00 0.  1.
         21    1    1    2  502  501 -0.97311558822E+01 -0.38154394537E+02  0.22361683860E+02  0.45282426198E+02  0.00000000000E+00 0. -1.
<scales pt_clust_4="550.00000" pt_clust_5="550.00000" pt_clust_6="39.37579"></scales>
<mgrwt>
<rscale>  0 0.30000000E+03</rscale>
<asrwt>  1 0.39375795E+02</asrwt>
<pdfrwt beam="1">  1        1 0.85374952E+00 0.30000000E+03</pdfrwt>
<pdfrwt beam="2">0</pdfrwt>
<totfact> 0.36667534E-04</totfact>
</mgrwt>
<clustering>
<clus scale="   39.376">  1  6  2 -1</clus>
<clus scale="  458.576">  4  5 -1 -1</clus>
<clus scale="  300.000">  1  4  2 -1</clus>
</clustering>
</event>
<event>
 6    1  0.9131597E-012  0.3000000E+03  0.7818608E-02  0.1093470E+00
          1   -1    0    0  502    0  0.00000000000E+00  0.00000000000E+00  0.24856455216E+03  0.24856455216E+03  0.00000000000E+00 0.  1.
         13   -1    0    0    0    0 -0.00000000000E+00 -0.00000000000E+00 -0.27500000000E+03  0.27500000000E+03  0.00000000000E+00 0.  1.
    9000005    2    1    2  501    0  0.28601532603E+02 -0.15095182988E+02 -0.32990328561E+02  0.49056639042E+03  0.48838622976E+03 0.  0.
         13    1    3    3    0    0 -0.96830145999E+02  0.21004026286E+03 -0.26121020127E+02  0.23275587401E+03  0.00000000000E+00 0.  1.
          1    1    3    3  501    0  0.12543167860E+03 -0.22513544584E+03 -0.68693084340E+01  0.25781051641E+03  0.00000000000E+00 0.  1.
         21    1    1    2  502  501 -0.28601532603E+02  0.15095182988E+02  0.65548807179E+01  0.32998161735E+02  0.00000000000E+00 0.  1.
<scales pt_clust_4="550.00000" pt_clust_5="550.00000" pt_clust_6="32.34057"></scales>
<mgrwt>
<rscale>  0 0.30000000E+03</rscale>
<asrwt>  1 0.32340566E+02</asrwt>
<pdfrwt beam="1">  1        1 0.90387110E+00 0.30000000E+03</pdfrwt>
<pdfrwt beam="2">0</pdfrwt>
<totfact> 0.98375192E-05</totfact>
</mgrwt>
<clustering>
<clus scale="   32.341">  1  6  2 -1</clus>
<clus scale="  488.386">  4  5 -1 -1</clus>
<clus scale="  300.000">  1  4  2 -1</clus>
</clustering>
</event>
<event>
 6    1  0.9131597E-012  0.3000000E+03  0.7818608E-02  0.1093470E+00
          1   -1    0    0  502    0  0.00000000000E+00  0.00000000000E+00  0.22496135247E+03  0.22496135247E+03  0.00000000000E+00 0.  1.
         13   -1    0    0    0    0 -0.00000000000E+00 -0.00000000000E+00 -0.27500000000E+03  0.27500000000E+03  0.00000000000E+00 0.  1.
    9000005    2    1    2  501    0  0.19014753104E+02 -0.23653921428E+02 -0.69363111072E+02  0.46398214006E+03  0.45776316615E+03 0.  0.
         13    1    3    3    0    0 -0.15861649494E+03 -0.16711290858E+03 -0.31890756462E+02  0.23260038054E+03  0.00000000000E+00 0.  1.
          1    1    3    3  501    0  0.17763124804E+03  0.14345898715E+03 -0.37472354610E+02  0.23138175952E+03  0.00000000000E+00 0.  1.
         21    1    1    2  502  501 -0.19014753104E+02  0.23653921428E+02  0.19324463542E+02  0.35979212411E+02  0.00000000000E+00 0.  1.
<scales pt_clust_4="550.00000" pt_clust_5="550.00000" pt_clust_6="30.34912"></scales>
<mgrwt>
<rscale>  0 0.30000000E+03</rscale>
<asrwt>  1 0.30349116E+02</asrwt>
<pdfrwt beam="1">  1        1 0.81804128E+00 0.30000000E+03</pdfrwt>
<pdfrwt beam="2">0</pdfrwt>
<totfact> 0.77221236E-04</totfact>
</mgrwt>
<clustering>
<clus scale="   30.349">  1  6  2 -1</clus>
<clus scale="  457.763">  4  5 -1 -1</clus>
<clus scale="  300.000">  1  4  2 -1</clus>
</clustering>
</event>
<event>
 6    1  0.9131597E-012  0.3000000E+03  0.7818608E-02  0.1093470E+00
          1   -1    0    0  502    0  0.00000000000E+00  0.00000000000E+00  0.21785446739E+03  0.21785446739E+03  0.00000000000E+00 0.  1.
         13   -1    0    0    0    0 -0.00000000000E+00 -0.00000000000E+00 -0.27500000000E+03  0.27500000000E+03  0.00000000000E+00 0.  1.
    9000005    2    1    2  501    0 -0.24804257745E+02 -0.18597161243E+02 -0.50952684341E+02  0.46124027788E+03  0.45736780854E+03 0.  0.
         13    1    3    3    0    0  0.60537588696E+02  0.17367898414E+03  0.93230686854E+02  0.20620657154E+03  0.00000000000E+00 0.  1.
          1    1    3    3  501    0 -0.85341846441E+02 -0.19227614538E+03 -0.14418337119E+03  0.25503370633E+03  0.00000000000E+00 0.  1.
         21    1    1    2  502  501  0.24804257745E+02  0.18597161243E+02 -0.61928482740E+01  0.31614189509E+02  0.00000000000E+00 0. -1.
<scales pt_clust_4="550.00000" pt_clust_5="550.00000" pt_clust_6="31.00172"></scales>
<mgrwt>
<rscale>  0 0.30000000E+03</rscale>
<asrwt>  1 0.31001719E+02</asrwt>
<pdfrwt beam="1">  1        1 0.79219806E+00 0.30000000E+03</pdfrwt>
<pdfrwt beam="2">0</pdfrwt>
<totfact> 0.12125198E-03</totfact>
</mgrwt>
<clustering>
<clus scale="   31.002">  1  6  2 -1</clus>
<clus scale="  457.368">  4  5 -1 -1</clus>
<clus scale="  300.000">  1  4  2 -1</clus>
</clustering>
</event>
<event>
 6    1  0.9131597E-012  0.3000000E+03  0.7818608E-02  0.1093470E+00
          1   -1    0    0  502    0  0.00000000000E+00  0.00000000000E+00  0.24071201747E+03  0.24071201747E+03  0.00000000000E+00 0.  1.
         13   -1    0    0    0    0 -0.00000000000E+00 -0.00000000000E+00 -0.27500000000E+03  0.27500000000E+03  0.00000000000E+00 0.  1.
    9000005    2    1    2  501    0 -0.29738273633E+02  0.57731578742E+01 -0.57785362091E+02  0.47737377134E+03  0.47289414800E+03 0.  0.
         13    1    3    3    0    0  0.69581134818E+02  0.16437687035E+03 -0.18029222046E+03  0.25370568498E+03  0.00000000000E+00 0.  1.
          1    1    3    3  501    0 -0.99319408451E+02 -0.15860371248E+03  0.12250685837E+03  0.22366808636E+03  0.00000000000E+00 0.  1.
         21    1    1    2  502  501  0.29738273633E+02 -0.57731578742E+01  0.23497379564E+02  0.38338246138E+02  0.00000000000E+00 0. -1.
<scales pt_clust_4="550.00000" pt_clust_5="550.00000" pt_clust_6="30.29347"></scales>
<mgrwt>
<rscale>  0 0.30000000E+03</rscale>
<asrwt>  1 0.30293469E+02</asrwt>
<pdfrwt beam="1">  1        1 0.87531643E+00 0.30000000E+03</pdfrwt>
<pdfrwt beam="2">0</pdfrwt>
<totfact> 0.22939045E-04</totfact>
</mgrwt>
<clustering>
<clus scale="   30.293">  1  6  2 -1</clus>
<clus scale="  472.894">  4  5 -1 -1</clus>
<clus scale="  300.000">  1  4  2 -1</clus>
</clustering>
</event>
<event>
 6    1  0.9131597E-012  0.3000000E+03  0.7818608E-02  0.1093470E+00
          1   -1    0    0  502    0  0.00000000000E+00  0.00000000000E+00  0.23881169717E+03  0.23881169717E+03  0.00000000000E+00 0.  1.
         13   -1    0    0    0    0 -0.00000000000E+00 -0.00000000000E+00 -0.27500000000E+03  0.27500000000E+03  0.00000000000E+00 0.  1.
    9000005    2    1    2  501    0  0.11782790009E+02 -0.33283207221E+02 -0.44278864595E+02  0.47758928404E+03  0.47421967521E+03 0.  0.
         13    1    3    3    0    0 -0.17031671316E+03 -0.17503612668E+03 -0.11397495793E+02  0.24448994118E+03  0.00000000000E+00 0.  1.
          3    1    3    3  501    0  0.18209950317E+03  0.14175291946E+03 -0.32881368802E+02  0.23309934287E+03  0.00000000000E+00 0.  1.
         21    1    1    2  502  501 -0.11782790009E+02  0.33283207221E+02  0.80905617667E+01  0.36222413130E+02  0.00000000000E+00 0. -1.
<scales pt_clust_4="550.00000" pt_clust_5="550.00000" pt_clust_6="35.30731"></scales>
<mgrwt>
<rscale>  0 0.30000000E+03</rscale>
<asrwt>  1 0.35307308E+02</asrwt>
<pdfrwt beam="1">  1        1 0.86840617E+00 0.30000000E+03</pdfrwt>
<pdfrwt beam="2">0</pdfrwt>
<totfact> 0.26255724E-04</totfact>
</mgrwt>
<clustering>
<clus scale="   35.307">  1  6  2 -1</clus>
<clus scale="  474.220">  4  5 -1 -1</clus>
<clus scale="  300.000">  1  4  2 -1</clus>
</clustering>
</event>
<event>
 6    1  0.9131597E-012  0.3000000E+03  0.7818608E-02  0.1093470E+00
          1   -1    0    0  502    0  0.00000000000E+00  0.00000000000E+00  0.23414810860E+03  0.23414810860E+03  0.00000000000E+00 0.  1.
         13   -1    0    0    0    0 -0.00000000000E+00 -0.00000000000E+00 -0.27500000000E+03  0.27500000000E+03  0.00000000000E+00 0.  1.
    9000005    2    1    2  501    0 -0.21980695146E+02  0.25706869830E+02 -0.57098946937E+02  0.47162530314E+03  0.46693269612E+03 0.  0.
         13    1    3    3    0    0  0.58408645600E+02  0.18151975048E+03 -0.17623250821E+03  0.25965147149E+03  0.00000000000E+00 0.  1.
          1    1    3    3  501    0 -0.80389340745E+02 -0.15581288065E+03  0.11913356128E+03  0.21197383165E+03  0.00000000000E+00 0.  1.
         21    1    1    2  502  501  0.21980695146E+02 -0.25706869830E+02  0.16247055534E+02  0.37522805453E+02  0.00000000000E+00 0.  1.
<scales pt_clust_4="550.00000" pt_clust_5="550.00000" pt_clust_6="33.82298"></scales>
<mgrwt>
<rscale>  0 0.30000000E+03</rscale>
<asrwt>  1 0.33822982E+02</asrwt>
<pdfrwt beam="1">  1        1 0.85144767E+00 0.30000000E+03</pdfrwt>
<pdfrwt beam="2">0</pdfrwt>
<totfact> 0.39689727E-04</totfact>
</mgrwt>
<clustering>
<clus scale="   33.823">  1  6  2 -1</clus>
<clus scale="  466.933">  4  5 -1 -1</clus>
<clus scale="  300.000">  1  4  2 -1</clus>
</clustering>
</event>
<event>
 6    1  0.9131597E-012  0.3000000E+03  0.7818608E-02  0.1093470E+00
          1   -1    0    0  502    0  0.00000000000E+00  0.00000000000E+00  0.23709842538E+03  0.23709842538E+03  0.00000000000E+00 0.  1.
         13   -1    0    0    0    0 -0.00000000000E+00 -0.00000000000E+00 -0.27500000000E+03  0.27500000000E+03  0.00000000000E+00 0.  1.
    9000005    2    1    2  501    0  0.92363368769E+01  0.36744154446E+02 -0.57980680837E+02  0.46921937092E+03  0.46407932069E+03 0.  0.
         13    1    3    3    0    0  0.15540940513E+03  0.10874252618E+03 -0.18321264687E+03  0.26371176344E+03  0.00000000000E+00 0.  1.
          3    1    3    3  501    0 -0.14617306825E+03 -0.71998371739E+02  0.12523196603E+03  0.20550760748E+03  0.00000000000E+00 0.  1.
         21    1    1    2  502  501 -0.92363368769E+01 -0.36744154446E+02  0.20079106214E+02  0.42879054458E+02  0.00000000000E+00 0. -1.
<scales pt_clust_4="550.00000" pt_clust_5="550.00000" pt_clust_6="37.88724"></scales>
<mgrwt>
<rscale>  0 0.30000000E+03</rscale>
<asrwt>  1 0.37887238E+02</asrwt>
<pdfrwt beam="1">  1        1 0.86217609E+00 0.30000000E+03</pdfrwt>
<pdfrwt beam="2">0</pdfrwt>
<totfact> 0.30202300E-04</totfact>
</mgrwt>
<clustering>
<clus scale="   37.887">  1  6  2 -1</clus>
<clus scale="  464.079">  4  5 -1 -1</clus>
<clus scale="  300.000">  1  4  2 -1</clus>
</clustering>
</event>
<event>
 6    1  0.9131597E-012  0.3000000E+03  0.7818608E-02  0.1093470E+00
          1   -1    0    0  502    0  0.00000000000E+00  0.00000000000E+00  0.24226308057E+03  0.24226308057E+03  0.00000000000E+00 0.  1.
         13   -1    0    0    0    0 -0.00000000000E+00 -0.00000000000E+00 -0.27500000000E+03  0.27500000000E+03  0.00000000000E+00 0.  1.
    9000005    2    1    2  501    0  0.27051749365E+02  0.28871890807E+02 -0.59379522622E+02  0.46956390314E+03  0.46411092231E+03 0.  0.
         13    1    3    3    0    0 -0.20090720016E+03  0.20359595943E+02  0.61900194208E+02  0.21121044071E+03  0.00000000000E+00 0.  1.
          1    1    3    3  501    0  0.22795894953E+03  0.85122948647E+01 -0.12127971683E+03  0.25835346243E+03  0.00000000000E+00 0.  1.
         21    1    1    2  502  501 -0.27051749365E+02 -0.28871890807E+02  0.26642603187E+02  0.47699177426E+02  0.00000000000E+00 0. -1.
<scales pt_clust_4="550.00000" pt_clust_5="550.00000" pt_clust_6="39.56492"></scales>
<mgrwt>
<rscale>  0 0.30000000E+03</rscale>
<asrwt>  1 0.39564924E+02</asrwt>
<pdfrwt beam="1">  1        1 0.88095666E+00 0.30000000E+03</pdfrwt>
<pdfrwt beam="2">0</pdfrwt>
<totfact> 0.18770997E-04</totfact>
</mgrwt>
<clustering>
<clus scale="   39.565">  1  6  2 -1</clus>
<clus scale="  464.111">  4  5 -1 -1</clus>
<clus scale="  300.000">  1  4  2 -1</clus>
</clustering>
</event>
<event>
 6    1  0.9131597E-012  0.3000000E+03  0.7818608E-02  0.1093470E+00
          1   -1    0    0  502    0  0.00000000000E+00  0.00000000000E+00  0.23345773711E+03  0.23345773711E+03  0.00000000000E+00 0.  1.
         13   -1    0    0    0    0 -0.00000000000E+00 -0.00000000000E+00 -0.27500000000E+03  0.27500000000E+03  0.00000000000E+00 0.  1.
    9000005    2    1    2  501    0 -0.26451697972E+02  0.17636426866E+02 -0.68644480357E+02  0.46668135539E+03  0.46050916050E+03 0.  0.
         13    1    3    3    0    0 -0.16447000782E+03 -0.15914257996E+03 -0.79147621432E+02  0.24215922490E+03  0.00000000000E+00 0.  1.
          1    1    3    3  501    0  0.13801830984E+03  0.17677900682E+03  0.10503141075E+02  0.22452213049E+03  0.00000000000E+00 0.  1.
         21    1    1    2  502  501  0.26451697972E+02 -0.17636426866E+02  0.27102217468E+02  0.41776381723E+02  0.00000000000E+00 0.  1.
<scales pt_clust_4="550.00000" pt_clust_5="550.00000" pt_clust_6="31.79207"></scales>
<mgrwt>
<rscale>  0 0.30000000E+03</rscale>
<asrwt>  1 0.31792073E+02</asrwt>
<pdfrwt beam="1">  1        1 0.84893723E+00 0.30000000E+03</pdfrwt>
<pdfrwt beam="2">0</pdfrwt>
<totfact> 0.42400237E-04</totfact>
</mgrwt>
<clustering>
<clus scale="   31.792">  1  6  2 -1</clus>
<clus scale="  460.509">  4  5 -1 -1</clus>
<clus scale="  300.000">  1  4  2 -1</clus>
</clustering>
</event>
<event>
 6    1  0.9131597E-012  0.3000000E+03  0.7818608E-02  0.1093470E+00
          1   -1    0    0  502    0  0.00000000000E+00  0.00000000000E+00  0.23589951148E+03  0.23589951148E+03  0.00000000000E+00 0.  1.
         13   -1    0    0    0    0 -0.00000000000E+00 -0.00000000000E+00 -0.27500000000E+03  0.27500000000E+03  0.00000000000E+00 0.  1.
    9000005    2    1    2  501    0 -0.41877083049E+02 -0.93699639348E+01 -0.57953471396E+02  0.46402818472E+03  0.45839073405E+03 0.  0.
         13    1    3    3    0    0 -0.13564430224E+03  0.19181598040E+03 -0.58327577107E+02  0.24206373813E+03  0.00000000000E+00 0.  1.
          1    1    3    3  501    0  0.93767219191E+02 -0.20118594434E+03  0.37410571070E+00  0.22196444659E+03  0.00000000000E+00 0.  1.
         21    1    1    2  502  501  0.41877083049E+02  0.93699639348E+01  0.18852982877E+02  0.46871326759E+02  0.00000000000E+00 0. -1.
<scales pt_clust_4="550.00000" pt_clust_5="550.00000" pt_clust_6="42.91254"></scales>
<mgrwt>
<rscale>  0 0.30000000E+03</rscale>
<asrwt>  1 0.42912543E+02</asrwt>
<pdfrwt beam="1">  1        1 0.85781641E+00 0.30000000E+03</pdfrwt>
<pdfrwt beam="2">0</pdfrwt>
<totfact> 0.32855321E-04</totfact>
</mgrwt>
<clustering>
<clus scale="   42.913">  1  6  2 -1</clus>
<clus scale="  458.391">  4  5 -1 -1</clus>
<clus scale="  300.000">  1  4  2 -1</clus>
</clustering>
</event>
<event>
 6    1  0.9131597E-012  0.3000000E+03  0.7818608E-02  0.1093470E+00
          1   -1    0    0  502    0  0.00000000000E+00  0.00000000000E+00  0.22491791917E+03  0.22491791917E+03  0.00000000000E+00 0.  1.
         13   -1    0    0    0    0 -0.00000000000E+00 -0.00000000000E+00 -0.27500000000E+03  0.27500000000E+03  0.00000000000E+00 0.  1.
    9000005    2    1    2  501    0  0.27849621448E+02  0.21324104724E+02 -0.62517161945E+02  0.46270300147E+03  0.45711634534E+03 0.  0.
         13    1    3    3    0    0  0.16733204937E+02 -0.11278662996E+03 -0.22469166054E+03  0.25196659771E+03  0.00000000000E+00 0.  1.
          1    1    3    3  501    0  0.11116416511E+02  0.13411073469E+03  0.16217449859E+03  0.21073640376E+03  0.00000000000E+00 0.  1.
         21    1    1    2  502  501 -0.27849621448E+02 -0.21324104724E+02  0.12435081112E+02  0.37214917698E+02  0.00000000000E+00 0.  1.
<scales pt_clust_4="550.00000" pt_clust_5="550.00000" pt_clust_6="35.07590"></scales>
<mgrwt>
<rscale>  0 0.30000000E+03</rscale>
<asrwt>  1 0.35075901E+02</asrwt>
<pdfrwt beam="1">  1        1 0.81788334E+00 0.30000000E+03</pdfrwt>
<pdfrwt beam="2">0</pdfrwt>
<totfact> 0.75360126E-04</totfact>
</mgrwt>
<clustering>
<clus scale="   35.076">  1  6  2 -1</clus>
<clus scale="  457.116">  4  5 -1 -1</clus>
<clus scale="  300.000">  1  4  2 -1</clus>
</clustering>
</event>
<event>
 6    1  0.9131597E-012  0.3000000E+03  0.7818608E-02  0.1093470E+00
          1   -1    0    0  502    0  0.00000000000E+00  0.00000000000E+00  0.24483937646E+03  0.24483937646E+03  0.00000000000E+00 0.  1.
         13   -1    0    0    0    0 -0.00000000000E+00 -0.00000000000E+00 -0.27500000000E+03  0.27500000000E+03  0.00000000000E+00 0.  1.
    9000005    2    1    2  501    0 -0.29299124151E+02 -0.23570217447E+02 -0.26972638429E+02  0.48210137075E+03  0.47987520735E+03 0.  0.
         13    1    3    3    0    0  0.18701429264E+03 -0.14088701439E+03  0.33011836474E+01  0.23416744925E+03  0.00000000000E+00 0.  1.
          1    1    3    3  501    0 -0.21631341679E+03  0.11731679694E+03 -0.30273822076E+02  0.24793392150E+03  0.00000000000E+00 0.  1.
         21    1    1    2  502  501  0.29299124151E+02  0.23570217447E+02 -0.31879851074E+01  0.37738005718E+02  0.00000000000E+00 0. -1.
<scales pt_clust_4="550.00000" pt_clust_5="550.00000" pt_clust_6="37.60313"></scales>
<mgrwt>
<rscale>  0 0.30000000E+03</rscale>
<asrwt>  1 0.37603128E+02</asrwt>
<pdfrwt beam="1">  1        1 0.89032501E+00 0.30000000E+03</pdfrwt>
<pdfrwt beam="2">0</pdfrwt>
<totfact> 0.14162551E-04</totfact>
</mgrwt>
<clustering>
<clus scale="   37.603">  1  6  2 -1</clus>
<clus scale="  479.875">  4  5 -1 -1</clus>
<clus scale="  300.000">  1  4  2 -1</clus>
</clustering>
</event>
<event>
 6    1  0.9131597E-012  0.3000000E+03  0.7818608E-02  0.1093470E+00
          1   -1    0    0  502    0  0.00000000000E+00  0.00000000000E+00  0.22758448213E+03  0.22758448213E+03  0.00000000000E+00 0.  1.
         13   -1    0    0    0    0 -0.00000000000E+00 -0.00000000000E+00 -0.27500000000E+03  0.27500000000E+03  0.00000000000E+00 0.  1.
    9000005    2    1    2  501    0 -0.22375665642E+02  0.29441718385E+02 -0.61505498567E+02  0.46301160316E+03  0.45741593010E+03 0.  0.
         13    1    3    3    0    0 -0.53676196639E+02 -0.21006492082E+03 -0.17774925657E+02  0.21754161218E+03  0.00000000000E+00 0.  1.
          1    1    3    3  501    0  0.31300530996E+02  0.23950663921E+03 -0.43730572911E+02  0.24546999098E+03  0.00000000000E+00 0.  1.
         21    1    1    2  502  501  0.22375665642E+02 -0.29441718385E+02  0.14089980702E+02  0.39572878977E+02  0.00000000000E+00 0. -1.
<scales pt_clust_4="550.00000" pt_clust_5="550.00000" pt_clust_6="36.97952"></scales>
<mgrwt>
<rscale>  0 0.30000000E+03</rscale>
<asrwt>  1 0.36979524E+02</asrwt>
<pdfrwt beam="1">  1        1 0.82757994E+00 0.30000000E+03</pdfrwt>
<pdfrwt beam="2">0</pdfrwt>
<totfact> 0.61342051E-04</totfact>
</mgrwt>
<clustering>
<clus scale="   36.980">  1  6  2 -1</clus>
<clus scale="  457.416">  4  5 -1 -1</clus>
<clus scale="  300.000">  1  4  2 -1</clus>
</clustering>
</event>
<event>
 6    1  0.9131597E-012  0.3000000E+03  0.7818608E-02  0.1093470E+00
          1   -1    0    0  502    0  0.00000000000E+00  0.00000000000E+00  0.25039420751E+03  0.25039420751E+03  0.00000000000E+00 0.  1.
         13   -1    0    0    0    0 -0.00000000000E+00 -0.00000000000E+00 -0.27500000000E+03  0.27500000000E+03  0.00000000000E+00 0.  1.
    9000005    2    1    2  501    0 -0.36212099841E+02 -0.35767082156E+02 -0.45507874721E+02  0.47037150872E+03  0.46538993243E+03 0.  0.
         13    1    3    3    0    0  0.57907598707E+02  0.22453088810E+02 -0.23928696564E+03  0.24721586339E+03  0.00000000000E+00 0.  1.
          3    1    3    3  501    0 -0.94119698548E+02 -0.58220170965E+02  0.19377909092E+03  0.22315564533E+03  0.00000000000E+00 0.  1.
         21    1    1    2  502  501  0.36212099841E+02  0.35767082156E+02  0.20902082231E+02  0.55022698792E+02  0.00000000000E+00 0.  1.
<scales pt_clust_4="550.00000" pt_clust_5="550.00000" pt_clust_6="50.89794"></scales>
<mgrwt>
<rscale>  0 0.30000000E+03</rscale>
<asrwt>  1 0.50897940E+02</asrwt>
<pdfrwt beam="1">  1        1 0.91052439E+00 0.30000000E+03</pdfrwt>
<pdfrwt beam="2">0</pdfrwt>
<totfact> 0.65199657E-05</totfact>
</mgrwt>
<clustering>
<clus scale="   50.898">  1  6  2 -1</clus>
<clus scale="  465.390">  4  5 -1 -1</clus>
<clus scale="  300.000">  1  4  2 -1</clus>
</clustering>
</event>
<event>
 6    1  0.9131597E-012  0.3000000E+03  0.7818608E-02  0.1093470E+00
          1   -1    0    0  502    0  0.00000000000E+00  0.00000000000E+00  0.25074060636E+03  0.25074060636E+03  0.00000000000E+00 0.  1.
         13   -1    0    0    0    0 -0.00000000000E+00 -0.00000000000E+00 -0.27500000000E+03  0.27500000000E+03  0.00000000000E+00 0.  1.
    9000005    2    1    2  501    0 -0.54038197887E+01  0.47003200258E+02 -0.42904500642E+02  0.47488648049E+03  0.47057185538E+03 0.  0.
         13    1    3    3    0    0  0.71740833759E+01  0.21945788096E+03  0.10862381982E+03  0.24497420930E+03  0.00000000000E+00 0.  1.
          1    1    3    3  501    0 -0.12577903165E+02 -0.17245468070E+03 -0.15152832047E+03  0.22991227120E+03  0.00000000000E+00 0.  1.
         21    1    1    2  502  501  0.54038197887E+01 -0.47003200258E+02  0.18645107001E+02  0.50854125869E+02  0.00000000000E+00 0.  1.
<scales pt_clust_4="550.00000" pt_clust_5="550.00000" pt_clust_6="47.31281"></scales>
<mgrwt>
<rscale>  0 0.30000000E+03</rscale>
<asrwt>  1 0.47312811E+02</asrwt>
<pdfrwt beam="1">  1        1 0.91178402E+00 0.30000000E+03</pdfrwt>
<pdfrwt beam="2">0</pdfrwt>
<totfact> 0.61447127E-05</totfact>
</mgrwt>
<clustering>
<clus scale="   47.313">  1  6  2 -1</clus>
<clus scale="  470.572">  4  5 -1 -1</clus>
<clus scale="  300.000">  1  4  2 -1</clus>
</clustering>
</event>
<event>
 6    1  0.9131597E-012  0.3000000E+03  0.7818608E-02  0.1093470E+00
          1   -1    0    0  502    0  0.00000000000E+00  0.00000000000E+00  0.22448753981E+03  0.22448753981E+03  0.00000000000E+00 0.  1.
         13   -1    0    0    0    0 -0.00000000000E+00 -0.00000000000E+00 -0.27500000000E+03  0.27500000000E+03  0.00000000000E+00 0.  1.
    9000005    2    1    2  501    0  0.14648100747E+02  0.28622131179E+02 -0.49952070879E+02  0.46733000127E+03  0.46353891687E+03 0.  0.
         13    1    3    3    0    0 -0.13560831315E+03  0.12581766773E+03 -0.17048965628E+03  0.25156792921E+03  0.00000000000E+00 0.  1.
          3    1    3    3  501    0  0.15025641390E+03 -0.97195536554E+02  0.12053758540E+03  0.21576207206E+03  0.00000000000E+00 0.  1.
         21    1    1    2  502  501 -0.14648100747E+02 -0.28622131179E+02 -0.56038931074E+00  0.32157538539E+02  0.00000000000E+00 0.  1.
<scales pt_clust_4="550.00000" pt_clust_5="550.00000" pt_clust_6="32.15266"></scales>
<mgrwt>
<rscale>  0 0.30000000E+03</rscale>
<asrwt>  1 0.32152655E+02</asrwt>
<pdfrwt beam="1">  1        1 0.81631833E+00 0.30000000E+03</pdfrwt>
<pdfrwt beam="2">0</pdfrwt>
<totfact> 0.78915964E-04</totfact>
</mgrwt>
<clustering>
<clus scale="   32.153">  1  6  2 -1</clus>
<clus scale="  463.539">  4  5 -1 -1</clus>
<clus scale="  300.000">  1  4  2 -1</clus>
</clustering>
</event>
<event>
 6    1  0.9131597E-012  0.3000000E+03  0.7818608E-02  0.1093470E+00
          1   -1    0    0  502    0  0.00000000000E+00  0.00000000000E+00  0.23729508976E+03  0.23729508976E+03  0.00000000000E+00 0.  1.
         13   -1    0    0    0    0 -0.00000000000E+00 -0.00000000000E+00 -0.27500000000E+03  0.27500000000E+03  0.00000000000E+00 0.  1.
    9000005    2    1    2  501    0  0.32175030275E+02  0.89640650090E+01 -0.56359105260E+02  0.47403850828E+03  0.46948969270E+03 0.  0.
         13    1    3    3    0    0  0.11348008480E+03  0.17839929229E+03 -0.15464846528E+03  0.26195454748E+03  0.00000000000E+00 0.  1.
          3    1    3    3  501    0 -0.81305054525E+02 -0.16943522728E+03  0.98289360017E+02  0.21208396080E+03  0.00000000000E+00 0.  1.
         21    1    1    2  502  501 -0.32175030275E+02 -0.89640650090E+01  0.18654195021E+02  0.38256581481E+02  0.00000000000E+00 0. -1.
<scales pt_clust_4="550.00000" pt_clust_5="550.00000" pt_clust_6="33.40040"></scales>
<mgrwt>
<rscale>  0 0.30000000E+03</rscale>
<asrwt>  1 0.33400405E+02</asrwt>
<pdfrwt beam="1">  1        1 0.86289124E+00 0.30000000E+03</pdfrwt>
<pdfrwt beam="2">0</pdfrwt>
<totfact> 0.30374825E-04</totfact>
</mgrwt>
<clustering>
<clus scale="   33.400">  1  6  2 -1</clus>
<clus scale="  469.490">  4  5 -1 -1</clus>
<clus scale="  300.000">  1  4  2 -1</clus>
</clustering>
</event>
<event>
 6    1  0.9131597E-012  0.3000000E+03  0.7818608E-02  0.1093470E+00
          1   -1    0    0  502    0  0.00000000000E+00  0.00000000000E+00  0.23432099896E+03  0.23432099896E+03  0.00000000000E+00 0.  1.
         13   -1    0    0    0    0 -0.00000000000E+00 -0.00000000000E+00 -0.27500000000E+03  0.27500000000E+03  0.00000000000E+00 0.  1.
    9000005    2    1    2  501    0 -0.28293027292E+01  0.36992346011E+02 -0.37162354993E+02  0.47205431925E+03  0.46912450488E+03 0.  0.
         13    1    3    3    0    0  0.21901856381E+03  0.42476123289E+02  0.58123755250E+02  0.23054657505E+03  0.00000000000E+00 0.  1.
          3    1    3    3  501    0 -0.22184786654E+03 -0.54837772786E+01 -0.95286110243E+02  0.24150774420E+03  0.00000000000E+00 0.  1.
         21    1    1    2  502  501  0.28293027292E+01 -0.36992346011E+02 -0.35166460470E+01  0.37266679711E+02  0.00000000000E+00 0. -1.
<scales pt_clust_4="550.00000" pt_clust_5="550.00000" pt_clust_6="37.10040"></scales>
<mgrwt>
<rscale>  0 0.30000000E+03</rscale>
<asrwt>  1 0.37100404E+02</asrwt>
<pdfrwt beam="1">  1        1 0.85207636E+00 0.30000000E+03</pdfrwt>
<pdfrwt beam="2">0</pdfrwt>
<totfact> 0.38474672E-04</totfact>
</mgrwt>
<clustering>
<clus scale="   37.100">  1  6  2 -1</clus>
<clus scale="  469.125">  4  5 -1 -1</clus>
<clus scale="  300.000">  1  4  2 -1</clus>
</clustering>
</event>
<event>
 6    1  0.9131597E-012  0.3000000E+03  0.7818608E-02  0.1093470E+00
          1   -1    0    0  502    0  0.00000000000E+00  0.00000000000E+00  0.23880530953E+03  0.23880530953E+03  0.00000000000E+00 0.  1.
         13   -1    0    0    0    0 -0.00000000000E+00 -0.00000000000E+00 -0.27500000000E+03  0.27500000000E+03  0.00000000000E+00 0.  1.
    9000005    2    1    2  501    0  0.18985480793E+02 -0.25948182883E+02 -0.62526772467E+02  0.47224649316E+03  0.46698329344E+03 0.  0.
         13    1    3    3    0    0 -0.75866367284E+02 -0.22065869403E+03 -0.97441734661E+02  0.25286529337E+03  0.00000000000E+00 0.  1.
          1    1    3    3  501    0  0.94851848077E+02  0.19471051115E+03  0.34914962195E+02  0.21938119979E+03  0.00000000000E+00 0.  1.
         21    1    1    2  502  501 -0.18985480793E+02  0.25948182883E+02  0.26332081999E+02  0.41558816372E+02  0.00000000000E+00 0. -1.
<scales pt_clust_4="550.00000" pt_clust_5="550.00000" pt_clust_6="32.15209"></scales>
<mgrwt>
<rscale>  0 0.30000000E+03</rscale>
<asrwt>  1 0.32152087E+02</asrwt>
<pdfrwt beam="1">  1        1 0.86838294E+00 0.30000000E+03</pdfrwt>
<pdfrwt beam="2">0</pdfrwt>
<totfact> 0.26737542E-04</totfact>
</mgrwt>
<clustering>
<clus scale="   32.152">  1  6  2 -1</clus>
<clus scale="  466.983">  4  5 -1 -1</clus>
<clus scale="  300.000">  1  4  2 -1</clus>
</clustering>
</event>
<event>
 6    1  0.9131597E-012  0.3000000E+03  0.7818608E-02  0.1093470E+00
          1   -1    0    0  502    0  0.00000000000E+00  0.00000000000E+00  0.23906554686E+03  0.23906554686E+03  0.00000000000E+00 0.  1.
         13   -1    0    0    0    0 -0.00000000000E+00 -0.00000000000E+00 -0.27500000000E+03  0.27500000000E+03  0.00000000000E+00 0.  1.
    9000005    2    1    2  501    0  0.37428878355E+01 -0.38734816914E+02 -0.58122383940E+02  0.46926934698E+03  0.46402706090E+03 0.  0.
         13    1    3    3    0    0  0.18805523020E+03 -0.94727031359E+02  0.87264753366E+02  0.22793226462E+03  0.00000000000E+00 0.  1.
          3    1    3    3  501    0 -0.18431234236E+03  0.55992214445E+02 -0.14538713731E+03  0.24133708236E+03  0.00000000000E+00 0.  1.
         21    1    1    2  502  501 -0.37428878355E+01  0.38734816914E+02  0.22187930796E+02  0.44796199881E+02  0.00000000000E+00 0. -1.
<scales pt_clust_4="550.00000" pt_clust_5="550.00000" pt_clust_6="38.91523"></scales>
<mgrwt>
<rscale>  0 0.30000000E+03</rscale>
<asrwt>  1 0.38915232E+02</asrwt>
<pdfrwt beam="1">  1        1 0.86932926E+00 0.30000000E+03</pdfrwt>
<pdfrwt beam="2">0</pdfrwt>
<totfact> 0.25228558E-04</totfact>
</mgrwt>
<clustering>
<clus scale="   38.915">  1  6  2 -1</clus>
<clus scale="  464.027">  4  5 -1 -1</clus>
<clus scale="  300.000">  1  4  2 -1</clus>
</clustering>
</event>
<event>
 6    1  0.9131597E-012  0.3000000E+03  0.7818608E-02  0.1093470E+00
          1   -1    0    0  502    0  0.00000000000E+00  0.00000000000E+00  0.24829404808E+03  0.24829404808E+03  0.00000000000E+00 0.  1.
         13   -1    0    0    0    0 -0.00000000000E+00 -0.00000000000E+00 -0.27500000000E+03  0.27500000000E+03  0.00000000000E+00 0.  1.
    9000005    2    1    2  501    0  0.25011526667E+02 -0.37168323961E+02 -0.46634642118E+02  0.47426126858E+03  0.46983177868E+03 0.  0.
         13    1    3    3    0    0  0.21634002845E+03 -0.79771408613E+02  0.76313153090E+02  0.24287894696E+03  0.00000000000E+00 0.  1.
          3    1    3    3  501    0 -0.19132850178E+03  0.42603084652E+02 -0.12294779521E+03  0.23138232163E+03  0.00000000000E+00 0.  1.
         21    1    1    2  502  501 -0.25011526667E+02  0.37168323961E+02  0.19928690199E+02  0.49032779498E+02  0.00000000000E+00 0.  1.
<scales pt_clust_4="550.00000" pt_clust_5="550.00000" pt_clust_6="44.80023"></scales>
<mgrwt>
<rscale>  0 0.30000000E+03</rscale>
<asrwt>  1 0.44800232E+02</asrwt>
<pdfrwt beam="1">  1        1 0.90288745E+00 0.30000000E+03</pdfrwt>
<pdfrwt beam="2">0</pdfrwt>
<totfact> 0.96185879E-05</totfact>
</mgrwt>
<clustering>
<clus scale="   44.800">  1  6  2 -1</clus>
<clus scale="  469.832">  4  5 -1 -1</clus>
<clus scale="  300.000">  1  4  2 -1</clus>
</clustering>
</event>
<event>
 6    1  0.9131597E-012  0.3000000E+03  0.7818608E-02  0.1093470E+00
          1   -1    0    0  502    0  0.00000000000E+00  0.00000000000E+00  0.25178544256E+03  0.25178544256E+03  0.00000000000E+00 0.  1.
         13   -1    0    0    0    0 -0.00000000000E+00 -0.00000000000E+00 -0.27500000000E+03  0.27500000000E+03  0.00000000000E+00 0.  1.
    9000005    2    1    2  501    0  0.29794723957E+02  0.27143671174E+02 -0.47330031735E+02  0.47981672360E+03  0.47577247911E+03 0.  0.
         13    1    3    3    0    0  0.49013695024E+02 -0.67865023207E+01  0.21193544191E+03  0.21763508552E+03  0.00000000000E+00 0.  1.
          3    1    3    3  501    0 -0.19218971067E+02  0.33930173495E+02 -0.25926547364E+03  0.26218163808E+03  0.00000000000E+00 0.  1.
         21    1    1    2  502  501 -0.29794723957E+02 -0.27143671174E+02  0.24115474292E+02  0.46968718960E+02  0.00000000000E+00 0. -1.
<scales pt_clust_4="550.00000" pt_clust_5="550.00000" pt_clust_6="40.30514"></scales>
<mgrwt>
<rscale>  0 0.30000000E+03</rscale>
<asrwt>  1 0.40305142E+02</asrwt>
<pdfrwt beam="1">  1        1 0.91558343E+00 0.30000000E+03</pdfrwt>
<pdfrwt beam="2">0</pdfrwt>
<totfact> 0.51138448E-05</totfact>
</mgrwt>
<clustering>
<clus scale="   40.305">  1  6  2 -1</clus>
<clus scale="  475.772">  4  5 -1 -1</clus>
<clus scale="  300.000">  1  4  2 -1</clus>
</clustering>
</event>
<event>
 6    1  0.9131597E-012  0.3000000E+03  0.7818608E-02  0.1093470E+00
          1   -1    0    0  502    0  0.00000000000E+00  0.00000000000E+00  0.23747631359E+03  0.23747631359E+03  0.00000000000E+00 0.  1.
         13   -1    0    0    0    0 -0.00000000000E+00 -0.00000000000E+00 -0.27500000000E+03  0.27500000000E+03  0.00000000000E+00 0.  1.
    9000005    2    1    2  501    0 -0.27659464148E+02  0.15433657071E+02 -0.39749933916E+02  0.48072414980E+03  0.47802971374E+03 0.  0.
         13    1    3    3    0    0  0.32702273931E+02 -0.60736974994E+02  0.20558016801E+03  0.21684470095E+03  0.00000000000E+00 0.  1.
          3    1    3    3  501    0 -0.60361738079E+02  0.76170632065E+02 -0.24533010192E+03  0.26387944885E+03  0.00000000000E+00 0.  1.
         21    1    1    2  502  501  0.27659464148E+02 -0.15433657071E+02  0.22262475034E+01  0.31752163792E+02  0.00000000000E+00 0. -1.
<scales pt_clust_4="550.00000" pt_clust_5="550.00000" pt_clust_6="31.67402"></scales>
<mgrwt>
<rscale>  0 0.30000000E+03</rscale>
<asrwt>  1 0.31674023E+02</asrwt>
<pdfrwt beam="1">  1        1 0.86355023E+00 0.30000000E+03</pdfrwt>
<pdfrwt beam="2">0</pdfrwt>
<totfact> 0.30182254E-04</totfact>
</mgrwt>
<clustering>
<clus scale="   31.674">  1  6  2 -1</clus>
<clus scale="  478.030">  4  5 -1 -1</clus>
<clus scale="  300.000">  1  4  2 -1</clus>
</clustering>
</event>
<event>
 6    1  0.9131597E-012  0.3000000E+03  0.7818608E-02  0.1093470E+00
          1   -1    0    0  502    0  0.00000000000E+00  0.00000000000E+00  0.23180164615E+03  0.23180164615E+03  0.00000000000E+00 0.  1.
         13   -1    0    0    0    0 -0.00000000000E+00 -0.00000000000E+00 -0.27500000000E+03  0.27500000000E+03  0.00000000000E+00 0.  1.
    9000005    2    1    2  501    0  0.72727332306E+01 -0.32582592124E+02 -0.66508331101E+02  0.46608465955E+03  0.46010545944E+03 0.  0.
         13    1    3    3    0    0 -0.11477280159E+03  0.11686435020E+03  0.11582552681E+03  0.20061312269E+03  0.00000000000E+00 0.  1.
          3    1    3    3  501    0  0.12204553482E+03 -0.14944694233E+03 -0.18233385792E+03  0.26547153686E+03  0.00000000000E+00 0.  1.
         21    1    1    2  502  501 -0.72727332306E+01  0.32582592124E+02  0.23309977255E+02  0.40716986601E+02  0.00000000000E+00 0.  1.
<scales pt_clust_4="550.00000" pt_clust_5="550.00000" pt_clust_6="33.38440"></scales>
<mgrwt>
<rscale>  0 0.30000000E+03</rscale>
<asrwt>  1 0.33384397E+02</asrwt>
<pdfrwt beam="1">  1        1 0.84291508E+00 0.30000000E+03</pdfrwt>
<pdfrwt beam="2">0</pdfrwt>
<totfact> 0.47501795E-04</totfact>
</mgrwt>
<clustering>
<clus scale="   33.384">  1  6  2 -1</clus>
<clus scale="  460.105">  4  5 -1 -1</clus>
<clus scale="  300.000">  1  4  2 -1</clus>
</clustering>
</event>
<event>
 6    1  0.9131597E-012  0.3000000E+03  0.7818608E-02  0.1093470E+00
          1   -1    0    0  502    0  0.00000000000E+00  0.00000000000E+00  0.22317079676E+03  0.22317079676E+03  0.00000000000E+00 0.  1.
         13   -1    0    0    0    0 -0.00000000000E+00 -0.00000000000E+00 -0.27500000000E+03  0.27500000000E+03  0.00000000000E+00 0.  1.
    9000005    2    1    2  501    0 -0.21012228797E+02  0.28543359383E+02 -0.58811454278E+02  0.46204616591E+03  0.45691534791E+03 0.  0.
         13    1    3    3    0    0 -0.12420862481E+02 -0.20114675912E+03  0.50150654573E+02  0.20767615338E+03  0.00000000000E+00 0.  1.
          3    1    3    3  501    0 -0.85913663167E+01  0.22969011850E+03 -0.10896210885E+03  0.25437001254E+03  0.00000000000E+00 0.  1.
         21    1    1    2  502  501  0.21012228797E+02 -0.28543359383E+02  0.69822510333E+01  0.36124630841E+02  0.00000000000E+00 0. -1.
<scales pt_clust_4="550.00000" pt_clust_5="550.00000" pt_clust_6="35.44344"></scales>
<mgrwt>
<rscale>  0 0.30000000E+03</rscale>
<asrwt>  1 0.35443436E+02</asrwt>
<pdfrwt beam="1">  1        1 0.81153017E+00 0.30000000E+03</pdfrwt>
<pdfrwt beam="2">0</pdfrwt>
<totfact> 0.84640886E-04</totfact>
</mgrwt>
<clustering>
<clus scale="   35.443">  1  6  2 -1</clus>
<clus scale="  456.915">  4  5 -1 -1</clus>
<clus scale="  300.000">  1  4  2 -1</clus>
</clustering>
</event>
<event>
 6    1  0.9131597E-012  0.3000000E+03  0.7818608E-02  0.1093470E+00
          1   -1    0    0  502    0  0.00000000000E+00  0.00000000000E+00  0.23483025297E+03  0.23483025297E+03  0.00000000000E+00 0.  1.
         13   -1    0    0    0    0 -0.00000000000E+00 -0.00000000000E+00 -0.27500000000E+03  0.27500000000E+03  0.00000000000E+00 0.  1.
    9000005    2    1    2  501    0  0.44622156821E+02  0.17997723331E+02 -0.40962499286E+02  0.46170870498E+03  0.45736412954E+03 0.  0.
         13    1    3    3    0    0 -0.20095172413E+03  0.51066763397E+02  0.14297517043E+02  0.20783125065E+03  0.00000000000E+00 0.  1.
          3    1    3    3  501    0  0.24557388095E+03 -0.33069040066E+02 -0.55260016329E+02  0.25387745433E+03  0.00000000000E+00 0.  1.
         21    1    1    2  502  501 -0.44622156821E+02 -0.17997723331E+02  0.79275225610E+00  0.48121547987E+02  0.00000000000E+00 0. -1.
<scales pt_clust_4="550.00000" pt_clust_5="550.00000" pt_clust_6="48.11502"></scales>
<mgrwt>
<rscale>  0 0.30000000E+03</rscale>
<asrwt>  1 0.48115018E+02</asrwt>
<pdfrwt beam="1">  1        1 0.85392819E+00 0.30000000E+03</pdfrwt>
<pdfrwt beam="2">0</pdfrwt>
<totfact> 0.35229097E-04</totfact>
</mgrwt>
<clustering>
<clus scale="   48.115">  1  6  2 -1</clus>
<clus scale="  457.364">  4  5 -1 -1</clus>
<clus scale="  300.000">  1  4  2 -1</clus>
</clustering>
</event>
<event>
 6    1  0.9131597E-012  0.3000000E+03  0.7818608E-02  0.1093470E+00
          1   -1    0    0  502    0  0.00000000000E+00  0.00000000000E+00  0.24378878950E+03  0.24378878950E+03  0.00000000000E+00 0.  1.
         13   -1    0    0    0    0 -0.00000000000E+00 -0.00000000000E+00 -0.27500000000E+03  0.27500000000E+03  0.00000000000E+00 0.  1.
    9000005    2    1    2  501    0  0.15762047615E+02 -0.27954840143E+02 -0.59063095591E+02  0.47629593439E+03  0.47152884601E+03 0.  0.
         13    1    3    3    0    0  0.25616073740E+02  0.78374755279E+02  0.18901177028E+03  0.20621405093E+03  0.00000000000E+00 0.  1.
          1    1    3    3  501    0 -0.98540261242E+01 -0.10632959542E+03 -0.24807486587E+03  0.27008188345E+03  0.00000000000E+00 0.  1.
         21    1    1    2  502  501 -0.15762047615E+02  0.27954840143E+02  0.27851885088E+02  0.42492855110E+02  0.00000000000E+00 0.  1.
<scales pt_clust_4="550.00000" pt_clust_5="550.00000" pt_clust_6="32.09229"></scales>
<mgrwt>
<rscale>  0 0.30000000E+03</rscale>
<asrwt>  1 0.32092292E+02</asrwt>
<pdfrwt beam="1">  1        1 0.88650469E+00 0.30000000E+03</pdfrwt>
<pdfrwt beam="2">0</pdfrwt>
<totfact> 0.16446857E-04</totfact>
</mgrwt>
<clustering>
<clus scale="   32.092">  1  6  2 -1</clus>
<clus scale="  471.529">  4  5 -1 -1</clus>
<clus scale="  300.000">  1  4  2 -1</clus>
</clustering>
</event>
<event>
 6    1  0.9131597E-012  0.3000000E+03  0.7818608E-02  0.1093470E+00
          1   -1    0    0  502    0  0.00000000000E+00  0.00000000000E+00  0.23573705591E+03  0.23573705591E+03  0.00000000000E+00 0.  1.
         13   -1    0    0    0    0 -0.00000000000E+00 -0.00000000000E+00 -0.27500000000E+03  0.27500000000E+03  0.00000000000E+00 0.  1.
    9000005    2    1    2  501    0 -0.10065761569E+02 -0.41257013070E+02 -0.21361466960E+02  0.46465101066E+03  0.46221292577E+03 0.  0.
         13    1    3    3    0    0  0.38661546103E+01 -0.22236709966E+03 -0.12540331088E+03  0.25531953419E+03  0.00000000000E+00 0.  1.
          3    1    3    3  501    0 -0.13931916179E+02  0.18111008659E+03  0.10404184392E+03  0.20933147646E+03  0.00000000000E+00 0.  1.
         21    1    1    2  502  501  0.10065761569E+02  0.41257013070E+02 -0.17901477130E+02  0.46086045251E+02  0.00000000000E+00 0.  1.
<scales pt_clust_4="550.00000" pt_clust_5="550.00000" pt_clust_6="42.46719"></scales>
<mgrwt>
<rscale>  0 0.30000000E+03</rscale>
<asrwt>  1 0.42467193E+02</asrwt>
<pdfrwt beam="1">  1        1 0.85722566E+00 0.30000000E+03</pdfrwt>
<pdfrwt beam="2">0</pdfrwt>
<totfact> 0.33384349E-04</totfact>
</mgrwt>
<clustering>
<clus scale="   42.467">  1  6  2 -1</clus>
<clus scale="  462.213">  4  5 -1 -1</clus>
<clus scale="  300.000">  1  4  2 -1</clus>
</clustering>
</event>
<event>
 6    1  0.9131597E-012  0.3000000E+03  0.7818608E-02  0.1093470E+00
          1   -1    0    0  502    0  0.00000000000E+00  0.00000000000E+00  0.23132869049E+03  0.23132869049E+03  0.00000000000E+00 0.  1.
         13   -1    0    0    0    0 -0.00000000000E+00 -0.00000000000E+00 -0.27500000000E+03  0.27500000000E+03  0.00000000000E+00 0.  1.
    9000005    2    1    2  501    0 -0.11543360289E+02 -0.33843615401E+02 -0.66349045450E+02  0.46398581414E+03  0.45782311040E+03 0.  0.
         13    1    3    3    0    0  0.20353281262E+03  0.36879677944E+01  0.59373618459E+02  0.21204818672E+03  0.00000000000E+00 0.  1.
          1    1    3    3  501    0 -0.21507617291E+03 -0.37531583196E+02 -0.12572266391E+03  0.25193762742E+03  0.00000000000E+00 0.  1.
         21    1    1    2  502  501  0.11543360289E+02  0.33843615401E+02  0.22677735935E+02  0.42342876347E+02  0.00000000000E+00 0.  1.
<scales pt_clust_4="550.00000" pt_clust_5="550.00000" pt_clust_6="35.75807"></scales>
<mgrwt>
<rscale>  0 0.30000000E+03</rscale>
<asrwt>  1 0.35758069E+02</asrwt>
<pdfrwt beam="1">  1        1 0.84119524E+00 0.30000000E+03</pdfrwt>
<pdfrwt beam="2">0</pdfrwt>
<totfact> 0.48450572E-04</totfact>
</mgrwt>
<clustering>
<clus scale="   35.758">  1  6  2 -1</clus>
<clus scale="  457.823">  4  5 -1 -1</clus>
<clus scale="  300.000">  1  4  2 -1</clus>
</clustering>
</event>
<event>
 6    1  0.9131597E-012  0.3000000E+03  0.7818608E-02  0.1093470E+00
          1   -1    0    0  502    0  0.00000000000E+00  0.00000000000E+00  0.23490204195E+03  0.23490204195E+03  0.00000000000E+00 0.  1.
         13   -1    0    0    0    0 -0.00000000000E+00 -0.00000000000E+00 -0.27500000000E+03  0.27500000000E+03  0.00000000000E+00 0.  1.
    9000005    2    1    2  501    0  0.95279361913E+01  0.44572201831E+02 -0.33084425140E+02  0.46378640048E+03  0.46035397613E+03 0.  0.
         13    1    3    3    0    0 -0.21953944184E+03  0.50373010294E+02 -0.59923752234E+02  0.23307909124E+03  0.00000000000E+00 0.  1.
          1    1    3    3  501    0  0.22906737803E+03 -0.58008084628E+01  0.26839327094E+02  0.23070730924E+03  0.00000000000E+00 0.  1.
         21    1    1    2  502  501 -0.95279361913E+01 -0.44572201831E+02 -0.70135329140E+01  0.46115641469E+02  0.00000000000E+00 0.  1.
<scales pt_clust_4="550.00000" pt_clust_5="550.00000" pt_clust_6="45.57921"></scales>
<mgrwt>
<rscale>  0 0.30000000E+03</rscale>
<asrwt>  1 0.45579215E+02</asrwt>
<pdfrwt beam="1">  1        1 0.85418924E+00 0.30000000E+03</pdfrwt>
<pdfrwt beam="2">0</pdfrwt>
<totfact> 0.35361743E-04</totfact>
</mgrwt>
<clustering>
<clus scale="   45.579">  1  6  2 -1</clus>
<clus scale="  460.354">  4  5 -1 -1</clus>
<clus scale="  300.000">  1  4  2 -1</clus>
</clustering>
</event>
<event>
 6    1  0.9131597E-012  0.3000000E+03  0.7818608E-02  0.1093470E+00
          1   -1    0    0  502    0  0.00000000000E+00  0.00000000000E+00  0.24068000120E+03  0.24068000120E+03  0.00000000000E+00 0.  1.
         13   -1    0    0    0    0 -0.00000000000E+00 -0.00000000000E+00 -0.27500000000E+03  0.27500000000E+03  0.00000000000E+00 0.  1.
    9000005    2    1    2  501    0 -0.10097897193E+02  0.29418496857E+02 -0.16967673324E+02  0.48006373125E+03  0.47875449726E+03 0.  0.
         13    1    3    3    0    0 -0.24011936866E+03  0.57095023164E+02 -0.26190458333E+02  0.24819970384E+03  0.00000000000E+00 0.  1.
          1    1    3    3  501    0  0.23002147147E+03 -0.27676526307E+02  0.92227850089E+01  0.23186402742E+03  0.00000000000E+00 0.  1.
         21    1    1    2  502  501  0.10097897193E+02 -0.29418496857E+02 -0.17352325480E+02  0.35616269942E+02  0.00000000000E+00 0. -1.
<scales pt_clust_4="550.00000" pt_clust_5="550.00000" pt_clust_6="31.10332"></scales>
<mgrwt>
<rscale>  0 0.30000000E+03</rscale>
<asrwt>  1 0.31103319E+02</asrwt>
<pdfrwt beam="1">  1        1 0.87520000E+00 0.30000000E+03</pdfrwt>
<pdfrwt beam="2">0</pdfrwt>
<totfact> 0.22888415E-04</totfact>
</mgrwt>
<clustering>
<clus scale="   31.103">  1  6  2 -1</clus>
<clus scale="  478.754">  4  5 -1 -1</clus>
<clus scale="  300.000">  1  4  2 -1</clus>
</clustering>
</event>
<event>
 6    1  0.9131597E-012  0.3000000E+03  0.7818608E-02  0.1093470E+00
          1   -1    0    0  502    0  0.00000000000E+00  0.00000000000E+00  0.23178658923E+03  0.23178658923E+03  0.00000000000E+00 0.  1.
         13   -1    0    0    0    0 -0.00000000000E+00 -0.00000000000E+00 -0.27500000000E+03  0.27500000000E+03  0.00000000000E+00 0.  1.
    9000005    2    1    2  501    0 -0.24613383145E+01  0.38375916143E+02 -0.35206642509E+02  0.46750711031E+03  0.46459081070E+03 0.  0.
         13    1    3    3    0    0  0.19893075191E+02 -0.12883763679E+03  0.16203097839E+03  0.20796372052E+03  0.00000000000E+00 0.  1.
          3    1    3    3  501    0 -0.22354413506E+02  0.16721355293E+03 -0.19723762090E+03  0.25954338979E+03  0.00000000000E+00 0.  1.
         21    1    1    2  502  501  0.24613383145E+01 -0.38375916143E+02 -0.80067682620E+01  0.39279478919E+02  0.00000000000E+00 0. -1.
<scales pt_clust_4="550.00000" pt_clust_5="550.00000" pt_clust_6="38.45479"></scales>
<mgrwt>
<rscale>  0 0.30000000E+03</rscale>
<asrwt>  1 0.38454787E+02</asrwt>
<pdfrwt beam="1">  1        1 0.84286032E+00 0.30000000E+03</pdfrwt>
<pdfrwt beam="2">0</pdfrwt>
<totfact> 0.46316259E-04</totfact>
</mgrwt>
<clustering>
<clus scale="   38.455">  1  6  2 -1</clus>
<clus scale="  464.591">  4  5 -1 -1</clus>
<clus scale="  300.000">  1  4  2 -1</clus>
</clustering>
</event>
<event>
 6    1  0.9131597E-012  0.3000000E+03  0.7818608E-02  0.1093470E+00
          1   -1    0    0  502    0  0.00000000000E+00  0.00000000000E+00  0.25837473101E+03  0.25837473101E+03  0.00000000000E+00 0.  1.
         13   -1    0    0    0    0 -0.00000000000E+00 -0.00000000000E+00 -0.27500000000E+03  0.27500000000E+03  0.00000000000E+00 0.  1.
    9000005    2    1    2  501    0 -0.30247545172E+02 -0.22262489931E+02 -0.35388273668E+02  0.49139160593E+03  0.48867458295E+03 0.  0.
         13    1    3    3    0    0 -0.28767290487E+02  0.16886050501E+03  0.14810176470E+03  0.22644107370E+03  0.00000000000E+00 0.  1.
          3    1    3    3  501    0 -0.14802546851E+01 -0.19112299494E+03 -0.18349003837E+03  0.26495053223E+03  0.00000000000E+00 0.  1.
         21    1    1    2  502  501  0.30247545172E+02  0.22262489931E+02  0.18763004674E+02  0.41983125077E+02  0.00000000000E+00 0.  1.
<scales pt_clust_4="550.00000" pt_clust_5="550.00000" pt_clust_6="37.55706"></scales>
<mgrwt>
<rscale>  0 0.30000000E+03</rscale>
<asrwt>  1 0.37557056E+02</asrwt>
<pdfrwt beam="1">  1        1 0.93954448E+00 0.30000000E+03</pdfrwt>
<pdfrwt beam="2">0</pdfrwt>
<totfact> 0.19243113E-05</totfact>
</mgrwt>
<clustering>
<clus scale="   37.557">  1  6  2 -1</clus>
<clus scale="  488.675">  4  5 -1 -1</clus>
<clus scale="  300.000">  1  4  2 -1</clus>
</clustering>
</event>
<event>
 6    1  0.9131597E-012  0.3000000E+03  0.7818608E-02  0.1093470E+00
          1   -1    0    0  502    0  0.00000000000E+00  0.00000000000E+00  0.22942849578E+03  0.22942849578E+03  0.00000000000E+00 0.  1.
         13   -1    0    0    0    0 -0.00000000000E+00 -0.00000000000E+00 -0.27500000000E+03  0.27500000000E+03  0.00000000000E+00 0.  1.
    9000005    2    1    2  501    0  0.74993097302E+01  0.31976270728E+02 -0.47321569165E+02  0.47153800683E+03  0.46800645235E+03 0.  0.
         13    1    3    3    0    0 -0.10530804688E+03 -0.13157392528E+03 -0.16891024725E+03  0.23860459798E+03  0.00000000000E+00 0.  1.
          3    1    3    3  501    0  0.11280735661E+03  0.16355019600E+03  0.12158867809E+03  0.23293340885E+03  0.00000000000E+00 0.  1.
         21    1    1    2  502  501 -0.74993097302E+01 -0.31976270728E+02  0.17500649439E+01  0.32890488950E+02  0.00000000000E+00 0. -1.
<scales pt_clust_4="550.00000" pt_clust_5="550.00000" pt_clust_6="32.84390"></scales>
<mgrwt>
<rscale>  0 0.30000000E+03</rscale>
<asrwt>  1 0.32843896E+02</asrwt>
<pdfrwt beam="1">  1        1 0.83428544E+00 0.30000000E+03</pdfrwt>
<pdfrwt beam="2">0</pdfrwt>
<totfact> 0.55414250E-04</totfact>
</mgrwt>
<clustering>
<clus scale="   32.844">  1  6  2 -1</clus>
<clus scale="  468.006">  4  5 -1 -1</clus>
<clus scale="  300.000">  1  4  2 -1</clus>
</clustering>
</event>
<event>
 6    1  0.9131597E-012  0.3000000E+03  0.7818608E-02  0.1093470E+00
          1   -1    0    0  502    0  0.00000000000E+00  0.00000000000E+00  0.21837141591E+03  0.21837141591E+03  0.00000000000E+00 0.  1.
         13   -1    0    0    0    0 -0.00000000000E+00 -0.00000000000E+00 -0.27500000000E+03  0.27500000000E+03  0.00000000000E+00 0.  1.
    9000005    2    1    2  501    0 -0.31235348476E+02  0.39177281652E+01 -0.62015579267E+02  0.46143373745E+03  0.45616243422E+03 0.  0.
         13    1    3    3    0    0 -0.38236757016E+02  0.42341389418E+02  0.19412389246E+03  0.20233370572E+03  0.00000000000E+00 0.  1.
          3    1    3    3  501    0  0.70014085398E+01 -0.38423661252E+02 -0.25613947173E+03  0.25910003173E+03  0.00000000000E+00 0.  1.
         21    1    1    2  502  501  0.31235348476E+02 -0.39177281652E+01  0.53869951757E+01  0.31937678460E+02  0.00000000000E+00 0.  1.
<scales pt_clust_4="550.00000" pt_clust_5="550.00000" pt_clust_6="31.48008"></scales>
<mgrwt>
<rscale>  0 0.30000000E+03</rscale>
<asrwt>  1 0.31480082E+02</asrwt>
<pdfrwt beam="1">  1        1 0.79407788E+00 0.30000000E+03</pdfrwt>
<pdfrwt beam="2">0</pdfrwt>
<totfact> 0.11694398E-03</totfact>
</mgrwt>
<clustering>
<clus scale="   31.480">  1  6  2 -1</clus>
<clus scale="  456.162">  4  5 -1 -1</clus>
<clus scale="  300.000">  1  4  2 -1</clus>
</clustering>
</event>
<event>
 6    1  0.9131597E-012  0.3000000E+03  0.7818608E-02  0.1093470E+00
          1   -1    0    0  502    0  0.00000000000E+00  0.00000000000E+00  0.22383782900E+03  0.22383782900E+03  0.00000000000E+00 0.  1.
         13   -1    0    0    0    0 -0.00000000000E+00 -0.00000000000E+00 -0.27500000000E+03  0.27500000000E+03  0.00000000000E+00 0.  1.
    9000005    2    1    2  501    0  0.16472284134E+02 -0.25950218150E+02 -0.61458776465E+02  0.46642224554E+03  0.46133261316E+03 0.  0.
         13    1    3    3    0    0 -0.19965089299E+03 -0.26865958478E+02  0.70225263190E+02  0.21333974404E+03  0.00000000000E+00 0.  1.
          1    1    3    3  501    0  0.21612317712E+03  0.91574032778E+00 -0.13168403966E+03  0.25308250151E+03  0.00000000000E+00 0.  1.
         21    1    1    2  502  501 -0.16472284134E+02  0.25950218150E+02  0.10296605464E+02  0.32415583455E+02  0.00000000000E+00 0. -1.
<scales pt_clust_4="550.00000" pt_clust_5="550.00000" pt_clust_6="30.73679"></scales>
<mgrwt>
<rscale>  0 0.30000000E+03</rscale>
<asrwt>  1 0.30736785E+02</asrwt>
<pdfrwt beam="1">  1        1 0.81395574E+00 0.30000000E+03</pdfrwt>
<pdfrwt beam="2">0</pdfrwt>
<totfact> 0.83180169E-04</totfact>
</mgrwt>
<clustering>
<clus scale="   30.737">  1  6  2 -1</clus>
<clus scale="  461.333">  4  5 -1 -1</clus>
<clus scale="  300.000">  1  4  2 -1</clus>
</clustering>
</event>
<event>
 6    1  0.9131597E-012  0.3000000E+03  0.7818608E-02  0.1093470E+00
          1   -1    0    0  502    0  0.00000000000E+00  0.00000000000E+00  0.24472574584E+03  0.24472574584E+03  0.00000000000E+00 0.  1.
         13   -1    0    0    0    0 -0.00000000000E+00 -0.00000000000E+00 -0.27500000000E+03  0.27500000000E+03  0.00000000000E+00 0.  1.
    9000005    2    1    2  501    0  0.10870263725E+02 -0.31028472776E+02 -0.58363590721E+02  0.47648294777E+03  0.47175074143E+03 0.  0.
         13    1    3    3    0    0  0.92507682232E+02 -0.21428731571E+03  0.63326471756E+02  0.24184078848E+03  0.00000000000E+00 0.  1.
          1    1    3    3  501    0 -0.81637418507E+02  0.18325884293E+03 -0.12169006248E+03  0.23464215930E+03  0.00000000000E+00 0.  1.
         21    1    1    2  502  501 -0.10870263725E+02  0.31028472776E+02  0.28089336560E+02  0.43242798067E+02  0.00000000000E+00 0.  1.
<scales pt_clust_4="550.00000" pt_clust_5="550.00000" pt_clust_6="32.87748"></scales>
<mgrwt>
<rscale>  0 0.30000000E+03</rscale>
<asrwt>  1 0.32877481E+02</asrwt>
<pdfrwt beam="1">  1        1 0.88991180E+00 0.30000000E+03</pdfrwt>
<pdfrwt beam="2">0</pdfrwt>
<totfact> 0.14706915E-04</totfact>
</mgrwt>
<clustering>
<clus scale="   32.877">  1  6  2 -1</clus>
<clus scale="  471.751">  4  5 -1 -1</clus>
<clus scale="  300.000">  1  4  2 -1</clus>
</clustering>
</event>
<event>
 6    1  0.9131597E-012  0.3000000E+03  0.7818608E-02  0.1093470E+00
          1   -1    0    0  502    0  0.00000000000E+00  0.00000000000E+00  0.24355746687E+03  0.24355746687E+03  0.00000000000E+00 0.  1.
         13   -1    0    0    0    0 -0.00000000000E+00 -0.00000000000E+00 -0.27500000000E+03  0.27500000000E+03  0.00000000000E+00 0.  1.
    9000005    2    1    2  501    0 -0.68599658679E+01 -0.30723054554E+02 -0.65415021113E+02  0.47224229492E+03  0.46662907637E+03 0.  0.
         13    1    3    3    0    0 -0.16515033347E+03 -0.17169799425E+03  0.29392904225E+02  0.24003911492E+03  0.00000000000E+00 0.  1.
          3    1    3    3  501    0  0.15829036760E+03  0.14097493969E+03 -0.94807925337E+02  0.23220318000E+03  0.00000000000E+00 0.  1.
         21    1    1    2  502  501  0.68599658679E+01  0.30723054554E+02  0.33972487984E+02  0.46315171948E+02  0.00000000000E+00 0. -1.
<scales pt_clust_4="550.00000" pt_clust_5="550.00000" pt_clust_6="31.47960"></scales>
<mgrwt>
<rscale>  0 0.30000000E+03</rscale>
<asrwt>  1 0.31479600E+02</asrwt>
<pdfrwt beam="1">  1        1 0.88566352E+00 0.30000000E+03</pdfrwt>
<pdfrwt beam="2">0</pdfrwt>
<totfact> 0.16954428E-04</totfact>
</mgrwt>
<clustering>
<clus scale="   31.480">  1  6  2 -1</clus>
<clus scale="  466.629">  4  5 -1 -1</clus>
<clus scale="  300.000">  1  4  2 -1</clus>
</clustering>
</event>
<event>
 6    1  0.9131597E-012  0.3000000E+03  0.7818608E-02  0.1093470E+00
          1   -1    0    0  502    0  0.00000000000E+00  0.00000000000E+00  0.22943351477E+03  0.22943351477E+03  0.00000000000E+00 0.  1.
         13   -1    0    0    0    0 -0.00000000000E+00 -0.00000000000E+00 -0.27500000000E+03  0.27500000000E+03  0.00000000000E+00 0.  1.
    9000005    2    1    2  501    0  0.27678846852E+02  0.21163325439E+02 -0.68131974662E+02  0.46292199564E+03  0.45655317672E+03 0.  0.
         13    1    3    3    0    0 -0.12635625622E+03  0.94964845676E+02 -0.19437342790E+03  0.25052994805E+03  0.00000000000E+00 0.  1.
          1    1    3    3  501    0  0.15403510307E+03 -0.73801520237E+02  0.12624145323E+03  0.21239204759E+03  0.00000000000E+00 0.  1.
         21    1    1    2  502  501 -0.27678846852E+02 -0.21163325439E+02  0.22565489427E+02  0.41511519122E+02  0.00000000000E+00 0.  1.
<scales pt_clust_4="550.00000" pt_clust_5="550.00000" pt_clust_6="34.84257"></scales>
<mgrwt>
<rscale>  0 0.30000000E+03</rscale>
<asrwt>  1 0.34842573E+02</asrwt>
<pdfrwt beam="1">  1        1 0.83430369E+00 0.30000000E+03</pdfrwt>
<pdfrwt beam="2">0</pdfrwt>
<totfact> 0.54784656E-04</totfact>
</mgrwt>
<clustering>
<clus scale="   34.843">  1  6  2 -1</clus>
<clus scale="  456.553">  4  5 -1 -1</clus>
<clus scale="  300.000">  1  4  2 -1</clus>
</clustering>
</event>
<event>
 6    1  0.9131597E-012  0.3000000E+03  0.7818608E-02  0.1093470E+00
          1   -1    0    0  502    0  0.00000000000E+00  0.00000000000E+00  0.24321946310E+03  0.24321946310E+03  0.00000000000E+00 0.  1.
         13   -1    0    0    0    0 -0.00000000000E+00 -0.00000000000E+00 -0.27500000000E+03  0.27500000000E+03  0.00000000000E+00 0.  1.
    9000005    2    1    2  501    0  0.31486047573E+02 -0.39765950898E+01 -0.61815960708E+02  0.47452379760E+03  0.46940860345E+03 0.  0.
         13    1    3    3    0    0 -0.64631489875E+02  0.18519475285E+03  0.87787883376E+02  0.21489773948E+03  0.00000000000E+00 0.  1.
          3    1    3    3  501    0  0.96117537449E+02 -0.18917134794E+03 -0.14960384408E+03  0.25962605812E+03  0.00000000000E+00 0.  1.
         21    1    1    2  502  501 -0.31486047573E+02  0.39765950898E+01  0.30035423811E+02  0.43695665504E+02  0.00000000000E+00 0.  1.
<scales pt_clust_4="550.00000" pt_clust_5="550.00000" pt_clust_6="31.73617"></scales>
<mgrwt>
<rscale>  0 0.30000000E+03</rscale>
<asrwt>  1 0.31736170E+02</asrwt>
<pdfrwt beam="1">  1        1 0.88443441E+00 0.30000000E+03</pdfrwt>
<pdfrwt beam="2">0</pdfrwt>
<totfact> 0.17597504E-04</totfact>
</mgrwt>
<clustering>
<clus scale="   31.736">  1  6  2 -1</clus>
<clus scale="  469.409">  4  5 -1 -1</clus>
<clus scale="  300.000">  1  4  2 -1</clus>
</clustering>
</event>
<event>
 6    1  0.9131597E-012  0.3000000E+03  0.7818608E-02  0.1093470E+00
          1   -1    0    0  502    0  0.00000000000E+00  0.00000000000E+00  0.22211661669E+03  0.22211661669E+03  0.00000000000E+00 0.  1.
         13   -1    0    0    0    0 -0.00000000000E+00 -0.00000000000E+00 -0.27500000000E+03  0.27500000000E+03  0.00000000000E+00 0.  1.
    9000005    2    1    2  501    0 -0.87689603767E+01 -0.29012284685E+02 -0.67050720933E+02  0.46366036490E+03  0.45778436788E+03 0.  0.
         13    1    3    3    0    0  0.41316876300E+02  0.19194528250E+03 -0.12117268734E+03  0.23072255178E+03  0.00000000000E+00 0.  1.
          1    1    3    3  501    0 -0.50085836677E+02 -0.22095756719E+03  0.54121966405E+02  0.23293781312E+03  0.00000000000E+00 0.  1.
         21    1    1    2  502  501  0.87689603767E+01  0.29012284685E+02  0.14167337624E+02  0.33456251793E+02  0.00000000000E+00 0.  1.
<scales pt_clust_4="550.00000" pt_clust_5="550.00000" pt_clust_6="30.30854"></scales>
<mgrwt>
<rscale>  0 0.30000000E+03</rscale>
<asrwt>  1 0.30308536E+02</asrwt>
<pdfrwt beam="1">  1        1 0.80769679E+00 0.30000000E+03</pdfrwt>
<pdfrwt beam="2">0</pdfrwt>
<totfact> 0.93386507E-04</totfact>
</mgrwt>
<clustering>
<clus scale="   30.309">  1  6  2 -1</clus>
<clus scale="  457.784">  4  5 -1 -1</clus>
<clus scale="  300.000">  1  4  2 -1</clus>
</clustering>
</event>
<event>
 6    1  0.9131597E-012  0.3000000E+03  0.7818608E-02  0.1093470E+00
          1   -1    0    0  502    0  0.00000000000E+00  0.00000000000E+00  0.23419837114E+03  0.23419837114E+03  0.00000000000E+00 0.  1.
         13   -1    0    0    0    0 -0.00000000000E+00 -0.00000000000E+00 -0.27500000000E+03  0.27500000000E+03  0.00000000000E+00 0.  1.
    9000005    2    1    2  501    0  0.31266838251E+02 -0.76679469279E+01 -0.55839787717E+02  0.47366586763E+03  0.46925990632E+03 0.  0.
         13    1    3    3    0    0 -0.12549105228E+03 -0.16835405181E+03  0.63580754113E+02  0.21939371745E+03  0.00000000000E+00 0.  1.
          1    1    3    3  501    0  0.15675789053E+03  0.16068610488E+03 -0.11942054183E+03  0.25427215018E+03  0.00000000000E+00 0.  1.
         21    1    1    2  502  501 -0.31266838251E+02  0.76679469279E+01  0.15038158861E+02  0.35532503518E+02  0.00000000000E+00 0. -1.
<scales pt_clust_4="550.00000" pt_clust_5="550.00000" pt_clust_6="32.19336"></scales>
<mgrwt>
<rscale>  0 0.30000000E+03</rscale>
<asrwt>  1 0.32193362E+02</asrwt>
<pdfrwt beam="1">  1        1 0.85163044E+00 0.30000000E+03</pdfrwt>
<pdfrwt beam="2">0</pdfrwt>
<totfact> 0.39901596E-04</totfact>
</mgrwt>
<clustering>
<clus scale="   32.193">  1  6  2 -1</clus>
<clus scale="  469.260">  4  5 -1 -1</clus>
<clus scale="  300.000">  1  4  2 -1</clus>
</clustering>
</event>
<event>
 6    1  0.9131597E-012  0.3000000E+03  0.7818608E-02  0.1093470E+00
          1   -1    0    0  502    0  0.00000000000E+00  0.00000000000E+00  0.25989071337E+03  0.25989071337E+03  0.00000000000E+00 0.  1.
         13   -1    0    0    0    0 -0.00000000000E+00 -0.00000000000E+00 -0.27500000000E+03  0.27500000000E+03  0.00000000000E+00 0.  1.
    9000005    2    1    2  501    0 -0.33016382186E+02 -0.24778763850E+02 -0.72726377424E+02  0.46401195927E+03  0.45641418004E+03 0.  0.
         13    1    3    3    0    0  0.18126713180E+03 -0.86033888791E+02 -0.12326542899E+03  0.23548666433E+03  0.00000000000E+00 0.  1.
          3    1    3    3  501    0 -0.21428351399E+03  0.61255124941E+02  0.50539051562E+02  0.22852529495E+03  0.00000000000E+00 0.  1.
         21    1    1    2  502  501  0.33016382186E+02  0.24778763850E+02  0.57617090793E+02  0.70878754095E+02  0.00000000000E+00 0. -1.
<scales pt_clust_4="550.00000" pt_clust_5="550.00000" pt_clust_6="41.28037"></scales>
<mgrwt>
<rscale>  0 0.30000000E+03</rscale>
<asrwt>  1 0.41280366E+02</asrwt>
<pdfrwt beam="1">  1        1 0.94505714E+00 0.30000000E+03</pdfrwt>
<pdfrwt beam="2">0</pdfrwt>
<totfact> 0.15043988E-05</totfact>
</mgrwt>
<clustering>
<clus scale="   41.280">  1  6  2 -1</clus>
<clus scale="  456.414">  4  5 -1 -1</clus>
<clus scale="  300.000">  1  4  2 -1</clus>
</clustering>
</event>
<event>
 6    1  0.9131597E-012  0.3000000E+03  0.7818608E-02  0.1093470E+00
          1   -1    0    0  502    0  0.00000000000E+00  0.00000000000E+00  0.23509696436E+03  0.23509696436E+03  0.00000000000E+00 0.  1.
         13   -1    0    0    0    0 -0.00000000000E+00 -0.00000000000E+00 -0.27500000000E+03  0.27500000000E+03  0.00000000000E+00 0.  1.
    9000005    2    1    2  501    0 -0.16473019391E+02  0.25896997626E+02 -0.56752260798E+02  0.47508394903E+03  0.47068240319E+03 0.  0.
         13    1    3    3    0    0 -0.22918420189E+02 -0.36168778137E+02  0.20324351801E+03  0.20770498817E+03  0.00000000000E+00 0.  1.
          1    1    3    3  501    0  0.64454007980E+01  0.62065775763E+02 -0.25999577881E+03  0.26737896086E+03  0.00000000000E+00 0.  1.
         21    1    1    2  502  501  0.16473019391E+02 -0.25896997626E+02  0.16849225161E+02  0.35013015329E+02  0.00000000000E+00 0.  1.
<scales pt_clust_4="550.00000" pt_clust_5="550.00000" pt_clust_6="30.69226"></scales>
<mgrwt>
<rscale>  0 0.30000000E+03</rscale>
<asrwt>  1 0.30692260E+02</asrwt>
<pdfrwt beam="1">  1        1 0.85489805E+00 0.30000000E+03</pdfrwt>
<pdfrwt beam="2">0</pdfrwt>
<totfact> 0.37438051E-04</totfact>
</mgrwt>
<clustering>
<clus scale="   30.692">  1  6  2 -1</clus>
<clus scale="  470.682">  4  5 -1 -1</clus>
<clus scale="  300.000">  1  4  2 -1</clus>
</clustering>
</event>
<event>
 6    1  0.9131597E-012  0.3000000E+03  0.7818608E-02  0.1093470E+00
          1   -1    0    0  502    0  0.00000000000E+00  0.00000000000E+00  0.23083466706E+03  0.23083466706E+03  0.00000000000E+00 0.  1.
         13   -1    0    0    0    0 -0.00000000000E+00 -0.00000000000E+00 -0.27500000000E+03  0.27500000000E+03  0.00000000000E+00 0.  1.
    9000005    2    1    2  501    0  0.23069129931E+02 -0.35539264290E+02 -0.45398438782E+02  0.46344664267E+03  0.45926740391E+03 0.  0.
         13    1    3    3    0    0 -0.16034851508E+03  0.81795802806E+02  0.95822833430E+02  0.20392208083E+03  0.00000000000E+00 0.  1.
          3    1    3    3  501    0  0.18341764501E+03 -0.11733506710E+03 -0.14122127221E+03  0.25952456184E+03  0.00000000000E+00 0.  1.
         21    1    1    2  502  501 -0.23069129931E+02  0.35539264290E+02  0.12331058428E+01  0.42388024395E+02  0.00000000000E+00 0. -1.
<scales pt_clust_4="550.00000" pt_clust_5="550.00000" pt_clust_6="42.37008"></scales>
<mgrwt>
<rscale>  0 0.30000000E+03</rscale>
<asrwt>  1 0.42370085E+02</asrwt>
<pdfrwt beam="1">  1        1 0.83939879E+00 0.30000000E+03</pdfrwt>
<pdfrwt beam="2">0</pdfrwt>
<totfact> 0.48497034E-04</totfact>
</mgrwt>
<clustering>
<clus scale="   42.370">  1  6  2 -1</clus>
<clus scale="  459.267">  4  5 -1 -1</clus>
<clus scale="  300.000">  1  4  2 -1</clus>
</clustering>
</event>
<event>
 6    1  0.9131597E-012  0.3000000E+03  0.7818608E-02  0.1093470E+00
          1   -1    0    0  502    0  0.00000000000E+00  0.00000000000E+00  0.21935386309E+03  0.21935386309E+03  0.00000000000E+00 0.  1.
         13   -1    0    0    0    0 -0.00000000000E+00 -0.00000000000E+00 -0.27500000000E+03  0.27500000000E+03  0.00000000000E+00 0.  1.
    9000005    2    1    2  501    0 -0.25214520674E+02  0.18824987955E+02 -0.53006370487E+02  0.46277664676E+03  0.45865280687E+03 0.  0.
         13    1    3    3    0    0  0.17026852832E+03  0.13054889813E+03 -0.93435492444E+02  0.23401832789E+03  0.00000000000E+00 0.  1.
          1    1    3    3  501    0 -0.19548304899E+03 -0.11172391018E+03  0.40429121958E+02  0.22875831887E+03  0.00000000000E+00 0.  1.
         21    1    1    2  502  501  0.25214520674E+02 -0.18824987955E+02 -0.26397664273E+01  0.31577216329E+02  0.00000000000E+00 0.  1.
<scales pt_clust_4="550.00000" pt_clust_5="550.00000" pt_clust_6="31.46668"></scales>
<mgrwt>
<rscale>  0 0.30000000E+03</rscale>
<asrwt>  1 0.31466684E+02</asrwt>
<pdfrwt beam="1">  1        1 0.79765041E+00 0.30000000E+03</pdfrwt>
<pdfrwt beam="2">0</pdfrwt>
<totfact> 0.11003939E-03</totfact>
</mgrwt>
<clustering>
<clus scale="   31.467">  1  6  2 -1</clus>
<clus scale="  458.653">  4  5 -1 -1</clus>
<clus scale="  300.000">  1  4  2 -1</clus>
</clustering>
</event>
<event>
 6    1  0.9131597E-012  0.3000000E+03  0.7818608E-02  0.1093470E+00
          1   -1    0    0  502    0  0.00000000000E+00  0.00000000000E+00  0.24088690305E+03  0.24088690305E+03  0.00000000000E+00 0.  1.
         13   -1    0    0    0    0 -0.00000000000E+00 -0.00000000000E+00 -0.27500000000E+03  0.27500000000E+03  0.00000000000E+00 0.  1.
    9000005    2    1    2  501    0 -0.13495620674E+02  0.50194902434E+02 -0.40732412126E+02  0.46348961933E+03  0.45876119913E+03 0.  0.
         13    1    3    3    0    0  0.19829926236E+03 -0.75220469583E+02  0.93958949785E+01  0.21229460507E+03  0.00000000000E+00 0.  1.
          1    1    3    3  501    0 -0.21179488304E+03  0.12541537202E+03 -0.50128307105E+02  0.25119501427E+03  0.00000000000E+00 0.  1.
         21    1    1    2  502  501  0.13495620674E+02 -0.50194902434E+02  0.66193151797E+01  0.52397283719E+02  0.00000000000E+00 0.  1.
<scales pt_clust_4="550.00000" pt_clust_5="550.00000" pt_clust_6="51.97750"></scales>
<mgrwt>
<rscale>  0 0.30000000E+03</rscale>
<asrwt>  1 0.51977495E+02</asrwt>
<pdfrwt beam="1">  1        1 0.87595237E+00 0.30000000E+03</pdfrwt>
<pdfrwt beam="2">0</pdfrwt>
<totfact> 0.20458567E-04</totfact>
</mgrwt>
<clustering>
<clus scale="   51.977">  1  6  2 -1</clus>
<clus scale="  458.761">  4  5 -1 -1</clus>
<clus scale="  300.000">  1  4  2 -1</clus>
</clustering>
</event>
<event>
 6    1  0.9131597E-012  0.3000000E+03  0.7818608E-02  0.1093470E+00
          1   -1    0    0  502    0  0.00000000000E+00  0.00000000000E+00  0.24645620605E+03  0.24645620605E+03  0.00000000000E+00 0.  1.
         13   -1    0    0    0    0 -0.00000000000E+00 -0.00000000000E+00 -0.27500000000E+03  0.27500000000E+03  0.00000000000E+00 0.  1.
    9000005    2    1    2  501    0  0.28085609678E+02 -0.36374665882E+02 -0.34720081440E+02  0.47508742004E+03  0.47158313671E+03 0.  0.
         13    1    3    3    0    0  0.19198599605E+03 -0.15527397149E+03 -0.93838382517E+02  0.26414819881E+03  0.00000000000E+00 0.  1.
          3    1    3    3  501    0 -0.16390038637E+03  0.11889930561E+03  0.59118301077E+02  0.21093922122E+03  0.00000000000E+00 0.  1.
         21    1    1    2  502  501 -0.28085609678E+02  0.36374665882E+02  0.61762874880E+01  0.46368786011E+02  0.00000000000E+00 0. -1.
<scales pt_clust_4="550.00000" pt_clust_5="550.00000" pt_clust_6="45.95561"></scales>
<mgrwt>
<rscale>  0 0.30000000E+03</rscale>
<asrwt>  1 0.45955607E+02</asrwt>
<pdfrwt beam="1">  1        1 0.89620439E+00 0.30000000E+03</pdfrwt>
<pdfrwt beam="2">0</pdfrwt>
<totfact> 0.11632330E-04</totfact>
</mgrwt>
<clustering>
<clus scale="   45.956">  1  6  2 -1</clus>
<clus scale="  471.583">  4  5 -1 -1</clus>
<clus scale="  300.000">  1  4  2 -1</clus>
</clustering>
</event>
<event>
 6    1  0.9131597E-012  0.3000000E+03  0.7818608E-02  0.1093470E+00
          1   -1    0    0  502    0  0.00000000000E+00  0.00000000000E+00  0.23305188865E+03  0.23305188865E+03  0.00000000000E+00 0.  1.
         13   -1    0    0    0    0 -0.00000000000E+00 -0.00000000000E+00 -0.27500000000E+03  0.27500000000E+03  0.00000000000E+00 0.  1.
    9000005    2    1    2  501    0 -0.29028322238E+02  0.11533587490E+02 -0.67112709924E+02  0.46794049184E+03  0.46204818032E+03 0.  0.
         13    1    3    3    0    0  0.14252367396E+03  0.17001997947E+03 -0.75176250339E+02  0.23424615189E+03  0.00000000000E+00 0.  1.
          1    1    3    3  501    0 -0.17155199620E+03 -0.15848639198E+03  0.80635404149E+01  0.23369433996E+03  0.00000000000E+00 0.  1.
         21    1    1    2  502  501  0.29028322238E+02 -0.11533587490E+02  0.25164598571E+02  0.40111396804E+02  0.00000000000E+00 0. -1.
<scales pt_clust_4="550.00000" pt_clust_5="550.00000" pt_clust_6="31.23567"></scales>
<mgrwt>
<rscale>  0 0.30000000E+03</rscale>
<asrwt>  1 0.31235671E+02</asrwt>
<pdfrwt beam="1">  1        1 0.84746141E+00 0.30000000E+03</pdfrwt>
<pdfrwt beam="2">0</pdfrwt>
<totfact> 0.43890541E-04</totfact>
</mgrwt>
<clustering>
<clus scale="   31.236">  1  6  2 -1</clus>
<clus scale="  462.048">  4  5 -1 -1</clus>
<clus scale="  300.000">  1  4  2 -1</clus>
</clustering>
</event>
<event>
 6    1  0.9131597E-012  0.3000000E+03  0.7818608E-02  0.1093470E+00
          1   -1    0    0  502    0  0.00000000000E+00  0.00000000000E+00  0.22803315815E+03  0.22803315815E+03  0.00000000000E+00 0.  1.
         13   -1    0    0    0    0 -0.00000000000E+00 -0.00000000000E+00 -0.27500000000E+03  0.27500000000E+03  0.00000000000E+00 0.  1.
    9000005    2    1    2  501    0  0.29214896662E+02  0.23304519301E+02 -0.25614722597E+02  0.45999220319E+03  0.45775550480E+03 0.  0.
         13    1    3    3    0    0 -0.45750115960E+01 -0.19997583846E+03 -0.98143606373E+02  0.22280806577E+03  0.00000000000E+00 0.  1.
          1    1    3    3  501    0  0.33789908258E+02  0.22328035776E+03  0.72528883776E+02  0.23718413742E+03  0.00000000000E+00 0.  1.
         21    1    1    2  502  501 -0.29214896662E+02 -0.23304519301E+02 -0.21352119256E+02  0.43040954956E+02  0.00000000000E+00 0. -1.
<scales pt_clust_4="550.00000" pt_clust_5="550.00000" pt_clust_6="37.37128"></scales>
<mgrwt>
<rscale>  0 0.30000000E+03</rscale>
<asrwt>  1 0.37371275E+02</asrwt>
<pdfrwt beam="1">  1        1 0.82921148E+00 0.30000000E+03</pdfrwt>
<pdfrwt beam="2">0</pdfrwt>
<totfact> 0.59277566E-04</totfact>
</mgrwt>
<clustering>
<clus scale="   37.371">  1  6  2 -1</clus>
<clus scale="  457.756">  4  5 -1 -1</clus>
<clus scale="  300.000">  1  4  2 -1</clus>
</clustering>
</event>
<event>
 6    1  0.9131597E-012  0.3000000E+03  0.7818608E-02  0.1093470E+00
          1   -1    0    0  502    0  0.00000000000E+00  0.00000000000E+00  0.23543498148E+03  0.23543498148E+03  0.00000000000E+00 0.  1.
         13   -1    0    0    0    0 -0.00000000000E+00 -0.00000000000E+00 -0.27500000000E+03  0.27500000000E+03  0.00000000000E+00 0.  1.
    9000005    2    1    2  501    0  0.40478845316E+02  0.13649279953E+02 -0.48123444430E+02  0.46686794789E+03  0.46241212690E+03 0.  0.
         13    1    3    3    0    0  0.17845766246E+03  0.17223295967E+03 -0.63762685343E+02  0.25608008460E+03  0.00000000000E+00 0.  1.
          1    1    3    3  501    0 -0.13797881715E+03 -0.15858367972E+03  0.15639240913E+02  0.21078786329E+03  0.00000000000E+00 0.  1.
         21    1    1    2  502  501 -0.40478845316E+02 -0.13649279953E+02  0.85584259102E+01  0.43567033585E+02  0.00000000000E+00 0.  1.
<scales pt_clust_4="550.00000" pt_clust_5="550.00000" pt_clust_6="42.71814"></scales>
<mgrwt>
<rscale>  0 0.30000000E+03</rscale>
<asrwt>  1 0.42718143E+02</asrwt>
<pdfrwt beam="1">  1        1 0.85612721E+00 0.30000000E+03</pdfrwt>
<pdfrwt beam="2">0</pdfrwt>
<totfact> 0.34222479E-04</totfact>
</mgrwt>
<clustering>
<clus scale="   42.718">  1  6  2 -1</clus>
<clus scale="  462.412">  4  5 -1 -1</clus>
<clus scale="  300.000">  1  4  2 -1</clus>
</clustering>
</event>
<event>
 6    1  0.9131597E-012  0.3000000E+03  0.7818608E-02  0.1093470E+00
          1   -1    0    0  502    0  0.00000000000E+00  0.00000000000E+00  0.22319577354E+03  0.22319577354E+03  0.00000000000E+00 0.  1.
         13   -1    0    0    0    0 -0.00000000000E+00 -0.00000000000E+00 -0.27500000000E+03  0.27500000000E+03  0.00000000000E+00 0.  1.
    9000005    2    1    2  501    0  0.26448148944E+02 -0.22737430565E+02 -0.42532523901E+02  0.46210616563E+03  0.45882087724E+03 0.  0.
         13    1    3    3    0    0 -0.59196771155E+02  0.17319840855E+03 -0.13670505103E+03  0.22845178357E+03  0.00000000000E+00 0.  1.
          1    1    3    3  501    0  0.85644920099E+02 -0.19593583912E+03  0.94172527128E+02  0.23365438206E+03  0.00000000000E+00 0.  1.
         21    1    1    2  502  501 -0.26448148944E+02  0.22737430565E+02 -0.92717025546E+01  0.36089607916E+02  0.00000000000E+00 0. -1.
<scales pt_clust_4="550.00000" pt_clust_5="550.00000" pt_clust_6="34.87831"></scales>
<mgrwt>
<rscale>  0 0.30000000E+03</rscale>
<asrwt>  1 0.34878311E+02</asrwt>
<pdfrwt beam="1">  1        1 0.81162099E+00 0.30000000E+03</pdfrwt>
<pdfrwt beam="2">0</pdfrwt>
<totfact> 0.84755796E-04</totfact>
</mgrwt>
<clustering>
<clus scale="   34.878">  1  6  2 -1</clus>
<clus scale="  458.821">  4  5 -1 -1</clus>
<clus scale="  300.000">  1  4  2 -1</clus>
</clustering>
</event>
<event>
 6    1  0.9131597E-012  0.3000000E+03  0.7818608E-02  0.1093470E+00
          1   -1    0    0  502    0  0.00000000000E+00  0.00000000000E+00  0.22274091931E+03  0.22274091931E+03  0.00000000000E+00 0.  1.
         13   -1    0    0    0    0 -0.00000000000E+00 -0.00000000000E+00 -0.27500000000E+03  0.27500000000E+03  0.00000000000E+00 0.  1.
    9000005    2    1    2  501    0  0.32071904175E+02 -0.17905797102E+01 -0.49264814388E+02  0.46547981511E+03  0.46174952423E+03 0.  0.
         13    1    3    3    0    0  0.24358690132E+03  0.40666964119E+02 -0.32642092273E+02  0.24910617546E+03  0.00000000000E+00 0.  1.
          3    1    3    3  501    0 -0.21151499715E+03 -0.42457543830E+02 -0.16622722114E+02  0.21637363965E+03  0.00000000000E+00 0.  1.
         21    1    1    2  502  501 -0.32071904175E+02  0.17905797102E+01 -0.29942663041E+01  0.32261104194E+02  0.00000000000E+00 0.  1.
<scales pt_clust_4="550.00000" pt_clust_5="550.00000" pt_clust_6="32.12185"></scales>
<mgrwt>
<rscale>  0 0.30000000E+03</rscale>
<asrwt>  1 0.32121849E+02</asrwt>
<pdfrwt beam="1">  1        1 0.80996698E+00 0.30000000E+03</pdfrwt>
<pdfrwt beam="2">0</pdfrwt>
<totfact> 0.88689541E-04</totfact>
</mgrwt>
<clustering>
<clus scale="   32.122">  1  6  2 -1</clus>
<clus scale="  461.750">  4  5 -1 -1</clus>
<clus scale="  300.000">  1  4  2 -1</clus>
</clustering>
</event>
<event>
 6    1  0.9131597E-012  0.3000000E+03  0.7818608E-02  0.1093470E+00
          1   -1    0    0  502    0  0.00000000000E+00  0.00000000000E+00  0.23047157666E+03  0.23047157666E+03  0.00000000000E+00 0.  1.
         13   -1    0    0    0    0 -0.00000000000E+00 -0.00000000000E+00 -0.27500000000E+03  0.27500000000E+03  0.00000000000E+00 0.  1.
    9000005    2    1    2  501    0 -0.12395000832E+02  0.34350573106E+02 -0.44329680926E+02  0.46895257589E+03  0.46542217384E+03 0.  0.
         13    1    3    3    0    0  0.16610521353E+03 -0.15703733871E+02  0.13226986095E+03  0.21291515994E+03  0.00000000000E+00 0.  1.
          3    1    3    3  501    0 -0.17850021436E+03  0.50054306977E+02 -0.17659954188E+03  0.25603741595E+03  0.00000000000E+00 0.  1.
         21    1    1    2  502  501  0.12395000832E+02 -0.34350573106E+02 -0.19874241825E+00  0.36519000765E+02  0.00000000000E+00 0.  1.
<scales pt_clust_4="550.00000" pt_clust_5="550.00000" pt_clust_6="36.51846"></scales>
<mgrwt>
<rscale>  0 0.30000000E+03</rscale>
<asrwt>  1 0.36518460E+02</asrwt>
<pdfrwt beam="1">  1        1 0.83807846E+00 0.30000000E+03</pdfrwt>
<pdfrwt beam="2">0</pdfrwt>
<totfact> 0.50973929E-04</totfact>
</mgrwt>
<clustering>
<clus scale="   36.518">  1  6  2 -1</clus>
<clus scale="  465.422">  4  5 -1 -1</clus>
<clus scale="  300.000">  1  4  2 -1</clus>
</clustering>
</event>
<event>
 6    1  0.9131597E-012  0.3000000E+03  0.7818608E-02  0.1093470E+00
          1   -1    0    0  502    0  0.00000000000E+00  0.00000000000E+00  0.24780307540E+03  0.24780307540E+03  0.00000000000E+00 0.  1.
         13   -1    0    0    0    0 -0.00000000000E+00 -0.00000000000E+00 -0.27500000000E+03  0.27500000000E+03  0.00000000000E+00 0.  1.
    9000005    2    1    2  501    0 -0.19767472682E+02 -0.40396137997E+02 -0.40663672842E+02  0.47585678428E+03  0.47197832992E+03 0.  0.
         13    1    3    3    0    0  0.20321646918E+03  0.57586013427E+02  0.48098042137E+02  0.21662526156E+03  0.00000000000E+00 0.  1.
          3    1    3    3  501    0 -0.22298394186E+03 -0.97982151424E+02 -0.88761714979E+02  0.25923152272E+03  0.00000000000E+00 0.  1.
         21    1    1    2  502  501  0.19767472682E+02  0.40396137997E+02  0.13466748241E+02  0.46946291116E+02  0.00000000000E+00 0.  1.
<scales pt_clust_4="550.00000" pt_clust_5="550.00000" pt_clust_6="44.97334"></scales>
<mgrwt>
<rscale>  0 0.30000000E+03</rscale>
<asrwt>  1 0.44973336E+02</asrwt>
<pdfrwt beam="1">  1        1 0.90110209E+00 0.30000000E+03</pdfrwt>
<pdfrwt beam="2">0</pdfrwt>
<totfact> 0.10206580E-04</totfact>
</mgrwt>
<clustering>
<clus scale="   44.973">  1  6  2 -1</clus>
<clus scale="  471.978">  4  5 -1 -1</clus>
<clus scale="  300.000">  1  4  2 -1</clus>
</clustering>
</event>
<event>
 6    1  0.9131597E-012  0.3000000E+03  0.7818608E-02  0.1093470E+00
          1   -1    0    0  502    0  0.00000000000E+00  0.00000000000E+00  0.23529745400E+03  0.23529745400E+03  0.00000000000E+00 0.  1.
         13   -1    0    0    0    0 -0.00000000000E+00 -0.00000000000E+00 -0.27500000000E+03  0.27500000000E+03  0.00000000000E+00 0.  1.
    9000005    2    1    2  501    0 -0.33619068484E+02 -0.10992385678E+02 -0.62832883996E+02  0.46803533332E+03  0.46244786475E+03 0.  0.
         13    1    3    3    0    0  0.76731174782E+02  0.16673372022E+03 -0.15423445387E+03  0.23974168057E+03  0.00000000000E+00 0.  1.
          3    1    3    3  501    0 -0.11035024327E+03 -0.17772610590E+03  0.91401569873E+02  0.22829365274E+03  0.00000000000E+00 0.  1.
         21    1    1    2  502  501  0.33619068484E+02  0.10992385678E+02  0.23130337993E+02  0.42262120680E+02  0.00000000000E+00 0. -1.
<scales pt_clust_4="550.00000" pt_clust_5="550.00000" pt_clust_6="35.37053"></scales>
<mgrwt>
<rscale>  0 0.30000000E+03</rscale>
<asrwt>  1 0.35370529E+02</asrwt>
<pdfrwt beam="1">  1        1 0.85562711E+00 0.30000000E+03</pdfrwt>
<pdfrwt beam="2">0</pdfrwt>
<totfact> 0.35842000E-04</totfact>
</mgrwt>
<clustering>
<clus scale="   35.371">  1  6  2 -1</clus>
<clus scale="  462.448">  4  5 -1 -1</clus>
<clus scale="  300.000">  1  4  2 -1</clus>
</clustering>
</event>
<event>
 6    1  0.9131597E-012  0.3000000E+03  0.7818608E-02  0.1093470E+00
          1   -1    0    0  502    0  0.00000000000E+00  0.00000000000E+00  0.24537267856E+03  0.24537267856E+03  0.00000000000E+00 0.  1.
         13   -1    0    0    0    0 -0.00000000000E+00 -0.00000000000E+00 -0.27500000000E+03  0.27500000000E+03  0.00000000000E+00 0.  1.
    9000005    2    1    2  501    0  0.15059247639E+02 -0.41692817136E+02 -0.51849141836E+02  0.47078557094E+03  0.46581718341E+03 0.  0.
         13    1    3    3    0    0 -0.14745926975E+03  0.46161301740E+02 -0.18648903507E+03  0.24218435584E+03  0.00000000000E+00 0.  1.
          1    1    3    3  501    0  0.16251851739E+03 -0.87854118876E+02  0.13463989323E+03  0.22860121510E+03  0.00000000000E+00 0.  1.
         21    1    1    2  502  501 -0.15059247639E+02  0.41692817136E+02  0.22221820392E+02  0.49587107616E+02  0.00000000000E+00 0.  1.
<scales pt_clust_4="550.00000" pt_clust_5="550.00000" pt_clust_6="44.32913"></scales>
<mgrwt>
<rscale>  0 0.30000000E+03</rscale>
<asrwt>  1 0.44329132E+02</asrwt>
<pdfrwt beam="1">  1        1 0.89226429E+00 0.30000000E+03</pdfrwt>
<pdfrwt beam="2">0</pdfrwt>
<totfact> 0.12990222E-04</totfact>
</mgrwt>
<clustering>
<clus scale="   44.329">  1  6  2 -1</clus>
<clus scale="  465.817">  4  5 -1 -1</clus>
<clus scale="  300.000">  1  4  2 -1</clus>
</clustering>
</event>
<event>
 6    1  0.9131597E-012  0.3000000E+03  0.7818608E-02  0.1093470E+00
          1   -1    0    0  502    0  0.00000000000E+00  0.00000000000E+00  0.22650486931E+03  0.22650486931E+03  0.00000000000E+00 0.  1.
         13   -1    0    0    0    0 -0.00000000000E+00 -0.00000000000E+00 -0.27500000000E+03  0.27500000000E+03  0.00000000000E+00 0.  1.
    9000005    2    1    2  501    0  0.36769866455E+02  0.16579327532E+01 -0.37159906215E+02  0.46299176590E+03  0.46002798268E+03 0.  0.
         13    1    3    3    0    0  0.42539042793E+02  0.18962589864E+03  0.11080093796E+03  0.22370605591E+03  0.00000000000E+00 0.  1.
          3    1    3    3  501    0 -0.57691763382E+01 -0.18796796589E+03 -0.14796084418E+03  0.23928570999E+03  0.00000000000E+00 0.  1.
         21    1    1    2  502  501 -0.36769866455E+02 -0.16579327532E+01 -0.11335224474E+02  0.38513103406E+02  0.00000000000E+00 0.  1.
<scales pt_clust_4="550.00000" pt_clust_5="550.00000" pt_clust_6="36.80724"></scales>
<mgrwt>
<rscale>  0 0.30000000E+03</rscale>
<asrwt>  1 0.36807244E+02</asrwt>
<pdfrwt beam="1">  1        1 0.82365407E+00 0.30000000E+03</pdfrwt>
<pdfrwt beam="2">0</pdfrwt>
<totfact> 0.66524504E-04</totfact>
</mgrwt>
<clustering>
<clus scale="   36.807">  1  6  2 -1</clus>
<clus scale="  460.028">  4  5 -1 -1</clus>
<clus scale="  300.000">  1  4  2 -1</clus>
</clustering>
</event>
<event>
 6    1  0.9131597E-012  0.3000000E+03  0.7818608E-02  0.1093470E+00
          1   -1    0    0  502    0  0.00000000000E+00  0.00000000000E+00  0.23157424265E+03  0.23157424265E+03  0.00000000000E+00 0.  1.
         13   -1    0    0    0    0 -0.00000000000E+00 -0.00000000000E+00 -0.27500000000E+03  0.27500000000E+03  0.00000000000E+00 0.  1.
    9000005    2    1    2  501    0  0.11178811402E+02  0.37002717674E+02 -0.58499033909E+02  0.46508483912E+03  0.45976907646E+03 0.  0.
         13    1    3    3    0    0 -0.66861987843E+02 -0.16694627559E+03 -0.14418875105E+03  0.23050375329E+03  0.00000000000E+00 0.  1.
          3    1    3    3  501    0  0.78040799245E+02  0.20394899327E+03  0.85689717140E+02  0.23458108582E+03  0.00000000000E+00 0.  1.
         21    1    1    2  502  501 -0.11178811402E+02 -0.37002717674E+02  0.15073276562E+02  0.41489403538E+02  0.00000000000E+00 0. -1.
<scales pt_clust_4="550.00000" pt_clust_5="550.00000" pt_clust_6="38.65446"></scales>
<mgrwt>
<rscale>  0 0.30000000E+03</rscale>
<asrwt>  1 0.38654456E+02</asrwt>
<pdfrwt beam="1">  1        1 0.84208816E+00 0.30000000E+03</pdfrwt>
<pdfrwt beam="2">0</pdfrwt>
<totfact> 0.46963640E-04</totfact>
</mgrwt>
<clustering>
<clus scale="   38.654">  1  6  2 -1</clus>
<clus scale="  459.769">  4  5 -1 -1</clus>
<clus scale="  300.000">  1  4  2 -1</clus>
</clustering>
</event>
<event>
 6    1  0.9131597E-012  0.3000000E+03  0.7818608E-02  0.1093470E+00
          1   -1    0    0  502    0  0.00000000000E+00  0.00000000000E+00  0.22849949652E+03  0.22849949652E+03  0.00000000000E+00 0.  1.
         13   -1    0    0    0    0 -0.00000000000E+00 -0.00000000000E+00 -0.27500000000E+03  0.27500000000E+03  0.00000000000E+00 0.  1.
    9000005    2    1    2  501    0  0.37090573436E+02  0.46346943600E+01 -0.48454502660E+02  0.46606943985E+03  0.46203429840E+03 0.  0.
         13    1    3    3    0    0  0.21122155908E+03  0.12993396022E+03 -0.41465016970E+02  0.25142937114E+03  0.00000000000E+00 0.  1.
          1    1    3    3  501    0 -0.17413098565E+03 -0.12529926586E+03 -0.69894856901E+01  0.21464006871E+03  0.00000000000E+00 0.  1.
         21    1    1    2  502  501 -0.37090573436E+02 -0.46346943600E+01  0.19539991789E+01  0.37430056671E+02  0.00000000000E+00 0.  1.
<scales pt_clust_4="550.00000" pt_clust_5="550.00000" pt_clust_6="37.37902"></scales>
<mgrwt>
<rscale>  0 0.30000000E+03</rscale>
<asrwt>  1 0.37379019E+02</asrwt>
<pdfrwt beam="1">  1        1 0.83090726E+00 0.30000000E+03</pdfrwt>
<pdfrwt beam="2">0</pdfrwt>
<totfact> 0.57400600E-04</totfact>
</mgrwt>
<clustering>
<clus scale="   37.379">  1  6  2 -1</clus>
<clus scale="  462.034">  4  5 -1 -1</clus>
<clus scale="  300.000">  1  4  2 -1</clus>
</clustering>
</event>
<event>
 6    1  0.9131597E-012  0.3000000E+03  0.7818608E-02  0.1093470E+00
          1   -1    0    0  502    0  0.00000000000E+00  0.00000000000E+00  0.22397623408E+03  0.22397623408E+03  0.00000000000E+00 0.  1.
         13   -1    0    0    0    0 -0.00000000000E+00 -0.00000000000E+00 -0.27500000000E+03  0.27500000000E+03  0.00000000000E+00 0.  1.
    9000005    2    1    2  501    0  0.61467554183E+01 -0.34742574288E+02 -0.48559896772E+02  0.46360817333E+03  0.45970604274E+03 0.  0.
         13    1    3    3    0    0 -0.11488994303E+03  0.17326552131E+03 -0.76080938277E+02  0.22137964914E+03  0.00000000000E+00 0.  1.
          1    1    3    3  501    0  0.12103669844E+03 -0.20800809560E+03  0.27521041505E+02  0.24222852419E+03  0.00000000000E+00 0.  1.
         21    1    1    2  502  501 -0.61467554183E+01  0.34742574288E+02 -0.24638691458E+01  0.35368060754E+02  0.00000000000E+00 0. -1.
<scales pt_clust_4="550.00000" pt_clust_5="550.00000" pt_clust_6="35.28214"></scales>
<mgrwt>
<rscale>  0 0.30000000E+03</rscale>
<asrwt>  1 0.35282135E+02</asrwt>
<pdfrwt beam="1">  1        1 0.81445903E+00 0.30000000E+03</pdfrwt>
<pdfrwt beam="2">0</pdfrwt>
<totfact> 0.80287392E-04</totfact>
</mgrwt>
<clustering>
<clus scale="   35.282">  1  6  2 -1</clus>
<clus scale="  459.706">  4  5 -1 -1</clus>
<clus scale="  300.000">  1  4  2 -1</clus>
</clustering>
</event>
<event>
 6    1  0.9131597E-012  0.3000000E+03  0.7818608E-02  0.1093470E+00
          1   -1    0    0  502    0  0.00000000000E+00  0.00000000000E+00  0.24806602979E+03  0.24806602979E+03  0.00000000000E+00 0.  1.
         13   -1    0    0    0    0 -0.00000000000E+00 -0.00000000000E+00 -0.27500000000E+03  0.27500000000E+03  0.00000000000E+00 0.  1.
    9000005    2    1    2  501    0 -0.11445653613E+02  0.28877775323E+02 -0.26108542425E+02  0.49199176028E+03  0.49031551812E+03 0.  0.
         13    1    3    3    0    0  0.19992514692E+03 -0.73971653249E+02 -0.11313699666E+03  0.24133348270E+03  0.00000000000E+00 0.  1.
          1    1    3    3  501    0 -0.21137080054E+03  0.10284942857E+03  0.87028454234E+02  0.25065827759E+03  0.00000000000E+00 0.  1.
         21    1    1    2  502  501  0.11445653613E+02 -0.28877775323E+02 -0.82542778568E+00  0.31074269505E+02  0.00000000000E+00 0. -1.
<scales pt_clust_4="550.00000" pt_clust_5="550.00000" pt_clust_6="31.06330"></scales>
<mgrwt>
<rscale>  0 0.30000000E+03</rscale>
<asrwt>  1 0.31063305E+02</asrwt>
<pdfrwt beam="1">  1        1 0.90205829E+00 0.30000000E+03</pdfrwt>
<pdfrwt beam="2">0</pdfrwt>
<totfact> 0.10595756E-04</totfact>
</mgrwt>
<clustering>
<clus scale="   31.063">  1  6  2 -1</clus>
<clus scale="  490.316">  4  5 -1 -1</clus>
<clus scale="  300.000">  1  4  2 -1</clus>
</clustering>
</event>
<event>
 6    1  0.9131597E-012  0.3000000E+03  0.7818608E-02  0.1093470E+00
          1   -1    0    0  502    0  0.00000000000E+00  0.00000000000E+00  0.22772796174E+03  0.22772796174E+03  0.00000000000E+00 0.  1.
         13   -1    0    0    0    0 -0.00000000000E+00 -0.00000000000E+00 -0.27500000000E+03  0.27500000000E+03  0.00000000000E+00 0.  1.
    9000005    2    1    2  501    0  0.33974999935E+02 -0.96253213119E+01 -0.50179091453E+02  0.46729636018E+03  0.46325047176E+03 0.  0.
         13    1    3    3    0    0  0.18539482648E+03  0.63056352524E+02  0.11880008148E+03  0.22904323749E+03  0.00000000000E+00 0.  1.
          1    1    3    3  501    0 -0.15141982654E+03 -0.72681673836E+02 -0.16897917294E+03  0.23825312269E+03  0.00000000000E+00 0.  1.
         21    1    1    2  502  501 -0.33974999935E+02  0.96253213119E+01  0.29070531905E+01  0.35431601561E+02  0.00000000000E+00 0. -1.
<scales pt_clust_4="550.00000" pt_clust_5="550.00000" pt_clust_6="35.31214"></scales>
<mgrwt>
<rscale>  0 0.30000000E+03</rscale>
<asrwt>  1 0.35312143E+02</asrwt>
<pdfrwt beam="1">  1        1 0.82810168E+00 0.30000000E+03</pdfrwt>
<pdfrwt beam="2">0</pdfrwt>
<totfact> 0.61228518E-04</totfact>
</mgrwt>
<clustering>
<clus scale="   35.312">  1  6  2 -1</clus>
<clus scale="  463.250">  4  5 -1 -1</clus>
<clus scale="  300.000">  1  4  2 -1</clus>
</clustering>
</event>
<event>
 6    1  0.9131597E-012  0.3000000E+03  0.7818608E-02  0.1093470E+00
          1   -1    0    0  502    0  0.00000000000E+00  0.00000000000E+00  0.23743892875E+03  0.23743892875E+03  0.00000000000E+00 0.  1.
         13   -1    0    0    0    0 -0.00000000000E+00 -0.00000000000E+00 -0.27500000000E+03  0.27500000000E+03  0.00000000000E+00 0.  1.
    9000005    2    1    2  501    0  0.36735701009E+02  0.64453178755E+01 -0.62734625101E+02  0.46744157700E+03  0.46170871864E+03 0.  0.
         13    1    3    3    0    0  0.70591272344E+01 -0.94298130425E+00 -0.26388427339E+03  0.26398035956E+03  0.00000000000E+00 0.  1.
          1    1    3    3  501    0  0.29676573774E+02  0.73882991797E+01  0.20114964829E+03  0.20346121744E+03  0.00000000000E+00 0.  1.
         21    1    1    2  502  501 -0.36735701009E+02 -0.64453178755E+01  0.25173553848E+02  0.44997351749E+02  0.00000000000E+00 0. -1.
<scales pt_clust_4="550.00000" pt_clust_5="550.00000" pt_clust_6="37.29683"></scales>
<mgrwt>
<rscale>  0 0.30000000E+03</rscale>
<asrwt>  1 0.37296834E+02</asrwt>
<pdfrwt beam="1">  1        1 0.86341429E+00 0.30000000E+03</pdfrwt>
<pdfrwt beam="2">0</pdfrwt>
<totfact> 0.29369929E-04</totfact>
</mgrwt>
<clustering>
<clus scale="   37.297">  1  6  2 -1</clus>
<clus scale="  461.709">  4  5 -1 -1</clus>
<clus scale="  300.000">  1  4  2 -1</clus>
</clustering>
</event>
<event>
 6    1  0.9131597E-012  0.3000000E+03  0.7818608E-02  0.1093470E+00
          1   -1    0    0  502    0  0.00000000000E+00  0.00000000000E+00  0.22511231931E+03  0.22511231931E+03  0.00000000000E+00 0.  1.
         13   -1    0    0    0    0 -0.00000000000E+00 -0.00000000000E+00 -0.27500000000E+03  0.27500000000E+03  0.00000000000E+00 0.  1.
    9000005    2    1    2  501    0  0.31102320117E+01 -0.39414776173E+02 -0.45396176914E+02  0.46032071555E+03  0.45636734125E+03 0.  0.
         13    1    3    3    0    0 -0.30199971721E+02  0.20771073290E+02 -0.24575957509E+03  0.24847785521E+03  0.00000000000E+00 0.  1.
          1    1    3    3  501    0  0.33310203733E+02 -0.60185849463E+02  0.20036339818E+03  0.21184286034E+03  0.00000000000E+00 0.  1.
         21    1    1    2  502  501 -0.31102320117E+01  0.39414776173E+02 -0.44915037719E+01  0.39791603764E+02  0.00000000000E+00 0. -1.
<scales pt_clust_4="550.00000" pt_clust_5="550.00000" pt_clust_6="39.53732"></scales>
<mgrwt>
<rscale>  0 0.30000000E+03</rscale>
<asrwt>  1 0.39537320E+02</asrwt>
<pdfrwt beam="1">  1        1 0.81859025E+00 0.30000000E+03</pdfrwt>
<pdfrwt beam="2">0</pdfrwt>
<totfact> 0.72709342E-04</totfact>
</mgrwt>
<clustering>
<clus scale="   39.537">  1  6  2 -1</clus>
<clus scale="  456.367">  4  5 -1 -1</clus>
<clus scale="  300.000">  1  4  2 -1</clus>
</clustering>
</event>
<event>
 6    1  0.9131597E-012  0.3000000E+03  0.7818608E-02  0.1093470E+00
          1   -1    0    0  502    0  0.00000000000E+00  0.00000000000E+00  0.22684665922E+03  0.22684665922E+03  0.00000000000E+00 0.  1.
         13   -1    0    0    0    0 -0.00000000000E+00 -0.00000000000E+00 -0.27500000000E+03  0.27500000000E+03  0.00000000000E+00 0.  1.
    9000005    2    1    2  501    0 -0.26404587675E+02  0.19454776100E+02 -0.39742742044E+02  0.46798770568E+03  0.46514225411E+03 0.  0.
         13    1    3    3    0    0 -0.36355509316E+02  0.24105772226E+03 -0.33489296111E+02  0.24607332540E+03  0.00000000000E+00 0.  1.
          1    1    3    3  501    0  0.99509216408E+01 -0.22160294616E+03 -0.62534459333E+01  0.22191438028E+03  0.00000000000E+00 0.  1.
         21    1    1    2  502  501  0.26404587675E+02 -0.19454776100E+02 -0.84105987378E+01  0.33858953535E+02  0.00000000000E+00 0. -1.
<scales pt_clust_4="550.00000" pt_clust_5="550.00000" pt_clust_6="32.79774"></scales>
<mgrwt>
<rscale>  0 0.30000000E+03</rscale>
<asrwt>  1 0.32797738E+02</asrwt>
<pdfrwt beam="1">  1        1 0.82489694E+00 0.30000000E+03</pdfrwt>
<pdfrwt beam="2">0</pdfrwt>
<totfact> 0.66261011E-04</totfact>
</mgrwt>
<clustering>
<clus scale="   32.798">  1  6  2 -1</clus>
<clus scale="  465.142">  4  5 -1 -1</clus>
<clus scale="  300.000">  1  4  2 -1</clus>
</clustering>
</event>
<event>
 6    1  0.9131597E-012  0.3000000E+03  0.7818608E-02  0.1093470E+00
          1   -1    0    0  502    0  0.00000000000E+00  0.00000000000E+00  0.24876847344E+03  0.24876847344E+03  0.00000000000E+00 0.  1.
         13   -1    0    0    0    0 -0.00000000000E+00 -0.00000000000E+00 -0.27500000000E+03  0.27500000000E+03  0.00000000000E+00 0.  1.
    9000005    2    1    2  501    0 -0.99122987331E+01  0.30756656929E+02 -0.74795223016E+02  0.46543616485E+03  0.45824913808E+03 0.  0.
         13    1    3    3    0    0  0.14504304592E+03 -0.15843911655E+03 -0.37663851936E+02  0.21808027093E+03  0.00000000000E+00 0.  1.
          1    1    3    3  501    0 -0.15495534466E+03  0.18919577348E+03 -0.37131371081E+02  0.24735589393E+03  0.00000000000E+00 0.  1.
         21    1    1    2  502  501  0.99122987331E+01 -0.30756656929E+02  0.48563696460E+02  0.58332308590E+02  0.00000000000E+00 0. -1.
<scales pt_clust_4="550.00000" pt_clust_5="550.00000" pt_clust_6="32.31448"></scales>
<mgrwt>
<rscale>  0 0.30000000E+03</rscale>
<asrwt>  1 0.32314480E+02</asrwt>
<pdfrwt beam="1">  1        1 0.90461263E+00 0.30000000E+03</pdfrwt>
<pdfrwt beam="2">0</pdfrwt>
<totfact> 0.95439372E-05</totfact>
</mgrwt>
<clustering>
<clus scale="   32.314">  1  6  2 -1</clus>
<clus scale="  458.249">  4  5 -1 -1</clus>
<clus scale="  300.000">  1  4  2 -1</clus>
</clustering>
</event>
<event>
 6    1  0.9131597E-012  0.3000000E+03  0.7818608E-02  0.1093470E+00
          1   -1    0    0  502    0  0.00000000000E+00  0.00000000000E+00  0.22730849811E+03  0.22730849811E+03  0.00000000000E+00 0.  1.
         13   -1    0    0    0    0 -0.00000000000E+00 -0.00000000000E+00 -0.27500000000E+03  0.27500000000E+03  0.00000000000E+00 0.  1.
    9000005    2    1    2  501    0  0.27472004372E+02 -0.12343359451E+02 -0.66684198202E+02  0.46670243037E+03  0.46093091313E+03 0.  0.
         13    1    3    3    0    0  0.43109954885E+02 -0.57385715017E+02  0.19131443752E+03  0.20433502514E+03  0.00000000000E+00 0.  1.
          1    1    3    3  501    0 -0.15637950513E+02  0.45042355566E+02 -0.25799863572E+03  0.26236740522E+03  0.00000000000E+00 0.  1.
         21    1    1    2  502  501 -0.27472004372E+02  0.12343359451E+02  0.18992696308E+02  0.35606067739E+02  0.00000000000E+00 0. -1.
<scales pt_clust_4="550.00000" pt_clust_5="550.00000" pt_clust_6="30.11760"></scales>
<mgrwt>
<rscale>  0 0.30000000E+03</rscale>
<asrwt>  1 0.30117595E+02</asrwt>
<pdfrwt beam="1">  1        1 0.82657636E+00 0.30000000E+03</pdfrwt>
<pdfrwt beam="2">0</pdfrwt>
<totfact> 0.65072243E-04</totfact>
</mgrwt>
<clustering>
<clus scale="   30.118">  1  6  2 -1</clus>
<clus scale="  460.931">  4  5 -1 -1</clus>
<clus scale="  300.000">  1  4  2 -1</clus>
</clustering>
</event>
<event>
 6    1  0.9131597E-012  0.3000000E+03  0.7818608E-02  0.1093470E+00
          1   -1    0    0  502    0  0.00000000000E+00  0.00000000000E+00  0.23544678230E+03  0.23544678230E+03  0.00000000000E+00 0.  1.
         13   -1    0    0    0    0 -0.00000000000E+00 -0.00000000000E+00 -0.27500000000E+03  0.27500000000E+03  0.00000000000E+00 0.  1.
    9000005    2    1    2  501    0  0.30339020209E+02 -0.51341718637E+01 -0.60914299199E+02  0.47298865006E+03  0.46803941647E+03 0.  0.
         13    1    3    3    0    0 -0.10807515054E+02  0.22864572892E+03 -0.55595429772E+02  0.23555577587E+03  0.00000000000E+00 0.  1.
          1    1    3    3  501    0  0.41146535263E+02 -0.23377990078E+03 -0.53188694273E+01  0.23743287419E+03  0.00000000000E+00 0.  1.
         21    1    1    2  502  501 -0.30339020209E+02  0.51341718637E+01  0.21361081502E+02  0.37458132240E+02  0.00000000000E+00 0. -1.
<scales pt_clust_4="550.00000" pt_clust_5="550.00000" pt_clust_6="30.77037"></scales>
<mgrwt>
<rscale>  0 0.30000000E+03</rscale>
<asrwt>  1 0.30770373E+02</asrwt>
<pdfrwt beam="1">  1        1 0.85617012E+00 0.30000000E+03</pdfrwt>
<pdfrwt beam="2">0</pdfrwt>
<totfact> 0.36337740E-04</totfact>
</mgrwt>
<clustering>
<clus scale="   30.770">  1  6  2 -1</clus>
<clus scale="  468.039">  4  5 -1 -1</clus>
<clus scale="  300.000">  1  4  2 -1</clus>
</clustering>
</event>
<event>
 6    1  0.9131597E-012  0.3000000E+03  0.7818608E-02  0.1093470E+00
          1   -1    0    0  502    0  0.00000000000E+00  0.00000000000E+00  0.24252535603E+03  0.24252535603E+03  0.00000000000E+00 0.  1.
         13   -1    0    0    0    0 -0.00000000000E+00 -0.00000000000E+00 -0.27500000000E+03  0.27500000000E+03  0.00000000000E+00 0.  1.
    9000005    2    1    2  501    0  0.16385103154E+02  0.45439637870E+02 -0.49456728838E+02  0.46632356405E+03  0.46117075587E+03 0.  0.
         13    1    3    3    0    0  0.14527402536E+03 -0.14609444060E+03 -0.10148920238E+03  0.22966973292E+03  0.00000000000E+00 0.  1.
          1    1    3    3  501    0 -0.12888892221E+03  0.19153407847E+03  0.52032473546E+02  0.23665383113E+03  0.00000000000E+00 0.  1.
         21    1    1    2  502  501 -0.16385103154E+02 -0.45439637870E+02  0.16982084869E+02  0.51201791976E+02  0.00000000000E+00 0. -1.
<scales pt_clust_4="550.00000" pt_clust_5="550.00000" pt_clust_6="48.30354"></scales>
<mgrwt>
<rscale>  0 0.30000000E+03</rscale>
<asrwt>  1 0.48303543E+02</asrwt>
<pdfrwt beam="1">  1        1 0.88191039E+00 0.30000000E+03</pdfrwt>
<pdfrwt beam="2">0</pdfrwt>
<totfact> 0.17606550E-04</totfact>
</mgrwt>
<clustering>
<clus scale="   48.304">  1  6  2 -1</clus>
<clus scale="  461.171">  4  5 -1 -1</clus>
<clus scale="  300.000">  1  4  2 -1</clus>
</clustering>
</event>
<event>
 6    1  0.9131597E-012  0.3000000E+03  0.7818608E-02  0.1093470E+00
          1   -1    0    0  502    0  0.00000000000E+00  0.00000000000E+00  0.24500340185E+03  0.24500340185E+03  0.00000000000E+00 0.  1.
         13   -1    0    0    0    0 -0.00000000000E+00 -0.00000000000E+00 -0.27500000000E+03  0.27500000000E+03  0.00000000000E+00 0.  1.
    9000005    2    1    2  501    0  0.22629986833E+02  0.36741486332E+02 -0.10758393677E+02  0.47275764402E+03  0.47066123043E+03 0.  0.
         13    1    3    3    0    0  0.68301313041E+02 -0.17380767137E+03 -0.12902692809E+03  0.22698485448E+03  0.00000000000E+00 0.  1.
          3    1    3    3  501    0 -0.45671326208E+02  0.21054915770E+03  0.11826853442E+03  0.24577278954E+03  0.00000000000E+00 0.  1.
         21    1    1    2  502  501 -0.22629986833E+02 -0.36741486332E+02 -0.19238204469E+02  0.47245757832E+02  0.00000000000E+00 0.  1.
<scales pt_clust_4="550.00000" pt_clust_5="550.00000" pt_clust_6="43.15154"></scales>
<mgrwt>
<rscale>  0 0.30000000E+03</rscale>
<asrwt>  1 0.43151535E+02</asrwt>
<pdfrwt beam="1">  1        1 0.89092146E+00 0.30000000E+03</pdfrwt>
<pdfrwt beam="2">0</pdfrwt>
<totfact> 0.13566579E-04</totfact>
</mgrwt>
<clustering>
<clus scale="   43.152">  1  6  2 -1</clus>
<clus scale="  470.661">  4  5 -1 -1</clus>
<clus scale="  300.000">  1  4  2 -1</clus>
</clustering>
</event>
<event>
 6    1  0.9131597E-012  0.3000000E+03  0.7818608E-02  0.1093470E+00
          1   -1    0    0  502    0  0.00000000000E+00  0.00000000000E+00  0.23968899747E+03  0.23968899747E+03  0.00000000000E+00 0.  1.
         13   -1    0    0    0    0 -0.00000000000E+00 -0.00000000000E+00 -0.27500000000E+03  0.27500000000E+03  0.00000000000E+00 0.  1.
    9000005    2    1    2  501    0 -0.22259411657E+02 -0.21994967615E+02 -0.46649901180E+02  0.48140490772E+03  0.47811631628E+03 0.  0.
         13    1    3    3    0    0  0.76837569764E+02 -0.57105551900E+02  0.19535428126E+03  0.21755080187E+03  0.00000000000E+00 0.  1.
          3    1    3    3  501    0 -0.99096981421E+02  0.35110584285E+02 -0.24200418244E+03  0.26385410585E+03  0.00000000000E+00 0.  1.
         21    1    1    2  502  501  0.22259411657E+02  0.21994967615E+02  0.11338898648E+02  0.33284089747E+02  0.00000000000E+00 0. -1.
<scales pt_clust_4="550.00000" pt_clust_5="550.00000" pt_clust_6="31.29313"></scales>
<mgrwt>
<rscale>  0 0.30000000E+03</rscale>
<asrwt>  1 0.31293130E+02</asrwt>
<pdfrwt beam="1">  1        1 0.87159635E+00 0.30000000E+03</pdfrwt>
<pdfrwt beam="2">0</pdfrwt>
<totfact> 0.24913875E-04</totfact>
</mgrwt>
<clustering>
<clus scale="   31.293">  1  6  2 -1</clus>
<clus scale="  478.116">  4  5 -1 -1</clus>
<clus scale="  300.000">  1  4  2 -1</clus>
</clustering>
</event>
<event>
 6    1  0.9131597E-012  0.3000000E+03  0.7818608E-02  0.1093470E+00
          1   -1    0    0  502    0  0.00000000000E+00  0.00000000000E+00  0.24836717121E+03  0.24836717121E+03  0.00000000000E+00 0.  1.
         13   -1    0    0    0    0 -0.00000000000E+00 -0.00000000000E+00 -0.27500000000E+03  0.27500000000E+03  0.00000000000E+00 0.  1.
    9000005    2    1    2  501    0 -0.33501048545E+02 -0.29329800140E+02 -0.46442894427E+02  0.47463323919E+03  0.47025228534E+03 0.  0.
         13    1    3    3    0    0  0.11209746028E+03 -0.93564648094E+02 -0.20388264745E+03  0.25077543322E+03  0.00000000000E+00 0.  1.
          3    1    3    3  501    0 -0.14559850882E+03  0.64234847953E+02  0.15743975302E+03  0.22385780597E+03  0.00000000000E+00 0.  1.
         21    1    1    2  502  501  0.33501048545E+02  0.29329800140E+02  0.19810065641E+02  0.48733932025E+02  0.00000000000E+00 0. -1.
<scales pt_clust_4="550.00000" pt_clust_5="550.00000" pt_clust_6="44.52592"></scales>
<mgrwt>
<rscale>  0 0.30000000E+03</rscale>
<asrwt>  1 0.44525919E+02</asrwt>
<pdfrwt beam="1">  1        1 0.90315335E+00 0.30000000E+03</pdfrwt>
<pdfrwt beam="2">0</pdfrwt>
<totfact> 0.95351404E-05</totfact>
</mgrwt>
<clustering>
<clus scale="   44.526">  1  6  2 -1</clus>
<clus scale="  470.252">  4  5 -1 -1</clus>
<clus scale="  300.000">  1  4  2 -1</clus>
</clustering>
</event>
<event>
 6    1  0.9131597E-012  0.3000000E+03  0.7818608E-02  0.1093470E+00
          1   -1    0    0  502    0  0.00000000000E+00  0.00000000000E+00  0.22656374881E+03  0.22656374881E+03  0.00000000000E+00 0.  1.
         13   -1    0    0    0    0 -0.00000000000E+00 -0.00000000000E+00 -0.27500000000E+03  0.27500000000E+03  0.00000000000E+00 0.  1.
    9000005    2    1    2  501    0  0.10659799670E+01 -0.32835728418E+02 -0.62452795411E+02  0.46584561776E+03  0.46046983241E+03 0.  0.
         13    1    3    3    0    0 -0.64994585065E+02 -0.83471114117E+02 -0.24409890358E+03  0.26603758702E+03  0.00000000000E+00 0.  1.
          3    1    3    3  501    0  0.66060565032E+02  0.50635385698E+02  0.18164610816E+03  0.19980803074E+03  0.00000000000E+00 0.  1.
         21    1    1    2  502  501 -0.10659799670E+01  0.32835728418E+02  0.14016544224E+02  0.35718131055E+02  0.00000000000E+00 0.  1.
<scales pt_clust_4="550.00000" pt_clust_5="550.00000" pt_clust_6="32.85303"></scales>
<mgrwt>
<rscale>  0 0.30000000E+03</rscale>
<asrwt>  1 0.32853027E+02</asrwt>
<pdfrwt beam="1">  1        1 0.82386818E+00 0.30000000E+03</pdfrwt>
<pdfrwt beam="2">0</pdfrwt>
<totfact> 0.67656888E-04</totfact>
</mgrwt>
<clustering>
<clus scale="   32.853">  1  6  2 -1</clus>
<clus scale="  460.470">  4  5 -1 -1</clus>
<clus scale="  300.000">  1  4  2 -1</clus>
</clustering>
</event>
<event>
 6    1  0.9131597E-012  0.3000000E+03  0.7818608E-02  0.1093470E+00
          1   -1    0    0  502    0  0.00000000000E+00  0.00000000000E+00  0.24025162924E+03  0.24025162924E+03  0.00000000000E+00 0.  1.
         13   -1    0    0    0    0 -0.00000000000E+00 -0.00000000000E+00 -0.27500000000E+03  0.27500000000E+03  0.00000000000E+00 0.  1.
    9000005    2    1    2  501    0  0.16935681868E+02  0.25910712857E+02 -0.69635924262E+02  0.46861126314E+03  0.46237341146E+03 0.  0.
         13    1    3    3    0    0  0.74276844630E+02 -0.14581084883E+03  0.12265537620E+03  0.20450475445E+03  0.00000000000E+00 0.  1.
          3    1    3    3  501    0 -0.57341162762E+02  0.17172156168E+03 -0.19229130046E+03  0.26410650868E+03  0.00000000000E+00 0.  1.
         21    1    1    2  502  501 -0.16935681868E+02 -0.25910712857E+02  0.34887553505E+02  0.46640366107E+02  0.00000000000E+00 0.  1.
<scales pt_clust_4="550.00000" pt_clust_5="550.00000" pt_clust_6="30.95452"></scales>
<mgrwt>
<rscale>  0 0.30000000E+03</rscale>
<asrwt>  1 0.30954521E+02</asrwt>
<pdfrwt beam="1">  1        1 0.87364229E+00 0.30000000E+03</pdfrwt>
<pdfrwt beam="2">0</pdfrwt>
<totfact> 0.23786889E-04</totfact>
</mgrwt>
<clustering>
<clus scale="   30.955">  1  6  2 -1</clus>
<clus scale="  462.373">  4  5 -1 -1</clus>
<clus scale="  300.000">  1  4  2 -1</clus>
</clustering>
</event>
<event>
 6    1  0.9131597E-012  0.3000000E+03  0.7818608E-02  0.1093470E+00
          1   -1    0    0  502    0  0.00000000000E+00  0.00000000000E+00  0.22137458628E+03  0.22137458628E+03  0.00000000000E+00 0.  1.
         13   -1    0    0    0    0 -0.00000000000E+00 -0.00000000000E+00 -0.27500000000E+03  0.27500000000E+03  0.00000000000E+00 0.  1.
    9000005    2    1    2  501    0  0.12770580868E+02 -0.27506069562E+02 -0.51812925354E+02  0.46599438364E+03  0.46211093339E+03 0.  0.
         13    1    3    3    0    0 -0.12940191186E+03  0.16649271937E+03 -0.76271918727E+02  0.22423667404E+03  0.00000000000E+00 0.  1.
          3    1    3    3  501    0  0.14217249273E+03 -0.19399878893E+03  0.24458993374E+02  0.24175770961E+03  0.00000000000E+00 0.  1.
         21    1    1    2  502  501 -0.12770580868E+02  0.27506069562E+02 -0.18124883615E+01  0.30380202641E+02  0.00000000000E+00 0. -1.
<scales pt_clust_4="550.00000" pt_clust_5="550.00000" pt_clust_6="30.32609"></scales>
<mgrwt>
<rscale>  0 0.30000000E+03</rscale>
<asrwt>  1 0.30326088E+02</asrwt>
<pdfrwt beam="1">  1        1 0.80499850E+00 0.30000000E+03</pdfrwt>
<pdfrwt beam="2">0</pdfrwt>
<totfact> 0.97922348E-04</totfact>
</mgrwt>
<clustering>
<clus scale="   30.326">  1  6  2 -1</clus>
<clus scale="  462.111">  4  5 -1 -1</clus>
<clus scale="  300.000">  1  4  2 -1</clus>
</clustering>
</event>
<event>
 6    1  0.9131597E-012  0.3000000E+03  0.7818608E-02  0.1093470E+00
          1   -1    0    0  502    0  0.00000000000E+00  0.00000000000E+00  0.23672663526E+03  0.23672663526E+03  0.00000000000E+00 0.  1.
         13   -1    0    0    0    0 -0.00000000000E+00 -0.00000000000E+00 -0.27500000000E+03  0.27500000000E+03  0.00000000000E+00 0.  1.
    9000005    2    1    2  501    0  0.36335105036E+02  0.34562449297E+01 -0.70271561971E+02  0.46318726863E+03  0.45636845630E+03 0.  0.
         13    1    3    3    0    0 -0.52768604296E+01 -0.56598081051E+02  0.18715309654E+03  0.19559516757E+03  0.00000000000E+00 0.  1.
          1    1    3    3  501    0  0.41611965466E+02  0.60054325980E+02 -0.25742465851E+03  0.26759210105E+03  0.00000000000E+00 0.  1.
         21    1    1    2  502  501 -0.36335105036E+02 -0.34562449297E+01  0.31998197229E+02  0.48539366630E+02  0.00000000000E+00 0.  1.
<scales pt_clust_4="550.00000" pt_clust_5="550.00000" pt_clust_6="36.49912"></scales>
<mgrwt>
<rscale>  0 0.30000000E+03</rscale>
<asrwt>  1 0.36499116E+02</asrwt>
<pdfrwt beam="1">  1        1 0.86082413E+00 0.30000000E+03</pdfrwt>
<pdfrwt beam="2">0</pdfrwt>
<totfact> 0.31449198E-04</totfact>
</mgrwt>
<clustering>
<clus scale="   36.499">  1  6  2 -1</clus>
<clus scale="  456.368">  4  5 -1 -1</clus>
<clus scale="  300.000">  1  4  2 -1</clus>
</clustering>
</event>
<event>
 6    1  0.9131597E-012  0.3000000E+03  0.7818608E-02  0.1093470E+00
          1   -1    0    0  502    0  0.00000000000E+00  0.00000000000E+00  0.24601641933E+03  0.24601641933E+03  0.00000000000E+00 0.  1.
         13   -1    0    0    0    0 -0.00000000000E+00 -0.00000000000E+00 -0.27500000000E+03  0.27500000000E+03  0.00000000000E+00 0.  1.
    9000005    2    1    2  501    0  0.10956151896E+02 -0.42526080023E+02 -0.39984407335E+02  0.47574476226E+03  0.47202311516E+03 0.  0.
         13    1    3    3    0    0 -0.22193471265E+03 -0.84266448220E+02 -0.16061100992E+02  0.23793656705E+03  0.00000000000E+00 0.  1.
          1    1    3    3  501    0  0.23289086454E+03  0.41740368197E+02 -0.23923306342E+02  0.23780819521E+03  0.00000000000E+00 0.  1.
         21    1    1    2  502  501 -0.10956151896E+02  0.42526080023E+02  0.11000826667E+02  0.45271657070E+02  0.00000000000E+00 0.  1.
<scales pt_clust_4="550.00000" pt_clust_5="550.00000" pt_clust_6="43.91474"></scales>
<mgrwt>
<rscale>  0 0.30000000E+03</rscale>
<asrwt>  1 0.43914744E+02</asrwt>
<pdfrwt beam="1">  1        1 0.89460516E+00 0.30000000E+03</pdfrwt>
<pdfrwt beam="2">0</pdfrwt>
<totfact> 0.12220267E-04</totfact>
</mgrwt>
<clustering>
<clus scale="   43.915">  1  6  2 -1</clus>
<clus scale="  472.023">  4  5 -1 -1</clus>
<clus scale="  300.000">  1  4  2 -1</clus>
</clustering>
</event>
<event>
 6    1  0.9131597E-012  0.3000000E+03  0.7818608E-02  0.1093470E+00
          1   -1    0    0  502    0  0.00000000000E+00  0.00000000000E+00  0.22838516250E+03  0.22838516250E+03  0.00000000000E+00 0.  1.
         13   -1    0    0    0    0 -0.00000000000E+00 -0.00000000000E+00 -0.27500000000E+03  0.27500000000E+03  0.00000000000E+00 0.  1.
    9000005    2    1    2  501    0  0.29968667134E+02  0.22305362381E+02 -0.51104386689E+02  0.46575796153E+03  0.46143598710E+03 0.  0.
         13    1    3    3    0    0 -0.14033050988E+03 -0.12468712853E+03 -0.12890715861E+03  0.22772041535E+03  0.00000000000E+00 0.  1.
          1    1    3    3  501    0  0.17029917701E+03  0.14699249092E+03  0.77802771920E+02  0.23803754619E+03  0.00000000000E+00 0.  1.
         21    1    1    2  502  501 -0.29968667134E+02 -0.22305362381E+02  0.44895491897E+01  0.37627200968E+02  0.00000000000E+00 0.  1.
<scales pt_clust_4="550.00000" pt_clust_5="550.00000" pt_clust_6="37.35840"></scales>
<mgrwt>
<rscale>  0 0.30000000E+03</rscale>
<asrwt>  1 0.37358402E+02</asrwt>
<pdfrwt beam="1">  1        1 0.83049150E+00 0.30000000E+03</pdfrwt>
<pdfrwt beam="2">0</pdfrwt>
<totfact> 0.57850729E-04</totfact>
</mgrwt>
<clustering>
<clus scale="   37.358">  1  6  2 -1</clus>
<clus scale="  461.436">  4  5 -1 -1</clus>
<clus scale="  300.000">  1  4  2 -1</clus>
</clustering>
</event>
<event>
 6    1  0.9131597E-012  0.3000000E+03  0.7818608E-02  0.1093470E+00
          1   -1    0    0  502    0  0.00000000000E+00  0.00000000000E+00  0.24091394721E+03  0.24091394721E+03  0.00000000000E+00 0.  1.
         13   -1    0    0    0    0 -0.00000000000E+00 -0.00000000000E+00 -0.27500000000E+03  0.27500000000E+03  0.00000000000E+00 0.  1.
    9000005    2    1    2  501    0  0.30112742682E+02 -0.40348129909E+01 -0.35124626032E+02  0.48551434816E+03  0.48328809827E+03 0.  0.
         13    1    3    3    0    0 -0.19056396429E+03  0.12278248277E+03  0.10498184531E+02  0.22693693935E+03  0.00000000000E+00 0.  1.
          3    1    3    3  501    0  0.22067670698E+03 -0.12681729576E+03 -0.45622810563E+02  0.25857740881E+03  0.00000000000E+00 0.  1.
         21    1    1    2  502  501 -0.30112742682E+02  0.40348129909E+01  0.10385732386E+01  0.30399599044E+02  0.00000000000E+00 0. -1.
<scales pt_clust_4="550.00000" pt_clust_5="550.00000" pt_clust_6="30.38185"></scales>
<mgrwt>
<rscale>  0 0.30000000E+03</rscale>
<asrwt>  1 0.30381853E+02</asrwt>
<pdfrwt beam="1">  1        1 0.87605072E+00 0.30000000E+03</pdfrwt>
<pdfrwt beam="2">0</pdfrwt>
<totfact> 0.22513895E-04</totfact>
</mgrwt>
<clustering>
<clus scale="   30.382">  1  6  2 -1</clus>
<clus scale="  483.288">  4  5 -1 -1</clus>
<clus scale="  300.000">  1  4  2 -1</clus>
</clustering>
</event>
<event>
 6    1  0.9131597E-012  0.3000000E+03  0.7818608E-02  0.1093470E+00
          1   -1    0    0  502    0  0.00000000000E+00  0.00000000000E+00  0.23447709680E+03  0.23447709680E+03  0.00000000000E+00 0.  1.
         13   -1    0    0    0    0 -0.00000000000E+00 -0.00000000000E+00 -0.27500000000E+03  0.27500000000E+03  0.00000000000E+00 0.  1.
    9000005    2    1    2  501    0 -0.33198135040E+02  0.18736292054E+02 -0.65642945494E+02  0.46382426189E+03  0.45757052442E+03 0.  0.
         13    1    3    3    0    0  0.17697506929E+03  0.38612512149E+02  0.89301206470E+02  0.20195496211E+03  0.00000000000E+00 0.  1.
          1    1    3    3  501    0 -0.21017320433E+03 -0.19876220095E+02 -0.15494415196E+03  0.26186929978E+03  0.00000000000E+00 0.  1.
         21    1    1    2  502  501  0.33198135040E+02 -0.18736292054E+02  0.25120042291E+02  0.45652834904E+02  0.00000000000E+00 0.  1.
<scales pt_clust_4="550.00000" pt_clust_5="550.00000" pt_clust_6="38.12040"></scales>
<mgrwt>
<rscale>  0 0.30000000E+03</rscale>
<asrwt>  1 0.38120399E+02</asrwt>
<pdfrwt beam="1">  1        1 0.85264399E+00 0.30000000E+03</pdfrwt>
<pdfrwt beam="2">0</pdfrwt>
<totfact> 0.37805013E-04</totfact>
</mgrwt>
<clustering>
<clus scale="   38.120">  1  6  2 -1</clus>
<clus scale="  457.571">  4  5 -1 -1</clus>
<clus scale="  300.000">  1  4  2 -1</clus>
</clustering>
</event>
<event>
 6    1  0.9131597E-012  0.3000000E+03  0.7818608E-02  0.1093470E+00
          1   -1    0    0  502    0  0.00000000000E+00  0.00000000000E+00  0.24353279494E+03  0.24353279494E+03  0.00000000000E+00 0.  1.
         13   -1    0    0    0    0 -0.00000000000E+00 -0.00000000000E+00 -0.27500000000E+03  0.27500000000E+03  0.00000000000E+00 0.  1.
    9000005    2    1    2  501    0 -0.95183865296E+01 -0.37018907405E+02 -0.65511925954E+02  0.46734644707E+03  0.46115061527E+03 0.  0.
         13    1    3    3    0    0 -0.79391881125E+02 -0.15308270473E+03 -0.20836619942E+03  0.27046969948E+03  0.00000000000E+00 0.  1.
          1    1    3    3  501    0  0.69873494595E+02  0.11606379732E+03  0.14285427346E+03  0.19687674759E+03  0.00000000000E+00 0.  1.
         21    1    1    2  502  501  0.95183865296E+01  0.37018907405E+02  0.34044720896E+02  0.51186347872E+02  0.00000000000E+00 0. -1.
<scales pt_clust_4="550.00000" pt_clust_5="550.00000" pt_clust_6="38.22302"></scales>
<mgrwt>
<rscale>  0 0.30000000E+03</rscale>
<asrwt>  1 0.38223019E+02</asrwt>
<pdfrwt beam="1">  1        1 0.88557380E+00 0.30000000E+03</pdfrwt>
<pdfrwt beam="2">0</pdfrwt>
<totfact> 0.16395456E-04</totfact>
</mgrwt>
<clustering>
<clus scale="   38.223">  1  6  2 -1</clus>
<clus scale="  461.151">  4  5 -1 -1</clus>
<clus scale="  300.000">  1  4  2 -1</clus>
</clustering>
</event>
<event>
 6    1  0.9131597E-012  0.3000000E+03  0.7818608E-02  0.1093470E+00
          1   -1    0    0  502    0  0.00000000000E+00  0.00000000000E+00  0.24504941906E+03  0.24504941906E+03  0.00000000000E+00 0.  1.
         13   -1    0    0    0    0 -0.00000000000E+00 -0.00000000000E+00 -0.27500000000E+03  0.27500000000E+03  0.00000000000E+00 0.  1.
    9000005    2    1    2  501    0 -0.25768300091E+02 -0.20196878464E+02 -0.40782398878E+02  0.48556395156E+03  0.48273929590E+03 0.  0.
         13    1    3    3    0    0  0.46634978315E+02 -0.96684454482E+02  0.19764313263E+03  0.22491223358E+03  0.00000000000E+00 0.  1.
          1    1    3    3  501    0 -0.72403278406E+02  0.76487576018E+02 -0.23842553150E+03  0.26065171797E+03  0.00000000000E+00 0.  1.
         21    1    1    2  502  501  0.25768300091E+02  0.20196878464E+02  0.10831817940E+02  0.34485467506E+02  0.00000000000E+00 0.  1.
<scales pt_clust_4="550.00000" pt_clust_5="550.00000" pt_clust_6="32.74018"></scales>
<mgrwt>
<rscale>  0 0.30000000E+03</rscale>
<asrwt>  1 0.32740177E+02</asrwt>
<pdfrwt beam="1">  1        1 0.89108880E+00 0.30000000E+03</pdfrwt>
<pdfrwt beam="2">0</pdfrwt>
<totfact> 0.14205724E-04</totfact>
</mgrwt>
<clustering>
<clus scale="   32.740">  1  6  2 -1</clus>
<clus scale="  482.739">  4  5 -1 -1</clus>
<clus scale="  300.000">  1  4  2 -1</clus>
</clustering>
</event>
<event>
 6    1  0.9131597E-012  0.3000000E+03  0.7818608E-02  0.1093470E+00
          1   -1    0    0  502    0  0.00000000000E+00  0.00000000000E+00  0.24394225848E+03  0.24394225848E+03  0.00000000000E+00 0.  1.
         13   -1    0    0    0    0 -0.00000000000E+00 -0.00000000000E+00 -0.27500000000E+03  0.27500000000E+03  0.00000000000E+00 0.  1.
    9000005    2    1    2  501    0  0.36834512628E+02 -0.81071091740E+01 -0.70787885713E+02  0.46416095786E+03  0.45717826228E+03 0.  0.
         13    1    3    3    0    0 -0.41548284331E+02  0.13179150310E+03 -0.21027977741E+03  0.25162043837E+03  0.00000000000E+00 0.  1.
          3    1    3    3  501    0  0.78382796960E+02 -0.13989861227E+03  0.13949189170E+03  0.21254051949E+03  0.00000000000E+00 0.  1.
         21    1    1    2  502  501 -0.36834512628E+02  0.81071091740E+01  0.39730144192E+02  0.54781300617E+02  0.00000000000E+00 0. -1.
<scales pt_clust_4="550.00000" pt_clust_5="550.00000" pt_clust_6="37.71613"></scales>
<mgrwt>
<rscale>  0 0.30000000E+03</rscale>
<asrwt>  1 0.37716131E+02</asrwt>
<pdfrwt beam="1">  1        1 0.88706276E+00 0.30000000E+03</pdfrwt>
<pdfrwt beam="2">0</pdfrwt>
<totfact> 0.15676213E-04</totfact>
</mgrwt>
<clustering>
<clus scale="   37.716">  1  6  2 -1</clus>
<clus scale="  457.178">  4  5 -1 -1</clus>
<clus scale="  300.000">  1  4  2 -1</clus>
</clustering>
</event>
<event>
 6    1  0.9131597E-012  0.3000000E+03  0.7818608E-02  0.1093470E+00
          1   -1    0    0  502    0  0.00000000000E+00  0.00000000000E+00  0.21923673114E+03  0.21923673114E+03  0.00000000000E+00 0.  1.
         13   -1    0    0    0    0 -0.00000000000E+00 -0.00000000000E+00 -0.27500000000E+03  0.27500000000E+03  0.00000000000E+00 0.  1.
    9000005    2    1    2  501    0 -0.33026427996E+02  0.18777423640E+01 -0.48724537037E+02  0.46041640281E+03  0.45663433139E+03 0.  0.
         13    1    3    3    0    0  0.17412056671E+03  0.60042317478E+02  0.89405717810E+02  0.20473503368E+03  0.00000000000E+00 0.  1.
          1    1    3    3  501    0 -0.20714699471E+03 -0.58164575114E+02 -0.13813025485E+03  0.25568136913E+03  0.00000000000E+00 0.  1.
         21    1    1    2  502  501  0.33026427996E+02 -0.18777423640E+01 -0.70387318244E+01  0.33820328329E+02  0.00000000000E+00 0. -1.
<scales pt_clust_4="550.00000" pt_clust_5="550.00000" pt_clust_6="33.07978"></scales>
<mgrwt>
<rscale>  0 0.30000000E+03</rscale>
<asrwt>  1 0.33079782E+02</asrwt>
<pdfrwt beam="1">  1        1 0.79722448E+00 0.30000000E+03</pdfrwt>
<pdfrwt beam="2">0</pdfrwt>
<totfact> 0.10978221E-03</totfact>
</mgrwt>
<clustering>
<clus scale="   33.080">  1  6  2 -1</clus>
<clus scale="  456.634">  4  5 -1 -1</clus>
<clus scale="  300.000">  1  4  2 -1</clus>
</clustering>
</event>
<event>
 6    1  0.9131597E-012  0.3000000E+03  0.7818608E-02  0.1093470E+00
          1   -1    0    0  502    0  0.00000000000E+00  0.00000000000E+00  0.23173961346E+03  0.23173961346E+03  0.00000000000E+00 0.  1.
         13   -1    0    0    0    0 -0.00000000000E+00 -0.00000000000E+00 -0.27500000000E+03  0.27500000000E+03  0.00000000000E+00 0.  1.
    9000005    2    1    2  501    0  0.32133990199E+02 -0.30651329896E+01 -0.39113017615E+02  0.47419442894E+03  0.47147485609E+03 0.  0.
         13    1    3    3    0    0 -0.11869581878E+03 -0.18986107781E+03  0.26048682181E+02  0.22542062928E+03  0.00000000000E+00 0.  1.
          3    1    3    3  501    0  0.15082980898E+03  0.18679594482E+03 -0.65161699796E+02  0.24877379966E+03  0.00000000000E+00 0.  1.
         21    1    1    2  502  501 -0.32133990199E+02  0.30651329896E+01 -0.41473689261E+01  0.32545184519E+02  0.00000000000E+00 0. -1.
<scales pt_clust_4="550.00000" pt_clust_5="550.00000" pt_clust_6="32.27986"></scales>
<mgrwt>
<rscale>  0 0.30000000E+03</rscale>
<asrwt>  1 0.32279861E+02</asrwt>
<pdfrwt beam="1">  1        1 0.84268950E+00 0.30000000E+03</pdfrwt>
<pdfrwt beam="2">0</pdfrwt>
<totfact> 0.48014151E-04</totfact>
</mgrwt>
<clustering>
<clus scale="   32.280">  1  6  2 -1</clus>
<clus scale="  471.475">  4  5 -1 -1</clus>
<clus scale="  300.000">  1  4  2 -1</clus>
</clustering>
</event>
<event>
 6    1  0.9131597E-012  0.3000000E+03  0.7818608E-02  0.1093470E+00
          1   -1    0    0  502    0  0.00000000000E+00  0.00000000000E+00  0.22639801159E+03  0.22639801159E+03  0.00000000000E+00 0.  1.
         13   -1    0    0    0    0 -0.00000000000E+00 -0.00000000000E+00 -0.27500000000E+03  0.27500000000E+03  0.00000000000E+00 0.  1.
    9000005    2    1    2  501    0  0.21775174904E+02  0.26423278772E+02 -0.66913233936E+02  0.46256954760E+03  0.45642179789E+03 0.  0.
         13    1    3    3    0    0 -0.10854761116E+03 -0.11376199800E+03  0.11787700347E+03  0.19651810101E+03  0.00000000000E+00 0.  1.
          1    1    3    3  501    0  0.13032278606E+03  0.14018527677E+03 -0.18479023741E+03  0.26605144659E+03  0.00000000000E+00 0.  1.
         21    1    1    2  502  501 -0.21775174904E+02 -0.26423278772E+02  0.18311245521E+02  0.38828463988E+02  0.00000000000E+00 0.  1.
<scales pt_clust_4="550.00000" pt_clust_5="550.00000" pt_clust_6="34.23957"></scales>
<mgrwt>
<rscale>  0 0.30000000E+03</rscale>
<asrwt>  1 0.34239566E+02</asrwt>
<pdfrwt beam="1">  1        1 0.82326550E+00 0.30000000E+03</pdfrwt>
<pdfrwt beam="2">0</pdfrwt>
<totfact> 0.67968894E-04</totfact>
</mgrwt>
<clustering>
<clus scale="   34.240">  1  6  2 -1</clus>
<clus scale="  456.422">  4  5 -1 -1</clus>
<clus scale="  300.000">  1  4  2 -1</clus>
</clustering>
</event>
<event>
 6    1  0.9131597E-012  0.3000000E+03  0.7818608E-02  0.1093470E+00
          1   -1    0    0  502    0  0.00000000000E+00  0.00000000000E+00  0.24949600850E+03  0.24949600850E+03  0.00000000000E+00 0.  1.
         13   -1    0    0    0    0 -0.00000000000E+00 -0.00000000000E+00 -0.27500000000E+03  0.27500000000E+03  0.00000000000E+00 0.  1.
    9000005    2    1    2  501    0 -0.14762971970E+02  0.36628638866E+02 -0.70564814189E+02  0.46457872996E+03  0.45748704987E+03 0.  0.
         13    1    3    3    0    0 -0.73739743077E+02  0.12115631025E+03  0.15892226000E+03  0.21300865228E+03  0.00000000000E+00 0.  1.
          3    1    3    3  501    0  0.58976771106E+02 -0.84527671385E+02 -0.22948707419E+03  0.25157007767E+03  0.00000000000E+00 0.  1.
         21    1    1    2  502  501  0.14762971970E+02 -0.36628638866E+02  0.45060822690E+02  0.59917278544E+02  0.00000000000E+00 0.  1.
<scales pt_clust_4="550.00000" pt_clust_5="550.00000" pt_clust_6="39.49180"></scales>
<mgrwt>
<rscale>  0 0.30000000E+03</rscale>
<asrwt>  1 0.39491803E+02</asrwt>
<pdfrwt beam="1">  1        1 0.90725821E+00 0.30000000E+03</pdfrwt>
<pdfrwt beam="2">0</pdfrwt>
<totfact> 0.81330524E-05</totfact>
</mgrwt>
<clustering>
<clus scale="   39.492">  1  6  2 -1</clus>
<clus scale="  457.487">  4  5 -1 -1</clus>
<clus scale="  300.000">  1  4  2 -1</clus>
</clustering>
</event>
<event>
 6    1  0.9131597E-012  0.3000000E+03  0.7818608E-02  0.1093470E+00
          1   -1    0    0  502    0  0.00000000000E+00  0.00000000000E+00  0.22965700379E+03  0.22965700379E+03  0.00000000000E+00 0.  1.
         13   -1    0    0    0    0 -0.00000000000E+00 -0.00000000000E+00 -0.27500000000E+03  0.27500000000E+03  0.00000000000E+00 0.  1.
    9000005    2    1    2  501    0 -0.10153525777E+02  0.38411003983E+02 -0.43221043726E+02  0.46487004619E+03  0.46114813446E+03 0.  0.
         13    1    3    3    0    0 -0.51344231824E+02 -0.40823436973E+02 -0.23998564896E+03  0.24878885597E+03  0.00000000000E+00 0.  1.
          1    1    3    3  501    0  0.41190706046E+02  0.79234440956E+02  0.19676460523E+03  0.21608119023E+03  0.00000000000E+00 0.  1.
         21    1    1    2  502  501  0.10153525777E+02 -0.38411003983E+02 -0.21219524805E+01  0.39786957599E+02  0.00000000000E+00 0.  1.
<scales pt_clust_4="550.00000" pt_clust_5="550.00000" pt_clust_6="39.73033"></scales>
<mgrwt>
<rscale>  0 0.30000000E+03</rscale>
<asrwt>  1 0.39730332E+02</asrwt>
<pdfrwt beam="1">  1        1 0.83511638E+00 0.30000000E+03</pdfrwt>
<pdfrwt beam="2">0</pdfrwt>
<totfact> 0.52742673E-04</totfact>
</mgrwt>
<clustering>
<clus scale="   39.730">  1  6  2 -1</clus>
<clus scale="  461.148">  4  5 -1 -1</clus>
<clus scale="  300.000">  1  4  2 -1</clus>
</clustering>
</event>
<event>
 6    1  0.9131597E-012  0.3000000E+03  0.7818608E-02  0.1093470E+00
          1   -1    0    0  502    0  0.00000000000E+00  0.00000000000E+00  0.24786003293E+03  0.24786003293E+03  0.00000000000E+00 0.  1.
         13   -1    0    0    0    0 -0.00000000000E+00 -0.00000000000E+00 -0.27500000000E+03  0.27500000000E+03  0.00000000000E+00 0.  1.
    9000005    2    1    2  501    0 -0.31768569309E+02  0.16535731860E+02 -0.21697314791E+02  0.48663442200E+03  0.48482946979E+03 0.  0.
         13    1    3    3    0    0 -0.24485199267E+03  0.77617425552E+02 -0.54435264917E+02  0.26256458468E+03  0.00000000000E+00 0.  1.
          3    1    3    3  501    0  0.21308342336E+03 -0.61081693693E+02  0.32737950126E+02  0.22406983731E+03  0.00000000000E+00 0.  1.
         21    1    1    2  502  501  0.31768569309E+02 -0.16535731860E+02 -0.54426522752E+01  0.36225610939E+02  0.00000000000E+00 0.  1.
<scales pt_clust_4="550.00000" pt_clust_5="550.00000" pt_clust_6="35.81443"></scales>
<mgrwt>
<rscale>  0 0.30000000E+03</rscale>
<asrwt>  1 0.35814434E+02</asrwt>
<pdfrwt beam="1">  1        1 0.90130921E+00 0.30000000E+03</pdfrwt>
<pdfrwt beam="2">0</pdfrwt>
<totfact> 0.10570450E-04</totfact>
</mgrwt>
<clustering>
<clus scale="   35.814">  1  6  2 -1</clus>
<clus scale="  484.829">  4  5 -1 -1</clus>
<clus scale="  300.000">  1  4  2 -1</clus>
</clustering>
</event>
<event>
 6    1  0.9131597E-012  0.3000000E+03  0.7818608E-02  0.1093470E+00
          1   -1    0    0  502    0  0.00000000000E+00  0.00000000000E+00  0.24195673049E+03  0.24195673049E+03  0.00000000000E+00 0.  1.
         13   -1    0    0    0    0 -0.00000000000E+00 -0.00000000000E+00 -0.27500000000E+03  0.27500000000E+03  0.00000000000E+00 0.  1.
    9000005    2    1    2  501    0 -0.34777562925E+02  0.13202309116E+02 -0.58341433795E+02  0.47197032182E+03  0.46687094783E+03 0.  0.
         13    1    3    3    0    0  0.67521932730E+02 -0.20864888107E+03 -0.61094533864E+02  0.22765348458E+03  0.00000000000E+00 0.  1.
          1    1    3    3  501    0 -0.10229949565E+03  0.22185119019E+03  0.27531000689E+01  0.24431683724E+03  0.00000000000E+00 0.  1.
         21    1    1    2  502  501  0.34777562925E+02 -0.13202309116E+02  0.25298164281E+02  0.44986408669E+02  0.00000000000E+00 0.  1.
<scales pt_clust_4="550.00000" pt_clust_5="550.00000" pt_clust_6="37.19919"></scales>
<mgrwt>
<rscale>  0 0.30000000E+03</rscale>
<asrwt>  1 0.37199192E+02</asrwt>
<pdfrwt beam="1">  1        1 0.87984266E+00 0.30000000E+03</pdfrwt>
<pdfrwt beam="2">0</pdfrwt>
<totfact> 0.19602323E-04</totfact>
</mgrwt>
<clustering>
<clus scale="   37.199">  1  6  2 -1</clus>
<clus scale="  466.871">  4  5 -1 -1</clus>
<clus scale="  300.000">  1  4  2 -1</clus>
</clustering>
</event>
<event>
 6    1  0.9131597E-012  0.3000000E+03  0.7818608E-02  0.1093470E+00
          1   -1    0    0  502    0  0.00000000000E+00  0.00000000000E+00  0.22809252829E+03  0.22809252829E+03  0.00000000000E+00 0.  1.
         13   -1    0    0    0    0 -0.00000000000E+00 -0.00000000000E+00 -0.27500000000E+03  0.27500000000E+03  0.00000000000E+00 0.  1.
    9000005    2    1    2  501    0  0.16986968961E+02  0.26175768238E+02 -0.44740491509E+02  0.47181276230E+03  0.46864895512E+03 0.  0.
         13    1    3    3    0    0  0.13471255548E+03  0.15201335235E+03  0.11790635256E+03  0.23485621105E+03  0.00000000000E+00 0.  1.
          1    1    3    3  501    0 -0.11772558652E+03 -0.12583758411E+03 -0.16264684407E+03  0.23695655125E+03  0.00000000000E+00 0.  1.
         21    1    1    2  502  501 -0.16986968961E+02 -0.26175768238E+02 -0.21669801977E+01  0.31279765992E+02  0.00000000000E+00 0.  1.
<scales pt_clust_4="550.00000" pt_clust_5="550.00000" pt_clust_6="31.20461"></scales>
<mgrwt>
<rscale>  0 0.30000000E+03</rscale>
<asrwt>  1 0.31204614E+02</asrwt>
<pdfrwt beam="1">  1        1 0.82942738E+00 0.30000000E+03</pdfrwt>
<pdfrwt beam="2">0</pdfrwt>
<totfact> 0.61064602E-04</totfact>
</mgrwt>
<clustering>
<clus scale="   31.205">  1  6  2 -1</clus>
<clus scale="  468.649">  4  5 -1 -1</clus>
<clus scale="  300.000">  1  4  2 -1</clus>
</clustering>
</event>
<event>
 6    1  0.9131597E-012  0.3000000E+03  0.7818608E-02  0.1093470E+00
          1   -1    0    0  502    0  0.00000000000E+00  0.00000000000E+00  0.23286830206E+03  0.23286830206E+03  0.00000000000E+00 0.  1.
         13   -1    0    0    0    0 -0.00000000000E+00 -0.00000000000E+00 -0.27500000000E+03  0.27500000000E+03  0.00000000000E+00 0.  1.
    9000005    2    1    2  501    0  0.33017865144E+02 -0.28653405025E+02 -0.51011034446E+02  0.46325844154E+03  0.45836127780E+03 0.  0.
         13    1    3    3    0    0  0.22077071005E+03  0.17406086933E+02 -0.12729225244E+03  0.25543295757E+03  0.00000000000E+00 0.  1.
          3    1    3    3  501    0 -0.18775284491E+03 -0.46059491958E+02  0.76281217993E+02  0.20782548398E+03  0.00000000000E+00 0.  1.
         21    1    1    2  502  501 -0.33017865144E+02  0.28653405025E+02  0.88793365011E+01  0.44609860512E+02  0.00000000000E+00 0. -1.
<scales pt_clust_4="550.00000" pt_clust_5="550.00000" pt_clust_6="43.71724"></scales>
<mgrwt>
<rscale>  0 0.30000000E+03</rscale>
<asrwt>  1 0.43717240E+02</asrwt>
<pdfrwt beam="1">  1        1 0.84679383E+00 0.30000000E+03</pdfrwt>
<pdfrwt beam="2">0</pdfrwt>
<totfact> 0.41818061E-04</totfact>
</mgrwt>
<clustering>
<clus scale="   43.717">  1  6  2 -1</clus>
<clus scale="  458.361">  4  5 -1 -1</clus>
<clus scale="  300.000">  1  4  2 -1</clus>
</clustering>
</event>
<event>
 6    1  0.9131597E-012  0.3000000E+03  0.7818608E-02  0.1093470E+00
          1   -1    0    0  502    0  0.00000000000E+00  0.00000000000E+00  0.23502212850E+03  0.23502212850E+03  0.00000000000E+00 0.  1.
         13   -1    0    0    0    0 -0.00000000000E+00 -0.00000000000E+00 -0.27500000000E+03  0.27500000000E+03  0.00000000000E+00 0.  1.
    9000005    2    1    2  501    0  0.16826513018E+02 -0.36485172211E+02 -0.52812997101E+02  0.46784346351E+03  0.46311337095E+03 0.  0.
         13    1    3    3    0    0  0.15649699662E+03  0.14535138823E+03  0.45485394174E+02  0.21837412185E+03  0.00000000000E+00 0.  1.
          3    1    3    3  501    0 -0.13967048360E+03 -0.18183656044E+03 -0.98298391275E+02  0.24946934166E+03  0.00000000000E+00 0.  1.
         21    1    1    2  502  501 -0.16826513018E+02  0.36485172211E+02  0.12835125603E+02  0.42178664996E+02  0.00000000000E+00 0.  1.
<scales pt_clust_4="550.00000" pt_clust_5="550.00000" pt_clust_6="40.17834"></scales>
<mgrwt>
<rscale>  0 0.30000000E+03</rscale>
<asrwt>  1 0.40178344E+02</asrwt>
<pdfrwt beam="1">  1        1 0.85462592E+00 0.30000000E+03</pdfrwt>
<pdfrwt beam="2">0</pdfrwt>
<totfact> 0.35820462E-04</totfact>
</mgrwt>
<clustering>
<clus scale="   40.178">  1  6  2 -1</clus>
<clus scale="  463.113">  4  5 -1 -1</clus>
<clus scale="  300.000">  1  4  2 -1</clus>
</clustering>
</event>
<event>
 6    1  0.9131597E-012  0.3000000E+03  0.7818608E-02  0.1093470E+00
          1   -1    0    0  502    0  0.00000000000E+00  0.00000000000E+00  0.24496088864E+03  0.24496088864E+03  0.00000000000E+00 0.  1.
         13   -1    0    0    0    0 -0.00000000000E+00 -0.00000000000E+00 -0.27500000000E+03  0.27500000000E+03  0.00000000000E+00 0.  1.
    9000005    2    1    2  501    0 -0.26619158772E+02 -0.14168958314E+02 -0.72711482033E+02  0.46770890100E+03  0.46103721917E+03 0.  0.
         13    1    3    3    0    0 -0.45593877097E+02 -0.23549094925E+03 -0.35351043727E+02  0.24245511977E+03  0.00000000000E+00 0.  1.
          1    1    3    3  501    0  0.18974718325E+02  0.22132199094E+03 -0.37360438306E+02  0.22525378123E+03  0.00000000000E+00 0.  1.
         21    1    1    2  502  501  0.26619158772E+02  0.14168958314E+02  0.42672370669E+02  0.52251987636E+02  0.00000000000E+00 0. -1.
<scales pt_clust_4="550.00000" pt_clust_5="550.00000" pt_clust_6="30.15525"></scales>
<mgrwt>
<rscale>  0 0.30000000E+03</rscale>
<asrwt>  1 0.30155248E+02</asrwt>
<pdfrwt beam="1">  1        1 0.89076687E+00 0.30000000E+03</pdfrwt>
<pdfrwt beam="2">0</pdfrwt>
<totfact> 0.14568747E-04</totfact>
</mgrwt>
<clustering>
<clus scale="   30.155">  1  6  2 -1</clus>
<clus scale="  461.037">  4  5 -1 -1</clus>
<clus scale="  300.000">  1  4  2 -1</clus>
</clustering>
</event>
<event>
 6    1  0.9131597E-012  0.3000000E+03  0.7818608E-02  0.1093470E+00
          1   -1    0    0  502    0  0.00000000000E+00  0.00000000000E+00  0.24538554898E+03  0.24538554898E+03  0.00000000000E+00 0.  1.
         13   -1    0    0    0    0 -0.00000000000E+00 -0.00000000000E+00 -0.27500000000E+03  0.27500000000E+03  0.00000000000E+00 0.  1.
    9000005    2    1    2  501    0  0.37791256644E+02 -0.38626269001E+02 -0.21742581064E+02  0.46577662963E+03  0.46212007222E+03 0.  0.
         13    1    3    3    0    0 -0.37534876214E+02 -0.39122076766E+02 -0.23418277877E+03  0.24037674117E+03  0.00000000000E+00 0.  1.
          1    1    3    3  501    0  0.75326132858E+02  0.49580776578E+00  0.21244019771E+03  0.22539988846E+03  0.00000000000E+00 0.  1.
         21    1    1    2  502  501 -0.37791256644E+02  0.38626269001E+02 -0.78718699566E+01  0.54608919347E+02  0.00000000000E+00 0.  1.
<scales pt_clust_4="550.00000" pt_clust_5="550.00000" pt_clust_6="54.03860"></scales>
<mgrwt>
<rscale>  0 0.30000000E+03</rscale>
<asrwt>  1 0.54038603E+02</asrwt>
<pdfrwt beam="1">  1        1 0.89231109E+00 0.30000000E+03</pdfrwt>
<pdfrwt beam="2">0</pdfrwt>
<totfact> 0.12528818E-04</totfact>
</mgrwt>
<clustering>
<clus scale="   54.039">  1  6  2 -1</clus>
<clus scale="  462.120">  4  5 -1 -1</clus>
<clus scale="  300.000">  1  4  2 -1</clus>
</clustering>
</event>
<event>
 6    1  0.9131597E-012  0.3000000E+03  0.7818608E-02  0.1093470E+00
          1   -1    0    0  502    0  0.00000000000E+00  0.00000000000E+00  0.24682090898E+03  0.24682090898E+03  0.00000000000E+00 0.  1.
         13   -1    0    0    0    0 -0.00000000000E+00 -0.00000000000E+00 -0.27500000000E+03  0.27500000000E+03  0.00000000000E+00 0.  1.
    9000005    2    1    2  501    0 -0.10128962664E+02  0.53287082319E+02 -0.33056875594E+02  0.46736081525E+03  0.46302404428E+03 0.  0.
         13    1    3    3    0    0  0.61262436929E+02  0.14134907773E+03  0.17332516843E+03  0.23189278119E+03  0.00000000000E+00 0.  1.
          1    1    3    3  501    0 -0.71391399593E+02 -0.88061995412E+02 -0.20638204403E+03  0.23546803407E+03  0.00000000000E+00 0.  1.
         21    1    1    2  502  501  0.10128962664E+02 -0.53287082319E+02  0.48777845788E+01  0.54460093730E+02  0.00000000000E+00 0.  1.
<scales pt_clust_4="550.00000" pt_clust_5="550.00000" pt_clust_6="54.24121"></scales>
<mgrwt>
<rscale>  0 0.30000000E+03</rscale>
<asrwt>  1 0.54241212E+02</asrwt>
<pdfrwt beam="1">  1        1 0.89753058E+00 0.30000000E+03</pdfrwt>
<pdfrwt beam="2">0</pdfrwt>
<totfact> 0.10918709E-04</totfact>
</mgrwt>
<clustering>
<clus scale="   54.241">  1  6  2 -1</clus>
<clus scale="  463.024">  4  5 -1 -1</clus>
<clus scale="  300.000">  1  4  2 -1</clus>
</clustering>
</event>
<event>
 6    1  0.9131597E-012  0.3000000E+03  0.7818608E-02  0.1093470E+00
          1   -1    0    0  502    0  0.00000000000E+00  0.00000000000E+00  0.25454327319E+03  0.25454327319E+03  0.00000000000E+00 0.  1.
         13   -1    0    0    0    0 -0.00000000000E+00 -0.00000000000E+00 -0.27500000000E+03  0.27500000000E+03  0.00000000000E+00 0.  1.
    9000005    2    1    2  501    0 -0.31530784109E+02 -0.15319057246E+02 -0.53676880753E+02  0.48124790603E+03  0.47695856808E+03 0.  0.
         13    1    3    3    0    0 -0.12179048646E+03 -0.21898746250E+03 -0.62668322089E+02  0.25829392157E+03  0.00000000000E+00 0.  1.
          3    1    3    3  501    0  0.90259702351E+02  0.20366840526E+03  0.89914413368E+01  0.22295398446E+03  0.00000000000E+00 0.  1.
         21    1    1    2  502  501  0.31530784109E+02  0.15319057246E+02  0.33220153947E+02  0.48295367166E+02  0.00000000000E+00 0.  1.
<scales pt_clust_4="550.00000" pt_clust_5="550.00000" pt_clust_6="35.05515"></scales>
<mgrwt>
<rscale>  0 0.30000000E+03</rscale>
<asrwt>  1 0.35055155E+02</asrwt>
<pdfrwt beam="1">  1        1 0.92561190E+00 0.30000000E+03</pdfrwt>
<pdfrwt beam="2">0</pdfrwt>
<totfact> 0.31846093E-05</totfact>
</mgrwt>
<clustering>
<clus scale="   35.055">  1  6  2 -1</clus>
<clus scale="  476.959">  4  5 -1 -1</clus>
<clus scale="  300.000">  1  4  2 -1</clus>
</clustering>
</event>
<event>
 6    1  0.9131597E-012  0.3000000E+03  0.7818608E-02  0.1093470E+00
          1   -1    0    0  502    0  0.00000000000E+00  0.00000000000E+00  0.22434951891E+03  0.22434951891E+03  0.00000000000E+00 0.  1.
         13   -1    0    0    0    0 -0.00000000000E+00 -0.00000000000E+00 -0.27500000000E+03  0.27500000000E+03  0.00000000000E+00 0.  1.
    9000005    2    1    2  501    0 -0.20968105428E+02 -0.22142631431E+02 -0.46226235306E+02  0.46853504954E+03  0.46525076061E+03 0.  0.
         13    1    3    3    0    0 -0.19738881578E+02 -0.24375814419E+03 -0.20077331340E+02  0.24537880010E+03  0.00000000000E+00 0.  1.
          3    1    3    3  501    0 -0.12292238501E+01  0.22161551276E+03 -0.26148903967E+02  0.22315624944E+03  0.00000000000E+00 0.  1.
         21    1    1    2  502  501  0.20968105428E+02  0.22142631431E+02 -0.44242457820E+01  0.30814469372E+02  0.00000000000E+00 0.  1.
<scales pt_clust_4="550.00000" pt_clust_5="550.00000" pt_clust_6="30.49522"></scales>
<mgrwt>
<rscale>  0 0.30000000E+03</rscale>
<asrwt>  1 0.30495221E+02</asrwt>
<pdfrwt beam="1">  1        1 0.81581643E+00 0.30000000E+03</pdfrwt>
<pdfrwt beam="2">0</pdfrwt>
<totfact> 0.80473146E-04</totfact>
</mgrwt>
<clustering>
<clus scale="   30.495">  1  6  2 -1</clus>
<clus scale="  465.251">  4  5 -1 -1</clus>
<clus scale="  300.000">  1  4  2 -1</clus>
</clustering>
</event>
<event>
 6    1  0.9131597E-012  0.3000000E+03  0.7818608E-02  0.1093470E+00
          1   -1    0    0  502    0  0.00000000000E+00  0.00000000000E+00  0.25923920100E+03  0.25923920100E+03  0.00000000000E+00 0.  1.
         13   -1    0    0    0    0 -0.00000000000E+00 -0.00000000000E+00 -0.27500000000E+03  0.27500000000E+03  0.00000000000E+00 0.  1.
    9000005    2    1    2  501    0 -0.10291248302E+02  0.40811229610E+02 -0.50280549582E+02  0.47980502576E+03  0.47530333770E+03 0.  0.
         13    1    3    3    0    0  0.19571193474E+03 -0.74467729321E+02  0.62016741214E+02  0.21839111772E+03  0.00000000000E+00 0.  1.
          1    1    3    3  501    0 -0.20600318304E+03  0.11527895893E+03 -0.11229729080E+03  0.26141390804E+03  0.00000000000E+00 0.  1.
         21    1    1    2  502  501  0.10291248302E+02 -0.40811229610E+02  0.34519750586E+02  0.54434175243E+02  0.00000000000E+00 0. -1.
<scales pt_clust_4="550.00000" pt_clust_5="550.00000" pt_clust_6="42.08879"></scales>
<mgrwt>
<rscale>  0 0.30000000E+03</rscale>
<asrwt>  1 0.42088790E+02</asrwt>
<pdfrwt beam="1">  1        1 0.94268800E+00 0.30000000E+03</pdfrwt>
<pdfrwt beam="2">0</pdfrwt>
<totfact> 0.16610532E-05</totfact>
</mgrwt>
<clustering>
<clus scale="   42.089">  1  6  2 -1</clus>
<clus scale="  475.303">  4  5 -1 -1</clus>
<clus scale="  300.000">  1  4  2 -1</clus>
</clustering>
</event>
<event>
 6    1  0.9131597E-012  0.3000000E+03  0.7818608E-02  0.1093470E+00
          1   -1    0    0  502    0  0.00000000000E+00  0.00000000000E+00  0.24122747714E+03  0.24122747714E+03  0.00000000000E+00 0.  1.
         13   -1    0    0    0    0 -0.00000000000E+00 -0.00000000000E+00 -0.27500000000E+03  0.27500000000E+03  0.00000000000E+00 0.  1.
    9000005    2    1    2  501    0 -0.32567331073E+02 -0.15489604238E+02 -0.47242900380E+02  0.47773059463E+03  0.47401906134E+03 0.  0.
         13    1    3    3    0    0 -0.12957652961E+03  0.13148500497E+03 -0.17950659298E+03  0.25748980655E+03  0.00000000000E+00 0.  1.
          1    1    3    3  501    0  0.97009198534E+02 -0.14697460921E+03  0.13226369260E+03  0.22024078807E+03  0.00000000000E+00 0.  1.
         21    1    1    2  502  501  0.32567331073E+02  0.15489604238E+02  0.13470377524E+02  0.38496882514E+02  0.00000000000E+00 0. -1.
<scales pt_clust_4="550.00000" pt_clust_5="550.00000" pt_clust_6="36.06326"></scales>
<mgrwt>
<rscale>  0 0.30000000E+03</rscale>
<asrwt>  1 0.36063262E+02</asrwt>
<pdfrwt beam="1">  1        1 0.87719083E+00 0.30000000E+03</pdfrwt>
<pdfrwt beam="2">0</pdfrwt>
<totfact> 0.21176087E-04</totfact>
</mgrwt>
<clustering>
<clus scale="   36.063">  1  6  2 -1</clus>
<clus scale="  474.019">  4  5 -1 -1</clus>
<clus scale="  300.000">  1  4  2 -1</clus>
</clustering>
</event>
<event>
 6    1  0.9131597E-012  0.3000000E+03  0.7818608E-02  0.1093470E+00
          1   -1    0    0  502    0  0.00000000000E+00  0.00000000000E+00  0.22575090467E+03  0.22575090467E+03  0.00000000000E+00 0.  1.
         13   -1    0    0    0    0 -0.00000000000E+00 -0.00000000000E+00 -0.27500000000E+03  0.27500000000E+03  0.00000000000E+00 0.  1.
    9000005    2    1    2  501    0  0.30018078415E+02  0.81911025572E+01 -0.65785716975E+02  0.46551400571E+03  0.45979054988E+03 0.  0.
         13    1    3    3    0    0 -0.98495148849E+02 -0.89603761972E+02 -0.21022886377E+03  0.24884996216E+03  0.00000000000E+00 0.  1.
          1    1    3    3  501    0  0.12851322726E+03  0.97794864529E+02  0.14444314680E+03  0.21666404355E+03  0.00000000000E+00 0.  1.
         21    1    1    2  502  501 -0.30018078415E+02 -0.81911025572E+01  0.16536621644E+02  0.35236898959E+02  0.00000000000E+00 0.  1.
<scales pt_clust_4="550.00000" pt_clust_5="550.00000" pt_clust_6="31.11558"></scales>
<mgrwt>
<rscale>  0 0.30000000E+03</rscale>
<asrwt>  1 0.31115578E+02</asrwt>
<pdfrwt beam="1">  1        1 0.82091238E+00 0.30000000E+03</pdfrwt>
<pdfrwt beam="2">0</pdfrwt>
<totfact> 0.72614710E-04</totfact>
</mgrwt>
<clustering>
<clus scale="   31.116">  1  6  2 -1</clus>
<clus scale="  459.791">  4  5 -1 -1</clus>
<clus scale="  300.000">  1  4  2 -1</clus>
</clustering>
</event>
<event>
 6    1  0.9131597E-012  0.3000000E+03  0.7818608E-02  0.1093470E+00
          1   -1    0    0  502    0  0.00000000000E+00  0.00000000000E+00  0.25290155292E+03  0.25290155292E+03  0.00000000000E+00 0.  1.
         13   -1    0    0    0    0 -0.00000000000E+00 -0.00000000000E+00 -0.27500000000E+03  0.27500000000E+03  0.00000000000E+00 0.  1.
    9000005    2    1    2  501    0  0.38155173993E+02  0.27186044068E+01 -0.50603878897E+02  0.48019654526E+03  0.47598819461E+03 0.  0.
         13    1    3    3    0    0  0.65502659327E+02  0.23480578946E+03 -0.22069614011E+02  0.24476810456E+03  0.00000000000E+00 0.  1.
          1    1    3    3  501    0 -0.27347485334E+02 -0.23208718506E+03 -0.28534264886E+02  0.23542844071E+03  0.00000000000E+00 0.  1.
         21    1    1    2  502  501 -0.38155173993E+02 -0.27186044068E+01  0.28505431817E+02  0.47705007656E+02  0.00000000000E+00 0. -1.
<scales pt_clust_4="550.00000" pt_clust_5="550.00000" pt_clust_6="38.25190"></scales>
<mgrwt>
<rscale>  0 0.30000000E+03</rscale>
<asrwt>  1 0.38251903E+02</asrwt>
<pdfrwt beam="1">  1        1 0.91964201E+00 0.30000000E+03</pdfrwt>
<pdfrwt beam="2">0</pdfrwt>
<totfact> 0.41860944E-05</totfact>
</mgrwt>
<clustering>
<clus scale="   38.252">  1  6  2 -1</clus>
<clus scale="  475.988">  4  5 -1 -1</clus>
<clus scale="  300.000">  1  4  2 -1</clus>
</clustering>
</event>
<event>
 6    1  0.9131597E-012  0.3000000E+03  0.7818608E-02  0.1093470E+00
          1   -1    0    0  502    0  0.00000000000E+00  0.00000000000E+00  0.24798310500E+03  0.24798310500E+03  0.00000000000E+00 0.  1.
         13   -1    0    0    0    0 -0.00000000000E+00 -0.00000000000E+00 -0.27500000000E+03  0.27500000000E+03  0.00000000000E+00 0.  1.
    9000005    2    1    2  501    0  0.14275938780E+02  0.28556563672E+02 -0.45606271294E+02  0.48603930081E+03  0.48284054324E+03 0.  0.
         13    1    3    3    0    0 -0.17447053263E+03 -0.43819785448E+02 -0.17096956128E+03  0.24817479977E+03  0.00000000000E+00 0.  1.
          1    1    3    3  501    0  0.18874647141E+03  0.72376349120E+02  0.12536328999E+03  0.23786450105E+03  0.00000000000E+00 0.  1.
         21    1    1    2  502  501 -0.14275938780E+02 -0.28556563672E+02  0.18589376295E+02  0.36943804187E+02  0.00000000000E+00 0.  1.
<scales pt_clust_4="550.00000" pt_clust_5="550.00000" pt_clust_6="31.92616"></scales>
<mgrwt>
<rscale>  0 0.30000000E+03</rscale>
<asrwt>  1 0.31926161E+02</asrwt>
<pdfrwt beam="1">  1        1 0.90175675E+00 0.30000000E+03</pdfrwt>
<pdfrwt beam="2">0</pdfrwt>
<totfact> 0.10646816E-04</totfact>
</mgrwt>
<clustering>
<clus scale="   31.926">  1  6  2 -1</clus>
<clus scale="  482.841">  4  5 -1 -1</clus>
<clus scale="  300.000">  1  4  2 -1</clus>
</clustering>
</event>
<event>
 6    1  0.9131597E-012  0.3000000E+03  0.7818608E-02  0.1093470E+00
          1   -1    0    0  502    0  0.00000000000E+00  0.00000000000E+00  0.22568898018E+03  0.22568898018E+03  0.00000000000E+00 0.  1.
         13   -1    0    0    0    0 -0.00000000000E+00 -0.00000000000E+00 -0.27500000000E+03  0.27500000000E+03  0.00000000000E+00 0.  1.
    9000005    2    1    2  501    0  0.34215449582E+02  0.58343463784E+01 -0.53520072048E+02  0.46572538899E+03  0.46133610660E+03 0.  0.
         13    1    3    3    0    0  0.21136756409E+03  0.77821931045E+02 -0.12967320482E+03  0.25989928848E+03  0.00000000000E+00 0.  1.
          1    1    3    3  501    0 -0.17715211451E+03 -0.71987584666E+02  0.76153132776E+02  0.20582610051E+03  0.00000000000E+00 0.  1.
         21    1    1    2  502  501 -0.34215449582E+02 -0.58343463784E+01  0.42090522240E+01  0.34963591183E+02  0.00000000000E+00 0. -1.
<scales pt_clust_4="550.00000" pt_clust_5="550.00000" pt_clust_6="34.70932"></scales>
<mgrwt>
<rscale>  0 0.30000000E+03</rscale>
<asrwt>  1 0.34709316E+02</asrwt>
<pdfrwt beam="1">  1        1 0.82068720E+00 0.30000000E+03</pdfrwt>
<pdfrwt beam="2">0</pdfrwt>
<totfact> 0.71451682E-04</totfact>
</mgrwt>
<clustering>
<clus scale="   34.709">  1  6  2 -1</clus>
<clus scale="  461.336">  4  5 -1 -1</clus>
<clus scale="  300.000">  1  4  2 -1</clus>
</clustering>
</event>
<event>
 6    1  0.9131597E-012  0.3000000E+03  0.7818608E-02  0.1093470E+00
          1   -1    0    0  502    0  0.00000000000E+00  0.00000000000E+00  0.21995978748E+03  0.21995978748E+03  0.00000000000E+00 0.  1.
         13   -1    0    0    0    0 -0.00000000000E+00 -0.00000000000E+00 -0.27500000000E+03  0.27500000000E+03  0.00000000000E+00 0.  1.
    9000005    2    1    2  501    0  0.78128760063E+01 -0.31714763571E+02 -0.56448430372E+02  0.46226651084E+03  0.45764291155E+03 0.  0.
         13    1    3    3    0    0 -0.13266775519E+03 -0.14049324160E+03 -0.16496824365E+03  0.25407401602E+03  0.00000000000E+00 0.  1.
          1    1    3    3  501    0  0.14048063120E+03  0.10877847803E+03  0.10851981328E+03  0.20819249482E+03  0.00000000000E+00 0.  1.
         21    1    1    2  502  501 -0.78128760063E+01  0.31714763571E+02  0.14082178491E+01  0.32693276639E+02  0.00000000000E+00 0.  1.
<scales pt_clust_4="550.00000" pt_clust_5="550.00000" pt_clust_6="32.66293"></scales>
<mgrwt>
<rscale>  0 0.30000000E+03</rscale>
<asrwt>  1 0.32662934E+02</asrwt>
<pdfrwt beam="1">  1        1 0.79985377E+00 0.30000000E+03</pdfrwt>
<pdfrwt beam="2">0</pdfrwt>
<totfact> 0.10531639E-03</totfact>
</mgrwt>
<clustering>
<clus scale="   32.663">  1  6  2 -1</clus>
<clus scale="  457.643">  4  5 -1 -1</clus>
<clus scale="  300.000">  1  4  2 -1</clus>
</clustering>
</event>
<event>
 6    1  0.9131597E-012  0.3000000E+03  0.7818608E-02  0.1093470E+00
          1   -1    0    0  502    0  0.00000000000E+00  0.00000000000E+00  0.21973938485E+03  0.21973938485E+03  0.00000000000E+00 0.  1.
         13   -1    0    0    0    0 -0.00000000000E+00 -0.00000000000E+00 -0.27500000000E+03  0.27500000000E+03  0.00000000000E+00 0.  1.
    9000005    2    1    2  501    0 -0.21293992146E+02 -0.23505781611E+02 -0.58088782175E+02  0.46289673422E+03  0.45814094345E+03 0.  0.
         13    1    3    3    0    0  0.15584204248E+03 -0.94114182596E+02 -0.16377255300E+03  0.24487888984E+03  0.00000000000E+00 0.  1.
          1    1    3    3  501    0 -0.17713603463E+03  0.70608400986E+02  0.10568377083E+03  0.21801784438E+03  0.00000000000E+00 0.  1.
         21    1    1    2  502  501  0.21293992146E+02  0.23505781611E+02  0.28281670274E+01  0.31842650634E+02  0.00000000000E+00 0. -1.
<scales pt_clust_4="550.00000" pt_clust_5="550.00000" pt_clust_6="31.71681"></scales>
<mgrwt>
<rscale>  0 0.30000000E+03</rscale>
<asrwt>  1 0.31716807E+02</asrwt>
<pdfrwt beam="1">  1        1 0.79905231E+00 0.30000000E+03</pdfrwt>
<pdfrwt beam="2">0</pdfrwt>
<totfact> 0.10732936E-03</totfact>
</mgrwt>
<clustering>
<clus scale="   31.717">  1  6  2 -1</clus>
<clus scale="  458.141">  4  5 -1 -1</clus>
<clus scale="  300.000">  1  4  2 -1</clus>
</clustering>
</event>
<event>
 6    1  0.9131597E-012  0.3000000E+03  0.7818608E-02  0.1093470E+00
          1   -1    0    0  502    0  0.00000000000E+00  0.00000000000E+00  0.23681206468E+03  0.23681206468E+03  0.00000000000E+00 0.  1.
         13   -1    0    0    0    0 -0.00000000000E+00 -0.00000000000E+00 -0.27500000000E+03  0.27500000000E+03  0.00000000000E+00 0.  1.
    9000005    2    1    2  501    0  0.85002438848E+01 -0.32356196911E+02 -0.61479400864E+02  0.47104847809E+03  0.46581946541E+03 0.  0.
         13    1    3    3    0    0 -0.28732873981E+02  0.17545525063E+03  0.10115041772E+03  0.20455202279E+03  0.00000000000E+00 0.  1.
          1    1    3    3  501    0  0.37233117866E+02 -0.20781144754E+03 -0.16262981858E+03  0.26649645530E+03  0.00000000000E+00 0.  1.
         21    1    1    2  502  501 -0.85002438848E+01  0.32356196911E+02  0.23291465545E+02  0.40763586592E+02  0.00000000000E+00 0. -1.
<scales pt_clust_4="550.00000" pt_clust_5="550.00000" pt_clust_6="33.45411"></scales>
<mgrwt>
<rscale>  0 0.30000000E+03</rscale>
<asrwt>  1 0.33454112E+02</asrwt>
<pdfrwt beam="1">  1        1 0.86113478E+00 0.30000000E+03</pdfrwt>
<pdfrwt beam="2">0</pdfrwt>
<totfact> 0.31721162E-04</totfact>
</mgrwt>
<clustering>
<clus scale="   33.454">  1  6  2 -1</clus>
<clus scale="  465.819">  4  5 -1 -1</clus>
<clus scale="  300.000">  1  4  2 -1</clus>
</clustering>
</event>
<event>
 6    1  0.9131597E-012  0.3000000E+03  0.7818608E-02  0.1093470E+00
          1   -1    0    0  502    0  0.00000000000E+00  0.00000000000E+00  0.24690737856E+03  0.24690737856E+03  0.00000000000E+00 0.  1.
         13   -1    0    0    0    0 -0.00000000000E+00 -0.00000000000E+00 -0.27500000000E+03  0.27500000000E+03  0.00000000000E+00 0.  1.
    9000005    2    1    2  501    0 -0.38369514092E+01  0.30886394121E+02 -0.51663104191E+02  0.48286561637E+03  0.47908395464E+03 0.  0.
         13    1    3    3    0    0  0.70569662595E+02  0.11457029193E+03  0.18048288688E+03  0.22512330294E+03  0.00000000000E+00 0.  1.
          3    1    3    3  501    0 -0.74406614004E+02 -0.83683897808E+02 -0.23214599107E+03  0.25774231343E+03  0.00000000000E+00 0.  1.
         21    1    1    2  502  501  0.38369514092E+01 -0.30886394121E+02  0.23570482750E+02  0.39041762191E+02  0.00000000000E+00 0.  1.
<scales pt_clust_4="550.00000" pt_clust_5="550.00000" pt_clust_6="31.12381"></scales>
<mgrwt>
<rscale>  0 0.30000000E+03</rscale>
<asrwt>  1 0.31123810E+02</asrwt>
<pdfrwt beam="1">  1        1 0.89784501E+00 0.30000000E+03</pdfrwt>
<pdfrwt beam="2">0</pdfrwt>
<totfact> 0.11979459E-04</totfact>
</mgrwt>
<clustering>
<clus scale="   31.124">  1  6  2 -1</clus>
<clus scale="  479.084">  4  5 -1 -1</clus>
<clus scale="  300.000">  1  4  2 -1</clus>
</clustering>
</event>
<event>
 6    1  0.9131597E-012  0.3000000E+03  0.7818608E-02  0.1093470E+00
          1   -1    0    0  502    0  0.00000000000E+00  0.00000000000E+00  0.22209555211E+03  0.22209555211E+03  0.00000000000E+00 0.  1.
         13   -1    0    0    0    0 -0.00000000000E+00 -0.00000000000E+00 -0.27500000000E+03  0.27500000000E+03  0.00000000000E+00 0.  1.
    9000005    2    1    2  501    0  0.11348870031E+02  0.32191875834E+02 -0.59315110419E+02  0.46236501347E+03  0.45727235826E+03 0.  0.
         13    1    3    3    0    0 -0.11805558089E+03 -0.14400908895E+03  0.80494693808E+02  0.20286728078E+03  0.00000000000E+00 0.  1.
          3    1    3    3  501    0  0.12940445092E+03  0.17620096479E+03 -0.13980980423E+03  0.25949773268E+03  0.00000000000E+00 0.  1.
         21    1    1    2  502  501 -0.11348870031E+02 -0.32191875834E+02  0.64106625337E+01  0.34730538648E+02  0.00000000000E+00 0. -1.
<scales pt_clust_4="550.00000" pt_clust_5="550.00000" pt_clust_6="34.13376"></scales>
<mgrwt>
<rscale>  0 0.30000000E+03</rscale>
<asrwt>  1 0.34133762E+02</asrwt>
<pdfrwt beam="1">  1        1 0.80762019E+00 0.30000000E+03</pdfrwt>
<pdfrwt beam="2">0</pdfrwt>
<totfact> 0.91424899E-04</totfact>
</mgrwt>
<clustering>
<clus scale="   34.134">  1  6  2 -1</clus>
<clus scale="  457.272">  4  5 -1 -1</clus>
<clus scale="  300.000">  1  4  2 -1</clus>
</clustering>
</event>
<event>
 6    1  0.9131597E-012  0.3000000E+03  0.7818608E-02  0.1093470E+00
          1   -1    0    0  502    0  0.00000000000E+00  0.00000000000E+00  0.22702530653E+03  0.22702530653E+03  0.00000000000E+00 0.  1.
         13   -1    0    0    0    0 -0.00000000000E+00 -0.00000000000E+00 -0.27500000000E+03  0.27500000000E+03  0.00000000000E+00 0.  1.
    9000005    2    1    2  501    0 -0.13980772855E+02 -0.28931869110E+02 -0.47199026892E+02  0.46988317346E+03  0.46640104363E+03 0.  0.
         13    1    3    3    0    0  0.73022430389E+02 -0.19309091379E+03 -0.15219698848E+03  0.25647670387E+03  0.00000000000E+00 0.  1.
          1    1    3    3  501    0 -0.87003203244E+02  0.16415904468E+03  0.10499796159E+03  0.21340646959E+03  0.00000000000E+00 0.  1.
         21    1    1    2  502  501  0.13980772855E+02  0.28931869110E+02 -0.77566657310E+00  0.32142133072E+02  0.00000000000E+00 0. -1.
<scales pt_clust_4="550.00000" pt_clust_5="550.00000" pt_clust_6="32.13277"></scales>
<mgrwt>
<rscale>  0 0.30000000E+03</rscale>
<asrwt>  1 0.32132772E+02</asrwt>
<pdfrwt beam="1">  1        1 0.82554657E+00 0.30000000E+03</pdfrwt>
<pdfrwt beam="2">0</pdfrwt>
<totfact> 0.65637472E-04</totfact>
</mgrwt>
<clustering>
<clus scale="   32.133">  1  6  2 -1</clus>
<clus scale="  466.401">  4  5 -1 -1</clus>
<clus scale="  300.000">  1  4  2 -1</clus>
</clustering>
</event>
<event>
 6    1  0.9131597E-012  0.3000000E+03  0.7818608E-02  0.1093470E+00
          1   -1    0    0  502    0  0.00000000000E+00  0.00000000000E+00  0.24534758343E+03  0.24534758343E+03  0.00000000000E+00 0.  1.
         13   -1    0    0    0    0 -0.00000000000E+00 -0.00000000000E+00 -0.27500000000E+03  0.27500000000E+03  0.00000000000E+00 0.  1.
    9000005    2    1    2  501    0  0.15393826885E+02 -0.31359824239E+02 -0.65693458598E+02  0.47015430507E+03  0.46422950314E+03 0.  0.
         13    1    3    3    0    0 -0.13361190968E+03 -0.24846861071E+01  0.15351352250E+03  0.20353063078E+03  0.00000000000E+00 0.  1.
          3    1    3    3  501    0  0.14900573657E+03 -0.28875138132E+02 -0.21920698109E+03  0.26662367429E+03  0.00000000000E+00 0.  1.
         21    1    1    2  502  501 -0.15393826885E+02  0.31359824239E+02  0.36041042032E+02  0.50193278367E+02  0.00000000000E+00 0.  1.
<scales pt_clust_4="550.00000" pt_clust_5="550.00000" pt_clust_6="34.93435"></scales>
<mgrwt>
<rscale>  0 0.30000000E+03</rscale>
<asrwt>  1 0.34934345E+02</asrwt>
<pdfrwt beam="1">  1        1 0.89217303E+00 0.30000000E+03</pdfrwt>
<pdfrwt beam="2">0</pdfrwt>
<totfact> 0.13603777E-04</totfact>
</mgrwt>
<clustering>
<clus scale="   34.934">  1  6  2 -1</clus>
<clus scale="  464.230">  4  5 -1 -1</clus>
<clus scale="  300.000">  1  4  2 -1</clus>
</clustering>
</event>
<event>
 6    1  0.9131597E-012  0.3000000E+03  0.7818608E-02  0.1093470E+00
          1   -1    0    0  502    0  0.00000000000E+00  0.00000000000E+00  0.22745431210E+03  0.22745431210E+03  0.00000000000E+00 0.  1.
         13   -1    0    0    0    0 -0.00000000000E+00 -0.00000000000E+00 -0.27500000000E+03  0.27500000000E+03  0.00000000000E+00 0.  1.
    9000005    2    1    2  501    0  0.28433024385E+02  0.96846370841E+01 -0.65832300894E+02  0.46728857187E+03  0.46165191269E+03 0.  0.
         13    1    3    3    0    0  0.12421299336E+03  0.20414871642E+03 -0.74594555285E+02  0.25033959697E+03  0.00000000000E+00 0.  1.
          1    1    3    3  501    0 -0.95779968976E+02 -0.19446407933E+03  0.87622543910E+01  0.21694897490E+03  0.00000000000E+00 0.  1.
         21    1    1    2  502  501 -0.28433024385E+02 -0.96846370841E+01  0.18286612998E+02  0.35165740232E+02  0.00000000000E+00 0. -1.
<scales pt_clust_4="550.00000" pt_clust_5="550.00000" pt_clust_6="30.03713"></scales>
<mgrwt>
<rscale>  0 0.30000000E+03</rscale>
<asrwt>  1 0.30037128E+02</asrwt>
<pdfrwt beam="1">  1        1 0.82710659E+00 0.30000000E+03</pdfrwt>
<pdfrwt beam="2">0</pdfrwt>
<totfact> 0.64409465E-04</totfact>
</mgrwt>
<clustering>
<clus scale="   30.037">  1  6  2 -1</clus>
<clus scale="  461.652">  4  5 -1 -1</clus>
<clus scale="  300.000">  1  4  2 -1</clus>
</clustering>
</event>
<event>
 6    1  0.9131597E-012  0.3000000E+03  0.7818608E-02  0.1093470E+00
          1   -1    0    0  502    0  0.00000000000E+00  0.00000000000E+00  0.23705427293E+03  0.23705427293E+03  0.00000000000E+00 0.  1.
         13   -1    0    0    0    0 -0.00000000000E+00 -0.00000000000E+00 -0.27500000000E+03  0.27500000000E+03  0.00000000000E+00 0.  1.
    9000005    2    1    2  501    0  0.30724929167E+02  0.17441255568E+02 -0.31000296121E+02  0.47604791684E+03  0.47372184043E+03 0.  0.
         13    1    3    3    0    0 -0.18933589503E+03  0.68840467055E+02 -0.11848458437E+03  0.23372138923E+03  0.00000000000E+00 0.  1.
          1    1    3    3  501    0  0.22006082420E+03 -0.51399211488E+02  0.87484288248E+02  0.24232652760E+03  0.00000000000E+00 0.  1.
         21    1    1    2  502  501 -0.30724929167E+02 -0.17441255568E+02 -0.69454309496E+01  0.36006356094E+02  0.00000000000E+00 0. -1.
<scales pt_clust_4="550.00000" pt_clust_5="550.00000" pt_clust_6="35.33016"></scales>
<mgrwt>
<rscale>  0 0.30000000E+03</rscale>
<asrwt>  1 0.35330156E+02</asrwt>
<pdfrwt beam="1">  1        1 0.86201554E+00 0.30000000E+03</pdfrwt>
<pdfrwt beam="2">0</pdfrwt>
<totfact> 0.30718941E-04</totfact>
</mgrwt>
<clustering>
<clus scale="   35.330">  1  6  2 -1</clus>
<clus scale="  473.722">  4  5 -1 -1</clus>
<clus scale="  300.000">  1  4  2 -1</clus>
</clustering>
</event>
<event>
 6    1  0.9131597E-012  0.3000000E+03  0.7818608E-02  0.1093470E+00
          1   -1    0    0  502    0  0.00000000000E+00  0.00000000000E+00  0.22611820295E+03  0.22611820295E+03  0.00000000000E+00 0.  1.
         13   -1    0    0    0    0 -0.00000000000E+00 -0.00000000000E+00 -0.27500000000E+03  0.27500000000E+03  0.00000000000E+00 0.  1.
    9000005    2    1    2  501    0  0.30176397521E+02  0.24476916534E+01 -0.63943478769E+02  0.46730311138E+03  0.46191646784E+03 0.  0.
         13    1    3    3    0    0  0.22288873492E+02 -0.22001909132E+03  0.34643871515E+02  0.22384233795E+03  0.00000000000E+00 0.  1.
          1    1    3    3  501    0  0.78875240290E+01  0.22246678297E+03 -0.98587350284E+02  0.24346077343E+03  0.00000000000E+00 0.  1.
         21    1    1    2  502  501 -0.30176397521E+02 -0.24476916534E+01  0.15061681717E+02  0.33815091571E+02  0.00000000000E+00 0.  1.
<scales pt_clust_4="550.00000" pt_clust_5="550.00000" pt_clust_6="30.27550"></scales>
<mgrwt>
<rscale>  0 0.30000000E+03</rscale>
<asrwt>  1 0.30275504E+02</asrwt>
<pdfrwt beam="1">  1        1 0.82224801E+00 0.30000000E+03</pdfrwt>
<pdfrwt beam="2">0</pdfrwt>
<totfact> 0.71042812E-04</totfact>
</mgrwt>
<clustering>
<clus scale="   30.276">  1  6  2 -1</clus>
<clus scale="  461.916">  4  5 -1 -1</clus>
<clus scale="  300.000">  1  4  2 -1</clus>
</clustering>
</event>
<event>
 6    1  0.9131597E-012  0.3000000E+03  0.7818608E-02  0.1093470E+00
          1   -1    0    0  502    0  0.00000000000E+00  0.00000000000E+00  0.24500590703E+03  0.24500590703E+03  0.00000000000E+00 0.  1.
         13   -1    0    0    0    0 -0.00000000000E+00 -0.00000000000E+00 -0.27500000000E+03  0.27500000000E+03  0.00000000000E+00 0.  1.
    9000005    2    1    2  501    0  0.27305876117E+02 -0.13217097294E+02 -0.42697063390E+02  0.48711718573E+03  0.48429310430E+03 0.  0.
         13    1    3    3    0    0  0.22066065259E+03  0.79788830478E+02 -0.11419760752E+03  0.26095684439E+03  0.00000000000E+00 0.  1.
          1    1    3    3  501    0 -0.19335477647E+03 -0.93005927772E+02  0.71500544131E+02  0.22616034134E+03  0.00000000000E+00 0.  1.
         21    1    1    2  502  501 -0.27305876117E+02  0.13217097294E+02  0.12702970418E+02  0.32888721301E+02  0.00000000000E+00 0.  1.
<scales pt_clust_4="550.00000" pt_clust_5="550.00000" pt_clust_6="30.33649"></scales>
<mgrwt>
<rscale>  0 0.30000000E+03</rscale>
<asrwt>  1 0.30336488E+02</asrwt>
<pdfrwt beam="1">  1        1 0.89093057E+00 0.30000000E+03</pdfrwt>
<pdfrwt beam="2">0</pdfrwt>
<totfact> 0.14481325E-04</totfact>
</mgrwt>
<clustering>
<clus scale="   30.336">  1  6  2 -1</clus>
<clus scale="  484.293">  4  5 -1 -1</clus>
<clus scale="  300.000">  1  4  2 -1</clus>
</clustering>
</event>
<event>
 6    1  0.9131597E-012  0.3000000E+03  0.7818608E-02  0.1093470E+00
          1   -1    0    0  502    0  0.00000000000E+00  0.00000000000E+00  0.23653165688E+03  0.23653165688E+03  0.00000000000E+00 0.  1.
         13   -1    0    0    0    0 -0.00000000000E+00 -0.00000000000E+00 -0.27500000000E+03  0.27500000000E+03  0.00000000000E+00 0.  1.
    9000005    2    1    2  501    0 -0.22765950862E+02  0.23339746411E+02 -0.73554435214E+02  0.46363524637E+03  0.45660086997E+03 0.  0.
         13    1    3    3    0    0  0.59437506765E+02 -0.16560816050E+03  0.92695730907E+02  0.19887528394E+03  0.00000000000E+00 0.  1.
          3    1    3    3  501    0 -0.82203457626E+02  0.18894790691E+03 -0.16625016612E+03  0.26475996243E+03  0.00000000000E+00 0.  1.
         21    1    1    2  502  501  0.22765950862E+02 -0.23339746411E+02  0.35086092090E+02  0.47896410506E+02  0.00000000000E+00 0.  1.
<scales pt_clust_4="550.00000" pt_clust_5="550.00000" pt_clust_6="32.60418"></scales>
<mgrwt>
<rscale>  0 0.30000000E+03</rscale>
<asrwt>  1 0.32604176E+02</asrwt>
<pdfrwt beam="1">  1        1 0.86011512E+00 0.30000000E+03</pdfrwt>
<pdfrwt beam="2">0</pdfrwt>
<totfact> 0.32688419E-04</totfact>
</mgrwt>
<clustering>
<clus scale="   32.604">  1  6  2 -1</clus>
<clus scale="  456.601">  4  5 -1 -1</clus>
<clus scale="  300.000">  1  4  2 -1</clus>
</clustering>
</event>
<event>
 6    1  0.9131597E-012  0.3000000E+03  0.7818608E-02  0.1093470E+00
          1   -1    0    0  502    0  0.00000000000E+00  0.00000000000E+00  0.24376458786E+03  0.24376458786E+03  0.00000000000E+00 0.  1.
         13   -1    0    0    0    0 -0.00000000000E+00 -0.00000000000E+00 -0.27500000000E+03  0.27500000000E+03  0.00000000000E+00 0.  1.
    9000005    2    1    2  501    0  0.37630865098E+02 -0.15501004910E+02 -0.74617653006E+01  0.47163127220E+03  0.46981274548E+03 0.  0.
         13    1    3    3    0    0  0.70038617567E+02  0.16990779426E+03  0.14122112191E+03  0.23177029960E+03  0.00000000000E+00 0.  1.
          1    1    3    3  501    0 -0.32407752469E+02 -0.18540879917E+03 -0.14868288721E+03  0.23986097261E+03  0.00000000000E+00 0.  1.
         21    1    1    2  502  501 -0.37630865098E+02  0.15501004910E+02 -0.23773646836E+02  0.47133315660E+02  0.00000000000E+00 0.  1.
<scales pt_clust_4="550.00000" pt_clust_5="550.00000" pt_clust_6="40.69846"></scales>
<mgrwt>
<rscale>  0 0.30000000E+03</rscale>
<asrwt>  1 0.40698462E+02</asrwt>
<pdfrwt beam="1">  1        1 0.88641668E+00 0.30000000E+03</pdfrwt>
<pdfrwt beam="2">0</pdfrwt>
<totfact> 0.15780225E-04</totfact>
</mgrwt>
<clustering>
<clus scale="   40.698">  1  6  2 -1</clus>
<clus scale="  469.813">  4  5 -1 -1</clus>
<clus scale="  300.000">  1  4  2 -1</clus>
</clustering>
</event>
<event>
 6    1  0.9131597E-012  0.3000000E+03  0.7818608E-02  0.1093470E+00
          1   -1    0    0  502    0  0.00000000000E+00  0.00000000000E+00  0.23516367102E+03  0.23516367102E+03  0.00000000000E+00 0.  1.
         13   -1    0    0    0    0 -0.00000000000E+00 -0.00000000000E+00 -0.27500000000E+03  0.27500000000E+03  0.00000000000E+00 0.  1.
    9000005    2    1    2  501    0  0.44117968766E+02  0.44381129717E+01 -0.47674933504E+02  0.46513550499E+03  0.46055623620E+03 0.  0.
         13    1    3    3    0    0  0.23178239228E+03  0.94699210340E+02  0.46298847374E+01  0.25042454681E+03  0.00000000000E+00 0.  1.
          3    1    3    3  501    0 -0.18766442352E+03 -0.90261097368E+02 -0.52304818241E+02  0.21471095818E+03  0.00000000000E+00 0.  1.
         21    1    1    2  502  501 -0.44117968766E+02 -0.44381129717E+01  0.78386045221E+01  0.45028166026E+02  0.00000000000E+00 0.  1.
<scales pt_clust_4="550.00000" pt_clust_5="550.00000" pt_clust_6="44.34064"></scales>
<mgrwt>
<rscale>  0 0.30000000E+03</rscale>
<asrwt>  1 0.44340636E+02</asrwt>
<pdfrwt beam="1">  1        1 0.85514062E+00 0.30000000E+03</pdfrwt>
<pdfrwt beam="2">0</pdfrwt>
<totfact> 0.34777971E-04</totfact>
</mgrwt>
<clustering>
<clus scale="   44.341">  1  6  2 -1</clus>
<clus scale="  460.556">  4  5 -1 -1</clus>
<clus scale="  300.000">  1  4  2 -1</clus>
</clustering>
</event>
<event>
 6    1  0.9131597E-012  0.3000000E+03  0.7818608E-02  0.1093470E+00
          1   -1    0    0  502    0  0.00000000000E+00  0.00000000000E+00  0.24561725626E+03  0.24561725626E+03  0.00000000000E+00 0.  1.
         13   -1    0    0    0    0 -0.00000000000E+00 -0.00000000000E+00 -0.27500000000E+03  0.27500000000E+03  0.00000000000E+00 0.  1.
    9000005    2    1    2  501    0 -0.15914460408E+02  0.26739549937E+02 -0.51327266706E+02  0.48254054856E+03  0.47879287706E+03 0.  0.
         13    1    3    3    0    0 -0.62961757491E+02  0.21521440608E+03  0.90716287397E+02  0.24189019883E+03  0.00000000000E+00 0.  1.
          1    1    3    3  501    0  0.47047297084E+02 -0.18847485615E+03 -0.14204355410E+03  0.24065034973E+03  0.00000000000E+00 0.  1.
         21    1    1    2  502  501  0.15914460408E+02 -0.26739549937E+02  0.21944522966E+02  0.38076707698E+02  0.00000000000E+00 0.  1.
<scales pt_clust_4="550.00000" pt_clust_5="550.00000" pt_clust_6="31.11709"></scales>
<mgrwt>
<rscale>  0 0.30000000E+03</rscale>
<asrwt>  1 0.31117095E+02</asrwt>
<pdfrwt beam="1">  1        1 0.89315366E+00 0.30000000E+03</pdfrwt>
<pdfrwt beam="2">0</pdfrwt>
<totfact> 0.13535028E-04</totfact>
</mgrwt>
<clustering>
<clus scale="   31.117">  1  6  2 -1</clus>
<clus scale="  478.793">  4  5 -1 -1</clus>
<clus scale="  300.000">  1  4  2 -1</clus>
</clustering>
</event>
<event>
 6    1  0.9131597E-012  0.3000000E+03  0.7818608E-02  0.1093470E+00
          1   -1    0    0  502    0  0.00000000000E+00  0.00000000000E+00  0.21905643241E+03  0.21905643241E+03  0.00000000000E+00 0.  1.
         13   -1    0    0    0    0 -0.00000000000E+00 -0.00000000000E+00 -0.27500000000E+03  0.27500000000E+03  0.00000000000E+00 0.  1.
    9000005    2    1    2  501    0  0.30683323915E+02  0.13071837481E+02 -0.49081747772E+02  0.46000611856E+03  0.45616254981E+03 0.  0.
         13    1    3    3    0    0  0.21374771157E+03  0.11981104267E+03 -0.16326204976E+02  0.24557954947E+03  0.00000000000E+00 0.  1.
          3    1    3    3  501    0 -0.18306438765E+03 -0.10673920519E+03 -0.32755542796E+02  0.21442656910E+03  0.00000000000E+00 0.  1.
         21    1    1    2  502  501 -0.30683323915E+02 -0.13071837481E+02 -0.68618198199E+01  0.34050313844E+02  0.00000000000E+00 0. -1.
<scales pt_clust_4="550.00000" pt_clust_5="550.00000" pt_clust_6="33.35177"></scales>
<mgrwt>
<rscale>  0 0.30000000E+03</rscale>
<asrwt>  1 0.33351768E+02</asrwt>
<pdfrwt beam="1">  1        1 0.79656885E+00 0.30000000E+03</pdfrwt>
<pdfrwt beam="2">0</pdfrwt>
<totfact> 0.11083139E-03</totfact>
</mgrwt>
<clustering>
<clus scale="   33.352">  1  6  2 -1</clus>
<clus scale="  456.163">  4  5 -1 -1</clus>
<clus scale="  300.000">  1  4  2 -1</clus>
</clustering>
</event>
<event>
 6    1  0.9131597E-012  0.3000000E+03  0.7818608E-02  0.1093470E+00
          1   -1    0    0  502    0  0.00000000000E+00  0.00000000000E+00  0.24073518094E+03  0.24073518094E+03  0.00000000000E+00 0.  1.
         13   -1    0    0    0    0 -0.00000000000E+00 -0.00000000000E+00 -0.27500000000E+03  0.27500000000E+03  0.00000000000E+00 0.  1.
    9000005    2    1    2  501    0 -0.20082595834E+01 -0.37705800767E+02 -0.47411199013E+02  0.47575283704E+03  0.47187623339E+03 0.  0.
         13    1    3    3    0    0  0.13006001337E+03  0.51197986214E+02 -0.20736461973E+03  0.25007384187E+03  0.00000000000E+00 0.  1.
          1    1    3    3  501    0 -0.13206827296E+03 -0.88903786981E+02  0.15995342072E+03  0.22567899517E+03  0.00000000000E+00 0.  1.
         21    1    1    2  502  501  0.20082595834E+01  0.37705800767E+02  0.13146379953E+02  0.39982343902E+02  0.00000000000E+00 0.  1.
<scales pt_clust_4="550.00000" pt_clust_5="550.00000" pt_clust_6="37.75924"></scales>
<mgrwt>
<rscale>  0 0.30000000E+03</rscale>
<asrwt>  1 0.37759244E+02</asrwt>
<pdfrwt beam="1">  1        1 0.87540066E+00 0.30000000E+03</pdfrwt>
<pdfrwt beam="2">0</pdfrwt>
<totfact> 0.21961614E-04</totfact>
</mgrwt>
<clustering>
<clus scale="   37.759">  1  6  2 -1</clus>
<clus scale="  471.876">  4  5 -1 -1</clus>
<clus scale="  300.000">  1  4  2 -1</clus>
</clustering>
</event>
<event>
 6    1  0.9131597E-012  0.3000000E+03  0.7818608E-02  0.1093470E+00
          1   -1    0    0  502    0  0.00000000000E+00  0.00000000000E+00  0.25465503668E+03  0.25465503668E+03  0.00000000000E+00 0.  1.
         13   -1    0    0    0    0 -0.00000000000E+00 -0.00000000000E+00 -0.27500000000E+03  0.27500000000E+03  0.00000000000E+00 0.  1.
    9000005    2    1    2  501    0  0.18553556865E+02 -0.39977227575E+02 -0.83503331867E+01  0.48397917490E+03  0.48189594362E+03 0.  0.
         13    1    3    3    0    0  0.13123720520E+03  0.16170449584E+03 -0.10538248248E+03  0.23340311827E+03  0.00000000000E+00 0.  1.
          3    1    3    3  501    0 -0.11268364834E+03 -0.20168172341E+03  0.97032149290E+02  0.25057605663E+03  0.00000000000E+00 0.  1.
         21    1    1    2  502  501 -0.18553556865E+02  0.39977227575E+02 -0.11994630138E+02  0.45675861777E+02  0.00000000000E+00 0.  1.
<scales pt_clust_4="550.00000" pt_clust_5="550.00000" pt_clust_6="44.07284"></scales>
<mgrwt>
<rscale>  0 0.30000000E+03</rscale>
<asrwt>  1 0.44072839E+02</asrwt>
<pdfrwt beam="1">  1        1 0.92601832E+00 0.30000000E+03</pdfrwt>
<pdfrwt beam="2">0</pdfrwt>
<totfact> 0.29955779E-05</totfact>
</mgrwt>
<clustering>
<clus scale="   44.073">  1  6  2 -1</clus>
<clus scale="  481.896">  4  5 -1 -1</clus>
<clus scale="  300.000">  1  4  2 -1</clus>
</clustering>
</event>
<event>
 6    1  0.9131597E-012  0.3000000E+03  0.7818608E-02  0.1093470E+00
          1   -1    0    0  502    0  0.00000000000E+00  0.00000000000E+00  0.22889742843E+03  0.22889742843E+03  0.00000000000E+00 0.  1.
         13   -1    0    0    0    0 -0.00000000000E+00 -0.00000000000E+00 -0.27500000000E+03  0.27500000000E+03  0.00000000000E+00 0.  1.
    9000005    2    1    2  501    0  0.37286320430E+02  0.75547118002E+01 -0.26665999814E+02  0.46117596212E+03  0.45882986949E+03 0.  0.
         13    1    3    3    0    0 -0.16658593837E+03 -0.74352074861E+02 -0.12430145575E+03  0.22074863035E+03  0.00000000000E+00 0.  1.
          1    1    3    3  501    0  0.20387225880E+03  0.81906786661E+02  0.97635455940E+02  0.24042733178E+03  0.00000000000E+00 0.  1.
         21    1    1    2  502  501 -0.37286320430E+02 -0.75547118002E+01 -0.19436571758E+02  0.42721466305E+02  0.00000000000E+00 0.  1.
<scales pt_clust_4="550.00000" pt_clust_5="550.00000" pt_clust_6="38.04399"></scales>
<mgrwt>
<rscale>  0 0.30000000E+03</rscale>
<asrwt>  1 0.38043985E+02</asrwt>
<pdfrwt beam="1">  1        1 0.83235429E+00 0.30000000E+03</pdfrwt>
<pdfrwt beam="2">0</pdfrwt>
<totfact> 0.55742160E-04</totfact>
</mgrwt>
<clustering>
<clus scale="   38.044">  1  6  2 -1</clus>
<clus scale="  458.830">  4  5 -1 -1</clus>
<clus scale="  300.000">  1  4  2 -1</clus>
</clustering>
</event>
<event>
 6    1  0.9131597E-012  0.3000000E+03  0.7818608E-02  0.1093470E+00
          1   -1    0    0  502    0  0.00000000000E+00  0.00000000000E+00  0.24044402762E+03  0.24044402762E+03  0.00000000000E+00 0.  1.
         13   -1    0    0    0    0 -0.00000000000E+00 -0.00000000000E+00 -0.27500000000E+03  0.27500000000E+03  0.00000000000E+00 0.  1.
    9000005    2    1    2  501    0 -0.36213103114E+01  0.40531988134E+02 -0.64645798298E+02  0.46483421065E+03  0.45851478515E+03 0.  0.
         13    1    3    3    0    0  0.21634210642E+03  0.86203086835E+02 -0.58390785360E+02  0.24009240514E+03  0.00000000000E+00 0.  1.
          1    1    3    3  501    0 -0.21996341673E+03 -0.45671098701E+02 -0.62550129376E+01  0.22474180551E+03  0.00000000000E+00 0.  1.
         21    1    1    2  502  501  0.36213103114E+01 -0.40531988134E+02  0.30089825922E+02  0.50609816977E+02  0.00000000000E+00 0.  1.
<scales pt_clust_4="550.00000" pt_clust_5="550.00000" pt_clust_6="40.69344"></scales>
<mgrwt>
<rscale>  0 0.30000000E+03</rscale>
<asrwt>  1 0.40693439E+02</asrwt>
<pdfrwt beam="1">  1        1 0.87434192E+00 0.30000000E+03</pdfrwt>
<pdfrwt beam="2">0</pdfrwt>
<totfact> 0.22227457E-04</totfact>
</mgrwt>
<clustering>
<clus scale="   40.693">  1  6  2 -1</clus>
<clus scale="  458.515">  4  5 -1 -1</clus>
<clus scale="  300.000">  1  4  2 -1</clus>
</clustering>
</event>
<event>
 6    1  0.9131597E-012  0.3000000E+03  0.7818608E-02  0.1093470E+00
          1   -1    0    0  502    0  0.00000000000E+00  0.00000000000E+00  0.25148280709E+03  0.25148280709E+03  0.00000000000E+00 0.  1.
         13   -1    0    0    0    0 -0.00000000000E+00 -0.00000000000E+00 -0.27500000000E+03  0.27500000000E+03  0.00000000000E+00 0.  1.
    9000005    2    1    2  501    0  0.38195200090E+02  0.15231922795E+02 -0.25084680083E+02  0.48533257260E+03  0.48293641411E+03 0.  0.
         13    1    3    3    0    0 -0.13682697109E+03  0.34176128927E+02  0.17110685384E+03  0.22173674309E+03  0.00000000000E+00 0.  1.
          3    1    3    3  501    0  0.17502217118E+03 -0.18944206132E+02 -0.19619153393E+03  0.26359582951E+03  0.00000000000E+00 0.  1.
         21    1    1    2  502  501 -0.38195200090E+02 -0.15231922795E+02  0.15674871685E+01  0.41150234482E+02  0.00000000000E+00 0.  1.
<scales pt_clust_4="550.00000" pt_clust_5="550.00000" pt_clust_6="41.12037"></scales>
<mgrwt>
<rscale>  0 0.30000000E+03</rscale>
<asrwt>  1 0.41120369E+02</asrwt>
<pdfrwt beam="1">  1        1 0.91448293E+00 0.30000000E+03</pdfrwt>
<pdfrwt beam="2">0</pdfrwt>
<totfact> 0.54050287E-05</totfact>
</mgrwt>
<clustering>
<clus scale="   41.120">  1  6  2 -1</clus>
<clus scale="  482.936">  4  5 -1 -1</clus>
<clus scale="  300.000">  1  4  2 -1</clus>
</clustering>
</event>
<event>
 6    1  0.9131597E-012  0.3000000E+03  0.7818608E-02  0.1093470E+00
          1   -1    0    0  502    0  0.00000000000E+00  0.00000000000E+00  0.24541631678E+03  0.24541631678E+03  0.00000000000E+00 0.  1.
         13   -1    0    0    0    0 -0.00000000000E+00 -0.00000000000E+00 -0.27500000000E+03  0.27500000000E+03  0.00000000000E+00 0.  1.
    9000005    2    1    2  501    0 -0.29498481801E+02 -0.80328286104E+01 -0.34579854661E+02  0.48943812295E+03  0.48725683482E+03 0.  0.
         13    1    3    3    0    0 -0.11652666842E+03 -0.99936698409E+02  0.18230048219E+03  0.23832598253E+03  0.00000000000E+00 0.  1.
          3    1    3    3  501    0  0.87028186624E+02  0.91903869799E+02 -0.21688033685E+03  0.25111214041E+03  0.00000000000E+00 0.  1.
         21    1    1    2  502  501  0.29498481801E+02  0.80328286104E+01  0.49961714372E+01  0.30978193831E+02  0.00000000000E+00 0. -1.
<scales pt_clust_4="550.00000" pt_clust_5="550.00000" pt_clust_6="30.57265"></scales>
<mgrwt>
<rscale>  0 0.30000000E+03</rscale>
<asrwt>  1 0.30572647E+02</asrwt>
<pdfrwt beam="1">  1        1 0.89242297E+00 0.30000000E+03</pdfrwt>
<pdfrwt beam="2">0</pdfrwt>
<totfact> 0.13855042E-04</totfact>
</mgrwt>
<clustering>
<clus scale="   30.573">  1  6  2 -1</clus>
<clus scale="  487.257">  4  5 -1 -1</clus>
<clus scale="  300.000">  1  4  2 -1</clus>
</clustering>
</event>
<event>
 6    1  0.9131597E-012  0.3000000E+03  0.7818608E-02  0.1093470E+00
          1   -1    0    0  502    0  0.00000000000E+00  0.00000000000E+00  0.26078334150E+03  0.26078334150E+03  0.00000000000E+00 0.  1.
         13   -1    0    0    0    0 -0.00000000000E+00 -0.00000000000E+00 -0.27500000000E+03  0.27500000000E+03  0.00000000000E+00 0.  1.
    9000005    2    1    2  501    0 -0.51073209085E+02  0.10389002434E+01 -0.39494570093E+01  0.48367799219E+03  0.48095659879E+03 0.  0.
         13    1    3    3    0    0 -0.11259607704E+02  0.20131659795E+03 -0.13352884387E+03  0.24183693581E+03  0.00000000000E+00 0.  1.
          1    1    3    3  501    0 -0.39813601381E+02 -0.20027769771E+03  0.12957938686E+03  0.24184105638E+03  0.00000000000E+00 0.  1.
         21    1    1    2  502  501  0.51073209085E+02 -0.10389002434E+01 -0.10267201491E+02  0.52105349307E+02  0.00000000000E+00 0.  1.
<scales pt_clust_4="550.00000" pt_clust_5="550.00000" pt_clust_6="51.08380"></scales>
<mgrwt>
<rscale>  0 0.30000000E+03</rscale>
<asrwt>  1 0.51083800E+02</asrwt>
<pdfrwt beam="1">  1        1 0.94830306E+00 0.30000000E+03</pdfrwt>
<pdfrwt beam="2">0</pdfrwt>
<totfact> 0.12482588E-05</totfact>
</mgrwt>
<clustering>
<clus scale="   51.084">  1  6  2 -1</clus>
<clus scale="  480.957">  4  5 -1 -1</clus>
<clus scale="  300.000">  1  4  2 -1</clus>
</clustering>
</event>
<event>
 6    1  0.9131597E-012  0.3000000E+03  0.7818608E-02  0.1093470E+00
          1   -1    0    0  502    0  0.00000000000E+00  0.00000000000E+00  0.23379759820E+03  0.23379759820E+03  0.00000000000E+00 0.  1.
         13   -1    0    0    0    0 -0.00000000000E+00 -0.00000000000E+00 -0.27500000000E+03  0.27500000000E+03  0.00000000000E+00 0.  1.
    9000005    2    1    2  501    0 -0.20979049771E+02  0.27984807824E+02 -0.49954078449E+02  0.47274400140E+03  0.46879442286E+03 0.  0.
         13    1    3    3    0    0  0.18532564482E+03 -0.11154697344E+03  0.10116338319E+02  0.21654251826E+03  0.00000000000E+00 0.  1.
          1    1    3    3  501    0 -0.20630469459E+03  0.13953178126E+03 -0.60070416768E+02  0.25620148314E+03  0.00000000000E+00 0.  1.
         21    1    1    2  502  501  0.20979049771E+02 -0.27984807824E+02  0.87516766499E+01  0.36053596803E+02  0.00000000000E+00 0.  1.
<scales pt_clust_4="550.00000" pt_clust_5="550.00000" pt_clust_6="34.97528"></scales>
<mgrwt>
<rscale>  0 0.30000000E+03</rscale>
<asrwt>  1 0.34975277E+02</asrwt>
<pdfrwt beam="1">  1        1 0.85017308E+00 0.30000000E+03</pdfrwt>
<pdfrwt beam="2">0</pdfrwt>
<totfact> 0.40552010E-04</totfact>
</mgrwt>
<clustering>
<clus scale="   34.975">  1  6  2 -1</clus>
<clus scale="  468.794">  4  5 -1 -1</clus>
<clus scale="  300.000">  1  4  2 -1</clus>
</clustering>
</event>
<event>
 6    1  0.9131597E-012  0.3000000E+03  0.7818608E-02  0.1093470E+00
          1   -1    0    0  502    0  0.00000000000E+00  0.00000000000E+00  0.22452397934E+03  0.22452397934E+03  0.00000000000E+00 0.  1.
         13   -1    0    0    0    0 -0.00000000000E+00 -0.00000000000E+00 -0.27500000000E+03  0.27500000000E+03  0.00000000000E+00 0.  1.
    9000005    2    1    2  501    0 -0.19455397436E+00 -0.30652598377E+02 -0.61452534225E+02  0.46696474887E+03  0.46188747882E+03 0.  0.
         13    1    3    3    0    0  0.14868154177E+03  0.46522803810E+02 -0.19713114422E+03  0.25125934840E+03  0.00000000000E+00 0.  1.
          1    1    3    3  501    0 -0.14887609574E+03 -0.77175402188E+02  0.13567860999E+03  0.21570540048E+03  0.00000000000E+00 0.  1.
         21    1    1    2  502  501  0.19455397436E+00  0.30652598377E+02  0.10976513562E+02  0.32559230466E+02  0.00000000000E+00 0. -1.
<scales pt_clust_4="550.00000" pt_clust_5="550.00000" pt_clust_6="30.65322"></scales>
<mgrwt>
<rscale>  0 0.30000000E+03</rscale>
<asrwt>  1 0.30653216E+02</asrwt>
<pdfrwt beam="1">  1        1 0.81645083E+00 0.30000000E+03</pdfrwt>
<pdfrwt beam="2">0</pdfrwt>
<totfact> 0.79440243E-04</totfact>
</mgrwt>
<clustering>
<clus scale="   30.653">  1  6  2 -1</clus>
<clus scale="  461.887">  4  5 -1 -1</clus>
<clus scale="  300.000">  1  4  2 -1</clus>
</clustering>
</event>
<event>
 6    1  0.9131597E-012  0.3000000E+03  0.7818608E-02  0.1093470E+00
          1   -1    0    0  502    0  0.00000000000E+00  0.00000000000E+00  0.22872811116E+03  0.22872811116E+03  0.00000000000E+00 0.  1.
         13   -1    0    0    0    0 -0.00000000000E+00 -0.00000000000E+00 -0.27500000000E+03  0.27500000000E+03  0.00000000000E+00 0.  1.
    9000005    2    1    2  501    0  0.30435002666E+02  0.17179696402E+02 -0.60230924107E+02  0.46609453544E+03  0.46086323393E+03 0.  0.
         13    1    3    3    0    0  0.48943328148E+02 -0.21821718977E+03 -0.53137093139E+02  0.22986461657E+03  0.00000000000E+00 0.  1.
          1    1    3    3  501    0 -0.18508325483E+02  0.23539688617E+03 -0.70938309672E+01  0.23622991887E+03  0.00000000000E+00 0.  1.
         21    1    1    2  502  501 -0.30435002666E+02 -0.17179696402E+02  0.13959035263E+02  0.37633575717E+02  0.00000000000E+00 0.  1.
<scales pt_clust_4="550.00000" pt_clust_5="550.00000" pt_clust_6="34.94898"></scales>
<mgrwt>
<rscale>  0 0.30000000E+03</rscale>
<asrwt>  1 0.34948982E+02</asrwt>
<pdfrwt beam="1">  1        1 0.83173859E+00 0.30000000E+03</pdfrwt>
<pdfrwt beam="2">0</pdfrwt>
<totfact> 0.57251076E-04</totfact>
</mgrwt>
<clustering>
<clus scale="   34.949">  1  6  2 -1</clus>
<clus scale="  460.863">  4  5 -1 -1</clus>
<clus scale="  300.000">  1  4  2 -1</clus>
</clustering>
</event>
<event>
 6    1  0.9131597E-012  0.3000000E+03  0.7818608E-02  0.1093470E+00
          1   -1    0    0  502    0  0.00000000000E+00  0.00000000000E+00  0.24618625997E+03  0.24618625997E+03  0.00000000000E+00 0.  1.
         13   -1    0    0    0    0 -0.00000000000E+00 -0.00000000000E+00 -0.27500000000E+03  0.27500000000E+03  0.00000000000E+00 0.  1.
    9000005    2    1    2  501    0  0.25402986098E+02  0.30497315622E+02 -0.41720903601E+02  0.47944907230E+03  0.47597834108E+03 0.  0.
         13    1    3    3    0    0 -0.15472284703E+03 -0.38880851776E+02 -0.18111210345E+03  0.24135549309E+03  0.00000000000E+00 0.  1.
          3    1    3    3  501    0  0.18012583313E+03  0.69378167398E+02  0.13939119985E+03  0.23809357922E+03  0.00000000000E+00 0.  1.
         21    1    1    2  502  501 -0.25402986098E+02 -0.30497315622E+02  0.12907163572E+02  0.41737187666E+02  0.00000000000E+00 0. -1.
<scales pt_clust_4="550.00000" pt_clust_5="550.00000" pt_clust_6="39.69128"></scales>
<mgrwt>
<rscale>  0 0.30000000E+03</rscale>
<asrwt>  1 0.39691283E+02</asrwt>
<pdfrwt beam="1">  1        1 0.89522276E+00 0.30000000E+03</pdfrwt>
<pdfrwt beam="2">0</pdfrwt>
<totfact> 0.12248784E-04</totfact>
</mgrwt>
<clustering>
<clus scale="   39.691">  1  6  2 -1</clus>
<clus scale="  475.978">  4  5 -1 -1</clus>
<clus scale="  300.000">  1  4  2 -1</clus>
</clustering>
</event>
<event>
 6    1  0.9131597E-012  0.3000000E+03  0.7818608E-02  0.1093470E+00
          1   -1    0    0  502    0  0.00000000000E+00  0.00000000000E+00  0.22700887935E+03  0.22700887935E+03  0.00000000000E+00 0.  1.
         13   -1    0    0    0    0 -0.00000000000E+00 -0.00000000000E+00 -0.27500000000E+03  0.27500000000E+03  0.00000000000E+00 0.  1.
    9000005    2    1    2  501    0  0.15870015127E+02 -0.32803772627E+02 -0.33502162447E+02  0.46279313266E+03  0.46013817910E+03 0.  0.
         13    1    3    3    0    0  0.53158734271E+02 -0.78129919200E+02  0.20044059197E+03  0.22160001402E+03  0.00000000000E+00 0.  1.
          3    1    3    3  501    0 -0.37288719143E+02  0.45326146573E+02 -0.23394275441E+03  0.24119311864E+03  0.00000000000E+00 0.  1.
         21    1    1    2  502  501 -0.15870015127E+02  0.32803772627E+02 -0.14488958203E+02  0.39215746691E+02  0.00000000000E+00 0. -1.
<scales pt_clust_4="550.00000" pt_clust_5="550.00000" pt_clust_6="36.44100"></scales>
<mgrwt>
<rscale>  0 0.30000000E+03</rscale>
<asrwt>  1 0.36440996E+02</asrwt>
<pdfrwt beam="1">  1        1 0.82548683E+00 0.30000000E+03</pdfrwt>
<pdfrwt beam="2">0</pdfrwt>
<totfact> 0.64183134E-04</totfact>
</mgrwt>
<clustering>
<clus scale="   36.441">  1  6  2 -1</clus>
<clus scale="  460.138">  4  5 -1 -1</clus>
<clus scale="  300.000">  1  4  2 -1</clus>
</clustering>
</event>
<event>
 6    1  0.9131597E-012  0.3000000E+03  0.7818608E-02  0.1093470E+00
          1   -1    0    0  502    0  0.00000000000E+00  0.00000000000E+00  0.26441698837E+03  0.26441698837E+03  0.00000000000E+00 0.  1.
         13   -1    0    0    0    0 -0.00000000000E+00 -0.00000000000E+00 -0.27500000000E+03  0.27500000000E+03  0.00000000000E+00 0.  1.
    9000005    2    1    2  501    0  0.11956585277E+02 -0.30128735932E+02 -0.74471094036E+02  0.46777630346E+03  0.46067127713E+03 0.  0.
         13    1    3    3    0    0 -0.63235721113E+02  0.18165570454E+03 -0.13504362706E+03  0.23501985581E+03  0.00000000000E+00 0.  1.
          1    1    3    3  501    0  0.75192306390E+02 -0.21178444047E+03  0.60572533027E+02  0.23275644765E+03  0.00000000000E+00 0.  1.
         21    1    1    2  502  501 -0.11956585277E+02  0.30128735932E+02  0.63888082407E+02  0.71640684907E+02  0.00000000000E+00 0.  1.
<scales pt_clust_4="550.00000" pt_clust_5="550.00000" pt_clust_6="32.41451"></scales>
<mgrwt>
<rscale>  0 0.30000000E+03</rscale>
<asrwt>  1 0.32414513E+02</asrwt>
<pdfrwt beam="1">  1        1 0.96151632E+00 0.30000000E+03</pdfrwt>
<pdfrwt beam="2">0</pdfrwt>
<totfact> 0.71376873E-06</totfact>
</mgrwt>
<clustering>
<clus scale="   32.415">  1  6  2 -1</clus>
<clus scale="  460.671">  4  5 -1 -1</clus>
<clus scale="  300.000">  1  4  2 -1</clus>
</clustering>
</event>
<event>
 6    1  0.9131597E-012  0.3000000E+03  0.7818608E-02  0.1093470E+00
          1   -1    0    0  502    0  0.00000000000E+00  0.00000000000E+00  0.24093657994E+03  0.24093657994E+03  0.00000000000E+00 0.  1.
         13   -1    0    0    0    0 -0.00000000000E+00 -0.00000000000E+00 -0.27500000000E+03  0.27500000000E+03  0.00000000000E+00 0.  1.
    9000005    2    1    2  501    0  0.66990740057E+01 -0.32091612777E+02 -0.25918705182E+02  0.48215662163E+03  0.48034204407E+03 0.  0.
         13    1    3    3    0    0  0.21698463301E+03 -0.12561279686E+03 -0.25481004908E+02  0.25201227610E+03  0.00000000000E+00 0.  1.
          3    1    3    3  501    0 -0.21028555900E+03  0.93521184081E+02 -0.43770027427E+00  0.23014434553E+03  0.00000000000E+00 0.  1.
         21    1    1    2  502  501 -0.66990740057E+01  0.32091612777E+02 -0.81447148730E+01  0.33779958312E+02  0.00000000000E+00 0.  1.
<scales pt_clust_4="550.00000" pt_clust_5="550.00000" pt_clust_6="32.78338"></scales>
<mgrwt>
<rscale>  0 0.30000000E+03</rscale>
<asrwt>  1 0.32783384E+02</asrwt>
<pdfrwt beam="1">  1        1 0.87613302E+00 0.30000000E+03</pdfrwt>
<pdfrwt beam="2">0</pdfrwt>
<totfact> 0.22144044E-04</totfact>
</mgrwt>
<clustering>
<clus scale="   32.783">  1  6  2 -1</clus>
<clus scale="  480.342">  4  5 -1 -1</clus>
<clus scale="  300.000">  1  4  2 -1</clus>
</clustering>
</event>
<event>
 6    1  0.9131597E-012  0.3000000E+03  0.7818608E-02  0.1093470E+00
          1   -1    0    0  502    0  0.00000000000E+00  0.00000000000E+00  0.22523031655E+03  0.22523031655E+03  0.00000000000E+00 0.  1.
         13   -1    0    0    0    0 -0.00000000000E+00 -0.00000000000E+00 -0.27500000000E+03  0.27500000000E+03  0.00000000000E+00 0.  1.
    9000005    2    1    2  501    0 -0.17979841982E+02 -0.25966393320E+02 -0.55560796851E+02  0.46812011110E+03  0.46373689520E+03 0.  0.
         13    1    3    3    0    0  0.13781863143E+03  0.12015494995E+03 -0.14813840985E+03  0.23532143047E+03  0.00000000000E+00 0.  1.
          3    1    3    3  501    0 -0.15579847341E+03 -0.14612134327E+03  0.92577612997E+02  0.23279868063E+03  0.00000000000E+00 0.  1.
         21    1    1    2  502  501  0.17979841982E+02  0.25966393320E+02  0.57911134052E+01  0.32110205452E+02  0.00000000000E+00 0.  1.
<scales pt_clust_4="550.00000" pt_clust_5="550.00000" pt_clust_6="31.58367"></scales>
<mgrwt>
<rscale>  0 0.30000000E+03</rscale>
<asrwt>  1 0.31583671E+02</asrwt>
<pdfrwt beam="1">  1        1 0.81901933E+00 0.30000000E+03</pdfrwt>
<pdfrwt beam="2">0</pdfrwt>
<totfact> 0.75190324E-04</totfact>
</mgrwt>
<clustering>
<clus scale="   31.584">  1  6  2 -1</clus>
<clus scale="  463.737">  4  5 -1 -1</clus>
<clus scale="  300.000">  1  4  2 -1</clus>
</clustering>
</event>
<event>
 6    1  0.9131597E-012  0.3000000E+03  0.7818608E-02  0.1093470E+00
          1   -1    0    0  502    0  0.00000000000E+00  0.00000000000E+00  0.24396947115E+03  0.24396947115E+03  0.00000000000E+00 0.  1.
         13   -1    0    0    0    0 -0.00000000000E+00 -0.00000000000E+00 -0.27500000000E+03  0.27500000000E+03  0.00000000000E+00 0.  1.
    9000005    2    1    2  501    0  0.16165288792E+02 -0.35002439142E+02 -0.31529996190E+02  0.48041124537E+03  0.47782249498E+03 0.  0.
         13    1    3    3    0    0  0.22173140626E+03  0.72018036444E+02  0.42794239227E+02  0.23702902988E+03  0.00000000000E+00 0.  1.
          3    1    3    3  501    0 -0.20556611747E+03 -0.10702047559E+03 -0.74324235417E+02  0.24338221549E+03  0.00000000000E+00 0.  1.
         21    1    1    2  502  501 -0.16165288792E+02  0.35002439142E+02  0.49946733738E+00  0.38558225779E+02  0.00000000000E+00 0. -1.
<scales pt_clust_4="550.00000" pt_clust_5="550.00000" pt_clust_6="38.55499"></scales>
<mgrwt>
<rscale>  0 0.30000000E+03</rscale>
<asrwt>  1 0.38554991E+02</asrwt>
<pdfrwt beam="1">  1        1 0.88716171E+00 0.30000000E+03</pdfrwt>
<pdfrwt beam="2">0</pdfrwt>
<totfact> 0.15563809E-04</totfact>
</mgrwt>
<clustering>
<clus scale="   38.555">  1  6  2 -1</clus>
<clus scale="  477.822">  4  5 -1 -1</clus>
<clus scale="  300.000">  1  4  2 -1</clus>
</clustering>
</event>
<event>
 6    1  0.9131597E-012  0.3000000E+03  0.7818608E-02  0.1093470E+00
          1   -1    0    0  502    0  0.00000000000E+00  0.00000000000E+00  0.24096464968E+03  0.24096464968E+03  0.00000000000E+00 0.  1.
         13   -1    0    0    0    0 -0.00000000000E+00 -0.00000000000E+00 -0.27500000000E+03  0.27500000000E+03  0.00000000000E+00 0.  1.
    9000005    2    1    2  501    0  0.29740511607E+02 -0.21653303334E+02 -0.36125593836E+02  0.47911722516E+03  0.47633485422E+03 0.  0.
         13    1    3    3    0    0 -0.43747339793E+02 -0.22418132073E+03 -0.10710902615E+03  0.25227651057E+03  0.00000000000E+00 0.  1.
          1    1    3    3  501    0  0.73487851400E+02  0.20252801740E+03  0.70983432309E+02  0.22684071459E+03  0.00000000000E+00 0.  1.
         21    1    1    2  502  501 -0.29740511607E+02  0.21653303334E+02  0.20902435203E+01  0.36847424521E+02  0.00000000000E+00 0.  1.
<scales pt_clust_4="550.00000" pt_clust_5="550.00000" pt_clust_6="36.78809"></scales>
<mgrwt>
<rscale>  0 0.30000000E+03</rscale>
<asrwt>  1 0.36788090E+02</asrwt>
<pdfrwt beam="1">  1        1 0.87623509E+00 0.30000000E+03</pdfrwt>
<pdfrwt beam="2">0</pdfrwt>
<totfact> 0.21615857E-04</totfact>
</mgrwt>
<clustering>
<clus scale="   36.788">  1  6  2 -1</clus>
<clus scale="  476.335">  4  5 -1 -1</clus>
<clus scale="  300.000">  1  4  2 -1</clus>
</clustering>
</event>
<event>
 6    1  0.9131597E-012  0.3000000E+03  0.7818608E-02  0.1093470E+00
          1   -1    0    0  502    0  0.00000000000E+00  0.00000000000E+00  0.22642150578E+03  0.22642150578E+03  0.00000000000E+00 0.  1.
         13   -1    0    0    0    0 -0.00000000000E+00 -0.00000000000E+00 -0.27500000000E+03  0.27500000000E+03  0.00000000000E+00 0.  1.
    9000005    2    1    2  501    0  0.22310996013E+02  0.24680824288E+02 -0.68876327012E+02  0.46244810913E+03  0.45607826256E+03 0.  0.
         13    1    3    3    0    0 -0.84832991522E+02 -0.12276786438E+03 -0.19149617001E+03  0.24277431517E+03  0.00000000000E+00 0.  1.
          1    1    3    3  501    0  0.10714398753E+03  0.14744868867E+03  0.12261984300E+03  0.21967379396E+03  0.00000000000E+00 0.  1.
         21    1    1    2  502  501 -0.22310996013E+02 -0.24680824288E+02  0.20297832792E+02  0.38973396654E+02  0.00000000000E+00 0.  1.
<scales pt_clust_4="550.00000" pt_clust_5="550.00000" pt_clust_6="33.27046"></scales>
<mgrwt>
<rscale>  0 0.30000000E+03</rscale>
<asrwt>  1 0.33270462E+02</asrwt>
<pdfrwt beam="1">  1        1 0.82335093E+00 0.30000000E+03</pdfrwt>
<pdfrwt beam="2">0</pdfrwt>
<totfact> 0.68217428E-04</totfact>
</mgrwt>
<clustering>
<clus scale="   33.270">  1  6  2 -1</clus>
<clus scale="  456.078">  4  5 -1 -1</clus>
<clus scale="  300.000">  1  4  2 -1</clus>
</clustering>
</event>
<event>
 6    1  0.9131597E-012  0.3000000E+03  0.7818608E-02  0.1093470E+00
          1   -1    0    0  502    0  0.00000000000E+00  0.00000000000E+00  0.24983763801E+03  0.24983763801E+03  0.00000000000E+00 0.  1.
         13   -1    0    0    0    0 -0.00000000000E+00 -0.00000000000E+00 -0.27500000000E+03  0.27500000000E+03  0.00000000000E+00 0.  1.
    9000005    2    1    2  501    0 -0.33330509804E+02 -0.27251848131E+02 -0.14796791914E+02  0.48055410661E+03  0.47839284926E+03 0.  0.
         13    1    3    3    0    0  0.18007552664E+03 -0.40850351965E+02  0.12687908939E+03  0.22404073262E+03  0.00000000000E+00 0.  1.
          1    1    3    3  501    0 -0.21340603644E+03  0.13598503834E+02 -0.14167588130E+03  0.25651337399E+03  0.00000000000E+00 0.  1.
         21    1    1    2  502  501  0.33330509804E+02  0.27251848131E+02 -0.10365570072E+02  0.44283531400E+02  0.00000000000E+00 0. -1.
<scales pt_clust_4="550.00000" pt_clust_5="550.00000" pt_clust_6="43.05332"></scales>
<mgrwt>
<rscale>  0 0.30000000E+03</rscale>
<asrwt>  1 0.43053315E+02</asrwt>
<pdfrwt beam="1">  1        1 0.90850050E+00 0.30000000E+03</pdfrwt>
<pdfrwt beam="2">0</pdfrwt>
<totfact> 0.75086921E-05</totfact>
</mgrwt>
<clustering>
<clus scale="   43.053">  1  6  2 -1</clus>
<clus scale="  478.393">  4  5 -1 -1</clus>
<clus scale="  300.000">  1  4  2 -1</clus>
</clustering>
</event>
<event>
 6    1  0.9131597E-012  0.3000000E+03  0.7818608E-02  0.1093470E+00
          1   -1    0    0  502    0  0.00000000000E+00  0.00000000000E+00  0.26282762292E+03  0.26282762292E+03  0.00000000000E+00 0.  1.
         13   -1    0    0    0    0 -0.00000000000E+00 -0.00000000000E+00 -0.27500000000E+03  0.27500000000E+03  0.00000000000E+00 0.  1.
    9000005    2    1    2  501    0  0.13060436610E+02 -0.38826927856E+02 -0.31641583426E+01  0.49588416889E+03  0.49417910895E+03 0.  0.
         13    1    3    3    0    0  0.10355890568E+03 -0.24493907911E+03  0.32720624911E+02  0.26793700512E+03  0.00000000000E+00 0.  1.
          3    1    3    3  501    0 -0.90498469069E+02  0.20611215125E+03 -0.35884783254E+02  0.22794716376E+03  0.00000000000E+00 0.  1.
         21    1    1    2  502  501 -0.13060436610E+02  0.38826927856E+02 -0.90082187407E+01  0.41943454031E+02  0.00000000000E+00 0.  1.
<scales pt_clust_4="550.00000" pt_clust_5="550.00000" pt_clust_6="40.96470"></scales>
<mgrwt>
<rscale>  0 0.30000000E+03</rscale>
<asrwt>  1 0.40964704E+02</asrwt>
<pdfrwt beam="1">  1        1 0.95573681E+00 0.30000000E+03</pdfrwt>
<pdfrwt beam="2">0</pdfrwt>
<totfact> 0.90962277E-06</totfact>
</mgrwt>
<clustering>
<clus scale="   40.965">  1  6  2 -1</clus>
<clus scale="  494.179">  4  5 -1 -1</clus>
<clus scale="  300.000">  1  4  2 -1</clus>
</clustering>
</event>
<event>
 6    1  0.9131597E-012  0.3000000E+03  0.7818608E-02  0.1093470E+00
          1   -1    0    0  502    0  0.00000000000E+00  0.00000000000E+00  0.24517976733E+03  0.24517976733E+03  0.00000000000E+00 0.  1.
         13   -1    0    0    0    0 -0.00000000000E+00 -0.00000000000E+00 -0.27500000000E+03  0.27500000000E+03  0.00000000000E+00 0.  1.
    9000005    2    1    2  501    0 -0.18559974320E+02  0.28991552651E+02 -0.52675481105E+02  0.47885973402E+03  0.47470723165E+03 0.  0.
         13    1    3    3    0    0  0.55707655490E+02 -0.33397446030E+02  0.19889838526E+03  0.20923503517E+03  0.00000000000E+00 0.  1.
          3    1    3    3  501    0 -0.74267629810E+02  0.62388998681E+02 -0.25157386636E+03  0.26962469885E+03  0.00000000000E+00 0.  1.
         21    1    1    2  502  501  0.18559974320E+02 -0.28991552651E+02  0.22855248437E+02  0.41320033313E+02  0.00000000000E+00 0.  1.
<scales pt_clust_4="550.00000" pt_clust_5="550.00000" pt_clust_6="34.42358"></scales>
<mgrwt>
<rscale>  0 0.30000000E+03</rscale>
<asrwt>  1 0.34423579E+02</asrwt>
<pdfrwt beam="1">  1        1 0.89156279E+00 0.30000000E+03</pdfrwt>
<pdfrwt beam="2">0</pdfrwt>
<totfact> 0.13879599E-04</totfact>
</mgrwt>
<clustering>
<clus scale="   34.424">  1  6  2 -1</clus>
<clus scale="  474.707">  4  5 -1 -1</clus>
<clus scale="  300.000">  1  4  2 -1</clus>
</clustering>
</event>
<event>
 6    1  0.9131597E-012  0.3000000E+03  0.7818608E-02  0.1093470E+00
          1   -1    0    0  502    0  0.00000000000E+00  0.00000000000E+00  0.24221349891E+03  0.24221349891E+03  0.00000000000E+00 0.  1.
         13   -1    0    0    0    0 -0.00000000000E+00 -0.00000000000E+00 -0.27500000000E+03  0.27500000000E+03  0.00000000000E+00 0.  1.
    9000005    2    1    2  501    0  0.31127716427E+02 -0.18908238383E+02 -0.70383951768E+02  0.46486825551E+03  0.45806346515E+03 0.  0.
         13    1    3    3    0    0  0.23237549964E+03 -0.10874207527E+02 -0.11358558682E+03  0.25887894227E+03  0.00000000000E+00 0.  1.
          1    1    3    3  501    0 -0.20124778321E+03 -0.80340308565E+01  0.43201635048E+02  0.20598931324E+03  0.00000000000E+00 0.  1.
         21    1    1    2  502  501 -0.31127716427E+02  0.18908238383E+02  0.37597450673E+02  0.52345243393E+02  0.00000000000E+00 0.  1.
<scales pt_clust_4="550.00000" pt_clust_5="550.00000" pt_clust_6="36.42055"></scales>
<mgrwt>
<rscale>  0 0.30000000E+03</rscale>
<asrwt>  1 0.36420547E+02</asrwt>
<pdfrwt beam="1">  1        1 0.88077636E+00 0.30000000E+03</pdfrwt>
<pdfrwt beam="2">0</pdfrwt>
<totfact> 0.19159966E-04</totfact>
</mgrwt>
<clustering>
<clus scale="   36.421">  1  6  2 -1</clus>
<clus scale="  458.063">  4  5 -1 -1</clus>
<clus scale="  300.000">  1  4  2 -1</clus>
</clustering>
</event>
<event>
 6    1  0.9131597E-012  0.3000000E+03  0.7818608E-02  0.1093470E+00
          1   -1    0    0  502    0  0.00000000000E+00  0.00000000000E+00  0.23980294150E+03  0.23980294150E+03  0.00000000000E+00 0.  1.
         13   -1    0    0    0    0 -0.00000000000E+00 -0.00000000000E+00 -0.27500000000E+03  0.27500000000E+03  0.00000000000E+00 0.  1.
    9000005    2    1    2  501    0  0.19012555802E+01 -0.37432078036E+02 -0.55065410251E+02  0.47238211359E+03  0.46766215006E+03 0.  0.
         13    1    3    3    0    0  0.13119678579E+03  0.15345881987E+03 -0.11739769524E+03  0.23354747878E+03  0.00000000000E+00 0.  1.
          1    1    3    3  501    0 -0.12929553021E+03 -0.19089089791E+03  0.62332284989E+02  0.23883463481E+03  0.00000000000E+00 0.  1.
         21    1    1    2  502  501 -0.19012555802E+01  0.37432078036E+02  0.19868351750E+02  0.42420827905E+02  0.00000000000E+00 0. -1.
<scales pt_clust_4="550.00000" pt_clust_5="550.00000" pt_clust_6="37.48033"></scales>
<mgrwt>
<rscale>  0 0.30000000E+03</rscale>
<asrwt>  1 0.37480331E+02</asrwt>
<pdfrwt beam="1">  1        1 0.87201070E+00 0.30000000E+03</pdfrwt>
<pdfrwt beam="2">0</pdfrwt>
<totfact> 0.23850182E-04</totfact>
</mgrwt>
<clustering>
<clus scale="   37.480">  1  6  2 -1</clus>
<clus scale="  467.662">  4  5 -1 -1</clus>
<clus scale="  300.000">  1  4  2 -1</clus>
</clustering>
</event>
<event>
 6    1  0.9131597E-012  0.3000000E+03  0.7818608E-02  0.1093470E+00
          1   -1    0    0  502    0  0.00000000000E+00  0.00000000000E+00  0.24466289787E+03  0.24466289787E+03  0.00000000000E+00 0.  1.
         13   -1    0    0    0    0 -0.00000000000E+00 -0.00000000000E+00 -0.27500000000E+03  0.27500000000E+03  0.00000000000E+00 0.  1.
    9000005    2    1    2  501    0 -0.25162305947E+02  0.24413393635E+02 -0.50706847417E+02  0.47911561741E+03  0.47513307088E+03 0.  0.
         13    1    3    3    0    0  0.10794332717E+03  0.19434479444E+03  0.68380188647E+02  0.23258871685E+03  0.00000000000E+00 0.  1.
          3    1    3    3  501    0 -0.13310563311E+03 -0.16993140080E+03 -0.11908703606E+03  0.24652690057E+03  0.00000000000E+00 0.  1.
         21    1    1    2  502  501  0.25162305947E+02 -0.24413393635E+02  0.20369745286E+02  0.40547280456E+02  0.00000000000E+00 0.  1.
<scales pt_clust_4="550.00000" pt_clust_5="550.00000" pt_clust_6="35.05931"></scales>
<mgrwt>
<rscale>  0 0.30000000E+03</rscale>
<asrwt>  1 0.35059313E+02</asrwt>
<pdfrwt beam="1">  1        1 0.88968326E+00 0.30000000E+03</pdfrwt>
<pdfrwt beam="2">0</pdfrwt>
<totfact> 0.14632828E-04</totfact>
</mgrwt>
<clustering>
<clus scale="   35.059">  1  6  2 -1</clus>
<clus scale="  475.133">  4  5 -1 -1</clus>
<clus scale="  300.000">  1  4  2 -1</clus>
</clustering>
</event>
<event>
 6    1  0.9131597E-012  0.3000000E+03  0.7818608E-02  0.1093470E+00
          1   -1    0    0  502    0  0.00000000000E+00  0.00000000000E+00  0.23435162639E+03  0.23435162639E+03  0.00000000000E+00 0.  1.
         13   -1    0    0    0    0 -0.00000000000E+00 -0.00000000000E+00 -0.27500000000E+03  0.27500000000E+03  0.00000000000E+00 0.  1.
    9000005    2    1    2  501    0  0.28972618383E+02 -0.83054999735E+01 -0.56310410498E+02  0.47538556472E+03  0.47107555537E+03 0.  0.
         13    1    3    3    0    0  0.99802123158E+02  0.17788211517E+03  0.95218981321E+02  0.22509812324E+03  0.00000000000E+00 0.  1.
          3    1    3    3  501    0 -0.70829504775E+02 -0.18618761514E+03 -0.15152939182E+03  0.25028744148E+03  0.00000000000E+00 0.  1.
         21    1    1    2  502  501 -0.28972618383E+02  0.83054999735E+01  0.15662036887E+02  0.33966061668E+02  0.00000000000E+00 0. -1.
<scales pt_clust_4="550.00000" pt_clust_5="550.00000" pt_clust_6="30.13957"></scales>
<mgrwt>
<rscale>  0 0.30000000E+03</rscale>
<asrwt>  1 0.30139574E+02</asrwt>
<pdfrwt beam="1">  1        1 0.85218773E+00 0.30000000E+03</pdfrwt>
<pdfrwt beam="2">0</pdfrwt>
<totfact> 0.39914809E-04</totfact>
</mgrwt>
<clustering>
<clus scale="   30.140">  1  6  2 -1</clus>
<clus scale="  471.076">  4  5 -1 -1</clus>
<clus scale="  300.000">  1  4  2 -1</clus>
</clustering>
</event>
<event>
 6    1  0.9131597E-012  0.3000000E+03  0.7818608E-02  0.1093470E+00
          1   -1    0    0  502    0  0.00000000000E+00  0.00000000000E+00  0.24884023971E+03  0.24884023971E+03  0.00000000000E+00 0.  1.
         13   -1    0    0    0    0 -0.00000000000E+00 -0.00000000000E+00 -0.27500000000E+03  0.27500000000E+03  0.00000000000E+00 0.  1.
    9000005    2    1    2  501    0 -0.12298693212E+02  0.36458078865E+02 -0.55881136846E+02  0.47522121469E+03  0.47035311423E+03 0.  0.
         13    1    3    3    0    0 -0.97475166264E+02  0.23565969923E+03 -0.37965153771E+02  0.25783377355E+03  0.00000000000E+00 0.  1.
          3    1    3    3  501    0  0.85176473052E+02 -0.19920162037E+03 -0.17915983076E+02  0.21738744115E+03  0.00000000000E+00 0.  1.
         21    1    1    2  502  501  0.12298693212E+02 -0.36458078865E+02  0.29721376556E+02  0.48619025017E+02  0.00000000000E+00 0.  1.
<scales pt_clust_4="550.00000" pt_clust_5="550.00000" pt_clust_6="38.47661"></scales>
<mgrwt>
<rscale>  0 0.30000000E+03</rscale>
<asrwt>  1 0.38476608E+02</asrwt>
<pdfrwt beam="1">  1        1 0.90487360E+00 0.30000000E+03</pdfrwt>
<pdfrwt beam="2">0</pdfrwt>
<totfact> 0.91354159E-05</totfact>
</mgrwt>
<clustering>
<clus scale="   38.477">  1  6  2 -1</clus>
<clus scale="  470.353">  4  5 -1 -1</clus>
<clus scale="  300.000">  1  4  2 -1</clus>
</clustering>
</event>
<event>
 6    1  0.9131597E-012  0.3000000E+03  0.7818608E-02  0.1093470E+00
          1   -1    0    0  502    0  0.00000000000E+00  0.00000000000E+00  0.23763943791E+03  0.23763943791E+03  0.00000000000E+00 0.  1.
         13   -1    0    0    0    0 -0.00000000000E+00 -0.00000000000E+00 -0.27500000000E+03  0.27500000000E+03  0.00000000000E+00 0.  1.
    9000005    2    1    2  501    0  0.25775602046E+02 -0.23233304485E+02 -0.67180775935E+02  0.46688560472E+03  0.46072198031E+03 0.  0.
         13    1    3    3    0    0  0.10131250232E+03  0.24070911646E+02  0.17788114085E+03  0.20611970353E+03  0.00000000000E+00 0.  1.
          1    1    3    3  501    0 -0.75536900276E+02 -0.47304216131E+02 -0.24506191678E+03  0.26076590119E+03  0.00000000000E+00 0.  1.
         21    1    1    2  502  501 -0.25775602046E+02  0.23233304485E+02  0.29820213849E+02  0.45753833196E+02  0.00000000000E+00 0.  1.
<scales pt_clust_4="550.00000" pt_clust_5="550.00000" pt_clust_6="34.70113"></scales>
<mgrwt>
<rscale>  0 0.30000000E+03</rscale>
<asrwt>  1 0.34701125E+02</asrwt>
<pdfrwt beam="1">  1        1 0.86414341E+00 0.30000000E+03</pdfrwt>
<pdfrwt beam="2">0</pdfrwt>
<totfact> 0.29231322E-04</totfact>
</mgrwt>
<clustering>
<clus scale="   34.701">  1  6  2 -1</clus>
<clus scale="  460.722">  4  5 -1 -1</clus>
<clus scale="  300.000">  1  4  2 -1</clus>
</clustering>
</event>
<event>
 6    1  0.9131597E-012  0.3000000E+03  0.7818608E-02  0.1093470E+00
          1   -1    0    0  502    0  0.00000000000E+00  0.00000000000E+00  0.24816803158E+03  0.24816803158E+03  0.00000000000E+00 0.  1.
         13   -1    0    0    0    0 -0.00000000000E+00 -0.00000000000E+00 -0.27500000000E+03  0.27500000000E+03  0.00000000000E+00 0.  1.
    9000005    2    1    2  501    0  0.29511977253E+02 -0.32468191049E+02 -0.25043109089E+02  0.47925516047E+03  0.47658494656E+03 0.  0.
         13    1    3    3    0    0  0.56709966475E+02  0.18279792594E+03 -0.13673454383E+03  0.23521785115E+03  0.00000000000E+00 0.  1.
          3    1    3    3  501    0 -0.27197989221E+02 -0.21526611699E+03  0.11169143474E+03  0.24403730931E+03  0.00000000000E+00 0.  1.
         21    1    1    2  502  501 -0.29511977253E+02  0.32468191049E+02 -0.17888593354E+01  0.43912871110E+02  0.00000000000E+00 0.  1.
<scales pt_clust_4="550.00000" pt_clust_5="550.00000" pt_clust_6="43.87642"></scales>
<mgrwt>
<rscale>  0 0.30000000E+03</rscale>
<asrwt>  1 0.43876420E+02</asrwt>
<pdfrwt beam="1">  1        1 0.90242921E+00 0.30000000E+03</pdfrwt>
<pdfrwt beam="2">0</pdfrwt>
<totfact> 0.98135372E-05</totfact>
</mgrwt>
<clustering>
<clus scale="   43.876">  1  6  2 -1</clus>
<clus scale="  476.585">  4  5 -1 -1</clus>
<clus scale="  300.000">  1  4  2 -1</clus>
</clustering>
</event>
<event>
 6    1  0.9131597E-012  0.3000000E+03  0.7818608E-02  0.1093470E+00
          1   -1    0    0  502    0  0.00000000000E+00  0.00000000000E+00  0.21880304082E+03  0.21880304082E+03  0.00000000000E+00 0.  1.
         13   -1    0    0    0    0 -0.00000000000E+00 -0.00000000000E+00 -0.27500000000E+03  0.27500000000E+03  0.00000000000E+00 0.  1.
    9000005    2    1    2  501    0 -0.27646955202E+02  0.12643048557E+02 -0.65639850511E+02  0.46196958349E+03  0.45627086833E+03 0.  0.
         13    1    3    3    0    0  0.16264044257E+03  0.14617016744E+03  0.58875339152E+01  0.21875167306E+03  0.00000000000E+00 0.  1.
          1    1    3    3  501    0 -0.19028739778E+03 -0.13352711888E+03 -0.71527384426E+02  0.24321791043E+03  0.00000000000E+00 0.  1.
         21    1    1    2  502  501  0.27646955202E+02 -0.12643048557E+02  0.94428913267E+01  0.31833457327E+02  0.00000000000E+00 0. -1.
<scales pt_clust_4="550.00000" pt_clust_5="550.00000" pt_clust_6="30.40067"></scales>
<mgrwt>
<rscale>  0 0.30000000E+03</rscale>
<asrwt>  1 0.30400671E+02</asrwt>
<pdfrwt beam="1">  1        1 0.79564742E+00 0.30000000E+03</pdfrwt>
<pdfrwt beam="2">0</pdfrwt>
<totfact> 0.11458389E-03</totfact>
</mgrwt>
<clustering>
<clus scale="   30.401">  1  6  2 -1</clus>
<clus scale="  456.271">  4  5 -1 -1</clus>
<clus scale="  300.000">  1  4  2 -1</clus>
</clustering>
</event>
<event>
 6    1  0.9131597E-012  0.3000000E+03  0.7818608E-02  0.1093470E+00
          1   -1    0    0  502    0  0.00000000000E+00  0.00000000000E+00  0.24991776472E+03  0.24991776472E+03  0.00000000000E+00 0.  1.
         13   -1    0    0    0    0 -0.00000000000E+00 -0.00000000000E+00 -0.27500000000E+03  0.27500000000E+03  0.00000000000E+00 0.  1.
    9000005    2    1    2  501    0  0.23735770708E+01 -0.35732051951E+02 -0.74070825502E+02  0.46423584503E+03  0.45688731567E+03 0.  0.
         13    1    3    3    0    0  0.18625519345E+02  0.16748191812E+03  0.10018582897E+03  0.19604668626E+03  0.00000000000E+00 0.  1.
          3    1    3    3  501    0 -0.16251942274E+02 -0.20321397007E+03 -0.17425665447E+03  0.26818915878E+03  0.00000000000E+00 0.  1.
         21    1    1    2  502  501 -0.23735770708E+01  0.35732051951E+02  0.48988590221E+02  0.60681919685E+02  0.00000000000E+00 0.  1.
<scales pt_clust_4="550.00000" pt_clust_5="550.00000" pt_clust_6="35.81080"></scales>
<mgrwt>
<rscale>  0 0.30000000E+03</rscale>
<asrwt>  1 0.35810800E+02</asrwt>
<pdfrwt beam="1">  1        1 0.90879187E+00 0.30000000E+03</pdfrwt>
<pdfrwt beam="2">0</pdfrwt>
<totfact> 0.76462045E-05</totfact>
</mgrwt>
<clustering>
<clus scale="   35.811">  1  6  2 -1</clus>
<clus scale="  456.887">  4  5 -1 -1</clus>
<clus scale="  300.000">  1  4  2 -1</clus>
</clustering>
</event>
<event>
 6    1  0.9131597E-012  0.3000000E+03  0.7818608E-02  0.1093470E+00
          1   -1    0    0  502    0  0.00000000000E+00  0.00000000000E+00  0.22840374961E+03  0.22840374961E+03  0.00000000000E+00 0.  1.
         13   -1    0    0    0    0 -0.00000000000E+00 -0.00000000000E+00 -0.27500000000E+03  0.27500000000E+03  0.00000000000E+00 0.  1.
    9000005    2    1    2  501    0 -0.32173256214E+02  0.72101039111E+01 -0.60759182030E+02  0.46751931501E+03  0.46238028472E+03 0.  0.
         13    1    3    3    0    0 -0.10652821819E+03  0.21498074522E+03 -0.53140208933E+01  0.23998587647E+03  0.00000000000E+00 0.  1.
          3    1    3    3  501    0  0.74354961975E+02 -0.20777064131E+03 -0.55445161137E+02  0.22753343854E+03  0.00000000000E+00 0.  1.
         21    1    1    2  502  501  0.32173256214E+02 -0.72101039111E+01  0.14162931641E+02  0.35884434598E+02  0.00000000000E+00 0.  1.
<scales pt_clust_4="550.00000" pt_clust_5="550.00000" pt_clust_6="32.97126"></scales>
<mgrwt>
<rscale>  0 0.30000000E+03</rscale>
<asrwt>  1 0.32971260E+02</asrwt>
<pdfrwt beam="1">  1        1 0.83055909E+00 0.30000000E+03</pdfrwt>
<pdfrwt beam="2">0</pdfrwt>
<totfact> 0.59143141E-04</totfact>
</mgrwt>
<clustering>
<clus scale="   32.971">  1  6  2 -1</clus>
<clus scale="  462.380">  4  5 -1 -1</clus>
<clus scale="  300.000">  1  4  2 -1</clus>
</clustering>
</event>
<event>
 6    1  0.9131597E-012  0.3000000E+03  0.7818608E-02  0.1093470E+00
          1   -1    0    0  502    0  0.00000000000E+00  0.00000000000E+00  0.22789794770E+03  0.22789794770E+03  0.00000000000E+00 0.  1.
         13   -1    0    0    0    0 -0.00000000000E+00 -0.00000000000E+00 -0.27500000000E+03  0.27500000000E+03  0.00000000000E+00 0.  1.
    9000005    2    1    2  501    0  0.16530512890E+02 -0.30224514274E+02 -0.66343652628E+02  0.46343887646E+03  0.45737001744E+03 0.  0.
         13    1    3    3    0    0 -0.83424095446E+02  0.18938762765E+03 -0.79739199715E+02  0.22177825226E+03  0.00000000000E+00 0.  1.
          3    1    3    3  501    0  0.99954608336E+02 -0.21961214192E+03  0.13395547087E+02  0.24166062420E+03  0.00000000000E+00 0.  1.
         21    1    1    2  502  501 -0.16530512890E+02  0.30224514274E+02  0.19241600323E+02  0.39459071232E+02  0.00000000000E+00 0.  1.
<scales pt_clust_4="550.00000" pt_clust_5="550.00000" pt_clust_6="34.44966"></scales>
<mgrwt>
<rscale>  0 0.30000000E+03</rscale>
<asrwt>  1 0.34449661E+02</asrwt>
<pdfrwt beam="1">  1        1 0.82871981E+00 0.30000000E+03</pdfrwt>
<pdfrwt beam="2">0</pdfrwt>
<totfact> 0.60764557E-04</totfact>
</mgrwt>
<clustering>
<clus scale="   34.450">  1  6  2 -1</clus>
<clus scale="  457.370">  4  5 -1 -1</clus>
<clus scale="  300.000">  1  4  2 -1</clus>
</clustering>
</event>
<event>
 6    1  0.9131597E-012  0.3000000E+03  0.7818608E-02  0.1093470E+00
          1   -1    0    0  502    0  0.00000000000E+00  0.00000000000E+00  0.25201982198E+03  0.25201982198E+03  0.00000000000E+00 0.  1.
         13   -1    0    0    0    0 -0.00000000000E+00 -0.00000000000E+00 -0.27500000000E+03  0.27500000000E+03  0.00000000000E+00 0.  1.
    9000005    2    1    2  501    0  0.26136842761E+02  0.17378502951E+02 -0.67029535849E+02  0.47293199674E+03  0.46710445079E+03 0.  0.
         13    1    3    3    0    0  0.14099490554E+01  0.72107615682E+02 -0.26052889747E+03  0.27032721397E+03  0.00000000000E+00 0.  1.
          1    1    3    3  501    0  0.24726893705E+02 -0.54729112731E+02  0.19349936162E+03  0.20260478277E+03  0.00000000000E+00 0.  1.
         21    1    1    2  502  501 -0.26136842761E+02 -0.17378502951E+02  0.44049357832E+02  0.54087825245E+02  0.00000000000E+00 0. -1.
<scales pt_clust_4="550.00000" pt_clust_5="550.00000" pt_clust_6="31.38705"></scales>
<mgrwt>
<rscale>  0 0.30000000E+03</rscale>
<asrwt>  1 0.31387050E+02</asrwt>
<pdfrwt beam="1">  1        1 0.91643572E+00 0.30000000E+03</pdfrwt>
<pdfrwt beam="2">0</pdfrwt>
<totfact> 0.51221622E-05</totfact>
</mgrwt>
<clustering>
<clus scale="   31.387">  1  6  2 -1</clus>
<clus scale="  467.104">  4  5 -1 -1</clus>
<clus scale="  300.000">  1  4  2 -1</clus>
</clustering>
</event>
<event>
 6    1  0.9131597E-012  0.3000000E+03  0.7818608E-02  0.1093470E+00
          1   -1    0    0  502    0  0.00000000000E+00  0.00000000000E+00  0.23456895658E+03  0.23456895658E+03  0.00000000000E+00 0.  1.
         13   -1    0    0    0    0 -0.00000000000E+00 -0.00000000000E+00 -0.27500000000E+03  0.27500000000E+03  0.00000000000E+00 0.  1.
    9000005    2    1    2  501    0 -0.15375160708E+02  0.26993911249E+02 -0.60932285108E+02  0.47234842835E+03  0.46737054633E+03 0.  0.
         13    1    3    3    0    0 -0.22441628456E+03 -0.57221821771E+02 -0.82729822424E+02  0.24592931745E+03  0.00000000000E+00 0.  1.
          1    1    3    3  501    0  0.20904112385E+03  0.84215733021E+02  0.21797537316E+02  0.22641911090E+03  0.00000000000E+00 0.  1.
         21    1    1    2  502  501  0.15375160708E+02 -0.26993911249E+02  0.20501241689E+02  0.37220528236E+02  0.00000000000E+00 0. -1.
<scales pt_clust_4="550.00000" pt_clust_5="550.00000" pt_clust_6="31.06552"></scales>
<mgrwt>
<rscale>  0 0.30000000E+03</rscale>
<asrwt>  1 0.31065524E+02</asrwt>
<pdfrwt beam="1">  1        1 0.85297802E+00 0.30000000E+03</pdfrwt>
<pdfrwt beam="2">0</pdfrwt>
<totfact> 0.38994968E-04</totfact>
</mgrwt>
<clustering>
<clus scale="   31.066">  1  6  2 -1</clus>
<clus scale="  467.371">  4  5 -1 -1</clus>
<clus scale="  300.000">  1  4  2 -1</clus>
</clustering>
</event>
<event>
 6    1  0.9131597E-012  0.3000000E+03  0.7818608E-02  0.1093470E+00
          1   -1    0    0  502    0  0.00000000000E+00  0.00000000000E+00  0.23168621397E+03  0.23168621397E+03  0.00000000000E+00 0.  1.
         13   -1    0    0    0    0 -0.00000000000E+00 -0.00000000000E+00 -0.27500000000E+03  0.27500000000E+03  0.00000000000E+00 0.  1.
    9000005    2    1    2  501    0  0.30186182947E+02  0.16983128809E+02 -0.50240977316E+02  0.47136457352E+03  0.46739787448E+03 0.  0.
         13    1    3    3    0    0 -0.10835038178E+03  0.73292180197E+02  0.16419617648E+03  0.20993316385E+03  0.00000000000E+00 0.  1.
          1    1    3    3  501    0  0.13853656473E+03 -0.56309051388E+02 -0.21443715380E+03  0.26143140968E+03  0.00000000000E+00 0.  1.
         21    1    1    2  502  501 -0.30186182947E+02 -0.16983128809E+02  0.69271912891E+01  0.35321640452E+02  0.00000000000E+00 0. -1.
<scales pt_clust_4="550.00000" pt_clust_5="550.00000" pt_clust_6="34.63571"></scales>
<mgrwt>
<rscale>  0 0.30000000E+03</rscale>
<asrwt>  1 0.34635709E+02</asrwt>
<pdfrwt beam="1">  1        1 0.84249532E+00 0.30000000E+03</pdfrwt>
<pdfrwt beam="2">0</pdfrwt>
<totfact> 0.47557943E-04</totfact>
</mgrwt>
<clustering>
<clus scale="   34.636">  1  6  2 -1</clus>
<clus scale="  467.398">  4  5 -1 -1</clus>
<clus scale="  300.000">  1  4  2 -1</clus>
</clustering>
</event>
<event>
 6    1  0.9131597E-012  0.3000000E+03  0.7818608E-02  0.1093470E+00
          1   -1    0    0  502    0  0.00000000000E+00  0.00000000000E+00  0.24500947040E+03  0.24500947040E+03  0.00000000000E+00 0.  1.
         13   -1    0    0    0    0 -0.00000000000E+00 -0.00000000000E+00 -0.27500000000E+03  0.27500000000E+03  0.00000000000E+00 0.  1.
    9000005    2    1    2  501    0 -0.13314126942E+02  0.27756417519E+02 -0.70736620384E+02  0.46894158809E+03  0.46255254716E+03 0.  0.
         13    1    3    3    0    0  0.12575315673E+03 -0.97042293533E+02  0.12215878478E+03  0.20038421061E+03  0.00000000000E+00 0.  1.
          3    1    3    3  501    0 -0.13906728367E+03  0.12479871105E+03 -0.19289540516E+03  0.26855737748E+03  0.00000000000E+00 0.  1.
         21    1    1    2  502  501  0.13314126942E+02 -0.27756417519E+02  0.40746090785E+02  0.51067882313E+02  0.00000000000E+00 0.  1.
<scales pt_clust_4="550.00000" pt_clust_5="550.00000" pt_clust_6="30.78449"></scales>
<mgrwt>
<rscale>  0 0.30000000E+03</rscale>
<asrwt>  1 0.30784488E+02</asrwt>
<pdfrwt beam="1">  1        1 0.89094353E+00 0.30000000E+03</pdfrwt>
<pdfrwt beam="2">0</pdfrwt>
<totfact> 0.14435089E-04</totfact>
</mgrwt>
<clustering>
<clus scale="   30.784">  1  6  2 -1</clus>
<clus scale="  462.553">  4  5 -1 -1</clus>
<clus scale="  300.000">  1  4  2 -1</clus>
</clustering>
</event>
<event>
 6    1  0.9131597E-012  0.3000000E+03  0.7818608E-02  0.1093470E+00
          1   -1    0    0  502    0  0.00000000000E+00  0.00000000000E+00  0.23626314229E+03  0.23626314229E+03  0.00000000000E+00 0.  1.
         13   -1    0    0    0    0 -0.00000000000E+00 -0.00000000000E+00 -0.27500000000E+03  0.27500000000E+03  0.00000000000E+00 0.  1.
    9000005    2    1    2  501    0 -0.31407679092E+02 -0.26567464913E+02 -0.39030676782E+02  0.47012485322E+03  0.46669230912E+03 0.  0.
         13    1    3    3    0    0 -0.21216301621E+03  0.10703313574E+03 -0.57835755018E+02  0.24456944239E+03  0.00000000000E+00 0.  1.
          3    1    3    3  501    0  0.18075533712E+03 -0.13360060065E+03  0.18805078237E+02  0.22555541084E+03  0.00000000000E+00 0.  1.
         21    1    1    2  502  501  0.31407679092E+02  0.26567464913E+02  0.29381907392E+00  0.41138289069E+02  0.00000000000E+00 0. -1.
<scales pt_clust_4="550.00000" pt_clust_5="550.00000" pt_clust_6="41.13724"></scales>
<mgrwt>
<rscale>  0 0.30000000E+03</rscale>
<asrwt>  1 0.41137240E+02</asrwt>
<pdfrwt beam="1">  1        1 0.85913870E+00 0.30000000E+03</pdfrwt>
<pdfrwt beam="2">0</pdfrwt>
<totfact> 0.32066152E-04</totfact>
</mgrwt>
<clustering>
<clus scale="   41.137">  1  6  2 -1</clus>
<clus scale="  466.692">  4  5 -1 -1</clus>
<clus scale="  300.000">  1  4  2 -1</clus>
</clustering>
</event>
<event>
 6    1  0.9131597E-012  0.3000000E+03  0.7818608E-02  0.1093470E+00
          1   -1    0    0  502    0  0.00000000000E+00  0.00000000000E+00  0.22855593277E+03  0.22855593277E+03  0.00000000000E+00 0.  1.
         13   -1    0    0    0    0 -0.00000000000E+00 -0.00000000000E+00 -0.27500000000E+03  0.27500000000E+03  0.00000000000E+00 0.  1.
    9000005    2    1    2  501    0  0.25049488548E+02  0.19928674074E+02 -0.59961338090E+02  0.46880905466E+03  0.46385551494E+03 0.  0.
         13    1    3    3    0    0  0.71611385618E+02 -0.27676480767E+02 -0.25311335049E+03  0.26450056017E+03  0.00000000000E+00 0.  1.
          3    1    3    3  501    0 -0.46561897069E+02  0.47605154841E+02  0.19315201240E+03  0.20430849448E+03  0.00000000000E+00 0.  1.
         21    1    1    2  502  501 -0.25049488548E+02 -0.19928674074E+02  0.13517270857E+02  0.34746878108E+02  0.00000000000E+00 0.  1.
<scales pt_clust_4="550.00000" pt_clust_5="550.00000" pt_clust_6="32.00983"></scales>
<mgrwt>
<rscale>  0 0.30000000E+03</rscale>
<asrwt>  1 0.32009825E+02</asrwt>
<pdfrwt beam="1">  1        1 0.83111248E+00 0.30000000E+03</pdfrwt>
<pdfrwt beam="2">0</pdfrwt>
<totfact> 0.58871513E-04</totfact>
</mgrwt>
<clustering>
<clus scale="   32.010">  1  6  2 -1</clus>
<clus scale="  463.856">  4  5 -1 -1</clus>
<clus scale="  300.000">  1  4  2 -1</clus>
</clustering>
</event>
<event>
 6    1  0.9131597E-012  0.3000000E+03  0.7818608E-02  0.1093470E+00
          1   -1    0    0  502    0  0.00000000000E+00  0.00000000000E+00  0.25556037154E+03  0.25556037154E+03  0.00000000000E+00 0.  1.
         13   -1    0    0    0    0 -0.00000000000E+00 -0.00000000000E+00 -0.27500000000E+03  0.27500000000E+03  0.00000000000E+00 0.  1.
    9000005    2    1    2  501    0  0.35667869503E+02 -0.16973033329E+02 -0.26148501310E+02  0.49049430422E+03  0.48820143135E+03 0.  0.
         13    1    3    3    0    0  0.15603212252E+03  0.71950255421E+02 -0.19830425116E+03  0.26238795426E+03  0.00000000000E+00 0.  1.
          3    1    3    3  501    0 -0.12036425301E+03 -0.88923288750E+02  0.17215574985E+03  0.22810634996E+03  0.00000000000E+00 0.  1.
         21    1    1    2  502  501 -0.35667869503E+02  0.16973033329E+02  0.67088728464E+01  0.40066067316E+02  0.00000000000E+00 0. -1.
<scales pt_clust_4="550.00000" pt_clust_5="550.00000" pt_clust_6="39.50039"></scales>
<mgrwt>
<rscale>  0 0.30000000E+03</rscale>
<asrwt>  1 0.39500390E+02</asrwt>
<pdfrwt beam="1">  1        1 0.92931044E+00 0.30000000E+03</pdfrwt>
<pdfrwt beam="2">0</pdfrwt>
<totfact> 0.26389938E-05</totfact>
</mgrwt>
<clustering>
<clus scale="   39.500">  1  6  2 -1</clus>
<clus scale="  488.201">  4  5 -1 -1</clus>
<clus scale="  300.000">  1  4  2 -1</clus>
</clustering>
</event>
<event>
 6    1  0.9131597E-012  0.3000000E+03  0.7818608E-02  0.1093470E+00
          1   -1    0    0  502    0  0.00000000000E+00  0.00000000000E+00  0.24887230774E+03  0.24887230774E+03  0.00000000000E+00 0.  1.
         13   -1    0    0    0    0 -0.00000000000E+00 -0.00000000000E+00 -0.27500000000E+03  0.27500000000E+03  0.00000000000E+00 0.  1.
    9000005    2    1    2  501    0  0.67002150934E+01 -0.30780000867E+02 -0.52158394725E+02  0.48300791240E+03  0.47914908323E+03 0.  0.
         13    1    3    3    0    0  0.17207294356E+03 -0.39707354333E+02  0.14286833106E+03  0.22715002072E+03  0.00000000000E+00 0.  1.
          1    1    3    3  501    0 -0.16537272847E+03  0.89273534662E+01 -0.19502672579E+03  0.25585789168E+03  0.00000000000E+00 0.  1.
         21    1    1    2  502  501 -0.67002150934E+01  0.30780000867E+02  0.26030702462E+02  0.40864395338E+02  0.00000000000E+00 0. -1.
<scales pt_clust_4="550.00000" pt_clust_5="550.00000" pt_clust_6="31.50081"></scales>
<mgrwt>
<rscale>  0 0.30000000E+03</rscale>
<asrwt>  1 0.31500815E+02</asrwt>
<pdfrwt beam="1">  1        1 0.90499021E+00 0.30000000E+03</pdfrwt>
<pdfrwt beam="2">0</pdfrwt>
<totfact> 0.94363066E-05</totfact>
</mgrwt>
<clustering>
<clus scale="   31.501">  1  6  2 -1</clus>
<clus scale="  479.149">  4  5 -1 -1</clus>
<clus scale="  300.000">  1  4  2 -1</clus>
</clustering>
</event>
<event>
 6    1  0.9131597E-012  0.3000000E+03  0.7818608E-02  0.1093470E+00
          1   -1    0    0  502    0  0.00000000000E+00  0.00000000000E+00  0.23920778815E+03  0.23920778815E+03  0.00000000000E+00 0.  1.
         13   -1    0    0    0    0 -0.00000000000E+00 -0.00000000000E+00 -0.27500000000E+03  0.27500000000E+03  0.00000000000E+00 0.  1.
    9000005    2    1    2  501    0  0.43658297955E+02  0.15219187490E+02 -0.12448887925E+02  0.46241414549E+03  0.45992846889E+03 0.  0.
         13    1    3    3    0    0 -0.17117883327E+03  0.10956557791E+03  0.68078671022E+02  0.21433971697E+03  0.00000000000E+00 0.  1.
          1    1    3    3  501    0  0.21483713122E+03 -0.94346390420E+02 -0.80527558947E+02  0.24807442852E+03  0.00000000000E+00 0.  1.
         21    1    1    2  502  501 -0.43658297955E+02 -0.15219187490E+02 -0.23343323924E+02  0.51793642660E+02  0.00000000000E+00 0. -1.
<scales pt_clust_4="550.00000" pt_clust_5="550.00000" pt_clust_6="46.23497"></scales>
<mgrwt>
<rscale>  0 0.30000000E+03</rscale>
<asrwt>  1 0.46234974E+02</asrwt>
<pdfrwt beam="1">  1        1 0.86984650E+00 0.30000000E+03</pdfrwt>
<pdfrwt beam="2">0</pdfrwt>
<totfact> 0.24158829E-04</totfact>
</mgrwt>
<clustering>
<clus scale="   46.235">  1  6  2 -1</clus>
<clus scale="  459.928">  4  5 -1 -1</clus>
<clus scale="  300.000">  1  4  2 -1</clus>
</clustering>
</event>
<event>
 6    1  0.9131597E-012  0.3000000E+03  0.7818608E-02  0.1093470E+00
          1   -1    0    0  502    0  0.00000000000E+00  0.00000000000E+00  0.23503151931E+03  0.23503151931E+03  0.00000000000E+00 0.  1.
         13   -1    0    0    0    0 -0.00000000000E+00 -0.00000000000E+00 -0.27500000000E+03  0.27500000000E+03  0.00000000000E+00 0.  1.
    9000005    2    1    2  501    0  0.11309484923E+01  0.32863147167E+02 -0.99820560762E+01  0.46552925928E+03  0.46425917795E+03 0.  0.
         13    1    3    3    0    0  0.13408278720E+03 -0.16162711062E+03  0.62386986444E+02  0.21907453706E+03  0.00000000000E+00 0.  1.
          1    1    3    3  501    0 -0.13295183871E+03  0.19449025778E+03 -0.72369042520E+02  0.24645472222E+03  0.00000000000E+00 0.  1.
         21    1    1    2  502  501 -0.11309484923E+01 -0.32863147167E+02 -0.29986424618E+02  0.44502260027E+02  0.00000000000E+00 0. -1.
<scales pt_clust_4="550.00000" pt_clust_5="550.00000" pt_clust_6="32.88262"></scales>
<mgrwt>
<rscale>  0 0.30000000E+03</rscale>
<asrwt>  1 0.32882618E+02</asrwt>
<pdfrwt beam="1">  1        1 0.85466007E+00 0.30000000E+03</pdfrwt>
<pdfrwt beam="2">0</pdfrwt>
<totfact> 0.37150080E-04</totfact>
</mgrwt>
<clustering>
<clus scale="   32.883">  1  6  2 -1</clus>
<clus scale="  464.259">  4  5 -1 -1</clus>
<clus scale="  300.000">  1  4  2 -1</clus>
</clustering>
</event>
<event>
 6    1  0.9131597E-012  0.3000000E+03  0.7818608E-02  0.1093470E+00
          1   -1    0    0  502    0  0.00000000000E+00  0.00000000000E+00  0.21701281444E+03  0.21701281444E+03  0.00000000000E+00 0.  1.
         13   -1    0    0    0    0 -0.00000000000E+00 -0.00000000000E+00 -0.27500000000E+03  0.27500000000E+03  0.00000000000E+00 0.  1.
    9000005    2    1    2  501    0  0.13008380166E+02 -0.27830198611E+02 -0.56566432321E+02  0.46125966096E+03  0.45674607350E+03 0.  0.
         13    1    3    3    0    0 -0.20877149813E+03 -0.15465872037E+02 -0.10456969163E+03  0.23400758970E+03  0.00000000000E+00 0.  1.
          1    1    3    3  501    0  0.22177987830E+03 -0.12364326574E+02  0.48003259309E+02  0.22725207126E+03  0.00000000000E+00 0.  1.
         21    1    1    2  502  501 -0.13008380166E+02  0.27830198611E+02 -0.14207532355E+01  0.30753153481E+02  0.00000000000E+00 0.  1.
<scales pt_clust_4="550.00000" pt_clust_5="550.00000" pt_clust_6="30.72032"></scales>
<mgrwt>
<rscale>  0 0.30000000E+03</rscale>
<asrwt>  1 0.30720318E+02</asrwt>
<pdfrwt beam="1">  1        1 0.78913751E+00 0.30000000E+03</pdfrwt>
<pdfrwt beam="2">0</pdfrwt>
<totfact> 0.12841188E-03</totfact>
</mgrwt>
<clustering>
<clus scale="   30.720">  1  6  2 -1</clus>
<clus scale="  456.746">  4  5 -1 -1</clus>
<clus scale="  300.000">  1  4  2 -1</clus>
</clustering>
</event>
<event>
 6    1  0.9131597E-012  0.3000000E+03  0.7818608E-02  0.1093470E+00
          1   -1    0    0  502    0  0.00000000000E+00  0.00000000000E+00  0.23352503789E+03  0.23352503789E+03  0.00000000000E+00 0.  1.
         13   -1    0    0    0    0 -0.00000000000E+00 -0.00000000000E+00 -0.27500000000E+03  0.27500000000E+03  0.00000000000E+00 0.  1.
    9000005    2    1    2  501    0 -0.11602196909E+02  0.28165507082E+02 -0.62320034890E+02  0.47161401215E+03  0.46648481534E+03 0.  0.
         13    1    3    3    0    0 -0.13958533466E+02 -0.12395209630E+03  0.15959479830E+03  0.20255730665E+03  0.00000000000E+00 0.  1.
          1    1    3    3  501    0  0.23563365570E+01  0.15211760338E+03 -0.22191483319E+03  0.26905670549E+03  0.00000000000E+00 0.  1.
         21    1    1    2  502  501  0.11602196909E+02 -0.28165507082E+02  0.20845072780E+02  0.36911025744E+02  0.00000000000E+00 0.  1.
<scales pt_clust_4="550.00000" pt_clust_5="550.00000" pt_clust_6="30.46156"></scales>
<mgrwt>
<rscale>  0 0.30000000E+03</rscale>
<asrwt>  1 0.30461562E+02</asrwt>
<pdfrwt beam="1">  1        1 0.84918196E+00 0.30000000E+03</pdfrwt>
<pdfrwt beam="2">0</pdfrwt>
<totfact> 0.42525445E-04</totfact>
</mgrwt>
<clustering>
<clus scale="   30.462">  1  6  2 -1</clus>
<clus scale="  466.485">  4  5 -1 -1</clus>
<clus scale="  300.000">  1  4  2 -1</clus>
</clustering>
</event>
<event>
 6    1  0.9131597E-012  0.3000000E+03  0.7818608E-02  0.1093470E+00
          1   -1    0    0  502    0  0.00000000000E+00  0.00000000000E+00  0.25942212741E+03  0.25942212741E+03  0.00000000000E+00 0.  1.
         13   -1    0    0    0    0 -0.00000000000E+00 -0.00000000000E+00 -0.27500000000E+03  0.27500000000E+03  0.00000000000E+00 0.  1.
    9000005    2    1    2  501    0  0.35925926394E+01  0.37778733848E+02 -0.62286213809E+02  0.47424066355E+03  0.46859843692E+03 0.  0.
         13    1    3    3    0    0 -0.14011834519E+03 -0.13788410196E+03 -0.13203183715E+03  0.23680705702E+03  0.00000000000E+00 0.  1.
          3    1    3    3  501    0  0.14371093783E+03  0.17566283581E+03  0.69745623343E+02  0.23743360653E+03  0.00000000000E+00 0.  1.
         21    1    1    2  502  501 -0.35925926394E+01 -0.37778733848E+02  0.46708341221E+02  0.60181463862E+02  0.00000000000E+00 0. -1.
<scales pt_clust_4="550.00000" pt_clust_5="550.00000" pt_clust_6="37.94917"></scales>
<mgrwt>
<rscale>  0 0.30000000E+03</rscale>
<asrwt>  1 0.37949169E+02</asrwt>
<pdfrwt beam="1">  1        1 0.94335319E+00 0.30000000E+03</pdfrwt>
<pdfrwt beam="2">0</pdfrwt>
<totfact> 0.16456634E-05</totfact>
</mgrwt>
<clustering>
<clus scale="   37.949">  1  6  2 -1</clus>
<clus scale="  468.598">  4  5 -1 -1</clus>
<clus scale="  300.000">  1  4  2 -1</clus>
</clustering>
</event>
<event>
 6    1  0.9131597E-012  0.3000000E+03  0.7818608E-02  0.1093470E+00
          1   -1    0    0  502    0  0.00000000000E+00  0.00000000000E+00  0.23271107530E+03  0.23271107530E+03  0.00000000000E+00 0.  1.
         13   -1    0    0    0    0 -0.00000000000E+00 -0.00000000000E+00 -0.27500000000E+03  0.27500000000E+03  0.00000000000E+00 0.  1.
    9000005    2    1    2  501    0 -0.16083040741E+02 -0.26432768143E+02 -0.41635975607E+02  0.47676302571E+03  0.47393256144E+03 0.  0.
         13    1    3    3    0    0 -0.19466654121E+03  0.10725119394E+03 -0.10363460110E+03  0.24523052708E+03  0.00000000000E+00 0.  1.
          3    1    3    3  501    0  0.17858350047E+03 -0.13368396208E+03  0.61998625497E+02  0.23153249863E+03  0.00000000000E+00 0.  1.
         21    1    1    2  502  501  0.16083040741E+02  0.26432768143E+02 -0.65294908910E+00  0.30948049594E+02  0.00000000000E+00 0.  1.
<scales pt_clust_4="550.00000" pt_clust_5="550.00000" pt_clust_6="30.94116"></scales>
<mgrwt>
<rscale>  0 0.30000000E+03</rscale>
<asrwt>  1 0.30941161E+02</asrwt>
<pdfrwt beam="1">  1        1 0.84622209E+00 0.30000000E+03</pdfrwt>
<pdfrwt beam="2">0</pdfrwt>
<totfact> 0.45113922E-04</totfact>
</mgrwt>
<clustering>
<clus scale="   30.941">  1  6  2 -1</clus>
<clus scale="  473.933">  4  5 -1 -1</clus>
<clus scale="  300.000">  1  4  2 -1</clus>
</clustering>
</event>
<event>
 6    1  0.9131597E-012  0.3000000E+03  0.7818608E-02  0.1093470E+00
          1   -1    0    0  502    0  0.00000000000E+00  0.00000000000E+00  0.24074518357E+03  0.24074518357E+03  0.00000000000E+00 0.  1.
         13   -1    0    0    0    0 -0.00000000000E+00 -0.00000000000E+00 -0.27500000000E+03  0.27500000000E+03  0.00000000000E+00 0.  1.
    9000005    2    1    2  501    0 -0.37280500967E+02 -0.45279680847E+01 -0.58074088768E+02  0.47127388966E+03  0.46617179349E+03 0.  0.
         13    1    3    3    0    0 -0.19663826013E+03 -0.17773549885E+02 -0.18234132160E+03  0.26875799893E+03  0.00000000000E+00 0.  1.
          3    1    3    3  501    0  0.15935775917E+03  0.13245581800E+02  0.12426723283E+03  0.20251589073E+03  0.00000000000E+00 0.  1.
         21    1    1    2  502  501  0.37280500967E+02  0.45279680847E+01  0.23819272342E+02  0.44471293913E+02  0.00000000000E+00 0.  1.
<scales pt_clust_4="550.00000" pt_clust_5="550.00000" pt_clust_6="37.55447"></scales>
<mgrwt>
<rscale>  0 0.30000000E+03</rscale>
<asrwt>  1 0.37554470E+02</asrwt>
<pdfrwt beam="1">  1        1 0.87543703E+00 0.30000000E+03</pdfrwt>
<pdfrwt beam="2">0</pdfrwt>
<totfact> 0.21964028E-04</totfact>
</mgrwt>
<clustering>
<clus scale="   37.554">  1  6  2 -1</clus>
<clus scale="  466.172">  4  5 -1 -1</clus>
<clus scale="  300.000">  1  4  2 -1</clus>
</clustering>
</event>
<event>
 6    1  0.9131597E-012  0.3000000E+03  0.7818608E-02  0.1093470E+00
          1   -1    0    0  502    0  0.00000000000E+00  0.00000000000E+00  0.23731622517E+03  0.23731622517E+03  0.00000000000E+00 0.  1.
         13   -1    0    0    0    0 -0.00000000000E+00 -0.00000000000E+00 -0.27500000000E+03  0.27500000000E+03  0.00000000000E+00 0.  1.
    9000005    2    1    2  501    0  0.89634998243E+00  0.38344737547E+02 -0.33865522558E+02  0.47377142797E+03  0.47100039278E+03 0.  0.
         13    1    3    3    0    0 -0.85389852488E+02 -0.16189907752E+03 -0.14079104989E+03  0.23092175718E+03  0.00000000000E+00 0.  1.
          3    1    3    3  501    0  0.86286202471E+02  0.20024381507E+03  0.10692552733E+03  0.24284967079E+03  0.00000000000E+00 0.  1.
         21    1    1    2  502  501 -0.89634998243E+00 -0.38344737547E+02 -0.38182522736E+01  0.38544797201E+02  0.00000000000E+00 0.  1.
<scales pt_clust_4="550.00000" pt_clust_5="550.00000" pt_clust_6="38.35523"></scales>
<mgrwt>
<rscale>  0 0.30000000E+03</rscale>
<asrwt>  1 0.38355232E+02</asrwt>
<pdfrwt beam="1">  1        1 0.86296809E+00 0.30000000E+03</pdfrwt>
<pdfrwt beam="2">0</pdfrwt>
<totfact> 0.29545493E-04</totfact>
</mgrwt>
<clustering>
<clus scale="   38.355">  1  6  2 -1</clus>
<clus scale="  471.000">  4  5 -1 -1</clus>
<clus scale="  300.000">  1  4  2 -1</clus>
</clustering>
</event>
<event>
 6    1  0.9131597E-012  0.3000000E+03  0.7818608E-02  0.1093470E+00
          1   -1    0    0  502    0  0.00000000000E+00  0.00000000000E+00  0.22276582487E+03  0.22276582487E+03  0.00000000000E+00 0.  1.
         13   -1    0    0    0    0 -0.00000000000E+00 -0.00000000000E+00 -0.27500000000E+03  0.27500000000E+03  0.00000000000E+00 0.  1.
    9000005    2    1    2  501    0 -0.32070420596E+02 -0.13902026204E+02 -0.45997665354E+02  0.46225987799E+03  0.45863561939E+03 0.  0.
         13    1    3    3    0    0 -0.21609946612E+03  0.18949931087E+02  0.86066045824E+02  0.23337832674E+03  0.00000000000E+00 0.  1.
          1    1    3    3  501    0  0.18402904553E+03 -0.32851957291E+02 -0.13206371118E+03  0.22888155125E+03  0.00000000000E+00 0.  1.
         21    1    1    2  502  501  0.32070420596E+02  0.13902026204E+02 -0.62365097739E+01  0.35505946881E+02  0.00000000000E+00 0.  1.
<scales pt_clust_4="550.00000" pt_clust_5="550.00000" pt_clust_6="34.95396"></scales>
<mgrwt>
<rscale>  0 0.30000000E+03</rscale>
<asrwt>  1 0.34953962E+02</asrwt>
<pdfrwt beam="1">  1        1 0.81005754E+00 0.30000000E+03</pdfrwt>
<pdfrwt beam="2">0</pdfrwt>
<totfact> 0.87146067E-04</totfact>
</mgrwt>
<clustering>
<clus scale="   34.954">  1  6  2 -1</clus>
<clus scale="  458.636">  4  5 -1 -1</clus>
<clus scale="  300.000">  1  4  2 -1</clus>
</clustering>
</event>
<event>
 6    1  0.9131597E-012  0.3000000E+03  0.7818608E-02  0.1093470E+00
          1   -1    0    0  502    0  0.00000000000E+00  0.00000000000E+00  0.24999874885E+03  0.24999874885E+03  0.00000000000E+00 0.  1.
         13   -1    0    0    0    0 -0.00000000000E+00 -0.00000000000E+00 -0.27500000000E+03  0.27500000000E+03  0.00000000000E+00 0.  1.
    9000005    2    1    2  501    0 -0.14612825017E+02  0.26579139162E+02 -0.72809930757E+02  0.46838024358E+03  0.46169121852E+03 0.  0.
         13    1    3    3    0    0 -0.37818148672E+02 -0.19259226168E+03  0.66986664921E+02  0.20738660734E+03  0.00000000000E+00 0.  1.
          3    1    3    3  501    0  0.23205323655E+02  0.21917140084E+03 -0.13979659568E+03  0.26099363624E+03  0.00000000000E+00 0.  1.
         21    1    1    2  502  501  0.14612825017E+02 -0.26579139162E+02  0.47808679603E+02  0.56618505270E+02  0.00000000000E+00 0.  1.
<scales pt_clust_4="550.00000" pt_clust_5="550.00000" pt_clust_6="30.33126"></scales>
<mgrwt>
<rscale>  0 0.30000000E+03</rscale>
<asrwt>  1 0.30331259E+02</asrwt>
<pdfrwt beam="1">  1        1 0.90908636E+00 0.30000000E+03</pdfrwt>
<pdfrwt beam="2">0</pdfrwt>
<totfact> 0.77655511E-05</totfact>
</mgrwt>
<clustering>
<clus scale="   30.331">  1  6  2 -1</clus>
<clus scale="  461.691">  4  5 -1 -1</clus>
<clus scale="  300.000">  1  4  2 -1</clus>
</clustering>
</event>
<event>
 6    1  0.9131597E-012  0.3000000E+03  0.7818608E-02  0.1093470E+00
          1   -1    0    0  502    0  0.00000000000E+00  0.00000000000E+00  0.22272070976E+03  0.22272070976E+03  0.00000000000E+00 0.  1.
         13   -1    0    0    0    0 -0.00000000000E+00 -0.00000000000E+00 -0.27500000000E+03  0.27500000000E+03  0.00000000000E+00 0.  1.
    9000005    2    1    2  501    0  0.32923829368E+02  0.56171789419E+01 -0.60750840797E+02  0.46326351300E+03  0.45804681702E+03 0.  0.
         13    1    3    3    0    0  0.45972184563E+02 -0.22220182203E+03  0.82527081623E+00  0.22690917245E+03  0.00000000000E+00 0.  1.
          1    1    3    3  501    0 -0.13048355195E+02  0.22781900097E+03 -0.61576111613E+02  0.23635434056E+03  0.00000000000E+00 0.  1.
         21    1    1    2  502  501 -0.32923829368E+02 -0.56171789419E+01  0.84715505565E+01  0.34457196757E+02  0.00000000000E+00 0. -1.
<scales pt_clust_4="550.00000" pt_clust_5="550.00000" pt_clust_6="33.39957"></scales>
<mgrwt>
<rscale>  0 0.30000000E+03</rscale>
<asrwt>  1 0.33399569E+02</asrwt>
<pdfrwt beam="1">  1        1 0.80989349E+00 0.30000000E+03</pdfrwt>
<pdfrwt beam="2">0</pdfrwt>
<totfact> 0.88153135E-04</totfact>
</mgrwt>
<clustering>
<clus scale="   33.400">  1  6  2 -1</clus>
<clus scale="  458.047">  4  5 -1 -1</clus>
<clus scale="  300.000">  1  4  2 -1</clus>
</clustering>
</event>
<event>
 6    1  0.9131597E-012  0.3000000E+03  0.7818608E-02  0.1093470E+00
          1   -1    0    0  502    0  0.00000000000E+00  0.00000000000E+00  0.23070895483E+03  0.23070895483E+03  0.00000000000E+00 0.  1.
         13   -1    0    0    0    0 -0.00000000000E+00 -0.00000000000E+00 -0.27500000000E+03  0.27500000000E+03  0.00000000000E+00 0.  1.
    9000005    2    1    2  501    0 -0.20859453570E+02 -0.22164880066E+02 -0.31638235461E+02  0.47274697210E+03  0.47070407155E+03 0.  0.
         13    1    3    3    0    0 -0.14619035381E+03  0.30001791059E+01 -0.20841521922E+03  0.25459285973E+03  0.00000000000E+00 0.  1.
          1    1    3    3  501    0  0.12533090024E+03 -0.25165059172E+02  0.17677698376E+03  0.21815411237E+03  0.00000000000E+00 0.  1.
         21    1    1    2  502  501  0.20859453570E+02  0.22164880066E+02 -0.12652809710E+02  0.32961982725E+02  0.00000000000E+00 0.  1.
<scales pt_clust_4="550.00000" pt_clust_5="550.00000" pt_clust_6="30.43681"></scales>
<mgrwt>
<rscale>  0 0.30000000E+03</rscale>
<asrwt>  1 0.30436814E+02</asrwt>
<pdfrwt beam="1">  1        1 0.83894165E+00 0.30000000E+03</pdfrwt>
<pdfrwt beam="2">0</pdfrwt>
<totfact> 0.51986848E-04</totfact>
</mgrwt>
<clustering>
<clus scale="   30.437">  1  6  2 -1</clus>
<clus scale="  470.704">  4  5 -1 -1</clus>
<clus scale="  300.000">  1  4  2 -1</clus>
</clustering>
</event>
<event>
 6    1  0.9131597E-012  0.3000000E+03  0.7818608E-02  0.1093470E+00
          1   -1    0    0  502    0  0.00000000000E+00  0.00000000000E+00  0.22870549854E+03  0.22870549854E+03  0.00000000000E+00 0.  1.
         13   -1    0    0    0    0 -0.00000000000E+00 -0.00000000000E+00 -0.27500000000E+03  0.27500000000E+03  0.00000000000E+00 0.  1.
    9000005    2    1    2  501    0 -0.23199290955E+02  0.24582934623E+02 -0.46644477668E+02  0.46990238834E+03  0.46635825231E+03 0.  0.
         13    1    3    3    0    0 -0.15521419979E+03 -0.93241508360E+02  0.12764180921E+03  0.22153523006E+03  0.00000000000E+00 0.  1.
          1    1    3    3  501    0  0.13201490884E+03  0.11782444298E+03 -0.17428628688E+03  0.24836715828E+03  0.00000000000E+00 0.  1.
         21    1    1    2  502  501  0.23199290955E+02 -0.24582934623E+02  0.34997620518E+00  0.33803110195E+02  0.00000000000E+00 0.  1.
<scales pt_clust_4="550.00000" pt_clust_5="550.00000" pt_clust_6="33.80130"></scales>
<mgrwt>
<rscale>  0 0.30000000E+03</rscale>
<asrwt>  1 0.33801298E+02</asrwt>
<pdfrwt beam="1">  1        1 0.83165636E+00 0.30000000E+03</pdfrwt>
<pdfrwt beam="2">0</pdfrwt>
<totfact> 0.57696080E-04</totfact>
</mgrwt>
<clustering>
<clus scale="   33.801">  1  6  2 -1</clus>
<clus scale="  466.358">  4  5 -1 -1</clus>
<clus scale="  300.000">  1  4  2 -1</clus>
</clustering>
</event>
<event>
 6    1  0.9131597E-012  0.3000000E+03  0.7818608E-02  0.1093470E+00
          1   -1    0    0  502    0  0.00000000000E+00  0.00000000000E+00  0.22172142035E+03  0.22172142035E+03  0.00000000000E+00 0.  1.
         13   -1    0    0    0    0 -0.00000000000E+00 -0.00000000000E+00 -0.27500000000E+03  0.27500000000E+03  0.00000000000E+00 0.  1.
    9000005    2    1    2  501    0 -0.29137117500E+02 -0.89035579714E+01 -0.60297151292E+02  0.46545633905E+03  0.46052753680E+03 0.  0.
         13    1    3    3    0    0 -0.20704098702E+03 -0.55331675426E+02 -0.14929893996E+03  0.26118525625E+03  0.00000000000E+00 0.  1.
          1    1    3    3  501    0  0.17790386952E+03  0.46428117455E+02  0.89001788672E+02  0.20427108280E+03  0.00000000000E+00 0.  1.
         21    1    1    2  502  501  0.29137117500E+02  0.89035579714E+01  0.70185716419E+01  0.31265081299E+02  0.00000000000E+00 0.  1.
<scales pt_clust_4="550.00000" pt_clust_5="550.00000" pt_clust_6="30.46711"></scales>
<mgrwt>
<rscale>  0 0.30000000E+03</rscale>
<asrwt>  1 0.30467113E+02</asrwt>
<pdfrwt beam="1">  1        1 0.80625971E+00 0.30000000E+03</pdfrwt>
<pdfrwt beam="2">0</pdfrwt>
<totfact> 0.95692772E-04</totfact>
</mgrwt>
<clustering>
<clus scale="   30.467">  1  6  2 -1</clus>
<clus scale="  460.528">  4  5 -1 -1</clus>
<clus scale="  300.000">  1  4  2 -1</clus>
</clustering>
</event>
<event>
 6    1  0.9131597E-012  0.3000000E+03  0.7818608E-02  0.1093470E+00
          1   -1    0    0  502    0  0.00000000000E+00  0.00000000000E+00  0.22606909319E+03  0.22606909319E+03  0.00000000000E+00 0.  1.
         13   -1    0    0    0    0 -0.00000000000E+00 -0.00000000000E+00 -0.27500000000E+03  0.27500000000E+03  0.00000000000E+00 0.  1.
    9000005    2    1    2  501    0 -0.19684378564E+02  0.26155196320E+02 -0.57955137619E+02  0.46711315415E+03  0.46234654941E+03 0.  0.
         13    1    3    3    0    0 -0.10615597688E+03 -0.72753127091E+02 -0.22220621248E+03  0.25678339081E+03  0.00000000000E+00 0.  1.
          3    1    3    3  501    0  0.86471598316E+02  0.98908323411E+02  0.16425107486E+03  0.21032976335E+03  0.00000000000E+00 0.  1.
         21    1    1    2  502  501  0.19684378564E+02 -0.26155196320E+02  0.90242308066E+01  0.33955939033E+02  0.00000000000E+00 0.  1.
<scales pt_clust_4="550.00000" pt_clust_5="550.00000" pt_clust_6="32.73483"></scales>
<mgrwt>
<rscale>  0 0.30000000E+03</rscale>
<asrwt>  1 0.32734829E+02</asrwt>
<pdfrwt beam="1">  1        1 0.82206943E+00 0.30000000E+03</pdfrwt>
<pdfrwt beam="2">0</pdfrwt>
<totfact> 0.70247539E-04</totfact>
</mgrwt>
<clustering>
<clus scale="   32.735">  1  6  2 -1</clus>
<clus scale="  462.347">  4  5 -1 -1</clus>
<clus scale="  300.000">  1  4  2 -1</clus>
</clustering>
</event>
<event>
 6    1  0.9131597E-012  0.3000000E+03  0.7818608E-02  0.1093470E+00
          1   -1    0    0  502    0  0.00000000000E+00  0.00000000000E+00  0.22847714992E+03  0.22847714992E+03  0.00000000000E+00 0.  1.
         13   -1    0    0    0    0 -0.00000000000E+00 -0.00000000000E+00 -0.27500000000E+03  0.27500000000E+03  0.00000000000E+00 0.  1.
    9000005    2    1    2  501    0 -0.15924285423E+02 -0.34385929122E+02 -0.38244505407E+02  0.46468918815E+03  0.46155977338E+03 0.  0.
         13    1    3    3    0    0  0.11956342038E+03  0.16689918137E+03  0.41156550094E+02  0.20939104530E+03  0.00000000000E+00 0.  1.
          3    1    3    3  501    0 -0.13548770580E+03 -0.20128511049E+03 -0.79401055501E+02  0.25529814285E+03  0.00000000000E+00 0.  1.
         21    1    1    2  502  501  0.15924285423E+02  0.34385929122E+02 -0.82783446742E+01  0.38787961771E+02  0.00000000000E+00 0. -1.
<scales pt_clust_4="550.00000" pt_clust_5="550.00000" pt_clust_6="37.89428"></scales>
<mgrwt>
<rscale>  0 0.30000000E+03</rscale>
<asrwt>  1 0.37894280E+02</asrwt>
<pdfrwt beam="1">  1        1 0.83082600E+00 0.30000000E+03</pdfrwt>
<pdfrwt beam="2">0</pdfrwt>
<totfact> 0.57341597E-04</totfact>
</mgrwt>
<clustering>
<clus scale="   37.894">  1  6  2 -1</clus>
<clus scale="  461.560">  4  5 -1 -1</clus>
<clus scale="  300.000">  1  4  2 -1</clus>
</clustering>
</event>
<event>
 6    1  0.9131597E-012  0.3000000E+03  0.7818608E-02  0.1093470E+00
          1   -1    0    0  502    0  0.00000000000E+00  0.00000000000E+00  0.24863963947E+03  0.24863963947E+03  0.00000000000E+00 0.  1.
         13   -1    0    0    0    0 -0.00000000000E+00 -0.00000000000E+00 -0.27500000000E+03  0.27500000000E+03  0.00000000000E+00 0.  1.
    9000005    2    1    2  501    0  0.18737388848E+02 -0.26000561182E+02 -0.55946411765E+02  0.48002251725E+03  0.47567267859E+03 0.  0.
         13    1    3    3    0    0  0.65753474290E+02  0.16140308507E+03  0.12565928751E+03  0.21485979565E+03  0.00000000000E+00 0.  1.
          1    1    3    3  501    0 -0.47016085442E+02 -0.18740364625E+03 -0.18160569927E+03  0.26516272160E+03  0.00000000000E+00 0.  1.
         21    1    1    2  502  501 -0.18737388848E+02  0.26000561182E+02  0.29586051232E+02  0.43617122212E+02  0.00000000000E+00 0. -1.
<scales pt_clust_4="550.00000" pt_clust_5="550.00000" pt_clust_6="32.04870"></scales>
<mgrwt>
<rscale>  0 0.30000000E+03</rscale>
<asrwt>  1 0.32048696E+02</asrwt>
<pdfrwt beam="1">  1        1 0.90414414E+00 0.30000000E+03</pdfrwt>
<pdfrwt beam="2">0</pdfrwt>
<totfact> 0.97466665E-05</totfact>
</mgrwt>
<clustering>
<clus scale="   32.049">  1  6  2 -1</clus>
<clus scale="  475.673">  4  5 -1 -1</clus>
<clus scale="  300.000">  1  4  2 -1</clus>
</clustering>
</event>
<event>
 6    1  0.9131597E-012  0.3000000E+03  0.7818608E-02  0.1093470E+00
          1   -1    0    0  502    0  0.00000000000E+00  0.00000000000E+00  0.21979545639E+03  0.21979545639E+03  0.00000000000E+00 0.  1.
         13   -1    0    0    0    0 -0.00000000000E+00 -0.00000000000E+00 -0.27500000000E+03  0.27500000000E+03  0.00000000000E+00 0.  1.
    9000005    2    1    2  501    0  0.30557185205E+02 -0.10142731402E+02 -0.52687153418E+02  0.46250066081E+03  0.45836045701E+03 0.  0.
         13    1    3    3    0    0 -0.12549310455E+03  0.12377650488E+03  0.10338301464E+03  0.20434576131E+03  0.00000000000E+00 0.  1.
          1    1    3    3  501    0  0.15605028975E+03 -0.13391923628E+03 -0.15607016806E+03  0.25815489950E+03  0.00000000000E+00 0.  1.
         21    1    1    2  502  501 -0.30557185205E+02  0.10142731402E+02 -0.25173901924E+01  0.32294795576E+02  0.00000000000E+00 0.  1.
<scales pt_clust_4="550.00000" pt_clust_5="550.00000" pt_clust_6="32.19653"></scales>
<mgrwt>
<rscale>  0 0.30000000E+03</rscale>
<asrwt>  1 0.32196530E+02</asrwt>
<pdfrwt beam="1">  1        1 0.79925621E+00 0.30000000E+03</pdfrwt>
<pdfrwt beam="2">0</pdfrwt>
<totfact> 0.10666028E-03</totfact>
</mgrwt>
<clustering>
<clus scale="   32.197">  1  6  2 -1</clus>
<clus scale="  458.360">  4  5 -1 -1</clus>
<clus scale="  300.000">  1  4  2 -1</clus>
</clustering>
</event>
<event>
 6    1  0.9131597E-012  0.3000000E+03  0.7818608E-02  0.1093470E+00
          1   -1    0    0  502    0  0.00000000000E+00  0.00000000000E+00  0.23974619211E+03  0.23974619211E+03  0.00000000000E+00 0.  1.
         13   -1    0    0    0    0 -0.00000000000E+00 -0.00000000000E+00 -0.27500000000E+03  0.27500000000E+03  0.00000000000E+00 0.  1.
    9000005    2    1    2  501    0 -0.28443688422E+02 -0.16134585278E+02 -0.39325505340E+02  0.48179248255E+03  0.47907007068E+03 0.  0.
         13    1    3    3    0    0  0.67747035865E+02 -0.19924255927E+03  0.99403054402E+02  0.23274068299E+03  0.00000000000E+00 0.  1.
          3    1    3    3  501    0 -0.96190724287E+02  0.18310797399E+03 -0.13872855974E+03  0.24905179957E+03  0.00000000000E+00 0.  1.
         21    1    1    2  502  501  0.28443688422E+02  0.16134585278E+02  0.40716974460E+01  0.32953709552E+02  0.00000000000E+00 0. -1.
<scales pt_clust_4="550.00000" pt_clust_5="550.00000" pt_clust_6="32.70120"></scales>
<mgrwt>
<rscale>  0 0.30000000E+03</rscale>
<asrwt>  1 0.32701197E+02</asrwt>
<pdfrwt beam="1">  1        1 0.87180433E+00 0.30000000E+03</pdfrwt>
<pdfrwt beam="2">0</pdfrwt>
<totfact> 0.24585625E-04</totfact>
</mgrwt>
<clustering>
<clus scale="   32.701">  1  6  2 -1</clus>
<clus scale="  479.070">  4  5 -1 -1</clus>
<clus scale="  300.000">  1  4  2 -1</clus>
</clustering>
</event>
<event>
 6    1  0.9131597E-012  0.3000000E+03  0.7818608E-02  0.1093470E+00
          1   -1    0    0  502    0  0.00000000000E+00  0.00000000000E+00  0.24530614557E+03  0.24530614557E+03  0.00000000000E+00 0.  1.
         13   -1    0    0    0    0 -0.00000000000E+00 -0.00000000000E+00 -0.27500000000E+03  0.27500000000E+03  0.00000000000E+00 0.  1.
    9000005    2    1    2  501    0  0.37147719475E+02 -0.12709346853E+02 -0.11276654574E+02  0.47693940935E+03  0.47518686503E+03 0.  0.
         13    1    3    3    0    0 -0.12000356494E+03  0.38605696692E+02  0.18276543452E+03  0.22202355612E+03  0.00000000000E+00 0.  1.
          1    1    3    3  501    0  0.15715128442E+03 -0.51315043545E+02 -0.19404208910E+03  0.25491585323E+03  0.00000000000E+00 0.  1.
         21    1    1    2  502  501 -0.37147719475E+02  0.12709346853E+02 -0.18417199855E+02  0.43366736217E+02  0.00000000000E+00 0.  1.
<scales pt_clust_4="550.00000" pt_clust_5="550.00000" pt_clust_6="39.26171"></scales>
<mgrwt>
<rscale>  0 0.30000000E+03</rscale>
<asrwt>  1 0.39261713E+02</asrwt>
<pdfrwt beam="1">  1        1 0.89202235E+00 0.30000000E+03</pdfrwt>
<pdfrwt beam="2">0</pdfrwt>
<totfact> 0.13369318E-04</totfact>
</mgrwt>
<clustering>
<clus scale="   39.262">  1  6  2 -1</clus>
<clus scale="  475.187">  4  5 -1 -1</clus>
<clus scale="  300.000">  1  4  2 -1</clus>
</clustering>
</event>
<event>
 6    1  0.9131597E-012  0.3000000E+03  0.7818608E-02  0.1093470E+00
          1   -1    0    0  502    0  0.00000000000E+00  0.00000000000E+00  0.22939354767E+03  0.22939354767E+03  0.00000000000E+00 0.  1.
         13   -1    0    0    0    0 -0.00000000000E+00 -0.00000000000E+00 -0.27500000000E+03  0.27500000000E+03  0.00000000000E+00 0.  1.
    9000005    2    1    2  501    0  0.25426595218E+02 -0.26430483392E+02 -0.44114365140E+02  0.46768784619E+03  0.46415596740E+03 0.  0.
         13    1    3    3    0    0  0.17227789559E+03  0.15172287949E+03  0.12730328630E+02  0.22991643425E+03  0.00000000000E+00 0.  1.
          1    1    3    3  501    0 -0.14685130037E+03 -0.17815336289E+03 -0.56844693770E+02  0.23777141194E+03  0.00000000000E+00 0.  1.
         21    1    1    2  502  501 -0.25426595218E+02  0.26430483392E+02 -0.14920871897E+01  0.36705701476E+02  0.00000000000E+00 0.  1.
<scales pt_clust_4="550.00000" pt_clust_5="550.00000" pt_clust_6="36.67536"></scales>
<mgrwt>
<rscale>  0 0.30000000E+03</rscale>
<asrwt>  1 0.36675362E+02</asrwt>
<pdfrwt beam="1">  1        1 0.83415836E+00 0.30000000E+03</pdfrwt>
<pdfrwt beam="2">0</pdfrwt>
<totfact> 0.54397777E-04</totfact>
</mgrwt>
<clustering>
<clus scale="   36.675">  1  6  2 -1</clus>
<clus scale="  464.156">  4  5 -1 -1</clus>
<clus scale="  300.000">  1  4  2 -1</clus>
</clustering>
</event>
<event>
 6    1  0.9131597E-012  0.3000000E+03  0.7818608E-02  0.1093470E+00
          1   -1    0    0  502    0  0.00000000000E+00  0.00000000000E+00  0.24215398252E+03  0.24215398252E+03  0.00000000000E+00 0.  1.
         13   -1    0    0    0    0 -0.00000000000E+00 -0.00000000000E+00 -0.27500000000E+03  0.27500000000E+03  0.00000000000E+00 0.  1.
    9000005    2    1    2  501    0  0.17010378835E+02 -0.27363332959E+02 -0.64937054163E+02  0.47167937846E+03  0.46607564846E+03 0.  0.
         13    1    3    3    0    0  0.56779709428E+02  0.21149985624E+03  0.68987279766E+01  0.21909750578E+03  0.00000000000E+00 0.  1.
          1    1    3    3  501    0 -0.39769330593E+02 -0.23886318920E+03 -0.71835782140E+02  0.25258187268E+03  0.00000000000E+00 0.  1.
         21    1    1    2  502  501 -0.17010378835E+02  0.27363332959E+02  0.32091036686E+02  0.45474604059E+02  0.00000000000E+00 0. -1.
<scales pt_clust_4="550.00000" pt_clust_5="550.00000" pt_clust_6="32.21964"></scales>
<mgrwt>
<rscale>  0 0.30000000E+03</rscale>
<asrwt>  1 0.32219637E+02</asrwt>
<pdfrwt beam="1">  1        1 0.88055994E+00 0.30000000E+03</pdfrwt>
<pdfrwt beam="2">0</pdfrwt>
<totfact> 0.19729288E-04</totfact>
</mgrwt>
<clustering>
<clus scale="   32.220">  1  6  2 -1</clus>
<clus scale="  466.076">  4  5 -1 -1</clus>
<clus scale="  300.000">  1  4  2 -1</clus>
</clustering>
</event>
<event>
 6    1  0.9131597E-012  0.3000000E+03  0.7818608E-02  0.1093470E+00
          1   -1    0    0  502    0  0.00000000000E+00  0.00000000000E+00  0.23926604215E+03  0.23926604215E+03  0.00000000000E+00 0.  1.
         13   -1    0    0    0    0 -0.00000000000E+00 -0.00000000000E+00 -0.27500000000E+03  0.27500000000E+03  0.00000000000E+00 0.  1.
    9000005    2    1    2  501    0  0.29602785197E+02 -0.34253943116E+02 -0.39833825062E+02  0.46880763895E+03  0.46491312222E+03 0.  0.
         13    1    3    3    0    0  0.20461527190E+03 -0.15237548717E+03 -0.35848751253E+02  0.25762537055E+03  0.00000000000E+00 0.  1.
          3    1    3    3  501    0 -0.17501248670E+03  0.11812154406E+03 -0.39850738085E+01  0.21118226840E+03  0.00000000000E+00 0.  1.
         21    1    1    2  502  501 -0.29602785197E+02  0.34253943116E+02  0.40998672153E+01  0.45458403201E+02  0.00000000000E+00 0. -1.
<scales pt_clust_4="550.00000" pt_clust_5="550.00000" pt_clust_6="45.27314"></scales>
<mgrwt>
<rscale>  0 0.30000000E+03</rscale>
<asrwt>  1 0.45273143E+02</asrwt>
<pdfrwt beam="1">  1        1 0.87005834E+00 0.30000000E+03</pdfrwt>
<pdfrwt beam="2">0</pdfrwt>
<totfact> 0.24128791E-04</totfact>
</mgrwt>
<clustering>
<clus scale="   45.273">  1  6  2 -1</clus>
<clus scale="  464.913">  4  5 -1 -1</clus>
<clus scale="  300.000">  1  4  2 -1</clus>
</clustering>
</event>
<event>
 6    1  0.9131597E-012  0.3000000E+03  0.7818608E-02  0.1093470E+00
          1   -1    0    0  502    0  0.00000000000E+00  0.00000000000E+00  0.24167163150E+03  0.24167163150E+03  0.00000000000E+00 0.  1.
         13   -1    0    0    0    0 -0.00000000000E+00 -0.00000000000E+00 -0.27500000000E+03  0.27500000000E+03  0.00000000000E+00 0.  1.
    9000005    2    1    2  501    0  0.11533070583E+02  0.40148405861E+02 -0.48381722477E+02  0.47226994599E+03  0.46792435778E+03 0.  0.
         13    1    3    3    0    0  0.12212498000E+03  0.15178539549E+03 -0.18154628043E+03  0.26629376441E+03  0.00000000000E+00 0.  1.
          1    1    3    3  501    0 -0.11059190942E+03 -0.11163698963E+03  0.13316455795E+03  0.20597618158E+03  0.00000000000E+00 0.  1.
         21    1    1    2  502  501 -0.11533070583E+02 -0.40148405861E+02  0.15053353975E+02  0.44401685510E+02  0.00000000000E+00 0.  1.
<scales pt_clust_4="550.00000" pt_clust_5="550.00000" pt_clust_6="41.77207"></scales>
<mgrwt>
<rscale>  0 0.30000000E+03</rscale>
<asrwt>  1 0.41772075E+02</asrwt>
<pdfrwt beam="1">  1        1 0.87880593E+00 0.30000000E+03</pdfrwt>
<pdfrwt beam="2">0</pdfrwt>
<totfact> 0.19750785E-04</totfact>
</mgrwt>
<clustering>
<clus scale="   41.772">  1  6  2 -1</clus>
<clus scale="  467.924">  4  5 -1 -1</clus>
<clus scale="  300.000">  1  4  2 -1</clus>
</clustering>
</event>
<event>
 6    1  0.9131597E-012  0.3000000E+03  0.7818608E-02  0.1093470E+00
          1   -1    0    0  502    0  0.00000000000E+00  0.00000000000E+00  0.23619185312E+03  0.23619185312E+03  0.00000000000E+00 0.  1.
         13   -1    0    0    0    0 -0.00000000000E+00 -0.00000000000E+00 -0.27500000000E+03  0.27500000000E+03  0.00000000000E+00 0.  1.
    9000005    2    1    2  501    0  0.62453483094E+01 -0.38617605767E+02 -0.57583169951E+02  0.46780031775E+03  0.46259160387E+03 0.  0.
         13    1    3    3    0    0 -0.13727573337E+03 -0.18680792492E+03  0.46951357275E+02  0.23652961281E+03  0.00000000000E+00 0.  1.
          1    1    3    3  501    0  0.14352108168E+03  0.14819031916E+03 -0.10453452723E+03  0.23127070493E+03  0.00000000000E+00 0.  1.
         21    1    1    2  502  501 -0.62453483094E+01  0.38617605767E+02  0.18775023067E+02  0.43391535371E+02  0.00000000000E+00 0. -1.
<scales pt_clust_4="550.00000" pt_clust_5="550.00000" pt_clust_6="39.11935"></scales>
<mgrwt>
<rscale>  0 0.30000000E+03</rscale>
<asrwt>  1 0.39119354E+02</asrwt>
<pdfrwt beam="1">  1        1 0.85887947E+00 0.30000000E+03</pdfrwt>
<pdfrwt beam="2">0</pdfrwt>
<totfact> 0.32566260E-04</totfact>
</mgrwt>
<clustering>
<clus scale="   39.119">  1  6  2 -1</clus>
<clus scale="  462.592">  4  5 -1 -1</clus>
<clus scale="  300.000">  1  4  2 -1</clus>
</clustering>
</event>
<event>
 6    1  0.9131597E-012  0.3000000E+03  0.7818608E-02  0.1093470E+00
          1   -1    0    0  502    0  0.00000000000E+00  0.00000000000E+00  0.23227261861E+03  0.23227261861E+03  0.00000000000E+00 0.  1.
         13   -1    0    0    0    0 -0.00000000000E+00 -0.00000000000E+00 -0.27500000000E+03  0.27500000000E+03  0.00000000000E+00 0.  1.
    9000005    2    1    2  501    0 -0.28592291558E+02 -0.10389529046E+02 -0.50639799936E+02  0.47583907256E+03  0.47215778315E+03 0.  0.
         13    1    3    3    0    0 -0.37201173823E+02  0.22945828778E+03 -0.12165437265E+02  0.23277248770E+03  0.00000000000E+00 0.  1.
          1    1    3    3  501    0  0.86088822649E+01 -0.23984781683E+03 -0.38474362671E+02  0.24306658486E+03  0.00000000000E+00 0.  1.
         21    1    1    2  502  501  0.28592291558E+02  0.10389529046E+02  0.79124185499E+01  0.31433546055E+02  0.00000000000E+00 0. -1.
<scales pt_clust_4="550.00000" pt_clust_5="550.00000" pt_clust_6="30.42140"></scales>
<mgrwt>
<rscale>  0 0.30000000E+03</rscale>
<asrwt>  1 0.30421398E+02</asrwt>
<pdfrwt beam="1">  1        1 0.84462770E+00 0.30000000E+03</pdfrwt>
<pdfrwt beam="2">0</pdfrwt>
<totfact> 0.46746813E-04</totfact>
</mgrwt>
<clustering>
<clus scale="   30.421">  1  6  2 -1</clus>
<clus scale="  472.158">  4  5 -1 -1</clus>
<clus scale="  300.000">  1  4  2 -1</clus>
</clustering>
</event>
<event>
 6    1  0.9131597E-012  0.3000000E+03  0.7818608E-02  0.1093470E+00
          1   -1    0    0  502    0  0.00000000000E+00  0.00000000000E+00  0.25669013085E+03  0.25669013085E+03  0.00000000000E+00 0.  1.
         13   -1    0    0    0    0 -0.00000000000E+00 -0.00000000000E+00 -0.27500000000E+03  0.27500000000E+03  0.00000000000E+00 0.  1.
    9000005    2    1    2  501    0 -0.55994713850E+02  0.20710189445E+02 -0.46632193620E+02  0.46561083009E+03  0.45940675190E+03 0.  0.
         13    1    3    3    0    0  0.29804198171E+02  0.43691326693E+02  0.19821525636E+03  0.20514996981E+03  0.00000000000E+00 0.  1.
          3    1    3    3  501    0 -0.85798912022E+02 -0.22981137248E+02 -0.24484744999E+03  0.26046086028E+03  0.00000000000E+00 0.  1.
         21    1    1    2  502  501  0.55994713850E+02 -0.20710189445E+02  0.28322324474E+02  0.66079300766E+02  0.00000000000E+00 0.  1.
<scales pt_clust_4="550.00000" pt_clust_5="550.00000" pt_clust_6="59.70193"></scales>
<mgrwt>
<rscale>  0 0.30000000E+03</rscale>
<asrwt>  1 0.59701926E+02</asrwt>
<pdfrwt beam="1">  1        1 0.93341866E+00 0.30000000E+03</pdfrwt>
<pdfrwt beam="2">0</pdfrwt>
<totfact> 0.21414916E-05</totfact>
</mgrwt>
<clustering>
<clus scale="   59.702">  1  6  2 -1</clus>
<clus scale="  459.407">  4  5 -1 -1</clus>
<clus scale="  300.000">  1  4  2 -1</clus>
</clustering>
</event>
<event>
 6    1  0.9131597E-012  0.3000000E+03  0.7818608E-02  0.1093470E+00
          1   -1    0    0  502    0  0.00000000000E+00  0.00000000000E+00  0.24600286605E+03  0.24600286605E+03  0.00000000000E+00 0.  1.
         13   -1    0    0    0    0 -0.00000000000E+00 -0.00000000000E+00 -0.27500000000E+03  0.27500000000E+03  0.00000000000E+00 0.  1.
    9000005    2    1    2  501    0 -0.10156179469E+02  0.32310329162E+02 -0.28973799804E+02  0.48713391424E+03  0.48509057296E+03 0.  0.
         13    1    3    3    0    0 -0.26558486095E+02 -0.17723562610E+03 -0.15933502095E+03  0.23980298005E+03  0.00000000000E+00 0.  1.
          1    1    3    3  501    0  0.16402306625E+02  0.20954595526E+03  0.13036122115E+03  0.24733093419E+03  0.00000000000E+00 0.  1.
         21    1    1    2  502  501  0.10156179469E+02 -0.32310329162E+02 -0.23334147378E-01  0.33868951806E+02  0.00000000000E+00 0.  1.
<scales pt_clust_4="550.00000" pt_clust_5="550.00000" pt_clust_6="33.86894"></scales>
<mgrwt>
<rscale>  0 0.30000000E+03</rscale>
<asrwt>  1 0.33868944E+02</asrwt>
<pdfrwt beam="1">  1        1 0.89455588E+00 0.30000000E+03</pdfrwt>
<pdfrwt beam="2">0</pdfrwt>
<totfact> 0.12834071E-04</totfact>
</mgrwt>
<clustering>
<clus scale="   33.869">  1  6  2 -1</clus>
<clus scale="  485.091">  4  5 -1 -1</clus>
<clus scale="  300.000">  1  4  2 -1</clus>
</clustering>
</event>
<event>
 6    1  0.9131597E-012  0.3000000E+03  0.7818608E-02  0.1093470E+00
          1   -1    0    0  502    0  0.00000000000E+00  0.00000000000E+00  0.22399329098E+03  0.22399329098E+03  0.00000000000E+00 0.  1.
         13   -1    0    0    0    0 -0.00000000000E+00 -0.00000000000E+00 -0.27500000000E+03  0.27500000000E+03  0.00000000000E+00 0.  1.
    9000005    2    1    2  501    0 -0.30409997286E+02 -0.15409302354E+02 -0.32106732791E+02  0.46001350603E+03  0.45762361052E+03 0.  0.
         13    1    3    3    0    0 -0.12443054022E+03 -0.12166232642E+03  0.14959247731E+03  0.22948331154E+03  0.00000000000E+00 0.  1.
          1    1    3    3  501    0  0.94020542936E+02  0.10625302406E+03 -0.18169921010E+03  0.23053019448E+03  0.00000000000E+00 0.  1.
         21    1    1    2  502  501  0.30409997286E+02  0.15409302354E+02 -0.18899976225E+02  0.38979784957E+02  0.00000000000E+00 0.  1.
<scales pt_clust_4="550.00000" pt_clust_5="550.00000" pt_clust_6="34.09128"></scales>
<mgrwt>
<rscale>  0 0.30000000E+03</rscale>
<asrwt>  1 0.34091285E+02</asrwt>
<pdfrwt beam="1">  1        1 0.81452106E+00 0.30000000E+03</pdfrwt>
<pdfrwt beam="2">0</pdfrwt>
<totfact> 0.80712647E-04</totfact>
</mgrwt>
<clustering>
<clus scale="   34.091">  1  6  2 -1</clus>
<clus scale="  457.624">  4  5 -1 -1</clus>
<clus scale="  300.000">  1  4  2 -1</clus>
</clustering>
</event>
<event>
 6    1  0.9131597E-012  0.3000000E+03  0.7818608E-02  0.1093470E+00
          1   -1    0    0  502    0  0.00000000000E+00  0.00000000000E+00  0.24629283841E+03  0.24629283841E+03  0.00000000000E+00 0.  1.
         13   -1    0    0    0    0 -0.00000000000E+00 -0.00000000000E+00 -0.27500000000E+03  0.27500000000E+03  0.00000000000E+00 0.  1.
    9000005    2    1    2  501    0 -0.24889410935E+02 -0.40203523097E+02 -0.24213497359E+02  0.47379547992E+03  0.47080787726E+03 0.  0.
         13    1    3    3    0    0  0.13695007179E+03 -0.19999321743E+03 -0.40638104397E+02  0.24577238394E+03  0.00000000000E+00 0.  1.
          1    1    3    3  501    0 -0.16183948272E+03  0.15978969433E+03  0.16424607038E+02  0.22802309598E+03  0.00000000000E+00 0.  1.
         21    1    1    2  502  501  0.24889410935E+02  0.40203523097E+02 -0.44936642270E+01  0.47497358498E+02  0.00000000000E+00 0. -1.
<scales pt_clust_4="550.00000" pt_clust_5="550.00000" pt_clust_6="47.28433"></scales>
<mgrwt>
<rscale>  0 0.30000000E+03</rscale>
<asrwt>  1 0.47284334E+02</asrwt>
<pdfrwt beam="1">  1        1 0.89561032E+00 0.30000000E+03</pdfrwt>
<pdfrwt beam="2">0</pdfrwt>
<totfact> 0.11751391E-04</totfact>
</mgrwt>
<clustering>
<clus scale="   47.284">  1  6  2 -1</clus>
<clus scale="  470.808">  4  5 -1 -1</clus>
<clus scale="  300.000">  1  4  2 -1</clus>
</clustering>
</event>
<event>
 6    1  0.9131597E-012  0.3000000E+03  0.7818608E-02  0.1093470E+00
          1   -1    0    0  502    0  0.00000000000E+00  0.00000000000E+00  0.24780047154E+03  0.24780047154E+03  0.00000000000E+00 0.  1.
         13   -1    0    0    0    0 -0.00000000000E+00 -0.00000000000E+00 -0.27500000000E+03  0.27500000000E+03  0.00000000000E+00 0.  1.
    9000005    2    1    2  501    0  0.64380050878E+01  0.45428113236E+02 -0.32006510463E+02  0.47666731147E+03  0.47337315907E+03 0.  0.
         13    1    3    3    0    0  0.41877976286E+02  0.19159005255E+03  0.14536694313E+03  0.24411485266E+03  0.00000000000E+00 0.  1.
          1    1    3    3  501    0 -0.35439971198E+02 -0.14616193931E+03 -0.17737345359E+03  0.23255245882E+03  0.00000000000E+00 0.  1.
         21    1    1    2  502  501 -0.64380050878E+01 -0.45428113236E+02  0.48069820017E+01  0.46133160066E+02  0.00000000000E+00 0.  1.
<scales pt_clust_4="550.00000" pt_clust_5="550.00000" pt_clust_6="45.88204"></scales>
<mgrwt>
<rscale>  0 0.30000000E+03</rscale>
<asrwt>  1 0.45882038E+02</asrwt>
<pdfrwt beam="1">  1        1 0.90109262E+00 0.30000000E+03</pdfrwt>
<pdfrwt beam="2">0</pdfrwt>
<totfact> 0.10173219E-04</totfact>
</mgrwt>
<clustering>
<clus scale="   45.882">  1  6  2 -1</clus>
<clus scale="  473.373">  4  5 -1 -1</clus>
<clus scale="  300.000">  1  4  2 -1</clus>
</clustering>
</event>
<event>
 6    1  0.9131597E-012  0.3000000E+03  0.7818608E-02  0.1093470E+00
          1   -1    0    0  502    0  0.00000000000E+00  0.00000000000E+00  0.23959317497E+03  0.23959317497E+03  0.00000000000E+00 0.  1.
         13   -1    0    0    0    0 -0.00000000000E+00 -0.00000000000E+00 -0.27500000000E+03  0.27500000000E+03  0.00000000000E+00 0.  1.
    9000005    2    1    2  501    0  0.13591563555E+02  0.30211906425E+02 -0.71777129824E+02  0.46539674258E+03  0.45863349392E+03 0.  0.
         13    1    3    3    0    0 -0.21245798545E+03  0.50054516612E+02  0.22994467305E+02  0.21948256363E+03  0.00000000000E+00 0.  1.
          1    1    3    3  501    0  0.22604954900E+03 -0.19842610186E+02 -0.94771597129E+02  0.24591417894E+03  0.00000000000E+00 0.  1.
         21    1    1    2  502  501 -0.13591563555E+02 -0.30211906425E+02  0.36370304799E+02  0.49196432399E+02  0.00000000000E+00 0.  1.
<scales pt_clust_4="550.00000" pt_clust_5="550.00000" pt_clust_6="33.12838"></scales>
<mgrwt>
<rscale>  0 0.30000000E+03</rscale>
<asrwt>  1 0.33128385E+02</asrwt>
<pdfrwt beam="1">  1        1 0.87124791E+00 0.30000000E+03</pdfrwt>
<pdfrwt beam="2">0</pdfrwt>
<totfact> 0.24848252E-04</totfact>
</mgrwt>
<clustering>
<clus scale="   33.128">  1  6  2 -1</clus>
<clus scale="  458.633">  4  5 -1 -1</clus>
<clus scale="  300.000">  1  4  2 -1</clus>
</clustering>
</event>
<event>
 6    1  0.9131597E-012  0.3000000E+03  0.7818608E-02  0.1093470E+00
          1   -1    0    0  502    0  0.00000000000E+00  0.00000000000E+00  0.25371419400E+03  0.25371419400E+03  0.00000000000E+00 0.  1.
         13   -1    0    0    0    0 -0.00000000000E+00 -0.00000000000E+00 -0.27500000000E+03  0.27500000000E+03  0.00000000000E+00 0.  1.
    9000005    2    1    2  501    0  0.18653306234E+02 -0.26633453680E+02 -0.32146166155E+02  0.49443250631E+03  0.49231376236E+03 0.  0.
         13    1    3    3    0    0  0.22578138061E+03 -0.10609492784E+03 -0.89934732729E+02  0.26518224242E+03  0.00000000000E+00 0.  1.
          3    1    3    3  501    0 -0.20712807437E+03  0.79461474158E+02  0.57788566573E+02  0.22925026389E+03  0.00000000000E+00 0.  1.
         21    1    1    2  502  501 -0.18653306234E+02  0.26633453680E+02  0.10860360160E+02  0.34281687695E+02  0.00000000000E+00 0. -1.
<scales pt_clust_4="550.00000" pt_clust_5="550.00000" pt_clust_6="32.51595"></scales>
<mgrwt>
<rscale>  0 0.30000000E+03</rscale>
<asrwt>  1 0.32515945E+02</asrwt>
<pdfrwt beam="1">  1        1 0.92259707E+00 0.30000000E+03</pdfrwt>
<pdfrwt beam="2">0</pdfrwt>
<totfact> 0.37305668E-05</totfact>
</mgrwt>
<clustering>
<clus scale="   32.516">  1  6  2 -1</clus>
<clus scale="  492.314">  4  5 -1 -1</clus>
<clus scale="  300.000">  1  4  2 -1</clus>
</clustering>
</event>
<event>
 6    1  0.9131597E-012  0.3000000E+03  0.7818608E-02  0.1093470E+00
          1   -1    0    0  502    0  0.00000000000E+00  0.00000000000E+00  0.22634361323E+03  0.22634361323E+03  0.00000000000E+00 0.  1.
         13   -1    0    0    0    0 -0.00000000000E+00 -0.00000000000E+00 -0.27500000000E+03  0.27500000000E+03  0.00000000000E+00 0.  1.
    9000005    2    1    2  501    0  0.62706860513E+01  0.30462713280E+02 -0.59574173889E+02  0.46838156719E+03  0.46353523262E+03 0.  0.
         13    1    3    3    0    0 -0.18781306928E+03 -0.11332085984E+03  0.10248168557E+01  0.21935454524E+03  0.00000000000E+00 0.  1.
          1    1    3    3  501    0  0.19408375533E+03  0.14378357312E+03 -0.60598990745E+02  0.24902702195E+03  0.00000000000E+00 0.  1.
         21    1    1    2  502  501 -0.62706860513E+01 -0.30462713280E+02  0.10917787122E+02  0.32962046046E+02  0.00000000000E+00 0. -1.
<scales pt_clust_4="550.00000" pt_clust_5="550.00000" pt_clust_6="31.10142"></scales>
<mgrwt>
<rscale>  0 0.30000000E+03</rscale>
<asrwt>  1 0.31101421E+02</asrwt>
<pdfrwt beam="1">  1        1 0.82306768E+00 0.30000000E+03</pdfrwt>
<pdfrwt beam="2">0</pdfrwt>
<totfact> 0.69500098E-04</totfact>
</mgrwt>
<clustering>
<clus scale="   31.101">  1  6  2 -1</clus>
<clus scale="  463.535">  4  5 -1 -1</clus>
<clus scale="  300.000">  1  4  2 -1</clus>
</clustering>
</event>
<event>
 6    1  0.9131597E-012  0.3000000E+03  0.7818608E-02  0.1093470E+00
          1   -1    0    0  502    0  0.00000000000E+00  0.00000000000E+00  0.23713365319E+03  0.23713365319E+03  0.00000000000E+00 0.  1.
         13   -1    0    0    0    0 -0.00000000000E+00 -0.00000000000E+00 -0.27500000000E+03  0.27500000000E+03  0.00000000000E+00 0.  1.
    9000005    2    1    2  501    0 -0.24489413910E+02 -0.30161910678E+02 -0.16056438001E+02  0.46757869418E+03  0.46568503712E+03 0.  0.
         13    1    3    3    0    0 -0.11801316370E+02 -0.17287556315E+03 -0.17999990069E+03  0.24985034651E+03  0.00000000000E+00 0.  1.
          1    1    3    3  501    0 -0.12688097541E+02  0.14271365247E+03  0.16394346269E+03  0.21772834767E+03  0.00000000000E+00 0.  1.
         21    1    1    2  502  501  0.24489413910E+02  0.30161910678E+02 -0.21809908813E+02  0.44554959004E+02  0.00000000000E+00 0.  1.
<scales pt_clust_4="550.00000" pt_clust_5="550.00000" pt_clust_6="38.85195"></scales>
<mgrwt>
<rscale>  0 0.30000000E+03</rscale>
<asrwt>  1 0.38851947E+02</asrwt>
<pdfrwt beam="1">  1        1 0.86230419E+00 0.30000000E+03</pdfrwt>
<pdfrwt beam="2">0</pdfrwt>
<totfact> 0.29967282E-04</totfact>
</mgrwt>
<clustering>
<clus scale="   38.852">  1  6  2 -1</clus>
<clus scale="  465.685">  4  5 -1 -1</clus>
<clus scale="  300.000">  1  4  2 -1</clus>
</clustering>
</event>
<event>
 6    1  0.9131597E-012  0.3000000E+03  0.7818608E-02  0.1093470E+00
          1   -1    0    0  502    0  0.00000000000E+00  0.00000000000E+00  0.24070610088E+03  0.24070610088E+03  0.00000000000E+00 0.  1.
         13   -1    0    0    0    0 -0.00000000000E+00 -0.00000000000E+00 -0.27500000000E+03  0.27500000000E+03  0.00000000000E+00 0.  1.
    9000005    2    1    2  501    0 -0.16120734051E+02  0.27704861354E+02 -0.44302366432E+02  0.48212624342E+03  0.47901521637E+03 0.  0.
         13    1    3    3    0    0  0.11625565541E+03  0.95343023145E+02  0.16639836959E+03  0.22426343188E+03  0.00000000000E+00 0.  1.
          3    1    3    3  501    0 -0.13237638946E+03 -0.67638161791E+02 -0.21070073602E+03  0.25786281154E+03  0.00000000000E+00 0.  1.
         21    1    1    2  502  501  0.16120734051E+02 -0.27704861354E+02  0.10008467316E+02  0.33579857460E+02  0.00000000000E+00 0. -1.
<scales pt_clust_4="550.00000" pt_clust_5="550.00000" pt_clust_6="32.05366"></scales>
<mgrwt>
<rscale>  0 0.30000000E+03</rscale>
<asrwt>  1 0.32053665E+02</asrwt>
<pdfrwt beam="1">  1        1 0.87529491E+00 0.30000000E+03</pdfrwt>
<pdfrwt beam="2">0</pdfrwt>
<totfact> 0.22704604E-04</totfact>
</mgrwt>
<clustering>
<clus scale="   32.054">  1  6  2 -1</clus>
<clus scale="  479.015">  4  5 -1 -1</clus>
<clus scale="  300.000">  1  4  2 -1</clus>
</clustering>
</event>
<event>
 6    1  0.9131597E-012  0.3000000E+03  0.7818608E-02  0.1093470E+00
          1   -1    0    0  502    0  0.00000000000E+00  0.00000000000E+00  0.22762385989E+03  0.22762385989E+03  0.00000000000E+00 0.  1.
         13   -1    0    0    0    0 -0.00000000000E+00 -0.00000000000E+00 -0.27500000000E+03  0.27500000000E+03  0.00000000000E+00 0.  1.
    9000005    2    1    2  501    0  0.70158851807E+01  0.32463453598E+02 -0.57796539084E+02  0.46781462003E+03  0.46304101365E+03 0.  0.
         13    1    3    3    0    0 -0.12968368220E+03  0.64848908388E+01 -0.21916316701E+03  0.25473987715E+03  0.00000000000E+00 0.  1.
          1    1    3    3  501    0  0.13669956738E+03  0.25978562759E+02  0.16136662792E+03  0.21307474288E+03  0.00000000000E+00 0.  1.
         21    1    1    2  502  501 -0.70158851807E+01 -0.32463453598E+02  0.10420398970E+02  0.34809239852E+02  0.00000000000E+00 0.  1.
<scales pt_clust_4="550.00000" pt_clust_5="550.00000" pt_clust_6="33.21293"></scales>
<mgrwt>
<rscale>  0 0.30000000E+03</rscale>
<asrwt>  1 0.33212926E+02</asrwt>
<pdfrwt beam="1">  1        1 0.82772313E+00 0.30000000E+03</pdfrwt>
<pdfrwt beam="2">0</pdfrwt>
<totfact> 0.62407306E-04</totfact>
</mgrwt>
<clustering>
<clus scale="   33.213">  1  6  2 -1</clus>
<clus scale="  463.041">  4  5 -1 -1</clus>
<clus scale="  300.000">  1  4  2 -1</clus>
</clustering>
</event>
<event>
 6    1  0.9131597E-012  0.3000000E+03  0.7818608E-02  0.1093470E+00
          1   -1    0    0  502    0  0.00000000000E+00  0.00000000000E+00  0.23861613083E+03  0.23861613083E+03  0.00000000000E+00 0.  1.
         13   -1    0    0    0    0 -0.00000000000E+00 -0.00000000000E+00 -0.27500000000E+03  0.27500000000E+03  0.00000000000E+00 0.  1.
    9000005    2    1    2  501    0  0.27021076960E+01 -0.37798216889E+02 -0.55288212966E+02  0.47126780382E+03  0.46647674094E+03 0.  0.
         13    1    3    3    0    0 -0.11022079425E+03 -0.14384541584E+03  0.13494195538E+03  0.22594127216E+03  0.00000000000E+00 0.  1.
          1    1    3    3  501    0  0.11292290195E+03  0.10604719895E+03 -0.19023016834E+03  0.24532653166E+03  0.00000000000E+00 0.  1.
         21    1    1    2  502  501 -0.27021076960E+01  0.37798216889E+02  0.18904343798E+02  0.42348327009E+02  0.00000000000E+00 0.  1.
<scales pt_clust_4="550.00000" pt_clust_5="550.00000" pt_clust_6="37.89468"></scales>
<mgrwt>
<rscale>  0 0.30000000E+03</rscale>
<asrwt>  1 0.37894678E+02</asrwt>
<pdfrwt beam="1">  1        1 0.86769502E+00 0.30000000E+03</pdfrwt>
<pdfrwt beam="2">0</pdfrwt>
<totfact> 0.26357792E-04</totfact>
</mgrwt>
<clustering>
<clus scale="   37.895">  1  6  2 -1</clus>
<clus scale="  466.477">  4  5 -1 -1</clus>
<clus scale="  300.000">  1  4  2 -1</clus>
</clustering>
</event>
<event>
 6    1  0.9131597E-012  0.3000000E+03  0.7818608E-02  0.1093470E+00
          1   -1    0    0  502    0  0.00000000000E+00  0.00000000000E+00  0.24128631685E+03  0.24128631685E+03  0.00000000000E+00 0.  1.
         13   -1    0    0    0    0 -0.00000000000E+00 -0.00000000000E+00 -0.27500000000E+03  0.27500000000E+03  0.00000000000E+00 0.  1.
    9000005    2    1    2  501    0 -0.36890061659E+02 -0.28793642268E+01 -0.27178424148E+02  0.47871136512E+03  0.47650470823E+03 0.  0.
         13    1    3    3    0    0  0.51074309070E+01 -0.35167720850E+02 -0.24855608102E+03  0.25108361128E+03  0.00000000000E+00 0.  1.
          1    1    3    3  501    0 -0.41997492566E+02  0.32288356624E+02  0.22137765687E+03  0.22762775384E+03  0.00000000000E+00 0.  1.
         21    1    1    2  502  501  0.36890061659E+02  0.28793642268E+01 -0.65352589992E+01  0.37574951733E+02  0.00000000000E+00 0. -1.
<scales pt_clust_4="550.00000" pt_clust_5="550.00000" pt_clust_6="37.00228"></scales>
<mgrwt>
<rscale>  0 0.30000000E+03</rscale>
<asrwt>  1 0.37002280E+02</asrwt>
<pdfrwt beam="1">  1        1 0.87740479E+00 0.30000000E+03</pdfrwt>
<pdfrwt beam="2">0</pdfrwt>
<totfact> 0.20959185E-04</totfact>
</mgrwt>
<clustering>
<clus scale="   37.002">  1  6  2 -1</clus>
<clus scale="  476.505">  4  5 -1 -1</clus>
<clus scale="  300.000">  1  4  2 -1</clus>
</clustering>
</event>
<event>
 6    1  0.9131597E-012  0.3000000E+03  0.7818608E-02  0.1093470E+00
          1   -1    0    0  502    0  0.00000000000E+00  0.00000000000E+00  0.25521155977E+03  0.25521155977E+03  0.00000000000E+00 0.  1.
         13   -1    0    0    0    0 -0.00000000000E+00 -0.00000000000E+00 -0.27500000000E+03  0.27500000000E+03  0.00000000000E+00 0.  1.
    9000005    2    1    2  501    0 -0.12283875495E+02 -0.27954553528E+02 -0.22741243843E+02  0.49953470026E+03  0.49808172214E+03 0.  0.
         13    1    3    3    0    0 -0.21959312023E+03  0.11155234524E+03 -0.37876869488E+02  0.24919815694E+03  0.00000000000E+00 0.  1.
          3    1    3    3  501    0  0.20730924474E+03 -0.13950689877E+03  0.15135625645E+02  0.25033654332E+03  0.00000000000E+00 0.  1.
         21    1    1    2  502  501  0.12283875495E+02  0.27954553528E+02  0.29528036112E+01  0.30676859508E+02  0.00000000000E+00 0.  1.
<scales pt_clust_4="550.00000" pt_clust_5="550.00000" pt_clust_6="30.53442"></scales>
<mgrwt>
<rscale>  0 0.30000000E+03</rscale>
<asrwt>  1 0.30534418E+02</asrwt>
<pdfrwt beam="1">  1        1 0.92804204E+00 0.30000000E+03</pdfrwt>
<pdfrwt beam="2">0</pdfrwt>
<totfact> 0.29182775E-05</totfact>
</mgrwt>
<clustering>
<clus scale="   30.534">  1  6  2 -1</clus>
<clus scale="  498.082">  4  5 -1 -1</clus>
<clus scale="  300.000">  1  4  2 -1</clus>
</clustering>
</event>
<event>
 6    1  0.9131597E-012  0.3000000E+03  0.7818608E-02  0.1093470E+00
          1   -1    0    0  502    0  0.00000000000E+00  0.00000000000E+00  0.24048691498E+03  0.24048691498E+03  0.00000000000E+00 0.  1.
         13   -1    0    0    0    0 -0.00000000000E+00 -0.00000000000E+00 -0.27500000000E+03  0.27500000000E+03  0.00000000000E+00 0.  1.
    9000005    2    1    2  501    0  0.27529631579E+02  0.18164039604E+02 -0.58884518512E+02  0.47447740730E+03  0.46965264885E+03 0.  0.
         13    1    3    3    0    0 -0.53735424401E+02 -0.21559229725E+03 -0.44353789033E+02  0.22657182761E+03  0.00000000000E+00 0.  1.
          3    1    3    3  501    0  0.81265055980E+02  0.23375633685E+03 -0.14530729479E+02  0.24790557969E+03  0.00000000000E+00 0.  1.
         21    1    1    2  502  501 -0.27529631579E+02 -0.18164039604E+02  0.24371433494E+02  0.41009507680E+02  0.00000000000E+00 0.  1.
<scales pt_clust_4="550.00000" pt_clust_5="550.00000" pt_clust_6="32.98201"></scales>
<mgrwt>
<rscale>  0 0.30000000E+03</rscale>
<asrwt>  1 0.32982009E+02</asrwt>
<pdfrwt beam="1">  1        1 0.87449787E+00 0.30000000E+03</pdfrwt>
<pdfrwt beam="2">0</pdfrwt>
<totfact> 0.23023986E-04</totfact>
</mgrwt>
<clustering>
<clus scale="   32.982">  1  6  2 -1</clus>
<clus scale="  469.653">  4  5 -1 -1</clus>
<clus scale="  300.000">  1  4  2 -1</clus>
</clustering>
</event>
<event>
 6    1  0.9131597E-012  0.3000000E+03  0.7818608E-02  0.1093470E+00
          1   -1    0    0  502    0  0.00000000000E+00  0.00000000000E+00  0.22962554016E+03  0.22962554016E+03  0.00000000000E+00 0.  1.
         13   -1    0    0    0    0 -0.00000000000E+00 -0.00000000000E+00 -0.27500000000E+03  0.27500000000E+03  0.00000000000E+00 0.  1.
    9000005    2    1    2  501    0  0.38321052772E+02 -0.13872602101E+02 -0.45630689071E+02  0.46386995370E+03  0.45981759643E+03 0.  0.
         13    1    3    3    0    0 -0.12747154221E+03 -0.78709854465E+02 -0.18480690619E+03  0.23790297988E+03  0.00000000000E+00 0.  1.
          1    1    3    3  501    0  0.16579259498E+03  0.64837252364E+02  0.13917621712E+03  0.22596697382E+03  0.00000000000E+00 0.  1.
         21    1    1    2  502  501 -0.38321052772E+02  0.13872602101E+02  0.25622923524E+00  0.40755586464E+02  0.00000000000E+00 0. -1.
<scales pt_clust_4="550.00000" pt_clust_5="550.00000" pt_clust_6="40.75478"></scales>
<mgrwt>
<rscale>  0 0.30000000E+03</rscale>
<asrwt>  1 0.40754781E+02</asrwt>
<pdfrwt beam="1">  1        1 0.83500196E+00 0.30000000E+03</pdfrwt>
<pdfrwt beam="2">0</pdfrwt>
<totfact> 0.52599555E-04</totfact>
</mgrwt>
<clustering>
<clus scale="   40.755">  1  6  2 -1</clus>
<clus scale="  459.818">  4  5 -1 -1</clus>
<clus scale="  300.000">  1  4  2 -1</clus>
</clustering>
</event>
<event>
 6    1  0.9131597E-012  0.3000000E+03  0.7818608E-02  0.1093470E+00
          1   -1    0    0  502    0  0.00000000000E+00  0.00000000000E+00  0.23033702805E+03  0.23033702805E+03  0.00000000000E+00 0.  1.
         13   -1    0    0    0    0 -0.00000000000E+00 -0.00000000000E+00 -0.27500000000E+03  0.27500000000E+03  0.00000000000E+00 0.  1.
    9000005    2    1    2  501    0 -0.25965645859E+02 -0.24014501629E+02 -0.46295942250E+02  0.46993112960E+03  0.46630573795E+03 0.  0.
         13    1    3    3    0    0 -0.11162819508E+03 -0.26425660762E+02 -0.23564992468E+03  0.26208787931E+03  0.00000000000E+00 0.  1.
          1    1    3    3  501    0  0.85662549217E+02  0.24111591324E+01  0.18935398243E+03  0.20784325028E+03  0.00000000000E+00 0.  1.
         21    1    1    2  502  501  0.25965645859E+02  0.24014501629E+02  0.16329703012E+01  0.35405898455E+02  0.00000000000E+00 0. -1.
<scales pt_clust_4="550.00000" pt_clust_5="550.00000" pt_clust_6="35.36822"></scales>
<mgrwt>
<rscale>  0 0.30000000E+03</rscale>
<asrwt>  1 0.35368221E+02</asrwt>
<pdfrwt beam="1">  1        1 0.83758919E+00 0.30000000E+03</pdfrwt>
<pdfrwt beam="2">0</pdfrwt>
<totfact> 0.51703381E-04</totfact>
</mgrwt>
<clustering>
<clus scale="   35.368">  1  6  2 -1</clus>
<clus scale="  466.306">  4  5 -1 -1</clus>
<clus scale="  300.000">  1  4  2 -1</clus>
</clustering>
</event>
<event>
 6    1  0.9131597E-012  0.3000000E+03  0.7818608E-02  0.1093470E+00
          1   -1    0    0  502    0  0.00000000000E+00  0.00000000000E+00  0.22567467432E+03  0.22567467432E+03  0.00000000000E+00 0.  1.
         13   -1    0    0    0    0 -0.00000000000E+00 -0.00000000000E+00 -0.27500000000E+03  0.27500000000E+03  0.00000000000E+00 0.  1.
    9000005    2    1    2  501    0  0.27108646989E+02 -0.13496885956E+02 -0.69964366286E+02  0.46402750977E+03  0.45772204732E+03 0.  0.
         13    1    3    3    0    0 -0.15064304970E+03 -0.14146781374E+03 -0.12053620451E+03  0.23923930978E+03  0.00000000000E+00 0.  1.
          3    1    3    3  501    0  0.17775169669E+03  0.12797092778E+03  0.50571838226E+02  0.22478819999E+03  0.00000000000E+00 0.  1.
         21    1    1    2  502  501 -0.27108646989E+02  0.13496885956E+02  0.20639040603E+02  0.36647164544E+02  0.00000000000E+00 0. -1.
<scales pt_clust_4="550.00000" pt_clust_5="550.00000" pt_clust_6="30.28275"></scales>
<mgrwt>
<rscale>  0 0.30000000E+03</rscale>
<asrwt>  1 0.30282745E+02</asrwt>
<pdfrwt beam="1">  1        1 0.82063518E+00 0.30000000E+03</pdfrwt>
<pdfrwt beam="2">0</pdfrwt>
<totfact> 0.73402314E-04</totfact>
</mgrwt>
<clustering>
<clus scale="   30.283">  1  6  2 -1</clus>
<clus scale="  457.722">  4  5 -1 -1</clus>
<clus scale="  300.000">  1  4  2 -1</clus>
</clustering>
</event>
<event>
 6    1  0.9131597E-012  0.3000000E+03  0.7818608E-02  0.1093470E+00
          1   -1    0    0  502    0  0.00000000000E+00  0.00000000000E+00  0.24087442948E+03  0.24087442948E+03  0.00000000000E+00 0.  1.
         13   -1    0    0    0    0 -0.00000000000E+00 -0.00000000000E+00 -0.27500000000E+03  0.27500000000E+03  0.00000000000E+00 0.  1.
    9000005    2    1    2  501    0 -0.40817187117E+02 -0.16574956355E+02 -0.49703840544E+02  0.46914698102E+03  0.46442184067E+03 0.  0.
         13    1    3    3    0    0  0.19962056073E+03 -0.28663729795E+02 -0.97032362302E+02  0.22379735701E+03  0.00000000000E+00 0.  1.
          1    1    3    3  501    0 -0.24043774784E+03  0.12088773441E+02  0.47328521758E+02  0.24534962401E+03  0.00000000000E+00 0.  1.
         21    1    1    2  502  501  0.40817187117E+02  0.16574956355E+02  0.15578270019E+02  0.46727448455E+02  0.00000000000E+00 0.  1.
<scales pt_clust_4="550.00000" pt_clust_5="550.00000" pt_clust_6="44.05419"></scales>
<mgrwt>
<rscale>  0 0.30000000E+03</rscale>
<asrwt>  1 0.44054193E+02</asrwt>
<pdfrwt beam="1">  1        1 0.87590702E+00 0.30000000E+03</pdfrwt>
<pdfrwt beam="2">0</pdfrwt>
<totfact> 0.21089079E-04</totfact>
</mgrwt>
<clustering>
<clus scale="   44.054">  1  6  2 -1</clus>
<clus scale="  464.422">  4  5 -1 -1</clus>
<clus scale="  300.000">  1  4  2 -1</clus>
</clustering>
</event>
<event>
 6    1  0.9131597E-012  0.3000000E+03  0.7818608E-02  0.1093470E+00
          1   -1    0    0  502    0  0.00000000000E+00  0.00000000000E+00  0.24404478587E+03  0.24404478587E+03  0.00000000000E+00 0.  1.
         13   -1    0    0    0    0 -0.00000000000E+00 -0.00000000000E+00 -0.27500000000E+03  0.27500000000E+03  0.00000000000E+00 0.  1.
    9000005    2    1    2  501    0  0.96836084432E+01 -0.29088277169E+02 -0.51914709117E+02  0.48190719614E+03  0.47812080955E+03 0.  0.
         13    1    3    3    0    0  0.18109948114E+03 -0.17446848554E+03 -0.53691646792E+02  0.25713628186E+03  0.00000000000E+00 0.  1.
          3    1    3    3  501    0 -0.17141587269E+03  0.14538020837E+03  0.17769376753E+01  0.22477091428E+03  0.00000000000E+00 0.  1.
         21    1    1    2  502  501 -0.96836084432E+01  0.29088277169E+02  0.20959494986E+02  0.37137589733E+02  0.00000000000E+00 0. -1.
<scales pt_clust_4="550.00000" pt_clust_5="550.00000" pt_clust_6="30.65779"></scales>
<mgrwt>
<rscale>  0 0.30000000E+03</rscale>
<asrwt>  1 0.30657791E+02</asrwt>
<pdfrwt beam="1">  1        1 0.88743558E+00 0.30000000E+03</pdfrwt>
<pdfrwt beam="2">0</pdfrwt>
<totfact> 0.16107181E-04</totfact>
</mgrwt>
<clustering>
<clus scale="   30.658">  1  6  2 -1</clus>
<clus scale="  478.121">  4  5 -1 -1</clus>
<clus scale="  300.000">  1  4  2 -1</clus>
</clustering>
</event>
<event>
 6    1  0.9131597E-012  0.3000000E+03  0.7818608E-02  0.1093470E+00
          1   -1    0    0  502    0  0.00000000000E+00  0.00000000000E+00  0.25009296990E+03  0.25009296990E+03  0.00000000000E+00 0.  1.
         13   -1    0    0    0    0 -0.00000000000E+00 -0.00000000000E+00 -0.27500000000E+03  0.27500000000E+03  0.00000000000E+00 0.  1.
    9000005    2    1    2  501    0  0.43820427911E+02 -0.23766418090E+02 -0.46512628505E+02  0.47076181481E+03  0.46579844261E+03 0.  0.
         13    1    3    3    0    0 -0.17660044215E+02  0.14563872887E+03 -0.19024953325E+03  0.24024446177E+03  0.00000000000E+00 0.  1.
          3    1    3    3  501    0  0.61480472126E+02 -0.16940514696E+03  0.14373690474E+03  0.23051735304E+03  0.00000000000E+00 0.  1.
         21    1    1    2  502  501 -0.43820427911E+02  0.23766418090E+02  0.21605598407E+02  0.54331155093E+02  0.00000000000E+00 0. -1.
<scales pt_clust_4="550.00000" pt_clust_5="550.00000" pt_clust_6="49.85050"></scales>
<mgrwt>
<rscale>  0 0.30000000E+03</rscale>
<asrwt>  1 0.49850502E+02</asrwt>
<pdfrwt beam="1">  1        1 0.90942898E+00 0.30000000E+03</pdfrwt>
<pdfrwt beam="2">0</pdfrwt>
<totfact> 0.69570446E-05</totfact>
</mgrwt>
<clustering>
<clus scale="   49.851">  1  6  2 -1</clus>
<clus scale="  465.798">  4  5 -1 -1</clus>
<clus scale="  300.000">  1  4  2 -1</clus>
</clustering>
</event>
<event>
 6    1  0.9131597E-012  0.3000000E+03  0.7818608E-02  0.1093470E+00
          1   -1    0    0  502    0  0.00000000000E+00  0.00000000000E+00  0.23689966353E+03  0.23689966353E+03  0.00000000000E+00 0.  1.
         13   -1    0    0    0    0 -0.00000000000E+00 -0.00000000000E+00 -0.27500000000E+03  0.27500000000E+03  0.00000000000E+00 0.  1.
    9000005    2    1    2  501    0  0.30219623667E+02 -0.91304247754E+01 -0.64875832968E+02  0.47050500779E+03  0.46494031697E+03 0.  0.
         13    1    3    3    0    0  0.15287018042E+03 -0.39215176920E+02  0.15227318273E+03  0.21930399983E+03  0.00000000000E+00 0.  1.
          3    1    3    3  501    0 -0.12265055675E+03  0.30084752144E+02 -0.21714901569E+03  0.25120100796E+03  0.00000000000E+00 0.  1.
         21    1    1    2  502  501 -0.30219623667E+02  0.91304247754E+01  0.26775496497E+02  0.41394655740E+02  0.00000000000E+00 0.  1.
<scales pt_clust_4="550.00000" pt_clust_5="550.00000" pt_clust_6="31.56882"></scales>
<mgrwt>
<rscale>  0 0.30000000E+03</rscale>
<asrwt>  1 0.31568819E+02</asrwt>
<pdfrwt beam="1">  1        1 0.86145332E+00 0.30000000E+03</pdfrwt>
<pdfrwt beam="2">0</pdfrwt>
<totfact> 0.31819698E-04</totfact>
</mgrwt>
<clustering>
<clus scale="   31.569">  1  6  2 -1</clus>
<clus scale="  464.940">  4  5 -1 -1</clus>
<clus scale="  300.000">  1  4  2 -1</clus>
</clustering>
</event>
<event>
 6    1  0.9131597E-012  0.3000000E+03  0.7818608E-02  0.1093470E+00
          1   -1    0    0  502    0  0.00000000000E+00  0.00000000000E+00  0.24667405751E+03  0.24667405751E+03  0.00000000000E+00 0.  1.
         13   -1    0    0    0    0 -0.00000000000E+00 -0.00000000000E+00 -0.27500000000E+03  0.27500000000E+03  0.00000000000E+00 0.  1.
    9000005    2    1    2  501    0  0.17138057204E+02  0.28203029138E+02 -0.57874130014E+02  0.47737711356E+03  0.47270537311E+03 0.  0.
         13    1    3    3    0    0  0.46800529477E+02 -0.36392927612E+02  0.20066770235E+03  0.20924211217E+03  0.00000000000E+00 0.  1.
          1    1    3    3  501    0 -0.29662472273E+02  0.64595956750E+02 -0.25854183236E+03  0.26813500139E+03  0.00000000000E+00 0.  1.
         21    1    1    2  502  501 -0.17138057204E+02 -0.28203029138E+02  0.29548187520E+02  0.44296943947E+02  0.00000000000E+00 0. -1.
<scales pt_clust_4="550.00000" pt_clust_5="550.00000" pt_clust_6="33.00188"></scales>
<mgrwt>
<rscale>  0 0.30000000E+03</rscale>
<asrwt>  1 0.33001877E+02</asrwt>
<pdfrwt beam="1">  1        1 0.89699657E+00 0.30000000E+03</pdfrwt>
<pdfrwt beam="2">0</pdfrwt>
<totfact> 0.12111384E-04</totfact>
</mgrwt>
<clustering>
<clus scale="   33.002">  1  6  2 -1</clus>
<clus scale="  472.705">  4  5 -1 -1</clus>
<clus scale="  300.000">  1  4  2 -1</clus>
</clustering>
</event>
<event>
 6    1  0.9131597E-012  0.3000000E+03  0.7818608E-02  0.1093470E+00
          1   -1    0    0  502    0  0.00000000000E+00  0.00000000000E+00  0.21995896444E+03  0.21995896444E+03  0.00000000000E+00 0.  1.
         13   -1    0    0    0    0 -0.00000000000E+00 -0.00000000000E+00 -0.27500000000E+03  0.27500000000E+03  0.00000000000E+00 0.  1.
    9000005    2    1    2  501    0  0.31399886628E+02 -0.11145937243E+02 -0.45622131425E+02  0.46033382109E+03  0.45685409396E+03 0.  0.
         13    1    3    3    0    0  0.21053858123E+02 -0.11060341021E+03 -0.22690442333E+03  0.25330218439E+03  0.00000000000E+00 0.  1.
          1    1    3    3  501    0  0.10346028505E+02  0.99457472967E+02  0.18128229190E+03  0.20703163670E+03  0.00000000000E+00 0.  1.
         21    1    1    2  502  501 -0.31399886628E+02  0.11145937243E+02 -0.94189041306E+01  0.34625143355E+02  0.00000000000E+00 0.  1.
<scales pt_clust_4="550.00000" pt_clust_5="550.00000" pt_clust_6="33.31945"></scales>
<mgrwt>
<rscale>  0 0.30000000E+03</rscale>
<asrwt>  1 0.33319452E+02</asrwt>
<pdfrwt beam="1">  1        1 0.79985078E+00 0.30000000E+03</pdfrwt>
<pdfrwt beam="2">0</pdfrwt>
<totfact> 0.10492609E-03</totfact>
</mgrwt>
<clustering>
<clus scale="   33.319">  1  6  2 -1</clus>
<clus scale="  456.854">  4  5 -1 -1</clus>
<clus scale="  300.000">  1  4  2 -1</clus>
</clustering>
</event>
<event>
 6    1  0.9131597E-012  0.3000000E+03  0.7818608E-02  0.1093470E+00
          1   -1    0    0  502    0  0.00000000000E+00  0.00000000000E+00  0.23473665162E+03  0.23473665162E+03  0.00000000000E+00 0.  1.
         13   -1    0    0    0    0 -0.00000000000E+00 -0.00000000000E+00 -0.27500000000E+03  0.27500000000E+03  0.00000000000E+00 0.  1.
    9000005    2    1    2  501    0  0.18627156744E+02  0.32381606998E+02 -0.56091305066E+02  0.46916494161E+03  0.46429943840E+03 0.  0.
         13    1    3    3    0    0 -0.58229171020E+02 -0.17972554137E+03  0.80583848257E+02  0.20539148760E+03  0.00000000000E+00 0.  1.
          1    1    3    3  501    0  0.76856327764E+02  0.21210714837E+03 -0.13667515332E+03  0.26377345401E+03  0.00000000000E+00 0.  1.
         21    1    1    2  502  501 -0.18627156744E+02 -0.32381606998E+02  0.15827956689E+02  0.40571710010E+02  0.00000000000E+00 0. -1.
<scales pt_clust_4="550.00000" pt_clust_5="550.00000" pt_clust_6="37.35692"></scales>
<mgrwt>
<rscale>  0 0.30000000E+03</rscale>
<asrwt>  1 0.37356920E+02</asrwt>
<pdfrwt beam="1">  1        1 0.85358782E+00 0.30000000E+03</pdfrwt>
<pdfrwt beam="2">0</pdfrwt>
<totfact> 0.37158062E-04</totfact>
</mgrwt>
<clustering>
<clus scale="   37.357">  1  6  2 -1</clus>
<clus scale="  464.299">  4  5 -1 -1</clus>
<clus scale="  300.000">  1  4  2 -1</clus>
</clustering>
</event>
<event>
 6    1  0.9131597E-012  0.3000000E+03  0.7818608E-02  0.1093470E+00
          1   -1    0    0  502    0  0.00000000000E+00  0.00000000000E+00  0.22988377933E+03  0.22988377933E+03  0.00000000000E+00 0.  1.
         13   -1    0    0    0    0 -0.00000000000E+00 -0.00000000000E+00 -0.27500000000E+03  0.27500000000E+03  0.00000000000E+00 0.  1.
    9000005    2    1    2  501    0  0.14389067001E+02  0.29030488381E+02 -0.54821459095E+02  0.47106061926E+03  0.46673643540E+03 0.  0.
         13    1    3    3    0    0 -0.14443795571E+03  0.82869030552E+01 -0.20538803665E+03  0.25122746946E+03  0.00000000000E+00 0.  1.
          1    1    3    3  501    0  0.15882702271E+03  0.20743585326E+02  0.15056657755E+03  0.21983314980E+03  0.00000000000E+00 0.  1.
         21    1    1    2  502  501 -0.14389067001E+02 -0.29030488381E+02  0.97052384300E+01  0.33823160080E+02  0.00000000000E+00 0.  1.
<scales pt_clust_4="550.00000" pt_clust_5="550.00000" pt_clust_6="32.40084"></scales>
<mgrwt>
<rscale>  0 0.30000000E+03</rscale>
<asrwt>  1 0.32400841E+02</asrwt>
<pdfrwt beam="1">  1        1 0.83594102E+00 0.30000000E+03</pdfrwt>
<pdfrwt beam="2">0</pdfrwt>
<totfact> 0.54032694E-04</totfact>
</mgrwt>
<clustering>
<clus scale="   32.401">  1  6  2 -1</clus>
<clus scale="  466.736">  4  5 -1 -1</clus>
<clus scale="  300.000">  1  4  2 -1</clus>
</clustering>
</event>
<event>
 6    1  0.9131597E-012  0.3000000E+03  0.7818608E-02  0.1093470E+00
          1   -1    0    0  502    0  0.00000000000E+00  0.00000000000E+00  0.23783730860E+03  0.23783730860E+03  0.00000000000E+00 0.  1.
         13   -1    0    0    0    0 -0.00000000000E+00 -0.00000000000E+00 -0.27500000000E+03  0.27500000000E+03  0.00000000000E+00 0.  1.
    9000005    2    1    2  501    0 -0.19298138805E+02 -0.29456993196E+02 -0.64384437953E+02  0.46832712892E+03  0.46254168593E+03 0.  0.
         13    1    3    3    0    0 -0.18136020713E+03 -0.10939760713E+03  0.90502420999E+02  0.23032596333E+03  0.00000000000E+00 0.  1.
          3    1    3    3  501    0  0.16206206833E+03  0.79940613938E+02 -0.15488685895E+03  0.23800116559E+03  0.00000000000E+00 0.  1.
         21    1    1    2  502  501  0.19298138805E+02  0.29456993196E+02  0.27221746551E+02  0.44510179676E+02  0.00000000000E+00 0. -1.
<scales pt_clust_4="550.00000" pt_clust_5="550.00000" pt_clust_6="35.21552"></scales>
<mgrwt>
<rscale>  0 0.30000000E+03</rscale>
<asrwt>  1 0.35215517E+02</asrwt>
<pdfrwt beam="1">  1        1 0.86486294E+00 0.30000000E+03</pdfrwt>
<pdfrwt beam="2">0</pdfrwt>
<totfact> 0.28634528E-04</totfact>
</mgrwt>
<clustering>
<clus scale="   35.216">  1  6  2 -1</clus>
<clus scale="  462.542">  4  5 -1 -1</clus>
<clus scale="  300.000">  1  4  2 -1</clus>
</clustering>
</event>
<event>
 6    1  0.9131597E-012  0.3000000E+03  0.7818608E-02  0.1093470E+00
          1   -1    0    0  502    0  0.00000000000E+00  0.00000000000E+00  0.24151216773E+03  0.24151216773E+03  0.00000000000E+00 0.  1.
         13   -1    0    0    0    0 -0.00000000000E+00 -0.00000000000E+00 -0.27500000000E+03  0.27500000000E+03  0.00000000000E+00 0.  1.
    9000005    2    1    2  501    0 -0.18222200210E+02  0.41407847191E+02 -0.41353923972E+02  0.47059339392E+03  0.46658475863E+03 0.  0.
         13    1    3    3    0    0 -0.38461113798E+02 -0.12849275956E+03  0.15841286718E+03  0.20756753846E+03  0.00000000000E+00 0.  1.
          1    1    3    3  501    0  0.20238913588E+02  0.16990060675E+03 -0.19976679115E+03  0.26302585546E+03  0.00000000000E+00 0.  1.
         21    1    1    2  502  501  0.18222200210E+02 -0.41407847191E+02  0.78660917010E+01  0.45918773809E+02  0.00000000000E+00 0.  1.
<scales pt_clust_4="550.00000" pt_clust_5="550.00000" pt_clust_6="45.24001"></scales>
<mgrwt>
<rscale>  0 0.30000000E+03</rscale>
<asrwt>  1 0.45240009E+02</asrwt>
<pdfrwt beam="1">  1        1 0.87822606E+00 0.30000000E+03</pdfrwt>
<pdfrwt beam="2">0</pdfrwt>
<totfact> 0.19776111E-04</totfact>
</mgrwt>
<clustering>
<clus scale="   45.240">  1  6  2 -1</clus>
<clus scale="  466.585">  4  5 -1 -1</clus>
<clus scale="  300.000">  1  4  2 -1</clus>
</clustering>
</event>
<event>
 6    1  0.9131597E-012  0.3000000E+03  0.7818608E-02  0.1093470E+00
          1   -1    0    0  502    0  0.00000000000E+00  0.00000000000E+00  0.23783631493E+03  0.23783631493E+03  0.00000000000E+00 0.  1.
         13   -1    0    0    0    0 -0.00000000000E+00 -0.00000000000E+00 -0.27500000000E+03  0.27500000000E+03  0.00000000000E+00 0.  1.
    9000005    2    1    2  501    0 -0.90758536927E+01  0.32096189030E+02 -0.32717612969E+02  0.47918658941E+03  0.47690335374E+03 0.  0.
         13    1    3    3    0    0  0.83635864465E+02  0.39328841325E+02 -0.23719043226E+03  0.25456043828E+03  0.00000000000E+00 0.  1.
          1    1    3    3  501    0 -0.92711718158E+02 -0.72326522954E+01  0.20447281929E+03  0.22462615113E+03  0.00000000000E+00 0.  1.
         21    1    1    2  502  501  0.90758536927E+01 -0.32096189030E+02 -0.44460720978E+01  0.33649725520E+02  0.00000000000E+00 0. -1.
<scales pt_clust_4="550.00000" pt_clust_5="550.00000" pt_clust_6="33.35472"></scales>
<mgrwt>
<rscale>  0 0.30000000E+03</rscale>
<asrwt>  1 0.33354724E+02</asrwt>
<pdfrwt beam="1">  1        1 0.86485933E+00 0.30000000E+03</pdfrwt>
<pdfrwt beam="2">0</pdfrwt>
<totfact> 0.28930453E-04</totfact>
</mgrwt>
<clustering>
<clus scale="   33.355">  1  6  2 -1</clus>
<clus scale="  476.903">  4  5 -1 -1</clus>
<clus scale="  300.000">  1  4  2 -1</clus>
</clustering>
</event>
<event>
 6    1  0.9131597E-012  0.3000000E+03  0.7818608E-02  0.1093470E+00
          1   -1    0    0  502    0  0.00000000000E+00  0.00000000000E+00  0.25736456005E+03  0.25736456005E+03  0.00000000000E+00 0.  1.
         13   -1    0    0    0    0 -0.00000000000E+00 -0.00000000000E+00 -0.27500000000E+03  0.27500000000E+03  0.00000000000E+00 0.  1.
    9000005    2    1    2  501    0 -0.35673882041E+02  0.37100587516E+02 -0.44082354884E+02  0.47449817289E+03  0.46963409438E+03 0.  0.
         13    1    3    3    0    0  0.20036665737E+03 -0.16534108714E+02 -0.10224185551E+03  0.22555170395E+03  0.00000000000E+00 0.  1.
          3    1    3    3  501    0 -0.23604053941E+03  0.53634696229E+02  0.58159500628E+02  0.24894646894E+03  0.00000000000E+00 0.  1.
         21    1    1    2  502  501  0.35673882041E+02 -0.37100587516E+02  0.26446914937E+02  0.57866387165E+02  0.00000000000E+00 0.  1.
<scales pt_clust_4="550.00000" pt_clust_5="550.00000" pt_clust_6="51.46921"></scales>
<mgrwt>
<rscale>  0 0.30000000E+03</rscale>
<asrwt>  1 0.51469209E+02</asrwt>
<pdfrwt beam="1">  1        1 0.93587113E+00 0.30000000E+03</pdfrwt>
<pdfrwt beam="2">0</pdfrwt>
<totfact> 0.20500647E-05</totfact>
</mgrwt>
<clustering>
<clus scale="   51.469">  1  6  2 -1</clus>
<clus scale="  469.634">  4  5 -1 -1</clus>
<clus scale="  300.000">  1  4  2 -1</clus>
</clustering>
</event>
<event>
 6    1  0.9131597E-012  0.3000000E+03  0.7818608E-02  0.1093470E+00
          1   -1    0    0  502    0  0.00000000000E+00  0.00000000000E+00  0.22964293361E+03  0.22964293361E+03  0.00000000000E+00 0.  1.
         13   -1    0    0    0    0 -0.00000000000E+00 -0.00000000000E+00 -0.27500000000E+03  0.27500000000E+03  0.00000000000E+00 0.  1.
    9000005    2    1    2  501    0 -0.31062296505E+02  0.87150204218E+01 -0.67046309246E+02  0.46576824903E+03  0.45978694673E+03 0.  0.
         13    1    3    3    0    0  0.18501416812E+03 -0.60623102279E+02  0.62483338712E+02  0.20447388721E+03  0.00000000000E+00 0.  1.
          1    1    3    3  501    0 -0.21607646462E+03  0.69338122700E+02 -0.12952964796E+03  0.26129436183E+03  0.00000000000E+00 0.  1.
         21    1    1    2  502  501  0.31062296505E+02 -0.87150204218E+01  0.21689242855E+02  0.38874684575E+02  0.00000000000E+00 0.  1.
<scales pt_clust_4="550.00000" pt_clust_5="550.00000" pt_clust_6="32.26171"></scales>
<mgrwt>
<rscale>  0 0.30000000E+03</rscale>
<asrwt>  1 0.32261709E+02</asrwt>
<pdfrwt beam="1">  1        1 0.83506521E+00 0.30000000E+03</pdfrwt>
<pdfrwt beam="2">0</pdfrwt>
<totfact> 0.54875772E-04</totfact>
</mgrwt>
<clustering>
<clus scale="   32.262">  1  6  2 -1</clus>
<clus scale="  459.787">  4  5 -1 -1</clus>
<clus scale="  300.000">  1  4  2 -1</clus>
</clustering>
</event>
<event>
 6    1  0.9131597E-012  0.3000000E+03  0.7818608E-02  0.1093470E+00
          1   -1    0    0  502    0  0.00000000000E+00  0.00000000000E+00  0.23096200239E+03  0.23096200239E+03  0.00000000000E+00 0.  1.
         13   -1    0    0    0    0 -0.00000000000E+00 -0.00000000000E+00 -0.27500000000E+03  0.27500000000E+03  0.00000000000E+00 0.  1.
    9000005    2    1    2  501    0  0.39248409596E+02  0.94930788732E+01 -0.58523887433E+02  0.46306215150E+03  0.45757070989E+03 0.  0.
         13    1    3    3    0    0 -0.20132640592E+03 -0.39721807813E+02 -0.71119138250E+02  0.21718212532E+03  0.00000000000E+00 0.  1.
          3    1    3    3  501    0  0.24057481551E+03  0.49214886686E+02  0.12595250817E+02  0.24588002618E+03  0.00000000000E+00 0.  1.
         21    1    1    2  502  501 -0.39248409596E+02 -0.94930788732E+01  0.14485889823E+02  0.42899850889E+02  0.00000000000E+00 0.  1.
<scales pt_clust_4="550.00000" pt_clust_5="550.00000" pt_clust_6="40.38015"></scales>
<mgrwt>
<rscale>  0 0.30000000E+03</rscale>
<asrwt>  1 0.40380146E+02</asrwt>
<pdfrwt beam="1">  1        1 0.83986183E+00 0.30000000E+03</pdfrwt>
<pdfrwt beam="2">0</pdfrwt>
<totfact> 0.48527546E-04</totfact>
</mgrwt>
<clustering>
<clus scale="   40.380">  1  6  2 -1</clus>
<clus scale="  457.571">  4  5 -1 -1</clus>
<clus scale="  300.000">  1  4  2 -1</clus>
</clustering>
</event>
<event>
 6    1  0.9131597E-012  0.3000000E+03  0.7818608E-02  0.1093470E+00
          1   -1    0    0  502    0  0.00000000000E+00  0.00000000000E+00  0.21968157134E+03  0.21968157134E+03  0.00000000000E+00 0.  1.
         13   -1    0    0    0    0 -0.00000000000E+00 -0.00000000000E+00 -0.27500000000E+03  0.27500000000E+03  0.00000000000E+00 0.  1.
    9000005    2    1    2  501    0 -0.22089346439E+02 -0.20310202223E+02 -0.67387766018E+02  0.46233790976E+03  0.45641514901E+03 0.  0.
         13    1    3    3    0    0  0.59213977934E+02  0.17619473883E+03  0.81271458124E+02  0.20286924626E+03  0.00000000000E+00 0.  1.
          3    1    3    3  501    0 -0.81303324374E+02 -0.19650494105E+03 -0.14865922414E+03  0.25946866349E+03  0.00000000000E+00 0.  1.
         21    1    1    2  502  501  0.22089346439E+02  0.20310202223E+02  0.12069337358E+02  0.32343661585E+02  0.00000000000E+00 0.  1.
<scales pt_clust_4="550.00000" pt_clust_5="550.00000" pt_clust_6="30.00739"></scales>
<mgrwt>
<rscale>  0 0.30000000E+03</rscale>
<asrwt>  1 0.30007391E+02</asrwt>
<pdfrwt beam="1">  1        1 0.79884208E+00 0.30000000E+03</pdfrwt>
<pdfrwt beam="2">0</pdfrwt>
<totfact> 0.10885567E-03</totfact>
</mgrwt>
<clustering>
<clus scale="   30.007">  1  6  2 -1</clus>
<clus scale="  456.415">  4  5 -1 -1</clus>
<clus scale="  300.000">  1  4  2 -1</clus>
</clustering>
</event>
<event>
 6    1  0.9131597E-012  0.3000000E+03  0.7818608E-02  0.1093470E+00
          1   -1    0    0  502    0  0.00000000000E+00  0.00000000000E+00  0.24595770065E+03  0.24595770065E+03  0.00000000000E+00 0.  1.
         13   -1    0    0    0    0 -0.00000000000E+00 -0.00000000000E+00 -0.27500000000E+03  0.27500000000E+03  0.00000000000E+00 0.  1.
    9000005    2    1    2  501    0  0.36634061310E+02 -0.72734875422E+01 -0.62167008022E+02  0.47103571758E+03  0.46541911465E+03 0.  0.
         13    1    3    3    0    0  0.21277791003E+03 -0.85488236259E+02 -0.13372412246E+03  0.26545210202E+03  0.00000000000E+00 0.  1.
          3    1    3    3  501    0 -0.17614384872E+03  0.78214748717E+02  0.71557114443E+02  0.20558361556E+03  0.00000000000E+00 0.  1.
         21    1    1    2  502  501 -0.36634061310E+02  0.72734875422E+01  0.33124708668E+02  0.49921983068E+02  0.00000000000E+00 0. -1.
<scales pt_clust_4="550.00000" pt_clust_5="550.00000" pt_clust_6="37.34914"></scales>
<mgrwt>
<rscale>  0 0.30000000E+03</rscale>
<asrwt>  1 0.37349137E+02</asrwt>
<pdfrwt beam="1">  1        1 0.89439164E+00 0.30000000E+03</pdfrwt>
<pdfrwt beam="2">0</pdfrwt>
<totfact> 0.12656117E-04</totfact>
</mgrwt>
<clustering>
<clus scale="   37.349">  1  6  2 -1</clus>
<clus scale="  465.419">  4  5 -1 -1</clus>
<clus scale="  300.000">  1  4  2 -1</clus>
</clustering>
</event>
<event>
 6    1  0.9131597E-012  0.3000000E+03  0.7818608E-02  0.1093470E+00
          1   -1    0    0  502    0  0.00000000000E+00  0.00000000000E+00  0.23862981615E+03  0.23862981615E+03  0.00000000000E+00 0.  1.
         13   -1    0    0    0    0 -0.00000000000E+00 -0.00000000000E+00 -0.27500000000E+03  0.27500000000E+03  0.00000000000E+00 0.  1.
    9000005    2    1    2  501    0  0.24443851275E+02  0.18066439928E+02 -0.57756263547E+02  0.47646447582E+03  0.47197321177E+03 0.  0.
         13    1    3    3    0    0  0.51445269459E+02  0.64556098162E-01  0.20518097406E+03  0.21153215366E+03  0.00000000000E+00 0.  1.
          3    1    3    3  501    0 -0.27001418184E+02  0.18001883830E+02 -0.26293723761E+03  0.26493232216E+03  0.00000000000E+00 0.  1.
         21    1    1    2  502  501 -0.24443851275E+02 -0.18066439928E+02  0.21386079701E+02  0.37165340329E+02  0.00000000000E+00 0.  1.
<scales pt_clust_4="550.00000" pt_clust_5="550.00000" pt_clust_6="30.39569"></scales>
<mgrwt>
<rscale>  0 0.30000000E+03</rscale>
<asrwt>  1 0.30395692E+02</asrwt>
<pdfrwt beam="1">  1        1 0.86774479E+00 0.30000000E+03</pdfrwt>
<pdfrwt beam="2">0</pdfrwt>
<totfact> 0.27441589E-04</totfact>
</mgrwt>
<clustering>
<clus scale="   30.396">  1  6  2 -1</clus>
<clus scale="  471.973">  4  5 -1 -1</clus>
<clus scale="  300.000">  1  4  2 -1</clus>
</clustering>
</event>
<event>
 6    1  0.9131597E-012  0.3000000E+03  0.7818608E-02  0.1093470E+00
          1   -1    0    0  502    0  0.00000000000E+00  0.00000000000E+00  0.23570273709E+03  0.23570273709E+03  0.00000000000E+00 0.  1.
         13   -1    0    0    0    0 -0.00000000000E+00 -0.00000000000E+00 -0.27500000000E+03  0.27500000000E+03  0.00000000000E+00 0.  1.
    9000005    2    1    2  501    0 -0.43542603901E+02 -0.13640824842E+02 -0.51850188191E+02  0.46337825727E+03  0.45820185163E+03 0.  0.
         13    1    3    3    0    0  0.19517438840E+03 -0.80528100348E+02 -0.57189107142E+01  0.21121203273E+03  0.00000000000E+00 0.  1.
          1    1    3    3  501    0 -0.23871699230E+03  0.66887275506E+02 -0.46131277476E+02  0.25216622454E+03  0.00000000000E+00 0.  1.
         21    1    1    2  502  501  0.43542603901E+02  0.13640824842E+02  0.12552925280E+02  0.47324479817E+02  0.00000000000E+00 0. -1.
<scales pt_clust_4="550.00000" pt_clust_5="550.00000" pt_clust_6="45.62927"></scales>
<mgrwt>
<rscale>  0 0.30000000E+03</rscale>
<asrwt>  1 0.45629272E+02</asrwt>
<pdfrwt beam="1">  1        1 0.85710086E+00 0.30000000E+03</pdfrwt>
<pdfrwt beam="2">0</pdfrwt>
<totfact> 0.33054717E-04</totfact>
</mgrwt>
<clustering>
<clus scale="   45.629">  1  6  2 -1</clus>
<clus scale="  458.202">  4  5 -1 -1</clus>
<clus scale="  300.000">  1  4  2 -1</clus>
</clustering>
</event>
<event>
 6    1  0.9131597E-012  0.3000000E+03  0.7818608E-02  0.1093470E+00
          1   -1    0    0  502    0  0.00000000000E+00  0.00000000000E+00  0.23338575663E+03  0.23338575663E+03  0.00000000000E+00 0.  1.
         13   -1    0    0    0    0 -0.00000000000E+00 -0.00000000000E+00 -0.27500000000E+03  0.27500000000E+03  0.00000000000E+00 0.  1.
    9000005    2    1    2  501    0 -0.11830807245E+02 -0.35535987542E+02 -0.65593755661E+02  0.46391338970E+03  0.45772297075E+03 0.  0.
         13    1    3    3    0    0  0.15216044722E+03  0.11524670643E+03  0.69778669272E+02  0.20323303798E+03  0.00000000000E+00 0.  1.
          3    1    3    3  501    0 -0.16399125447E+03 -0.15078269397E+03 -0.13537242493E+03  0.26068035172E+03  0.00000000000E+00 0.  1.
         21    1    1    2  502  501  0.11830807245E+02  0.35535987542E+02  0.23979512293E+02  0.44472366931E+02  0.00000000000E+00 0. -1.
<scales pt_clust_4="550.00000" pt_clust_5="550.00000" pt_clust_6="37.45363"></scales>
<mgrwt>
<rscale>  0 0.30000000E+03</rscale>
<asrwt>  1 0.37453630E+02</asrwt>
<pdfrwt beam="1">  1        1 0.84867548E+00 0.30000000E+03</pdfrwt>
<pdfrwt beam="2">0</pdfrwt>
<totfact> 0.41346646E-04</totfact>
</mgrwt>
<clustering>
<clus scale="   37.454">  1  6  2 -1</clus>
<clus scale="  457.723">  4  5 -1 -1</clus>
<clus scale="  300.000">  1  4  2 -1</clus>
</clustering>
</event>
<event>
 6    1  0.9131597E-012  0.3000000E+03  0.7818608E-02  0.1093470E+00
          1   -1    0    0  502    0  0.00000000000E+00  0.00000000000E+00  0.22201381685E+03  0.22201381685E+03  0.00000000000E+00 0.  1.
         13   -1    0    0    0    0 -0.00000000000E+00 -0.00000000000E+00 -0.27500000000E+03  0.27500000000E+03  0.00000000000E+00 0.  1.
    9000005    2    1    2  501    0 -0.12000492640E+02 -0.33188657591E+02 -0.56063660713E+02  0.46158826555E+03  0.45680969126E+03 0.  0.
         13    1    3    3    0    0  0.52748507903E+02  0.71499803338E+02  0.17698065904E+03  0.19803227171E+03  0.00000000000E+00 0.  1.
          3    1    3    3  501    0 -0.64749000543E+02 -0.10468846093E+03 -0.23304431975E+03  0.26355599385E+03  0.00000000000E+00 0.  1.
         21    1    1    2  502  501  0.12000492640E+02  0.33188657591E+02  0.30774775586E+01  0.35425551293E+02  0.00000000000E+00 0.  1.
<scales pt_clust_4="550.00000" pt_clust_5="550.00000" pt_clust_6="35.29163"></scales>
<mgrwt>
<rscale>  0 0.30000000E+03</rscale>
<asrwt>  1 0.35291625E+02</asrwt>
<pdfrwt beam="1">  1        1 0.80732297E+00 0.30000000E+03</pdfrwt>
<pdfrwt beam="2">0</pdfrwt>
<totfact> 0.91335034E-04</totfact>
</mgrwt>
<clustering>
<clus scale="   35.292">  1  6  2 -1</clus>
<clus scale="  456.810">  4  5 -1 -1</clus>
<clus scale="  300.000">  1  4  2 -1</clus>
</clustering>
</event>
<event>
 6    1  0.9131597E-012  0.3000000E+03  0.7818608E-02  0.1093470E+00
          1   -1    0    0  502    0  0.00000000000E+00  0.00000000000E+00  0.23421203491E+03  0.23421203491E+03  0.00000000000E+00 0.  1.
         13   -1    0    0    0    0 -0.00000000000E+00 -0.00000000000E+00 -0.27500000000E+03  0.27500000000E+03  0.00000000000E+00 0.  1.
    9000005    2    1    2  501    0 -0.71742614630E+01 -0.36878100203E+02 -0.61228549025E+02  0.46644193117E+03  0.46087707215E+03 0.  0.
         13    1    3    3    0    0 -0.17415572309E+03 -0.13944025849E+03  0.66170261833E+02  0.23270647847E+03  0.00000000000E+00 0.  1.
          1    1    3    3  501    0  0.16698146163E+03  0.10256215829E+03 -0.12739881086E+03  0.23373545270E+03  0.00000000000E+00 0.  1.
         21    1    1    2  502  501  0.71742614630E+01  0.36878100203E+02  0.20440583932E+02  0.42770103736E+02  0.00000000000E+00 0.  1.
<scales pt_clust_4="550.00000" pt_clust_5="550.00000" pt_clust_6="37.56946"></scales>
<mgrwt>
<rscale>  0 0.30000000E+03</rscale>
<asrwt>  1 0.37569460E+02</asrwt>
<pdfrwt beam="1">  1        1 0.85168013E+00 0.30000000E+03</pdfrwt>
<pdfrwt beam="2">0</pdfrwt>
<totfact> 0.38721816E-04</totfact>
</mgrwt>
<clustering>
<clus scale="   37.569">  1  6  2 -1</clus>
<clus scale="  460.877">  4  5 -1 -1</clus>
<clus scale="  300.000">  1  4  2 -1</clus>
</clustering>
</event>
<event>
 6    1  0.9131597E-012  0.3000000E+03  0.7818608E-02  0.1093470E+00
          1   -1    0    0  502    0  0.00000000000E+00  0.00000000000E+00  0.22782873072E+03  0.22782873072E+03  0.00000000000E+00 0.  1.
         13   -1    0    0    0    0 -0.00000000000E+00 -0.00000000000E+00 -0.27500000000E+03  0.27500000000E+03  0.00000000000E+00 0.  1.
    9000005    2    1    2  501    0 -0.31051941787E+02 -0.34103434337E+01 -0.69421053251E+02  0.46447633291E+03  0.45819551249E+03 0.  0.
         13    1    3    3    0    0 -0.18559747625E+03 -0.14687186484E+03  0.15414710014E+02  0.23718216872E+03  0.00000000000E+00 0.  1.
          3    1    3    3  501    0  0.15454553446E+03  0.14346152141E+03 -0.84835763265E+02  0.22729416419E+03  0.00000000000E+00 0.  1.
         21    1    1    2  502  501  0.31051941787E+02  0.34103434337E+01  0.22249783966E+02  0.38352397808E+02  0.00000000000E+00 0.  1.
<scales pt_clust_4="550.00000" pt_clust_5="550.00000" pt_clust_6="31.23865"></scales>
<mgrwt>
<rscale>  0 0.30000000E+03</rscale>
<asrwt>  1 0.31238654E+02</asrwt>
<pdfrwt beam="1">  1        1 0.82846811E+00 0.30000000E+03</pdfrwt>
<pdfrwt beam="2">0</pdfrwt>
<totfact> 0.62208504E-04</totfact>
</mgrwt>
<clustering>
<clus scale="   31.239">  1  6  2 -1</clus>
<clus scale="  458.196">  4  5 -1 -1</clus>
<clus scale="  300.000">  1  4  2 -1</clus>
</clustering>
</event>
<event>
 6    1  0.9131597E-012  0.3000000E+03  0.7818608E-02  0.1093470E+00
          1   -1    0    0  502    0  0.00000000000E+00  0.00000000000E+00  0.24635260931E+03  0.24635260931E+03  0.00000000000E+00 0.  1.
         13   -1    0    0    0    0 -0.00000000000E+00 -0.00000000000E+00 -0.27500000000E+03  0.27500000000E+03  0.00000000000E+00 0.  1.
    9000005    2    1    2  501    0  0.30396859556E+02  0.65130429695E+01 -0.34287582998E+02  0.48975829702E+03  0.48756657223E+03 0.  0.
         13    1    3    3    0    0 -0.59420901298E+02  0.17004631016E+03  0.14482082104E+03  0.23112693767E+03  0.00000000000E+00 0.  1.
          3    1    3    3  501    0  0.89817760854E+02 -0.16353326719E+03 -0.17910840404E+03  0.25863135935E+03  0.00000000000E+00 0.  1.
         21    1    1    2  502  501 -0.30396859556E+02 -0.65130429695E+01  0.56401923090E+01  0.31594312286E+02  0.00000000000E+00 0.  1.
<scales pt_clust_4="550.00000" pt_clust_5="550.00000" pt_clust_6="31.08679"></scales>
<mgrwt>
<rscale>  0 0.30000000E+03</rscale>
<asrwt>  1 0.31086795E+02</asrwt>
<pdfrwt beam="1">  1        1 0.89582767E+00 0.30000000E+03</pdfrwt>
<pdfrwt beam="2">0</pdfrwt>
<totfact> 0.12623491E-04</totfact>
</mgrwt>
<clustering>
<clus scale="   31.087">  1  6  2 -1</clus>
<clus scale="  487.567">  4  5 -1 -1</clus>
<clus scale="  300.000">  1  4  2 -1</clus>
</clustering>
</event>
<event>
 6    1  0.9131597E-012  0.3000000E+03  0.7818608E-02  0.1093470E+00
          1   -1    0    0  502    0  0.00000000000E+00  0.00000000000E+00  0.23207235812E+03  0.23207235812E+03  0.00000000000E+00 0.  1.
         13   -1    0    0    0    0 -0.00000000000E+00 -0.00000000000E+00 -0.27500000000E+03  0.27500000000E+03  0.00000000000E+00 0.  1.
    9000005    2    1    2  501    0  0.31942675741E+01  0.37812511612E+02 -0.44104571109E+02  0.46910691934E+03  0.46548480018E+03 0.  0.
         13    1    3    3    0    0 -0.55813928354E+02  0.18611021083E+03  0.12933181554E+03  0.23340720573E+03  0.00000000000E+00 0.  1.
          3    1    3    3  501    0  0.59008195928E+02 -0.14829769922E+03 -0.17343638665E+03  0.23569971361E+03  0.00000000000E+00 0.  1.
         21    1    1    2  502  501 -0.31942675741E+01 -0.37812511612E+02  0.11769292339E+01  0.37965438785E+02  0.00000000000E+00 0.  1.
<scales pt_clust_4="550.00000" pt_clust_5="550.00000" pt_clust_6="37.94719"></scales>
<mgrwt>
<rscale>  0 0.30000000E+03</rscale>
<asrwt>  1 0.37947192E+02</asrwt>
<pdfrwt beam="1">  1        1 0.84389948E+00 0.30000000E+03</pdfrwt>
<pdfrwt beam="2">0</pdfrwt>
<totfact> 0.45496165E-04</totfact>
</mgrwt>
<clustering>
<clus scale="   37.947">  1  6  2 -1</clus>
<clus scale="  465.485">  4  5 -1 -1</clus>
<clus scale="  300.000">  1  4  2 -1</clus>
</clustering>
</event>
<event>
 6    1  0.9131597E-012  0.3000000E+03  0.7818608E-02  0.1093470E+00
          1   -1    0    0  502    0  0.00000000000E+00  0.00000000000E+00  0.24407209496E+03  0.24407209496E+03  0.00000000000E+00 0.  1.
         13   -1    0    0    0    0 -0.00000000000E+00 -0.00000000000E+00 -0.27500000000E+03  0.27500000000E+03  0.00000000000E+00 0.  1.
    9000005    2    1    2  501    0  0.93231060029E+01 -0.28590456900E+02 -0.53853238072E+02  0.48125800465E+03  0.47728897039E+03 0.  0.
         13    1    3    3    0    0  0.12940698144E+03 -0.90366316854E+02  0.16229730439E+03  0.22639048805E+03  0.00000000000E+00 0.  1.
          3    1    3    3  501    0 -0.12008387544E+03  0.61775859954E+02 -0.21615054246E+03  0.25486751660E+03  0.00000000000E+00 0.  1.
         21    1    1    2  502  501 -0.93231060029E+01  0.28590456900E+02  0.22925333035E+02  0.37814090311E+02  0.00000000000E+00 0. -1.
<scales pt_clust_4="550.00000" pt_clust_5="550.00000" pt_clust_6="30.07216"></scales>
<mgrwt>
<rscale>  0 0.30000000E+03</rscale>
<asrwt>  1 0.30072155E+02</asrwt>
<pdfrwt beam="1">  1        1 0.88753489E+00 0.30000000E+03</pdfrwt>
<pdfrwt beam="2">0</pdfrwt>
<totfact> 0.16116114E-04</totfact>
</mgrwt>
<clustering>
<clus scale="   30.072">  1  6  2 -1</clus>
<clus scale="  477.289">  4  5 -1 -1</clus>
<clus scale="  300.000">  1  4  2 -1</clus>
</clustering>
</event>
<event>
 6    1  0.9131597E-012  0.3000000E+03  0.7818608E-02  0.1093470E+00
          1   -1    0    0  502    0  0.00000000000E+00  0.00000000000E+00  0.23347748895E+03  0.23347748895E+03  0.00000000000E+00 0.  1.
         13   -1    0    0    0    0 -0.00000000000E+00 -0.00000000000E+00 -0.27500000000E+03  0.27500000000E+03  0.00000000000E+00 0.  1.
    9000005    2    1    2  501    0 -0.22845205556E+02 -0.27873367792E+02 -0.37843611596E+02  0.47225094688E+03  0.46935060439E+03 0.  0.
         13    1    3    3    0    0 -0.11051198813E+03  0.19298499753E+03 -0.68410567744E+02  0.23267168837E+03  0.00000000000E+00 0.  1.
          3    1    3    3  501    0  0.87666782570E+02 -0.22085836532E+03  0.30566956148E+02  0.23957925851E+03  0.00000000000E+00 0.  1.
         21    1    1    2  502  501  0.22845205556E+02  0.27873367792E+02 -0.36788994590E+01  0.36226542068E+02  0.00000000000E+00 0. -1.
<scales pt_clust_4="550.00000" pt_clust_5="550.00000" pt_clust_6="36.03928"></scales>
<mgrwt>
<rscale>  0 0.30000000E+03</rscale>
<asrwt>  1 0.36039275E+02</asrwt>
<pdfrwt beam="1">  1        1 0.84900905E+00 0.30000000E+03</pdfrwt>
<pdfrwt beam="2">0</pdfrwt>
<totfact> 0.41347947E-04</totfact>
</mgrwt>
<clustering>
<clus scale="   36.039">  1  6  2 -1</clus>
<clus scale="  469.351">  4  5 -1 -1</clus>
<clus scale="  300.000">  1  4  2 -1</clus>
</clustering>
</event>
<event>
 6    1  0.9131597E-012  0.3000000E+03  0.7818608E-02  0.1093470E+00
          1   -1    0    0  502    0  0.00000000000E+00  0.00000000000E+00  0.23845113647E+03  0.23845113647E+03  0.00000000000E+00 0.  1.
         13   -1    0    0    0    0 -0.00000000000E+00 -0.00000000000E+00 -0.27500000000E+03  0.27500000000E+03  0.00000000000E+00 0.  1.
    9000005    2    1    2  501    0  0.14703911747E+02 -0.34469892447E+02 -0.60633873078E+02  0.46890378873E+03  0.46345433217E+03 0.  0.
         13    1    3    3    0    0  0.10660114252E+03 -0.22335058399E+03 -0.74331684251E+02  0.25840759710E+03  0.00000000000E+00 0.  1.
          1    1    3    3  501    0 -0.91897230774E+02  0.18888069154E+03  0.13697811173E+02  0.21049619163E+03  0.00000000000E+00 0.  1.
         21    1    1    2  502  501 -0.14703911747E+02  0.34469892447E+02  0.24085009546E+02  0.44547347741E+02  0.00000000000E+00 0.  1.
<scales pt_clust_4="550.00000" pt_clust_5="550.00000" pt_clust_6="37.47504"></scales>
<mgrwt>
<rscale>  0 0.30000000E+03</rscale>
<asrwt>  1 0.37475038E+02</asrwt>
<pdfrwt beam="1">  1        1 0.86709504E+00 0.30000000E+03</pdfrwt>
<pdfrwt beam="2">0</pdfrwt>
<totfact> 0.26796651E-04</totfact>
</mgrwt>
<clustering>
<clus scale="   37.475">  1  6  2 -1</clus>
<clus scale="  463.454">  4  5 -1 -1</clus>
<clus scale="  300.000">  1  4  2 -1</clus>
</clustering>
</event>
<event>
 6    1  0.9131597E-012  0.3000000E+03  0.7818608E-02  0.1093470E+00
          1   -1    0    0  502    0  0.00000000000E+00  0.00000000000E+00  0.22738263098E+03  0.22738263098E+03  0.00000000000E+00 0.  1.
         13   -1    0    0    0    0 -0.00000000000E+00 -0.00000000000E+00 -0.27500000000E+03  0.27500000000E+03  0.00000000000E+00 0.  1.
    9000005    2    1    2  501    0 -0.25379080794E+02  0.17391108042E+02 -0.59120487929E+02  0.46953647252E+03  0.46478244218E+03 0.  0.
         13    1    3    3    0    0  0.62357290841E+02 -0.16133217434E+03 -0.16926202114E+03  0.24200440905E+03  0.00000000000E+00 0.  1.
          1    1    3    3  501    0 -0.87736371635E+02  0.17872328238E+03  0.11014153321E+03  0.22753206348E+03  0.00000000000E+00 0.  1.
         21    1    1    2  502  501  0.25379080794E+02 -0.17391108042E+02  0.11503118912E+02  0.32846158460E+02  0.00000000000E+00 0.  1.
<scales pt_clust_4="550.00000" pt_clust_5="550.00000" pt_clust_6="30.76603"></scales>
<mgrwt>
<rscale>  0 0.30000000E+03</rscale>
<asrwt>  1 0.30766026E+02</asrwt>
<pdfrwt beam="1">  1        1 0.82684593E+00 0.30000000E+03</pdfrwt>
<pdfrwt beam="2">0</pdfrwt>
<totfact> 0.64452612E-04</totfact>
</mgrwt>
<clustering>
<clus scale="   30.766">  1  6  2 -1</clus>
<clus scale="  464.782">  4  5 -1 -1</clus>
<clus scale="  300.000">  1  4  2 -1</clus>
</clustering>
</event>
<event>
 6    1  0.9131597E-012  0.3000000E+03  0.7818608E-02  0.1093470E+00
          1   -1    0    0  502    0  0.00000000000E+00  0.00000000000E+00  0.22152719188E+03  0.22152719188E+03  0.00000000000E+00 0.  1.
         13   -1    0    0    0    0 -0.00000000000E+00 -0.00000000000E+00 -0.27500000000E+03  0.27500000000E+03  0.00000000000E+00 0.  1.
    9000005    2    1    2  501    0 -0.29683328711E+02  0.62202855419E+01 -0.66838837560E+02  0.46338442949E+03  0.45753459687E+03 0.  0.
         13    1    3    3    0    0  0.15138887611E+03  0.11656563296E+03  0.78233161439E+02  0.20646202107E+03  0.00000000000E+00 0.  1.
          3    1    3    3  501    0 -0.18107220482E+03 -0.11034534742E+03 -0.14507199900E+03  0.25692240842E+03  0.00000000000E+00 0.  1.
         21    1    1    2  502  501  0.29683328711E+02 -0.62202855419E+01  0.13366029438E+02  0.33142762385E+02  0.00000000000E+00 0. -1.
<scales pt_clust_4="550.00000" pt_clust_5="550.00000" pt_clust_6="30.32807"></scales>
<mgrwt>
<rscale>  0 0.30000000E+03</rscale>
<asrwt>  1 0.30328072E+02</asrwt>
<pdfrwt beam="1">  1        1 0.80555343E+00 0.30000000E+03</pdfrwt>
<pdfrwt beam="2">0</pdfrwt>
<totfact> 0.96974357E-04</totfact>
</mgrwt>
<clustering>
<clus scale="   30.328">  1  6  2 -1</clus>
<clus scale="  457.535">  4  5 -1 -1</clus>
<clus scale="  300.000">  1  4  2 -1</clus>
</clustering>
</event>
<event>
 6    1  0.9131597E-012  0.3000000E+03  0.7818608E-02  0.1093470E+00
          1   -1    0    0  502    0  0.00000000000E+00  0.00000000000E+00  0.22480555220E+03  0.22480555220E+03  0.00000000000E+00 0.  1.
         13   -1    0    0    0    0 -0.00000000000E+00 -0.00000000000E+00 -0.27500000000E+03  0.27500000000E+03  0.00000000000E+00 0.  1.
    9000005    2    1    2  501    0 -0.31160690838E+02  0.15480556678E+02 -0.62426692574E+02  0.46292379383E+03  0.45737371006E+03 0.  0.
         13    1    3    3    0    0  0.16727288594E+03 -0.68411866569E+02 -0.14550917232E+03  0.23202008768E+03  0.00000000000E+00 0.  1.
          1    1    3    3  501    0 -0.19843357678E+03  0.83892423247E+02  0.83082479747E+02  0.23090370615E+03  0.00000000000E+00 0.  1.
         21    1    1    2  502  501  0.31160690838E+02 -0.15480556678E+02  0.12232244773E+02  0.36881758374E+02  0.00000000000E+00 0. -1.
<scales pt_clust_4="550.00000" pt_clust_5="550.00000" pt_clust_6="34.79420"></scales>
<mgrwt>
<rscale>  0 0.30000000E+03</rscale>
<asrwt>  1 0.34794199E+02</asrwt>
<pdfrwt beam="1">  1        1 0.81747474E+00 0.30000000E+03</pdfrwt>
<pdfrwt beam="2">0</pdfrwt>
<totfact> 0.76065546E-04</totfact>
</mgrwt>
<clustering>
<clus scale="   34.794">  1  6  2 -1</clus>
<clus scale="  457.374">  4  5 -1 -1</clus>
<clus scale="  300.000">  1  4  2 -1</clus>
</clustering>
</event>
<event>
 6    1  0.9131597E-012  0.3000000E+03  0.7818608E-02  0.1093470E+00
          1   -1    0    0  502    0  0.00000000000E+00  0.00000000000E+00  0.24222761317E+03  0.24222761317E+03  0.00000000000E+00 0.  1.
         13   -1    0    0    0    0 -0.00000000000E+00 -0.00000000000E+00 -0.27500000000E+03  0.27500000000E+03  0.00000000000E+00 0.  1.
    9000005    2    1    2  501    0  0.82502147259E+01 -0.32975570894E+02 -0.67339599126E+02  0.46874724101E+03  0.46263797945E+03 0.  0.
         13    1    3    3    0    0 -0.12374023628E+02  0.11710476092E+03  0.15810075777E+03  0.19713571746E+03  0.00000000000E+00 0.  1.
          1    1    3    3  501    0  0.20624238354E+02 -0.15008033181E+03 -0.22544035690E+03  0.27161152355E+03  0.00000000000E+00 0.  1.
         21    1    1    2  502  501 -0.82502147259E+01  0.32975570894E+02  0.34567212296E+02  0.48480372160E+02  0.00000000000E+00 0. -1.
<scales pt_clust_4="550.00000" pt_clust_5="550.00000" pt_clust_6="33.99197"></scales>
<mgrwt>
<rscale>  0 0.30000000E+03</rscale>
<asrwt>  1 0.33991974E+02</asrwt>
<pdfrwt beam="1">  1        1 0.88082768E+00 0.30000000E+03</pdfrwt>
<pdfrwt beam="2">0</pdfrwt>
<totfact> 0.19379702E-04</totfact>
</mgrwt>
<clustering>
<clus scale="   33.992">  1  6  2 -1</clus>
<clus scale="  462.638">  4  5 -1 -1</clus>
<clus scale="  300.000">  1  4  2 -1</clus>
</clustering>
</event>
<event>
 6    1  0.9131597E-012  0.3000000E+03  0.7818608E-02  0.1093470E+00
          1   -1    0    0  502    0  0.00000000000E+00  0.00000000000E+00  0.22914239911E+03  0.22914239911E+03  0.00000000000E+00 0.  1.
         13   -1    0    0    0    0 -0.00000000000E+00 -0.00000000000E+00 -0.27500000000E+03  0.27500000000E+03  0.00000000000E+00 0.  1.
    9000005    2    1    2  501    0 -0.19458463168E+02  0.23417200896E+02 -0.71858354817E+02  0.46410446346E+03  0.45749571884E+03 0.  0.
         13    1    3    3    0    0  0.97881564779E+02  0.16815360355E+03 -0.16562487132E+03  0.25551523068E+03  0.00000000000E+00 0.  1.
          1    1    3    3  501    0 -0.11734002795E+03 -0.14473640266E+03  0.93766516504E+02  0.20858923277E+03  0.00000000000E+00 0.  1.
         21    1    1    2  502  501  0.19458463168E+02 -0.23417200896E+02  0.26000753931E+02  0.40037935656E+02  0.00000000000E+00 0. -1.
<scales pt_clust_4="550.00000" pt_clust_5="550.00000" pt_clust_6="30.44663"></scales>
<mgrwt>
<rscale>  0 0.30000000E+03</rscale>
<asrwt>  1 0.30446627E+02</asrwt>
<pdfrwt beam="1">  1        1 0.83324509E+00 0.30000000E+03</pdfrwt>
<pdfrwt beam="2">0</pdfrwt>
<totfact> 0.57230246E-04</totfact>
</mgrwt>
<clustering>
<clus scale="   30.447">  1  6  2 -1</clus>
<clus scale="  457.496">  4  5 -1 -1</clus>
<clus scale="  300.000">  1  4  2 -1</clus>
</clustering>
</event>
<event>
 6    1  0.9131597E-012  0.3000000E+03  0.7818608E-02  0.1093470E+00
          1   -1    0    0  502    0  0.00000000000E+00  0.00000000000E+00  0.26088302515E+03  0.26088302515E+03  0.00000000000E+00 0.  1.
         13   -1    0    0    0    0 -0.00000000000E+00 -0.00000000000E+00 -0.27500000000E+03  0.27500000000E+03  0.00000000000E+00 0.  1.
    9000005    2    1    2  501    0 -0.22139730410E+02  0.45662374327E+02 -0.38856105195E+02  0.47942733755E+03  0.47514792959E+03 0.  0.
         13    1    3    3    0    0  0.14504658894E+03  0.32731462996E+01  0.16014002234E+03  0.21608806816E+03  0.00000000000E+00 0.  1.
          1    1    3    3  501    0 -0.16718631935E+03  0.42389228028E+02 -0.19899612753E+03  0.26333926939E+03  0.00000000000E+00 0.  1.
         21    1    1    2  502  501  0.22139730410E+02 -0.45662374327E+02  0.24739130348E+02  0.56455687598E+02  0.00000000000E+00 0.  1.
<scales pt_clust_4="550.00000" pt_clust_5="550.00000" pt_clust_6="50.74663"></scales>
<mgrwt>
<rscale>  0 0.30000000E+03</rscale>
<asrwt>  1 0.50746626E+02</asrwt>
<pdfrwt beam="1">  1        1 0.94866555E+00 0.30000000E+03</pdfrwt>
<pdfrwt beam="2">0</pdfrwt>
<totfact> 0.12286010E-05</totfact>
</mgrwt>
<clustering>
<clus scale="   50.747">  1  6  2 -1</clus>
<clus scale="  475.148">  4  5 -1 -1</clus>
<clus scale="  300.000">  1  4  2 -1</clus>
</clustering>
</event>
<event>
 6    1  0.9131597E-012  0.3000000E+03  0.7818608E-02  0.1093470E+00
          1   -1    0    0  502    0  0.00000000000E+00  0.00000000000E+00  0.22550683044E+03  0.22550683044E+03  0.00000000000E+00 0.  1.
         13   -1    0    0    0    0 -0.00000000000E+00 -0.00000000000E+00 -0.27500000000E+03  0.27500000000E+03  0.00000000000E+00 0.  1.
    9000005    2    1    2  501    0  0.28045579320E+02 -0.11524439269E+02 -0.53448200877E+02  0.46992890552E+03  0.46589387080E+03 0.  0.
         13    1    3    3    0    0 -0.11828625137E+03 -0.13324133883E+03 -0.17039577127E+03  0.24653521149E+03  0.00000000000E+00 0.  1.
          1    1    3    3  501    0  0.14633183069E+03  0.12171689956E+03  0.11694757039E+03  0.22339369403E+03  0.00000000000E+00 0.  1.
         21    1    1    2  502  501 -0.28045579320E+02  0.11524439269E+02  0.39550313186E+01  0.30577924923E+02  0.00000000000E+00 0.  1.
<scales pt_clust_4="550.00000" pt_clust_5="550.00000" pt_clust_6="30.32107"></scales>
<mgrwt>
<rscale>  0 0.30000000E+03</rscale>
<asrwt>  1 0.30321069E+02</asrwt>
<pdfrwt beam="1">  1        1 0.82002484E+00 0.30000000E+03</pdfrwt>
<pdfrwt beam="2">0</pdfrwt>
<totfact> 0.74287079E-04</totfact>
</mgrwt>
<clustering>
<clus scale="   30.321">  1  6  2 -1</clus>
<clus scale="  465.894">  4  5 -1 -1</clus>
<clus scale="  300.000">  1  4  2 -1</clus>
</clustering>
</event>
<event>
 6    1  0.9131597E-012  0.3000000E+03  0.7818608E-02  0.1093470E+00
          1   -1    0    0  502    0  0.00000000000E+00  0.00000000000E+00  0.24327466607E+03  0.24327466607E+03  0.00000000000E+00 0.  1.
         13   -1    0    0    0    0 -0.00000000000E+00 -0.00000000000E+00 -0.27500000000E+03  0.27500000000E+03  0.00000000000E+00 0.  1.
    9000005    2    1    2  501    0 -0.30392493809E+02  0.31396505551E+02 -0.44605423970E+02  0.47271875580E+03  0.46857649749E+03 0.  0.
         13    1    3    3    0    0  0.26374877277E+02 -0.17097435099E+03 -0.15765945725E+03  0.23406060606E+03  0.00000000000E+00 0.  1.
          1    1    3    3  501    0 -0.56767371086E+02  0.20237085654E+03  0.11305403328E+03  0.23865814974E+03  0.00000000000E+00 0.  1.
         21    1    1    2  502  501  0.30392493809E+02 -0.31396505551E+02  0.12880090037E+02  0.45555910265E+02  0.00000000000E+00 0. -1.
<scales pt_clust_4="550.00000" pt_clust_5="550.00000" pt_clust_6="43.69719"></scales>
<mgrwt>
<rscale>  0 0.30000000E+03</rscale>
<asrwt>  1 0.43697188E+02</asrwt>
<pdfrwt beam="1">  1        1 0.88463515E+00 0.30000000E+03</pdfrwt>
<pdfrwt beam="2">0</pdfrwt>
<totfact> 0.16482673E-04</totfact>
</mgrwt>
<clustering>
<clus scale="   43.697">  1  6  2 -1</clus>
<clus scale="  468.576">  4  5 -1 -1</clus>
<clus scale="  300.000">  1  4  2 -1</clus>
</clustering>
</event>
<event>
 6    1  0.9131597E-012  0.3000000E+03  0.7818608E-02  0.1093470E+00
          1   -1    0    0  502    0  0.00000000000E+00  0.00000000000E+00  0.23155022388E+03  0.23155022388E+03  0.00000000000E+00 0.  1.
         13   -1    0    0    0    0 -0.00000000000E+00 -0.00000000000E+00 -0.27500000000E+03  0.27500000000E+03  0.00000000000E+00 0.  1.
    9000005    2    1    2  501    0 -0.12730383427E+02 -0.28189575384E+02 -0.54440295674E+02  0.47372483214E+03  0.46956869143E+03 0.  0.
         13    1    3    3    0    0 -0.74528872131E+02 -0.21418553528E+03 -0.13262114984E+03  0.26271346690E+03  0.00000000000E+00 0.  1.
          3    1    3    3  501    0  0.61798488704E+02  0.18599595990E+03  0.78180854167E+02  0.21101136525E+03  0.00000000000E+00 0.  1.
         21    1    1    2  502  501  0.12730383427E+02  0.28189575384E+02  0.10990519555E+02  0.32825391736E+02  0.00000000000E+00 0. -1.
<scales pt_clust_4="550.00000" pt_clust_5="550.00000" pt_clust_6="30.93081"></scales>
<mgrwt>
<rscale>  0 0.30000000E+03</rscale>
<asrwt>  1 0.30930807E+02</asrwt>
<pdfrwt beam="1">  1        1 0.84200081E+00 0.30000000E+03</pdfrwt>
<pdfrwt beam="2">0</pdfrwt>
<totfact> 0.49049548E-04</totfact>
</mgrwt>
<clustering>
<clus scale="   30.931">  1  6  2 -1</clus>
<clus scale="  469.569">  4  5 -1 -1</clus>
<clus scale="  300.000">  1  4  2 -1</clus>
</clustering>
</event>
<event>
 6    1  0.9131597E-012  0.3000000E+03  0.7818608E-02  0.1093470E+00
          1   -1    0    0  502    0  0.00000000000E+00  0.00000000000E+00  0.24109520777E+03  0.24109520777E+03  0.00000000000E+00 0.  1.
         13   -1    0    0    0    0 -0.00000000000E+00 -0.00000000000E+00 -0.27500000000E+03  0.27500000000E+03  0.00000000000E+00 0.  1.
    9000005    2    1    2  501    0 -0.41019577616E+02  0.36012478489E+01 -0.21897635777E+01  0.46412004278E+03  0.46228459234E+03 0.  0.
         13    1    3    3    0    0  0.11680307146E+03 -0.20135677599E+02 -0.18608531055E+03  0.22062671148E+03  0.00000000000E+00 0.  1.
          1    1    3    3  501    0 -0.15782264908E+03  0.23736925448E+02  0.18389554697E+03  0.24349333130E+03  0.00000000000E+00 0.  1.
         21    1    1    2  502  501  0.41019577616E+02 -0.36012478489E+01 -0.31715028649E+02  0.51975164993E+02  0.00000000000E+00 0.  1.
<scales pt_clust_4="550.00000" pt_clust_5="550.00000" pt_clust_6="41.17738"></scales>
<mgrwt>
<rscale>  0 0.30000000E+03</rscale>
<asrwt>  1 0.41177378E+02</asrwt>
<pdfrwt beam="1">  1        1 0.87670985E+00 0.30000000E+03</pdfrwt>
<pdfrwt beam="2">0</pdfrwt>
<totfact> 0.20921799E-04</totfact>
</mgrwt>
<clustering>
<clus scale="   41.177">  1  6  2 -1</clus>
<clus scale="  462.285">  4  5 -1 -1</clus>
<clus scale="  300.000">  1  4  2 -1</clus>
</clustering>
</event>
<event>
 6    1  0.9131597E-012  0.3000000E+03  0.7818608E-02  0.1093470E+00
          1   -1    0    0  502    0  0.00000000000E+00  0.00000000000E+00  0.25721014507E+03  0.25721014507E+03  0.00000000000E+00 0.  1.
         13   -1    0    0    0    0 -0.00000000000E+00 -0.00000000000E+00 -0.27500000000E+03  0.27500000000E+03  0.00000000000E+00 0.  1.
    9000005    2    1    2  501    0  0.24127365881E+02  0.48598429156E+02  0.24054727767E+02  0.46369075948E+03  0.45987667194E+03 0.  0.
         13    1    3    3    0    0 -0.13229037225E+03 -0.12957253461E+03 -0.83761003474E+02  0.20323801322E+03  0.00000000000E+00 0.  1.
          1    1    3    3  501    0  0.15641773813E+03  0.17817096377E+03  0.10781573124E+03  0.26045274626E+03  0.00000000000E+00 0.  1.
         21    1    1    2  502  501 -0.24127365881E+02 -0.48598429156E+02 -0.41844582698E+02  0.68519385593E+02  0.00000000000E+00 0.  1.
<scales pt_clust_4="550.00000" pt_clust_5="550.00000" pt_clust_6="54.25809"></scales>
<mgrwt>
<rscale>  0 0.30000000E+03</rscale>
<asrwt>  1 0.54258087E+02</asrwt>
<pdfrwt beam="1">  1        1 0.93530962E+00 0.30000000E+03</pdfrwt>
<pdfrwt beam="2">0</pdfrwt>
<totfact> 0.20638374E-05</totfact>
</mgrwt>
<clustering>
<clus scale="   54.258">  1  6  2 -1</clus>
<clus scale="  459.877">  4  5 -1 -1</clus>
<clus scale="  300.000">  1  4  2 -1</clus>
</clustering>
</event>
<event>
 6    1  0.9131597E-012  0.3000000E+03  0.7818608E-02  0.1093470E+00
          1   -1    0    0  502    0  0.00000000000E+00  0.00000000000E+00  0.22512866150E+03  0.22512866150E+03  0.00000000000E+00 0.  1.
         13   -1    0    0    0    0 -0.00000000000E+00 -0.00000000000E+00 -0.27500000000E+03  0.27500000000E+03  0.00000000000E+00 0.  1.
    9000005    2    1    2  501    0  0.36905432353E+02 -0.73428570162E+01 -0.44486203324E+02  0.46211645073E+03  0.45842847126E+03 0.  0.
         13    1    3    3    0    0 -0.80398886254E+02  0.12625187427E+03 -0.18323423083E+03  0.23659733729E+03  0.00000000000E+00 0.  1.
          3    1    3    3  501    0  0.11730431861E+03 -0.13359473128E+03  0.13874802751E+03  0.22551911344E+03  0.00000000000E+00 0.  1.
         21    1    1    2  502  501 -0.36905432353E+02  0.73428570162E+01 -0.53851351782E+01  0.38012210764E+02  0.00000000000E+00 0.  1.
<scales pt_clust_4="550.00000" pt_clust_5="550.00000" pt_clust_6="37.62884"></scales>
<mgrwt>
<rscale>  0 0.30000000E+03</rscale>
<asrwt>  1 0.37628844E+02</asrwt>
<pdfrwt beam="1">  1        1 0.81864968E+00 0.30000000E+03</pdfrwt>
<pdfrwt beam="2">0</pdfrwt>
<totfact> 0.73288243E-04</totfact>
</mgrwt>
<clustering>
<clus scale="   37.629">  1  6  2 -1</clus>
<clus scale="  458.428">  4  5 -1 -1</clus>
<clus scale="  300.000">  1  4  2 -1</clus>
</clustering>
</event>
<event>
 6    1  0.9131597E-012  0.3000000E+03  0.7818608E-02  0.1093470E+00
          1   -1    0    0  502    0  0.00000000000E+00  0.00000000000E+00  0.22893272228E+03  0.22893272228E+03  0.00000000000E+00 0.  1.
         13   -1    0    0    0    0 -0.00000000000E+00 -0.00000000000E+00 -0.27500000000E+03  0.27500000000E+03  0.00000000000E+00 0.  1.
    9000005    2    1    2  501    0 -0.34590939904E+02 -0.29681245357E+01 -0.55044318076E+02  0.46807285418E+03  0.46352667343E+03 0.  0.
         13    1    3    3    0    0  0.67572706006E+02  0.13837269484E+03 -0.19214469154E+03  0.24623699105E+03  0.00000000000E+00 0.  1.
          1    1    3    3  501    0 -0.10216364591E+03 -0.14134081937E+03  0.13710037346E+03  0.22183586313E+03  0.00000000000E+00 0.  1.
         21    1    1    2  502  501  0.34590939904E+02  0.29681245357E+01  0.89770403524E+01  0.35859868100E+02  0.00000000000E+00 0. -1.
<scales pt_clust_4="550.00000" pt_clust_5="550.00000" pt_clust_6="34.71805"></scales>
<mgrwt>
<rscale>  0 0.30000000E+03</rscale>
<asrwt>  1 0.34718048E+02</asrwt>
<pdfrwt beam="1">  1        1 0.83248263E+00 0.30000000E+03</pdfrwt>
<pdfrwt beam="2">0</pdfrwt>
<totfact> 0.56569605E-04</totfact>
</mgrwt>
<clustering>
<clus scale="   34.718">  1  6  2 -1</clus>
<clus scale="  463.527">  4  5 -1 -1</clus>
<clus scale="  300.000">  1  4  2 -1</clus>
</clustering>
</event>
<event>
 6    1  0.9131597E-012  0.3000000E+03  0.7818608E-02  0.1093470E+00
          1   -1    0    0  502    0  0.00000000000E+00  0.00000000000E+00  0.23874037244E+03  0.23874037244E+03  0.00000000000E+00 0.  1.
         13   -1    0    0    0    0 -0.00000000000E+00 -0.00000000000E+00 -0.27500000000E+03  0.27500000000E+03  0.00000000000E+00 0.  1.
    9000005    2    1    2  501    0 -0.41016334093E+02 -0.13840136387E+02 -0.30735671442E+02  0.47010090488E+03  0.46709344914E+03 0.  0.
         13    1    3    3    0    0  0.12574975144E+03 -0.35258358648E+02  0.16605854133E+03  0.21126190142E+03  0.00000000000E+00 0.  1.
          1    1    3    3  501    0 -0.16676608553E+03  0.21418222261E+02 -0.19679421278E+03  0.25883900346E+03  0.00000000000E+00 0.  1.
         21    1    1    2  502  501  0.41016334093E+02  0.13840136387E+02 -0.55239561195E+01  0.43639467560E+02  0.00000000000E+00 0. -1.
<scales pt_clust_4="550.00000" pt_clust_5="550.00000" pt_clust_6="43.28846"></scales>
<mgrwt>
<rscale>  0 0.30000000E+03</rscale>
<asrwt>  1 0.43288462E+02</asrwt>
<pdfrwt beam="1">  1        1 0.86814681E+00 0.30000000E+03</pdfrwt>
<pdfrwt beam="2">0</pdfrwt>
<totfact> 0.25450131E-04</totfact>
</mgrwt>
<clustering>
<clus scale="   43.288">  1  6  2 -1</clus>
<clus scale="  467.093">  4  5 -1 -1</clus>
<clus scale="  300.000">  1  4  2 -1</clus>
</clustering>
</event>
<event>
 6    1  0.9131597E-012  0.3000000E+03  0.7818608E-02  0.1093470E+00
          1   -1    0    0  502    0  0.00000000000E+00  0.00000000000E+00  0.22183817708E+03  0.22183817708E+03  0.00000000000E+00 0.  1.
         13   -1    0    0    0    0 -0.00000000000E+00 -0.00000000000E+00 -0.27500000000E+03  0.27500000000E+03  0.00000000000E+00 0.  1.
    9000005    2    1    2  501    0  0.23110685631E+02 -0.24518320698E+02 -0.49403178452E+02  0.46293568088E+03  0.45905720641E+03 0.  0.
         13    1    3    3    0    0  0.10683450144E+03  0.18378897191E+03  0.48447827164E+02  0.21803483403E+03  0.00000000000E+00 0.  1.
          1    1    3    3  501    0 -0.83723815810E+02 -0.20830729261E+03 -0.97851005616E+02  0.24490084685E+03  0.00000000000E+00 0.  1.
         21    1    1    2  502  501 -0.23110685631E+02  0.24518320698E+02 -0.37586444675E+01  0.33902496197E+02  0.00000000000E+00 0.  1.
<scales pt_clust_4="550.00000" pt_clust_5="550.00000" pt_clust_6="33.69352"></scales>
<mgrwt>
<rscale>  0 0.30000000E+03</rscale>
<asrwt>  1 0.33693515E+02</asrwt>
<pdfrwt beam="1">  1        1 0.80668428E+00 0.30000000E+03</pdfrwt>
<pdfrwt beam="2">0</pdfrwt>
<totfact> 0.93178200E-04</totfact>
</mgrwt>
<clustering>
<clus scale="   33.694">  1  6  2 -1</clus>
<clus scale="  459.057">  4  5 -1 -1</clus>
<clus scale="  300.000">  1  4  2 -1</clus>
</clustering>
</event>
<event>
 6    1  0.9131597E-012  0.3000000E+03  0.7818608E-02  0.1093470E+00
          1   -1    0    0  502    0  0.00000000000E+00  0.00000000000E+00  0.23839619299E+03  0.23839619299E+03  0.00000000000E+00 0.  1.
         13   -1    0    0    0    0 -0.00000000000E+00 -0.00000000000E+00 -0.27500000000E+03  0.27500000000E+03  0.00000000000E+00 0.  1.
    9000005    2    1    2  501    0 -0.68603038742E+01 -0.42822392307E+02 -0.63157739264E+02  0.46254412941E+03  0.45615496333E+03 0.  0.
         13    1    3    3    0    0 -0.15369397287E+03  0.68893153426E+02  0.11668078487E+03  0.20489633829E+03  0.00000000000E+00 0.  1.
          1    1    3    3  501    0  0.14683366899E+03 -0.11171554573E+03 -0.17983852414E+03  0.25764779113E+03  0.00000000000E+00 0.  1.
         21    1    1    2  502  501  0.68603038742E+01  0.42822392307E+02  0.26553932257E+02  0.50852063581E+02  0.00000000000E+00 0.  1.
<scales pt_clust_4="550.00000" pt_clust_5="550.00000" pt_clust_6="43.36843"></scales>
<mgrwt>
<rscale>  0 0.30000000E+03</rscale>
<asrwt>  1 0.43368434E+02</asrwt>
<pdfrwt beam="1">  1        1 0.86689525E+00 0.30000000E+03</pdfrwt>
<pdfrwt beam="2">0</pdfrwt>
<totfact> 0.26219542E-04</totfact>
</mgrwt>
<clustering>
<clus scale="   43.368">  1  6  2 -1</clus>
<clus scale="  456.155">  4  5 -1 -1</clus>
<clus scale="  300.000">  1  4  2 -1</clus>
</clustering>
</event>
<event>
 6    1  0.9131597E-012  0.3000000E+03  0.7818608E-02  0.1093470E+00
          1   -1    0    0  502    0  0.00000000000E+00  0.00000000000E+00  0.23957390693E+03  0.23957390693E+03  0.00000000000E+00 0.  1.
         13   -1    0    0    0    0 -0.00000000000E+00 -0.00000000000E+00 -0.27500000000E+03  0.27500000000E+03  0.00000000000E+00 0.  1.
    9000005    2    1    2  501    0  0.37955469103E+02 -0.18251952291E+02 -0.58986118774E+02  0.46631599350E+03  0.46064899022E+03 0.  0.
         13    1    3    3    0    0 -0.10623520222E+03 -0.15023011963E+01 -0.22316600293E+03  0.24716642159E+03  0.00000000000E+00 0.  1.
          1    1    3    3  501    0  0.14419067132E+03 -0.16749651094E+02  0.16417988415E+03  0.21914957191E+03  0.00000000000E+00 0.  1.
         21    1    1    2  502  501 -0.37955469103E+02  0.18251952291E+02  0.23560025702E+02  0.48257913427E+02  0.00000000000E+00 0.  1.
<scales pt_clust_4="550.00000" pt_clust_5="550.00000" pt_clust_6="42.11593"></scales>
<mgrwt>
<rscale>  0 0.30000000E+03</rscale>
<asrwt>  1 0.42115928E+02</asrwt>
<pdfrwt beam="1">  1        1 0.87117784E+00 0.30000000E+03</pdfrwt>
<pdfrwt beam="2">0</pdfrwt>
<totfact> 0.23809209E-04</totfact>
</mgrwt>
<clustering>
<clus scale="   42.116">  1  6  2 -1</clus>
<clus scale="  460.649">  4  5 -1 -1</clus>
<clus scale="  300.000">  1  4  2 -1</clus>
</clustering>
</event>
<event>
 6    1  0.9131597E-012  0.3000000E+03  0.7818608E-02  0.1093470E+00
          1   -1    0    0  502    0  0.00000000000E+00  0.00000000000E+00  0.22792028861E+03  0.22792028861E+03  0.00000000000E+00 0.  1.
         13   -1    0    0    0    0 -0.00000000000E+00 -0.00000000000E+00 -0.27500000000E+03  0.27500000000E+03  0.00000000000E+00 0.  1.
    9000005    2    1    2  501    0  0.12348625300E+02 -0.29077380800E+02 -0.58765309487E+02  0.46923741724E+03  0.46447003081E+03 0.  0.
         13    1    3    3    0    0  0.20062397884E+03  0.11118052448E+03 -0.47195696631E+02  0.23417626629E+03  0.00000000000E+00 0.  1.
          3    1    3    3  501    0 -0.18827535354E+03 -0.14025790528E+03 -0.11569612855E+02  0.23506115095E+03  0.00000000000E+00 0.  1.
         21    1    1    2  502  501 -0.12348625300E+02  0.29077380800E+02  0.11685598097E+02  0.33682871372E+02  0.00000000000E+00 0.  1.
<scales pt_clust_4="550.00000" pt_clust_5="550.00000" pt_clust_6="31.59086"></scales>
<mgrwt>
<rscale>  0 0.30000000E+03</rscale>
<asrwt>  1 0.31590863E+02</asrwt>
<pdfrwt beam="1">  1        1 0.82880105E+00 0.30000000E+03</pdfrwt>
<pdfrwt beam="2">0</pdfrwt>
<totfact> 0.61669620E-04</totfact>
</mgrwt>
<clustering>
<clus scale="   31.591">  1  6  2 -1</clus>
<clus scale="  464.470">  4  5 -1 -1</clus>
<clus scale="  300.000">  1  4  2 -1</clus>
</clustering>
</event>
<event>
 6    1  0.9131597E-012  0.3000000E+03  0.7818608E-02  0.1093470E+00
          1   -1    0    0  502    0  0.00000000000E+00  0.00000000000E+00  0.22988531525E+03  0.22988531525E+03  0.00000000000E+00 0.  1.
         13   -1    0    0    0    0 -0.00000000000E+00 -0.00000000000E+00 -0.27500000000E+03  0.27500000000E+03  0.00000000000E+00 0.  1.
    9000005    2    1    2  501    0 -0.17974226604E+02 -0.30617840791E+02 -0.54115480240E+02  0.46825828540E+03  0.46376374550E+03 0.  0.
         13    1    3    3    0    0 -0.96342118930E+02 -0.12106732112E+03  0.16024662447E+03  0.22275116335E+03  0.00000000000E+00 0.  1.
          3    1    3    3  501    0  0.78367892326E+02  0.90449480331E+02 -0.21436210471E+03  0.24550712204E+03  0.00000000000E+00 0.  1.
         21    1    1    2  502  501  0.17974226604E+02  0.30617840791E+02  0.90007954944E+01  0.36627029858E+02  0.00000000000E+00 0.  1.
<scales pt_clust_4="550.00000" pt_clust_5="550.00000" pt_clust_6="35.50387"></scales>
<mgrwt>
<rscale>  0 0.30000000E+03</rscale>
<asrwt>  1 0.35503873E+02</asrwt>
<pdfrwt beam="1">  1        1 0.83594660E+00 0.30000000E+03</pdfrwt>
<pdfrwt beam="2">0</pdfrwt>
<totfact> 0.53106103E-04</totfact>
</mgrwt>
<clustering>
<clus scale="   35.504">  1  6  2 -1</clus>
<clus scale="  463.764">  4  5 -1 -1</clus>
<clus scale="  300.000">  1  4  2 -1</clus>
</clustering>
</event>
<event>
 6    1  0.9131597E-012  0.3000000E+03  0.7818608E-02  0.1093470E+00
          1   -1    0    0  502    0  0.00000000000E+00  0.00000000000E+00  0.23086674107E+03  0.23086674107E+03  0.00000000000E+00 0.  1.
         13   -1    0    0    0    0 -0.00000000000E+00 -0.00000000000E+00 -0.27500000000E+03  0.27500000000E+03  0.00000000000E+00 0.  1.
    9000005    2    1    2  501    0  0.16796087095E+02 -0.28425216497E+02 -0.65786200871E+02  0.46638318286E+03  0.46053810651E+03 0.  0.
         13    1    3    3    0    0  0.19367988008E+03 -0.11631363700E+03 -0.12754372255E+03  0.25943816077E+03  0.00000000000E+00 0.  1.
          1    1    3    3  501    0 -0.17688379299E+03  0.87888420504E+02  0.61757521682E+02  0.20694502208E+03  0.00000000000E+00 0.  1.
         21    1    1    2  502  501 -0.16796087095E+02  0.28425216497E+02  0.21652941941E+02  0.39483558215E+02  0.00000000000E+00 0.  1.
<scales pt_clust_4="550.00000" pt_clust_5="550.00000" pt_clust_6="33.01668"></scales>
<mgrwt>
<rscale>  0 0.30000000E+03</rscale>
<asrwt>  1 0.33016685E+02</asrwt>
<pdfrwt beam="1">  1        1 0.83951542E+00 0.30000000E+03</pdfrwt>
<pdfrwt beam="2">0</pdfrwt>
<totfact> 0.50681453E-04</totfact>
</mgrwt>
<clustering>
<clus scale="   33.017">  1  6  2 -1</clus>
<clus scale="  460.538">  4  5 -1 -1</clus>
<clus scale="  300.000">  1  4  2 -1</clus>
</clustering>
</event>
<event>
 6    1  0.9131597E-012  0.3000000E+03  0.7818608E-02  0.1093470E+00
          1   -1    0    0  502    0  0.00000000000E+00  0.00000000000E+00  0.23177351539E+03  0.23177351539E+03  0.00000000000E+00 0.  1.
         13   -1    0    0    0    0 -0.00000000000E+00 -0.00000000000E+00 -0.27500000000E+03  0.27500000000E+03  0.00000000000E+00 0.  1.
    9000005    2    1    2  501    0  0.31754720444E+02  0.15393887804E+02 -0.44177298220E+02  0.47147141773E+03  0.46806872360E+03 0.  0.
         13    1    3    3    0    0 -0.14366595510E+03 -0.96873612424E+02  0.11618022246E+03  0.20861986370E+03  0.00000000000E+00 0.  1.
          1    1    3    3  501    0  0.17542067555E+03  0.11226750023E+03 -0.16035752068E+03  0.26285155403E+03  0.00000000000E+00 0.  1.
         21    1    1    2  502  501 -0.31754720444E+02 -0.15393887804E+02  0.95081360826E+00  0.35302097654E+02  0.00000000000E+00 0.  1.
<scales pt_clust_4="550.00000" pt_clust_5="550.00000" pt_clust_6="35.28929"></scales>
<mgrwt>
<rscale>  0 0.30000000E+03</rscale>
<asrwt>  1 0.35289291E+02</asrwt>
<pdfrwt beam="1">  1        1 0.84281278E+00 0.30000000E+03</pdfrwt>
<pdfrwt beam="2">0</pdfrwt>
<totfact> 0.47102795E-04</totfact>
</mgrwt>
<clustering>
<clus scale="   35.289">  1  6  2 -1</clus>
<clus scale="  468.069">  4  5 -1 -1</clus>
<clus scale="  300.000">  1  4  2 -1</clus>
</clustering>
</event>
<event>
 6    1  0.9131597E-012  0.3000000E+03  0.7818608E-02  0.1093470E+00
          1   -1    0    0  502    0  0.00000000000E+00  0.00000000000E+00  0.23697621759E+03  0.23697621759E+03  0.00000000000E+00 0.  1.
         13   -1    0    0    0    0 -0.00000000000E+00 -0.00000000000E+00 -0.27500000000E+03  0.27500000000E+03  0.00000000000E+00 0.  1.
    9000005    2    1    2  501    0  0.25741933536E+02 -0.25480764835E+02 -0.34378034254E+02  0.47557281118E+03  0.47294368901E+03 0.  0.
         13    1    3    3    0    0  0.98355106413E+02  0.20731921136E+03 -0.32095683923E+02  0.23170048615E+03  0.00000000000E+00 0.  1.
          1    1    3    3  501    0 -0.72613172877E+02 -0.23279997619E+03 -0.22823503313E+01  0.24387232503E+03  0.00000000000E+00 0.  1.
         21    1    1    2  502  501 -0.25741933536E+02  0.25480764835E+02 -0.36457481586E+01  0.36403406411E+02  0.00000000000E+00 0. -1.
<scales pt_clust_4="550.00000" pt_clust_5="550.00000" pt_clust_6="36.22041"></scales>
<mgrwt>
<rscale>  0 0.30000000E+03</rscale>
<asrwt>  1 0.36220406E+02</asrwt>
<pdfrwt beam="1">  1        1 0.86173170E+00 0.30000000E+03</pdfrwt>
<pdfrwt beam="2">0</pdfrwt>
<totfact> 0.30793362E-04</totfact>
</mgrwt>
<clustering>
<clus scale="   36.220">  1  6  2 -1</clus>
<clus scale="  472.944">  4  5 -1 -1</clus>
<clus scale="  300.000">  1  4  2 -1</clus>
</clustering>
</event>
<event>
 6    1  0.9131597E-012  0.3000000E+03  0.7818608E-02  0.1093470E+00
          1   -1    0    0  502    0  0.00000000000E+00  0.00000000000E+00  0.25940295377E+03  0.25940295377E+03  0.00000000000E+00 0.  1.
         13   -1    0    0    0    0 -0.00000000000E+00 -0.00000000000E+00 -0.27500000000E+03  0.27500000000E+03  0.00000000000E+00 0.  1.
    9000005    2    1    2  501    0 -0.27416964480E+02 -0.23980416288E+02 -0.42877624872E+02  0.48889492945E+03  0.48564700248E+03 0.  0.
         13    1    3    3    0    0  0.13728549584E+03 -0.16237639663E+03  0.95509211452E+02  0.23309957320E+03  0.00000000000E+00 0.  1.
          3    1    3    3  501    0 -0.16470246032E+03  0.13839598035E+03 -0.13838683632E+03  0.25579535625E+03  0.00000000000E+00 0.  1.
         21    1    1    2  502  501  0.27416964480E+02  0.23980416288E+02  0.27280578639E+02  0.45508024320E+02  0.00000000000E+00 0.  1.
<scales pt_clust_4="550.00000" pt_clust_5="550.00000" pt_clust_6="36.42458"></scales>
<mgrwt>
<rscale>  0 0.30000000E+03</rscale>
<asrwt>  1 0.36424584E+02</asrwt>
<pdfrwt beam="1">  1        1 0.94328347E+00 0.30000000E+03</pdfrwt>
<pdfrwt beam="2">0</pdfrwt>
<totfact> 0.16631421E-05</totfact>
</mgrwt>
<clustering>
<clus scale="   36.425">  1  6  2 -1</clus>
<clus scale="  485.647">  4  5 -1 -1</clus>
<clus scale="  300.000">  1  4  2 -1</clus>
</clustering>
</event>
<event>
 6    1  0.9131597E-012  0.3000000E+03  0.7818608E-02  0.1093470E+00
          1   -1    0    0  502    0  0.00000000000E+00  0.00000000000E+00  0.23098007953E+03  0.23098007953E+03  0.00000000000E+00 0.  1.
         13   -1    0    0    0    0 -0.00000000000E+00 -0.00000000000E+00 -0.27500000000E+03  0.27500000000E+03  0.00000000000E+00 0.  1.
    9000005    2    1    2  501    0 -0.35087571428E+02 -0.16811093589E+01 -0.59155475358E+02  0.46773025836E+03  0.46264269207E+03 0.  0.
         13    1    3    3    0    0 -0.13351784267E+03 -0.51783349406E+02  0.16461335708E+03  0.21818819152E+03  0.00000000000E+00 0.  1.
          1    1    3    3  501    0  0.98430271247E+02  0.50102240047E+02 -0.22376883244E+03  0.24954206685E+03  0.00000000000E+00 0.  1.
         21    1    1    2  502  501  0.35087571428E+02  0.16811093589E+01  0.15135554886E+02  0.38249821164E+02  0.00000000000E+00 0. -1.
<scales pt_clust_4="550.00000" pt_clust_5="550.00000" pt_clust_6="35.12782"></scales>
<mgrwt>
<rscale>  0 0.30000000E+03</rscale>
<asrwt>  1 0.35127821E+02</asrwt>
<pdfrwt beam="1">  1        1 0.83992756E+00 0.30000000E+03</pdfrwt>
<pdfrwt beam="2">0</pdfrwt>
<totfact> 0.49733964E-04</totfact>
</mgrwt>
<clustering>
<clus scale="   35.128">  1  6  2 -1</clus>
<clus scale="  462.643">  4  5 -1 -1</clus>
<clus scale="  300.000">  1  4  2 -1</clus>
</clustering>
</event>
<event>
 6    1  0.9131597E-012  0.3000000E+03  0.7818608E-02  0.1093470E+00
          1   -1    0    0  502    0  0.00000000000E+00  0.00000000000E+00  0.22635201331E+03  0.22635201331E+03  0.00000000000E+00 0.  1.
         13   -1    0    0    0    0 -0.00000000000E+00 -0.00000000000E+00 -0.27500000000E+03  0.27500000000E+03  0.00000000000E+00 0.  1.
    9000005    2    1    2  501    0  0.32266788018E+02 -0.92616074838E+01 -0.63336637691E+02  0.46470942265E+03  0.45914746525E+03 0.  0.
         13    1    3    3    0    0 -0.21195321925E+03  0.22873551498E+02 -0.43584534032E+02  0.21759360771E+03  0.00000000000E+00 0.  1.
          3    1    3    3  501    0  0.24422000727E+03 -0.32135158982E+02 -0.19752103659E+02  0.24711581494E+03  0.00000000000E+00 0.  1.
         21    1    1    2  502  501 -0.32266788018E+02  0.92616074838E+01  0.14688651005E+02  0.36642590663E+02  0.00000000000E+00 0.  1.
<scales pt_clust_4="550.00000" pt_clust_5="550.00000" pt_clust_6="33.56967"></scales>
<mgrwt>
<rscale>  0 0.30000000E+03</rscale>
<asrwt>  1 0.33569674E+02</asrwt>
<pdfrwt beam="1">  1        1 0.82309823E+00 0.30000000E+03</pdfrwt>
<pdfrwt beam="2">0</pdfrwt>
<totfact> 0.68456771E-04</totfact>
</mgrwt>
<clustering>
<clus scale="   33.570">  1  6  2 -1</clus>
<clus scale="  459.147">  4  5 -1 -1</clus>
<clus scale="  300.000">  1  4  2 -1</clus>
</clustering>
</event>
<event>
 6    1  0.9131597E-012  0.3000000E+03  0.7818608E-02  0.1093470E+00
          1   -1    0    0  502    0  0.00000000000E+00  0.00000000000E+00  0.23761907275E+03  0.23761907275E+03  0.00000000000E+00 0.  1.
         13   -1    0    0    0    0 -0.00000000000E+00 -0.00000000000E+00 -0.27500000000E+03  0.27500000000E+03  0.00000000000E+00 0.  1.
    9000005    2    1    2  501    0  0.69066773693E+01 -0.42800668486E+02 -0.36508064830E+02  0.46925593974E+03  0.46582045766E+03 0.  0.
         13    1    3    3    0    0 -0.12536735702E+03  0.17357177710E+03 -0.22013156944E+02  0.21524106274E+03  0.00000000000E+00 0.  1.
          3    1    3    3  501    0  0.13227403439E+03 -0.21637244559E+03 -0.14494907885E+02  0.25401487700E+03  0.00000000000E+00 0.  1.
         21    1    1    2  502  501 -0.69066773693E+01  0.42800668486E+02 -0.87286242175E+00  0.43363133004E+02  0.00000000000E+00 0.  1.
<scales pt_clust_4="550.00000" pt_clust_5="550.00000" pt_clust_6="43.35435"></scales>
<mgrwt>
<rscale>  0 0.30000000E+03</rscale>
<asrwt>  1 0.43354347E+02</asrwt>
<pdfrwt beam="1">  1        1 0.86406936E+00 0.30000000E+03</pdfrwt>
<pdfrwt beam="2">0</pdfrwt>
<totfact> 0.28112711E-04</totfact>
</mgrwt>
<clustering>
<clus scale="   43.354">  1  6  2 -1</clus>
<clus scale="  465.820">  4  5 -1 -1</clus>
<clus scale="  300.000">  1  4  2 -1</clus>
</clustering>
</event>
<event>
 6    1  0.9131597E-012  0.3000000E+03  0.7818608E-02  0.1093470E+00
          1   -1    0    0  502    0  0.00000000000E+00  0.00000000000E+00  0.23368411645E+03  0.23368411645E+03  0.00000000000E+00 0.  1.
         13   -1    0    0    0    0 -0.00000000000E+00 -0.00000000000E+00 -0.27500000000E+03  0.27500000000E+03  0.00000000000E+00 0.  1.
    9000005    2    1    2  501    0  0.84263123860E+01 -0.37628296263E+02 -0.23441286913E+02  0.46618243854E+03  0.46399319031E+03 0.  0.
         13    1    3    3    0    0  0.13245197752E+03 -0.14553300251E+03 -0.15909029853E+03  0.25304763238E+03  0.00000000000E+00 0.  1.
          1    1    3    3  501    0 -0.12402566513E+03  0.10790470625E+03  0.13564901162E+03  0.21313480616E+03  0.00000000000E+00 0.  1.
         21    1    1    2  502  501 -0.84263123860E+01  0.37628296263E+02 -0.17874596639E+02  0.42501677909E+02  0.00000000000E+00 0. -1.
<scales pt_clust_4="550.00000" pt_clust_5="550.00000" pt_clust_6="38.56025"></scales>
<mgrwt>
<rscale>  0 0.30000000E+03</rscale>
<asrwt>  1 0.38560250E+02</asrwt>
<pdfrwt beam="1">  1        1 0.84976042E+00 0.30000000E+03</pdfrwt>
<pdfrwt beam="2">0</pdfrwt>
<totfact> 0.40181392E-04</totfact>
</mgrwt>
<clustering>
<clus scale="   38.560">  1  6  2 -1</clus>
<clus scale="  463.993">  4  5 -1 -1</clus>
<clus scale="  300.000">  1  4  2 -1</clus>
</clustering>
</event>
<event>
 6    1  0.9131597E-012  0.3000000E+03  0.7818608E-02  0.1093470E+00
          1   -1    0    0  502    0  0.00000000000E+00  0.00000000000E+00  0.22878561078E+03  0.22878561078E+03  0.00000000000E+00 0.  1.
         13   -1    0    0    0    0 -0.00000000000E+00 -0.00000000000E+00 -0.27500000000E+03  0.27500000000E+03  0.00000000000E+00 0.  1.
    9000005    2    1    2  501    0  0.36963113147E+02 -0.16276748197E+02 -0.55383093141E+02  0.46236979983E+03  0.45726069208E+03 0.  0.
         13    1    3    3    0    0 -0.10207262868E+02  0.10144809585E+03 -0.22707556619E+03  0.24891608451E+03  0.00000000000E+00 0.  1.
          3    1    3    3  501    0  0.47170376015E+02 -0.11772484405E+03  0.17169247305E+03  0.21345371532E+03  0.00000000000E+00 0.  1.
         21    1    1    2  502  501 -0.36963113147E+02  0.16276748197E+02  0.91687039247E+01  0.41415810955E+02  0.00000000000E+00 0. -1.
<scales pt_clust_4="550.00000" pt_clust_5="550.00000" pt_clust_6="40.38817"></scales>
<mgrwt>
<rscale>  0 0.30000000E+03</rscale>
<asrwt>  1 0.40388170E+02</asrwt>
<pdfrwt beam="1">  1        1 0.83194768E+00 0.30000000E+03</pdfrwt>
<pdfrwt beam="2">0</pdfrwt>
<totfact> 0.55534276E-04</totfact>
</mgrwt>
<clustering>
<clus scale="   40.388">  1  6  2 -1</clus>
<clus scale="  457.261">  4  5 -1 -1</clus>
<clus scale="  300.000">  1  4  2 -1</clus>
</clustering>
</event>
<event>
 6    1  0.9131597E-012  0.3000000E+03  0.7818608E-02  0.1093470E+00
          1   -1    0    0  502    0  0.00000000000E+00  0.00000000000E+00  0.23134411443E+03  0.23134411443E+03  0.00000000000E+00 0.  1.
         13   -1    0    0    0    0 -0.00000000000E+00 -0.00000000000E+00 -0.27500000000E+03  0.27500000000E+03  0.00000000000E+00 0.  1.
    9000005    2    1    2  501    0  0.41476688337E+02  0.18721610169E+02 -0.37297900670E+02  0.46039590081E+03  0.45662067159E+03 0.  0.
         13    1    3    3    0    0  0.31636212446E+02  0.21782464613E+03  0.73836395610E+02  0.23216425159E+03  0.00000000000E+00 0.  1.
          1    1    3    3  501    0  0.98404758906E+01 -0.19910303596E+03 -0.11113429628E+03  0.22823164922E+03  0.00000000000E+00 0.  1.
         21    1    1    2  502  501 -0.41476688337E+02 -0.18721610169E+02 -0.63579849025E+01  0.45948213618E+02  0.00000000000E+00 0.  1.
<scales pt_clust_4="550.00000" pt_clust_5="550.00000" pt_clust_6="45.50622"></scales>
<mgrwt>
<rscale>  0 0.30000000E+03</rscale>
<asrwt>  1 0.45506224E+02</asrwt>
<pdfrwt beam="1">  1        1 0.84125133E+00 0.30000000E+03</pdfrwt>
<pdfrwt beam="2">0</pdfrwt>
<totfact> 0.46320076E-04</totfact>
</mgrwt>
<clustering>
<clus scale="   45.506">  1  6  2 -1</clus>
<clus scale="  456.621">  4  5 -1 -1</clus>
<clus scale="  300.000">  1  4  2 -1</clus>
</clustering>
</event>
<event>
 6    1  0.9131597E-012  0.3000000E+03  0.7818608E-02  0.1093470E+00
          1   -1    0    0  502    0  0.00000000000E+00  0.00000000000E+00  0.22525187508E+03  0.22525187508E+03  0.00000000000E+00 0.  1.
         13   -1    0    0    0    0 -0.00000000000E+00 -0.00000000000E+00 -0.27500000000E+03  0.27500000000E+03  0.00000000000E+00 0.  1.
    9000005    2    1    2  501    0  0.43457481150E+00 -0.31056069097E+02 -0.47340427036E+02  0.46909958315E+03  0.46567009202E+03 0.  0.
         13    1    3    3    0    0 -0.20299933842E+03  0.94368317037E+02 -0.52966444732E+02  0.23004250678E+03  0.00000000000E+00 0.  1.
          3    1    3    3  501    0  0.20343391323E+03 -0.12542438613E+03  0.56260176963E+01  0.23905707637E+03  0.00000000000E+00 0.  1.
         21    1    1    2  502  501 -0.43457481150E+00  0.31056069097E+02 -0.24076978871E+01  0.31152291924E+02  0.00000000000E+00 0. -1.
<scales pt_clust_4="550.00000" pt_clust_5="550.00000" pt_clust_6="31.05911"></scales>
<mgrwt>
<rscale>  0 0.30000000E+03</rscale>
<asrwt>  1 0.31059110E+02</asrwt>
<pdfrwt beam="1">  1        1 0.81909773E+00 0.30000000E+03</pdfrwt>
<pdfrwt beam="2">0</pdfrwt>
<totfact> 0.75315226E-04</totfact>
</mgrwt>
<clustering>
<clus scale="   31.059">  1  6  2 -1</clus>
<clus scale="  465.670">  4  5 -1 -1</clus>
<clus scale="  300.000">  1  4  2 -1</clus>
</clustering>
</event>
<event>
 6    1  0.9131597E-012  0.3000000E+03  0.7818608E-02  0.1093470E+00
          1   -1    0    0  502    0  0.00000000000E+00  0.00000000000E+00  0.22557674343E+03  0.22557674343E+03  0.00000000000E+00 0.  1.
         13   -1    0    0    0    0 -0.00000000000E+00 -0.00000000000E+00 -0.27500000000E+03  0.27500000000E+03  0.00000000000E+00 0.  1.
    9000005    2    1    2  501    0 -0.18278120454E+00 -0.35027423370E+02 -0.41820871870E+02  0.46473333330E+03  0.46152045670E+03 0.  0.
         13    1    3    3    0    0 -0.89874063508E+02 -0.21783434364E+03 -0.95325193694E+02  0.25419685504E+03  0.00000000000E+00 0.  1.
          3    1    3    3  501    0  0.89691282303E+02  0.18280692027E+03  0.53504321824E+02  0.21053647825E+03  0.00000000000E+00 0.  1.
         21    1    1    2  502  501  0.18278120454E+00  0.35027423370E+02 -0.76023846990E+01  0.35843410133E+02  0.00000000000E+00 0.  1.
<scales pt_clust_4="550.00000" pt_clust_5="550.00000" pt_clust_6="35.02792"></scales>
<mgrwt>
<rscale>  0 0.30000000E+03</rscale>
<asrwt>  1 0.35027918E+02</asrwt>
<pdfrwt beam="1">  1        1 0.82027907E+00 0.30000000E+03</pdfrwt>
<pdfrwt beam="2">0</pdfrwt>
<totfact> 0.71916302E-04</totfact>
</mgrwt>
<clustering>
<clus scale="   35.028">  1  6  2 -1</clus>
<clus scale="  461.520">  4  5 -1 -1</clus>
<clus scale="  300.000">  1  4  2 -1</clus>
</clustering>
</event>
<event>
 6    1  0.9131597E-012  0.3000000E+03  0.7818608E-02  0.1093470E+00
          1   -1    0    0  502    0  0.00000000000E+00  0.00000000000E+00  0.24070456489E+03  0.24070456489E+03  0.00000000000E+00 0.  1.
         13   -1    0    0    0    0 -0.00000000000E+00 -0.00000000000E+00 -0.27500000000E+03  0.27500000000E+03  0.00000000000E+00 0.  1.
    9000005    2    1    2  501    0  0.28149627370E+02  0.14811049174E+02 -0.44979955000E+02  0.48214971928E+03  0.47899205291E+03 0.  0.
         13    1    3    3    0    0  0.12431579626E+03 -0.77912935718E+02 -0.21848599796E+03  0.26317479753E+03  0.00000000000E+00 0.  1.
          1    1    3    3  501    0 -0.96166168889E+02  0.92723984892E+02  0.17350604296E+03  0.21897492175E+03  0.00000000000E+00 0.  1.
         21    1    1    2  502  501 -0.28149627370E+02 -0.14811049174E+02  0.10684519894E+02  0.33554845613E+02  0.00000000000E+00 0.  1.
<scales pt_clust_4="550.00000" pt_clust_5="550.00000" pt_clust_6="31.80831"></scales>
<mgrwt>
<rscale>  0 0.30000000E+03</rscale>
<asrwt>  1 0.31808312E+02</asrwt>
<pdfrwt beam="1">  1        1 0.87528933E+00 0.30000000E+03</pdfrwt>
<pdfrwt beam="2">0</pdfrwt>
<totfact> 0.22740937E-04</totfact>
</mgrwt>
<clustering>
<clus scale="   31.808">  1  6  2 -1</clus>
<clus scale="  478.992">  4  5 -1 -1</clus>
<clus scale="  300.000">  1  4  2 -1</clus>
</clustering>
</event>
<event>
 6    1  0.9131597E-012  0.3000000E+03  0.7818608E-02  0.1093470E+00
          1   -1    0    0  502    0  0.00000000000E+00  0.00000000000E+00  0.23183232547E+03  0.23183232547E+03  0.00000000000E+00 0.  1.
         13   -1    0    0    0    0 -0.00000000000E+00 -0.00000000000E+00 -0.27500000000E+03  0.27500000000E+03  0.00000000000E+00 0.  1.
    9000005    2    1    2  501    0  0.31719724320E+02  0.19686593199E+02 -0.46034477336E+02  0.46939008433E+03  0.46563309086E+03 0.  0.
         13    1    3    3    0    0  0.17708699519E+03 -0.15430294433E+03 -0.59387391276E+02  0.24227270737E+03  0.00000000000E+00 0.  1.
          3    1    3    3  501    0 -0.14536727087E+03  0.17398953753E+03  0.13352913940E+02  0.22711737697E+03  0.00000000000E+00 0.  1.
         21    1    1    2  502  501 -0.31719724320E+02 -0.19686593199E+02  0.28668028025E+01  0.37442241132E+02  0.00000000000E+00 0.  1.
<scales pt_clust_4="550.00000" pt_clust_5="550.00000" pt_clust_6="37.33233"></scales>
<mgrwt>
<rscale>  0 0.30000000E+03</rscale>
<asrwt>  1 0.37332330E+02</asrwt>
<pdfrwt beam="1">  1        1 0.84302664E+00 0.30000000E+03</pdfrwt>
<pdfrwt beam="2">0</pdfrwt>
<totfact> 0.46419959E-04</totfact>
</mgrwt>
<clustering>
<clus scale="   37.332">  1  6  2 -1</clus>
<clus scale="  465.633">  4  5 -1 -1</clus>
<clus scale="  300.000">  1  4  2 -1</clus>
</clustering>
</event>
<event>
 6    1  0.9131597E-012  0.3000000E+03  0.7818608E-02  0.1093470E+00
          1   -1    0    0  502    0  0.00000000000E+00  0.00000000000E+00  0.23138329590E+03  0.23138329590E+03  0.00000000000E+00 0.  1.
         13   -1    0    0    0    0 -0.00000000000E+00 -0.00000000000E+00 -0.27500000000E+03  0.27500000000E+03  0.00000000000E+00 0.  1.
    9000005    2    1    2  501    0  0.36404948576E+02  0.19211093448E+01 -0.31533595097E+02  0.46797740487E+03  0.46548842404E+03 0.  0.
         13    1    3    3    0    0  0.77126409199E+02  0.13048616137E+03  0.16855442068E+03  0.22668417244E+03  0.00000000000E+00 0.  1.
          1    1    3    3  501    0 -0.40721460623E+02 -0.12856505202E+03 -0.20008801578E+03  0.24129323243E+03  0.00000000000E+00 0.  1.
         21    1    1    2  502  501 -0.36404948576E+02 -0.19211093448E+01 -0.12083109006E+02  0.38405891022E+02  0.00000000000E+00 0.  1.
<scales pt_clust_4="550.00000" pt_clust_5="550.00000" pt_clust_6="36.45562"></scales>
<mgrwt>
<rscale>  0 0.30000000E+03</rscale>
<asrwt>  1 0.36455621E+02</asrwt>
<pdfrwt beam="1">  1        1 0.84139380E+00 0.30000000E+03</pdfrwt>
<pdfrwt beam="2">0</pdfrwt>
<totfact> 0.48099708E-04</totfact>
</mgrwt>
<clustering>
<clus scale="   36.456">  1  6  2 -1</clus>
<clus scale="  465.488">  4  5 -1 -1</clus>
<clus scale="  300.000">  1  4  2 -1</clus>
</clustering>
</event>
<event>
 6    1  0.9131597E-012  0.3000000E+03  0.7818608E-02  0.1093470E+00
          1   -1    0    0  502    0  0.00000000000E+00  0.00000000000E+00  0.25754774321E+03  0.25754774321E+03  0.00000000000E+00 0.  1.
         13   -1    0    0    0    0 -0.00000000000E+00 -0.00000000000E+00 -0.27500000000E+03  0.27500000000E+03  0.00000000000E+00 0.  1.
    9000005    2    1    2  501    0  0.39711410446E+02  0.27000625880E+02 -0.27357415248E+02  0.48351569164E+03  0.48034671434E+03 0.  0.
         13    1    3    3    0    0  0.81224911968E+02  0.19581145324E+03 -0.15938498283E+03  0.26522289550E+03  0.00000000000E+00 0.  1.
          3    1    3    3  501    0 -0.41513501522E+02 -0.16881082736E+03  0.13202756758E+03  0.21829279614E+03  0.00000000000E+00 0.  1.
         21    1    1    2  502  501 -0.39711410446E+02 -0.27000625880E+02  0.99051584603E+01  0.49032051575E+02  0.00000000000E+00 0. -1.
<scales pt_clust_4="550.00000" pt_clust_5="550.00000" pt_clust_6="48.02114"></scales>
<mgrwt>
<rscale>  0 0.30000000E+03</rscale>
<asrwt>  1 0.48021140E+02</asrwt>
<pdfrwt beam="1">  1        1 0.93653725E+00 0.30000000E+03</pdfrwt>
<pdfrwt beam="2">0</pdfrwt>
<totfact> 0.20356517E-05</totfact>
</mgrwt>
<clustering>
<clus scale="   48.021">  1  6  2 -1</clus>
<clus scale="  480.347">  4  5 -1 -1</clus>
<clus scale="  300.000">  1  4  2 -1</clus>
</clustering>
</event>
<event>
 6    1  0.9131597E-012  0.3000000E+03  0.7818608E-02  0.1093470E+00
          1   -1    0    0  502    0  0.00000000000E+00  0.00000000000E+00  0.23532204840E+03  0.23532204840E+03  0.00000000000E+00 0.  1.
         13   -1    0    0    0    0 -0.00000000000E+00 -0.00000000000E+00 -0.27500000000E+03  0.27500000000E+03  0.00000000000E+00 0.  1.
    9000005    2    1    2  501    0  0.11596300498E+02  0.45445384695E+02 -0.36465970993E+02  0.46331062432E+03  0.45948581087E+03 0.  0.
         13    1    3    3    0    0 -0.12654219904E+03 -0.84816340389E+02 -0.17220124997E+03  0.22991304927E+03  0.00000000000E+00 0.  1.
          3    1    3    3  501    0  0.13813849954E+03  0.13026172508E+03  0.13573527898E+03  0.23339757504E+03  0.00000000000E+00 0.  1.
         21    1    1    2  502  501 -0.11596300498E+02 -0.45445384695E+02 -0.32119806032E+01  0.47011424087E+02  0.00000000000E+00 0.  1.
<scales pt_clust_4="550.00000" pt_clust_5="550.00000" pt_clust_6="46.90157"></scales>
<mgrwt>
<rscale>  0 0.30000000E+03</rscale>
<asrwt>  1 0.46901569E+02</asrwt>
<pdfrwt beam="1">  1        1 0.85571654E+00 0.30000000E+03</pdfrwt>
<pdfrwt beam="2">0</pdfrwt>
<totfact> 0.33978043E-04</totfact>
</mgrwt>
<clustering>
<clus scale="   46.902">  1  6  2 -1</clus>
<clus scale="  459.486">  4  5 -1 -1</clus>
<clus scale="  300.000">  1  4  2 -1</clus>
</clustering>
</event>
<event>
 6    1  0.9131597E-012  0.3000000E+03  0.7818608E-02  0.1093470E+00
          1   -1    0    0  502    0  0.00000000000E+00  0.00000000000E+00  0.22986187943E+03  0.22986187943E+03  0.00000000000E+00 0.  1.
         13   -1    0    0    0    0 -0.00000000000E+00 -0.00000000000E+00 -0.27500000000E+03  0.27500000000E+03  0.00000000000E+00 0.  1.
    9000005    2    1    2  501    0  0.29534088363E+02  0.99574666095E+01 -0.71334826194E+02  0.46414725181E+03  0.45757250837E+03 0.  0.
         13    1    3    3    0    0  0.15821855789E+03  0.13707352359E+03  0.84155081607E+02  0.22561990313E+03  0.00000000000E+00 0.  1.
          3    1    3    3  501    0 -0.12868446953E+03 -0.12711605698E+03 -0.15548990780E+03  0.23852734868E+03  0.00000000000E+00 0.  1.
         21    1    1    2  502  501 -0.29534088363E+02 -0.99574666095E+01  0.26196705623E+02  0.40714627620E+02  0.00000000000E+00 0. -1.
<scales pt_clust_4="550.00000" pt_clust_5="550.00000" pt_clust_6="31.16751"></scales>
<mgrwt>
<rscale>  0 0.30000000E+03</rscale>
<asrwt>  1 0.31167507E+02</asrwt>
<pdfrwt beam="1">  1        1 0.83586138E+00 0.30000000E+03</pdfrwt>
<pdfrwt beam="2">0</pdfrwt>
<totfact> 0.54506051E-04</totfact>
</mgrwt>
<clustering>
<clus scale="   31.168">  1  6  2 -1</clus>
<clus scale="  457.573">  4  5 -1 -1</clus>
<clus scale="  300.000">  1  4  2 -1</clus>
</clustering>
</event>
<event>
 6    1  0.9131597E-012  0.3000000E+03  0.7818608E-02  0.1093470E+00
          1   -1    0    0  502    0  0.00000000000E+00  0.00000000000E+00  0.22600476106E+03  0.22600476106E+03  0.00000000000E+00 0.  1.
         13   -1    0    0    0    0 -0.00000000000E+00 -0.00000000000E+00 -0.27500000000E+03  0.27500000000E+03  0.00000000000E+00 0.  1.
    9000005    2    1    2  501    0 -0.18864043657E+02  0.31778135381E+02 -0.57775295884E+02  0.46302066661E+03  0.45791314773E+03 0.  0.
         13    1    3    3    0    0  0.66247377115E+02  0.11863749462E+03  0.16224515452E+03  0.21162953544E+03  0.00000000000E+00 0.  1.
          3    1    3    3  501    0 -0.85111420772E+02 -0.86859359238E+02 -0.22002045041E+03  0.25139113117E+03  0.00000000000E+00 0.  1.
         21    1    1    2  502  501  0.18864043657E+02 -0.31778135381E+02  0.87800569485E+01  0.37984094453E+02  0.00000000000E+00 0.  1.
<scales pt_clust_4="550.00000" pt_clust_5="550.00000" pt_clust_6="36.95541"></scales>
<mgrwt>
<rscale>  0 0.30000000E+03</rscale>
<asrwt>  1 0.36955406E+02</asrwt>
<pdfrwt beam="1">  1        1 0.82183549E+00 0.30000000E+03</pdfrwt>
<pdfrwt beam="2">0</pdfrwt>
<totfact> 0.68998484E-04</totfact>
</mgrwt>
<clustering>
<clus scale="   36.955">  1  6  2 -1</clus>
<clus scale="  457.913">  4  5 -1 -1</clus>
<clus scale="  300.000">  1  4  2 -1</clus>
</clustering>
</event>
<event>
 6    1  0.9131597E-012  0.3000000E+03  0.7818608E-02  0.1093470E+00
          1   -1    0    0  502    0  0.00000000000E+00  0.00000000000E+00  0.25031846802E+03  0.25031846802E+03  0.00000000000E+00 0.  1.
         13   -1    0    0    0    0 -0.00000000000E+00 -0.00000000000E+00 -0.27500000000E+03  0.27500000000E+03  0.00000000000E+00 0.  1.
    9000005    2    1    2  501    0  0.51533072972E+02 -0.11908422699E+01 -0.45439499265E+02  0.46974897170E+03  0.46469589260E+03 0.  0.
         13    1    3    3    0    0 -0.16779016663E+03  0.64420525486E+02 -0.13410721089E+03  0.22425050309E+03  0.00000000000E+00 0.  1.
          3    1    3    3  501    0  0.21932323960E+03 -0.65611367756E+02  0.88667711629E+02  0.24549846861E+03  0.00000000000E+00 0.  1.
         21    1    1    2  502  501 -0.51533072972E+02  0.11908422699E+01  0.20757967281E+02  0.55569496317E+02  0.00000000000E+00 0.  1.
<scales pt_clust_4="550.00000" pt_clust_5="550.00000" pt_clust_6="51.54683"></scales>
<mgrwt>
<rscale>  0 0.30000000E+03</rscale>
<asrwt>  1 0.51546830E+02</asrwt>
<pdfrwt beam="1">  1        1 0.91024897E+00 0.30000000E+03</pdfrwt>
<pdfrwt beam="2">0</pdfrwt>
<totfact> 0.66076098E-05</totfact>
</mgrwt>
<clustering>
<clus scale="   51.547">  1  6  2 -1</clus>
<clus scale="  464.696">  4  5 -1 -1</clus>
<clus scale="  300.000">  1  4  2 -1</clus>
</clustering>
</event>
<event>
 6    1  0.9131597E-012  0.3000000E+03  0.7818608E-02  0.1093470E+00
          1   -1    0    0  502    0  0.00000000000E+00  0.00000000000E+00  0.22177113031E+03  0.22177113031E+03  0.00000000000E+00 0.  1.
         13   -1    0    0    0    0 -0.00000000000E+00 -0.00000000000E+00 -0.27500000000E+03  0.27500000000E+03  0.00000000000E+00 0.  1.
    9000005    2    1    2  501    0 -0.30190344975E+02  0.23782564693E+00 -0.63956001405E+02  0.46473076755E+03  0.45931775788E+03 0.  0.
         13    1    3    3    0    0 -0.87868163994E+02  0.12994218014E+03  0.14400648222E+03  0.21294048780E+03  0.00000000000E+00 0.  1.
          1    1    3    3  501    0  0.57677819018E+02 -0.12970435449E+03 -0.20796248363E+03  0.25179027975E+03  0.00000000000E+00 0.  1.
         21    1    1    2  502  501  0.30190344975E+02 -0.23782564693E+00  0.10727131710E+02  0.32040362755E+02  0.00000000000E+00 0.  1.
<scales pt_clust_4="550.00000" pt_clust_5="550.00000" pt_clust_6="30.19128"></scales>
<mgrwt>
<rscale>  0 0.30000000E+03</rscale>
<asrwt>  1 0.30191282E+02</asrwt>
<pdfrwt beam="1">  1        1 0.80644047E+00 0.30000000E+03</pdfrwt>
<pdfrwt beam="2">0</pdfrwt>
<totfact> 0.95555355E-04</totfact>
</mgrwt>
<clustering>
<clus scale="   30.191">  1  6  2 -1</clus>
<clus scale="  459.318">  4  5 -1 -1</clus>
<clus scale="  300.000">  1  4  2 -1</clus>
</clustering>
</event>
<event>
 6    1  0.9131597E-012  0.3000000E+03  0.7818608E-02  0.1093470E+00
          1   -1    0    0  502    0  0.00000000000E+00  0.00000000000E+00  0.24044485072E+03  0.24044485072E+03  0.00000000000E+00 0.  1.
         13   -1    0    0    0    0 -0.00000000000E+00 -0.00000000000E+00 -0.27500000000E+03  0.27500000000E+03  0.00000000000E+00 0.  1.
    9000005    2    1    2  501    0 -0.42741851999E+02  0.27660829835E+02 -0.28067535887E+02  0.46412159530E+03  0.46046615645E+03 0.  0.
         13    1    3    3    0    0  0.11456875875E+03  0.19540581408E+03 -0.53511901181E+02  0.23275084581E+03  0.00000000000E+00 0.  1.
          1    1    3    3  501    0 -0.15731061075E+03 -0.16774498424E+03  0.25444365294E+02  0.23137074949E+03  0.00000000000E+00 0.  1.
         21    1    1    2  502  501  0.42741851999E+02 -0.27660829835E+02 -0.64876133920E+01  0.51323255421E+02  0.00000000000E+00 0.  1.
<scales pt_clust_4="550.00000" pt_clust_5="550.00000" pt_clust_6="50.91159"></scales>
<mgrwt>
<rscale>  0 0.30000000E+03</rscale>
<asrwt>  1 0.50911590E+02</asrwt>
<pdfrwt beam="1">  1        1 0.87434491E+00 0.30000000E+03</pdfrwt>
<pdfrwt beam="2">0</pdfrwt>
<totfact> 0.21355589E-04</totfact>
</mgrwt>
<clustering>
<clus scale="   50.912">  1  6  2 -1</clus>
<clus scale="  460.466">  4  5 -1 -1</clus>
<clus scale="  300.000">  1  4  2 -1</clus>
</clustering>
</event>
<event>
 6    1  0.9131597E-012  0.3000000E+03  0.7818608E-02  0.1093470E+00
          1   -1    0    0  502    0  0.00000000000E+00  0.00000000000E+00  0.24008204107E+03  0.24008204107E+03  0.00000000000E+00 0.  1.
         13   -1    0    0    0    0 -0.00000000000E+00 -0.00000000000E+00 -0.27500000000E+03  0.27500000000E+03  0.00000000000E+00 0.  1.
    9000005    2    1    2  501    0 -0.32528571257E+02  0.15081331954E+02 -0.40778353696E+02  0.47875163028E+03  0.47566237484E+03 0.  0.
         13    1    3    3    0    0  0.60130763587E+02  0.23119084826E+03  0.62235263075E+01  0.23896369877E+03  0.00000000000E+00 0.  1.
          1    1    3    3  501    0 -0.92659334844E+02 -0.21610951631E+03 -0.47001880003E+02  0.23978793151E+03  0.00000000000E+00 0.  1.
         21    1    1    2  502  501  0.32528571257E+02 -0.15081331954E+02  0.58603947650E+01  0.36330410792E+02  0.00000000000E+00 0. -1.
<scales pt_clust_4="550.00000" pt_clust_5="550.00000" pt_clust_6="35.85463"></scales>
<mgrwt>
<rscale>  0 0.30000000E+03</rscale>
<asrwt>  1 0.35854630E+02</asrwt>
<pdfrwt beam="1">  1        1 0.87302560E+00 0.30000000E+03</pdfrwt>
<pdfrwt beam="2">0</pdfrwt>
<totfact> 0.23477787E-04</totfact>
</mgrwt>
<clustering>
<clus scale="   35.855">  1  6  2 -1</clus>
<clus scale="  475.662">  4  5 -1 -1</clus>
<clus scale="  300.000">  1  4  2 -1</clus>
</clustering>
</event>
<event>
 6    1  0.9131597E-012  0.3000000E+03  0.7818608E-02  0.1093470E+00
          1   -1    0    0  502    0  0.00000000000E+00  0.00000000000E+00  0.23978584900E+03  0.23978584900E+03  0.00000000000E+00 0.  1.
         13   -1    0    0    0    0 -0.00000000000E+00 -0.00000000000E+00 -0.27500000000E+03  0.27500000000E+03  0.00000000000E+00 0.  1.
    9000005    2    1    2  501    0 -0.98288553627E+01 -0.38456744642E+02 -0.32458549907E+02  0.47499739661E+03  0.47222181410E+03 0.  0.
         13    1    3    3    0    0 -0.10408733190E+03  0.57215197999E+02 -0.21663092072E+03  0.24705608140E+03  0.00000000000E+00 0.  1.
          3    1    3    3  501    0  0.94258476536E+02 -0.95671942641E+02  0.18417237081E+03  0.22794131521E+03  0.00000000000E+00 0.  1.
         21    1    1    2  502  501  0.98288553627E+01  0.38456744642E+02 -0.27556010949E+01  0.39788452390E+02  0.00000000000E+00 0. -1.
<scales pt_clust_4="550.00000" pt_clust_5="550.00000" pt_clust_6="39.69294"></scales>
<mgrwt>
<rscale>  0 0.30000000E+03</rscale>
<asrwt>  1 0.39692936E+02</asrwt>
<pdfrwt beam="1">  1        1 0.87194854E+00 0.30000000E+03</pdfrwt>
<pdfrwt beam="2">0</pdfrwt>
<totfact> 0.23634769E-04</totfact>
</mgrwt>
<clustering>
<clus scale="   39.693">  1  6  2 -1</clus>
<clus scale="  472.222">  4  5 -1 -1</clus>
<clus scale="  300.000">  1  4  2 -1</clus>
</clustering>
</event>
<event>
 6    1  0.9131597E-012  0.3000000E+03  0.7818608E-02  0.1093470E+00
          1   -1    0    0  502    0  0.00000000000E+00  0.00000000000E+00  0.23210434408E+03  0.23210434408E+03  0.00000000000E+00 0.  1.
         13   -1    0    0    0    0 -0.00000000000E+00 -0.00000000000E+00 -0.27500000000E+03  0.27500000000E+03  0.00000000000E+00 0.  1.
    9000005    2    1    2  501    0  0.19343910322E+02  0.33338991395E+02 -0.49005079836E+02  0.46807870797E+03  0.46390786131E+03 0.  0.
         13    1    3    3    0    0 -0.46098344069E+02 -0.49860709056E+01  0.20128229304E+03  0.20655381798E+03  0.00000000000E+00 0.  1.
          3    1    3    3  501    0  0.65442254391E+02  0.38325062300E+02 -0.25028737288E+03  0.26152488999E+03  0.00000000000E+00 0.  1.
         21    1    1    2  502  501 -0.19343910322E+02 -0.33338991395E+02  0.61094239212E+01  0.39025636118E+02  0.00000000000E+00 0. -1.
<scales pt_clust_4="550.00000" pt_clust_5="550.00000" pt_clust_6="38.54446"></scales>
<mgrwt>
<rscale>  0 0.30000000E+03</rscale>
<asrwt>  1 0.38544458E+02</asrwt>
<pdfrwt beam="1">  1        1 0.84401580E+00 0.30000000E+03</pdfrwt>
<pdfrwt beam="2">0</pdfrwt>
<totfact> 0.45261509E-04</totfact>
</mgrwt>
<clustering>
<clus scale="   38.544">  1  6  2 -1</clus>
<clus scale="  463.908">  4  5 -1 -1</clus>
<clus scale="  300.000">  1  4  2 -1</clus>
</clustering>
</event>
<event>
 6    1  0.9131597E-012  0.3000000E+03  0.7818608E-02  0.1093470E+00
          1   -1    0    0  502    0  0.00000000000E+00  0.00000000000E+00  0.23674398636E+03  0.23674398636E+03  0.00000000000E+00 0.  1.
         13   -1    0    0    0    0 -0.00000000000E+00 -0.00000000000E+00 -0.27500000000E+03  0.27500000000E+03  0.00000000000E+00 0.  1.
    9000005    2    1    2  501    0  0.24202084338E+02 -0.22305530304E+02 -0.42465532639E+02  0.47856270220E+03  0.47553723399E+03 0.  0.
         13    1    3    3    0    0 -0.33357468734E+02 -0.18666806799E+03 -0.17630576155E+03  0.25892355992E+03  0.00000000000E+00 0.  1.
          1    1    3    3  501    0  0.57559553072E+02  0.16436253769E+03  0.13384022891E+03  0.21963914228E+03  0.00000000000E+00 0.  1.
         21    1    1    2  502  501 -0.24202084338E+02  0.22305530304E+02  0.42095190033E+01  0.33181284162E+02  0.00000000000E+00 0. -1.
<scales pt_clust_4="550.00000" pt_clust_5="550.00000" pt_clust_6="32.91318"></scales>
<mgrwt>
<rscale>  0 0.30000000E+03</rscale>
<asrwt>  1 0.32913182E+02</asrwt>
<pdfrwt beam="1">  1        1 0.86088722E+00 0.30000000E+03</pdfrwt>
<pdfrwt beam="2">0</pdfrwt>
<totfact> 0.32014557E-04</totfact>
</mgrwt>
<clustering>
<clus scale="   32.913">  1  6  2 -1</clus>
<clus scale="  475.537">  4  5 -1 -1</clus>
<clus scale="  300.000">  1  4  2 -1</clus>
</clustering>
</event>
<event>
 6    1  0.9131597E-012  0.3000000E+03  0.7818608E-02  0.1093470E+00
          1   -1    0    0  502    0  0.00000000000E+00  0.00000000000E+00  0.23849121458E+03  0.23849121458E+03  0.00000000000E+00 0.  1.
         13   -1    0    0    0    0 -0.00000000000E+00 -0.00000000000E+00 -0.27500000000E+03  0.27500000000E+03  0.00000000000E+00 0.  1.
    9000005    2    1    2  501    0 -0.37007403960E+02  0.14383949709E+02 -0.60571081262E+02  0.46706449772E+03  0.46141515275E+03 0.  0.
         13    1    3    3    0    0 -0.12294442820E+03 -0.18190421222E+03 -0.11233529503E+03  0.24662460007E+03  0.00000000000E+00 0.  1.
          1    1    3    3  501    0  0.85937024243E+02  0.19628816193E+03  0.51764213766E+02  0.22043989765E+03  0.00000000000E+00 0.  1.
         21    1    1    2  502  501  0.37007403960E+02 -0.14383949709E+02  0.24062295844E+02  0.46426716860E+02  0.00000000000E+00 0. -1.
<scales pt_clust_4="550.00000" pt_clust_5="550.00000" pt_clust_6="39.70448"></scales>
<mgrwt>
<rscale>  0 0.30000000E+03</rscale>
<asrwt>  1 0.39704483E+02</asrwt>
<pdfrwt beam="1">  1        1 0.86724078E+00 0.30000000E+03</pdfrwt>
<pdfrwt beam="2">0</pdfrwt>
<totfact> 0.26420474E-04</totfact>
</mgrwt>
<clustering>
<clus scale="   39.704">  1  6  2 -1</clus>
<clus scale="  461.415">  4  5 -1 -1</clus>
<clus scale="  300.000">  1  4  2 -1</clus>
</clustering>
</event>
<event>
 6    1  0.9131597E-012  0.3000000E+03  0.7818608E-02  0.1093470E+00
          1   -1    0    0  502    0  0.00000000000E+00  0.00000000000E+00  0.23323109368E+03  0.23323109368E+03  0.00000000000E+00 0.  1.
         13   -1    0    0    0    0 -0.00000000000E+00 -0.00000000000E+00 -0.27500000000E+03  0.27500000000E+03  0.00000000000E+00 0.  1.
    9000005    2    1    2  501    0 -0.31870139044E+02  0.13768589683E+02 -0.34051942251E+02  0.47266662604E+03  0.47015840392E+03 0.  0.
         13    1    3    3    0    0 -0.19302142900E+03  0.13294057008E+03 -0.10926399994E+03  0.25859058163E+03  0.00000000000E+00 0.  1.
          3    1    3    3  501    0  0.16115128995E+03 -0.11917198039E+03  0.75212057692E+02  0.21407604440E+03  0.00000000000E+00 0.  1.
         21    1    1    2  502  501  0.31870139044E+02 -0.13768589683E+02 -0.77169640665E+01  0.35564467646E+02  0.00000000000E+00 0.  1.
<scales pt_clust_4="550.00000" pt_clust_5="550.00000" pt_clust_6="34.71716"></scales>
<mgrwt>
<rscale>  0 0.30000000E+03</rscale>
<asrwt>  1 0.34717158E+02</asrwt>
<pdfrwt beam="1">  1        1 0.84811307E+00 0.30000000E+03</pdfrwt>
<pdfrwt beam="2">0</pdfrwt>
<totfact> 0.42436966E-04</totfact>
</mgrwt>
<clustering>
<clus scale="   34.717">  1  6  2 -1</clus>
<clus scale="  470.158">  4  5 -1 -1</clus>
<clus scale="  300.000">  1  4  2 -1</clus>
</clustering>
</event>
<event>
 6    1  0.9131597E-012  0.3000000E+03  0.7818608E-02  0.1093470E+00
          1   -1    0    0  502    0  0.00000000000E+00  0.00000000000E+00  0.23260569718E+03  0.23260569718E+03  0.00000000000E+00 0.  1.
         13   -1    0    0    0    0 -0.00000000000E+00 -0.00000000000E+00 -0.27500000000E+03  0.27500000000E+03  0.00000000000E+00 0.  1.
    9000005    2    1    2  501    0 -0.32162370616E+02  0.59733117969E+01 -0.61967335472E+02  0.46948480862E+03  0.46422616936E+03 0.  0.
         13    1    3    3    0    0 -0.64575029248E+02 -0.19522115596E+03 -0.14269829149E+03  0.25028790728E+03  0.00000000000E+00 0.  1.
          3    1    3    3  501    0  0.32412658632E+02  0.20119446776E+03  0.80730956014E+02  0.21919690134E+03  0.00000000000E+00 0.  1.
         21    1    1    2  502  501  0.32162370616E+02 -0.59733117969E+01  0.19573032648E+02  0.38120888558E+02  0.00000000000E+00 0.  1.
<scales pt_clust_4="550.00000" pt_clust_5="550.00000" pt_clust_6="32.71236"></scales>
<mgrwt>
<rscale>  0 0.30000000E+03</rscale>
<asrwt>  1 0.32712361E+02</asrwt>
<pdfrwt beam="1">  1        1 0.84583890E+00 0.30000000E+03</pdfrwt>
<pdfrwt beam="2">0</pdfrwt>
<totfact> 0.44989644E-04</totfact>
</mgrwt>
<clustering>
<clus scale="   32.712">  1  6  2 -1</clus>
<clus scale="  464.226">  4  5 -1 -1</clus>
<clus scale="  300.000">  1  4  2 -1</clus>
</clustering>
</event>
<event>
 6    1  0.9131597E-012  0.3000000E+03  0.7818608E-02  0.1093470E+00
          1   -1    0    0  502    0  0.00000000000E+00  0.00000000000E+00  0.26118652225E+03  0.26118652225E+03  0.00000000000E+00 0.  1.
         13   -1    0    0    0    0 -0.00000000000E+00 -0.00000000000E+00 -0.27500000000E+03  0.27500000000E+03  0.00000000000E+00 0.  1.
    9000005    2    1    2  501    0  0.10374852242E+02  0.39880548453E+02 -0.48880080763E+02  0.48207772120E+03  0.47781960119E+03 0.  0.
         13    1    3    3    0    0  0.94878511052E+02  0.14792691062E+03 -0.20779936208E+03  0.27214863150E+03  0.00000000000E+00 0.  1.
          1    1    3    3  501    0 -0.84503658810E+02 -0.10804636217E+03  0.15891928132E+03  0.20992908971E+03  0.00000000000E+00 0.  1.
         21    1    1    2  502  501 -0.10374852242E+02 -0.39880548453E+02  0.35066603018E+02  0.54108801051E+02  0.00000000000E+00 0.  1.
<scales pt_clust_4="550.00000" pt_clust_5="550.00000" pt_clust_6="41.20796"></scales>
<mgrwt>
<rscale>  0 0.30000000E+03</rscale>
<asrwt>  1 0.41207957E+02</asrwt>
<pdfrwt beam="1">  1        1 0.94976917E+00 0.30000000E+03</pdfrwt>
<pdfrwt beam="2">0</pdfrwt>
<totfact> 0.12102376E-05</totfact>
</mgrwt>
<clustering>
<clus scale="   41.208">  1  6  2 -1</clus>
<clus scale="  477.820">  4  5 -1 -1</clus>
<clus scale="  300.000">  1  4  2 -1</clus>
</clustering>
</event>
<event>
 6    1  0.9131597E-012  0.3000000E+03  0.7818608E-02  0.1093470E+00
          1   -1    0    0  502    0  0.00000000000E+00  0.00000000000E+00  0.23096406903E+03  0.23096406903E+03  0.00000000000E+00 0.  1.
         13   -1    0    0    0    0 -0.00000000000E+00 -0.00000000000E+00 -0.27500000000E+03  0.27500000000E+03  0.00000000000E+00 0.  1.
    9000005    2    1    2  501    0  0.59687051349E+01  0.31205119268E+02 -0.43695565344E+02  0.47419142737E+03  0.47110383404E+03 0.  0.
         13    1    3    3    0    0 -0.44364132020E+02 -0.17696578054E+03  0.10775095110E+03  0.21188518390E+03  0.00000000000E+00 0.  1.
          3    1    3    3  501    0  0.50332837154E+02  0.20817089980E+03 -0.15144651645E+03  0.26230624347E+03  0.00000000000E+00 0.  1.
         21    1    1    2  502  501 -0.59687051349E+01 -0.31205119268E+02 -0.34036562233E+00  0.31772641663E+02  0.00000000000E+00 0.  1.
<scales pt_clust_4="550.00000" pt_clust_5="550.00000" pt_clust_6="31.77082"></scales>
<mgrwt>
<rscale>  0 0.30000000E+03</rscale>
<asrwt>  1 0.31770819E+02</asrwt>
<pdfrwt beam="1">  1        1 0.83986934E+00 0.30000000E+03</pdfrwt>
<pdfrwt beam="2">0</pdfrwt>
<totfact> 0.50737336E-04</totfact>
</mgrwt>
<clustering>
<clus scale="   31.771">  1  6  2 -1</clus>
<clus scale="  471.104">  4  5 -1 -1</clus>
<clus scale="  300.000">  1  4  2 -1</clus>
</clustering>
</event>
<event>
 6    1  0.9131597E-012  0.3000000E+03  0.7818608E-02  0.1093470E+00
          1   -1    0    0  502    0  0.00000000000E+00  0.00000000000E+00  0.23716743563E+03  0.23716743563E+03  0.00000000000E+00 0.  1.
         13   -1    0    0    0    0 -0.00000000000E+00 -0.00000000000E+00 -0.27500000000E+03  0.27500000000E+03  0.00000000000E+00 0.  1.
    9000005    2    1    2  501    0 -0.34260471416E+02  0.24844408100E+02 -0.57683112191E+02  0.46542271653E+03  0.45989122530E+03 0.  0.
         13    1    3    3    0    0 -0.17744171131E+03  0.11778164637E+03  0.97955634961E+02  0.23442138032E+03  0.00000000000E+00 0.  1.
          3    1    3    3  501    0  0.14318123989E+03 -0.92937238267E+02 -0.15563874715E+03  0.23100133620E+03  0.00000000000E+00 0.  1.
         21    1    1    2  502  501  0.34260471416E+02 -0.24844408100E+02  0.19850547822E+02  0.46744719106E+02  0.00000000000E+00 0.  1.
<scales pt_clust_4="550.00000" pt_clust_5="550.00000" pt_clust_6="42.32050"></scales>
<mgrwt>
<rscale>  0 0.30000000E+03</rscale>
<asrwt>  1 0.42320498E+02</asrwt>
<pdfrwt beam="1">  1        1 0.86242704E+00 0.30000000E+03</pdfrwt>
<pdfrwt beam="2">0</pdfrwt>
<totfact> 0.29414428E-04</totfact>
</mgrwt>
<clustering>
<clus scale="   42.320">  1  6  2 -1</clus>
<clus scale="  459.891">  4  5 -1 -1</clus>
<clus scale="  300.000">  1  4  2 -1</clus>
</clustering>
</event>
<event>
 6    1  0.9131597E-012  0.3000000E+03  0.7818608E-02  0.1093470E+00
          1   -1    0    0  502    0  0.00000000000E+00  0.00000000000E+00  0.25970057878E+03  0.25970057878E+03  0.00000000000E+00 0.  1.
         13   -1    0    0    0    0 -0.00000000000E+00 -0.00000000000E+00 -0.27500000000E+03  0.27500000000E+03  0.00000000000E+00 0.  1.
    9000005    2    1    2  501    0 -0.27485491158E+01  0.38023624780E+02 -0.21457787419E+02  0.49608353542E+03  0.49415087464E+03 0.  0.
         13    1    3    3    0    0 -0.24186869885E+03  0.64940436740E+02  0.22601283221E+02  0.25145286996E+03  0.00000000000E+00 0.  1.
          1    1    3    3  501    0  0.23912014974E+03 -0.26916811960E+02 -0.44059070641E+02  0.24463066546E+03  0.00000000000E+00 0.  1.
         21    1    1    2  502  501  0.27485491158E+01 -0.38023624780E+02  0.61583661991E+01  0.38617043361E+02  0.00000000000E+00 0.  1.
<scales pt_clust_4="550.00000" pt_clust_5="550.00000" pt_clust_6="38.12284"></scales>
<mgrwt>
<rscale>  0 0.30000000E+03</rscale>
<asrwt>  1 0.38122835E+02</asrwt>
<pdfrwt beam="1">  1        1 0.94436574E+00 0.30000000E+03</pdfrwt>
<pdfrwt beam="2">0</pdfrwt>
<totfact> 0.15737541E-05</totfact>
</mgrwt>
<clustering>
<clus scale="   38.123">  1  6  2 -1</clus>
<clus scale="  494.151">  4  5 -1 -1</clus>
<clus scale="  300.000">  1  4  2 -1</clus>
</clustering>
</event>
<event>
 6    1  0.9131597E-012  0.3000000E+03  0.7818608E-02  0.1093470E+00
          1   -1    0    0  502    0  0.00000000000E+00  0.00000000000E+00  0.24790152418E+03  0.24790152418E+03  0.00000000000E+00 0.  1.
         13   -1    0    0    0    0 -0.00000000000E+00 -0.00000000000E+00 -0.27500000000E+03  0.27500000000E+03  0.00000000000E+00 0.  1.
    9000005    2    1    2  501    0 -0.43051642144E+02  0.14073257519E+02 -0.47067806960E+02  0.47340127515E+03  0.46887299814E+03 0.  0.
         13    1    3    3    0    0 -0.77354678062E+02 -0.17880396186E+03  0.10872253881E+03  0.22310354870E+03  0.00000000000E+00 0.  1.
          1    1    3    3  501    0  0.34303035918E+02  0.19287721938E+03 -0.15579034577E+03  0.25029772645E+03  0.00000000000E+00 0.  1.
         21    1    1    2  502  501  0.43051642144E+02 -0.14073257519E+02  0.19969331144E+02  0.49500249038E+02  0.00000000000E+00 0. -1.
<scales pt_clust_4="550.00000" pt_clust_5="550.00000" pt_clust_6="45.29349"></scales>
<mgrwt>
<rscale>  0 0.30000000E+03</rscale>
<asrwt>  1 0.45293493E+02</asrwt>
<pdfrwt beam="1">  1        1 0.90146009E+00 0.30000000E+03</pdfrwt>
<pdfrwt beam="2">0</pdfrwt>
<totfact> 0.10078965E-04</totfact>
</mgrwt>
<clustering>
<clus scale="   45.293">  1  6  2 -1</clus>
<clus scale="  468.873">  4  5 -1 -1</clus>
<clus scale="  300.000">  1  4  2 -1</clus>
</clustering>
</event>
<event>
 6    1  0.9131597E-012  0.3000000E+03  0.7818608E-02  0.1093470E+00
          1   -1    0    0  502    0  0.00000000000E+00  0.00000000000E+00  0.24835390975E+03  0.24835390975E+03  0.00000000000E+00 0.  1.
         13   -1    0    0    0    0 -0.00000000000E+00 -0.00000000000E+00 -0.27500000000E+03  0.27500000000E+03  0.00000000000E+00 0.  1.
    9000005    2    1    2  501    0  0.70752848755E+01 -0.50371201904E+02 -0.57396177552E+02  0.46391582847E+03  0.45753279343E+03 0.  0.
         13    1    3    3    0    0 -0.14864601878E+03  0.58540151487E+02 -0.17774032106E+03  0.23898579449E+03  0.00000000000E+00 0.  1.
          1    1    3    3  501    0  0.15572130365E+03 -0.10891135339E+03  0.12034414351E+03  0.22493003398E+03  0.00000000000E+00 0.  1.
         21    1    1    2  502  501 -0.70752848755E+01  0.50371201904E+02  0.30750087298E+02  0.59438081279E+02  0.00000000000E+00 0. -1.
<scales pt_clust_4="550.00000" pt_clust_5="550.00000" pt_clust_6="50.86568"></scales>
<mgrwt>
<rscale>  0 0.30000000E+03</rscale>
<asrwt>  1 0.50865682E+02</asrwt>
<pdfrwt beam="1">  1        1 0.90310513E+00 0.30000000E+03</pdfrwt>
<pdfrwt beam="2">0</pdfrwt>
<totfact> 0.93300140E-05</totfact>
</mgrwt>
<clustering>
<clus scale="   50.866">  1  6  2 -1</clus>
<clus scale="  457.533">  4  5 -1 -1</clus>
<clus scale="  300.000">  1  4  2 -1</clus>
</clustering>
</event>
<event>
 6    1  0.9131597E-012  0.3000000E+03  0.7818608E-02  0.1093470E+00
          1   -1    0    0  502    0  0.00000000000E+00  0.00000000000E+00  0.23418347490E+03  0.23418347490E+03  0.00000000000E+00 0.  1.
         13   -1    0    0    0    0 -0.00000000000E+00 -0.00000000000E+00 -0.27500000000E+03  0.27500000000E+03  0.00000000000E+00 0.  1.
    9000005    2    1    2  501    0 -0.33830736019E+02  0.21054715878E+02 -0.56889769236E+02  0.46621640685E+03  0.46101352736E+03 0.  0.
         13    1    3    3    0    0  0.13356126345E+03 -0.12082552929E+02  0.14790264264E+03  0.19964916949E+03  0.00000000000E+00 0.  1.
          3    1    3    3  501    0 -0.16739199947E+03  0.33137268807E+02 -0.20479241187E+03  0.26656723735E+03  0.00000000000E+00 0.  1.
         21    1    1    2  502  501  0.33830736019E+02 -0.21054715878E+02  0.16073244139E+02  0.42967068057E+02  0.00000000000E+00 0. -1.
<scales pt_clust_4="550.00000" pt_clust_5="550.00000" pt_clust_6="39.84746"></scales>
<mgrwt>
<rscale>  0 0.30000000E+03</rscale>
<asrwt>  1 0.39847456E+02</asrwt>
<pdfrwt beam="1">  1        1 0.85157627E+00 0.30000000E+03</pdfrwt>
<pdfrwt beam="2">0</pdfrwt>
<totfact> 0.38393111E-04</totfact>
</mgrwt>
<clustering>
<clus scale="   39.847">  1  6  2 -1</clus>
<clus scale="  461.014">  4  5 -1 -1</clus>
<clus scale="  300.000">  1  4  2 -1</clus>
</clustering>
</event>
<event>
 6    1  0.9131597E-012  0.3000000E+03  0.7818608E-02  0.1093470E+00
          1   -1    0    0  502    0  0.00000000000E+00  0.00000000000E+00  0.22369963118E+03  0.22369963118E+03  0.00000000000E+00 0.  1.
         13   -1    0    0    0    0 -0.00000000000E+00 -0.00000000000E+00 -0.27500000000E+03  0.27500000000E+03  0.00000000000E+00 0.  1.
    9000005    2    1    2  501    0  0.28446840980E+02 -0.10715630673E+02 -0.66973564481E+02  0.46449880422E+03  0.45863889203E+03 0.  0.
         13    1    3    3    0    0  0.66885475245E+02  0.53031007023E+02  0.18393770640E+03  0.20277828863E+03  0.00000000000E+00 0.  1.
          1    1    3    3  501    0 -0.38438634265E+02 -0.63746637695E+02 -0.25091127088E+03  0.26172051558E+03  0.00000000000E+00 0.  1.
         21    1    1    2  502  501 -0.28446840980E+02  0.10715630673E+02  0.15673195658E+02  0.34200826958E+02  0.00000000000E+00 0.  1.
<scales pt_clust_4="550.00000" pt_clust_5="550.00000" pt_clust_6="30.39815"></scales>
<mgrwt>
<rscale>  0 0.30000000E+03</rscale>
<asrwt>  1 0.30398150E+02</asrwt>
<pdfrwt beam="1">  1        1 0.81345320E+00 0.30000000E+03</pdfrwt>
<pdfrwt beam="2">0</pdfrwt>
<totfact> 0.84132269E-04</totfact>
</mgrwt>
<clustering>
<clus scale="   30.398">  1  6  2 -1</clus>
<clus scale="  458.639">  4  5 -1 -1</clus>
<clus scale="  300.000">  1  4  2 -1</clus>
</clustering>
</event>
<event>
 6    1  0.9131597E-012  0.3000000E+03  0.7818608E-02  0.1093470E+00
          1   -1    0    0  502    0  0.00000000000E+00  0.00000000000E+00  0.23546906505E+03  0.23546906505E+03  0.00000000000E+00 0.  1.
         13   -1    0    0    0    0 -0.00000000000E+00 -0.00000000000E+00 -0.27500000000E+03  0.27500000000E+03  0.00000000000E+00 0.  1.
    9000005    2    1    2  501    0  0.34811753859E+02  0.12571298016E+02 -0.65487821020E+02  0.46526225500E+03  0.45914095383E+03 0.  0.
         13    1    3    3    0    0 -0.21139728796E+03  0.27249744061E+02 -0.16379807599E+02  0.21377478805E+03  0.00000000000E+00 0.  1.
          3    1    3    3  501    0  0.24620904182E+03 -0.14678446045E+02 -0.49108013421E+02  0.25148746695E+03  0.00000000000E+00 0.  1.
         21    1    1    2  502  501 -0.34811753859E+02 -0.12571298016E+02  0.25956886070E+02  0.45206810052E+02  0.00000000000E+00 0.  1.
<scales pt_clust_4="550.00000" pt_clust_5="550.00000" pt_clust_6="37.01210"></scales>
<mgrwt>
<rscale>  0 0.30000000E+03</rscale>
<asrwt>  1 0.37012103E+02</asrwt>
<pdfrwt beam="1">  1        1 0.85625115E+00 0.30000000E+03</pdfrwt>
<pdfrwt beam="2">0</pdfrwt>
<totfact> 0.35029117E-04</totfact>
</mgrwt>
<clustering>
<clus scale="   37.012">  1  6  2 -1</clus>
<clus scale="  459.141">  4  5 -1 -1</clus>
<clus scale="  300.000">  1  4  2 -1</clus>
</clustering>
</event>
<event>
 6    1  0.9131597E-012  0.3000000E+03  0.7818608E-02  0.1093470E+00
          1   -1    0    0  502    0  0.00000000000E+00  0.00000000000E+00  0.23789720779E+03  0.23789720779E+03  0.00000000000E+00 0.  1.
         13   -1    0    0    0    0 -0.00000000000E+00 -0.00000000000E+00 -0.27500000000E+03  0.27500000000E+03  0.00000000000E+00 0.  1.
    9000005    2    1    2  501    0 -0.30434263655E+02 -0.28676015089E+02 -0.26122685101E+02  0.46966387577E+03  0.46706873507E+03 0.  0.
         13    1    3    3    0    0 -0.62787693677E+02  0.68025249770E+02  0.20067452655E+03  0.22099772553E+03  0.00000000000E+00 0.  1.
          1    1    3    3  501    0  0.32353430022E+02 -0.96701264859E+02 -0.22679721165E+03  0.24866615024E+03  0.00000000000E+00 0.  1.
         21    1    1    2  502  501  0.30434263655E+02  0.28676015089E+02 -0.10980107107E+02  0.43233332022E+02  0.00000000000E+00 0.  1.
<scales pt_clust_4="550.00000" pt_clust_5="550.00000" pt_clust_6="41.81579"></scales>
<mgrwt>
<rscale>  0 0.30000000E+03</rscale>
<asrwt>  1 0.41815786E+02</asrwt>
<pdfrwt beam="1">  1        1 0.86508076E+00 0.30000000E+03</pdfrwt>
<pdfrwt beam="2">0</pdfrwt>
<totfact> 0.27594746E-04</totfact>
</mgrwt>
<clustering>
<clus scale="   41.816">  1  6  2 -1</clus>
<clus scale="  467.069">  4  5 -1 -1</clus>
<clus scale="  300.000">  1  4  2 -1</clus>
</clustering>
</event>
<event>
 6    1  0.9131597E-012  0.3000000E+03  0.7818608E-02  0.1093470E+00
          1   -1    0    0  502    0  0.00000000000E+00  0.00000000000E+00  0.23032068086E+03  0.23032068086E+03  0.00000000000E+00 0.  1.
         13   -1    0    0    0    0 -0.00000000000E+00 -0.00000000000E+00 -0.27500000000E+03  0.27500000000E+03  0.00000000000E+00 0.  1.
    9000005    2    1    2  501    0  0.21528043127E+02 -0.22779749365E+02 -0.38326042182E+02  0.47334040960E+03  0.47074396887E+03 0.  0.
         13    1    3    3    0    0 -0.16836842416E+03 -0.14573607996E+03 -0.91828639305E+02  0.24087222807E+03  0.00000000000E+00 0.  1.
          3    1    3    3  501    0  0.18989646729E+03  0.12295633060E+03  0.53502597123E+02  0.23246818153E+03  0.00000000000E+00 0.  1.
         21    1    1    2  502  501 -0.21528043127E+02  0.22779749365E+02 -0.63532769593E+01  0.31980271264E+02  0.00000000000E+00 0.  1.
<scales pt_clust_4="550.00000" pt_clust_5="550.00000" pt_clust_6="31.34286"></scales>
<mgrwt>
<rscale>  0 0.30000000E+03</rscale>
<asrwt>  1 0.31342856E+02</asrwt>
<pdfrwt beam="1">  1        1 0.83752975E+00 0.30000000E+03</pdfrwt>
<pdfrwt beam="2">0</pdfrwt>
<totfact> 0.52949128E-04</totfact>
</mgrwt>
<clustering>
<clus scale="   31.343">  1  6  2 -1</clus>
<clus scale="  470.744">  4  5 -1 -1</clus>
<clus scale="  300.000">  1  4  2 -1</clus>
</clustering>
</event>
<event>
 6    1  0.9131597E-012  0.3000000E+03  0.7818608E-02  0.1093470E+00
          1   -1    0    0  502    0  0.00000000000E+00  0.00000000000E+00  0.24036916519E+03  0.24036916519E+03  0.00000000000E+00 0.  1.
         13   -1    0    0    0    0 -0.00000000000E+00 -0.00000000000E+00 -0.27500000000E+03  0.27500000000E+03  0.00000000000E+00 0.  1.
    9000005    2    1    2  501    0  0.74058628019E+01 -0.34186435664E+02 -0.59409044396E+02  0.47250287473E+03  0.46744622459E+03 0.  0.
         13    1    3    3    0    0  0.14926123256E+03  0.14349146200E+03 -0.11719510025E+03  0.23791470475E+03  0.00000000000E+00 0.  1.
          3    1    3    3  501    0 -0.14185536976E+03 -0.17767789766E+03  0.57786055852E+02  0.23458816999E+03  0.00000000000E+00 0.  1.
         21    1    1    2  502  501 -0.74058628019E+01  0.34186435664E+02  0.24778209585E+02  0.42866290456E+02  0.00000000000E+00 0.  1.
<scales pt_clust_4="550.00000" pt_clust_5="550.00000" pt_clust_6="34.97941"></scales>
<mgrwt>
<rscale>  0 0.30000000E+03</rscale>
<asrwt>  1 0.34979411E+02</asrwt>
<pdfrwt beam="1">  1        1 0.87406969E+00 0.30000000E+03</pdfrwt>
<pdfrwt beam="2">0</pdfrwt>
<totfact> 0.23006661E-04</totfact>
</mgrwt>
<clustering>
<clus scale="   34.979">  1  6  2 -1</clus>
<clus scale="  467.446">  4  5 -1 -1</clus>
<clus scale="  300.000">  1  4  2 -1</clus>
</clustering>
</event>
<event>
 6    1  0.9131597E-012  0.3000000E+03  0.7818608E-02  0.1093470E+00
          1   -1    0    0  502    0  0.00000000000E+00  0.00000000000E+00  0.23014019895E+03  0.23014019895E+03  0.00000000000E+00 0.  1.
         13   -1    0    0    0    0 -0.00000000000E+00 -0.00000000000E+00 -0.27500000000E+03  0.27500000000E+03  0.00000000000E+00 0.  1.
    9000005    2    1    2  501    0 -0.30207901657E+02  0.15387157788E+02 -0.59775945327E+02  0.46810274078E+03  0.46303102525E+03 0.  0.
         13    1    3    3    0    0 -0.14260573297E+03  0.17919482260E+03 -0.12257350410E+03  0.25975265818E+03  0.00000000000E+00 0.  1.
          3    1    3    3  501    0  0.11239783131E+03 -0.16380766481E+03  0.62797558769E+02  0.20835008261E+03  0.00000000000E+00 0.  1.
         21    1    1    2  502  501  0.30207901657E+02 -0.15387157788E+02  0.14916144275E+02  0.37037458165E+02  0.00000000000E+00 0.  1.
<scales pt_clust_4="550.00000" pt_clust_5="550.00000" pt_clust_6="33.90106"></scales>
<mgrwt>
<rscale>  0 0.30000000E+03</rscale>
<asrwt>  1 0.33901061E+02</asrwt>
<pdfrwt beam="1">  1        1 0.83687345E+00 0.30000000E+03</pdfrwt>
<pdfrwt beam="2">0</pdfrwt>
<totfact> 0.52744552E-04</totfact>
</mgrwt>
<clustering>
<clus scale="   33.901">  1  6  2 -1</clus>
<clus scale="  463.031">  4  5 -1 -1</clus>
<clus scale="  300.000">  1  4  2 -1</clus>
</clustering>
</event>
<event>
 6    1  0.9131597E-012  0.3000000E+03  0.7818608E-02  0.1093470E+00
          1   -1    0    0  502    0  0.00000000000E+00  0.00000000000E+00  0.22705936341E+03  0.22705936341E+03  0.00000000000E+00 0.  1.
         13   -1    0    0    0    0 -0.00000000000E+00 -0.00000000000E+00 -0.27500000000E+03  0.27500000000E+03  0.00000000000E+00 0.  1.
    9000005    2    1    2  501    0 -0.18088777108E+02  0.27355652493E+02 -0.44346396773E+02  0.46906763505E+03  0.46581359766E+03 0.  0.
         13    1    3    3    0    0  0.16913674122E+03 -0.11553243318E+03  0.57081848867E+02  0.21263423482E+03  0.00000000000E+00 0.  1.
          1    1    3    3  501    0 -0.18722551833E+03  0.14288808568E+03 -0.10142824564E+03  0.25643340023E+03  0.00000000000E+00 0.  1.
         21    1    1    2  502  501  0.18088777108E+02 -0.27355652493E+02 -0.35942398151E+01  0.32991728364E+02  0.00000000000E+00 0.  1.
<scales pt_clust_4="550.00000" pt_clust_5="550.00000" pt_clust_6="32.79538"></scales>
<mgrwt>
<rscale>  0 0.30000000E+03</rscale>
<asrwt>  1 0.32795376E+02</asrwt>
<pdfrwt beam="1">  1        1 0.82567041E+00 0.30000000E+03</pdfrwt>
<pdfrwt beam="2">0</pdfrwt>
<totfact> 0.65218108E-04</totfact>
</mgrwt>
<clustering>
<clus scale="   32.795">  1  6  2 -1</clus>
<clus scale="  465.814">  4  5 -1 -1</clus>
<clus scale="  300.000">  1  4  2 -1</clus>
</clustering>
</event>
<event>
 6    1  0.9131597E-012  0.3000000E+03  0.7818608E-02  0.1093470E+00
          1   -1    0    0  502    0  0.00000000000E+00  0.00000000000E+00  0.22395618184E+03  0.22395618184E+03  0.00000000000E+00 0.  1.
         13   -1    0    0    0    0 -0.00000000000E+00 -0.00000000000E+00 -0.27500000000E+03  0.27500000000E+03  0.00000000000E+00 0.  1.
    9000005    2    1    2  501    0 -0.34250224864E+02 -0.56071025695E+01 -0.56299868976E+02  0.46385427915E+03  0.45911501776E+03 0.  0.
         13    1    3    3    0    0  0.13186332539E+03 -0.14887365890E+03 -0.12390124629E+03  0.23431351162E+03  0.00000000000E+00 0.  1.
          3    1    3    3  501    0 -0.16611355025E+03  0.14326655633E+03  0.67601377319E+02  0.22954076752E+03  0.00000000000E+00 0.  1.
         21    1    1    2  502  501  0.34250224864E+02  0.56071025695E+01  0.52560508150E+01  0.35101902693E+02  0.00000000000E+00 0. -1.
<scales pt_clust_4="550.00000" pt_clust_5="550.00000" pt_clust_6="34.70616"></scales>
<mgrwt>
<rscale>  0 0.30000000E+03</rscale>
<asrwt>  1 0.34706159E+02</asrwt>
<pdfrwt beam="1">  1        1 0.81438612E+00 0.30000000E+03</pdfrwt>
<pdfrwt beam="2">0</pdfrwt>
<totfact> 0.80643778E-04</totfact>
</mgrwt>
<clustering>
<clus scale="   34.706">  1  6  2 -1</clus>
<clus scale="  459.115">  4  5 -1 -1</clus>
<clus scale="  300.000">  1  4  2 -1</clus>
</clustering>
</event>
<event>
 6    1  0.9131597E-012  0.3000000E+03  0.7818608E-02  0.1093470E+00
          1   -1    0    0  502    0  0.00000000000E+00  0.00000000000E+00  0.23563788821E+03  0.23563788821E+03  0.00000000000E+00 0.  1.
         13   -1    0    0    0    0 -0.00000000000E+00 -0.00000000000E+00 -0.27500000000E+03  0.27500000000E+03  0.00000000000E+00 0.  1.
    9000005    2    1    2  501    0 -0.24252527250E+02 -0.18880399279E+02 -0.65168623493E+02  0.47050522569E+03  0.46495544233E+03 0.  0.
         13    1    3    3    0    0  0.16615185385E+03  0.14414440466E+02 -0.18023229055E+03  0.24555629332E+03  0.00000000000E+00 0.  1.
          3    1    3    3  501    0 -0.19040438110E+03 -0.33294839745E+02  0.11506366705E+03  0.22494893237E+03  0.00000000000E+00 0.  1.
         21    1    1    2  502  501  0.24252527250E+02  0.18880399279E+02  0.25806511707E+02  0.40132662526E+02  0.00000000000E+00 0.  1.
<scales pt_clust_4="550.00000" pt_clust_5="550.00000" pt_clust_6="30.73523"></scales>
<mgrwt>
<rscale>  0 0.30000000E+03</rscale>
<asrwt>  1 0.30735233E+02</asrwt>
<pdfrwt beam="1">  1        1 0.85686505E+00 0.30000000E+03</pdfrwt>
<pdfrwt beam="2">0</pdfrwt>
<totfact> 0.35757470E-04</totfact>
</mgrwt>
<clustering>
<clus scale="   30.735">  1  6  2 -1</clus>
<clus scale="  464.955">  4  5 -1 -1</clus>
<clus scale="  300.000">  1  4  2 -1</clus>
</clustering>
</event>
<event>
 6    1  0.9131597E-012  0.3000000E+03  0.7818608E-02  0.1093470E+00
          1   -1    0    0  502    0  0.00000000000E+00  0.00000000000E+00  0.22153781835E+03  0.22153781835E+03  0.00000000000E+00 0.  1.
         13   -1    0    0    0    0 -0.00000000000E+00 -0.00000000000E+00 -0.27500000000E+03  0.27500000000E+03  0.00000000000E+00 0.  1.
    9000005    2    1    2  501    0  0.23238103106E+02 -0.24676240690E+02 -0.57453199262E+02  0.46240785334E+03  0.45757100698E+03 0.  0.
         13    1    3    3    0    0 -0.18504153289E+03  0.89980709003E+02 -0.85877417593E+02  0.22296149385E+03  0.00000000000E+00 0.  1.
          3    1    3    3  501    0  0.20827963600E+03 -0.11465694969E+03  0.28424218331E+02  0.23944635949E+03  0.00000000000E+00 0.  1.
         21    1    1    2  502  501 -0.23238103106E+02  0.24676240690E+02  0.39910176170E+01  0.34129965019E+02  0.00000000000E+00 0.  1.
<scales pt_clust_4="550.00000" pt_clust_5="550.00000" pt_clust_6="33.89582"></scales>
<mgrwt>
<rscale>  0 0.30000000E+03</rscale>
<asrwt>  1 0.33895815E+02</asrwt>
<pdfrwt beam="1">  1        1 0.80559207E+00 0.30000000E+03</pdfrwt>
<pdfrwt beam="2">0</pdfrwt>
<totfact> 0.94880636E-04</totfact>
</mgrwt>
<clustering>
<clus scale="   33.896">  1  6  2 -1</clus>
<clus scale="  457.571">  4  5 -1 -1</clus>
<clus scale="  300.000">  1  4  2 -1</clus>
</clustering>
</event>
<event>
 6    1  0.9131597E-012  0.3000000E+03  0.7818608E-02  0.1093470E+00
          1   -1    0    0  502    0  0.00000000000E+00  0.00000000000E+00  0.24929047665E+03  0.24929047665E+03  0.00000000000E+00 0.  1.
         13   -1    0    0    0    0 -0.00000000000E+00 -0.00000000000E+00 -0.27500000000E+03  0.27500000000E+03  0.00000000000E+00 0.  1.
    9000005    2    1    2  501    0  0.43560089438E+02 -0.70548795249E+01 -0.39037979829E+02  0.47819383394E+03  0.47455044646E+03 0.  0.
         13    1    3    3    0    0  0.20493797046E+03 -0.87360122879E+02  0.10611356766E+03  0.24676193395E+03  0.00000000000E+00 0.  1.
          1    1    3    3  501    0 -0.16137788102E+03  0.80305243354E+02 -0.14515154749E+03  0.23143189999E+03  0.00000000000E+00 0.  1.
         21    1    1    2  502  501 -0.43560089438E+02  0.70548795249E+01  0.13328456477E+02  0.46096642708E+02  0.00000000000E+00 0. -1.
<scales pt_clust_4="550.00000" pt_clust_5="550.00000" pt_clust_6="44.12769"></scales>
<mgrwt>
<rscale>  0 0.30000000E+03</rscale>
<asrwt>  1 0.44127687E+02</asrwt>
<pdfrwt beam="1">  1        1 0.90651082E+00 0.30000000E+03</pdfrwt>
<pdfrwt beam="2">0</pdfrwt>
<totfact> 0.82693041E-05</totfact>
</mgrwt>
<clustering>
<clus scale="   44.128">  1  6  2 -1</clus>
<clus scale="  474.550">  4  5 -1 -1</clus>
<clus scale="  300.000">  1  4  2 -1</clus>
</clustering>
</event>
<event>
 6    1  0.9131597E-012  0.3000000E+03  0.7818608E-02  0.1093470E+00
          1   -1    0    0  502    0  0.00000000000E+00  0.00000000000E+00  0.25270474024E+03  0.25270474024E+03  0.00000000000E+00 0.  1.
         13   -1    0    0    0    0 -0.00000000000E+00 -0.00000000000E+00 -0.27500000000E+03  0.27500000000E+03  0.00000000000E+00 0.  1.
    9000005    2    1    2  501    0  0.22899930212E+02 -0.31056742220E+02 -0.28038064948E+02  0.48869310285E+03  0.48635983350E+03 0.  0.
         13    1    3    3    0    0  0.40927554210E+02  0.11786574106E+03  0.18802749575E+03  0.22565845157E+03  0.00000000000E+00 0.  1.
          3    1    3    3  501    0 -0.18027623998E+02 -0.14892248328E+03 -0.21606556070E+03  0.26303465127E+03  0.00000000000E+00 0.  1.
         21    1    1    2  502  501 -0.22899930212E+02  0.31056742220E+02  0.57428051925E+01  0.39011637399E+02  0.00000000000E+00 0.  1.
<scales pt_clust_4="550.00000" pt_clust_5="550.00000" pt_clust_6="38.58663"></scales>
<mgrwt>
<rscale>  0 0.30000000E+03</rscale>
<asrwt>  1 0.38586630E+02</asrwt>
<pdfrwt beam="1">  1        1 0.91892633E+00 0.30000000E+03</pdfrwt>
<pdfrwt beam="2">0</pdfrwt>
<totfact> 0.43331632E-05</totfact>
</mgrwt>
<clustering>
<clus scale="   38.587">  1  6  2 -1</clus>
<clus scale="  486.360">  4  5 -1 -1</clus>
<clus scale="  300.000">  1  4  2 -1</clus>
</clustering>
</event>
<event>
 6    1  0.9131597E-012  0.3000000E+03  0.7818608E-02  0.1093470E+00
          1   -1    0    0  502    0  0.00000000000E+00  0.00000000000E+00  0.23128149215E+03  0.23128149215E+03  0.00000000000E+00 0.  1.
         13   -1    0    0    0    0 -0.00000000000E+00 -0.00000000000E+00 -0.27500000000E+03  0.27500000000E+03  0.00000000000E+00 0.  1.
    9000005    2    1    2  501    0  0.18686619764E+02 -0.28084909388E+02 -0.22180747370E+02  0.46625866092E+03  0.46450748265E+03 0.  0.
         13    1    3    3    0    0 -0.42648210537E+02 -0.13538032129E+03 -0.20271884899E+03  0.24747046892E+03  0.00000000000E+00 0.  1.
          3    1    3    3  501    0  0.61334830301E+02  0.10729541190E+03  0.18053810162E+03  0.21878819200E+03  0.00000000000E+00 0.  1.
         21    1    1    2  502  501 -0.18686619764E+02  0.28084909388E+02 -0.21537760475E+02  0.40022831232E+02  0.00000000000E+00 0.  1.
<scales pt_clust_4="550.00000" pt_clust_5="550.00000" pt_clust_6="33.73356"></scales>
<mgrwt>
<rscale>  0 0.30000000E+03</rscale>
<asrwt>  1 0.33733559E+02</asrwt>
<pdfrwt beam="1">  1        1 0.84102361E+00 0.30000000E+03</pdfrwt>
<pdfrwt beam="2">0</pdfrwt>
<totfact> 0.49136992E-04</totfact>
</mgrwt>
<clustering>
<clus scale="   33.734">  1  6  2 -1</clus>
<clus scale="  464.507">  4  5 -1 -1</clus>
<clus scale="  300.000">  1  4  2 -1</clus>
</clustering>
</event>
<event>
 6    1  0.9131597E-012  0.3000000E+03  0.7818608E-02  0.1093470E+00
          1   -1    0    0  502    0  0.00000000000E+00  0.00000000000E+00  0.23429480078E+03  0.23429480078E+03  0.00000000000E+00 0.  1.
         13   -1    0    0    0    0 -0.00000000000E+00 -0.00000000000E+00 -0.27500000000E+03  0.27500000000E+03  0.00000000000E+00 0.  1.
    9000005    2    1    2  501    0  0.37920463353E+02  0.74649533192E+01 -0.44451470457E+02  0.47046540963E+03  0.46676341048E+03 0.  0.
         13    1    3    3    0    0 -0.63423909466E+02 -0.56780200174E+02  0.18938603663E+03  0.20763827753E+03  0.00000000000E+00 0.  1.
          1    1    3    3  501    0  0.10134437282E+03  0.64245153493E+02 -0.23383750709E+03  0.26282713210E+03  0.00000000000E+00 0.  1.
         21    1    1    2  502  501 -0.37920463353E+02 -0.74649533192E+01  0.37462712400E+01  0.38829391151E+02  0.00000000000E+00 0.  1.
<scales pt_clust_4="550.00000" pt_clust_5="550.00000" pt_clust_6="38.64825"></scales>
<mgrwt>
<rscale>  0 0.30000000E+03</rscale>
<asrwt>  1 0.38648248E+02</asrwt>
<pdfrwt beam="1">  1        1 0.85198109E+00 0.30000000E+03</pdfrwt>
<pdfrwt beam="2">0</pdfrwt>
<totfact> 0.38266156E-04</totfact>
</mgrwt>
<clustering>
<clus scale="   38.648">  1  6  2 -1</clus>
<clus scale="  466.763">  4  5 -1 -1</clus>
<clus scale="  300.000">  1  4  2 -1</clus>
</clustering>
</event>
<event>
 6    1  0.9131597E-012  0.3000000E+03  0.7818608E-02  0.1093470E+00
          1   -1    0    0  502    0  0.00000000000E+00  0.00000000000E+00  0.23071147075E+03  0.23071147075E+03  0.00000000000E+00 0.  1.
         13   -1    0    0    0    0 -0.00000000000E+00 -0.00000000000E+00 -0.27500000000E+03  0.27500000000E+03  0.00000000000E+00 0.  1.
    9000005    2    1    2  501    0 -0.25101293944E+02 -0.17654481543E+02 -0.57329412716E+02  0.47236750101E+03  0.46787032260E+03 0.  0.
         13    1    3    3    0    0 -0.24372089238E+03  0.24807916551E+02 -0.46822626323E+02  0.24941464359E+03  0.00000000000E+00 0.  1.
          1    1    3    3  501    0  0.21861959843E+03 -0.42462398095E+02 -0.10506786393E+02  0.22295285742E+03  0.00000000000E+00 0.  1.
         21    1    1    2  502  501  0.25101293944E+02  0.17654481543E+02  0.13040883464E+02  0.33343969736E+02  0.00000000000E+00 0.  1.
<scales pt_clust_4="550.00000" pt_clust_5="550.00000" pt_clust_6="30.68804"></scales>
<mgrwt>
<rscale>  0 0.30000000E+03</rscale>
<asrwt>  1 0.30688038E+02</asrwt>
<pdfrwt beam="1">  1        1 0.83895080E+00 0.30000000E+03</pdfrwt>
<pdfrwt beam="2">0</pdfrwt>
<totfact> 0.51896713E-04</totfact>
</mgrwt>
<clustering>
<clus scale="   30.688">  1  6  2 -1</clus>
<clus scale="  467.870">  4  5 -1 -1</clus>
<clus scale="  300.000">  1  4  2 -1</clus>
</clustering>
</event>
<event>
 6    1  0.9131597E-012  0.3000000E+03  0.7818608E-02  0.1093470E+00
          1   -1    0    0  502    0  0.00000000000E+00  0.00000000000E+00  0.25188051563E+03  0.25188051563E+03  0.00000000000E+00 0.  1.
         13   -1    0    0    0    0 -0.00000000000E+00 -0.00000000000E+00 -0.27500000000E+03  0.27500000000E+03  0.00000000000E+00 0.  1.
    9000005    2    1    2  501    0 -0.34285259988E+02 -0.61121175038E+01 -0.49358897711E+02  0.48327611396E+03  0.47948583348E+03 0.  0.
         13    1    3    3    0    0 -0.24076532412E+03  0.72677346554E+02  0.18270299239E+02  0.25215816829E+03  0.00000000000E+00 0.  1.
          3    1    3    3  501    0  0.20648006413E+03 -0.78789464058E+02 -0.67629196951E+02  0.23111794567E+03  0.00000000000E+00 0.  1.
         21    1    1    2  502  501  0.34285259988E+02  0.61121175038E+01  0.26239413341E+02  0.43604401674E+02  0.00000000000E+00 0.  1.
<scales pt_clust_4="550.00000" pt_clust_5="550.00000" pt_clust_6="34.82581"></scales>
<mgrwt>
<rscale>  0 0.30000000E+03</rscale>
<asrwt>  1 0.34825810E+02</asrwt>
<pdfrwt beam="1">  1        1 0.91592915E+00 0.30000000E+03</pdfrwt>
<pdfrwt beam="2">0</pdfrwt>
<totfact> 0.51583760E-05</totfact>
</mgrwt>
<clustering>
<clus scale="   34.826">  1  6  2 -1</clus>
<clus scale="  479.486">  4  5 -1 -1</clus>
<clus scale="  300.000">  1  4  2 -1</clus>
</clustering>
</event>
<event>
 6    1  0.9131597E-012  0.3000000E+03  0.7818608E-02  0.1093470E+00
          1   -1    0    0  502    0  0.00000000000E+00  0.00000000000E+00  0.24748705094E+03  0.24748705094E+03  0.00000000000E+00 0.  1.
         13   -1    0    0    0    0 -0.00000000000E+00 -0.00000000000E+00 -0.27500000000E+03  0.27500000000E+03  0.00000000000E+00 0.  1.
    9000005    2    1    2  501    0 -0.32430998190E+02 -0.19562344693E+02 -0.60538014142E+02  0.47223657933E+03  0.46680625609E+03 0.  0.
         13    1    3    3    0    0  0.17831308854E+03 -0.12791625467E+03 -0.82067490329E+02  0.23429297626E+03  0.00000000000E+00 0.  1.
          1    1    3    3  501    0 -0.21074408673E+03  0.10835390998E+03  0.21529476186E+02  0.23794360307E+03  0.00000000000E+00 0.  1.
         21    1    1    2  502  501  0.32430998190E+02  0.19562344693E+02  0.33025065084E+02  0.50250471612E+02  0.00000000000E+00 0.  1.
<scales pt_clust_4="550.00000" pt_clust_5="550.00000" pt_clust_6="37.87420"></scales>
<mgrwt>
<rscale>  0 0.30000000E+03</rscale>
<asrwt>  1 0.37874199E+02</asrwt>
<pdfrwt beam="1">  1        1 0.89995291E+00 0.30000000E+03</pdfrwt>
<pdfrwt beam="2">0</pdfrwt>
<totfact> 0.10898337E-04</totfact>
</mgrwt>
<clustering>
<clus scale="   37.874">  1  6  2 -1</clus>
<clus scale="  466.806">  4  5 -1 -1</clus>
<clus scale="  300.000">  1  4  2 -1</clus>
</clustering>
</event>
<event>
 6    1  0.9131597E-012  0.3000000E+03  0.7818608E-02  0.1093470E+00
          1   -1    0    0  502    0  0.00000000000E+00  0.00000000000E+00  0.24554391880E+03  0.24554391880E+03  0.00000000000E+00 0.  1.
         13   -1    0    0    0    0 -0.00000000000E+00 -0.00000000000E+00 -0.27500000000E+03  0.27500000000E+03  0.00000000000E+00 0.  1.
    9000005    2    1    2  501    0 -0.94452390323E+01  0.30371611193E+02 -0.61826578049E+02  0.47516224438E+03  0.47004785440E+03 0.  0.
         13    1    3    3    0    0  0.12753028460E+03 -0.13384889343E+03  0.97006548318E+02  0.20878163276E+03  0.00000000000E+00 0.  1.
          3    1    3    3  501    0 -0.13697552363E+03  0.16422050462E+03 -0.15883312637E+03  0.26638061162E+03  0.00000000000E+00 0.  1.
         21    1    1    2  502  501  0.94452390323E+01 -0.30371611193E+02  0.32370496845E+02  0.45381674416E+02  0.00000000000E+00 0. -1.
<scales pt_clust_4="550.00000" pt_clust_5="550.00000" pt_clust_6="31.80640"></scales>
<mgrwt>
<rscale>  0 0.30000000E+03</rscale>
<asrwt>  1 0.31806404E+02</asrwt>
<pdfrwt beam="1">  1        1 0.89288698E+00 0.30000000E+03</pdfrwt>
<pdfrwt beam="2">0</pdfrwt>
<totfact> 0.13576396E-04</totfact>
</mgrwt>
<clustering>
<clus scale="   31.806">  1  6  2 -1</clus>
<clus scale="  470.048">  4  5 -1 -1</clus>
<clus scale="  300.000">  1  4  2 -1</clus>
</clustering>
</event>
<event>
 6    1  0.9131597E-012  0.3000000E+03  0.7818608E-02  0.1093470E+00
          1   -1    0    0  502    0  0.00000000000E+00  0.00000000000E+00  0.22980753706E+03  0.22980753706E+03  0.00000000000E+00 0.  1.
         13   -1    0    0    0    0 -0.00000000000E+00 -0.00000000000E+00 -0.27500000000E+03  0.27500000000E+03  0.00000000000E+00 0.  1.
    9000005    2    1    2  501    0 -0.23637982857E+02  0.21454755710E+02 -0.64751339195E+02  0.46736944928E+03  0.46176011675E+03 0.  0.
         13    1    3    3    0    0  0.53825537234E+02 -0.17638185491E+03  0.89338636171E+02  0.20491251576E+03  0.00000000000E+00 0.  1.
          3    1    3    3  501    0 -0.77463520091E+02  0.19783661062E+03 -0.15408997537E+03  0.26245693353E+03  0.00000000000E+00 0.  1.
         21    1    1    2  502  501  0.23637982857E+02 -0.21454755710E+02  0.19558876253E+02  0.37438087777E+02  0.00000000000E+00 0.  1.
<scales pt_clust_4="550.00000" pt_clust_5="550.00000" pt_clust_6="31.92273"></scales>
<mgrwt>
<rscale>  0 0.30000000E+03</rscale>
<asrwt>  1 0.31922731E+02</asrwt>
<pdfrwt beam="1">  1        1 0.83566377E+00 0.30000000E+03</pdfrwt>
<pdfrwt beam="2">0</pdfrwt>
<totfact> 0.54437258E-04</totfact>
</mgrwt>
<clustering>
<clus scale="   31.923">  1  6  2 -1</clus>
<clus scale="  461.760">  4  5 -1 -1</clus>
<clus scale="  300.000">  1  4  2 -1</clus>
</clustering>
</event>
<event>
 6    1  0.9131597E-012  0.3000000E+03  0.7818608E-02  0.1093470E+00
          1   -1    0    0  502    0  0.00000000000E+00  0.00000000000E+00  0.23159286804E+03  0.23159286804E+03  0.00000000000E+00 0.  1.
         13   -1    0    0    0    0 -0.00000000000E+00 -0.00000000000E+00 -0.27500000000E+03  0.27500000000E+03  0.00000000000E+00 0.  1.
    9000005    2    1    2  501    0 -0.30619460178E+02  0.14911384323E+02 -0.63851638461E+02  0.46687034836E+03  0.46122769834E+03 0.  0.
         13    1    3    3    0    0 -0.10555710091E+03  0.21247905523E+03 -0.90428176993E+02  0.25390333920E+03  0.00000000000E+00 0.  1.
          3    1    3    3  501    0  0.74937640734E+02 -0.19756767091E+03  0.26576538532E+02  0.21296700915E+03  0.00000000000E+00 0.  1.
         21    1    1    2  502  501  0.30619460178E+02 -0.14911384323E+02  0.20444506505E+02  0.39722519687E+02  0.00000000000E+00 0. -1.
<scales pt_clust_4="550.00000" pt_clust_5="550.00000" pt_clust_6="34.05732"></scales>
<mgrwt>
<rscale>  0 0.30000000E+03</rscale>
<asrwt>  1 0.34057315E+02</asrwt>
<pdfrwt beam="1">  1        1 0.84215588E+00 0.30000000E+03</pdfrwt>
<pdfrwt beam="2">0</pdfrwt>
<totfact> 0.48019640E-04</totfact>
</mgrwt>
<clustering>
<clus scale="   34.057">  1  6  2 -1</clus>
<clus scale="  461.228">  4  5 -1 -1</clus>
<clus scale="  300.000">  1  4  2 -1</clus>
</clustering>
</event>
<event>
 6    1  0.9131597E-012  0.3000000E+03  0.7818608E-02  0.1093470E+00
          1   -1    0    0  502    0  0.00000000000E+00  0.00000000000E+00  0.23024445438E+03  0.23024445438E+03  0.00000000000E+00 0.  1.
         13   -1    0    0    0    0 -0.00000000000E+00 -0.00000000000E+00 -0.27500000000E+03  0.27500000000E+03  0.00000000000E+00 0.  1.
    9000005    2    1    2  501    0  0.36148827080E+02 -0.19860812097E+02 -0.24997247954E+02  0.45951066071E+03  0.45697264179E+03 0.  0.
         13    1    3    3    0    0  0.66314196107E+02  0.19097504453E+03 -0.11004910844E+03  0.23017351391E+03  0.00000000000E+00 0.  1.
          1    1    3    3  501    0 -0.30165369027E+02 -0.21083585663E+03  0.85051860488E+02  0.22933714680E+03  0.00000000000E+00 0.  1.
         21    1    1    2  502  501 -0.36148827080E+02  0.19860812097E+02 -0.19758297668E+02  0.45733793667E+02  0.00000000000E+00 0. -1.
<scales pt_clust_4="550.00000" pt_clust_5="550.00000" pt_clust_6="41.24550"></scales>
<mgrwt>
<rscale>  0 0.30000000E+03</rscale>
<asrwt>  1 0.41245500E+02</asrwt>
<pdfrwt beam="1">  1        1 0.83725256E+00 0.30000000E+03</pdfrwt>
<pdfrwt beam="2">0</pdfrwt>
<totfact> 0.50545818E-04</totfact>
</mgrwt>
<clustering>
<clus scale="   41.245">  1  6  2 -1</clus>
<clus scale="  456.973">  4  5 -1 -1</clus>
<clus scale="  300.000">  1  4  2 -1</clus>
</clustering>
</event>
<event>
 6    1  0.9131597E-012  0.3000000E+03  0.7818608E-02  0.1093470E+00
          1   -1    0    0  502    0  0.00000000000E+00  0.00000000000E+00  0.22211763307E+03  0.22211763307E+03  0.00000000000E+00 0.  1.
         13   -1    0    0    0    0 -0.00000000000E+00 -0.00000000000E+00 -0.27500000000E+03  0.27500000000E+03  0.00000000000E+00 0.  1.
    9000005    2    1    2  501    0  0.27374872663E+02 -0.14667008904E+02 -0.65807467689E+02  0.46347891976E+03  0.45773090507E+03 0.  0.
         13    1    3    3    0    0 -0.19507187219E+02 -0.12607912923E+03 -0.22795958961E+03  0.26123179683E+03  0.00000000000E+00 0.  1.
          1    1    3    3  501    0  0.46882059882E+02  0.11141212032E+03  0.16215212192E+03  0.20224712293E+03  0.00000000000E+00 0.  1.
         21    1    1    2  502  501 -0.27374872663E+02  0.14667008904E+02  0.12925100759E+02  0.33638713310E+02  0.00000000000E+00 0. -1.
<scales pt_clust_4="550.00000" pt_clust_5="550.00000" pt_clust_6="31.05648"></scales>
<mgrwt>
<rscale>  0 0.30000000E+03</rscale>
<asrwt>  1 0.31056478E+02</asrwt>
<pdfrwt beam="1">  1        1 0.80770048E+00 0.30000000E+03</pdfrwt>
<pdfrwt beam="2">0</pdfrwt>
<totfact> 0.92944725E-04</totfact>
</mgrwt>
<clustering>
<clus scale="   31.056">  1  6  2 -1</clus>
<clus scale="  457.731">  4  5 -1 -1</clus>
<clus scale="  300.000">  1  4  2 -1</clus>
</clustering>
</event>
<event>
 6    1  0.9131597E-012  0.3000000E+03  0.7818608E-02  0.1093470E+00
          1   -1    0    0  502    0  0.00000000000E+00  0.00000000000E+00  0.22966396810E+03  0.22966396810E+03  0.00000000000E+00 0.  1.
         13   -1    0    0    0    0 -0.00000000000E+00 -0.00000000000E+00 -0.27500000000E+03  0.27500000000E+03  0.00000000000E+00 0.  1.
    9000005    2    1    2  501    0 -0.27861614040E+02 -0.11468182756E+02 -0.65391473087E+02  0.46846991508E+03  0.46290412380E+03 0.  0.
         13    1    3    3    0    0  0.24507997626E+01 -0.23474632859E+03 -0.63261711663E+02  0.24313348056E+03  0.00000000000E+00 0.  1.
          1    1    3    3  501    0 -0.30312413802E+02  0.22327814584E+03 -0.21297614233E+01  0.22533643452E+03  0.00000000000E+00 0.  1.
         21    1    1    2  502  501  0.27861614040E+02  0.11468182756E+02  0.20055441182E+02  0.36194053015E+02  0.00000000000E+00 0. -1.
<scales pt_clust_4="550.00000" pt_clust_5="550.00000" pt_clust_6="30.12953"></scales>
<mgrwt>
<rscale>  0 0.30000000E+03</rscale>
<asrwt>  1 0.30129533E+02</asrwt>
<pdfrwt beam="1">  1        1 0.83514170E+00 0.30000000E+03</pdfrwt>
<pdfrwt beam="2">0</pdfrwt>
<totfact> 0.55526543E-04</totfact>
</mgrwt>
<clustering>
<clus scale="   30.130">  1  6  2 -1</clus>
<clus scale="  462.904">  4  5 -1 -1</clus>
<clus scale="  300.000">  1  4  2 -1</clus>
</clustering>
</event>
<event>
 6    1  0.9131597E-012  0.3000000E+03  0.7818608E-02  0.1093470E+00
          1   -1    0    0  502    0  0.00000000000E+00  0.00000000000E+00  0.23898121889E+03  0.23898121889E+03  0.00000000000E+00 0.  1.
         13   -1    0    0    0    0 -0.00000000000E+00 -0.00000000000E+00 -0.27500000000E+03  0.27500000000E+03  0.00000000000E+00 0.  1.
    9000005    2    1    2  501    0 -0.30196904023E+02 -0.15184593829E+02 -0.61248080669E+02  0.47180370760E+03  0.46658866919E+03 0.  0.
         13    1    3    3    0    0  0.17821689069E+03 -0.60551054804E+02 -0.15009886986E+03  0.24074335110E+03  0.00000000000E+00 0.  1.
          1    1    3    3  501    0 -0.20841379471E+03  0.45366460975E+02  0.88850789189E+02  0.23106035650E+03  0.00000000000E+00 0.  1.
         21    1    1    2  502  501  0.30196904023E+02  0.15184593829E+02  0.25229299560E+02  0.42177511290E+02  0.00000000000E+00 0. -1.
<scales pt_clust_4="550.00000" pt_clust_5="550.00000" pt_clust_6="33.79978"></scales>
<mgrwt>
<rscale>  0 0.30000000E+03</rscale>
<asrwt>  1 0.33799777E+02</asrwt>
<pdfrwt beam="1">  1        1 0.86902261E+00 0.30000000E+03</pdfrwt>
<pdfrwt beam="2">0</pdfrwt>
<totfact> 0.26086617E-04</totfact>
</mgrwt>
<clustering>
<clus scale="   33.800">  1  6  2 -1</clus>
<clus scale="  466.589">  4  5 -1 -1</clus>
<clus scale="  300.000">  1  4  2 -1</clus>
</clustering>
</event>
<event>
 6    1  0.9131597E-012  0.3000000E+03  0.7818608E-02  0.1093470E+00
          1   -1    0    0  502    0  0.00000000000E+00  0.00000000000E+00  0.23536003900E+03  0.23536003900E+03  0.00000000000E+00 0.  1.
         13   -1    0    0    0    0 -0.00000000000E+00 -0.00000000000E+00 -0.27500000000E+03  0.27500000000E+03  0.00000000000E+00 0.  1.
    9000005    2    1    2  501    0 -0.30802855106E+02  0.67991401618E+00 -0.36719186826E+02  0.47941154813E+03  0.47700928254E+03 0.  0.
         13    1    3    3    0    0  0.20010484534E+02 -0.12564474999E+02  0.21803004707E+03  0.21930660489E+03  0.00000000000E+00 0.  1.
          3    1    3    3  501    0 -0.50813339640E+02  0.13244389015E+02 -0.25474923390E+03  0.26010494324E+03  0.00000000000E+00 0.  1.
         21    1    1    2  502  501  0.30802855106E+02 -0.67991401618E+00 -0.29207741721E+01  0.30948490876E+02  0.00000000000E+00 0. -1.
<scales pt_clust_4="550.00000" pt_clust_5="550.00000" pt_clust_6="30.81037"></scales>
<mgrwt>
<rscale>  0 0.30000000E+03</rscale>
<asrwt>  1 0.30810373E+02</asrwt>
<pdfrwt beam="1">  1        1 0.85585469E+00 0.30000000E+03</pdfrwt>
<pdfrwt beam="2">0</pdfrwt>
<totfact> 0.36596381E-04</totfact>
</mgrwt>
<clustering>
<clus scale="   30.810">  1  6  2 -1</clus>
<clus scale="  477.009">  4  5 -1 -1</clus>
<clus scale="  300.000">  1  4  2 -1</clus>
</clustering>
</event>
<event>
 6    1  0.9131597E-012  0.3000000E+03  0.7818608E-02  0.1093470E+00
          1   -1    0    0  502    0  0.00000000000E+00  0.00000000000E+00  0.22889789763E+03  0.22889789763E+03  0.00000000000E+00 0.  1.
         13   -1    0    0    0    0 -0.00000000000E+00 -0.00000000000E+00 -0.27500000000E+03  0.27500000000E+03  0.00000000000E+00 0.  1.
    9000005    2    1    2  501    0  0.27314048407E+02 -0.19303645006E+02 -0.65007107364E+02  0.46547801782E+03  0.45970117806E+03 0.  0.
         13    1    3    3    0    0 -0.64092903973E+02  0.19060326576E+03  0.52931279426E+02  0.20794043763E+03  0.00000000000E+00 0.  1.
          3    1    3    3  501    0  0.91406952380E+02 -0.20990691077E+03 -0.11793838679E+03  0.25753758019E+03  0.00000000000E+00 0.  1.
         21    1    1    2  502  501 -0.27314048407E+02  0.19303645006E+02  0.18905004994E+02  0.38419879811E+02  0.00000000000E+00 0.  1.
<scales pt_clust_4="550.00000" pt_clust_5="550.00000" pt_clust_6="33.44679"></scales>
<mgrwt>
<rscale>  0 0.30000000E+03</rscale>
<asrwt>  1 0.33446793E+02</asrwt>
<pdfrwt beam="1">  1        1 0.83235599E+00 0.30000000E+03</pdfrwt>
<pdfrwt beam="2">0</pdfrwt>
<totfact> 0.57094802E-04</totfact>
</mgrwt>
<clustering>
<clus scale="   33.447">  1  6  2 -1</clus>
<clus scale="  459.701">  4  5 -1 -1</clus>
<clus scale="  300.000">  1  4  2 -1</clus>
</clustering>
</event>
<event>
 6    1  0.9131597E-012  0.3000000E+03  0.7818608E-02  0.1093470E+00
          1   -1    0    0  502    0  0.00000000000E+00  0.00000000000E+00  0.23321645982E+03  0.23321645982E+03  0.00000000000E+00 0.  1.
         13   -1    0    0    0    0 -0.00000000000E+00 -0.00000000000E+00 -0.27500000000E+03  0.27500000000E+03  0.00000000000E+00 0.  1.
    9000005    2    1    2  501    0  0.33140408137E+02  0.12093649475E+02 -0.60924596473E+02  0.46808015400E+03  0.46275553060E+03 0.  0.
         13    1    3    3    0    0  0.13831410318E+03  0.95855673060E+01 -0.23022843687E+03  0.26875231605E+03  0.00000000000E+00 0.  1.
          1    1    3    3  501    0 -0.10517369505E+03  0.25080821689E+01  0.16930384040E+03  0.19932783794E+03  0.00000000000E+00 0.  1.
         21    1    1    2  502  501 -0.33140408137E+02 -0.12093649475E+02  0.19141056292E+02  0.40136305823E+02  0.00000000000E+00 0.  1.
<scales pt_clust_4="550.00000" pt_clust_5="550.00000" pt_clust_6="35.27808"></scales>
<mgrwt>
<rscale>  0 0.30000000E+03</rscale>
<asrwt>  1 0.35278081E+02</asrwt>
<pdfrwt beam="1">  1        1 0.84805985E+00 0.30000000E+03</pdfrwt>
<pdfrwt beam="2">0</pdfrwt>
<totfact> 0.42357464E-04</totfact>
</mgrwt>
<clustering>
<clus scale="   35.278">  1  6  2 -1</clus>
<clus scale="  462.756">  4  5 -1 -1</clus>
<clus scale="  300.000">  1  4  2 -1</clus>
</clustering>
</event>
<event>
 6    1  0.9131597E-012  0.3000000E+03  0.7818608E-02  0.1093470E+00
          1   -1    0    0  502    0  0.00000000000E+00  0.00000000000E+00  0.24459510986E+03  0.24459510986E+03  0.00000000000E+00 0.  1.
         13   -1    0    0    0    0 -0.00000000000E+00 -0.00000000000E+00 -0.27500000000E+03  0.27500000000E+03  0.00000000000E+00 0.  1.
    9000005    2    1    2  501    0 -0.10429264712E+01  0.36219404949E+02 -0.32251461118E+02  0.48331367087E+03  0.48087317945E+03 0.  0.
         13    1    3    3    0    0  0.20878760846E+03 -0.30492777093E+02  0.92343995307E+02  0.23032474546E+03  0.00000000000E+00 0.  1.
          3    1    3    3  501    0 -0.20983053493E+03  0.66712182042E+02 -0.12459545642E+03  0.25298892542E+03  0.00000000000E+00 0.  1.
         21    1    1    2  502  501  0.10429264712E+01 -0.36219404949E+02  0.18465709754E+01  0.36281438985E+02  0.00000000000E+00 0. -1.
<scales pt_clust_4="550.00000" pt_clust_5="550.00000" pt_clust_6="36.23442"></scales>
<mgrwt>
<rscale>  0 0.30000000E+03</rscale>
<asrwt>  1 0.36234417E+02</asrwt>
<pdfrwt beam="1">  1        1 0.88943676E+00 0.30000000E+03</pdfrwt>
<pdfrwt beam="2">0</pdfrwt>
<totfact> 0.14654497E-04</totfact>
</mgrwt>
<clustering>
<clus scale="   36.234">  1  6  2 -1</clus>
<clus scale="  480.873">  4  5 -1 -1</clus>
<clus scale="  300.000">  1  4  2 -1</clus>
</clustering>
</event>
<event>
 6    1  0.9131597E-012  0.3000000E+03  0.7818608E-02  0.1093470E+00
          1   -1    0    0  502    0  0.00000000000E+00  0.00000000000E+00  0.26094351118E+03  0.26094351118E+03  0.00000000000E+00 0.  1.
         13   -1    0    0    0    0 -0.00000000000E+00 -0.00000000000E+00 -0.27500000000E+03  0.27500000000E+03  0.00000000000E+00 0.  1.
    9000005    2    1    2  501    0  0.62154195342E+02  0.11433735590E-01 -0.32123388168E+02  0.47121672398E+03  0.46599371751E+03 0.  0.
         13    1    3    3    0    0 -0.10688790778E+03  0.60236630258E+02 -0.19400052434E+03  0.22954232703E+03  0.00000000000E+00 0.  1.
          1    1    3    3  501    0  0.16904210312E+03 -0.60225196522E+02  0.16187713617E+03  0.24167439695E+03  0.00000000000E+00 0.  1.
         21    1    1    2  502  501 -0.62154195342E+02 -0.11433735590E-01  0.18066899344E+02  0.64726787200E+02  0.00000000000E+00 0.  1.
<scales pt_clust_4="550.00000" pt_clust_5="550.00000" pt_clust_6="62.15420"></scales>
<mgrwt>
<rscale>  0 0.30000000E+03</rscale>
<asrwt>  1 0.62154196E+02</asrwt>
<pdfrwt beam="1">  1        1 0.94888550E+00 0.30000000E+03</pdfrwt>
<pdfrwt beam="2">0</pdfrwt>
<totfact> 0.11742926E-05</totfact>
</mgrwt>
<clustering>
<clus scale="   62.154">  1  6  2 -1</clus>
<clus scale="  465.994">  4  5 -1 -1</clus>
<clus scale="  300.000">  1  4  2 -1</clus>
</clustering>
</event>
<event>
 6    1  0.9131597E-012  0.3000000E+03  0.7818608E-02  0.1093470E+00
          1   -1    0    0  502    0  0.00000000000E+00  0.00000000000E+00  0.23172612509E+03  0.23172612509E+03  0.00000000000E+00 0.  1.
         13   -1    0    0    0    0 -0.00000000000E+00 -0.00000000000E+00 -0.27500000000E+03  0.27500000000E+03  0.00000000000E+00 0.  1.
    9000005    2    1    2  501    0  0.31885122947E+01 -0.30340196458E+02 -0.60997436021E+02  0.47144413606E+03  0.46648493233E+03 0.  0.
         13    1    3    3    0    0  0.15499254035E+03  0.16081263564E+03 -0.32125960691E+02  0.22564456274E+03  0.00000000000E+00 0.  1.
          3    1    3    3  501    0 -0.15180402805E+03 -0.19115283210E+03 -0.28871475330E+02  0.24579957331E+03  0.00000000000E+00 0.  1.
         21    1    1    2  502  501 -0.31885122947E+01  0.30340196458E+02  0.17723561115E+02  0.35281989036E+02  0.00000000000E+00 0.  1.
<scales pt_clust_4="550.00000" pt_clust_5="550.00000" pt_clust_6="30.50728"></scales>
<mgrwt>
<rscale>  0 0.30000000E+03</rscale>
<asrwt>  1 0.30507280E+02</asrwt>
<pdfrwt beam="1">  1        1 0.84264045E+00 0.30000000E+03</pdfrwt>
<pdfrwt beam="2">0</pdfrwt>
<totfact> 0.48580680E-04</totfact>
</mgrwt>
<clustering>
<clus scale="   30.507">  1  6  2 -1</clus>
<clus scale="  466.485">  4  5 -1 -1</clus>
<clus scale="  300.000">  1  4  2 -1</clus>
</clustering>
</event>
<event>
 6    1  0.9131597E-012  0.3000000E+03  0.7818608E-02  0.1093470E+00
          1   -1    0    0  502    0  0.00000000000E+00  0.00000000000E+00  0.23312317546E+03  0.23312317546E+03  0.00000000000E+00 0.  1.
         13   -1    0    0    0    0 -0.00000000000E+00 -0.00000000000E+00 -0.27500000000E+03  0.27500000000E+03  0.00000000000E+00 0.  1.
    9000005    2    1    2  501    0  0.24211539720E+02 -0.34302339244E+02 -0.44886377045E+02  0.46602915523E+03  0.46195837209E+03 0.  0.
         13    1    3    3    0    0  0.13123167622E+03  0.17625324309E+03  0.21205620667E+02  0.22076375810E+03  0.00000000000E+00 0.  1.
          1    1    3    3  501    0 -0.10702013650E+03 -0.21055558233E+03 -0.66091997712E+02  0.24526539713E+03  0.00000000000E+00 0.  1.
         21    1    1    2  502  501 -0.24211539720E+02  0.34302339244E+02  0.30095525077E+01  0.42094020234E+02  0.00000000000E+00 0. -1.
<scales pt_clust_4="550.00000" pt_clust_5="550.00000" pt_clust_6="41.98630"></scales>
<mgrwt>
<rscale>  0 0.30000000E+03</rscale>
<asrwt>  1 0.41986297E+02</asrwt>
<pdfrwt beam="1">  1        1 0.84772064E+00 0.30000000E+03</pdfrwt>
<pdfrwt beam="2">0</pdfrwt>
<totfact> 0.41317496E-04</totfact>
</mgrwt>
<clustering>
<clus scale="   41.986">  1  6  2 -1</clus>
<clus scale="  461.958">  4  5 -1 -1</clus>
<clus scale="  300.000">  1  4  2 -1</clus>
</clustering>
</event>
<event>
 6    1  0.9131597E-012  0.3000000E+03  0.7818608E-02  0.1093470E+00
          1   -1    0    0  502    0  0.00000000000E+00  0.00000000000E+00  0.23794340854E+03  0.23794340854E+03  0.00000000000E+00 0.  1.
         13   -1    0    0    0    0 -0.00000000000E+00 -0.00000000000E+00 -0.27500000000E+03  0.27500000000E+03  0.00000000000E+00 0.  1.
    9000005    2    1    2  501    0  0.19020680557E+02 -0.25825937442E+02 -0.14443886828E+02  0.47369930395E+03  0.47239140484E+03 0.  0.
         13    1    3    3    0    0  0.74845692630E+02  0.92946040039E+00 -0.23394912116E+03  0.24563170173E+03  0.00000000000E+00 0.  1.
          3    1    3    3  501    0 -0.55825012073E+02 -0.26755397843E+02  0.21950523433E+03  0.22806760223E+03  0.00000000000E+00 0.  1.
         21    1    1    2  502  501 -0.19020680557E+02  0.25825937442E+02 -0.22612704634E+02  0.39244104583E+02  0.00000000000E+00 0.  1.
<scales pt_clust_4="550.00000" pt_clust_5="550.00000" pt_clust_6="32.07439"></scales>
<mgrwt>
<rscale>  0 0.30000000E+03</rscale>
<asrwt>  1 0.32074388E+02</asrwt>
<pdfrwt beam="1">  1        1 0.86524876E+00 0.30000000E+03</pdfrwt>
<pdfrwt beam="2">0</pdfrwt>
<totfact> 0.28865953E-04</totfact>
</mgrwt>
<clustering>
<clus scale="   32.074">  1  6  2 -1</clus>
<clus scale="  472.391">  4  5 -1 -1</clus>
<clus scale="  300.000">  1  4  2 -1</clus>
</clustering>
</event>
<event>
 6    1  0.9131597E-012  0.3000000E+03  0.7818608E-02  0.1093470E+00
          1   -1    0    0  502    0  0.00000000000E+00  0.00000000000E+00  0.23103351353E+03  0.23103351353E+03  0.00000000000E+00 0.  1.
         13   -1    0    0    0    0 -0.00000000000E+00 -0.00000000000E+00 -0.27500000000E+03  0.27500000000E+03  0.00000000000E+00 0.  1.
    9000005    2    1    2  501    0 -0.23853437117E+02 -0.31028670689E+02 -0.52682898515E+02  0.46593687145E+03  0.46129157321E+03 0.  0.
         13    1    3    3    0    0 -0.17328617681E+03 -0.17948983238E+03 -0.54104919584E+02  0.25528815352E+03  0.00000000000E+00 0.  1.
          3    1    3    3  501    0  0.14943273969E+03  0.14846116169E+03  0.14220210692E+01  0.21064871793E+03  0.00000000000E+00 0.  1.
         21    1    1    2  502  501  0.23853437117E+02  0.31028670689E+02  0.87164120414E+01  0.40096642078E+02  0.00000000000E+00 0.  1.
<scales pt_clust_4="550.00000" pt_clust_5="550.00000" pt_clust_6="39.13777"></scales>
<mgrwt>
<rscale>  0 0.30000000E+03</rscale>
<asrwt>  1 0.39137768E+02</asrwt>
<pdfrwt beam="1">  1        1 0.84012187E+00 0.30000000E+03</pdfrwt>
<pdfrwt beam="2">0</pdfrwt>
<totfact> 0.48581664E-04</totfact>
</mgrwt>
<clustering>
<clus scale="   39.138">  1  6  2 -1</clus>
<clus scale="  461.292">  4  5 -1 -1</clus>
<clus scale="  300.000">  1  4  2 -1</clus>
</clustering>
</event>
<event>
 6    1  0.9131597E-012  0.3000000E+03  0.7818608E-02  0.1093470E+00
          1   -1    0    0  502    0  0.00000000000E+00  0.00000000000E+00  0.23070971482E+03  0.23070971482E+03  0.00000000000E+00 0.  1.
         13   -1    0    0    0    0 -0.00000000000E+00 -0.00000000000E+00 -0.27500000000E+03  0.27500000000E+03  0.00000000000E+00 0.  1.
    9000005    2    1    2  501    0  0.13511018076E+01 -0.33260001324E+02 -0.56803793333E+02  0.47014792282E+03  0.46551513963E+03 0.  0.
         13    1    3    3    0    0  0.53359567300E+02 -0.10293695599E+03 -0.24045800376E+03  0.26695189062E+03  0.00000000000E+00 0.  1.
          1    1    3    3  501    0 -0.52008465492E+02  0.69676954662E+02  0.18365421043E+03  0.20319603220E+03  0.00000000000E+00 0.  1.
         21    1    1    2  502  501 -0.13511018076E+01  0.33260001324E+02  0.12513508153E+02  0.35561792003E+02  0.00000000000E+00 0. -1.
<scales pt_clust_4="550.00000" pt_clust_5="550.00000" pt_clust_6="33.28743"></scales>
<mgrwt>
<rscale>  0 0.30000000E+03</rscale>
<asrwt>  1 0.33287433E+02</asrwt>
<pdfrwt beam="1">  1        1 0.83894442E+00 0.30000000E+03</pdfrwt>
<pdfrwt beam="2">0</pdfrwt>
<totfact> 0.51105695E-04</totfact>
</mgrwt>
<clustering>
<clus scale="   33.287">  1  6  2 -1</clus>
<clus scale="  465.515">  4  5 -1 -1</clus>
<clus scale="  300.000">  1  4  2 -1</clus>
</clustering>
</event>
<event>
 6    1  0.9131597E-012  0.3000000E+03  0.7818608E-02  0.1093470E+00
          1   -1    0    0  502    0  0.00000000000E+00  0.00000000000E+00  0.24685319750E+03  0.24685319750E+03  0.00000000000E+00 0.  1.
         13   -1    0    0    0    0 -0.00000000000E+00 -0.00000000000E+00 -0.27500000000E+03  0.27500000000E+03  0.00000000000E+00 0.  1.
    9000005    2    1    2  501    0  0.26268249231E+02  0.34971885825E+02 -0.66102344440E+02  0.46394225829E+03  0.45712125894E+03 0.  0.
         13    1    3    3    0    0 -0.87928819676E+02  0.18491085435E+03  0.85673265602E+02  0.22195362089E+03  0.00000000000E+00 0.  1.
          3    1    3    3  501    0  0.11419706891E+03 -0.14993896853E+03 -0.15177561004E+03  0.24198863741E+03  0.00000000000E+00 0.  1.
         21    1    1    2  502  501 -0.26268249231E+02 -0.34971885825E+02  0.37955541939E+02  0.57910939205E+02  0.00000000000E+00 0. -1.
<scales pt_clust_4="550.00000" pt_clust_5="550.00000" pt_clust_6="43.73847"></scales>
<mgrwt>
<rscale>  0 0.30000000E+03</rscale>
<asrwt>  1 0.43738470E+02</asrwt>
<pdfrwt beam="1">  1        1 0.89764799E+00 0.30000000E+03</pdfrwt>
<pdfrwt beam="2">0</pdfrwt>
<totfact> 0.11305901E-04</totfact>
</mgrwt>
<clustering>
<clus scale="   43.738">  1  6  2 -1</clus>
<clus scale="  457.121">  4  5 -1 -1</clus>
<clus scale="  300.000">  1  4  2 -1</clus>
</clustering>
</event>
<event>
 6    1  0.9131597E-012  0.3000000E+03  0.7818608E-02  0.1093470E+00
          1   -1    0    0  502    0  0.00000000000E+00  0.00000000000E+00  0.22673572766E+03  0.22673572766E+03  0.00000000000E+00 0.  1.
         13   -1    0    0    0    0 -0.00000000000E+00 -0.00000000000E+00 -0.27500000000E+03  0.27500000000E+03  0.00000000000E+00 0.  1.
    9000005    2    1    2  501    0  0.33841329957E+02  0.22691338495E+02 -0.40868985685E+02  0.46032530964E+03  0.45669353427E+03 0.  0.
         13    1    3    3    0    0 -0.20331486445E+03 -0.51040041717E+02 -0.29740899804E+02  0.21172279302E+03  0.00000000000E+00 0.  1.
          3    1    3    3  501    0  0.23715619440E+03  0.73731380212E+02 -0.11128085881E+02  0.24860251662E+03  0.00000000000E+00 0.  1.
         21    1    1    2  502  501 -0.33841329957E+02 -0.22691338495E+02 -0.73952866559E+01  0.41410418021E+02  0.00000000000E+00 0.  1.
<scales pt_clust_4="550.00000" pt_clust_5="550.00000" pt_clust_6="40.74474"></scales>
<mgrwt>
<rscale>  0 0.30000000E+03</rscale>
<asrwt>  1 0.40744743E+02</asrwt>
<pdfrwt beam="1">  1        1 0.82449356E+00 0.30000000E+03</pdfrwt>
<pdfrwt beam="2">0</pdfrwt>
<totfact> 0.64176731E-04</totfact>
</mgrwt>
<clustering>
<clus scale="   40.745">  1  6  2 -1</clus>
<clus scale="  456.694">  4  5 -1 -1</clus>
<clus scale="  300.000">  1  4  2 -1</clus>
</clustering>
</event>
<event>
 6    1  0.9131597E-012  0.3000000E+03  0.7818608E-02  0.1093470E+00
          1   -1    0    0  502    0  0.00000000000E+00  0.00000000000E+00  0.23464853598E+03  0.23464853598E+03  0.00000000000E+00 0.  1.
         13   -1    0    0    0    0 -0.00000000000E+00 -0.00000000000E+00 -0.27500000000E+03  0.27500000000E+03  0.00000000000E+00 0.  1.
    9000005    2    1    2  501    0 -0.58667106251E+01 -0.35552283705E+02 -0.32215340570E+02  0.47270831840E+03  0.47023073373E+03 0.  0.
         13    1    3    3    0    0  0.16359780664E+03  0.14824498457E+03 -0.10651038272E+01  0.22077579631E+03  0.00000000000E+00 0.  1.
          3    1    3    3  501    0 -0.16946451727E+03 -0.18379726828E+03 -0.31150236742E+02  0.25193252209E+03  0.00000000000E+00 0.  1.
         21    1    1    2  502  501  0.58667106251E+01  0.35552283705E+02 -0.81361234516E+01  0.36940217582E+02  0.00000000000E+00 0. -1.
<scales pt_clust_4="550.00000" pt_clust_5="550.00000" pt_clust_6="36.03310"></scales>
<mgrwt>
<rscale>  0 0.30000000E+03</rscale>
<asrwt>  1 0.36033102E+02</asrwt>
<pdfrwt beam="1">  1        1 0.85326740E+00 0.30000000E+03</pdfrwt>
<pdfrwt beam="2">0</pdfrwt>
<totfact> 0.37675727E-04</totfact>
</mgrwt>
<clustering>
<clus scale="   36.033">  1  6  2 -1</clus>
<clus scale="  470.231">  4  5 -1 -1</clus>
<clus scale="  300.000">  1  4  2 -1</clus>
</clustering>
</event>
<event>
 6    1  0.9131597E-012  0.3000000E+03  0.7818608E-02  0.1093470E+00
          1   -1    0    0  502    0  0.00000000000E+00  0.00000000000E+00  0.23820560069E+03  0.23820560069E+03  0.00000000000E+00 0.  1.
         13   -1    0    0    0    0 -0.00000000000E+00 -0.00000000000E+00 -0.27500000000E+03  0.27500000000E+03  0.00000000000E+00 0.  1.
    9000005    2    1    2  501    0 -0.29226974368E+02  0.13820984773E+02 -0.24276857277E+02  0.47853681777E+03  0.47682584296E+03 0.  0.
         13    1    3    3    0    0 -0.13268118763E+03 -0.11360723441E+02 -0.21917048925E+03  0.25645480488E+03  0.00000000000E+00 0.  1.
          3    1    3    3  501    0  0.10345421326E+03  0.25181708214E+02  0.19489363197E+03  0.22208201290E+03  0.00000000000E+00 0.  1.
         21    1    1    2  502  501  0.29226974368E+02 -0.13820984773E+02 -0.12517542029E+02  0.34668782922E+02  0.00000000000E+00 0. -1.
<scales pt_clust_4="550.00000" pt_clust_5="550.00000" pt_clust_6="32.33012"></scales>
<mgrwt>
<rscale>  0 0.30000000E+03</rscale>
<asrwt>  1 0.32330121E+02</asrwt>
<pdfrwt beam="1">  1        1 0.86620218E+00 0.30000000E+03</pdfrwt>
<pdfrwt beam="2">0</pdfrwt>
<totfact> 0.28153450E-04</totfact>
</mgrwt>
<clustering>
<clus scale="   32.330">  1  6  2 -1</clus>
<clus scale="  476.826">  4  5 -1 -1</clus>
<clus scale="  300.000">  1  4  2 -1</clus>
</clustering>
</event>
<event>
 6    1  0.9131597E-012  0.3000000E+03  0.7818608E-02  0.1093470E+00
          1   -1    0    0  502    0  0.00000000000E+00  0.00000000000E+00  0.23251417577E+03  0.23251417577E+03  0.00000000000E+00 0.  1.
         13   -1    0    0    0    0 -0.00000000000E+00 -0.00000000000E+00 -0.27500000000E+03  0.27500000000E+03  0.00000000000E+00 0.  1.
    9000005    2    1    2  501    0  0.74477049466E+01 -0.40520032031E+02 -0.48125126300E+02  0.46593121011E+03  0.46160429317E+03 0.  0.
         13    1    3    3    0    0  0.66312126254E+02 -0.80923039050E+02 -0.23967147603E+03  0.26151147730E+03  0.00000000000E+00 0.  1.
          1    1    3    3  501    0 -0.58864421307E+02  0.40403007019E+02  0.19154634973E+03  0.20441973282E+03  0.00000000000E+00 0.  1.
         21    1    1    2  502  501 -0.74477049466E+01  0.40520032031E+02  0.56393020667E+01  0.41582965654E+02  0.00000000000E+00 0.  1.
<scales pt_clust_4="550.00000" pt_clust_5="550.00000" pt_clust_6="41.19880"></scales>
<mgrwt>
<rscale>  0 0.30000000E+03</rscale>
<asrwt>  1 0.41198802E+02</asrwt>
<pdfrwt beam="1">  1        1 0.84550609E+00 0.30000000E+03</pdfrwt>
<pdfrwt beam="2">0</pdfrwt>
<totfact> 0.43399118E-04</totfact>
</mgrwt>
<clustering>
<clus scale="   41.199">  1  6  2 -1</clus>
<clus scale="  461.604">  4  5 -1 -1</clus>
<clus scale="  300.000">  1  4  2 -1</clus>
</clustering>
</event>
<event>
 6    1  0.9131597E-012  0.3000000E+03  0.7818608E-02  0.1093470E+00
          1   -1    0    0  502    0  0.00000000000E+00  0.00000000000E+00  0.23421534861E+03  0.23421534861E+03  0.00000000000E+00 0.  1.
         13   -1    0    0    0    0 -0.00000000000E+00 -0.00000000000E+00 -0.27500000000E+03  0.27500000000E+03  0.00000000000E+00 0.  1.
    9000005    2    1    2  501    0  0.33703248829E+02 -0.30359948585E+01 -0.65130496735E+02  0.46752786329E+03  0.46173065212E+03 0.  0.
         13    1    3    3    0    0  0.99037788706E+01  0.65508469020E+01 -0.26537787807E+03  0.26564340120E+03  0.00000000000E+00 0.  1.
          3    1    3    3  501    0  0.23799469958E+02 -0.95868417605E+01  0.20024738133E+03  0.20188446210E+03  0.00000000000E+00 0.  1.
         21    1    1    2  502  501 -0.33703248829E+02  0.30359948585E+01  0.24345845345E+02  0.41687485316E+02  0.00000000000E+00 0.  1.
<scales pt_clust_4="550.00000" pt_clust_5="550.00000" pt_clust_6="33.83971"></scales>
<mgrwt>
<rscale>  0 0.30000000E+03</rscale>
<asrwt>  1 0.33839714E+02</asrwt>
<pdfrwt beam="1">  1        1 0.85169218E+00 0.30000000E+03</pdfrwt>
<pdfrwt beam="2">0</pdfrwt>
<totfact> 0.39473520E-04</totfact>
</mgrwt>
<clustering>
<clus scale="   33.840">  1  6  2 -1</clus>
<clus scale="  461.731">  4  5 -1 -1</clus>
<clus scale="  300.000">  1  4  2 -1</clus>
</clustering>
</event>
<event>
 6    1  0.9131597E-012  0.3000000E+03  0.7818608E-02  0.1093470E+00
          1   -1    0    0  502    0  0.00000000000E+00  0.00000000000E+00  0.22302115679E+03  0.22302115679E+03  0.00000000000E+00 0.  1.
         13   -1    0    0    0    0 -0.00000000000E+00 -0.00000000000E+00 -0.27500000000E+03  0.27500000000E+03  0.00000000000E+00 0.  1.
    9000005    2    1    2  501    0 -0.27810342828E+02  0.14806722180E+02 -0.54769683750E+02  0.46639137682E+03  0.46209148869E+03 0.  0.
         13    1    3    3    0    0  0.14568441544E+03  0.16016181439E+03  0.41468409515E+02  0.22044360884E+03  0.00000000000E+00 0.  1.
          3    1    3    3  501    0 -0.17349475827E+03 -0.14535509221E+03 -0.96238093264E+02  0.24594776798E+03  0.00000000000E+00 0.  1.
         21    1    1    2  502  501  0.27810342828E+02 -0.14806722180E+02  0.27908405379E+01  0.31629779968E+02  0.00000000000E+00 0.  1.
<scales pt_clust_4="550.00000" pt_clust_5="550.00000" pt_clust_6="31.50642"></scales>
<mgrwt>
<rscale>  0 0.30000000E+03</rscale>
<asrwt>  1 0.31506415E+02</asrwt>
<pdfrwt beam="1">  1        1 0.81098602E+00 0.30000000E+03</pdfrwt>
<pdfrwt beam="2">0</pdfrwt>
<totfact> 0.87398338E-04</totfact>
</mgrwt>
<clustering>
<clus scale="   31.506">  1  6  2 -1</clus>
<clus scale="  462.091">  4  5 -1 -1</clus>
<clus scale="  300.000">  1  4  2 -1</clus>
</clustering>
</event>
<event>
 6    1  0.9131597E-012  0.3000000E+03  0.7818608E-02  0.1093470E+00
          1   -1    0    0  502    0  0.00000000000E+00  0.00000000000E+00  0.23796513636E+03  0.23796513636E+03  0.00000000000E+00 0.  1.
         13   -1    0    0    0    0 -0.00000000000E+00 -0.00000000000E+00 -0.27500000000E+03  0.27500000000E+03  0.00000000000E+00 0.  1.
    9000005    2    1    2  501    0  0.29052690497E+02  0.99592165597E+01 -0.58275312910E+02  0.47562345048E+03  0.47103971141E+03 0.  0.
         13    1    3    3    0    0  0.91932006106E+02  0.13112709185E+02  0.19428344244E+03  0.21533576780E+03  0.00000000000E+00 0.  1.
          1    1    3    3  501    0 -0.62879315609E+02 -0.31534926254E+01 -0.25255875535E+03  0.26028768267E+03  0.00000000000E+00 0.  1.
         21    1    1    2  502  501 -0.29052690497E+02 -0.99592165597E+01  0.21240449273E+02  0.37341685887E+02  0.00000000000E+00 0.  1.
<scales pt_clust_4="550.00000" pt_clust_5="550.00000" pt_clust_6="30.71229"></scales>
<mgrwt>
<rscale>  0 0.30000000E+03</rscale>
<asrwt>  1 0.30712291E+02</asrwt>
<pdfrwt beam="1">  1        1 0.86532777E+00 0.30000000E+03</pdfrwt>
<pdfrwt beam="2">0</pdfrwt>
<totfact> 0.29049318E-04</totfact>
</mgrwt>
<clustering>
<clus scale="   30.712">  1  6  2 -1</clus>
<clus scale="  471.040">  4  5 -1 -1</clus>
<clus scale="  300.000">  1  4  2 -1</clus>
</clustering>
</event>
<event>
 6    1  0.9131597E-012  0.3000000E+03  0.7818608E-02  0.1093470E+00
          1   -1    0    0  502    0  0.00000000000E+00  0.00000000000E+00  0.22840745107E+03  0.22840745107E+03  0.00000000000E+00 0.  1.
         13   -1    0    0    0    0 -0.00000000000E+00 -0.00000000000E+00 -0.27500000000E+03  0.27500000000E+03  0.00000000000E+00 0.  1.
    9000005    2    1    2  501    0  0.30656699885E+02  0.37445941050E+01 -0.68571044258E+02  0.46550086207E+03  0.45938568681E+03 0.  0.
         13    1    3    3    0    0  0.57093355272E+02  0.13581853928E+03  0.14904503814E+03  0.20957278025E+03  0.00000000000E+00 0.  1.
          3    1    3    3  501    0 -0.26436655387E+02 -0.13207394518E+03 -0.21761608240E+03  0.25592808181E+03  0.00000000000E+00 0.  1.
         21    1    1    2  502  501 -0.30656699885E+02 -0.37445941050E+01  0.21978495326E+02  0.37906589001E+02  0.00000000000E+00 0. -1.
<scales pt_clust_4="550.00000" pt_clust_5="550.00000" pt_clust_6="30.88455"></scales>
<mgrwt>
<rscale>  0 0.30000000E+03</rscale>
<asrwt>  1 0.30884547E+02</asrwt>
<pdfrwt beam="1">  1        1 0.83057255E+00 0.30000000E+03</pdfrwt>
<pdfrwt beam="2">0</pdfrwt>
<totfact> 0.59868626E-04</totfact>
</mgrwt>
<clustering>
<clus scale="   30.885">  1  6  2 -1</clus>
<clus scale="  459.386">  4  5 -1 -1</clus>
<clus scale="  300.000">  1  4  2 -1</clus>
</clustering>
</event>
<event>
 6    1  0.9131597E-012  0.3000000E+03  0.7818608E-02  0.1093470E+00
          1   -1    0    0  502    0  0.00000000000E+00  0.00000000000E+00  0.23157907564E+03  0.23157907564E+03  0.00000000000E+00 0.  1.
         13   -1    0    0    0    0 -0.00000000000E+00 -0.00000000000E+00 -0.27500000000E+03  0.27500000000E+03  0.00000000000E+00 0.  1.
    9000005    2    1    2  501    0 -0.21363715887E+02 -0.21816560659E+02 -0.61389545504E+02  0.47114968076E+03  0.46613407375E+03 0.  0.
         13    1    3    3    0    0 -0.19269631010E+03 -0.49066515786E+02  0.11003223721E+03  0.22725862827E+03  0.00000000000E+00 0.  1.
          3    1    3    3  501    0  0.17133259422E+03  0.27249955127E+02 -0.17142178272E+03  0.24389105249E+03  0.00000000000E+00 0.  1.
         21    1    1    2  502  501  0.21363715887E+02  0.21816560659E+02  0.17968621144E+02  0.35429394876E+02  0.00000000000E+00 0.  1.
<scales pt_clust_4="550.00000" pt_clust_5="550.00000" pt_clust_6="30.53475"></scales>
<mgrwt>
<rscale>  0 0.30000000E+03</rscale>
<asrwt>  1 0.30534745E+02</asrwt>
<pdfrwt beam="1">  1        1 0.84210573E+00 0.30000000E+03</pdfrwt>
<pdfrwt beam="2">0</pdfrwt>
<totfact> 0.49072746E-04</totfact>
</mgrwt>
<clustering>
<clus scale="   30.535">  1  6  2 -1</clus>
<clus scale="  466.134">  4  5 -1 -1</clus>
<clus scale="  300.000">  1  4  2 -1</clus>
</clustering>
</event>
<event>
 6    1  0.9131597E-012  0.3000000E+03  0.7818608E-02  0.1093470E+00
          1   -1    0    0  502    0  0.00000000000E+00  0.00000000000E+00  0.21948248836E+03  0.21948248836E+03  0.00000000000E+00 0.  1.
         13   -1    0    0    0    0 -0.00000000000E+00 -0.00000000000E+00 -0.27500000000E+03  0.27500000000E+03  0.00000000000E+00 0.  1.
    9000005    2    1    2  501    0 -0.12758547290E+02  0.27690003355E+02 -0.48934972627E+02  0.46329199887E+03  0.45969046962E+03 0.  0.
         13    1    3    3    0    0  0.85353968047E+02  0.12257334751E+03 -0.20648430668E+03  0.25484366636E+03  0.00000000000E+00 0.  1.
          3    1    3    3  501    0 -0.98112515336E+02 -0.94883344159E+02  0.15754933405E+03  0.20844833251E+03  0.00000000000E+00 0.  1.
         21    1    1    2  502  501  0.12758547290E+02 -0.27690003355E+02 -0.65825390134E+01  0.31190489490E+02  0.00000000000E+00 0. -1.
<scales pt_clust_4="550.00000" pt_clust_5="550.00000" pt_clust_6="30.48799"></scales>
<mgrwt>
<rscale>  0 0.30000000E+03</rscale>
<asrwt>  1 0.30487993E+02</asrwt>
<pdfrwt beam="1">  1        1 0.79811814E+00 0.30000000E+03</pdfrwt>
<pdfrwt beam="2">0</pdfrwt>
<totfact> 0.10984327E-03</totfact>
</mgrwt>
<clustering>
<clus scale="   30.488">  1  6  2 -1</clus>
<clus scale="  459.690">  4  5 -1 -1</clus>
<clus scale="  300.000">  1  4  2 -1</clus>
</clustering>
</event>
<event>
 6    1  0.9131597E-012  0.3000000E+03  0.7818608E-02  0.1093470E+00
          1   -1    0    0  502    0  0.00000000000E+00  0.00000000000E+00  0.24488728748E+03  0.24488728748E+03  0.00000000000E+00 0.  1.
         13   -1    0    0    0    0 -0.00000000000E+00 -0.00000000000E+00 -0.27500000000E+03  0.27500000000E+03  0.00000000000E+00 0.  1.
    9000005    2    1    2  501    0 -0.28025758222E+02  0.19142775759E+02 -0.20569321622E+02  0.48463157450E+03  0.48300390995E+03 0.  0.
         13    1    3    3    0    0  0.15728895723E+03 -0.16106236099E+03  0.22910793989E+01  0.22513584619E+03  0.00000000000E+00 0.  1.
          3    1    3    3  501    0 -0.18531471545E+03  0.18020513675E+03 -0.22860401021E+02  0.25949572831E+03  0.00000000000E+00 0.  1.
         21    1    1    2  502  501  0.28025758222E+02 -0.19142775759E+02 -0.95433909002E+01  0.35255712978E+02  0.00000000000E+00 0.  1.
<scales pt_clust_4="550.00000" pt_clust_5="550.00000" pt_clust_6="33.93951"></scales>
<mgrwt>
<rscale>  0 0.30000000E+03</rscale>
<asrwt>  1 0.33939507E+02</asrwt>
<pdfrwt beam="1">  1        1 0.89049923E+00 0.30000000E+03</pdfrwt>
<pdfrwt beam="2">0</pdfrwt>
<totfact> 0.14359725E-04</totfact>
</mgrwt>
<clustering>
<clus scale="   33.940">  1  6  2 -1</clus>
<clus scale="  483.004">  4  5 -1 -1</clus>
<clus scale="  300.000">  1  4  2 -1</clus>
</clustering>
</event>
<event>
 6    1  0.9131597E-012  0.3000000E+03  0.7818608E-02  0.1093470E+00
          1   -1    0    0  502    0  0.00000000000E+00  0.00000000000E+00  0.24964640524E+03  0.24964640524E+03  0.00000000000E+00 0.  1.
         13   -1    0    0    0    0 -0.00000000000E+00 -0.00000000000E+00 -0.27500000000E+03  0.27500000000E+03  0.00000000000E+00 0.  1.
    9000005    2    1    2  501    0 -0.38207932828E+02  0.85438378975E+01 -0.32691245469E+02  0.48481319780E+03  0.48212267727E+03 0.  0.
         13    1    3    3    0    0  0.64646787448E+02  0.14137735589E+03  0.16411459516E+03  0.22605389673E+03  0.00000000000E+00 0.  1.
          3    1    3    3  501    0 -0.10285472028E+03 -0.13283351799E+03 -0.19680584063E+03  0.25875930107E+03  0.00000000000E+00 0.  1.
         21    1    1    2  502  501  0.38207932828E+02 -0.85438378975E+01  0.73376507109E+01  0.39833207440E+02  0.00000000000E+00 0.  1.
<scales pt_clust_4="550.00000" pt_clust_5="550.00000" pt_clust_6="39.15154"></scales>
<mgrwt>
<rscale>  0 0.30000000E+03</rscale>
<asrwt>  1 0.39151543E+02</asrwt>
<pdfrwt beam="1">  1        1 0.90780511E+00 0.30000000E+03</pdfrwt>
<pdfrwt beam="2">0</pdfrwt>
<totfact> 0.79225912E-05</totfact>
</mgrwt>
<clustering>
<clus scale="   39.152">  1  6  2 -1</clus>
<clus scale="  482.123">  4  5 -1 -1</clus>
<clus scale="  300.000">  1  4  2 -1</clus>
</clustering>
</event>
<event>
 6    1  0.9131597E-012  0.3000000E+03  0.7818608E-02  0.1093470E+00
          1   -1    0    0  502    0  0.00000000000E+00  0.00000000000E+00  0.23055528036E+03  0.23055528036E+03  0.00000000000E+00 0.  1.
         13   -1    0    0    0    0 -0.00000000000E+00 -0.00000000000E+00 -0.27500000000E+03  0.27500000000E+03  0.00000000000E+00 0.  1.
    9000005    2    1    2  501    0 -0.22720188220E+02  0.22291143369E+02 -0.52823153417E+02  0.47264175460E+03  0.46860093964E+03 0.  0.
         13    1    3    3    0    0 -0.24513437855E+03  0.22297925908E+02 -0.11452821475E+02  0.24641271917E+03  0.00000000000E+00 0.  1.
          1    1    3    3  501    0  0.22241419033E+03 -0.67825388905E-02 -0.41370331943E+02  0.22622903543E+03  0.00000000000E+00 0.  1.
         21    1    1    2  502  501  0.22720188220E+02 -0.22291143369E+02  0.83784337792E+01  0.32913525761E+02  0.00000000000E+00 0. -1.
<scales pt_clust_4="550.00000" pt_clust_5="550.00000" pt_clust_6="31.82926"></scales>
<mgrwt>
<rscale>  0 0.30000000E+03</rscale>
<asrwt>  1 0.31829264E+02</asrwt>
<pdfrwt beam="1">  1        1 0.83838284E+00 0.30000000E+03</pdfrwt>
<pdfrwt beam="2">0</pdfrwt>
<totfact> 0.52038501E-04</totfact>
</mgrwt>
<clustering>
<clus scale="   31.829">  1  6  2 -1</clus>
<clus scale="  468.601">  4  5 -1 -1</clus>
<clus scale="  300.000">  1  4  2 -1</clus>
</clustering>
</event>
<event>
 6    1  0.9131597E-012  0.3000000E+03  0.7818608E-02  0.1093470E+00
          1   -1    0    0  502    0  0.00000000000E+00  0.00000000000E+00  0.24644960493E+03  0.24644960493E+03  0.00000000000E+00 0.  1.
         13   -1    0    0    0    0 -0.00000000000E+00 -0.00000000000E+00 -0.27500000000E+03  0.27500000000E+03  0.00000000000E+00 0.  1.
    9000005    2    1    2  501    0  0.62444085617E+01  0.30253067646E+02 -0.70456187129E+02  0.46938871608E+03  0.46304152269E+03 0.  0.
         13    1    3    3    0    0  0.59528389072E+02 -0.20940982580E+03 -0.47290326307E+02  0.22278348056E+03  0.00000000000E+00 0.  1.
          1    1    3    3  501    0 -0.53283980511E+02  0.23966289345E+03 -0.23165860822E+02  0.24660523551E+03  0.00000000000E+00 0.  1.
         21    1    1    2  502  501 -0.62444085617E+01 -0.30253067646E+02  0.41905792061E+02  0.52060888857E+02  0.00000000000E+00 0. -1.
<scales pt_clust_4="550.00000" pt_clust_5="550.00000" pt_clust_6="30.89079"></scales>
<mgrwt>
<rscale>  0 0.30000000E+03</rscale>
<asrwt>  1 0.30890787E+02</asrwt>
<pdfrwt beam="1">  1        1 0.89618038E+00 0.30000000E+03</pdfrwt>
<pdfrwt beam="2">0</pdfrwt>
<totfact> 0.12524937E-04</totfact>
</mgrwt>
<clustering>
<clus scale="   30.891">  1  6  2 -1</clus>
<clus scale="  463.042">  4  5 -1 -1</clus>
<clus scale="  300.000">  1  4  2 -1</clus>
</clustering>
</event>
<event>
 6    1  0.9131597E-012  0.3000000E+03  0.7818608E-02  0.1093470E+00
          1   -1    0    0  502    0  0.00000000000E+00  0.00000000000E+00  0.22515419174E+03  0.22515419174E+03  0.00000000000E+00 0.  1.
         13   -1    0    0    0    0 -0.00000000000E+00 -0.00000000000E+00 -0.27500000000E+03  0.27500000000E+03  0.00000000000E+00 0.  1.
    9000005    2    1    2  501    0 -0.14461629039E+02 -0.29339256134E+02 -0.52518419334E+02  0.46733539355E+03  0.46322160466E+03 0.  0.
         13    1    3    3    0    0 -0.81620928172E+02 -0.92549401980E+02 -0.23356068714E+03  0.26415518602E+03  0.00000000000E+00 0.  1.
          1    1    3    3  501    0  0.67159299134E+02  0.63210145846E+02  0.18104226781E+03  0.20318020753E+03  0.00000000000E+00 0.  1.
         21    1    1    2  502  501  0.14461629039E+02  0.29339256134E+02  0.26726110755E+01  0.32818798194E+02  0.00000000000E+00 0.  1.
<scales pt_clust_4="550.00000" pt_clust_5="550.00000" pt_clust_6="32.70979"></scales>
<mgrwt>
<rscale>  0 0.30000000E+03</rscale>
<asrwt>  1 0.32709795E+02</asrwt>
<pdfrwt beam="1">  1        1 0.81874252E+00 0.30000000E+03</pdfrwt>
<pdfrwt beam="2">0</pdfrwt>
<totfact> 0.75097205E-04</totfact>
</mgrwt>
<clustering>
<clus scale="   32.710">  1  6  2 -1</clus>
<clus scale="  463.222">  4  5 -1 -1</clus>
<clus scale="  300.000">  1  4  2 -1</clus>
</clustering>
</event>
<event>
 6    1  0.9131597E-012  0.3000000E+03  0.7818608E-02  0.1093470E+00
          1   -1    0    0  502    0  0.00000000000E+00  0.00000000000E+00  0.23270533441E+03  0.23270533441E+03  0.00000000000E+00 0.  1.
         13   -1    0    0    0    0 -0.00000000000E+00 -0.00000000000E+00 -0.27500000000E+03  0.27500000000E+03  0.00000000000E+00 0.  1.
    9000005    2    1    2  501    0 -0.26602464079E+02  0.14097764323E+02 -0.66461556285E+02  0.46909864251E+03  0.46338964154E+03 0.  0.
         13    1    3    3    0    0 -0.43089500831E+00 -0.22072556397E+03 -0.73715701561E+02  0.23271004473E+03  0.00000000000E+00 0.  1.
          1    1    3    3  501    0 -0.26171569070E+02  0.23482332829E+03  0.72541452753E+01  0.23638859778E+03  0.00000000000E+00 0.  1.
         21    1    1    2  502  501  0.26602464079E+02 -0.14097764323E+02  0.24166890700E+02  0.38606691908E+02  0.00000000000E+00 0. -1.
<scales pt_clust_4="550.00000" pt_clust_5="550.00000" pt_clust_6="30.10711"></scales>
<mgrwt>
<rscale>  0 0.30000000E+03</rscale>
<asrwt>  1 0.30107110E+02</asrwt>
<pdfrwt beam="1">  1        1 0.84620122E+00 0.30000000E+03</pdfrwt>
<pdfrwt beam="2">0</pdfrwt>
<totfact> 0.45370714E-04</totfact>
</mgrwt>
<clustering>
<clus scale="   30.107">  1  6  2 -1</clus>
<clus scale="  463.390">  4  5 -1 -1</clus>
<clus scale="  300.000">  1  4  2 -1</clus>
</clustering>
</event>
<event>
 6    1  0.9131597E-012  0.3000000E+03  0.7818608E-02  0.1093470E+00
          1   -1    0    0  502    0  0.00000000000E+00  0.00000000000E+00  0.22243286532E+03  0.22243286532E+03  0.00000000000E+00 0.  1.
         13   -1    0    0    0    0 -0.00000000000E+00 -0.00000000000E+00 -0.27500000000E+03  0.27500000000E+03  0.00000000000E+00 0.  1.
    9000005    2    1    2  501    0 -0.30679846652E+02  0.65506168239E+01 -0.68557566586E+02  0.46222125525E+03  0.45603090388E+03 0.  0.
         13    1    3    3    0    0  0.73413538703E+01  0.22581338098E+03  0.10194753147E+02  0.22616257758E+03  0.00000000000E+00 0.  1.
          3    1    3    3  501    0 -0.38021200522E+02 -0.21926276416E+03 -0.78752319734E+02  0.23605867766E+03  0.00000000000E+00 0.  1.
         21    1    1    2  502  501  0.30679846652E+02 -0.65506168239E+01  0.15990431903E+02  0.35211610072E+02  0.00000000000E+00 0.  1.
<scales pt_clust_4="550.00000" pt_clust_5="550.00000" pt_clust_6="31.37138"></scales>
<mgrwt>
<rscale>  0 0.30000000E+03</rscale>
<asrwt>  1 0.31371381E+02</asrwt>
<pdfrwt beam="1">  1        1 0.80884678E+00 0.30000000E+03</pdfrwt>
<pdfrwt beam="2">0</pdfrwt>
<totfact> 0.90893617E-04</totfact>
</mgrwt>
<clustering>
<clus scale="   31.371">  1  6  2 -1</clus>
<clus scale="  456.031">  4  5 -1 -1</clus>
<clus scale="  300.000">  1  4  2 -1</clus>
</clustering>
</event>
<event>
 6    1  0.9131597E-012  0.3000000E+03  0.7818608E-02  0.1093470E+00
          1   -1    0    0  502    0  0.00000000000E+00  0.00000000000E+00  0.23760994936E+03  0.23760994936E+03  0.00000000000E+00 0.  1.
         13   -1    0    0    0    0 -0.00000000000E+00 -0.00000000000E+00 -0.27500000000E+03  0.27500000000E+03  0.00000000000E+00 0.  1.
    9000005    2    1    2  501    0  0.97084284144E+01  0.29737905087E+02 -0.74083361373E+02  0.46439174083E+03  0.45737593721E+03 0.  0.
         13    1    3    3    0    0 -0.47488416280E+02  0.97432259161E+02  0.17173890447E+03  0.20308236289E+03  0.00000000000E+00 0.  1.
          1    1    3    3  501    0  0.57196844694E+02 -0.67694354074E+02 -0.24582226585E+03  0.26130937794E+03  0.00000000000E+00 0.  1.
         21    1    1    2  502  501 -0.97084284144E+01 -0.29737905087E+02  0.36693310733E+02  0.48218208529E+02  0.00000000000E+00 0. -1.
<scales pt_clust_4="550.00000" pt_clust_5="550.00000" pt_clust_6="31.28253"></scales>
<mgrwt>
<rscale>  0 0.30000000E+03</rscale>
<asrwt>  1 0.31282528E+02</asrwt>
<pdfrwt beam="1">  1        1 0.86403618E+00 0.30000000E+03</pdfrwt>
<pdfrwt beam="2">0</pdfrwt>
<totfact> 0.29890052E-04</totfact>
</mgrwt>
<clustering>
<clus scale="   31.283">  1  6  2 -1</clus>
<clus scale="  457.376">  4  5 -1 -1</clus>
<clus scale="  300.000">  1  4  2 -1</clus>
</clustering>
</event>
<event>
 6    1  0.9131597E-012  0.3000000E+03  0.7818608E-02  0.1093470E+00
          1   -1    0    0  502    0  0.00000000000E+00  0.00000000000E+00  0.22886624977E+03  0.22886624977E+03  0.00000000000E+00 0.  1.
         13   -1    0    0    0    0 -0.00000000000E+00 -0.00000000000E+00 -0.27500000000E+03  0.27500000000E+03  0.00000000000E+00 0.  1.
    9000005    2    1    2  501    0  0.23928618224E+02  0.19677214870E+02 -0.17727478389E+02  0.46183426392E+03  0.46045287738E+03 0.  0.
         13    1    3    3    0    0 -0.21501197939E+03  0.22993782165E+02 -0.46389212937E+02  0.22115791728E+03  0.00000000000E+00 0.  1.
          3    1    3    3  501    0  0.23894059761E+03 -0.33165672949E+01  0.28661734549E+02  0.24067634664E+03  0.00000000000E+00 0.  1.
         21    1    1    2  502  501 -0.23928618224E+02 -0.19677214870E+02 -0.28406271839E+02  0.42031985855E+02  0.00000000000E+00 0. -1.
<scales pt_clust_4="550.00000" pt_clust_5="550.00000" pt_clust_6="30.98020"></scales>
<mgrwt>
<rscale>  0 0.30000000E+03</rscale>
<asrwt>  1 0.30980196E+02</asrwt>
<pdfrwt beam="1">  1        1 0.83224091E+00 0.30000000E+03</pdfrwt>
<pdfrwt beam="2">0</pdfrwt>
<totfact> 0.58049798E-04</totfact>
</mgrwt>
<clustering>
<clus scale="   30.980">  1  6  2 -1</clus>
<clus scale="  460.453">  4  5 -1 -1</clus>
<clus scale="  300.000">  1  4  2 -1</clus>
</clustering>
</event>
<event>
 6    1  0.9131597E-012  0.3000000E+03  0.7818608E-02  0.1093470E+00
          1   -1    0    0  502    0  0.00000000000E+00  0.00000000000E+00  0.22120629264E+03  0.22120629264E+03  0.00000000000E+00 0.  1.
         13   -1    0    0    0    0 -0.00000000000E+00 -0.00000000000E+00 -0.27500000000E+03  0.27500000000E+03  0.00000000000E+00 0.  1.
    9000005    2    1    2  501    0 -0.86716237921E+01  0.29277785251E+02 -0.42707990898E+02  0.46372123642E+03  0.46073965192E+03 0.  0.
         13    1    3    3    0    0 -0.21590103421E+02 -0.19714055793E+03 -0.11049111622E+03  0.22702162652E+03  0.00000000000E+00 0.  1.
          1    1    3    3  501    0  0.12918479629E+02  0.22641834318E+03  0.67783125326E+02  0.23669960989E+03  0.00000000000E+00 0.  1.
         21    1    1    2  502  501  0.86716237921E+01 -0.29277785251E+02 -0.11085716462E+02  0.32485056224E+02  0.00000000000E+00 0.  1.
<scales pt_clust_4="550.00000" pt_clust_5="550.00000" pt_clust_6="30.53501"></scales>
<mgrwt>
<rscale>  0 0.30000000E+03</rscale>
<asrwt>  1 0.30535008E+02</asrwt>
<pdfrwt beam="1">  1        1 0.80438652E+00 0.30000000E+03</pdfrwt>
<pdfrwt beam="2">0</pdfrwt>
<totfact> 0.98835991E-04</totfact>
</mgrwt>
<clustering>
<clus scale="   30.535">  1  6  2 -1</clus>
<clus scale="  460.740">  4  5 -1 -1</clus>
<clus scale="  300.000">  1  4  2 -1</clus>
</clustering>
</event>
<event>
 6    1  0.9131597E-012  0.3000000E+03  0.7818608E-02  0.1093470E+00
          1   -1    0    0  502    0  0.00000000000E+00  0.00000000000E+00  0.24474939506E+03  0.24474939506E+03  0.00000000000E+00 0.  1.
         13   -1    0    0    0    0 -0.00000000000E+00 -0.00000000000E+00 -0.27500000000E+03  0.27500000000E+03  0.00000000000E+00 0.  1.
    9000005    2    1    2  501    0 -0.36559195776E+02  0.34659920370E+01 -0.33982064112E+02  0.48283717914E+03  0.48023782960E+03 0.  0.
         13    1    3    3    0    0 -0.17299188034E+03  0.91733601683E+01 -0.20214183859E+03  0.26621732496E+03  0.00000000000E+00 0.  1.
          1    1    3    3  501    0  0.13643268457E+03 -0.57073681313E+01  0.16815977448E+03  0.21661985417E+03  0.00000000000E+00 0.  1.
         21    1    1    2  502  501  0.36559195776E+02 -0.34659920370E+01  0.37314591699E+01  0.36912215920E+02  0.00000000000E+00 0. -1.
<scales pt_clust_4="550.00000" pt_clust_5="550.00000" pt_clust_6="36.72312"></scales>
<mgrwt>
<rscale>  0 0.30000000E+03</rscale>
<asrwt>  1 0.36723125E+02</asrwt>
<pdfrwt beam="1">  1        1 0.88999780E+00 0.30000000E+03</pdfrwt>
<pdfrwt beam="2">0</pdfrwt>
<totfact> 0.14367413E-04</totfact>
</mgrwt>
<clustering>
<clus scale="   36.723">  1  6  2 -1</clus>
<clus scale="  480.238">  4  5 -1 -1</clus>
<clus scale="  300.000">  1  4  2 -1</clus>
</clustering>
</event>
<event>
 6    1  0.9131597E-012  0.3000000E+03  0.7818608E-02  0.1093470E+00
          1   -1    0    0  502    0  0.00000000000E+00  0.00000000000E+00  0.24698092479E+03  0.24698092479E+03  0.00000000000E+00 0.  1.
         13   -1    0    0    0    0 -0.00000000000E+00 -0.00000000000E+00 -0.27500000000E+03  0.27500000000E+03  0.00000000000E+00 0.  1.
    9000005    2    1    2  501    0 -0.38834310410E+02 -0.27293537830E+02 -0.52578773169E+02  0.46853731305E+03  0.46315186004E+03 0.  0.
         13    1    3    3    0    0 -0.11854905619E+03  0.18716487319E+03 -0.85321935448E+02  0.23741188081E+03  0.00000000000E+00 0.  1.
          3    1    3    3  501    0  0.79714745779E+02 -0.21445841102E+03  0.32743162279E+02  0.23112543224E+03  0.00000000000E+00 0.  1.
         21    1    1    2  502  501  0.38834310410E+02  0.27293537830E+02  0.24559697960E+02  0.53443611744E+02  0.00000000000E+00 0.  1.
<scales pt_clust_4="550.00000" pt_clust_5="550.00000" pt_clust_6="47.46621"></scales>
<mgrwt>
<rscale>  0 0.30000000E+03</rscale>
<asrwt>  1 0.47466208E+02</asrwt>
<pdfrwt beam="1">  1        1 0.89811245E+00 0.30000000E+03</pdfrwt>
<pdfrwt beam="2">0</pdfrwt>
<totfact> 0.11006818E-04</totfact>
</mgrwt>
<clustering>
<clus scale="   47.466">  1  6  2 -1</clus>
<clus scale="  463.152">  4  5 -1 -1</clus>
<clus scale="  300.000">  1  4  2 -1</clus>
</clustering>
</event>
<event>
 6    1  0.9131597E-012  0.3000000E+03  0.7818608E-02  0.1093470E+00
          1   -1    0    0  502    0  0.00000000000E+00  0.00000000000E+00  0.25834433123E+03  0.25834433123E+03  0.00000000000E+00 0.  1.
         13   -1    0    0    0    0 -0.00000000000E+00 -0.00000000000E+00 -0.27500000000E+03  0.27500000000E+03  0.00000000000E+00 0.  1.
    9000005    2    1    2  501    0  0.30793036998E+02 -0.13071432528E+02 -0.17186681395E+02  0.49988756136E+03  0.49847077999E+03 0.  0.
         13    1    3    3    0    0  0.14338252307E+03 -0.22032205048E+03 -0.23729849720E+02  0.26393836329E+03  0.00000000000E+00 0.  1.
          3    1    3    3  501    0 -0.11258948607E+03  0.20725061795E+03  0.65431683248E+01  0.23594919806E+03  0.00000000000E+00 0.  1.
         21    1    1    2  502  501 -0.30793036998E+02  0.13071432528E+02  0.53101262253E+00  0.33456769872E+02  0.00000000000E+00 0. -1.
<scales pt_clust_4="550.00000" pt_clust_5="550.00000" pt_clust_6="33.45256"></scales>
<mgrwt>
<rscale>  0 0.30000000E+03</rscale>
<asrwt>  1 0.33452556E+02</asrwt>
<pdfrwt beam="1">  1        1 0.93943393E+00 0.30000000E+03</pdfrwt>
<pdfrwt beam="2">0</pdfrwt>
<totfact> 0.19746461E-05</totfact>
</mgrwt>
<clustering>
<clus scale="   33.453">  1  6  2 -1</clus>
<clus scale="  498.471">  4  5 -1 -1</clus>
<clus scale="  300.000">  1  4  2 -1</clus>
</clustering>
</event>
<event>
 6    1  0.9131597E-012  0.3000000E+03  0.7818608E-02  0.1093470E+00
          1   -1    0    0  502    0  0.00000000000E+00  0.00000000000E+00  0.22263027925E+03  0.22263027925E+03  0.00000000000E+00 0.  1.
         13   -1    0    0    0    0 -0.00000000000E+00 -0.00000000000E+00 -0.27500000000E+03  0.27500000000E+03  0.00000000000E+00 0.  1.
    9000005    2    1    2  501    0  0.28718624719E+02 -0.86855331895E+01 -0.60507827321E+02  0.46654287551E+03  0.46162848659E+03 0.  0.
         13    1    3    3    0    0 -0.20560722320E+03  0.65603891312E+02 -0.13287305915E+02  0.21622847473E+03  0.00000000000E+00 0.  1.
          3    1    3    3  501    0  0.23432584792E+03 -0.74289424502E+02 -0.47220521406E+02  0.25031440078E+03  0.00000000000E+00 0.  1.
         21    1    1    2  502  501 -0.28718624719E+02  0.86855331895E+01  0.81381065720E+01  0.31087403738E+02  0.00000000000E+00 0.  1.
<scales pt_clust_4="550.00000" pt_clust_5="550.00000" pt_clust_6="30.00330"></scales>
<mgrwt>
<rscale>  0 0.30000000E+03</rscale>
<asrwt>  1 0.30003298E+02</asrwt>
<pdfrwt beam="1">  1        1 0.80956465E+00 0.30000000E+03</pdfrwt>
<pdfrwt beam="2">0</pdfrwt>
<totfact> 0.90505680E-04</totfact>
</mgrwt>
<clustering>
<clus scale="   30.003">  1  6  2 -1</clus>
<clus scale="  461.628">  4  5 -1 -1</clus>
<clus scale="  300.000">  1  4  2 -1</clus>
</clustering>
</event>
<event>
 6    1  0.9131597E-012  0.3000000E+03  0.7818608E-02  0.1093470E+00
          1   -1    0    0  502    0  0.00000000000E+00  0.00000000000E+00  0.25054221855E+03  0.25054221855E+03  0.00000000000E+00 0.  1.
         13   -1    0    0    0    0 -0.00000000000E+00 -0.00000000000E+00 -0.27500000000E+03  0.27500000000E+03  0.00000000000E+00 0.  1.
    9000005    2    1    2  501    0  0.82073381228E+01  0.46756574414E+02 -0.59902602760E+02  0.46629803734E+03  0.45999130444E+03 0.  0.
         13    1    3    3    0    0 -0.18040694834E+03 -0.30966612584E+01  0.10681057242E+03  0.20967774012E+03  0.00000000000E+00 0.  1.
          1    1    3    3  501    0  0.18861428647E+03  0.49853235672E+02 -0.16671317518E+03  0.25662029722E+03  0.00000000000E+00 0.  1.
         21    1    1    2  502  501 -0.82073381228E+01 -0.46756574414E+02  0.35444821313E+02  0.59244181216E+02  0.00000000000E+00 0.  1.
<scales pt_clust_4="550.00000" pt_clust_5="550.00000" pt_clust_6="47.47144"></scales>
<mgrwt>
<rscale>  0 0.30000000E+03</rscale>
<asrwt>  1 0.47471440E+02</asrwt>
<pdfrwt beam="1">  1        1 0.91106261E+00 0.30000000E+03</pdfrwt>
<pdfrwt beam="2">0</pdfrwt>
<totfact> 0.64010250E-05</totfact>
</mgrwt>
<clustering>
<clus scale="   47.471">  1  6  2 -1</clus>
<clus scale="  459.991">  4  5 -1 -1</clus>
<clus scale="  300.000">  1  4  2 -1</clus>
</clustering>
</event>
<event>
 6    1  0.9131597E-012  0.3000000E+03  0.7818608E-02  0.1093470E+00
          1   -1    0    0  502    0  0.00000000000E+00  0.00000000000E+00  0.21956373481E+03  0.21956373481E+03  0.00000000000E+00 0.  1.
         13   -1    0    0    0    0 -0.00000000000E+00 -0.00000000000E+00 -0.27500000000E+03  0.27500000000E+03  0.00000000000E+00 0.  1.
    9000005    2    1    2  501    0  0.15513888593E+02  0.26557834362E+02 -0.53703124257E+02  0.46375784117E+03  0.45960995462E+03 0.  0.
         13    1    3    3    0    0  0.17183525097E+03  0.33204171704E+02  0.13325301033E+03  0.21996871427E+03  0.00000000000E+00 0.  1.
          1    1    3    3  501    0 -0.15632136238E+03 -0.66463373420E+01 -0.18695613458E+03  0.24378912690E+03  0.00000000000E+00 0.  1.
         21    1    1    2  502  501 -0.15513888593E+02 -0.26557834362E+02 -0.17331409357E+01  0.30805893637E+02  0.00000000000E+00 0. -1.
<scales pt_clust_4="550.00000" pt_clust_5="550.00000" pt_clust_6="30.75710"></scales>
<mgrwt>
<rscale>  0 0.30000000E+03</rscale>
<asrwt>  1 0.30757102E+02</asrwt>
<pdfrwt beam="1">  1        1 0.79841358E+00 0.30000000E+03</pdfrwt>
<pdfrwt beam="2">0</pdfrwt>
<totfact> 0.10911805E-03</totfact>
</mgrwt>
<clustering>
<clus scale="   30.757">  1  6  2 -1</clus>
<clus scale="  459.610">  4  5 -1 -1</clus>
<clus scale="  300.000">  1  4  2 -1</clus>
</clustering>
</event>
<event>
 6    1  0.9131597E-012  0.3000000E+03  0.7818608E-02  0.1093470E+00
          1   -1    0    0  502    0  0.00000000000E+00  0.00000000000E+00  0.22398080855E+03  0.22398080855E+03  0.00000000000E+00 0.  1.
         13   -1    0    0    0    0 -0.00000000000E+00 -0.00000000000E+00 -0.27500000000E+03  0.27500000000E+03  0.00000000000E+00 0.  1.
    9000005    2    1    2  501    0  0.32028538682E+02 -0.11515815127E+02 -0.65040089583E+02  0.46217011890E+03  0.45630314952E+03 0.  0.
         13    1    3    3    0    0  0.21303762154E+03  0.92957577744E+02 -0.94881884655E+02  0.25105519610E+03  0.00000000000E+00 0.  1.
          1    1    3    3  501    0 -0.18100908286E+03 -0.10447339287E+03  0.29841795071E+02  0.21111492280E+03  0.00000000000E+00 0.  1.
         21    1    1    2  502  501 -0.32028538682E+02  0.11515815127E+02  0.14020898132E+02  0.36810689651E+02  0.00000000000E+00 0.  1.
<scales pt_clust_4="550.00000" pt_clust_5="550.00000" pt_clust_6="34.03588"></scales>
<mgrwt>
<rscale>  0 0.30000000E+03</rscale>
<asrwt>  1 0.34035882E+02</asrwt>
<pdfrwt beam="1">  1        1 0.81447567E+00 0.30000000E+03</pdfrwt>
<pdfrwt beam="2">0</pdfrwt>
<totfact> 0.80805270E-04</totfact>
</mgrwt>
<clustering>
<clus scale="   34.036">  1  6  2 -1</clus>
<clus scale="  456.303">  4  5 -1 -1</clus>
<clus scale="  300.000">  1  4  2 -1</clus>
</clustering>
</event>
<event>
 6    1  0.9131597E-012  0.3000000E+03  0.7818608E-02  0.1093470E+00
          1   -1    0    0  502    0  0.00000000000E+00  0.00000000000E+00  0.25422114579E+03  0.25422114579E+03  0.00000000000E+00 0.  1.
         13   -1    0    0    0    0 -0.00000000000E+00 -0.00000000000E+00 -0.27500000000E+03  0.27500000000E+03  0.00000000000E+00 0.  1.
    9000005    2    1    2  501    0  0.33714783945E+02 -0.11214522107E+02 -0.28569949955E+02  0.49284597108E+03  0.49073257178E+03 0.  0.
         13    1    3    3    0    0 -0.14302236445E+03 -0.17215753679E+03  0.69669910265E+02  0.23440885351E+03  0.00000000000E+00 0.  1.
          1    1    3    3  501    0  0.17673714840E+03  0.16094301468E+03 -0.98239860220E+02  0.25843711757E+03  0.00000000000E+00 0.  1.
         21    1    1    2  502  501 -0.33714783945E+02  0.11214522107E+02  0.77910957455E+01  0.36375174714E+02  0.00000000000E+00 0. -1.
<scales pt_clust_4="550.00000" pt_clust_5="550.00000" pt_clust_6="35.53100"></scales>
<mgrwt>
<rscale>  0 0.30000000E+03</rscale>
<asrwt>  1 0.35531003E+02</asrwt>
<pdfrwt beam="1">  1        1 0.92444053E+00 0.30000000E+03</pdfrwt>
<pdfrwt beam="2">0</pdfrwt>
<totfact> 0.33584077E-05</totfact>
</mgrwt>
<clustering>
<clus scale="   35.531">  1  6  2 -1</clus>
<clus scale="  490.733">  4  5 -1 -1</clus>
<clus scale="  300.000">  1  4  2 -1</clus>
</clustering>
</event>
<event>
 6    1  0.9131597E-012  0.3000000E+03  0.7818608E-02  0.1093470E+00
          1   -1    0    0  502    0  0.00000000000E+00  0.00000000000E+00  0.25798479834E+03  0.25798479834E+03  0.00000000000E+00 0.  1.
         13   -1    0    0    0    0 -0.00000000000E+00 -0.00000000000E+00 -0.27500000000E+03  0.27500000000E+03  0.00000000000E+00 0.  1.
    9000005    2    1    2  501    0  0.21262453783E+02 -0.24446965635E+02 -0.73504273833E+02  0.46786367009E+03  0.46091624993E+03 0.  0.
         13    1    3    3    0    0  0.89800593246E+01  0.65020885527E+02  0.18380169021E+03  0.19517022914E+03  0.00000000000E+00 0.  1.
          3    1    3    3  501    0  0.12282394458E+02 -0.89467851162E+02 -0.25730596404E+03  0.27269344095E+03  0.00000000000E+00 0.  1.
         21    1    1    2  502  501 -0.21262453783E+02  0.24446965635E+02  0.56489072173E+02  0.65121128250E+02  0.00000000000E+00 0.  1.
<scales pt_clust_4="550.00000" pt_clust_5="550.00000" pt_clust_6="32.39979"></scales>
<mgrwt>
<rscale>  0 0.30000000E+03</rscale>
<asrwt>  1 0.32399785E+02</asrwt>
<pdfrwt beam="1">  1        1 0.93812654E+00 0.30000000E+03</pdfrwt>
<pdfrwt beam="2">0</pdfrwt>
<totfact> 0.20821724E-05</totfact>
</mgrwt>
<clustering>
<clus scale="   32.400">  1  6  2 -1</clus>
<clus scale="  460.916">  4  5 -1 -1</clus>
<clus scale="  300.000">  1  4  2 -1</clus>
</clustering>
</event>
<event>
 6    1  0.9131597E-012  0.3000000E+03  0.7818608E-02  0.1093470E+00
          1   -1    0    0  502    0  0.00000000000E+00  0.00000000000E+00  0.23457641530E+03  0.23457641530E+03  0.00000000000E+00 0.  1.
         13   -1    0    0    0    0 -0.00000000000E+00 -0.00000000000E+00 -0.27500000000E+03  0.27500000000E+03  0.00000000000E+00 0.  1.
    9000005    2    1    2  501    0  0.25718987982E+01  0.35346481028E+02 -0.46056170387E+02  0.47369167751E+03  0.47011343964E+03 0.  0.
         13    1    3    3    0    0 -0.50270163866E+02  0.22509382806E+03  0.74964147988E+02  0.24251586400E+03  0.00000000000E+00 0.  1.
          3    1    3    3  501    0  0.52842062664E+02 -0.18974734704E+03 -0.12102031838E+03  0.23117581351E+03  0.00000000000E+00 0.  1.
         21    1    1    2  502  501 -0.25718987982E+01 -0.35346481028E+02  0.56325856839E+01  0.35884737786E+02  0.00000000000E+00 0.  1.
<scales pt_clust_4="550.00000" pt_clust_5="550.00000" pt_clust_6="35.43993"></scales>
<mgrwt>
<rscale>  0 0.30000000E+03</rscale>
<asrwt>  1 0.35439926E+02</asrwt>
<pdfrwt beam="1">  1        1 0.85300515E+00 0.30000000E+03</pdfrwt>
<pdfrwt beam="2">0</pdfrwt>
<totfact> 0.38013586E-04</totfact>
</mgrwt>
<clustering>
<clus scale="   35.440">  1  6  2 -1</clus>
<clus scale="  470.113">  4  5 -1 -1</clus>
<clus scale="  300.000">  1  4  2 -1</clus>
</clustering>
</event>
<event>
 6    1  0.9131597E-012  0.3000000E+03  0.7818608E-02  0.1093470E+00
          1   -1    0    0  502    0  0.00000000000E+00  0.00000000000E+00  0.23095477426E+03  0.23095477426E+03  0.00000000000E+00 0.  1.
         13   -1    0    0    0    0 -0.00000000000E+00 -0.00000000000E+00 -0.27500000000E+03  0.27500000000E+03  0.00000000000E+00 0.  1.
    9000005    2    1    2  501    0 -0.26309779276E+02 -0.17203852976E+02 -0.55475076768E+02  0.47250602933E+03  0.46818403066E+03 0.  0.
         13    1    3    3    0    0 -0.18527712141E+03 -0.23828714618E+02 -0.18830393182E+03  0.26524288887E+03  0.00000000000E+00 0.  1.
          3    1    3    3  501    0  0.15896734214E+03  0.66248616422E+01  0.13282885505E+03  0.20726314046E+03  0.00000000000E+00 0.  1.
         21    1    1    2  502  501  0.26309779276E+02  0.17203852976E+02  0.11429851028E+02  0.33448744928E+02  0.00000000000E+00 0.  1.
<scales pt_clust_4="550.00000" pt_clust_5="550.00000" pt_clust_6="31.43528"></scales>
<mgrwt>
<rscale>  0 0.30000000E+03</rscale>
<asrwt>  1 0.31435283E+02</asrwt>
<pdfrwt beam="1">  1        1 0.83983554E+00 0.30000000E+03</pdfrwt>
<pdfrwt beam="2">0</pdfrwt>
<totfact> 0.50870386E-04</totfact>
</mgrwt>
<clustering>
<clus scale="   31.435">  1  6  2 -1</clus>
<clus scale="  468.184">  4  5 -1 -1</clus>
<clus scale="  300.000">  1  4  2 -1</clus>
</clustering>
</event>
<event>
 6    1  0.9131597E-012  0.3000000E+03  0.7818608E-02  0.1093470E+00
          1   -1    0    0  502    0  0.00000000000E+00  0.00000000000E+00  0.26195485567E+03  0.26195485567E+03  0.00000000000E+00 0.  1.
         13   -1    0    0    0    0 -0.00000000000E+00 -0.00000000000E+00 -0.27500000000E+03  0.27500000000E+03  0.00000000000E+00 0.  1.
    9000005    2    1    2  501    0 -0.39262120052E+02 -0.42353261468E+02 -0.53526627847E+02  0.46642781592E+03  0.45973306902E+03 0.  0.
         13    1    3    3    0    0 -0.21988107122E+03  0.14968324279E+02  0.80165621368E+02  0.23451708479E+03  0.00000000000E+00 0.  1.
          3    1    3    3  501    0  0.18061895116E+03 -0.57321585747E+02 -0.13369224922E+03  0.23191073113E+03  0.00000000000E+00 0.  1.
         21    1    1    2  502  501  0.39262120052E+02  0.42353261468E+02  0.40481483521E+02  0.70527039751E+02  0.00000000000E+00 0.  1.
<scales pt_clust_4="550.00000" pt_clust_5="550.00000" pt_clust_6="57.75217"></scales>
<mgrwt>
<rscale>  0 0.30000000E+03</rscale>
<asrwt>  1 0.57752167E+02</asrwt>
<pdfrwt beam="1">  1        1 0.95256311E+00 0.30000000E+03</pdfrwt>
<pdfrwt beam="2">0</pdfrwt>
<totfact> 0.99859063E-06</totfact>
</mgrwt>
<clustering>
<clus scale="   57.752">  1  6  2 -1</clus>
<clus scale="  459.733">  4  5 -1 -1</clus>
<clus scale="  300.000">  1  4  2 -1</clus>
</clustering>
</event>
<event>
 6    1  0.9131597E-012  0.3000000E+03  0.7818608E-02  0.1093470E+00
          1   -1    0    0  502    0  0.00000000000E+00  0.00000000000E+00  0.25767549361E+03  0.25767549361E+03  0.00000000000E+00 0.  1.
         13   -1    0    0    0    0 -0.00000000000E+00 -0.00000000000E+00 -0.27500000000E+03  0.27500000000E+03  0.00000000000E+00 0.  1.
    9000005    2    1    2  501    0 -0.65650599284E+02 -0.10126544762E+02 -0.20110943402E+02  0.46619006418E+03  0.46099476982E+03 0.  0.
         13    1    3    3    0    0 -0.17840085875E+03 -0.10466362785E+03  0.13920878213E+03  0.24931992785E+03  0.00000000000E+00 0.  1.
          3    1    3    3  501    0  0.11275025947E+03  0.94537083084E+02 -0.15931972554E+03  0.21687013633E+03  0.00000000000E+00 0.  1.
         21    1    1    2  502  501  0.65650599284E+02  0.10126544762E+02  0.27864370108E+01  0.66485429429E+02  0.00000000000E+00 0.  1.
<scales pt_clust_4="550.00000" pt_clust_5="550.00000" pt_clust_6="66.42701"></scales>
<mgrwt>
<rscale>  0 0.30000000E+03</rscale>
<asrwt>  1 0.66427013E+02</asrwt>
<pdfrwt beam="1">  1        1 0.93700179E+00 0.30000000E+03</pdfrwt>
<pdfrwt beam="2">0</pdfrwt>
<totfact> 0.18989190E-05</totfact>
</mgrwt>
<clustering>
<clus scale="   66.427">  1  6  2 -1</clus>
<clus scale="  460.995">  4  5 -1 -1</clus>
<clus scale="  300.000">  1  4  2 -1</clus>
</clustering>
</event>
<event>
 6    1  0.9131597E-012  0.3000000E+03  0.7818608E-02  0.1093470E+00
          1   -1    0    0  502    0  0.00000000000E+00  0.00000000000E+00  0.24746361328E+03  0.24746361328E+03  0.00000000000E+00 0.  1.
         13   -1    0    0    0    0 -0.00000000000E+00 -0.00000000000E+00 -0.27500000000E+03  0.27500000000E+03  0.00000000000E+00 0.  1.
    9000005    2    1    2  501    0 -0.26332010670E+02  0.19601261238E+02 -0.69503844140E+02  0.46918273763E+03  0.46284346458E+03 0.  0.
         13    1    3    3    0    0 -0.77153774273E+02  0.68256009683E+02 -0.25272729626E+03  0.27291514069E+03  0.00000000000E+00 0.  1.
          3    1    3    3  501    0  0.50821763603E+02 -0.48654748445E+02  0.18322345212E+03  0.19626759694E+03  0.00000000000E+00 0.  1.
         21    1    1    2  502  501  0.26332010670E+02 -0.19601261238E+02  0.41967457417E+02  0.53280875651E+02  0.00000000000E+00 0. -1.
<scales pt_clust_4="550.00000" pt_clust_5="550.00000" pt_clust_6="32.82658"></scales>
<mgrwt>
<rscale>  0 0.30000000E+03</rscale>
<asrwt>  1 0.32826578E+02</asrwt>
<pdfrwt beam="1">  1        1 0.89986768E+00 0.30000000E+03</pdfrwt>
<pdfrwt beam="2">0</pdfrwt>
<totfact> 0.11220915E-04</totfact>
</mgrwt>
<clustering>
<clus scale="   32.827">  1  6  2 -1</clus>
<clus scale="  462.843">  4  5 -1 -1</clus>
<clus scale="  300.000">  1  4  2 -1</clus>
</clustering>
</event>
<event>
 6    1  0.9131597E-012  0.3000000E+03  0.7818608E-02  0.1093470E+00
          1   -1    0    0  502    0  0.00000000000E+00  0.00000000000E+00  0.23460028686E+03  0.23460028686E+03  0.00000000000E+00 0.  1.
         13   -1    0    0    0    0 -0.00000000000E+00 -0.00000000000E+00 -0.27500000000E+03  0.27500000000E+03  0.00000000000E+00 0.  1.
    9000005    2    1    2  501    0  0.22086201278E+02  0.23042971379E+02 -0.58154968999E+02  0.47307593981E+03  0.46840160716E+03 0.  0.
         13    1    3    3    0    0  0.10709832662E+03 -0.52815369829E+02  0.17599177226E+03  0.21267961528E+03  0.00000000000E+00 0.  1.
          1    1    3    3  501    0 -0.85012125341E+02  0.75858341208E+02 -0.23414674126E+03  0.26039632453E+03  0.00000000000E+00 0.  1.
         21    1    1    2  502  501 -0.22086201278E+02 -0.23042971379E+02  0.17755255860E+02  0.36524347052E+02  0.00000000000E+00 0.  1.
<scales pt_clust_4="550.00000" pt_clust_5="550.00000" pt_clust_6="31.91831"></scales>
<mgrwt>
<rscale>  0 0.30000000E+03</rscale>
<asrwt>  1 0.31918315E+02</asrwt>
<pdfrwt beam="1">  1        1 0.85309195E+00 0.30000000E+03</pdfrwt>
<pdfrwt beam="2">0</pdfrwt>
<totfact> 0.38695856E-04</totfact>
</mgrwt>
<clustering>
<clus scale="   31.918">  1  6  2 -1</clus>
<clus scale="  468.402">  4  5 -1 -1</clus>
<clus scale="  300.000">  1  4  2 -1</clus>
</clustering>
</event>
<event>
 6    1  0.9131597E-012  0.3000000E+03  0.7818608E-02  0.1093470E+00
          1   -1    0    0  502    0  0.00000000000E+00  0.00000000000E+00  0.24093111988E+03  0.24093111988E+03  0.00000000000E+00 0.  1.
         13   -1    0    0    0    0 -0.00000000000E+00 -0.00000000000E+00 -0.27500000000E+03  0.27500000000E+03  0.00000000000E+00 0.  1.
    9000005    2    1    2  501    0  0.45191818823E+02 -0.91057285636E+01 -0.97417719304E+01  0.46380604938E+03  0.46140647431E+03 0.  0.
         13    1    3    3    0    0  0.25128624081E+03  0.29929024939E+02 -0.19566592252E+02  0.25381759767E+03  0.00000000000E+00 0.  1.
          1    1    3    3  501    0 -0.20609442199E+03 -0.39034753502E+02  0.98248203214E+01  0.20998845171E+03  0.00000000000E+00 0.  1.
         21    1    1    2  502  501 -0.45191818823E+02  0.91057285636E+01 -0.24327108194E+02  0.52125070496E+02  0.00000000000E+00 0.  1.
<scales pt_clust_4="550.00000" pt_clust_5="550.00000" pt_clust_6="46.10007"></scales>
<mgrwt>
<rscale>  0 0.30000000E+03</rscale>
<asrwt>  1 0.46100075E+02</asrwt>
<pdfrwt beam="1">  1        1 0.87611316E+00 0.30000000E+03</pdfrwt>
<pdfrwt beam="2">0</pdfrwt>
<totfact> 0.20811613E-04</totfact>
</mgrwt>
<clustering>
<clus scale="   46.100">  1  6  2 -1</clus>
<clus scale="  461.406">  4  5 -1 -1</clus>
<clus scale="  300.000">  1  4  2 -1</clus>
</clustering>
</event>
<event>
 6    1  0.9131597E-012  0.3000000E+03  0.7818608E-02  0.1093470E+00
          1   -1    0    0  502    0  0.00000000000E+00  0.00000000000E+00  0.24060310655E+03  0.24060310655E+03  0.00000000000E+00 0.  1.
         13   -1    0    0    0    0 -0.00000000000E+00 -0.00000000000E+00 -0.27500000000E+03  0.27500000000E+03  0.00000000000E+00 0.  1.
    9000005    2    1    2  501    0 -0.27514370386E+02  0.21878250942E+02 -0.64409157536E+02  0.46938152677E+03  0.46361059053E+03 0.  0.
         13    1    3    3    0    0  0.10676974196E+03  0.18036638399E+03  0.71137307864E+02  0.22134210364E+03  0.00000000000E+00 0.  1.
          1    1    3    3  501    0 -0.13428411235E+03 -0.15848813305E+03 -0.13554646540E+03  0.24803942313E+03  0.00000000000E+00 0.  1.
         21    1    1    2  502  501  0.27514370386E+02 -0.21878250942E+02  0.30012264091E+02  0.46221579785E+02  0.00000000000E+00 0.  1.
<scales pt_clust_4="550.00000" pt_clust_5="550.00000" pt_clust_6="35.15250"></scales>
<mgrwt>
<rscale>  0 0.30000000E+03</rscale>
<asrwt>  1 0.35152503E+02</asrwt>
<pdfrwt beam="1">  1        1 0.87492039E+00 0.30000000E+03</pdfrwt>
<pdfrwt beam="2">0</pdfrwt>
<totfact> 0.22518065E-04</totfact>
</mgrwt>
<clustering>
<clus scale="   35.153">  1  6  2 -1</clus>
<clus scale="  463.611">  4  5 -1 -1</clus>
<clus scale="  300.000">  1  4  2 -1</clus>
</clustering>
</event>
<event>
 6    1  0.9131597E-012  0.3000000E+03  0.7818608E-02  0.1093470E+00
          1   -1    0    0  502    0  0.00000000000E+00  0.00000000000E+00  0.24490871962E+03  0.24490871962E+03  0.00000000000E+00 0.  1.
         13   -1    0    0    0    0 -0.00000000000E+00 -0.00000000000E+00 -0.27500000000E+03  0.27500000000E+03  0.00000000000E+00 0.  1.
    9000005    2    1    2  501    0  0.21255511840E+02 -0.44438895726E+02 -0.12144464006E+02  0.46748066935E+03  0.46471935183E+03 0.  0.
         13    1    3    3    0    0  0.21572804315E+02  0.20644144692E+03  0.39626247852E+02  0.21131421251E+03  0.00000000000E+00 0.  1.
          1    1    3    3  501    0 -0.31729247472E+00 -0.25088034264E+03 -0.51770711857E+02  0.25616645683E+03  0.00000000000E+00 0.  1.
         21    1    1    2  502  501 -0.21255511840E+02  0.44438895726E+02 -0.17946816379E+02  0.52428050269E+02  0.00000000000E+00 0. -1.
<scales pt_clust_4="550.00000" pt_clust_5="550.00000" pt_clust_6="49.26068"></scales>
<mgrwt>
<rscale>  0 0.30000000E+03</rscale>
<asrwt>  1 0.49260681E+02</asrwt>
<pdfrwt beam="1">  1        1 0.89057716E+00 0.30000000E+03</pdfrwt>
<pdfrwt beam="2">0</pdfrwt>
<totfact> 0.13387713E-04</totfact>
</mgrwt>
<clustering>
<clus scale="   49.261">  1  6  2 -1</clus>
<clus scale="  464.719">  4  5 -1 -1</clus>
<clus scale="  300.000">  1  4  2 -1</clus>
</clustering>
</event>
<event>
 6    1  0.9131597E-012  0.3000000E+03  0.7818608E-02  0.1093470E+00
          1   -1    0    0  502    0  0.00000000000E+00  0.00000000000E+00  0.23320741690E+03  0.23320741690E+03  0.00000000000E+00 0.  1.
         13   -1    0    0    0    0 -0.00000000000E+00 -0.00000000000E+00 -0.27500000000E+03  0.27500000000E+03  0.00000000000E+00 0.  1.
    9000005    2    1    2  501    0 -0.15151806135E+02 -0.26096413594E+02 -0.51032299590E+02  0.47664838661E+03  0.47294691967E+03 0.  0.
         13    1    3    3    0    0 -0.22986853719E+03 -0.23003682547E+02  0.54530648524E+02  0.23736534168E+03  0.00000000000E+00 0.  1.
          1    1    3    3  501    0  0.21471673105E+03 -0.30927310475E+01 -0.10556294811E+03  0.23928304494E+03  0.00000000000E+00 0.  1.
         21    1    1    2  502  501  0.15151806135E+02  0.26096413594E+02  0.92397164864E+01  0.31559030282E+02  0.00000000000E+00 0. -1.
<scales pt_clust_4="550.00000" pt_clust_5="550.00000" pt_clust_6="30.17615"></scales>
<mgrwt>
<rscale>  0 0.30000000E+03</rscale>
<asrwt>  1 0.30176150E+02</asrwt>
<pdfrwt beam="1">  1        1 0.84802697E+00 0.30000000E+03</pdfrwt>
<pdfrwt beam="2">0</pdfrwt>
<totfact> 0.43660506E-04</totfact>
</mgrwt>
<clustering>
<clus scale="   30.176">  1  6  2 -1</clus>
<clus scale="  472.947">  4  5 -1 -1</clus>
<clus scale="  300.000">  1  4  2 -1</clus>
</clustering>
</event>
<event>
 6    1  0.9131597E-012  0.3000000E+03  0.7818608E-02  0.1093470E+00
          1   -1    0    0  502    0  0.00000000000E+00  0.00000000000E+00  0.23628680698E+03  0.23628680698E+03  0.00000000000E+00 0.  1.
         13   -1    0    0    0    0 -0.00000000000E+00 -0.00000000000E+00 -0.27500000000E+03  0.27500000000E+03  0.00000000000E+00 0.  1.
    9000005    2    1    2  501    0 -0.34447575341E+02  0.13216740812E+02 -0.45120392325E+02  0.47383857755E+03  0.47024018340E+03 0.  0.
         13    1    3    3    0    0  0.99895377702E+02  0.11019920476E+03  0.15446789542E+03  0.21443712815E+03  0.00000000000E+00 0.  1.
          3    1    3    3  501    0 -0.13434295304E+03 -0.96982463947E+02 -0.19958828774E+03  0.25940144940E+03  0.00000000000E+00 0.  1.
         21    1    1    2  502  501  0.34447575341E+02 -0.13216740812E+02  0.64071993076E+01  0.37448229431E+02  0.00000000000E+00 0. -1.
<scales pt_clust_4="550.00000" pt_clust_5="550.00000" pt_clust_6="36.89604"></scales>
<mgrwt>
<rscale>  0 0.30000000E+03</rscale>
<asrwt>  1 0.36896039E+02</asrwt>
<pdfrwt beam="1">  1        1 0.85922475E+00 0.30000000E+03</pdfrwt>
<pdfrwt beam="2">0</pdfrwt>
<totfact> 0.32643799E-04</totfact>
</mgrwt>
<clustering>
<clus scale="   36.896">  1  6  2 -1</clus>
<clus scale="  470.240">  4  5 -1 -1</clus>
<clus scale="  300.000">  1  4  2 -1</clus>
</clustering>
</event>
<event>
 6    1  0.9131597E-012  0.3000000E+03  0.7818608E-02  0.1093470E+00
          1   -1    0    0  502    0  0.00000000000E+00  0.00000000000E+00  0.24031173334E+03  0.24031173334E+03  0.00000000000E+00 0.  1.
         13   -1    0    0    0    0 -0.00000000000E+00 -0.00000000000E+00 -0.27500000000E+03  0.27500000000E+03  0.00000000000E+00 0.  1.
    9000005    2    1    2  501    0  0.25806697506E+02  0.19449437909E+02 -0.53423108774E+01  0.47166025693E+03  0.47052161631E+03 0.  0.
         13    1    3    3    0    0 -0.11847507352E+02  0.95860847297E+02  0.21485052435E+03  0.23556403224E+03  0.00000000000E+00 0.  1.
          3    1    3    3  501    0  0.37654204858E+02 -0.76411409388E+02 -0.22019283523E+03  0.23609622469E+03  0.00000000000E+00 0.  1.
         21    1    1    2  502  501 -0.25806697506E+02 -0.19449437909E+02 -0.29345955785E+02  0.43651476403E+02  0.00000000000E+00 0. -1.
<scales pt_clust_4="550.00000" pt_clust_5="550.00000" pt_clust_6="32.31513"></scales>
<mgrwt>
<rscale>  0 0.30000000E+03</rscale>
<asrwt>  1 0.32315125E+02</asrwt>
<pdfrwt beam="1">  1        1 0.87386085E+00 0.30000000E+03</pdfrwt>
<pdfrwt beam="2">0</pdfrwt>
<totfact> 0.23469767E-04</totfact>
</mgrwt>
<clustering>
<clus scale="   32.315">  1  6  2 -1</clus>
<clus scale="  470.522">  4  5 -1 -1</clus>
<clus scale="  300.000">  1  4  2 -1</clus>
</clustering>
</event>
<event>
 6    1  0.9131597E-012  0.3000000E+03  0.7818608E-02  0.1093470E+00
          1   -1    0    0  502    0  0.00000000000E+00  0.00000000000E+00  0.23216659596E+03  0.23216659596E+03  0.00000000000E+00 0.  1.
         13   -1    0    0    0    0 -0.00000000000E+00 -0.00000000000E+00 -0.27500000000E+03  0.27500000000E+03  0.00000000000E+00 0.  1.
    9000005    2    1    2  501    0  0.26550497691E+02  0.31905618223E+02 -0.59236297475E+02  0.46253530296E+03  0.45684468930E+03 0.  0.
         13    1    3    3    0    0 -0.16005479200E+03  0.13600362546E+03 -0.11801748071E+03  0.24092041909E+03  0.00000000000E+00 0.  1.
          1    1    3    3  501    0  0.18660528969E+03 -0.10409800724E+03  0.58781183233E+02  0.22161488387E+03  0.00000000000E+00 0.  1.
         21    1    1    2  502  501 -0.26550497691E+02 -0.31905618223E+02  0.16402893439E+02  0.44631293001E+02  0.00000000000E+00 0. -1.
<scales pt_clust_4="550.00000" pt_clust_5="550.00000" pt_clust_6="41.50780"></scales>
<mgrwt>
<rscale>  0 0.30000000E+03</rscale>
<asrwt>  1 0.41507799E+02</asrwt>
<pdfrwt beam="1">  1        1 0.84424217E+00 0.30000000E+03</pdfrwt>
<pdfrwt beam="2">0</pdfrwt>
<totfact> 0.44454143E-04</totfact>
</mgrwt>
<clustering>
<clus scale="   41.508">  1  6  2 -1</clus>
<clus scale="  456.845">  4  5 -1 -1</clus>
<clus scale="  300.000">  1  4  2 -1</clus>
</clustering>
</event>
<event>
 6    1  0.9131597E-012  0.3000000E+03  0.7818608E-02  0.1093470E+00
          1   -1    0    0  502    0  0.00000000000E+00  0.00000000000E+00  0.23364513497E+03  0.23364513497E+03  0.00000000000E+00 0.  1.
         13   -1    0    0    0    0 -0.00000000000E+00 -0.00000000000E+00 -0.27500000000E+03  0.27500000000E+03  0.00000000000E+00 0.  1.
    9000005    2    1    2  501    0 -0.33852304599E+02  0.21312563635E+02 -0.40912330730E+02  0.46864013863E+03  0.46513391279E+03 0.  0.
         13    1    3    3    0    0 -0.67447426703E+01  0.66136046613E+02 -0.24710827198E+03  0.25589444366E+03  0.00000000000E+00 0.  1.
          3    1    3    3  501    0 -0.27107561929E+02 -0.44823482978E+02  0.20619594125E+03  0.21274569497E+03  0.00000000000E+00 0.  1.
         21    1    1    2  502  501  0.33852304599E+02 -0.21312563635E+02 -0.44253430486E+00  0.40004996338E+02  0.00000000000E+00 0.  1.
<scales pt_clust_4="550.00000" pt_clust_5="550.00000" pt_clust_6="40.00255"></scales>
<mgrwt>
<rscale>  0 0.30000000E+03</rscale>
<asrwt>  1 0.40002549E+02</asrwt>
<pdfrwt beam="1">  1        1 0.84961867E+00 0.30000000E+03</pdfrwt>
<pdfrwt beam="2">0</pdfrwt>
<totfact> 0.40034178E-04</totfact>
</mgrwt>
<clustering>
<clus scale="   40.003">  1  6  2 -1</clus>
<clus scale="  465.134">  4  5 -1 -1</clus>
<clus scale="  300.000">  1  4  2 -1</clus>
</clustering>
</event>
<event>
 6    1  0.9131597E-012  0.3000000E+03  0.7818608E-02  0.1093470E+00
          1   -1    0    0  502    0  0.00000000000E+00  0.00000000000E+00  0.22146332282E+03  0.22146332282E+03  0.00000000000E+00 0.  1.
         13   -1    0    0    0    0 -0.00000000000E+00 -0.00000000000E+00 -0.27500000000E+03  0.27500000000E+03  0.00000000000E+00 0.  1.
    9000005    2    1    2  501    0  0.38659105868E+01 -0.32685628402E+02 -0.51815200200E+02  0.46350487850E+03  0.45942209553E+03 0.  0.
         13    1    3    3    0    0 -0.18665613195E+03  0.44976925268E+02  0.91580242807E+02  0.21272135829E+03  0.00000000000E+00 0.  1.
          3    1    3    3  501    0  0.19052204254E+03 -0.77662553671E+02 -0.14339544301E+03  0.25078352021E+03  0.00000000000E+00 0.  1.
         21    1    1    2  502  501 -0.38659105868E+01  0.32685628402E+02 -0.17214769797E+01  0.32958444316E+02  0.00000000000E+00 0. -1.
<scales pt_clust_4="550.00000" pt_clust_5="550.00000" pt_clust_6="32.91346"></scales>
<mgrwt>
<rscale>  0 0.30000000E+03</rscale>
<asrwt>  1 0.32913456E+02</asrwt>
<pdfrwt beam="1">  1        1 0.80532117E+00 0.30000000E+03</pdfrwt>
<pdfrwt beam="2">0</pdfrwt>
<totfact> 0.95863294E-04</totfact>
</mgrwt>
<clustering>
<clus scale="   32.913">  1  6  2 -1</clus>
<clus scale="  459.422">  4  5 -1 -1</clus>
<clus scale="  300.000">  1  4  2 -1</clus>
</clustering>
</event>
<event>
 6    1  0.9131597E-012  0.3000000E+03  0.7818608E-02  0.1093470E+00
          1   -1    0    0  502    0  0.00000000000E+00  0.00000000000E+00  0.22699411837E+03  0.22699411837E+03  0.00000000000E+00 0.  1.
         13   -1    0    0    0    0 -0.00000000000E+00 -0.00000000000E+00 -0.27500000000E+03  0.27500000000E+03  0.00000000000E+00 0.  1.
    9000005    2    1    2  501    0  0.29677298965E+02 -0.15907278343E+02 -0.56296525930E+02  0.46731677186E+03  0.46268983440E+03 0.  0.
         13    1    3    3    0    0 -0.20285664033E+03  0.62193504502E+02 -0.64858226455E+02  0.22186806455E+03  0.00000000000E+00 0.  1.
          1    1    3    3  501    0  0.23253393929E+03 -0.78100782846E+02  0.85617005248E+01  0.24544870731E+03  0.00000000000E+00 0.  1.
         21    1    1    2  502  501 -0.29677298965E+02  0.15907278343E+02  0.82906443036E+01  0.34677346512E+02  0.00000000000E+00 0. -1.
<scales pt_clust_4="550.00000" pt_clust_5="550.00000" pt_clust_6="33.67170"></scales>
<mgrwt>
<rscale>  0 0.30000000E+03</rscale>
<asrwt>  1 0.33671703E+02</asrwt>
<pdfrwt beam="1">  1        1 0.82543316E+00 0.30000000E+03</pdfrwt>
<pdfrwt beam="2">0</pdfrwt>
<totfact> 0.65210629E-04</totfact>
</mgrwt>
<clustering>
<clus scale="   33.672">  1  6  2 -1</clus>
<clus scale="  462.690">  4  5 -1 -1</clus>
<clus scale="  300.000">  1  4  2 -1</clus>
</clustering>
</event>
<event>
 6    1  0.9131597E-012  0.3000000E+03  0.7818608E-02  0.1093470E+00
          1   -1    0    0  502    0  0.00000000000E+00  0.00000000000E+00  0.25784043457E+03  0.25784043457E+03  0.00000000000E+00 0.  1.
         13   -1    0    0    0    0 -0.00000000000E+00 -0.00000000000E+00 -0.27500000000E+03  0.27500000000E+03  0.00000000000E+00 0.  1.
    9000005    2    1    2  501    0 -0.17141331918E+02 -0.29761679003E+02 -0.42125246748E+02  0.49038024097E+03  0.48735886318E+03 0.  0.
         13    1    3    3    0    0  0.15508857868E+03 -0.17438431828E+03  0.63583253088E+02  0.24187845661E+03  0.00000000000E+00 0.  1.
          1    1    3    3  501    0 -0.17222991060E+03  0.14462263927E+03 -0.10570849984E+03  0.24850178436E+03  0.00000000000E+00 0.  1.
         21    1    1    2  502  501  0.17141331918E+02  0.29761679003E+02  0.24965681322E+02  0.42460193603E+02  0.00000000000E+00 0. -1.
<scales pt_clust_4="550.00000" pt_clust_5="550.00000" pt_clust_6="34.34505"></scales>
<mgrwt>
<rscale>  0 0.30000000E+03</rscale>
<asrwt>  1 0.34345055E+02</asrwt>
<pdfrwt beam="1">  1        1 0.93760158E+00 0.30000000E+03</pdfrwt>
<pdfrwt beam="2">0</pdfrwt>
<totfact> 0.20948267E-05</totfact>
</mgrwt>
<clustering>
<clus scale="   34.345">  1  6  2 -1</clus>
<clus scale="  487.359">  4  5 -1 -1</clus>
<clus scale="  300.000">  1  4  2 -1</clus>
</clustering>
</event>
<event>
 6    1  0.9131597E-012  0.3000000E+03  0.7818608E-02  0.1093470E+00
          1   -1    0    0  502    0  0.00000000000E+00  0.00000000000E+00  0.22955898834E+03  0.22955898834E+03  0.00000000000E+00 0.  1.
         13   -1    0    0    0    0 -0.00000000000E+00 -0.00000000000E+00 -0.27500000000E+03  0.27500000000E+03  0.00000000000E+00 0.  1.
    9000005    2    1    2  501    0 -0.30635122539E+02  0.33176097078E+01 -0.64292802011E+02  0.46843548814E+03  0.46297810412E+03 0.  0.
         13    1    3    3    0    0 -0.69920863605E+02 -0.33147761117E+01 -0.25972034105E+03  0.26898804893E+03  0.00000000000E+00 0.  1.
          1    1    3    3  501    0  0.39285741065E+02  0.66323858195E+01  0.19542753904E+03  0.19944743921E+03  0.00000000000E+00 0.  1.
         21    1    1    2  502  501  0.30635122539E+02 -0.33176097078E+01  0.18851790352E+02  0.36123500200E+02  0.00000000000E+00 0. -1.
<scales pt_clust_4="550.00000" pt_clust_5="550.00000" pt_clust_6="30.81424"></scales>
<mgrwt>
<rscale>  0 0.30000000E+03</rscale>
<asrwt>  1 0.30814238E+02</asrwt>
<pdfrwt beam="1">  1        1 0.83475996E+00 0.30000000E+03</pdfrwt>
<pdfrwt beam="2">0</pdfrwt>
<totfact> 0.55643444E-04</totfact>
</mgrwt>
<clustering>
<clus scale="   30.814">  1  6  2 -1</clus>
<clus scale="  462.978">  4  5 -1 -1</clus>
<clus scale="  300.000">  1  4  2 -1</clus>
</clustering>
</event>
<event>
 6    1  0.9131597E-012  0.3000000E+03  0.7818608E-02  0.1093470E+00
          1   -1    0    0  502    0  0.00000000000E+00  0.00000000000E+00  0.25366482796E+03  0.25366482796E+03  0.00000000000E+00 0.  1.
         13   -1    0    0    0    0 -0.00000000000E+00 -0.00000000000E+00 -0.27500000000E+03  0.27500000000E+03  0.00000000000E+00 0.  1.
    9000005    2    1    2  501    0 -0.42142171891E+01 -0.34533689660E+02 -0.30593632075E+02  0.49266407199E+03  0.49048097024E+03 0.  0.
         13    1    3    3    0    0 -0.87099878302E+02  0.14691837474E+03  0.14717761233E+03  0.22546096604E+03  0.00000000000E+00 0.  1.
          3    1    3    3  501    0  0.82885661113E+02 -0.18145206440E+03 -0.17777124441E+03  0.26720310595E+03  0.00000000000E+00 0.  1.
         21    1    1    2  502  501  0.42142171891E+01  0.34533689660E+02  0.92584600389E+01  0.36000755969E+02  0.00000000000E+00 0. -1.
<scales pt_clust_4="550.00000" pt_clust_5="550.00000" pt_clust_6="34.78987"></scales>
<mgrwt>
<rscale>  0 0.30000000E+03</rscale>
<asrwt>  1 0.34789874E+02</asrwt>
<pdfrwt beam="1">  1        1 0.92241756E+00 0.30000000E+03</pdfrwt>
<pdfrwt beam="2">0</pdfrwt>
<totfact> 0.37155153E-05</totfact>
</mgrwt>
<clustering>
<clus scale="   34.790">  1  6  2 -1</clus>
<clus scale="  490.481">  4  5 -1 -1</clus>
<clus scale="  300.000">  1  4  2 -1</clus>
</clustering>
</event>
<event>
 6    1  0.9131597E-012  0.3000000E+03  0.7818608E-02  0.1093470E+00
          1   -1    0    0  502    0  0.00000000000E+00  0.00000000000E+00  0.21927464989E+03  0.21927464989E+03  0.00000000000E+00 0.  1.
         13   -1    0    0    0    0 -0.00000000000E+00 -0.00000000000E+00 -0.27500000000E+03  0.27500000000E+03  0.00000000000E+00 0.  1.
    9000005    2    1    2  501    0  0.30064184216E+02  0.88254160062E+01 -0.64564863312E+02  0.46171884958E+03  0.45610736821E+03 0.  0.
         13    1    3    3    0    0  0.11942237123E+03  0.10972395193E+03  0.14167567337E+03  0.21534401501E+03  0.00000000000E+00 0.  1.
          1    1    3    3  501    0 -0.89358187009E+02 -0.10089853593E+03 -0.20624053668E+03  0.24637483457E+03  0.00000000000E+00 0.  1.
         21    1    1    2  502  501 -0.30064184216E+02 -0.88254160062E+01  0.88395131977E+01  0.32555800310E+02  0.00000000000E+00 0.  1.
<scales pt_clust_4="550.00000" pt_clust_5="550.00000" pt_clust_6="31.33278"></scales>
<mgrwt>
<rscale>  0 0.30000000E+03</rscale>
<asrwt>  1 0.31332781E+02</asrwt>
<pdfrwt beam="1">  1        1 0.79736236E+00 0.30000000E+03</pdfrwt>
<pdfrwt beam="2">0</pdfrwt>
<totfact> 0.11066283E-03</totfact>
</mgrwt>
<clustering>
<clus scale="   31.333">  1  6  2 -1</clus>
<clus scale="  456.107">  4  5 -1 -1</clus>
<clus scale="  300.000">  1  4  2 -1</clus>
</clustering>
</event>
<event>
 6    1  0.9131597E-012  0.3000000E+03  0.7818608E-02  0.1093470E+00
          1   -1    0    0  502    0  0.00000000000E+00  0.00000000000E+00  0.23639347395E+03  0.23639347395E+03  0.00000000000E+00 0.  1.
         13   -1    0    0    0    0 -0.00000000000E+00 -0.00000000000E+00 -0.27500000000E+03  0.27500000000E+03  0.00000000000E+00 0.  1.
    9000005    2    1    2  501    0  0.35834934422E+02 -0.74230713407E+01 -0.62063831198E+02  0.46792521337E+03  0.46234493795E+03 0.  0.
         13    1    3    3    0    0  0.23453626484E+03 -0.63630115253E+02 -0.90827694909E+02  0.25943346209E+03  0.00000000000E+00 0.  1.
          1    1    3    3  501    0 -0.19870133041E+03  0.56207043912E+02  0.28763863711E+02  0.20849175127E+03  0.00000000000E+00 0.  1.
         21    1    1    2  502  501 -0.35834934422E+02  0.74230713407E+01  0.23457305143E+02  0.43468260578E+02  0.00000000000E+00 0.  1.
<scales pt_clust_4="550.00000" pt_clust_5="550.00000" pt_clust_6="36.59569"></scales>
<mgrwt>
<rscale>  0 0.30000000E+03</rscale>
<asrwt>  1 0.36595690E+02</asrwt>
<pdfrwt beam="1">  1        1 0.85961263E+00 0.30000000E+03</pdfrwt>
<pdfrwt beam="2">0</pdfrwt>
<totfact> 0.32384997E-04</totfact>
</mgrwt>
<clustering>
<clus scale="   36.596">  1  6  2 -1</clus>
<clus scale="  462.345">  4  5 -1 -1</clus>
<clus scale="  300.000">  1  4  2 -1</clus>
</clustering>
</event>
<event>
 6    1  0.9131597E-012  0.3000000E+03  0.7818608E-02  0.1093470E+00
          1   -1    0    0  502    0  0.00000000000E+00  0.00000000000E+00  0.25394435183E+03  0.25394435183E+03  0.00000000000E+00 0.  1.
         13   -1    0    0    0    0 -0.00000000000E+00 -0.00000000000E+00 -0.27500000000E+03  0.27500000000E+03  0.00000000000E+00 0.  1.
    9000005    2    1    2  501    0  0.15586448341E+02 -0.26969311752E+02 -0.35749792720E+02  0.49450311155E+03  0.49222454074E+03 0.  0.
         13    1    3    3    0    0  0.47385223935E+02  0.34797387326E+02 -0.25646284813E+03  0.26311482300E+03  0.00000000000E+00 0.  1.
          1    1    3    3  501    0 -0.31798775595E+02 -0.61766699078E+02  0.22071305541E+03  0.23138828854E+03  0.00000000000E+00 0.  1.
         21    1    1    2  502  501 -0.15586448341E+02  0.26969311752E+02  0.14694144552E+02  0.34441240286E+02  0.00000000000E+00 0. -1.
<scales pt_clust_4="550.00000" pt_clust_5="550.00000" pt_clust_6="31.14934"></scales>
<mgrwt>
<rscale>  0 0.30000000E+03</rscale>
<asrwt>  1 0.31149336E+02</asrwt>
<pdfrwt beam="1">  1        1 0.92343401E+00 0.30000000E+03</pdfrwt>
<pdfrwt beam="2">0</pdfrwt>
<totfact> 0.36125759E-05</totfact>
</mgrwt>
<clustering>
<clus scale="   31.149">  1  6  2 -1</clus>
<clus scale="  492.225">  4  5 -1 -1</clus>
<clus scale="  300.000">  1  4  2 -1</clus>
</clustering>
</event>
<event>
 6    1  0.9131597E-012  0.3000000E+03  0.7818608E-02  0.1093470E+00
          1   -1    0    0  502    0  0.00000000000E+00  0.00000000000E+00  0.22682208541E+03  0.22682208541E+03  0.00000000000E+00 0.  1.
         13   -1    0    0    0    0 -0.00000000000E+00 -0.00000000000E+00 -0.27500000000E+03  0.27500000000E+03  0.00000000000E+00 0.  1.
    9000005    2    1    2  501    0 -0.33222185365E+02  0.38086001029E+00 -0.66226858483E+02  0.46401172928E+03  0.45805788878E+03 0.  0.
         13    1    3    3    0    0 -0.18001953799E+03 -0.11159270359E+03 -0.15173426165E+03  0.26054414542E+03  0.00000000000E+00 0.  1.
          3    1    3    3  501    0  0.14679735263E+03  0.11197356360E+03  0.85507403168E+02  0.20346758386E+03  0.00000000000E+00 0.  1.
         21    1    1    2  502  501  0.33222185365E+02 -0.38086001029E+00  0.18048943890E+02  0.37810356126E+02  0.00000000000E+00 0.  1.
<scales pt_clust_4="550.00000" pt_clust_5="550.00000" pt_clust_6="33.22437"></scales>
<mgrwt>
<rscale>  0 0.30000000E+03</rscale>
<asrwt>  1 0.33224368E+02</asrwt>
<pdfrwt beam="1">  1        1 0.82480758E+00 0.30000000E+03</pdfrwt>
<pdfrwt beam="2">0</pdfrwt>
<totfact> 0.66220874E-04</totfact>
</mgrwt>
<clustering>
<clus scale="   33.224">  1  6  2 -1</clus>
<clus scale="  458.058">  4  5 -1 -1</clus>
<clus scale="  300.000">  1  4  2 -1</clus>
</clustering>
</event>
<event>
 6    1  0.9131597E-012  0.3000000E+03  0.7818608E-02  0.1093470E+00
          1   -1    0    0  502    0  0.00000000000E+00  0.00000000000E+00  0.23382354581E+03  0.23382354581E+03  0.00000000000E+00 0.  1.
         13   -1    0    0    0    0 -0.00000000000E+00 -0.00000000000E+00 -0.27500000000E+03  0.27500000000E+03  0.00000000000E+00 0.  1.
    9000005    2    1    2  501    0  0.11580263415E+02 -0.46007302164E+02 -0.33642445072E+02  0.46078673028E+03  0.45710154489E+03 0.  0.
         13    1    3    3    0    0 -0.11311207055E+03 -0.15900744835E+03  0.12318172549E+03  0.23076274966E+03  0.00000000000E+00 0.  1.
          3    1    3    3  501    0  0.12469233397E+03  0.11300014619E+03 -0.15682417056E+03  0.23002398062E+03  0.00000000000E+00 0.  1.
         21    1    1    2  502  501 -0.11580263415E+02  0.46007302164E+02 -0.75340091137E+01  0.48036815533E+02  0.00000000000E+00 0.  1.
<scales pt_clust_4="550.00000" pt_clust_5="550.00000" pt_clust_6="47.44235"></scales>
<mgrwt>
<rscale>  0 0.30000000E+03</rscale>
<asrwt>  1 0.47442350E+02</asrwt>
<pdfrwt beam="1">  1        1 0.85026744E+00 0.30000000E+03</pdfrwt>
<pdfrwt beam="2">0</pdfrwt>
<totfact> 0.38285599E-04</totfact>
</mgrwt>
<clustering>
<clus scale="   47.442">  1  6  2 -1</clus>
<clus scale="  457.102">  4  5 -1 -1</clus>
<clus scale="  300.000">  1  4  2 -1</clus>
</clustering>
</event>
<event>
 6    1  0.9131597E-012  0.3000000E+03  0.7818608E-02  0.1093470E+00
          1   -1    0    0  502    0  0.00000000000E+00  0.00000000000E+00  0.24444590678E+03  0.24444590678E+03  0.00000000000E+00 0.  1.
         13   -1    0    0    0    0 -0.00000000000E+00 -0.00000000000E+00 -0.27500000000E+03  0.27500000000E+03  0.00000000000E+00 0.  1.
    9000005    2    1    2  501    0  0.83199516361E+01 -0.39518809483E+02 -0.29379930325E+02  0.47904372173E+03  0.47643336273E+03 0.  0.
         13    1    3    3    0    0  0.20831288142E+03 -0.74918682327E+02 -0.12535951983E+03  0.25440533551E+03  0.00000000000E+00 0.  1.
          1    1    3    3  501    0 -0.19999292978E+03  0.35399872844E+02  0.95979589505E+02  0.22463838622E+03  0.00000000000E+00 0.  1.
         21    1    1    2  502  501 -0.83199516361E+01  0.39518809483E+02 -0.11741628957E+01  0.40402185049E+02  0.00000000000E+00 0.  1.
<scales pt_clust_4="550.00000" pt_clust_5="550.00000" pt_clust_6="40.38512"></scales>
<mgrwt>
<rscale>  0 0.30000000E+03</rscale>
<asrwt>  1 0.40385120E+02</asrwt>
<pdfrwt beam="1">  1        1 0.88889421E+00 0.30000000E+03</pdfrwt>
<pdfrwt beam="2">0</pdfrwt>
<totfact> 0.14609967E-04</totfact>
</mgrwt>
<clustering>
<clus scale="   40.385">  1  6  2 -1</clus>
<clus scale="  476.433">  4  5 -1 -1</clus>
<clus scale="  300.000">  1  4  2 -1</clus>
</clustering>
</event>
<event>
 6    1  0.9131597E-012  0.3000000E+03  0.7818608E-02  0.1093470E+00
          1   -1    0    0  502    0  0.00000000000E+00  0.00000000000E+00  0.22313149713E+03  0.22313149713E+03  0.00000000000E+00 0.  1.
         13   -1    0    0    0    0 -0.00000000000E+00 -0.00000000000E+00 -0.27500000000E+03  0.27500000000E+03  0.00000000000E+00 0.  1.
    9000005    2    1    2  501    0 -0.14213995901E+02  0.27909969668E+02 -0.49983946424E+02  0.46675386753E+03  0.46301163470E+03 0.  0.
         13    1    3    3    0    0 -0.14233010157E+03  0.12791310668E+03 -0.17685630191E+03  0.26057200962E+03  0.00000000000E+00 0.  1.
          1    1    3    3  501    0  0.12811610567E+03 -0.10000313701E+03  0.12687235548E+03  0.20618185791E+03  0.00000000000E+00 0.  1.
         21    1    1    2  502  501  0.14213995901E+02 -0.27909969668E+02 -0.18845564478E+01  0.31377629600E+02  0.00000000000E+00 0. -1.
<scales pt_clust_4="550.00000" pt_clust_5="550.00000" pt_clust_6="31.32098"></scales>
<mgrwt>
<rscale>  0 0.30000000E+03</rscale>
<asrwt>  1 0.31320985E+02</asrwt>
<pdfrwt beam="1">  1        1 0.81138726E+00 0.30000000E+03</pdfrwt>
<pdfrwt beam="2">0</pdfrwt>
<totfact> 0.86864192E-04</totfact>
</mgrwt>
<clustering>
<clus scale="   31.321">  1  6  2 -1</clus>
<clus scale="  463.012">  4  5 -1 -1</clus>
<clus scale="  300.000">  1  4  2 -1</clus>
</clustering>
</event>
<event>
 6    1  0.9131597E-012  0.3000000E+03  0.7818608E-02  0.1093470E+00
          1   -1    0    0  502    0  0.00000000000E+00  0.00000000000E+00  0.22462652748E+03  0.22462652748E+03  0.00000000000E+00 0.  1.
         13   -1    0    0    0    0 -0.00000000000E+00 -0.00000000000E+00 -0.27500000000E+03  0.27500000000E+03  0.00000000000E+00 0.  1.
    9000005    2    1    2  501    0 -0.27985195809E+02  0.11221085581E+02 -0.69448686891E+02  0.46394813417E+03  0.45772881397E+03 0.  0.
         13    1    3    3    0    0  0.19655995662E+03 -0.50216833975E+02 -0.10502572356E+03  0.22844682000E+03  0.00000000000E+00 0.  1.
          3    1    3    3  501    0 -0.22454515243E+03  0.61437919556E+02  0.35577036666E+02  0.23550131417E+03  0.00000000000E+00 0.  1.
         21    1    1    2  502  501  0.27985195809E+02 -0.11221085581E+02  0.19075214376E+02  0.35678393316E+02  0.00000000000E+00 0.  1.
<scales pt_clust_4="550.00000" pt_clust_5="550.00000" pt_clust_6="30.15102"></scales>
<mgrwt>
<rscale>  0 0.30000000E+03</rscale>
<asrwt>  1 0.30151019E+02</asrwt>
<pdfrwt beam="1">  1        1 0.81682374E+00 0.30000000E+03</pdfrwt>
<pdfrwt beam="2">0</pdfrwt>
<totfact> 0.79133509E-04</totfact>
</mgrwt>
<clustering>
<clus scale="   30.151">  1  6  2 -1</clus>
<clus scale="  457.729">  4  5 -1 -1</clus>
<clus scale="  300.000">  1  4  2 -1</clus>
</clustering>
</event>
<event>
 6    1  0.9131597E-012  0.3000000E+03  0.7818608E-02  0.1093470E+00
          1   -1    0    0  502    0  0.00000000000E+00  0.00000000000E+00  0.22583328543E+03  0.22583328543E+03  0.00000000000E+00 0.  1.
         13   -1    0    0    0    0 -0.00000000000E+00 -0.00000000000E+00 -0.27500000000E+03  0.27500000000E+03  0.00000000000E+00 0.  1.
    9000005    2    1    2  501    0  0.22766744164E+02  0.19593618952E+02 -0.40310884445E+02  0.46951778974E+03  0.46681875812E+03 0.  0.
         13    1    3    3    0    0  0.11314020998E+03  0.21616302699E+03  0.20339744305E+02  0.24482823887E+03  0.00000000000E+00 0.  1.
          1    1    3    3  501    0 -0.90373465815E+02 -0.19656940804E+03 -0.60650628750E+02  0.22468955086E+03  0.00000000000E+00 0.  1.
         21    1    1    2  502  501 -0.22766744164E+02 -0.19593618952E+02 -0.88558301219E+01  0.31315495694E+02  0.00000000000E+00 0.  1.
<scales pt_clust_4="550.00000" pt_clust_5="550.00000" pt_clust_6="30.03723"></scales>
<mgrwt>
<rscale>  0 0.30000000E+03</rscale>
<asrwt>  1 0.30037234E+02</asrwt>
<pdfrwt beam="1">  1        1 0.82121195E+00 0.30000000E+03</pdfrwt>
<pdfrwt beam="2">0</pdfrwt>
<totfact> 0.72666712E-04</totfact>
</mgrwt>
<clustering>
<clus scale="   30.037">  1  6  2 -1</clus>
<clus scale="  466.819">  4  5 -1 -1</clus>
<clus scale="  300.000">  1  4  2 -1</clus>
</clustering>
</event>
<event>
 6    1  0.9131597E-012  0.3000000E+03  0.7818608E-02  0.1093470E+00
          1   -1    0    0  502    0  0.00000000000E+00  0.00000000000E+00  0.23385431130E+03  0.23385431130E+03  0.00000000000E+00 0.  1.
         13   -1    0    0    0    0 -0.00000000000E+00 -0.00000000000E+00 -0.27500000000E+03  0.27500000000E+03  0.00000000000E+00 0.  1.
    9000005    2    1    2  501    0 -0.36243068972E+02  0.11122295477E+02 -0.32462858856E+02  0.46996141941E+03  0.46730357695E+03 0.  0.
         13    1    3    3    0    0  0.13935217198E+03  0.17433374697E+03  0.21541040455E+02  0.22422154132E+03  0.00000000000E+00 0.  1.
          3    1    3    3  501    0 -0.17559524096E+03 -0.16321145149E+03 -0.54003899311E+02  0.24573987809E+03  0.00000000000E+00 0.  1.
         21    1    1    2  502  501  0.36243068972E+02 -0.11122295477E+02 -0.86828298434E+01  0.38892891886E+02  0.00000000000E+00 0. -1.
<scales pt_clust_4="550.00000" pt_clust_5="550.00000" pt_clust_6="37.91130"></scales>
<mgrwt>
<rscale>  0 0.30000000E+03</rscale>
<asrwt>  1 0.37911304E+02</asrwt>
<pdfrwt beam="1">  1        1 0.85037931E+00 0.30000000E+03</pdfrwt>
<pdfrwt beam="2">0</pdfrwt>
<totfact> 0.39771300E-04</totfact>
</mgrwt>
<clustering>
<clus scale="   37.911">  1  6  2 -1</clus>
<clus scale="  467.304">  4  5 -1 -1</clus>
<clus scale="  300.000">  1  4  2 -1</clus>
</clustering>
</event>
<event>
 6    1  0.9131597E-012  0.3000000E+03  0.7818608E-02  0.1093470E+00
          1   -1    0    0  502    0  0.00000000000E+00  0.00000000000E+00  0.22573223494E+03  0.22573223494E+03  0.00000000000E+00 0.  1.
         13   -1    0    0    0    0 -0.00000000000E+00 -0.00000000000E+00 -0.27500000000E+03  0.27500000000E+03  0.00000000000E+00 0.  1.
    9000005    2    1    2  501    0  0.96463351875E+01  0.30775919260E+02 -0.69518984007E+02  0.46264915657E+03  0.45625776043E+03 0.  0.
         13    1    3    3    0    0 -0.10962910772E+03  0.91588933821E+02 -0.21931827154E+03  0.26173952374E+03  0.00000000000E+00 0.  1.
          3    1    3    3  501    0  0.11927544290E+03 -0.60813014561E+02  0.14979928753E+03  0.20090963283E+03  0.00000000000E+00 0.  1.
         21    1    1    2  502  501 -0.96463351875E+01 -0.30775919260E+02  0.20251218944E+02  0.38083078362E+02  0.00000000000E+00 0.  1.
<scales pt_clust_4="550.00000" pt_clust_5="550.00000" pt_clust_6="32.25227"></scales>
<mgrwt>
<rscale>  0 0.30000000E+03</rscale>
<asrwt>  1 0.32252271E+02</asrwt>
<pdfrwt beam="1">  1        1 0.82084449E+00 0.30000000E+03</pdfrwt>
<pdfrwt beam="2">0</pdfrwt>
<totfact> 0.72218682E-04</totfact>
</mgrwt>
<clustering>
<clus scale="   32.252">  1  6  2 -1</clus>
<clus scale="  456.258">  4  5 -1 -1</clus>
<clus scale="  300.000">  1  4  2 -1</clus>
</clustering>
</event>
<event>
 6    1  0.9131597E-012  0.3000000E+03  0.7818608E-02  0.1093470E+00
          1   -1    0    0  502    0  0.00000000000E+00  0.00000000000E+00  0.23680168664E+03  0.23680168664E+03  0.00000000000E+00 0.  1.
         13   -1    0    0    0    0 -0.00000000000E+00 -0.00000000000E+00 -0.27500000000E+03  0.27500000000E+03  0.00000000000E+00 0.  1.
    9000005    2    1    2  501    0 -0.41529579341E+02 -0.60482214254E+01 -0.62604923532E+02  0.46325305573E+03  0.45708066056E+03 0.  0.
         13    1    3    3    0    0  0.40217674618E+02 -0.20785637845E+03  0.50847539111E+02  0.21773196285E+03  0.00000000000E+00 0.  1.
          3    1    3    3  501    0 -0.81747253959E+02  0.20180815702E+03 -0.11345246264E+03  0.24552109288E+03  0.00000000000E+00 0.  1.
         21    1    1    2  502  501  0.41529579341E+02  0.60482214254E+01  0.24406610169E+02  0.48548630903E+02  0.00000000000E+00 0.  1.
<scales pt_clust_4="550.00000" pt_clust_5="550.00000" pt_clust_6="41.96769"></scales>
<mgrwt>
<rscale>  0 0.30000000E+03</rscale>
<asrwt>  1 0.41967689E+02</asrwt>
<pdfrwt beam="1">  1        1 0.86109704E+00 0.30000000E+03</pdfrwt>
<pdfrwt beam="2">0</pdfrwt>
<totfact> 0.30448653E-04</totfact>
</mgrwt>
<clustering>
<clus scale="   41.968">  1  6  2 -1</clus>
<clus scale="  457.081">  4  5 -1 -1</clus>
<clus scale="  300.000">  1  4  2 -1</clus>
</clustering>
</event>
<event>
 6    1  0.9131597E-012  0.3000000E+03  0.7818608E-02  0.1093470E+00
          1   -1    0    0  502    0  0.00000000000E+00  0.00000000000E+00  0.22877844859E+03  0.22877844859E+03  0.00000000000E+00 0.  1.
         13   -1    0    0    0    0 -0.00000000000E+00 -0.00000000000E+00 -0.27500000000E+03  0.27500000000E+03  0.00000000000E+00 0.  1.
    9000005    2    1    2  501    0 -0.10060717695E+02  0.28855694369E+02 -0.62307077991E+02  0.46924421480E+03  0.46408414325E+03 0.  0.
         13    1    3    3    0    0  0.14553412803E+03  0.18942431406E+03 -0.72966539500E+01  0.23898743553E+03  0.00000000000E+00 0.  1.
          1    1    3    3  501    0 -0.15559484573E+03 -0.16056861970E+03 -0.55010424041E+02  0.23025677927E+03  0.00000000000E+00 0.  1.
         21    1    1    2  502  501  0.10060717695E+02 -0.28855694369E+02  0.16085526579E+02  0.34534233788E+02  0.00000000000E+00 0. -1.
<scales pt_clust_4="550.00000" pt_clust_5="550.00000" pt_clust_6="30.55927"></scales>
<mgrwt>
<rscale>  0 0.30000000E+03</rscale>
<asrwt>  1 0.30559273E+02</asrwt>
<pdfrwt beam="1">  1        1 0.83192163E+00 0.30000000E+03</pdfrwt>
<pdfrwt beam="2">0</pdfrwt>
<totfact> 0.58533472E-04</totfact>
</mgrwt>
<clustering>
<clus scale="   30.559">  1  6  2 -1</clus>
<clus scale="  464.084">  4  5 -1 -1</clus>
<clus scale="  300.000">  1  4  2 -1</clus>
</clustering>
</event>
<event>
 6    1  0.9131597E-012  0.3000000E+03  0.7818608E-02  0.1093470E+00
          1   -1    0    0  502    0  0.00000000000E+00  0.00000000000E+00  0.25096537700E+03  0.25096537700E+03  0.00000000000E+00 0.  1.
         13   -1    0    0    0    0 -0.00000000000E+00 -0.00000000000E+00 -0.27500000000E+03  0.27500000000E+03  0.00000000000E+00 0.  1.
    9000005    2    1    2  501    0  0.41079470406E+02 -0.15205717777E+02 -0.43790535977E+02  0.47791298018E+03  0.47388233650E+03 0.  0.
         13    1    3    3    0    0  0.15797910619E+03  0.32075875542E+02  0.16710982973E+03  0.23218948076E+03  0.00000000000E+00 0.  1.
          3    1    3    3  501    0 -0.11689963578E+03 -0.47281593318E+02 -0.21090036571E+03  0.24572349942E+03  0.00000000000E+00 0.  1.
         21    1    1    2  502  501 -0.41079470406E+02  0.15205717777E+02  0.19755912974E+02  0.48052396813E+02  0.00000000000E+00 0.  1.
<scales pt_clust_4="550.00000" pt_clust_5="550.00000" pt_clust_6="43.80339"></scales>
<mgrwt>
<rscale>  0 0.30000000E+03</rscale>
<asrwt>  1 0.43803387E+02</asrwt>
<pdfrwt beam="1">  1        1 0.91260137E+00 0.30000000E+03</pdfrwt>
<pdfrwt beam="2">0</pdfrwt>
<totfact> 0.59429849E-05</totfact>
</mgrwt>
<clustering>
<clus scale="   43.803">  1  6  2 -1</clus>
<clus scale="  473.882">  4  5 -1 -1</clus>
<clus scale="  300.000">  1  4  2 -1</clus>
</clustering>
</event>
<event>
 6    1  0.9131597E-012  0.3000000E+03  0.7818608E-02  0.1093470E+00
          1   -1    0    0  502    0  0.00000000000E+00  0.00000000000E+00  0.23380696130E+03  0.23380696130E+03  0.00000000000E+00 0.  1.
         13   -1    0    0    0    0 -0.00000000000E+00 -0.00000000000E+00 -0.27500000000E+03  0.27500000000E+03  0.00000000000E+00 0.  1.
    9000005    2    1    2  501    0 -0.17038458021E+02 -0.34875998619E+02 -0.48573864921E+02  0.46929593844E+03  0.46515869674E+03 0.  0.
         13    1    3    3    0    0  0.12716747474E+03 -0.20655672266E+03 -0.24459330710E+02  0.24379398099E+03  0.00000000000E+00 0.  1.
          1    1    3    3  501    0 -0.14420593276E+03  0.17168072405E+03 -0.24114534211E+02  0.22550195745E+03  0.00000000000E+00 0.  1.
         21    1    1    2  502  501  0.17038458021E+02  0.34875998619E+02  0.73808262200E+01  0.39511022856E+02  0.00000000000E+00 0.  1.
<scales pt_clust_4="550.00000" pt_clust_5="550.00000" pt_clust_6="38.81552"></scales>
<mgrwt>
<rscale>  0 0.30000000E+03</rscale>
<asrwt>  1 0.38815517E+02</asrwt>
<pdfrwt beam="1">  1        1 0.85020713E+00 0.30000000E+03</pdfrwt>
<pdfrwt beam="2">0</pdfrwt>
<totfact> 0.39747363E-04</totfact>
</mgrwt>
<clustering>
<clus scale="   38.816">  1  6  2 -1</clus>
<clus scale="  465.159">  4  5 -1 -1</clus>
<clus scale="  300.000">  1  4  2 -1</clus>
</clustering>
</event>
<event>
 6    1  0.9131597E-012  0.3000000E+03  0.7818608E-02  0.1093470E+00
          1   -1    0    0  502    0  0.00000000000E+00  0.00000000000E+00  0.23189326902E+03  0.23189326902E+03  0.00000000000E+00 0.  1.
         13   -1    0    0    0    0 -0.00000000000E+00 -0.00000000000E+00 -0.27500000000E+03  0.27500000000E+03  0.00000000000E+00 0.  1.
    9000005    2    1    2  501    0  0.29504060205E+02  0.15058983718E+02 -0.52791584759E+02  0.47238154707E+03  0.46825218850E+03 0.  0.
         13    1    3    3    0    0 -0.17882430527E+03 -0.13344514523E+02  0.10653236807E+03  0.20857937020E+03  0.00000000000E+00 0.  1.
          1    1    3    3  501    0  0.20832836548E+03  0.28403498241E+02 -0.15932395283E+03  0.26380217687E+03  0.00000000000E+00 0.  1.
         21    1    1    2  502  501 -0.29504060205E+02 -0.15058983718E+02  0.96848537795E+01  0.34511721950E+02  0.00000000000E+00 0. -1.
<scales pt_clust_4="550.00000" pt_clust_5="550.00000" pt_clust_6="33.12495"></scales>
<mgrwt>
<rscale>  0 0.30000000E+03</rscale>
<asrwt>  1 0.33124954E+02</asrwt>
<pdfrwt beam="1">  1        1 0.84324825E+00 0.30000000E+03</pdfrwt>
<pdfrwt beam="2">0</pdfrwt>
<totfact> 0.47264755E-04</totfact>
</mgrwt>
<clustering>
<clus scale="   33.125">  1  6  2 -1</clus>
<clus scale="  468.252">  4  5 -1 -1</clus>
<clus scale="  300.000">  1  4  2 -1</clus>
</clustering>
</event>
<event>
 6    1  0.9131597E-012  0.3000000E+03  0.7818608E-02  0.1093470E+00
          1   -1    0    0  502    0  0.00000000000E+00  0.00000000000E+00  0.24396044376E+03  0.24396044376E+03  0.00000000000E+00 0.  1.
         13   -1    0    0    0    0 -0.00000000000E+00 -0.00000000000E+00 -0.27500000000E+03  0.27500000000E+03  0.00000000000E+00 0.  1.
    9000005    2    1    2  501    0  0.95702249850E+01  0.36148867476E+02 -0.61130765146E+02  0.47096241589E+03  0.46547856761E+03 0.  0.
         13    1    3    3    0    0  0.36960098446E+02 -0.93431570196E+02  0.17409760897E+03  0.20101115550E+03  0.00000000000E+00 0.  1.
          1    1    3    3  501    0 -0.27389873461E+02  0.12958043767E+03 -0.23522837412E+03  0.26995126039E+03  0.00000000000E+00 0.  1.
         21    1    1    2  502  501 -0.95702249850E+01 -0.36148867476E+02  0.30091208901E+02  0.47998027868E+02  0.00000000000E+00 0.  1.
<scales pt_clust_4="550.00000" pt_clust_5="550.00000" pt_clust_6="37.39425"></scales>
<mgrwt>
<rscale>  0 0.30000000E+03</rscale>
<asrwt>  1 0.37394249E+02</asrwt>
<pdfrwt beam="1">  1        1 0.88712889E+00 0.30000000E+03</pdfrwt>
<pdfrwt beam="2">0</pdfrwt>
<totfact> 0.15668060E-04</totfact>
</mgrwt>
<clustering>
<clus scale="   37.394">  1  6  2 -1</clus>
<clus scale="  465.479">  4  5 -1 -1</clus>
<clus scale="  300.000">  1  4  2 -1</clus>
</clustering>
</event>
<event>
 6    1  0.9131597E-012  0.3000000E+03  0.7818608E-02  0.1093470E+00
          1   -1    0    0  502    0  0.00000000000E+00  0.00000000000E+00  0.24480183859E+03  0.24480183859E+03  0.00000000000E+00 0.  1.
         13   -1    0    0    0    0 -0.00000000000E+00 -0.00000000000E+00 -0.27500000000E+03  0.27500000000E+03  0.00000000000E+00 0.  1.
    9000005    2    1    2  501    0 -0.23803502348E+02 -0.22615724921E+02 -0.59173819292E+02  0.47601066953E+03  0.47117569853E+03 0.  0.
         13    1    3    3    0    0 -0.19556219591E+03  0.87048011510E+02 -0.14109550265E+03  0.25637837203E+03  0.00000000000E+00 0.  1.
          1    1    3    3  501    0  0.17175869356E+03 -0.10966373643E+03  0.81921683362E+02  0.21963229750E+03  0.00000000000E+00 0.  1.
         21    1    1    2  502  501  0.23803502348E+02  0.22615724921E+02  0.28975657886E+02  0.43791169060E+02  0.00000000000E+00 0.  1.
<scales pt_clust_4="550.00000" pt_clust_5="550.00000" pt_clust_6="32.83409"></scales>
<mgrwt>
<rscale>  0 0.30000000E+03</rscale>
<asrwt>  1 0.32834094E+02</asrwt>
<pdfrwt beam="1">  1        1 0.89018850E+00 0.30000000E+03</pdfrwt>
<pdfrwt beam="2">0</pdfrwt>
<totfact> 0.14586608E-04</totfact>
</mgrwt>
<clustering>
<clus scale="   32.834">  1  6  2 -1</clus>
<clus scale="  471.176">  4  5 -1 -1</clus>
<clus scale="  300.000">  1  4  2 -1</clus>
</clustering>
</event>
<event>
 6    1  0.9131597E-012  0.3000000E+03  0.7818608E-02  0.1093470E+00
          1   -1    0    0  502    0  0.00000000000E+00  0.00000000000E+00  0.23504462389E+03  0.23504462389E+03  0.00000000000E+00 0.  1.
         13   -1    0    0    0    0 -0.00000000000E+00 -0.00000000000E+00 -0.27500000000E+03  0.27500000000E+03  0.00000000000E+00 0.  1.
    9000005    2    1    2  501    0  0.24321055000E+02 -0.24462781675E+02 -0.66296791297E+02  0.46664172586E+03  0.46061838258E+03 0.  0.
         13    1    3    3    0    0  0.12403123071E+03 -0.19771963112E+03 -0.11602323788E+03  0.26064955487E+03  0.00000000000E+00 0.  1.
          3    1    3    3  501    0 -0.99710175711E+02  0.17325684945E+03  0.49726446585E+02  0.20599217099E+03  0.00000000000E+00 0.  1.
         21    1    1    2  502  501 -0.24321055000E+02  0.24462781675E+02  0.26341415191E+02  0.43402898036E+02  0.00000000000E+00 0. -1.
<scales pt_clust_4="550.00000" pt_clust_5="550.00000" pt_clust_6="34.49553"></scales>
<mgrwt>
<rscale>  0 0.30000000E+03</rscale>
<asrwt>  1 0.34495527E+02</asrwt>
<pdfrwt beam="1">  1        1 0.85470772E+00 0.30000000E+03</pdfrwt>
<pdfrwt beam="2">0</pdfrwt>
<totfact> 0.36776758E-04</totfact>
</mgrwt>
<clustering>
<clus scale="   34.496">  1  6  2 -1</clus>
<clus scale="  460.618">  4  5 -1 -1</clus>
<clus scale="  300.000">  1  4  2 -1</clus>
</clustering>
</event>
<event>
 6    1  0.9131597E-012  0.3000000E+03  0.7818608E-02  0.1093470E+00
          1   -1    0    0  502    0  0.00000000000E+00  0.00000000000E+00  0.23833772160E+03  0.23833772160E+03  0.00000000000E+00 0.  1.
         13   -1    0    0    0    0 -0.00000000000E+00 -0.00000000000E+00 -0.27500000000E+03  0.27500000000E+03  0.00000000000E+00 0.  1.
    9000005    2    1    2  501    0 -0.25987684408E+02  0.25325645484E+02 -0.69485460582E+02  0.46440808489E+03  0.45774435225E+03 0.  0.
         13    1    3    3    0    0 -0.80685730116E+02 -0.74388509316E+02  0.16824483131E+03  0.20087349408E+03  0.00000000000E+00 0.  1.
          1    1    3    3  501    0  0.54698045707E+02  0.99714154799E+02 -0.23773029189E+03  0.26353459081E+03  0.00000000000E+00 0.  1.
         21    1    1    2  502  501  0.25987684408E+02 -0.25325645484E+02  0.32823182184E+02  0.48929636712E+02  0.00000000000E+00 0.  1.
<scales pt_clust_4="550.00000" pt_clust_5="550.00000" pt_clust_6="36.28702"></scales>
<mgrwt>
<rscale>  0 0.30000000E+03</rscale>
<asrwt>  1 0.36287023E+02</asrwt>
<pdfrwt beam="1">  1        1 0.86668262E+00 0.30000000E+03</pdfrwt>
<pdfrwt beam="2">0</pdfrwt>
<totfact> 0.27228210E-04</totfact>
</mgrwt>
<clustering>
<clus scale="   36.287">  1  6  2 -1</clus>
<clus scale="  457.744">  4  5 -1 -1</clus>
<clus scale="  300.000">  1  4  2 -1</clus>
</clustering>
</event>
<event>
 6    1  0.9131597E-012  0.3000000E+03  0.7818608E-02  0.1093470E+00
          1   -1    0    0  502    0  0.00000000000E+00  0.00000000000E+00  0.22409533678E+03  0.22409533678E+03  0.00000000000E+00 0.  1.
         13   -1    0    0    0    0 -0.00000000000E+00 -0.00000000000E+00 -0.27500000000E+03  0.27500000000E+03  0.00000000000E+00 0.  1.
    9000005    2    1    2  501    0 -0.33468204057E+02 -0.66356409746E+01 -0.47316190178E+02  0.46478747248E+03  0.46111215589E+03 0.  0.
         13    1    3    3    0    0 -0.63967483109E+02 -0.21051269241E+03  0.65801106215E+02  0.22964585374E+03  0.00000000000E+00 0.  1.
          1    1    3    3  501    0  0.30499279052E+02  0.20387705143E+03 -0.11311729639E+03  0.23514161874E+03  0.00000000000E+00 0.  1.
         21    1    1    2  502  501  0.33468204057E+02  0.66356409746E+01 -0.35884730422E+01  0.34307864299E+02  0.00000000000E+00 0. -1.
<scales pt_clust_4="550.00000" pt_clust_5="550.00000" pt_clust_6="34.11969"></scales>
<mgrwt>
<rscale>  0 0.30000000E+03</rscale>
<asrwt>  1 0.34119695E+02</asrwt>
<pdfrwt beam="1">  1        1 0.81489213E+00 0.30000000E+03</pdfrwt>
<pdfrwt beam="2">0</pdfrwt>
<totfact> 0.80145972E-04</totfact>
</mgrwt>
<clustering>
<clus scale="   34.120">  1  6  2 -1</clus>
<clus scale="  461.112">  4  5 -1 -1</clus>
<clus scale="  300.000">  1  4  2 -1</clus>
</clustering>
</event>
<event>
 6    1  0.9131597E-012  0.3000000E+03  0.7818608E-02  0.1093470E+00
          1   -1    0    0  502    0  0.00000000000E+00  0.00000000000E+00  0.23888978959E+03  0.23888978959E+03  0.00000000000E+00 0.  1.
         13   -1    0    0    0    0 -0.00000000000E+00 -0.00000000000E+00 -0.27500000000E+03  0.27500000000E+03  0.00000000000E+00 0.  1.
    9000005    2    1    2  501    0 -0.29676571856E+02 -0.19818366111E+02 -0.60597778592E+02  0.47061037707E+03  0.46532630453E+03 0.  0.
         13    1    3    3    0    0 -0.75365940647E+02  0.18974614826E+03  0.74258518231E+02  0.21725089946E+03  0.00000000000E+00 0.  1.
          3    1    3    3  501    0  0.45689368791E+02 -0.20956451437E+03 -0.13485629682E+03  0.25335947761E+03  0.00000000000E+00 0.  1.
         21    1    1    2  502  501  0.29676571856E+02  0.19818366111E+02  0.24487568186E+02  0.43279412520E+02  0.00000000000E+00 0. -1.
<scales pt_clust_4="550.00000" pt_clust_5="550.00000" pt_clust_6="35.68566"></scales>
<mgrwt>
<rscale>  0 0.30000000E+03</rscale>
<asrwt>  1 0.35685663E+02</asrwt>
<pdfrwt beam="1">  1        1 0.86869014E+00 0.30000000E+03</pdfrwt>
<pdfrwt beam="2">0</pdfrwt>
<totfact> 0.26027155E-04</totfact>
</mgrwt>
<clustering>
<clus scale="   35.686">  1  6  2 -1</clus>
<clus scale="  465.326">  4  5 -1 -1</clus>
<clus scale="  300.000">  1  4  2 -1</clus>
</clustering>
</event>
<event>
 6    1  0.9131597E-012  0.3000000E+03  0.7818608E-02  0.1093470E+00
          1   -1    0    0  502    0  0.00000000000E+00  0.00000000000E+00  0.22206448702E+03  0.22206448702E+03  0.00000000000E+00 0.  1.
         13   -1    0    0    0    0 -0.00000000000E+00 -0.00000000000E+00 -0.27500000000E+03  0.27500000000E+03  0.00000000000E+00 0.  1.
    9000005    2    1    2  501    0 -0.31711411330E+02  0.61777838840E+01 -0.62659313715E+02  0.46332532694E+03  0.45793055190E+03 0.  0.
         13    1    3    3    0    0  0.15934333909E+03 -0.12712626132E+03 -0.10056442028E+03  0.22729845722E+03  0.00000000000E+00 0.  1.
          3    1    3    3  501    0 -0.19105475042E+03  0.13330404520E+03  0.37905106568E+02  0.23602686972E+03  0.00000000000E+00 0.  1.
         21    1    1    2  502  501  0.31711411330E+02 -0.61777838840E+01  0.97238007333E+01  0.33739160081E+02  0.00000000000E+00 0.  1.
<scales pt_clust_4="550.00000" pt_clust_5="550.00000" pt_clust_6="32.30756"></scales>
<mgrwt>
<rscale>  0 0.30000000E+03</rscale>
<asrwt>  1 0.32307563E+02</asrwt>
<pdfrwt beam="1">  1        1 0.80750723E+00 0.30000000E+03</pdfrwt>
<pdfrwt beam="2">0</pdfrwt>
<totfact> 0.92564295E-04</totfact>
</mgrwt>
<clustering>
<clus scale="   32.308">  1  6  2 -1</clus>
<clus scale="  457.931">  4  5 -1 -1</clus>
<clus scale="  300.000">  1  4  2 -1</clus>
</clustering>
</event>
<event>
 6    1  0.9131597E-012  0.3000000E+03  0.7818608E-02  0.1093470E+00
          1   -1    0    0  502    0  0.00000000000E+00  0.00000000000E+00  0.25108183590E+03  0.25108183590E+03  0.00000000000E+00 0.  1.
         13   -1    0    0    0    0 -0.00000000000E+00 -0.00000000000E+00 -0.27500000000E+03  0.27500000000E+03  0.00000000000E+00 0.  1.
    9000005    2    1    2  501    0  0.19142746733E+00  0.43080151494E+02 -0.46450475466E+02  0.47746454317E+03  0.47324286282E+03 0.  0.
         13    1    3    3    0    0 -0.42188204759E+02  0.99016588898E+02  0.19679161427E+03  0.22430129055E+03  0.00000000000E+00 0.  1.
          3    1    3    3  501    0  0.42379632226E+02 -0.55936437404E+02 -0.24324208973E+03  0.25316325261E+03  0.00000000000E+00 0.  1.
         21    1    1    2  502  501 -0.19142746733E+00 -0.43080151494E+02  0.22532311362E+02  0.48617292732E+02  0.00000000000E+00 0. -1.
<scales pt_clust_4="550.00000" pt_clust_5="550.00000" pt_clust_6="43.08058"></scales>
<mgrwt>
<rscale>  0 0.30000000E+03</rscale>
<asrwt>  1 0.43080577E+02</asrwt>
<pdfrwt beam="1">  1        1 0.91302486E+00 0.30000000E+03</pdfrwt>
<pdfrwt beam="2">0</pdfrwt>
<totfact> 0.58175406E-05</totfact>
</mgrwt>
<clustering>
<clus scale="   43.081">  1  6  2 -1</clus>
<clus scale="  473.243">  4  5 -1 -1</clus>
<clus scale="  300.000">  1  4  2 -1</clus>
</clustering>
</event>
<event>
 6    1  0.9131597E-012  0.3000000E+03  0.7818608E-02  0.1093470E+00
          1   -1    0    0  502    0  0.00000000000E+00  0.00000000000E+00  0.23695058175E+03  0.23695058175E+03  0.00000000000E+00 0.  1.
         13   -1    0    0    0    0 -0.00000000000E+00 -0.00000000000E+00 -0.27500000000E+03  0.27500000000E+03  0.00000000000E+00 0.  1.
    9000005    2    1    2  501    0 -0.15588168054E+02 -0.27205440558E+02 -0.52906012619E+02  0.47725410678E+03  0.47327508838E+03 0.  0.
         13    1    3    3    0    0 -0.68469462178E+02 -0.24281431463E+03 -0.25456227503E+02  0.25356434718E+03  0.00000000000E+00 0.  1.
          1    1    3    3  501    0  0.52881294124E+02  0.21560887407E+03 -0.27449785116E+02  0.22368975960E+03  0.00000000000E+00 0.  1.
         21    1    1    2  502  501  0.15588168054E+02  0.27205440558E+02  0.14856594368E+02  0.34696474972E+02  0.00000000000E+00 0.  1.
<scales pt_clust_4="550.00000" pt_clust_5="550.00000" pt_clust_6="31.35486"></scales>
<mgrwt>
<rscale>  0 0.30000000E+03</rscale>
<asrwt>  1 0.31354856E+02</asrwt>
<pdfrwt beam="1">  1        1 0.86163848E+00 0.30000000E+03</pdfrwt>
<pdfrwt beam="2">0</pdfrwt>
<totfact> 0.31714903E-04</totfact>
</mgrwt>
<clustering>
<clus scale="   31.355">  1  6  2 -1</clus>
<clus scale="  473.275">  4  5 -1 -1</clus>
<clus scale="  300.000">  1  4  2 -1</clus>
</clustering>
</event>
<event>
 6    1  0.9131597E-012  0.3000000E+03  0.7818608E-02  0.1093470E+00
          1   -1    0    0  502    0  0.00000000000E+00  0.00000000000E+00  0.22602150064E+03  0.22602150064E+03  0.00000000000E+00 0.  1.
         13   -1    0    0    0    0 -0.00000000000E+00 -0.00000000000E+00 -0.27500000000E+03  0.27500000000E+03  0.00000000000E+00 0.  1.
    9000005    2    1    2  501    0 -0.26557168414E+02  0.13984765118E+02 -0.60458275473E+02  0.46888675139E+03  0.46400293717E+03 0.  0.
         13    1    3    3    0    0 -0.15715132376E+03 -0.17024611278E+03 -0.72428475214E+02  0.24274711430E+03  0.00000000000E+00 0.  1.
          3    1    3    3  501    0  0.13059415535E+03  0.18423087790E+03  0.11970199740E+02  0.22613963709E+03  0.00000000000E+00 0.  1.
         21    1    1    2  502  501  0.26557168414E+02 -0.13984765118E+02  0.11479776110E+02  0.32134749246E+02  0.00000000000E+00 0.  1.
<scales pt_clust_4="550.00000" pt_clust_5="550.00000" pt_clust_6="30.01428"></scales>
<mgrwt>
<rscale>  0 0.30000000E+03</rscale>
<asrwt>  1 0.30014277E+02</asrwt>
<pdfrwt beam="1">  1        1 0.82189637E+00 0.30000000E+03</pdfrwt>
<pdfrwt beam="2">0</pdfrwt>
<totfact> 0.71673923E-04</totfact>
</mgrwt>
<clustering>
<clus scale="   30.014">  1  6  2 -1</clus>
<clus scale="  464.003">  4  5 -1 -1</clus>
<clus scale="  300.000">  1  4  2 -1</clus>
</clustering>
</event>
<event>
 6    1  0.9131597E-012  0.3000000E+03  0.7818608E-02  0.1093470E+00
          1   -1    0    0  502    0  0.00000000000E+00  0.00000000000E+00  0.22996761439E+03  0.22996761439E+03  0.00000000000E+00 0.  1.
         13   -1    0    0    0    0 -0.00000000000E+00 -0.00000000000E+00 -0.27500000000E+03  0.27500000000E+03  0.00000000000E+00 0.  1.
    9000005    2    1    2  501    0  0.42256707349E+02 -0.55833635022E+01 -0.51681863610E+02  0.46182808702E+03  0.45694350162E+03 0.  0.
         13    1    3    3    0    0 -0.19843082868E+03  0.45744208330E+02 -0.69285934047E+02  0.21509966765E+03  0.00000000000E+00 0.  1.
          3    1    3    3  501    0  0.24068753603E+03 -0.51327571832E+02  0.17604070437E+02  0.24672841937E+03  0.00000000000E+00 0.  1.
         21    1    1    2  502  501 -0.42256707349E+02  0.55833635022E+01  0.66494779981E+01  0.43139527369E+02  0.00000000000E+00 0. -1.
<scales pt_clust_4="550.00000" pt_clust_5="550.00000" pt_clust_6="42.62398"></scales>
<mgrwt>
<rscale>  0 0.30000000E+03</rscale>
<asrwt>  1 0.42623975E+02</asrwt>
<pdfrwt beam="1">  1        1 0.83624587E+00 0.30000000E+03</pdfrwt>
<pdfrwt beam="2">0</pdfrwt>
<totfact> 0.51099070E-04</totfact>
</mgrwt>
<clustering>
<clus scale="   42.624">  1  6  2 -1</clus>
<clus scale="  456.944">  4  5 -1 -1</clus>
<clus scale="  300.000">  1  4  2 -1</clus>
</clustering>
</event>
<event>
 6    1  0.9131597E-012  0.3000000E+03  0.7818608E-02  0.1093470E+00
          1   -1    0    0  502    0  0.00000000000E+00  0.00000000000E+00  0.24295530526E+03  0.24295530526E+03  0.00000000000E+00 0.  1.
         13   -1    0    0    0    0 -0.00000000000E+00 -0.00000000000E+00 -0.27500000000E+03  0.27500000000E+03  0.00000000000E+00 0.  1.
    9000005    2    1    2  501    0  0.17353552982E+02 -0.29287809824E+02 -0.68767619221E+02  0.46788041347E+03  0.46154541949E+03 0.  0.
         13    1    3    3    0    0 -0.17495562957E+03 -0.15153131524E+03 -0.63245871782E+02  0.23994010110E+03  0.00000000000E+00 0.  1.
          3    1    3    3  501    0  0.19230918255E+03  0.12224350542E+03 -0.55217474388E+01  0.22794031237E+03  0.00000000000E+00 0.  1.
         21    1    1    2  502  501 -0.17353552982E+02  0.29287809824E+02  0.36722924484E+02  0.50074891792E+02  0.00000000000E+00 0.  1.
<scales pt_clust_4="550.00000" pt_clust_5="550.00000" pt_clust_6="34.04294"></scales>
<mgrwt>
<rscale>  0 0.30000000E+03</rscale>
<asrwt>  1 0.34042938E+02</asrwt>
<pdfrwt beam="1">  1        1 0.88347384E+00 0.30000000E+03</pdfrwt>
<pdfrwt beam="2">0</pdfrwt>
<totfact> 0.17892640E-04</totfact>
</mgrwt>
<clustering>
<clus scale="   34.043">  1  6  2 -1</clus>
<clus scale="  461.545">  4  5 -1 -1</clus>
<clus scale="  300.000">  1  4  2 -1</clus>
</clustering>
</event>
<event>
 6    1  0.9131597E-012  0.3000000E+03  0.7818608E-02  0.1093470E+00
          1   -1    0    0  502    0  0.00000000000E+00  0.00000000000E+00  0.22267172274E+03  0.22267172274E+03  0.00000000000E+00 0.  1.
         13   -1    0    0    0    0 -0.00000000000E+00 -0.00000000000E+00 -0.27500000000E+03  0.27500000000E+03  0.00000000000E+00 0.  1.
    9000005    2    1    2  501    0  0.32492270048E+02 -0.16179983781E+02 -0.50451722910E+02  0.46132532066E+03  0.45711938883E+03 0.  0.
         13    1    3    3    0    0 -0.13957299317E+03  0.11957816717E+03  0.86241149699E+02  0.20301993594E+03  0.00000000000E+00 0.  1.
          3    1    3    3  501    0  0.17206526321E+03 -0.13575815095E+03 -0.13669287261E+03  0.25830538472E+03  0.00000000000E+00 0.  1.
         21    1    1    2  502  501 -0.32492270048E+02  0.16179983781E+02 -0.18765543497E+01  0.36346402081E+02  0.00000000000E+00 0. -1.
<scales pt_clust_4="550.00000" pt_clust_5="550.00000" pt_clust_6="36.29793"></scales>
<mgrwt>
<rscale>  0 0.30000000E+03</rscale>
<asrwt>  1 0.36297927E+02</asrwt>
<pdfrwt beam="1">  1        1 0.80971536E+00 0.30000000E+03</pdfrwt>
<pdfrwt beam="2">0</pdfrwt>
<totfact> 0.87068095E-04</totfact>
</mgrwt>
<clustering>
<clus scale="   36.298">  1  6  2 -1</clus>
<clus scale="  457.119">  4  5 -1 -1</clus>
<clus scale="  300.000">  1  4  2 -1</clus>
</clustering>
</event>
<event>
 6    1  0.9131597E-012  0.3000000E+03  0.7818608E-02  0.1093470E+00
          1   -1    0    0  502    0  0.00000000000E+00  0.00000000000E+00  0.22595055553E+03  0.22595055553E+03  0.00000000000E+00 0.  1.
         13   -1    0    0    0    0 -0.00000000000E+00 -0.00000000000E+00 -0.27500000000E+03  0.27500000000E+03  0.00000000000E+00 0.  1.
    9000005    2    1    2  501    0 -0.25159083345E+02 -0.20866502126E+02 -0.59043800641E+02  0.46677048033E+03  0.46186591184E+03 0.  0.
         13    1    3    3    0    0 -0.11209164575E+03 -0.13638119324E+03 -0.19867770713E+03  0.26577659458E+03  0.00000000000E+00 0.  1.
          3    1    3    3  501    0  0.86932562401E+02  0.11551469111E+03  0.13963390649E+03  0.20099388575E+03  0.00000000000E+00 0.  1.
         21    1    1    2  502  501  0.25159083345E+02  0.20866502126E+02  0.99943561719E+01  0.34180075205E+02  0.00000000000E+00 0. -1.
<scales pt_clust_4="550.00000" pt_clust_5="550.00000" pt_clust_6="32.68624"></scales>
<mgrwt>
<rscale>  0 0.30000000E+03</rscale>
<asrwt>  1 0.32686242E+02</asrwt>
<pdfrwt beam="1">  1        1 0.82163838E+00 0.30000000E+03</pdfrwt>
<pdfrwt beam="2">0</pdfrwt>
<totfact> 0.70887008E-04</totfact>
</mgrwt>
<clustering>
<clus scale="   32.686">  1  6  2 -1</clus>
<clus scale="  461.866">  4  5 -1 -1</clus>
<clus scale="  300.000">  1  4  2 -1</clus>
</clustering>
</event>
<event>
 6    1  0.9131597E-012  0.3000000E+03  0.7818608E-02  0.1093470E+00
          1   -1    0    0  502    0  0.00000000000E+00  0.00000000000E+00  0.21916736375E+03  0.21916736375E+03  0.00000000000E+00 0.  1.
         13   -1    0    0    0    0 -0.00000000000E+00 -0.00000000000E+00 -0.27500000000E+03  0.27500000000E+03  0.00000000000E+00 0.  1.
    9000005    2    1    2  501    0 -0.23960157931E+02  0.18296551314E+02 -0.44564145688E+02  0.46198302225E+03  0.45883929301E+03 0.  0.
         13    1    3    3    0    0  0.19518992869E+03 -0.87583920423E+02 -0.44876493034E+02  0.21859540481E+03  0.00000000000E+00 0.  1.
          3    1    3    3  501    0 -0.21915008662E+03  0.10588047174E+03  0.31234734602E+00  0.24338761744E+03  0.00000000000E+00 0.  1.
         21    1    1    2  502  501  0.23960157931E+02 -0.18296551314E+02 -0.11268490564E+02  0.32184341498E+02  0.00000000000E+00 0.  1.
<scales pt_clust_4="550.00000" pt_clust_5="550.00000" pt_clust_6="30.14720"></scales>
<mgrwt>
<rscale>  0 0.30000000E+03</rscale>
<asrwt>  1 0.30147203E+02</asrwt>
<pdfrwt beam="1">  1        1 0.79697223E+00 0.30000000E+03</pdfrwt>
<pdfrwt beam="2">0</pdfrwt>
<totfact> 0.11221873E-03</totfact>
</mgrwt>
<clustering>
<clus scale="   30.147">  1  6  2 -1</clus>
<clus scale="  458.839">  4  5 -1 -1</clus>
<clus scale="  300.000">  1  4  2 -1</clus>
</clustering>
</event>
<event>
 6    1  0.9131597E-012  0.3000000E+03  0.7818608E-02  0.1093470E+00
          1   -1    0    0  502    0  0.00000000000E+00  0.00000000000E+00  0.23459782568E+03  0.23459782568E+03  0.00000000000E+00 0.  1.
         13   -1    0    0    0    0 -0.00000000000E+00 -0.00000000000E+00 -0.27500000000E+03  0.27500000000E+03  0.00000000000E+00 0.  1.
    9000005    2    1    2  501    0  0.28544772474E+02 -0.17491492342E+02 -0.14155228716E+02  0.46705774466E+03  0.46564128898E+03 0.  0.
         13    1    3    3    0    0 -0.62888731535E+02 -0.13072338759E+03 -0.18984012694E+03  0.23892021767E+03  0.00000000000E+00 0.  1.
          1    1    3    3  501    0  0.91433504009E+02  0.11323189525E+03  0.17568489822E+03  0.22813752699E+03  0.00000000000E+00 0.  1.
         21    1    1    2  502  501 -0.28544772474E+02  0.17491492342E+02 -0.26246945605E+02  0.42540081024E+02  0.00000000000E+00 0.  1.
<scales pt_clust_4="550.00000" pt_clust_5="550.00000" pt_clust_6="33.47772"></scales>
<mgrwt>
<rscale>  0 0.30000000E+03</rscale>
<asrwt>  1 0.33477716E+02</asrwt>
<pdfrwt beam="1">  1        1 0.85308300E+00 0.30000000E+03</pdfrwt>
<pdfrwt beam="2">0</pdfrwt>
<totfact> 0.38355447E-04</totfact>
</mgrwt>
<clustering>
<clus scale="   33.478">  1  6  2 -1</clus>
<clus scale="  465.641">  4  5 -1 -1</clus>
<clus scale="  300.000">  1  4  2 -1</clus>
</clustering>
</event>
<event>
 6    1  0.9131597E-012  0.3000000E+03  0.7818608E-02  0.1093470E+00
          1   -1    0    0  502    0  0.00000000000E+00  0.00000000000E+00  0.25242208204E+03  0.25242208204E+03  0.00000000000E+00 0.  1.
         13   -1    0    0    0    0 -0.00000000000E+00 -0.00000000000E+00 -0.27500000000E+03  0.27500000000E+03  0.00000000000E+00 0.  1.
    9000005    2    1    2  501    0 -0.32024191038E+02 -0.21279592310E+02 -0.52764819848E+02  0.47853835360E+03  0.47406377186E+03 0.  0.
         13    1    3    3    0    0 -0.71666051370E+02  0.98295983029E+02 -0.23053258993E+03  0.26065954465E+03  0.00000000000E+00 0.  1.
          1    1    3    3  501    0  0.39641860333E+02 -0.11957557534E+03  0.17776777008E+03  0.21787880895E+03  0.00000000000E+00 0.  1.
         21    1    1    2  502  501  0.32024191038E+02  0.21279592310E+02  0.30186901885E+02  0.48883728437E+02  0.00000000000E+00 0.  1.
<scales pt_clust_4="550.00000" pt_clust_5="550.00000" pt_clust_6="38.44958"></scales>
<mgrwt>
<rscale>  0 0.30000000E+03</rscale>
<asrwt>  1 0.38449576E+02</asrwt>
<pdfrwt beam="1">  1        1 0.91789848E+00 0.30000000E+03</pdfrwt>
<pdfrwt beam="2">0</pdfrwt>
<totfact> 0.45698758E-05</totfact>
</mgrwt>
<clustering>
<clus scale="   38.450">  1  6  2 -1</clus>
<clus scale="  474.064">  4  5 -1 -1</clus>
<clus scale="  300.000">  1  4  2 -1</clus>
</clustering>
</event>
<event>
 6    1  0.9131597E-012  0.3000000E+03  0.7818608E-02  0.1093470E+00
          1   -1    0    0  502    0  0.00000000000E+00  0.00000000000E+00  0.24568188931E+03  0.24568188931E+03  0.00000000000E+00 0.  1.
         13   -1    0    0    0    0 -0.00000000000E+00 -0.00000000000E+00 -0.27500000000E+03  0.27500000000E+03  0.00000000000E+00 0.  1.
    9000005    2    1    2  501    0 -0.24302909938E+02 -0.37667442623E+02 -0.31352031450E+02  0.47580868462E+03  0.47265366477E+03 0.  0.
         13    1    3    3    0    0 -0.18482059593E+03 -0.11378072723E+03  0.11501625974E+03  0.24562867620E+03  0.00000000000E+00 0.  1.
          1    1    3    3  501    0  0.16051768599E+03  0.76113284603E+02 -0.14636829119E+03  0.23018000842E+03  0.00000000000E+00 0.  1.
         21    1    1    2  502  501  0.24302909938E+02  0.37667442623E+02  0.20339207560E+01  0.44873204687E+02  0.00000000000E+00 0.  1.
<scales pt_clust_4="550.00000" pt_clust_5="550.00000" pt_clust_6="44.82709"></scales>
<mgrwt>
<rscale>  0 0.30000000E+03</rscale>
<asrwt>  1 0.44827086E+02</asrwt>
<pdfrwt beam="1">  1        1 0.89338869E+00 0.30000000E+03</pdfrwt>
<pdfrwt beam="2">0</pdfrwt>
<totfact> 0.12572047E-04</totfact>
</mgrwt>
<clustering>
<clus scale="   44.827">  1  6  2 -1</clus>
<clus scale="  472.654">  4  5 -1 -1</clus>
<clus scale="  300.000">  1  4  2 -1</clus>
</clustering>
</event>
<event>
 6    1  0.9131597E-012  0.3000000E+03  0.7818608E-02  0.1093470E+00
          1   -1    0    0  502    0  0.00000000000E+00  0.00000000000E+00  0.23489733792E+03  0.23489733792E+03  0.00000000000E+00 0.  1.
         13   -1    0    0    0    0 -0.00000000000E+00 -0.00000000000E+00 -0.27500000000E+03  0.27500000000E+03  0.00000000000E+00 0.  1.
    9000005    2    1    2  501    0  0.45146291330E+02  0.74353571921E+01 -0.42347357271E+02  0.46408783220E+03  0.45988122942E+03 0.  0.
         13    1    3    3    0    0  0.12948639911E+03 -0.19219991517E+03 -0.77858271149E+02  0.24447790357E+03  0.00000000000E+00 0.  1.
          1    1    3    3  501    0 -0.84340107784E+02  0.19963527236E+03  0.35510913879E+02  0.21960992864E+03  0.00000000000E+00 0.  1.
         21    1    1    2  502  501 -0.45146291330E+02 -0.74353571921E+01  0.22446951886E+01  0.45809505716E+02  0.00000000000E+00 0.  1.
<scales pt_clust_4="550.00000" pt_clust_5="550.00000" pt_clust_6="45.75448"></scales>
<mgrwt>
<rscale>  0 0.30000000E+03</rscale>
<asrwt>  1 0.45754477E+02</asrwt>
<pdfrwt beam="1">  1        1 0.85417214E+00 0.30000000E+03</pdfrwt>
<pdfrwt beam="2">0</pdfrwt>
<totfact> 0.35351131E-04</totfact>
</mgrwt>
<clustering>
<clus scale="   45.754">  1  6  2 -1</clus>
<clus scale="  459.881">  4  5 -1 -1</clus>
<clus scale="  300.000">  1  4  2 -1</clus>
</clustering>
</event>
<event>
 6    1  0.9131597E-012  0.3000000E+03  0.7818608E-02  0.1093470E+00
          1   -1    0    0  502    0  0.00000000000E+00  0.00000000000E+00  0.23360631253E+03  0.23360631253E+03  0.00000000000E+00 0.  1.
         13   -1    0    0    0    0 -0.00000000000E+00 -0.00000000000E+00 -0.27500000000E+03  0.27500000000E+03  0.00000000000E+00 0.  1.
    9000005    2    1    2  501    0  0.34102492008E+02 -0.26551867268E+02 -0.55520134989E+02  0.46313612300E+03  0.45776041923E+03 0.  0.
         13    1    3    3    0    0  0.60994390621E+02  0.21138230305E+03 -0.17680258340E+02  0.22071562080E+03  0.00000000000E+00 0.  1.
          3    1    3    3  501    0 -0.26891898613E+02 -0.23793417032E+03 -0.37839876649E+02  0.24242050219E+03  0.00000000000E+00 0.  1.
         21    1    1    2  502  501 -0.34102492008E+02  0.26551867268E+02  0.14126447515E+02  0.45470189531E+02  0.00000000000E+00 0. -1.
<scales pt_clust_4="550.00000" pt_clust_5="550.00000" pt_clust_6="43.22015"></scales>
<mgrwt>
<rscale>  0 0.30000000E+03</rscale>
<asrwt>  1 0.43220153E+02</asrwt>
<pdfrwt beam="1">  1        1 0.84947750E+00 0.30000000E+03</pdfrwt>
<pdfrwt beam="2">0</pdfrwt>
<totfact> 0.39596946E-04</totfact>
</mgrwt>
<clustering>
<clus scale="   43.220">  1  6  2 -1</clus>
<clus scale="  457.760">  4  5 -1 -1</clus>
<clus scale="  300.000">  1  4  2 -1</clus>
</clustering>
</event>
<event>
 6    1  0.9131597E-012  0.3000000E+03  0.7818608E-02  0.1093470E+00
          1   -1    0    0  502    0  0.00000000000E+00  0.00000000000E+00  0.22949015537E+03  0.22949015537E+03  0.00000000000E+00 0.  1.
         13   -1    0    0    0    0 -0.00000000000E+00 -0.00000000000E+00 -0.27500000000E+03  0.27500000000E+03  0.00000000000E+00 0.  1.
    9000005    2    1    2  501    0 -0.39372830786E+02  0.11702467006E+01 -0.52251670127E+02  0.46452715383E+03  0.45989526017E+03 0.  0.
         13    1    3    3    0    0 -0.22467309141E+03 -0.33591845335E+02  0.72498124260E+02  0.23845835715E+03  0.00000000000E+00 0.  1.
          1    1    3    3  501    0  0.18530026062E+03  0.34762092035E+02 -0.12474979439E+03  0.22606879667E+03  0.00000000000E+00 0.  1.
         21    1    1    2  502  501  0.39372830786E+02 -0.11702467006E+01  0.67418254971E+01  0.39963001544E+02  0.00000000000E+00 0.  1.
<scales pt_clust_4="550.00000" pt_clust_5="550.00000" pt_clust_6="39.39022"></scales>
<mgrwt>
<rscale>  0 0.30000000E+03</rscale>
<asrwt>  1 0.39390218E+02</asrwt>
<pdfrwt beam="1">  1        1 0.83450966E+00 0.30000000E+03</pdfrwt>
<pdfrwt beam="2">0</pdfrwt>
<totfact> 0.53368211E-04</totfact>
</mgrwt>
<clustering>
<clus scale="   39.390">  1  6  2 -1</clus>
<clus scale="  459.895">  4  5 -1 -1</clus>
<clus scale="  300.000">  1  4  2 -1</clus>
</clustering>
</event>
<event>
 6    1  0.9131597E-012  0.3000000E+03  0.7818608E-02  0.1093470E+00
          1   -1    0    0  502    0  0.00000000000E+00  0.00000000000E+00  0.23980512746E+03  0.23980512746E+03  0.00000000000E+00 0.  1.
         13   -1    0    0    0    0 -0.00000000000E+00 -0.00000000000E+00 -0.27500000000E+03  0.27500000000E+03  0.00000000000E+00 0.  1.
    9000005    2    1    2  501    0 -0.36550816908E+02  0.43668434596E+01 -0.52409154112E+02  0.47416816118E+03  0.46982304552E+03 0.  0.
         13    1    3    3    0    0  0.64627212870E+02 -0.99406973325E+02 -0.22163676472E+03  0.25135886390E+03  0.00000000000E+00 0.  1.
          3    1    3    3  501    0 -0.10117802978E+03  0.10377381678E+03  0.16922761061E+03  0.22280929727E+03  0.00000000000E+00 0.  1.
         21    1    1    2  502  501  0.36550816908E+02 -0.43668434596E+01  0.17214281567E+02  0.40636966278E+02  0.00000000000E+00 0. -1.
<scales pt_clust_4="550.00000" pt_clust_5="550.00000" pt_clust_6="36.81075"></scales>
<mgrwt>
<rscale>  0 0.30000000E+03</rscale>
<asrwt>  1 0.36810753E+02</asrwt>
<pdfrwt beam="1">  1        1 0.87201865E+00 0.30000000E+03</pdfrwt>
<pdfrwt beam="2">0</pdfrwt>
<totfact> 0.23925397E-04</totfact>
</mgrwt>
<clustering>
<clus scale="   36.811">  1  6  2 -1</clus>
<clus scale="  469.823">  4  5 -1 -1</clus>
<clus scale="  300.000">  1  4  2 -1</clus>
</clustering>
</event>
<event>
 6    1  0.9131597E-012  0.3000000E+03  0.7818608E-02  0.1093470E+00
          1   -1    0    0  502    0  0.00000000000E+00  0.00000000000E+00  0.23267991694E+03  0.23267991694E+03  0.00000000000E+00 0.  1.
         13   -1    0    0    0    0 -0.00000000000E+00 -0.00000000000E+00 -0.27500000000E+03  0.27500000000E+03  0.00000000000E+00 0.  1.
    9000005    2    1    2  501    0 -0.23391815450E+02 -0.24730541888E+02 -0.30690453117E+02  0.47170735761E+03  0.46947539933E+03 0.  0.
         13    1    3    3    0    0 -0.20993853394E+02 -0.34995829650E+02  0.21850787064E+03  0.22228616580E+03  0.00000000000E+00 0.  1.
          3    1    3    3  501    0 -0.23979620559E+01  0.10265287762E+02 -0.24919832376E+03  0.24942119180E+03  0.00000000000E+00 0.  1.
         21    1    1    2  502  501  0.23391815450E+02  0.24730541888E+02 -0.11629629946E+02  0.35972559331E+02  0.00000000000E+00 0. -1.
<scales pt_clust_4="550.00000" pt_clust_5="550.00000" pt_clust_6="34.04083"></scales>
<mgrwt>
<rscale>  0 0.30000000E+03</rscale>
<asrwt>  1 0.34040827E+02</asrwt>
<pdfrwt beam="1">  1        1 0.84610879E+00 0.30000000E+03</pdfrwt>
<pdfrwt beam="2">0</pdfrwt>
<totfact> 0.44407304E-04</totfact>
</mgrwt>
<clustering>
<clus scale="   34.041">  1  6  2 -1</clus>
<clus scale="  469.475">  4  5 -1 -1</clus>
<clus scale="  300.000">  1  4  2 -1</clus>
</clustering>
</event>
<event>
 6    1  0.9131597E-012  0.3000000E+03  0.7818608E-02  0.1093470E+00
          1   -1    0    0  502    0  0.00000000000E+00  0.00000000000E+00  0.24124939178E+03  0.24124939178E+03  0.00000000000E+00 0.  1.
         13   -1    0    0    0    0 -0.00000000000E+00 -0.00000000000E+00 -0.27500000000E+03  0.27500000000E+03  0.00000000000E+00 0.  1.
    9000005    2    1    2  501    0  0.96846456002E+01 -0.36442554537E+02 -0.20594087015E+02  0.47631261435E+03  0.47437088657E+03 0.  0.
         13    1    3    3    0    0 -0.41262937768E+02 -0.24700727651E+03 -0.56479469422E+02  0.25671999366E+03  0.00000000000E+00 0.  1.
          1    1    3    3  501    0  0.50947583368E+02  0.21056472197E+03  0.35885382407E+02  0.21959262068E+03  0.00000000000E+00 0.  1.
         21    1    1    2  502  501 -0.96846456002E+01  0.36442554537E+02 -0.13156521205E+02  0.39936777434E+02  0.00000000000E+00 0.  1.
<scales pt_clust_4="550.00000" pt_clust_5="550.00000" pt_clust_6="37.70747"></scales>
<mgrwt>
<rscale>  0 0.30000000E+03</rscale>
<asrwt>  1 0.37707474E+02</asrwt>
<pdfrwt beam="1">  1        1 0.87727052E+00 0.30000000E+03</pdfrwt>
<pdfrwt beam="2">0</pdfrwt>
<totfact> 0.20958788E-04</totfact>
</mgrwt>
<clustering>
<clus scale="   37.707">  1  6  2 -1</clus>
<clus scale="  474.371">  4  5 -1 -1</clus>
<clus scale="  300.000">  1  4  2 -1</clus>
</clustering>
</event>
<event>
 6    1  0.9131597E-012  0.3000000E+03  0.7818608E-02  0.1093470E+00
          1   -1    0    0  502    0  0.00000000000E+00  0.00000000000E+00  0.25615787742E+03  0.25615787742E+03  0.00000000000E+00 0.  1.
         13   -1    0    0    0    0 -0.00000000000E+00 -0.00000000000E+00 -0.27500000000E+03  0.27500000000E+03  0.00000000000E+00 0.  1.
    9000005    2    1    2  501    0  0.13272499625E+02 -0.35619642589E+02 -0.14859210079E+02  0.49293770243E+03  0.49124521796E+03 0.  0.
         13    1    3    3    0    0 -0.15989534760E+03 -0.12487793806E+03  0.13795054269E+03  0.24533930347E+03  0.00000000000E+00 0.  1.
          3    1    3    3  501    0  0.17316784723E+03  0.89258295476E+02 -0.15280975277E+03  0.24759839896E+03  0.00000000000E+00 0.  1.
         21    1    1    2  502  501 -0.13272499625E+02  0.35619642589E+02 -0.39829124987E+01  0.38220174992E+02  0.00000000000E+00 0. -1.
<scales pt_clust_4="550.00000" pt_clust_5="550.00000" pt_clust_6="38.01210"></scales>
<mgrwt>
<rscale>  0 0.30000000E+03</rscale>
<asrwt>  1 0.38012098E+02</asrwt>
<pdfrwt beam="1">  1        1 0.93148319E+00 0.30000000E+03</pdfrwt>
<pdfrwt beam="2">0</pdfrwt>
<totfact> 0.24602382E-05</totfact>
</mgrwt>
<clustering>
<clus scale="   38.012">  1  6  2 -1</clus>
<clus scale="  491.245">  4  5 -1 -1</clus>
<clus scale="  300.000">  1  4  2 -1</clus>
</clustering>
</event>
<event>
 6    1  0.9131597E-012  0.3000000E+03  0.7818608E-02  0.1093470E+00
          1   -1    0    0  502    0  0.00000000000E+00  0.00000000000E+00  0.22344459107E+03  0.22344459107E+03  0.00000000000E+00 0.  1.
         13   -1    0    0    0    0 -0.00000000000E+00 -0.00000000000E+00 -0.27500000000E+03  0.27500000000E+03  0.00000000000E+00 0.  1.
    9000005    2    1    2  501    0 -0.32417826549E+02  0.46735350581E+01 -0.54958319220E+02  0.46551531524E+03  0.46109796624E+03 0.  0.
         13    1    3    3    0    0 -0.21379090186E+03 -0.92766335962E+02 -0.10188110045E+03  0.25434602697E+03  0.00000000000E+00 0.  1.
          1    1    3    3  501    0  0.18137307531E+03  0.97439871020E+02  0.46922781230E+02  0.21116928827E+03  0.00000000000E+00 0.  1.
         21    1    1    2  502  501  0.32417826549E+02 -0.46735350581E+01  0.34029102907E+01  0.32929275828E+02  0.00000000000E+00 0.  1.
<scales pt_clust_4="550.00000" pt_clust_5="550.00000" pt_clust_6="32.75298"></scales>
<mgrwt>
<rscale>  0 0.30000000E+03</rscale>
<asrwt>  1 0.32752976E+02</asrwt>
<pdfrwt beam="1">  1        1 0.81252579E+00 0.30000000E+03</pdfrwt>
<pdfrwt beam="2">0</pdfrwt>
<totfact> 0.84364339E-04</totfact>
</mgrwt>
<clustering>
<clus scale="   32.753">  1  6  2 -1</clus>
<clus scale="  461.098">  4  5 -1 -1</clus>
<clus scale="  300.000">  1  4  2 -1</clus>
</clustering>
</event>
<event>
 6    1  0.9131597E-012  0.3000000E+03  0.7818608E-02  0.1093470E+00
          1   -1    0    0  502    0  0.00000000000E+00  0.00000000000E+00  0.24333223153E+03  0.24333223153E+03  0.00000000000E+00 0.  1.
         13   -1    0    0    0    0 -0.00000000000E+00 -0.00000000000E+00 -0.27500000000E+03  0.27500000000E+03  0.00000000000E+00 0.  1.
    9000005    2    1    2  501    0  0.36220350457E+02 -0.13143967371E+02 -0.35044864806E+02  0.47965300655E+03  0.47681672210E+03 0.  0.
         13    1    3    3    0    0  0.12310148865E+03  0.18459095278E+03  0.78867653233E+02  0.23547378428E+03  0.00000000000E+00 0.  1.
          1    1    3    3  501    0 -0.86881138195E+02 -0.19773492015E+03 -0.11391251804E+03  0.24417922227E+03  0.00000000000E+00 0.  1.
         21    1    1    2  502  501 -0.36220350457E+02  0.13143967371E+02  0.33770963375E+01  0.38679224982E+02  0.00000000000E+00 0. -1.
<scales pt_clust_4="550.00000" pt_clust_5="550.00000" pt_clust_6="38.53152"></scales>
<mgrwt>
<rscale>  0 0.30000000E+03</rscale>
<asrwt>  1 0.38531515E+02</asrwt>
<pdfrwt beam="1">  1        1 0.88484448E+00 0.30000000E+03</pdfrwt>
<pdfrwt beam="2">0</pdfrwt>
<totfact> 0.16752920E-04</totfact>
</mgrwt>
<clustering>
<clus scale="   38.532">  1  6  2 -1</clus>
<clus scale="  476.817">  4  5 -1 -1</clus>
<clus scale="  300.000">  1  4  2 -1</clus>
</clustering>
</event>
<event>
 6    1  0.9131597E-012  0.3000000E+03  0.7818608E-02  0.1093470E+00
          1   -1    0    0  502    0  0.00000000000E+00  0.00000000000E+00  0.24570208770E+03  0.24570208770E+03  0.00000000000E+00 0.  1.
         13   -1    0    0    0    0 -0.00000000000E+00 -0.00000000000E+00 -0.27500000000E+03  0.27500000000E+03  0.00000000000E+00 0.  1.
    9000005    2    1    2  501    0  0.15314434833E+01  0.39694348055E+02 -0.50751538530E+02  0.47555516460E+03  0.47116770829E+03 0.  0.
         13    1    3    3    0    0  0.18361327224E+03  0.14243864487E+03  0.58536922392E+02  0.23964384528E+03  0.00000000000E+00 0.  1.
          1    1    3    3  501    0 -0.18208182876E+03 -0.10274429682E+03 -0.10928846092E+03  0.23591131932E+03  0.00000000000E+00 0.  1.
         21    1    1    2  502  501 -0.15314434833E+01 -0.39694348055E+02  0.21453626228E+02  0.45146923095E+02  0.00000000000E+00 0.  1.
<scales pt_clust_4="550.00000" pt_clust_5="550.00000" pt_clust_6="39.72388"></scales>
<mgrwt>
<rscale>  0 0.30000000E+03</rscale>
<asrwt>  1 0.39723879E+02</asrwt>
<pdfrwt beam="1">  1        1 0.89346214E+00 0.30000000E+03</pdfrwt>
<pdfrwt beam="2">0</pdfrwt>
<totfact> 0.12824420E-04</totfact>
</mgrwt>
<clustering>
<clus scale="   39.724">  1  6  2 -1</clus>
<clus scale="  471.168">  4  5 -1 -1</clus>
<clus scale="  300.000">  1  4  2 -1</clus>
</clustering>
</event>
<event>
 6    1  0.9131597E-012  0.3000000E+03  0.7818608E-02  0.1093470E+00
          1   -1    0    0  502    0  0.00000000000E+00  0.00000000000E+00  0.23717304807E+03  0.23717304807E+03  0.00000000000E+00 0.  1.
         13   -1    0    0    0    0 -0.00000000000E+00 -0.00000000000E+00 -0.27500000000E+03  0.27500000000E+03  0.00000000000E+00 0.  1.
    9000005    2    1    2  501    0  0.23933121180E+02  0.20374576410E+02 -0.59942049678E+02  0.47374135280E+03  0.46888154408E+03 0.  0.
         13    1    3    3    0    0 -0.64225792415E+02 -0.10858677486E+03  0.16013330785E+03  0.20385955060E+03  0.00000000000E+00 0.  1.
          1    1    3    3  501    0  0.88158913595E+02  0.12896135127E+03 -0.22007535753E+03  0.26988180220E+03  0.00000000000E+00 0.  1.
         21    1    1    2  502  501 -0.23933121180E+02 -0.20374576410E+02  0.22115097752E+02  0.38431695277E+02  0.00000000000E+00 0.  1.
<scales pt_clust_4="550.00000" pt_clust_5="550.00000" pt_clust_6="31.43116"></scales>
<mgrwt>
<rscale>  0 0.30000000E+03</rscale>
<asrwt>  1 0.31431157E+02</asrwt>
<pdfrwt beam="1">  1        1 0.86244745E+00 0.30000000E+03</pdfrwt>
<pdfrwt beam="2">0</pdfrwt>
<totfact> 0.31068683E-04</totfact>
</mgrwt>
<clustering>
<clus scale="   31.431">  1  6  2 -1</clus>
<clus scale="  468.882">  4  5 -1 -1</clus>
<clus scale="  300.000">  1  4  2 -1</clus>
</clustering>
</event>
<event>
 6    1  0.9131597E-012  0.3000000E+03  0.7818608E-02  0.1093470E+00
          1   -1    0    0  502    0  0.00000000000E+00  0.00000000000E+00  0.21814030344E+03  0.21814030344E+03  0.00000000000E+00 0.  1.
         13   -1    0    0    0    0 -0.00000000000E+00 -0.00000000000E+00 -0.27500000000E+03  0.27500000000E+03  0.00000000000E+00 0.  1.
    9000005    2    1    2  501    0  0.26613690938E+02  0.14555603764E+02 -0.60566786448E+02  0.46258058057E+03  0.45759403816E+03 0.  0.
         13    1    3    3    0    0  0.93479295262E+02 -0.18429004334E+03  0.66782110201E+02  0.21716594798E+03  0.00000000000E+00 0.  1.
          1    1    3    3  501    0 -0.66865604323E+02  0.19884564711E+03 -0.12734889665E+03  0.24541463260E+03  0.00000000000E+00 0.  1.
         21    1    1    2  502  501 -0.26613690938E+02 -0.14555603764E+02  0.37070898883E+01  0.30559722867E+02  0.00000000000E+00 0.  1.
<scales pt_clust_4="550.00000" pt_clust_5="550.00000" pt_clust_6="30.33404"></scales>
<mgrwt>
<rscale>  0 0.30000000E+03</rscale>
<asrwt>  1 0.30334043E+02</asrwt>
<pdfrwt beam="1">  1        1 0.79323747E+00 0.30000000E+03</pdfrwt>
<pdfrwt beam="2">0</pdfrwt>
<totfact> 0.11952712E-03</totfact>
</mgrwt>
<clustering>
<clus scale="   30.334">  1  6  2 -1</clus>
<clus scale="  457.594">  4  5 -1 -1</clus>
<clus scale="  300.000">  1  4  2 -1</clus>
</clustering>
</event>
<event>
 6    1  0.9131597E-012  0.3000000E+03  0.7818608E-02  0.1093470E+00
          1   -1    0    0  502    0  0.00000000000E+00  0.00000000000E+00  0.24187408879E+03  0.24187408879E+03  0.00000000000E+00 0.  1.
         13   -1    0    0    0    0 -0.00000000000E+00 -0.00000000000E+00 -0.27500000000E+03  0.27500000000E+03  0.00000000000E+00 0.  1.
    9000005    2    1    2  501    0 -0.30085256536E+02 -0.35411985919E+02 -0.51161929534E+02  0.46703003835E+03  0.46188784600E+03 0.  0.
         13    1    3    3    0    0  0.58220718282E+02 -0.10997178664E+03  0.17401442235E+03  0.21392630760E+03  0.00000000000E+00 0.  1.
          3    1    3    3  501    0 -0.88305974818E+02  0.74559800724E+02 -0.22517635189E+03  0.25310373075E+03  0.00000000000E+00 0.  1.
         21    1    1    2  502  501  0.30085256536E+02  0.35411985919E+02  0.18036018326E+02  0.49844050443E+02  0.00000000000E+00 0.  1.
<scales pt_clust_4="550.00000" pt_clust_5="550.00000" pt_clust_6="46.46645"></scales>
<mgrwt>
<rscale>  0 0.30000000E+03</rscale>
<asrwt>  1 0.46466455E+02</asrwt>
<pdfrwt beam="1">  1        1 0.87954214E+00 0.30000000E+03</pdfrwt>
<pdfrwt beam="2">0</pdfrwt>
<totfact> 0.18987404E-04</totfact>
</mgrwt>
<clustering>
<clus scale="   46.466">  1  6  2 -1</clus>
<clus scale="  461.888">  4  5 -1 -1</clus>
<clus scale="  300.000">  1  4  2 -1</clus>
</clustering>
</event>
<event>
 6    1  0.9131597E-012  0.3000000E+03  0.7818608E-02  0.1093470E+00
          1   -1    0    0  502    0  0.00000000000E+00  0.00000000000E+00  0.22148194091E+03  0.22148194091E+03  0.00000000000E+00 0.  1.
         13   -1    0    0    0    0 -0.00000000000E+00 -0.00000000000E+00 -0.27500000000E+03  0.27500000000E+03  0.00000000000E+00 0.  1.
    9000005    2    1    2  501    0  0.27687765573E+02 -0.14942180127E+02 -0.42290186923E+02  0.46307615963E+03  0.46006650454E+03 0.  0.
         13    1    3    3    0    0 -0.86183813955E+01  0.10572973469E+03 -0.22057177539E+03  0.24475490066E+03  0.00000000000E+00 0.  1.
          3    1    3    3  501    0  0.36306146969E+02 -0.12067191482E+03  0.17828158847E+03  0.21832125898E+03  0.00000000000E+00 0.  1.
         21    1    1    2  502  501 -0.27687765573E+02  0.14942180127E+02 -0.11227872167E+02  0.33405781278E+02  0.00000000000E+00 0.  1.
<scales pt_clust_4="550.00000" pt_clust_5="550.00000" pt_clust_6="31.46239"></scales>
<mgrwt>
<rscale>  0 0.30000000E+03</rscale>
<asrwt>  1 0.31462392E+02</asrwt>
<pdfrwt beam="1">  1        1 0.80538888E+00 0.30000000E+03</pdfrwt>
<pdfrwt beam="2">0</pdfrwt>
<totfact> 0.96573292E-04</totfact>
</mgrwt>
<clustering>
<clus scale="   31.462">  1  6  2 -1</clus>
<clus scale="  460.067">  4  5 -1 -1</clus>
<clus scale="  300.000">  1  4  2 -1</clus>
</clustering>
</event>
<event>
 6    1  0.9131597E-012  0.3000000E+03  0.7818608E-02  0.1093470E+00
          1   -1    0    0  502    0  0.00000000000E+00  0.00000000000E+00  0.23424979845E+03  0.23424979845E+03  0.00000000000E+00 0.  1.
         13   -1    0    0    0    0 -0.00000000000E+00 -0.00000000000E+00 -0.27500000000E+03  0.27500000000E+03  0.00000000000E+00 0.  1.
    9000005    2    1    2  501    0 -0.24626364748E+02  0.27163954216E+02 -0.63129171725E+02  0.46629451292E+03  0.46054418051E+03 0.  0.
         13    1    3    3    0    0 -0.12045780142E+03  0.21745278022E+03 -0.24862759426E+02  0.24982784143E+03  0.00000000000E+00 0.  1.
          1    1    3    3  501    0  0.95831436672E+02 -0.19028882600E+03 -0.38266412299E+02  0.21646667149E+03  0.00000000000E+00 0.  1.
         21    1    1    2  502  501  0.24626364748E+02 -0.27163954216E+02  0.22378970179E+02  0.42955285538E+02  0.00000000000E+00 0.  1.
<scales pt_clust_4="550.00000" pt_clust_5="550.00000" pt_clust_6="36.66522"></scales>
<mgrwt>
<rscale>  0 0.30000000E+03</rscale>
<asrwt>  1 0.36665219E+02</asrwt>
<pdfrwt beam="1">  1        1 0.85181745E+00 0.30000000E+03</pdfrwt>
<pdfrwt beam="2">0</pdfrwt>
<totfact> 0.38779501E-04</totfact>
</mgrwt>
<clustering>
<clus scale="   36.665">  1  6  2 -1</clus>
<clus scale="  460.544">  4  5 -1 -1</clus>
<clus scale="  300.000">  1  4  2 -1</clus>
</clustering>
</event>
<event>
 6    1  0.9131597E-012  0.3000000E+03  0.7818608E-02  0.1093470E+00
          1   -1    0    0  502    0  0.00000000000E+00  0.00000000000E+00  0.22413296349E+03  0.22413296349E+03  0.00000000000E+00 0.  1.
         13   -1    0    0    0    0 -0.00000000000E+00 -0.00000000000E+00 -0.27500000000E+03  0.27500000000E+03  0.00000000000E+00 0.  1.
    9000005    2    1    2  501    0 -0.26884032918E+02 -0.18487925803E+02 -0.52909326686E+02  0.46644159497E+03  0.46228109419E+03 0.  0.
         13    1    3    3    0    0  0.21457007252E+03  0.29843303215E+02 -0.36121024247E+02  0.21962619871E+03  0.00000000000E+00 0.  1.
          3    1    3    3  501    0 -0.24145410544E+03 -0.48331229018E+02 -0.16788302438E+02  0.24681539626E+03  0.00000000000E+00 0.  1.
         21    1    1    2  502  501  0.26884032918E+02  0.18487925803E+02  0.20422901734E+01  0.32691368518E+02  0.00000000000E+00 0. -1.
<scales pt_clust_4="550.00000" pt_clust_5="550.00000" pt_clust_6="32.62751"></scales>
<mgrwt>
<rscale>  0 0.30000000E+03</rscale>
<asrwt>  1 0.32627513E+02</asrwt>
<pdfrwt beam="1">  1        1 0.81502896E+00 0.30000000E+03</pdfrwt>
<pdfrwt beam="2">0</pdfrwt>
<totfact> 0.80619555E-04</totfact>
</mgrwt>
<clustering>
<clus scale="   32.628">  1  6  2 -1</clus>
<clus scale="  462.281">  4  5 -1 -1</clus>
<clus scale="  300.000">  1  4  2 -1</clus>
</clustering>
</event>
<event>
 6    1  0.9131597E-012  0.3000000E+03  0.7818608E-02  0.1093470E+00
          1   -1    0    0  502    0  0.00000000000E+00  0.00000000000E+00  0.25884999356E+03  0.25884999356E+03  0.00000000000E+00 0.  1.
         13   -1    0    0    0    0 -0.00000000000E+00 -0.00000000000E+00 -0.27500000000E+03  0.27500000000E+03  0.00000000000E+00 0.  1.
    9000005    2    1    2  501    0  0.16723281989E+02 -0.42853502220E+02 -0.61491270694E+02  0.46925958361E+03  0.46293335333E+03 0.  0.
         13    1    3    3    0    0  0.17530833700E+03  0.13196519488E+03  0.18096838483E+02  0.22017111810E+03  0.00000000000E+00 0.  1.
          3    1    3    3  501    0 -0.15858505501E+03 -0.17481869710E+03 -0.79588109177E+02  0.24908846551E+03  0.00000000000E+00 0.  1.
         21    1    1    2  502  501 -0.16723281989E+02  0.42853502220E+02  0.45341264259E+02  0.64590409950E+02  0.00000000000E+00 0. -1.
<scales pt_clust_4="550.00000" pt_clust_5="550.00000" pt_clust_6="46.00099"></scales>
<mgrwt>
<rscale>  0 0.30000000E+03</rscale>
<asrwt>  1 0.46000987E+02</asrwt>
<pdfrwt beam="1">  1        1 0.94127270E+00 0.30000000E+03</pdfrwt>
<pdfrwt beam="2">0</pdfrwt>
<totfact> 0.17329677E-05</totfact>
</mgrwt>
<clustering>
<clus scale="   46.001">  1  6  2 -1</clus>
<clus scale="  462.933">  4  5 -1 -1</clus>
<clus scale="  300.000">  1  4  2 -1</clus>
</clustering>
</event>
<event>
 6    1  0.9131597E-012  0.3000000E+03  0.7818608E-02  0.1093470E+00
          1   -1    0    0  502    0  0.00000000000E+00  0.00000000000E+00  0.24628806655E+03  0.24628806655E+03  0.00000000000E+00 0.  1.
         13   -1    0    0    0    0 -0.00000000000E+00 -0.00000000000E+00 -0.27500000000E+03  0.27500000000E+03  0.00000000000E+00 0.  1.
    9000005    2    1    2  501    0 -0.20246218539E+02 -0.36682021745E+02 -0.55095617334E+02  0.47177464554E+03  0.46666937873E+03 0.  0.
         13    1    3    3    0    0 -0.35531478923E+02  0.17996747200E+03  0.96150286562E+02  0.20711266156E+03  0.00000000000E+00 0.  1.
          3    1    3    3  501    0  0.15285260384E+02 -0.21664949374E+03 -0.15124590390E+03  0.26466198399E+03  0.00000000000E+00 0.  1.
         21    1    1    2  502  501  0.20246218539E+02  0.36682021745E+02  0.26383683886E+02  0.49513421008E+02  0.00000000000E+00 0. -1.
<scales pt_clust_4="550.00000" pt_clust_5="550.00000" pt_clust_6="41.89845"></scales>
<mgrwt>
<rscale>  0 0.30000000E+03</rscale>
<asrwt>  1 0.41898450E+02</asrwt>
<pdfrwt beam="1">  1        1 0.89559297E+00 0.30000000E+03</pdfrwt>
<pdfrwt beam="2">0</pdfrwt>
<totfact> 0.12013936E-04</totfact>
</mgrwt>
<clustering>
<clus scale="   41.898">  1  6  2 -1</clus>
<clus scale="  466.669">  4  5 -1 -1</clus>
<clus scale="  300.000">  1  4  2 -1</clus>
</clustering>
</event>
<event>
 6    1  0.9131597E-012  0.3000000E+03  0.7818608E-02  0.1093470E+00
          1   -1    0    0  502    0  0.00000000000E+00  0.00000000000E+00  0.22636721053E+03  0.22636721053E+03  0.00000000000E+00 0.  1.
         13   -1    0    0    0    0 -0.00000000000E+00 -0.00000000000E+00 -0.27500000000E+03  0.27500000000E+03  0.00000000000E+00 0.  1.
    9000005    2    1    2  501    0 -0.19302464779E+02  0.28807575265E+02 -0.52474468934E+02  0.46647852984E+03  0.46221876571E+03 0.  0.
         13    1    3    3    0    0 -0.60235830905E+02  0.19956601333E+03 -0.15803884807E+03  0.26159362856E+03  0.00000000000E+00 0.  1.
          3    1    3    3  501    0  0.40933366126E+02 -0.17075843806E+03  0.10556437914E+03  0.20488490129E+03  0.00000000000E+00 0.  1.
         21    1    1    2  502  501  0.19302464779E+02 -0.28807575265E+02  0.38416794670E+01  0.34888680690E+02  0.00000000000E+00 0.  1.
<scales pt_clust_4="550.00000" pt_clust_5="550.00000" pt_clust_6="34.67653"></scales>
<mgrwt>
<rscale>  0 0.30000000E+03</rscale>
<asrwt>  1 0.34676527E+02</asrwt>
<pdfrwt beam="1">  1        1 0.82315349E+00 0.30000000E+03</pdfrwt>
<pdfrwt beam="2">0</pdfrwt>
<totfact> 0.67963617E-04</totfact>
</mgrwt>
<clustering>
<clus scale="   34.677">  1  6  2 -1</clus>
<clus scale="  462.219">  4  5 -1 -1</clus>
<clus scale="  300.000">  1  4  2 -1</clus>
</clustering>
</event>
<event>
 6    1  0.9131597E-012  0.3000000E+03  0.7818608E-02  0.1093470E+00
          1   -1    0    0  502    0  0.00000000000E+00  0.00000000000E+00  0.26465425381E+03  0.26465425381E+03  0.00000000000E+00 0.  1.
         13   -1    0    0    0    0 -0.00000000000E+00 -0.00000000000E+00 -0.27500000000E+03  0.27500000000E+03  0.00000000000E+00 0.  1.
    9000005    2    1    2  501    0 -0.38945981137E+02 -0.13968503317E+02 -0.38643661167E+01  0.49777446370E+03  0.49603686845E+03 0.  0.
         13    1    3    3    0    0  0.70673038563E+02  0.18825637705E+03 -0.12603601984E+03  0.23731881547E+03  0.00000000000E+00 0.  1.
          1    1    3    3  501    0 -0.10961901970E+03 -0.20222488037E+03  0.12217165373E+03  0.26045564823E+03  0.00000000000E+00 0.  1.
         21    1    1    2  502  501  0.38945981137E+02  0.13968503317E+02 -0.64813800741E+01  0.41879790106E+02  0.00000000000E+00 0.  1.
<scales pt_clust_4="550.00000" pt_clust_5="550.00000" pt_clust_6="41.37524"></scales>
<mgrwt>
<rscale>  0 0.30000000E+03</rscale>
<asrwt>  1 0.41375237E+02</asrwt>
<pdfrwt beam="1">  1        1 0.96237910E+00 0.30000000E+03</pdfrwt>
<pdfrwt beam="2">0</pdfrwt>
<totfact> 0.65371042E-06</totfact>
</mgrwt>
<clustering>
<clus scale="   41.375">  1  6  2 -1</clus>
<clus scale="  496.037">  4  5 -1 -1</clus>
<clus scale="  300.000">  1  4  2 -1</clus>
</clustering>
</event>
<event>
 6    1  0.9131597E-012  0.3000000E+03  0.7818608E-02  0.1093470E+00
          1   -1    0    0  502    0  0.00000000000E+00  0.00000000000E+00  0.22451517075E+03  0.22451517075E+03  0.00000000000E+00 0.  1.
         13   -1    0    0    0    0 -0.00000000000E+00 -0.00000000000E+00 -0.27500000000E+03  0.27500000000E+03  0.00000000000E+00 0.  1.
    9000005    2    1    2  501    0  0.33273679584E+02 -0.83199733121E+01 -0.27809936154E+02  0.45839935279E+03  0.45626770035E+03 0.  0.
         13    1    3    3    0    0  0.21759721895E+03  0.10412414787E+03 -0.24408507749E+02  0.24245858020E+03  0.00000000000E+00 0.  1.
          3    1    3    3  501    0 -0.18432353936E+03 -0.11244412118E+03 -0.34014284045E+01  0.21594077259E+03  0.00000000000E+00 0.  1.
         21    1    1    2  502  501 -0.33273679584E+02  0.83199733121E+01 -0.22674893101E+02  0.41115817955E+02  0.00000000000E+00 0.  1.
<scales pt_clust_4="550.00000" pt_clust_5="550.00000" pt_clust_6="34.29812"></scales>
<mgrwt>
<rscale>  0 0.30000000E+03</rscale>
<asrwt>  1 0.34298118E+02</asrwt>
<pdfrwt beam="1">  1        1 0.81641880E+00 0.30000000E+03</pdfrwt>
<pdfrwt beam="2">0</pdfrwt>
<totfact> 0.77811710E-04</totfact>
</mgrwt>
<clustering>
<clus scale="   34.298">  1  6  2 -1</clus>
<clus scale="  456.268">  4  5 -1 -1</clus>
<clus scale="  300.000">  1  4  2 -1</clus>
</clustering>
</event>
<event>
 6    1  0.9131597E-012  0.3000000E+03  0.7818608E-02  0.1093470E+00
          1   -1    0    0  502    0  0.00000000000E+00  0.00000000000E+00  0.23686836177E+03  0.23686836177E+03  0.00000000000E+00 0.  1.
         13   -1    0    0    0    0 -0.00000000000E+00 -0.00000000000E+00 -0.27500000000E+03  0.27500000000E+03  0.00000000000E+00 0.  1.
    9000005    2    1    2  501    0  0.32345425147E+02 -0.24964904019E+02 -0.59995664245E+02  0.46552714260E+03  0.45983319563E+03 0.  0.
         13    1    3    3    0    0  0.97918240681E+01  0.94581596259E+02 -0.23436111420E+03  0.25291636961E+03  0.00000000000E+00 0.  1.
          1    1    3    3  501    0  0.22553601079E+02 -0.11954650028E+03  0.17436544996E+03  0.21261077298E+03  0.00000000000E+00 0.  1.
         21    1    1    2  502  501 -0.32345425147E+02  0.24964904019E+02  0.21864026013E+02  0.46341219169E+02  0.00000000000E+00 0.  1.
<scales pt_clust_4="550.00000" pt_clust_5="550.00000" pt_clust_6="40.85918"></scales>
<mgrwt>
<rscale>  0 0.30000000E+03</rscale>
<asrwt>  1 0.40859185E+02</asrwt>
<pdfrwt beam="1">  1        1 0.86133950E+00 0.30000000E+03</pdfrwt>
<pdfrwt beam="2">0</pdfrwt>
<totfact> 0.30413468E-04</totfact>
</mgrwt>
<clustering>
<clus scale="   40.859">  1  6  2 -1</clus>
<clus scale="  459.833">  4  5 -1 -1</clus>
<clus scale="  300.000">  1  4  2 -1</clus>
</clustering>
</event>
<event>
 6    1  0.9131597E-012  0.3000000E+03  0.7818608E-02  0.1093470E+00
          1   -1    0    0  502    0  0.00000000000E+00  0.00000000000E+00  0.23434884237E+03  0.23434884237E+03  0.00000000000E+00 0.  1.
         13   -1    0    0    0    0 -0.00000000000E+00 -0.00000000000E+00 -0.27500000000E+03  0.27500000000E+03  0.00000000000E+00 0.  1.
    9000005    2    1    2  501    0 -0.24769058038E+02 -0.25540240259E+02 -0.55149627065E+02  0.47092989230E+03  0.46633429210E+03 0.  0.
         13    1    3    3    0    0 -0.91816232447E+02 -0.68519573942E+02  0.18517690410E+03  0.21775132231E+03  0.00000000000E+00 0.  1.
          1    1    3    3  501    0  0.67047174410E+02  0.42979333684E+02 -0.24032653117E+03  0.25317856999E+03  0.00000000000E+00 0.  1.
         21    1    1    2  502  501  0.24769058038E+02  0.25540240259E+02  0.14498469433E+02  0.38418950070E+02  0.00000000000E+00 0.  1.
<scales pt_clust_4="550.00000" pt_clust_5="550.00000" pt_clust_6="35.57823"></scales>
<mgrwt>
<rscale>  0 0.30000000E+03</rscale>
<asrwt>  1 0.35578225E+02</asrwt>
<pdfrwt beam="1">  1        1 0.85217761E+00 0.30000000E+03</pdfrwt>
<pdfrwt beam="2">0</pdfrwt>
<totfact> 0.38688806E-04</totfact>
</mgrwt>
<clustering>
<clus scale="   35.578">  1  6  2 -1</clus>
<clus scale="  466.334">  4  5 -1 -1</clus>
<clus scale="  300.000">  1  4  2 -1</clus>
</clustering>
</event>
<event>
 6    1  0.9131597E-012  0.3000000E+03  0.7818608E-02  0.1093470E+00
          1   -1    0    0  502    0  0.00000000000E+00  0.00000000000E+00  0.22231880181E+03  0.22231880181E+03  0.00000000000E+00 0.  1.
         13   -1    0    0    0    0 -0.00000000000E+00 -0.00000000000E+00 -0.27500000000E+03  0.27500000000E+03  0.00000000000E+00 0.  1.
    9000005    2    1    2  501    0 -0.11491902265E+02 -0.32170172639E+02 -0.62061472575E+02  0.46189319846E+03  0.45642821624E+03 0.  0.
         13    1    3    3    0    0  0.10395199262E+03 -0.10383306128E+03  0.15004140070E+03  0.20999938883E+03  0.00000000000E+00 0.  1.
          3    1    3    3  501    0 -0.11544389489E+03  0.71662888640E+02 -0.21210287328E+03  0.25189380963E+03  0.00000000000E+00 0.  1.
         21    1    1    2  502  501  0.11491902265E+02  0.32170172639E+02  0.93802743832E+01  0.35425603351E+02  0.00000000000E+00 0. -1.
<scales pt_clust_4="550.00000" pt_clust_5="550.00000" pt_clust_6="34.16114"></scales>
<mgrwt>
<rscale>  0 0.30000000E+03</rscale>
<asrwt>  1 0.34161145E+02</asrwt>
<pdfrwt beam="1">  1        1 0.80843201E+00 0.30000000E+03</pdfrwt>
<pdfrwt beam="2">0</pdfrwt>
<totfact> 0.90102459E-04</totfact>
</mgrwt>
<clustering>
<clus scale="   34.161">  1  6  2 -1</clus>
<clus scale="  456.428">  4  5 -1 -1</clus>
<clus scale="  300.000">  1  4  2 -1</clus>
</clustering>
</event>
<event>
 6    1  0.9131597E-012  0.3000000E+03  0.7818608E-02  0.1093470E+00
          1   -1    0    0  502    0  0.00000000000E+00  0.00000000000E+00  0.22257489328E+03  0.22257489328E+03  0.00000000000E+00 0.  1.
         13   -1    0    0    0    0 -0.00000000000E+00 -0.00000000000E+00 -0.27500000000E+03  0.27500000000E+03  0.00000000000E+00 0.  1.
    9000005    2    1    2  501    0 -0.51807323913E+00 -0.32618215150E+02 -0.65739373976E+02  0.46234016507E+03  0.45647841853E+03 0.  0.
         13    1    3    3    0    0 -0.12154254028E+03 -0.19407627920E+03  0.43194418234E+02  0.23303207722E+03  0.00000000000E+00 0.  1.
          3    1    3    3  501    0  0.12102446704E+03  0.16145806405E+03 -0.10893379221E+03  0.22930808785E+03  0.00000000000E+00 0.  1.
         21    1    1    2  502  501  0.51807323913E+00  0.32618215150E+02  0.13314267257E+02  0.35234728210E+02  0.00000000000E+00 0. -1.
<scales pt_clust_4="550.00000" pt_clust_5="550.00000" pt_clust_6="32.62233"></scales>
<mgrwt>
<rscale>  0 0.30000000E+03</rscale>
<asrwt>  1 0.32622329E+02</asrwt>
<pdfrwt beam="1">  1        1 0.80936325E+00 0.30000000E+03</pdfrwt>
<pdfrwt beam="2">0</pdfrwt>
<totfact> 0.89391591E-04</totfact>
</mgrwt>
<clustering>
<clus scale="   32.622">  1  6  2 -1</clus>
<clus scale="  456.478">  4  5 -1 -1</clus>
<clus scale="  300.000">  1  4  2 -1</clus>
</clustering>
</event>
<event>
 6    1  0.9131597E-012  0.3000000E+03  0.7818608E-02  0.1093470E+00
          1   -1    0    0  502    0  0.00000000000E+00  0.00000000000E+00  0.22515799763E+03  0.22515799763E+03  0.00000000000E+00 0.  1.
         13   -1    0    0    0    0 -0.00000000000E+00 -0.00000000000E+00 -0.27500000000E+03  0.27500000000E+03  0.00000000000E+00 0.  1.
    9000005    2    1    2  501    0 -0.17239513733E+02  0.28041369753E+02 -0.31540639857E+02  0.46249556115E+03  0.46024321056E+03 0.  0.
         13    1    3    3    0    0  0.15792542934E+03  0.14348229846E+03 -0.10808139981E+03  0.23918444805E+03  0.00000000000E+00 0.  1.
          1    1    3    3  501    0 -0.17516494307E+03 -0.11544092871E+03  0.76540759952E+02  0.22331111310E+03  0.00000000000E+00 0.  1.
         21    1    1    2  502  501  0.17239513733E+02 -0.28041369753E+02 -0.18301362516E+02  0.37662436477E+02  0.00000000000E+00 0. -1.
<scales pt_clust_4="550.00000" pt_clust_5="550.00000" pt_clust_6="32.91687"></scales>
<mgrwt>
<rscale>  0 0.30000000E+03</rscale>
<asrwt>  1 0.32916870E+02</asrwt>
<pdfrwt beam="1">  1        1 0.81875636E+00 0.30000000E+03</pdfrwt>
<pdfrwt beam="2">0</pdfrwt>
<totfact> 0.74987292E-04</totfact>
</mgrwt>
<clustering>
<clus scale="   32.917">  1  6  2 -1</clus>
<clus scale="  460.243">  4  5 -1 -1</clus>
<clus scale="  300.000">  1  4  2 -1</clus>
</clustering>
</event>
<event>
 6    1  0.9131597E-012  0.3000000E+03  0.7818608E-02  0.1093470E+00
          1   -1    0    0  502    0  0.00000000000E+00  0.00000000000E+00  0.24412692357E+03  0.24412692357E+03  0.00000000000E+00 0.  1.
         13   -1    0    0    0    0 -0.00000000000E+00 -0.00000000000E+00 -0.27500000000E+03  0.27500000000E+03  0.00000000000E+00 0.  1.
    9000005    2    1    2  501    0  0.22267493954E+02  0.34457934456E+02 -0.47212691578E+02  0.47496615413E+03  0.47082971316E+03 0.  0.
         13    1    3    3    0    0 -0.76847861635E+02  0.23479758758E+03 -0.46808262869E+02  0.25144883067E+03  0.00000000000E+00 0.  1.
          1    1    3    3  501    0  0.99115355589E+02 -0.20033965312E+03 -0.40442870839E+00  0.22351732347E+03  0.00000000000E+00 0.  1.
         21    1    1    2  502  501 -0.22267493954E+02 -0.34457934456E+02  0.16339615148E+02  0.44160769436E+02  0.00000000000E+00 0. -1.
<scales pt_clust_4="550.00000" pt_clust_5="550.00000" pt_clust_6="41.02671"></scales>
<mgrwt>
<rscale>  0 0.30000000E+03</rscale>
<asrwt>  1 0.41026705E+02</asrwt>
<pdfrwt beam="1">  1        1 0.88773427E+00 0.30000000E+03</pdfrwt>
<pdfrwt beam="2">0</pdfrwt>
<totfact> 0.15110923E-04</totfact>
</mgrwt>
<clustering>
<clus scale="   41.027">  1  6  2 -1</clus>
<clus scale="  470.830">  4  5 -1 -1</clus>
<clus scale="  300.000">  1  4  2 -1</clus>
</clustering>
</event>
<event>
 6    1  0.9131597E-012  0.3000000E+03  0.7818608E-02  0.1093470E+00
          1   -1    0    0  502    0  0.00000000000E+00  0.00000000000E+00  0.23696497210E+03  0.23696497210E+03  0.00000000000E+00 0.  1.
         13   -1    0    0    0    0 -0.00000000000E+00 -0.00000000000E+00 -0.27500000000E+03  0.27500000000E+03  0.00000000000E+00 0.  1.
    9000005    2    1    2  501    0 -0.37443629997E+02  0.42151003537E+01 -0.31902665377E+02  0.47378908483E+03  0.47120963949E+03 0.  0.
         13    1    3    3    0    0 -0.22391841268E+03  0.12175612306E+02  0.99699837662E+02  0.24541344442E+03  0.00000000000E+00 0.  1.
          1    1    3    3  501    0  0.18647478268E+03 -0.79605119520E+01 -0.13160250304E+03  0.22837564041E+03  0.00000000000E+00 0.  1.
         21    1    1    2  502  501  0.37443629997E+02 -0.42151003537E+01 -0.61323625239E+01  0.38175887265E+02  0.00000000000E+00 0.  1.
<scales pt_clust_4="550.00000" pt_clust_5="550.00000" pt_clust_6="37.68015"></scales>
<mgrwt>
<rscale>  0 0.30000000E+03</rscale>
<asrwt>  1 0.37680153E+02</asrwt>
<pdfrwt beam="1">  1        1 0.86169081E+00 0.30000000E+03</pdfrwt>
<pdfrwt beam="2">0</pdfrwt>
<totfact> 0.30599874E-04</totfact>
</mgrwt>
<clustering>
<clus scale="   37.680">  1  6  2 -1</clus>
<clus scale="  471.210">  4  5 -1 -1</clus>
<clus scale="  300.000">  1  4  2 -1</clus>
</clustering>
</event>
<event>
 6    1  0.9131597E-012  0.3000000E+03  0.7818608E-02  0.1093470E+00
          1   -1    0    0  502    0  0.00000000000E+00  0.00000000000E+00  0.23983807687E+03  0.23983807687E+03  0.00000000000E+00 0.  1.
         13   -1    0    0    0    0 -0.00000000000E+00 -0.00000000000E+00 -0.27500000000E+03  0.27500000000E+03  0.00000000000E+00 0.  1.
    9000005    2    1    2  501    0  0.20436235466E+02 -0.22595432375E+02 -0.41733605553E+02  0.48367110246E+03  0.48090315889E+03 0.  0.
         13    1    3    3    0    0  0.10063363962E+03  0.21021031549E+03 -0.45274580066E+02  0.23741376069E+03  0.00000000000E+00 0.  1.
          3    1    3    3  501    0 -0.80197404158E+02 -0.23280574787E+03  0.35409745123E+01  0.24625734177E+03  0.00000000000E+00 0.  1.
         21    1    1    2  502  501 -0.20436235466E+02  0.22595432375E+02  0.65716824225E+01  0.31166974413E+02  0.00000000000E+00 0.  1.
<scales pt_clust_4="550.00000" pt_clust_5="550.00000" pt_clust_6="30.46626"></scales>
<mgrwt>
<rscale>  0 0.30000000E+03</rscale>
<asrwt>  1 0.30466265E+02</asrwt>
<pdfrwt beam="1">  1        1 0.87213846E+00 0.30000000E+03</pdfrwt>
<pdfrwt beam="2">0</pdfrwt>
<totfact> 0.24724606E-04</totfact>
</mgrwt>
<clustering>
<clus scale="   30.466">  1  6  2 -1</clus>
<clus scale="  480.903">  4  5 -1 -1</clus>
<clus scale="  300.000">  1  4  2 -1</clus>
</clustering>
</event>
<event>
 6    1  0.9131597E-012  0.3000000E+03  0.7818608E-02  0.1093470E+00
          1   -1    0    0  502    0  0.00000000000E+00  0.00000000000E+00  0.25901255914E+03  0.25901255914E+03  0.00000000000E+00 0.  1.
         13   -1    0    0    0    0 -0.00000000000E+00 -0.00000000000E+00 -0.27500000000E+03  0.27500000000E+03  0.00000000000E+00 0.  1.
    9000005    2    1    2  501    0  0.27792155727E+02  0.12852312650E+02  0.57289129777E+00  0.49920120379E+03  0.49826090335E+03 0.  0.
         13    1    3    3    0    0 -0.54719804041E+01 -0.92704612531E+02  0.22804794755E+03  0.24623150517E+03  0.00000000000E+00 0.  1.
          3    1    3    3  501    0  0.33264136131E+02  0.10555692518E+03 -0.22747505625E+03  0.25296969863E+03  0.00000000000E+00 0.  1.
         21    1    1    2  502  501 -0.27792155727E+02 -0.12852312650E+02 -0.16560332153E+02  0.34811355352E+02  0.00000000000E+00 0. -1.
<scales pt_clust_4="550.00000" pt_clust_5="550.00000" pt_clust_6="30.62004"></scales>
<mgrwt>
<rscale>  0 0.30000000E+03</rscale>
<asrwt>  1 0.30620039E+02</asrwt>
<pdfrwt beam="1">  1        1 0.94186385E+00 0.30000000E+03</pdfrwt>
<pdfrwt beam="2">0</pdfrwt>
<totfact> 0.18238258E-05</totfact>
</mgrwt>
<clustering>
<clus scale="   30.620">  1  6  2 -1</clus>
<clus scale="  498.261">  4  5 -1 -1</clus>
<clus scale="  300.000">  1  4  2 -1</clus>
</clustering>
</event>
<event>
 6    1  0.9131597E-012  0.3000000E+03  0.7818608E-02  0.1093470E+00
          1   -1    0    0  502    0  0.00000000000E+00  0.00000000000E+00  0.24270567821E+03  0.24270567821E+03  0.00000000000E+00 0.  1.
         13   -1    0    0    0    0 -0.00000000000E+00 -0.00000000000E+00 -0.27500000000E+03  0.27500000000E+03  0.00000000000E+00 0.  1.
    9000005    2    1    2  501    0 -0.44420227017E+00 -0.34163664605E+02 -0.49329668861E+02  0.47952772194E+03  0.47575841200E+03 0.  0.
         13    1    3    3    0    0 -0.20756162217E+03  0.85774338327E+02  0.31770334249E+02  0.22682243771E+03  0.00000000000E+00 0.  1.
          3    1    3    3  501    0  0.20711741990E+03 -0.11993800293E+03 -0.81100003110E+02  0.25270528423E+03  0.00000000000E+00 0.  1.
         21    1    1    2  502  501  0.44420227017E+00  0.34163664605E+02  0.17035347071E+02  0.38177956267E+02  0.00000000000E+00 0.  1.
<scales pt_clust_4="550.00000" pt_clust_5="550.00000" pt_clust_6="34.16655"></scales>
<mgrwt>
<rscale>  0 0.30000000E+03</rscale>
<asrwt>  1 0.34166552E+02</asrwt>
<pdfrwt beam="1">  1        1 0.88256610E+00 0.30000000E+03</pdfrwt>
<pdfrwt beam="2">0</pdfrwt>
<totfact> 0.18384881E-04</totfact>
</mgrwt>
<clustering>
<clus scale="   34.167">  1  6  2 -1</clus>
<clus scale="  475.758">  4  5 -1 -1</clus>
<clus scale="  300.000">  1  4  2 -1</clus>
</clustering>
</event>
<event>
 6    1  0.9131597E-012  0.3000000E+03  0.7818608E-02  0.1093470E+00
          1   -1    0    0  502    0  0.00000000000E+00  0.00000000000E+00  0.22119485052E+03  0.22119485052E+03  0.00000000000E+00 0.  1.
         13   -1    0    0    0    0 -0.00000000000E+00 -0.00000000000E+00 -0.27500000000E+03  0.27500000000E+03  0.00000000000E+00 0.  1.
    9000005    2    1    2  501    0  0.17623268584E+02 -0.24534580309E+02 -0.66674305335E+02  0.46335980219E+03  0.45754160255E+03 0.  0.
         13    1    3    3    0    0  0.21315008003E+03 -0.57215290467E+02  0.59245823697E+02  0.22850954839E+03  0.00000000000E+00 0.  1.
          1    1    3    3  501    0 -0.19552681145E+03  0.32680710158E+02 -0.12592012903E+03  0.23485025379E+03  0.00000000000E+00 0.  1.
         21    1    1    2  502  501 -0.17623268584E+02  0.24534580309E+02  0.12869155852E+02  0.32835048331E+02  0.00000000000E+00 0. -1.
<scales pt_clust_4="550.00000" pt_clust_5="550.00000" pt_clust_6="30.20803"></scales>
<mgrwt>
<rscale>  0 0.30000000E+03</rscale>
<asrwt>  1 0.30208032E+02</asrwt>
<pdfrwt beam="1">  1        1 0.80434491E+00 0.30000000E+03</pdfrwt>
<pdfrwt beam="2">0</pdfrwt>
<totfact> 0.99111810E-04</totfact>
</mgrwt>
<clustering>
<clus scale="   30.208">  1  6  2 -1</clus>
<clus scale="  457.542">  4  5 -1 -1</clus>
<clus scale="  300.000">  1  4  2 -1</clus>
</clustering>
</event>
<event>
 6    1  0.9131597E-012  0.3000000E+03  0.7818608E-02  0.1093470E+00
          1   -1    0    0  502    0  0.00000000000E+00  0.00000000000E+00  0.21843383324E+03  0.21843383324E+03  0.00000000000E+00 0.  1.
         13   -1    0    0    0    0 -0.00000000000E+00 -0.00000000000E+00 -0.27500000000E+03  0.27500000000E+03  0.00000000000E+00 0.  1.
    9000005    2    1    2  501    0 -0.24170651433E+02 -0.20230224277E+02 -0.49293820627E+02  0.46108619990E+03  0.45735885322E+03 0.  0.
         13    1    3    3    0    0 -0.20356372674E+03 -0.40188629198E+02 -0.14846433177E+03  0.25513716815E+03  0.00000000000E+00 0.  1.
          1    1    3    3  501    0  0.17939307531E+03  0.19958404921E+02  0.99170511146E+02  0.20594903175E+03  0.00000000000E+00 0.  1.
         21    1    1    2  502  501  0.24170651433E+02  0.20230224277E+02 -0.72723461299E+01  0.32347633348E+02  0.00000000000E+00 0.  1.
<scales pt_clust_4="550.00000" pt_clust_5="550.00000" pt_clust_6="31.51957"></scales>
<mgrwt>
<rscale>  0 0.30000000E+03</rscale>
<asrwt>  1 0.31519571E+02</asrwt>
<pdfrwt beam="1">  1        1 0.79430485E+00 0.30000000E+03</pdfrwt>
<pdfrwt beam="2">0</pdfrwt>
<totfact> 0.11645508E-03</totfact>
</mgrwt>
<clustering>
<clus scale="   31.520">  1  6  2 -1</clus>
<clus scale="  457.359">  4  5 -1 -1</clus>
<clus scale="  300.000">  1  4  2 -1</clus>
</clustering>
</event>
<event>
 6    1  0.9131597E-012  0.3000000E+03  0.7818608E-02  0.1093470E+00
          1   -1    0    0  502    0  0.00000000000E+00  0.00000000000E+00  0.22723371290E+03  0.22723371290E+03  0.00000000000E+00 0.  1.
         13   -1    0    0    0    0 -0.00000000000E+00 -0.00000000000E+00 -0.27500000000E+03  0.27500000000E+03  0.00000000000E+00 0.  1.
    9000005    2    1    2  501    0  0.30676663618E+02  0.71095214368E+01 -0.56330313984E+02  0.46960020953E+03  0.46514476191E+03 0.  0.
         13    1    3    3    0    0  0.72395044102E+02 -0.18646630314E+03 -0.15050684337E+03  0.25032585668E+03  0.00000000000E+00 0.  1.
          3    1    3    3  501    0 -0.41718380484E+02  0.19357582458E+03  0.94176529390E+02  0.21927435286E+03  0.00000000000E+00 0.  1.
         21    1    1    2  502  501 -0.30676663618E+02 -0.71095214368E+01  0.85640268884E+01  0.32633503372E+02  0.00000000000E+00 0. -1.
<scales pt_clust_4="550.00000" pt_clust_5="550.00000" pt_clust_6="31.48973"></scales>
<mgrwt>
<rscale>  0 0.30000000E+03</rscale>
<asrwt>  1 0.31489728E+02</asrwt>
<pdfrwt beam="1">  1        1 0.82630441E+00 0.30000000E+03</pdfrwt>
<pdfrwt beam="2">0</pdfrwt>
<totfact> 0.64877234E-04</totfact>
</mgrwt>
<clustering>
<clus scale="   31.490">  1  6  2 -1</clus>
<clus scale="  465.145">  4  5 -1 -1</clus>
<clus scale="  300.000">  1  4  2 -1</clus>
</clustering>
</event>
<event>
 6    1  0.9131597E-012  0.3000000E+03  0.7818608E-02  0.1093470E+00
          1   -1    0    0  502    0  0.00000000000E+00  0.00000000000E+00  0.22916998037E+03  0.22916998037E+03  0.00000000000E+00 0.  1.
         13   -1    0    0    0    0 -0.00000000000E+00 -0.00000000000E+00 -0.27500000000E+03  0.27500000000E+03  0.00000000000E+00 0.  1.
    9000005    2    1    2  501    0  0.33264361189E+02 -0.76370585884E+00 -0.67918374733E+02  0.46423257431E+03  0.45803043180E+03 0.  0.
         13    1    3    3    0    0  0.78065440088E+02  0.16493304425E+02  0.18779982580E+03  0.20404660398E+03  0.00000000000E+00 0.  1.
          1    1    3    3  501    0 -0.44801078899E+02 -0.17257010284E+02 -0.25571820053E+03  0.26018597033E+03  0.00000000000E+00 0.  1.
         21    1    1    2  502  501 -0.33264361189E+02  0.76370585884E+00  0.22088355106E+02  0.39937406065E+02  0.00000000000E+00 0.  1.
<scales pt_clust_4="550.00000" pt_clust_5="550.00000" pt_clust_6="33.27313"></scales>
<mgrwt>
<rscale>  0 0.30000000E+03</rscale>
<asrwt>  1 0.33273127E+02</asrwt>
<pdfrwt beam="1">  1        1 0.83334538E+00 0.30000000E+03</pdfrwt>
<pdfrwt beam="2">0</pdfrwt>
<totfact> 0.56173630E-04</totfact>
</mgrwt>
<clustering>
<clus scale="   33.273">  1  6  2 -1</clus>
<clus scale="  458.030">  4  5 -1 -1</clus>
<clus scale="  300.000">  1  4  2 -1</clus>
</clustering>
</event>
<event>
 6    1  0.9131597E-012  0.3000000E+03  0.7818608E-02  0.1093470E+00
          1   -1    0    0  502    0  0.00000000000E+00  0.00000000000E+00  0.21844894141E+03  0.21844894141E+03  0.00000000000E+00 0.  1.
         13   -1    0    0    0    0 -0.00000000000E+00 -0.00000000000E+00 -0.27500000000E+03  0.27500000000E+03  0.00000000000E+00 0.  1.
    9000005    2    1    2  501    0  0.29159097510E+02 -0.11471764400E+02 -0.60395412407E+02  0.46187944027E+03  0.45684040666E+03 0.  0.
         13    1    3    3    0    0  0.10908784730E+02  0.21135281623E+03 -0.10124880776E+03  0.23460676799E+03  0.00000000000E+00 0.  1.
          1    1    3    3  501    0  0.18250312780E+02 -0.22282458063E+03  0.40853395353E+02  0.22727267228E+03  0.00000000000E+00 0.  1.
         21    1    1    2  502  501 -0.29159097510E+02  0.11471764400E+02  0.38443538152E+01  0.31569501141E+02  0.00000000000E+00 0.  1.
<scales pt_clust_4="550.00000" pt_clust_5="550.00000" pt_clust_6="31.33456"></scales>
<mgrwt>
<rscale>  0 0.30000000E+03</rscale>
<asrwt>  1 0.31334555E+02</asrwt>
<pdfrwt beam="1">  1        1 0.79435979E+00 0.30000000E+03</pdfrwt>
<pdfrwt beam="2">0</pdfrwt>
<totfact> 0.11647483E-03</totfact>
</mgrwt>
<clustering>
<clus scale="   31.335">  1  6  2 -1</clus>
<clus scale="  456.840">  4  5 -1 -1</clus>
<clus scale="  300.000">  1  4  2 -1</clus>
</clustering>
</event>
<event>
 6    1  0.9131597E-012  0.3000000E+03  0.7818608E-02  0.1093470E+00
          1   -1    0    0  502    0  0.00000000000E+00  0.00000000000E+00  0.23140810804E+03  0.23140810804E+03  0.00000000000E+00 0.  1.
         13   -1    0    0    0    0 -0.00000000000E+00 -0.00000000000E+00 -0.27500000000E+03  0.27500000000E+03  0.00000000000E+00 0.  1.
    9000005    2    1    2  501    0 -0.16879529376E+02  0.34459721884E+02 -0.43156551892E+02  0.46803389189E+03  0.46445758153E+03 0.  0.
         13    1    3    3    0    0  0.77921261605E+02  0.16212509214E+02 -0.23779908741E+03  0.25076477910E+03  0.00000000000E+00 0.  1.
          3    1    3    3  501    0 -0.94800790981E+02  0.18247212670E+02  0.19464253552E+03  0.21726911279E+03  0.00000000000E+00 0.  1.
         21    1    1    2  502  501  0.16879529376E+02 -0.34459721884E+02 -0.43534006587E+00  0.38374216152E+02  0.00000000000E+00 0. -1.
<scales pt_clust_4="550.00000" pt_clust_5="550.00000" pt_clust_6="38.37175"></scales>
<mgrwt>
<rscale>  0 0.30000000E+03</rscale>
<asrwt>  1 0.38371747E+02</asrwt>
<pdfrwt beam="1">  1        1 0.84148403E+00 0.30000000E+03</pdfrwt>
<pdfrwt beam="2">0</pdfrwt>
<totfact> 0.47566567E-04</totfact>
</mgrwt>
<clustering>
<clus scale="   38.372">  1  6  2 -1</clus>
<clus scale="  464.458">  4  5 -1 -1</clus>
<clus scale="  300.000">  1  4  2 -1</clus>
</clustering>
</event>
<event>
 6    1  0.9131597E-012  0.3000000E+03  0.7818608E-02  0.1093470E+00
          1   -1    0    0  502    0  0.00000000000E+00  0.00000000000E+00  0.23107445912E+03  0.23107445912E+03  0.00000000000E+00 0.  1.
         13   -1    0    0    0    0 -0.00000000000E+00 -0.00000000000E+00 -0.27500000000E+03  0.27500000000E+03  0.00000000000E+00 0.  1.
    9000005    2    1    2  501    0 -0.16007389437E+02  0.40456533552E+02 -0.43957718681E+02  0.46256619946E+03  0.45841274003E+03 0.  0.
         13    1    3    3    0    0  0.98735253980E+02 -0.15003488630E+03  0.92121224615E+02  0.20185499129E+03  0.00000000000E+00 0.  1.
          1    1    3    3  501    0 -0.11474264342E+03  0.19049141985E+03 -0.13607894330E+03  0.26071120816E+03  0.00000000000E+00 0.  1.
         21    1    1    2  502  501  0.16007389437E+02 -0.40456533552E+02  0.32177800663E-01  0.43508259664E+02  0.00000000000E+00 0.  1.
<scales pt_clust_4="550.00000" pt_clust_5="550.00000" pt_clust_6="43.50825"></scales>
<mgrwt>
<rscale>  0 0.30000000E+03</rscale>
<asrwt>  1 0.43508248E+02</asrwt>
<pdfrwt beam="1">  1        1 0.84027076E+00 0.30000000E+03</pdfrwt>
<pdfrwt beam="2">0</pdfrwt>
<totfact> 0.47531565E-04</totfact>
</mgrwt>
<clustering>
<clus scale="   43.508">  1  6  2 -1</clus>
<clus scale="  458.413">  4  5 -1 -1</clus>
<clus scale="  300.000">  1  4  2 -1</clus>
</clustering>
</event>
<event>
 6    1  0.9131597E-012  0.3000000E+03  0.7818608E-02  0.1093470E+00
          1   -1    0    0  502    0  0.00000000000E+00  0.00000000000E+00  0.23455273408E+03  0.23455273408E+03  0.00000000000E+00 0.  1.
         13   -1    0    0    0    0 -0.00000000000E+00 -0.00000000000E+00 -0.27500000000E+03  0.27500000000E+03  0.00000000000E+00 0.  1.
    9000005    2    1    2  501    0 -0.13668072390E+02  0.32457662091E+02 -0.34892398290E+02  0.47389922674E+03  0.47129893021E+03 0.  0.
         13    1    3    3    0    0 -0.83716983262E+02  0.14149386918E+03 -0.20326206691E+03  0.26142784118E+03  0.00000000000E+00 0.  1.
          1    1    3    3  501    0  0.70048910872E+02 -0.10903620709E+03  0.16836966862E+03  0.21247138556E+03  0.00000000000E+00 0.  1.
         21    1    1    2  502  501  0.13668072390E+02 -0.32457662091E+02 -0.55548676266E+01  0.35653507340E+02  0.00000000000E+00 0. -1.
<scales pt_clust_4="550.00000" pt_clust_5="550.00000" pt_clust_6="35.21814"></scales>
<mgrwt>
<rscale>  0 0.30000000E+03</rscale>
<asrwt>  1 0.35218138E+02</asrwt>
<pdfrwt beam="1">  1        1 0.85291903E+00 0.30000000E+03</pdfrwt>
<pdfrwt beam="2">0</pdfrwt>
<totfact> 0.38131058E-04</totfact>
</mgrwt>
<clustering>
<clus scale="   35.218">  1  6  2 -1</clus>
<clus scale="  471.299">  4  5 -1 -1</clus>
<clus scale="  300.000">  1  4  2 -1</clus>
</clustering>
</event>
<event>
 6    1  0.9131597E-012  0.3000000E+03  0.7818608E-02  0.1093470E+00
          1   -1    0    0  502    0  0.00000000000E+00  0.00000000000E+00  0.22854115687E+03  0.22854115687E+03  0.00000000000E+00 0.  1.
         13   -1    0    0    0    0 -0.00000000000E+00 -0.00000000000E+00 -0.27500000000E+03  0.27500000000E+03  0.00000000000E+00 0.  1.
    9000005    2    1    2  501    0 -0.53690152158E+01 -0.36553612700E+02 -0.62573546187E+02  0.46323387985E+03  0.45749883698E+03 0.  0.
         13    1    3    3    0    0 -0.22310661903E+03  0.40801212946E+02 -0.47103781672E+02  0.23164643032E+03  0.00000000000E+00 0.  1.
          1    1    3    3  501    0  0.21773760382E+03 -0.77354825646E+02 -0.15469764515E+02  0.23158744953E+03  0.00000000000E+00 0.  1.
         21    1    1    2  502  501  0.53690152158E+01  0.36553612700E+02  0.16114703056E+02  0.40307277015E+02  0.00000000000E+00 0. -1.
<scales pt_clust_4="550.00000" pt_clust_5="550.00000" pt_clust_6="36.94581"></scales>
<mgrwt>
<rscale>  0 0.30000000E+03</rscale>
<asrwt>  1 0.36945811E+02</asrwt>
<pdfrwt beam="1">  1        1 0.83105875E+00 0.30000000E+03</pdfrwt>
<pdfrwt beam="2">0</pdfrwt>
<totfact> 0.57364685E-04</totfact>
</mgrwt>
<clustering>
<clus scale="   36.946">  1  6  2 -1</clus>
<clus scale="  457.499">  4  5 -1 -1</clus>
<clus scale="  300.000">  1  4  2 -1</clus>
</clustering>
</event>
<event>
 6    1  0.9131597E-012  0.3000000E+03  0.7818608E-02  0.1093470E+00
          1   -1    0    0  502    0  0.00000000000E+00  0.00000000000E+00  0.23833640584E+03  0.23833640584E+03  0.00000000000E+00 0.  1.
         13   -1    0    0    0    0 -0.00000000000E+00 -0.00000000000E+00 -0.27500000000E+03  0.27500000000E+03  0.00000000000E+00 0.  1.
    9000005    2    1    2  501    0 -0.32556860199E+02 -0.13270706022E+02 -0.56146863920E+02  0.47314115009E+03  0.46848054046E+03 0.  0.
         13    1    3    3    0    0 -0.10948608398E+02  0.50240126842E+02  0.20095592649E+03  0.20743005270E+03  0.00000000000E+00 0.  1.
          3    1    3    3  501    0 -0.21608251801E+02 -0.63510832865E+02 -0.25710279041E+03  0.26571109739E+03  0.00000000000E+00 0.  1.
         21    1    1    2  502  501  0.32556860199E+02  0.13270706022E+02  0.19483269756E+02  0.40195255749E+02  0.00000000000E+00 0.  1.
<scales pt_clust_4="550.00000" pt_clust_5="550.00000" pt_clust_6="35.15766"></scales>
<mgrwt>
<rscale>  0 0.30000000E+03</rscale>
<asrwt>  1 0.35157656E+02</asrwt>
<pdfrwt beam="1">  1        1 0.86667784E+00 0.30000000E+03</pdfrwt>
<pdfrwt beam="2">0</pdfrwt>
<totfact> 0.27392317E-04</totfact>
</mgrwt>
<clustering>
<clus scale="   35.158">  1  6  2 -1</clus>
<clus scale="  468.481">  4  5 -1 -1</clus>
<clus scale="  300.000">  1  4  2 -1</clus>
</clustering>
</event>
<event>
 6    1  0.9131597E-012  0.3000000E+03  0.7818608E-02  0.1093470E+00
          1   -1    0    0  502    0  0.00000000000E+00  0.00000000000E+00  0.23487091544E+03  0.23487091544E+03  0.00000000000E+00 0.  1.
         13   -1    0    0    0    0 -0.00000000000E+00 -0.00000000000E+00 -0.27500000000E+03  0.27500000000E+03  0.00000000000E+00 0.  1.
    9000005    2    1    2  501    0  0.30959410294E+02  0.20675793988E+01 -0.67069910182E+02  0.46877872572E+03  0.46291722896E+03 0.  0.
         13    1    3    3    0    0 -0.15138197657E+03  0.65093953416E+02 -0.18095880432E+03  0.24474438596E+03  0.00000000000E+00 0.  1.
          3    1    3    3  501    0  0.18234138686E+03 -0.63026374017E+02  0.11388889414E+03  0.22403433976E+03  0.00000000000E+00 0.  1.
         21    1    1    2  502  501 -0.30959410294E+02 -0.20675793988E+01  0.26940825617E+02  0.41092189711E+02  0.00000000000E+00 0.  1.
<scales pt_clust_4="550.00000" pt_clust_5="550.00000" pt_clust_6="31.02837"></scales>
<mgrwt>
<rscale>  0 0.30000000E+03</rscale>
<asrwt>  1 0.31028374E+02</asrwt>
<pdfrwt beam="1">  1        1 0.85407606E+00 0.30000000E+03</pdfrwt>
<pdfrwt beam="2">0</pdfrwt>
<totfact> 0.38060214E-04</totfact>
</mgrwt>
<clustering>
<clus scale="   31.028">  1  6  2 -1</clus>
<clus scale="  462.917">  4  5 -1 -1</clus>
<clus scale="  300.000">  1  4  2 -1</clus>
</clustering>
</event>
<event>
 6    1  0.9131597E-012  0.3000000E+03  0.7818608E-02  0.1093470E+00
          1   -1    0    0  502    0  0.00000000000E+00  0.00000000000E+00  0.23646718556E+03  0.23646718556E+03  0.00000000000E+00 0.  1.
         13   -1    0    0    0    0 -0.00000000000E+00 -0.00000000000E+00 -0.27500000000E+03  0.27500000000E+03  0.00000000000E+00 0.  1.
    9000005    2    1    2  501    0  0.25728080960E+02 -0.20541112818E+02 -0.49858021491E+02  0.47665150260E+03  0.47289212423E+03 0.  0.
         13    1    3    3    0    0  0.15477769257E+03 -0.54978291005E+02 -0.21097255348E+03  0.26737270788E+03  0.00000000000E+00 0.  1.
          3    1    3    3  501    0 -0.12904961161E+03  0.34437178187E+02  0.16111453199E+03  0.20927879471E+03  0.00000000000E+00 0.  1.
         21    1    1    2  502  501 -0.25728080960E+02  0.20541112818E+02  0.11325207056E+02  0.34815682969E+02  0.00000000000E+00 0.  1.
<scales pt_clust_4="550.00000" pt_clust_5="550.00000" pt_clust_6="32.92220"></scales>
<mgrwt>
<rscale>  0 0.30000000E+03</rscale>
<asrwt>  1 0.32922203E+02</asrwt>
<pdfrwt beam="1">  1        1 0.85988067E+00 0.30000000E+03</pdfrwt>
<pdfrwt beam="2">0</pdfrwt>
<totfact> 0.32816851E-04</totfact>
</mgrwt>
<clustering>
<clus scale="   32.922">  1  6  2 -1</clus>
<clus scale="  472.892">  4  5 -1 -1</clus>
<clus scale="  300.000">  1  4  2 -1</clus>
</clustering>
</event>
<event>
 6    1  0.9131597E-012  0.3000000E+03  0.7818608E-02  0.1093470E+00
          1   -1    0    0  502    0  0.00000000000E+00  0.00000000000E+00  0.26109889186E+03  0.26109889186E+03  0.00000000000E+00 0.  1.
         13   -1    0    0    0    0 -0.00000000000E+00 -0.00000000000E+00 -0.27500000000E+03  0.27500000000E+03  0.00000000000E+00 0.  1.
    9000005    2    1    2  501    0  0.66755501831E+01 -0.53975535072E+02 -0.58090389292E+01  0.48111341249E+03  0.47799419389E+03 0.  0.
         13    1    3    3    0    0 -0.19988835723E+03 -0.32609771201E+02 -0.12855322068E+03  0.23988472874E+03  0.00000000000E+00 0.  1.
          3    1    3    3  501    0  0.20656390742E+03 -0.21365763872E+02  0.12274418175E+03  0.24122868375E+03  0.00000000000E+00 0.  1.
         21    1    1    2  502  501 -0.66755501831E+01  0.53975535072E+02 -0.80920692158E+01  0.54985479363E+02  0.00000000000E+00 0.  1.
<scales pt_clust_4="550.00000" pt_clust_5="550.00000" pt_clust_6="54.38680"></scales>
<mgrwt>
<rscale>  0 0.30000000E+03</rscale>
<asrwt>  1 0.54386803E+02</asrwt>
<pdfrwt beam="1">  1        1 0.94945052E+00 0.30000000E+03</pdfrwt>
<pdfrwt beam="2">0</pdfrwt>
<totfact> 0.11697335E-05</totfact>
</mgrwt>
<clustering>
<clus scale="   54.387">  1  6  2 -1</clus>
<clus scale="  477.994">  4  5 -1 -1</clus>
<clus scale="  300.000">  1  4  2 -1</clus>
</clustering>
</event>
<event>
 6    1  0.9131597E-012  0.3000000E+03  0.7818608E-02  0.1093470E+00
          1   -1    0    0  502    0  0.00000000000E+00  0.00000000000E+00  0.23201267159E+03  0.23201267159E+03  0.00000000000E+00 0.  1.
         13   -1    0    0    0    0 -0.00000000000E+00 -0.00000000000E+00 -0.27500000000E+03  0.27500000000E+03  0.00000000000E+00 0.  1.
    9000005    2    1    2  501    0 -0.34617282693E+02  0.21069947462E+02 -0.55158083055E+02  0.46469924328E+03  0.45963101900E+03 0.  0.
         13    1    3    3    0    0 -0.22104402545E+03  0.11322022844E+03  0.43605785528E+01  0.24839141684E+03  0.00000000000E+00 0.  1.
          1    1    3    3  501    0  0.18642674275E+03 -0.92150280982E+02 -0.59518661608E+02  0.21630782644E+03  0.00000000000E+00 0.  1.
         21    1    1    2  502  501  0.34617282693E+02 -0.21069947462E+02  0.12170754647E+02  0.42313428315E+02  0.00000000000E+00 0.  1.
<scales pt_clust_4="550.00000" pt_clust_5="550.00000" pt_clust_6="40.52529"></scales>
<mgrwt>
<rscale>  0 0.30000000E+03</rscale>
<asrwt>  1 0.40525288E+02</asrwt>
<pdfrwt beam="1">  1        1 0.84368244E+00 0.30000000E+03</pdfrwt>
<pdfrwt beam="2">0</pdfrwt>
<totfact> 0.45144409E-04</totfact>
</mgrwt>
<clustering>
<clus scale="   40.525">  1  6  2 -1</clus>
<clus scale="  459.631">  4  5 -1 -1</clus>
<clus scale="  300.000">  1  4  2 -1</clus>
</clustering>
</event>
<event>
 6    1  0.9131597E-012  0.3000000E+03  0.7818608E-02  0.1093470E+00
          1   -1    0    0  502    0  0.00000000000E+00  0.00000000000E+00  0.23235581001E+03  0.23235581001E+03  0.00000000000E+00 0.  1.
         13   -1    0    0    0    0 -0.00000000000E+00 -0.00000000000E+00 -0.27500000000E+03  0.27500000000E+03  0.00000000000E+00 0.  1.
    9000005    2    1    2  501    0 -0.21149661462E+02  0.25366740271E+02 -0.61262114418E+02  0.46944266187E+03  0.46425487227E+03 0.  0.
         13    1    3    3    0    0  0.10712147667E+03 -0.17074142948E+03  0.53463529316E+02  0.20853296015E+03  0.00000000000E+00 0.  1.
          3    1    3    3  501    0 -0.12827113813E+03  0.19610816975E+03 -0.11472564373E+03  0.26090970172E+03  0.00000000000E+00 0.  1.
         21    1    1    2  502  501  0.21149661462E+02 -0.25366740271E+02  0.18617924432E+02  0.37913148142E+02  0.00000000000E+00 0.  1.
<scales pt_clust_4="550.00000" pt_clust_5="550.00000" pt_clust_6="33.02695"></scales>
<mgrwt>
<rscale>  0 0.30000000E+03</rscale>
<asrwt>  1 0.33026954E+02</asrwt>
<pdfrwt beam="1">  1        1 0.84493022E+00 0.30000000E+03</pdfrwt>
<pdfrwt beam="2">0</pdfrwt>
<totfact> 0.45742226E-04</totfact>
</mgrwt>
<clustering>
<clus scale="   33.027">  1  6  2 -1</clus>
<clus scale="  464.255">  4  5 -1 -1</clus>
<clus scale="  300.000">  1  4  2 -1</clus>
</clustering>
</event>
<event>
 6    1  0.9131597E-012  0.3000000E+03  0.7818608E-02  0.1093470E+00
          1   -1    0    0  502    0  0.00000000000E+00  0.00000000000E+00  0.23060873979E+03  0.23060873979E+03  0.00000000000E+00 0.  1.
         13   -1    0    0    0    0 -0.00000000000E+00 -0.00000000000E+00 -0.27500000000E+03  0.27500000000E+03  0.00000000000E+00 0.  1.
    9000005    2    1    2  501    0 -0.27753263009E+02 -0.31632812179E+02 -0.55330019244E+02  0.46212845847E+03  0.45687024710E+03 0.  0.
         13    1    3    3    0    0 -0.10360598982E+03  0.16157100476E+03 -0.14040562617E+03  0.23780902120E+03  0.00000000000E+00 0.  1.
          1    1    3    3  501    0  0.75852726807E+02 -0.19320381694E+03  0.85075606930E+02  0.22431943727E+03  0.00000000000E+00 0.  1.
         21    1    1    2  502  501  0.27753263009E+02  0.31632812179E+02  0.10938759031E+02  0.43480281314E+02  0.00000000000E+00 0. -1.
<scales pt_clust_4="550.00000" pt_clust_5="550.00000" pt_clust_6="42.08181"></scales>
<mgrwt>
<rscale>  0 0.30000000E+03</rscale>
<asrwt>  1 0.42081806E+02</asrwt>
<pdfrwt beam="1">  1        1 0.83857724E+00 0.30000000E+03</pdfrwt>
<pdfrwt beam="2">0</pdfrwt>
<totfact> 0.49248149E-04</totfact>
</mgrwt>
<clustering>
<clus scale="   42.082">  1  6  2 -1</clus>
<clus scale="  456.870">  4  5 -1 -1</clus>
<clus scale="  300.000">  1  4  2 -1</clus>
</clustering>
</event>
<event>
 6    1  0.9131597E-012  0.3000000E+03  0.7818608E-02  0.1093470E+00
          1   -1    0    0  502    0  0.00000000000E+00  0.00000000000E+00  0.22749541353E+03  0.22749541353E+03  0.00000000000E+00 0.  1.
         13   -1    0    0    0    0 -0.00000000000E+00 -0.00000000000E+00 -0.27500000000E+03  0.27500000000E+03  0.00000000000E+00 0.  1.
    9000005    2    1    2  501    0  0.26829264373E+02 -0.23525415295E+02 -0.36932828400E+02  0.46527960157E+03  0.46243682728E+03 0.  0.
         13    1    3    3    0    0  0.31903165488E+02  0.83356678793E+01  0.21185642971E+03  0.21440718769E+03  0.00000000000E+00 0.  1.
          1    1    3    3  501    0 -0.50739011149E+01 -0.31861083174E+02 -0.24878925811E+03  0.25087241387E+03  0.00000000000E+00 0.  1.
         21    1    1    2  502  501 -0.26829264373E+02  0.23525415295E+02 -0.10571758069E+02  0.37215811965E+02  0.00000000000E+00 0.  1.
<scales pt_clust_4="550.00000" pt_clust_5="550.00000" pt_clust_6="35.68271"></scales>
<mgrwt>
<rscale>  0 0.30000000E+03</rscale>
<asrwt>  1 0.35682711E+02</asrwt>
<pdfrwt beam="1">  1        1 0.82725605E+00 0.30000000E+03</pdfrwt>
<pdfrwt beam="2">0</pdfrwt>
<totfact> 0.62154239E-04</totfact>
</mgrwt>
<clustering>
<clus scale="   35.683">  1  6  2 -1</clus>
<clus scale="  462.437">  4  5 -1 -1</clus>
<clus scale="  300.000">  1  4  2 -1</clus>
</clustering>
</event>
<event>
 6    1  0.9131597E-012  0.3000000E+03  0.7818608E-02  0.1093470E+00
          1   -1    0    0  502    0  0.00000000000E+00  0.00000000000E+00  0.23929182059E+03  0.23929182059E+03  0.00000000000E+00 0.  1.
         13   -1    0    0    0    0 -0.00000000000E+00 -0.00000000000E+00 -0.27500000000E+03  0.27500000000E+03  0.00000000000E+00 0.  1.
    9000005    2    1    2  501    0 -0.12567331514E+02  0.38167603405E+02 -0.54999115772E+02  0.46971779231E+03  0.46475283529E+03 0.  0.
         13    1    3    3    0    0 -0.62095687247E+02 -0.57451934779E+02  0.18677844790E+03  0.20504338025E+03  0.00000000000E+00 0.  1.
          3    1    3    3  501    0  0.49528355732E+02  0.95619538184E+02 -0.24177756367E+03  0.26467441206E+03  0.00000000000E+00 0.  1.
         21    1    1    2  502  501  0.12567331514E+02 -0.38167603405E+02  0.19290936360E+02  0.44574028275E+02  0.00000000000E+00 0.  1.
<scales pt_clust_4="550.00000" pt_clust_5="550.00000" pt_clust_6="40.18338"></scales>
<mgrwt>
<rscale>  0 0.30000000E+03</rscale>
<asrwt>  1 0.40183377E+02</asrwt>
<pdfrwt beam="1">  1        1 0.87015207E+00 0.30000000E+03</pdfrwt>
<pdfrwt beam="2">0</pdfrwt>
<totfact> 0.24599133E-04</totfact>
</mgrwt>
<clustering>
<clus scale="   40.183">  1  6  2 -1</clus>
<clus scale="  464.753">  4  5 -1 -1</clus>
<clus scale="  300.000">  1  4  2 -1</clus>
</clustering>
</event>
<event>
 6    1  0.9131597E-012  0.3000000E+03  0.7818608E-02  0.1093470E+00
          1   -1    0    0  502    0  0.00000000000E+00  0.00000000000E+00  0.25169588279E+03  0.25169588279E+03  0.00000000000E+00 0.  1.
         13   -1    0    0    0    0 -0.00000000000E+00 -0.00000000000E+00 -0.27500000000E+03  0.27500000000E+03  0.00000000000E+00 0.  1.
    9000005    2    1    2  501    0 -0.72114465561E+01 -0.31840560279E+02 -0.39825290750E+01  0.48875975215E+03  0.48765193380E+03 0.  0.
         13    1    3    3    0    0 -0.20607906439E+02  0.19009307457E+03 -0.13186512822E+03  0.23226810983E+03  0.00000000000E+00 0.  1.
          3    1    3    3  501    0  0.13396459883E+02 -0.22193363484E+03  0.12788259914E+03  0.25649164231E+03  0.00000000000E+00 0.  1.
         21    1    1    2  502  501  0.72114465561E+01  0.31840560279E+02 -0.19321588134E+02  0.37936130645E+02  0.00000000000E+00 0. -1.
<scales pt_clust_4="550.00000" pt_clust_5="550.00000" pt_clust_6="32.64701"></scales>
<mgrwt>
<rscale>  0 0.30000000E+03</rscale>
<asrwt>  1 0.32647011E+02</asrwt>
<pdfrwt beam="1">  1        1 0.91525776E+00 0.30000000E+03</pdfrwt>
<pdfrwt beam="2">0</pdfrwt>
<totfact> 0.54110275E-05</totfact>
</mgrwt>
<clustering>
<clus scale="   32.647">  1  6  2 -1</clus>
<clus scale="  487.652">  4  5 -1 -1</clus>
<clus scale="  300.000">  1  4  2 -1</clus>
</clustering>
</event>
<event>
 6    1  0.9131597E-012  0.3000000E+03  0.7818608E-02  0.1093470E+00
          1   -1    0    0  502    0  0.00000000000E+00  0.00000000000E+00  0.25831359830E+03  0.25831359830E+03  0.00000000000E+00 0.  1.
         13   -1    0    0    0    0 -0.00000000000E+00 -0.00000000000E+00 -0.27500000000E+03  0.27500000000E+03  0.00000000000E+00 0.  1.
    9000005    2    1    2  501    0  0.35821415391E+01  0.31908072242E+02 -0.55372926270E+02  0.48303831615E+03  0.47877854702E+03 0.  0.
         13    1    3    3    0    0 -0.10555521878E+03 -0.11971768584E+03  0.14029882319E+03  0.21250409009E+03  0.00000000000E+00 0.  1.
          1    1    3    3  501    0  0.10913736032E+03  0.15162575808E+03 -0.19567174946E+03  0.27053422606E+03  0.00000000000E+00 0.  1.
         21    1    1    2  502  501 -0.35821415391E+01 -0.31908072242E+02  0.38686524569E+02  0.50275282152E+02  0.00000000000E+00 0. -1.
<scales pt_clust_4="550.00000" pt_clust_5="550.00000" pt_clust_6="32.10852"></scales>
<mgrwt>
<rscale>  0 0.30000000E+03</rscale>
<asrwt>  1 0.32108516E+02</asrwt>
<pdfrwt beam="1">  1        1 0.93932218E+00 0.30000000E+03</pdfrwt>
<pdfrwt beam="2">0</pdfrwt>
<totfact> 0.19985179E-05</totfact>
</mgrwt>
<clustering>
<clus scale="   32.109">  1  6  2 -1</clus>
<clus scale="  478.779">  4  5 -1 -1</clus>
<clus scale="  300.000">  1  4  2 -1</clus>
</clustering>
</event>
<event>
 6    1  0.9131597E-012  0.3000000E+03  0.7818608E-02  0.1093470E+00
          1   -1    0    0  502    0  0.00000000000E+00  0.00000000000E+00  0.23976922654E+03  0.23976922654E+03  0.00000000000E+00 0.  1.
         13   -1    0    0    0    0 -0.00000000000E+00 -0.00000000000E+00 -0.27500000000E+03  0.27500000000E+03  0.00000000000E+00 0.  1.
    9000005    2    1    2  501    0 -0.22415334404E+02  0.27940253980E+02 -0.48501378990E+02  0.47656956712E+03  0.47273995339E+03 0.  0.
         13    1    3    3    0    0 -0.15625014948E+03  0.12926059588E+03  0.12252598440E+03  0.23692831767E+03  0.00000000000E+00 0.  1.
          1    1    3    3  501    0  0.13383481507E+03 -0.10132034190E+03 -0.17102736339E+03  0.23964124945E+03  0.00000000000E+00 0.  1.
         21    1    1    2  502  501  0.22415334404E+02 -0.27940253980E+02  0.13270605532E+02  0.38199659424E+02  0.00000000000E+00 0.  1.
<scales pt_clust_4="550.00000" pt_clust_5="550.00000" pt_clust_6="35.82046"></scales>
<mgrwt>
<rscale>  0 0.30000000E+03</rscale>
<asrwt>  1 0.35820455E+02</asrwt>
<pdfrwt beam="1">  1        1 0.87188810E+00 0.30000000E+03</pdfrwt>
<pdfrwt beam="2">0</pdfrwt>
<totfact> 0.24120964E-04</totfact>
</mgrwt>
<clustering>
<clus scale="   35.820">  1  6  2 -1</clus>
<clus scale="  472.740">  4  5 -1 -1</clus>
<clus scale="  300.000">  1  4  2 -1</clus>
</clustering>
</event>
<event>
 6    1  0.9131597E-012  0.3000000E+03  0.7818608E-02  0.1093470E+00
          1   -1    0    0  502    0  0.00000000000E+00  0.00000000000E+00  0.24739185992E+03  0.24739185992E+03  0.00000000000E+00 0.  1.
         13   -1    0    0    0    0 -0.00000000000E+00 -0.00000000000E+00 -0.27500000000E+03  0.27500000000E+03  0.00000000000E+00 0.  1.
    9000005    2    1    2  501    0 -0.35262841986E+02  0.39812312042E+02 -0.44066614659E+02  0.46671987774E+03  0.46158107579E+03 0.  0.
         13    1    3    3    0    0  0.53304165339E+02 -0.13573673652E+03  0.13651339552E+03  0.19975410594E+03  0.00000000000E+00 0.  1.
          1    1    3    3  501    0 -0.88567007325E+02  0.17554904856E+03 -0.18058001018E+03  0.26696577180E+03  0.00000000000E+00 0.  1.
         21    1    1    2  502  501  0.35262841986E+02 -0.39812312042E+02  0.16458474583E+02  0.55671982188E+02  0.00000000000E+00 0.  1.
<scales pt_clust_4="550.00000" pt_clust_5="550.00000" pt_clust_6="53.18353"></scales>
<mgrwt>
<rscale>  0 0.30000000E+03</rscale>
<asrwt>  1 0.53183533E+02</asrwt>
<pdfrwt beam="1">  1        1 0.89960676E+00 0.30000000E+03</pdfrwt>
<pdfrwt beam="2">0</pdfrwt>
<totfact> 0.10358449E-04</totfact>
</mgrwt>
<clustering>
<clus scale="   53.184">  1  6  2 -1</clus>
<clus scale="  461.581">  4  5 -1 -1</clus>
<clus scale="  300.000">  1  4  2 -1</clus>
</clustering>
</event>
<event>
 6    1  0.9131597E-012  0.3000000E+03  0.7818608E-02  0.1093470E+00
          1   -1    0    0  502    0  0.00000000000E+00  0.00000000000E+00  0.22188844223E+03  0.22188844223E+03  0.00000000000E+00 0.  1.
         13   -1    0    0    0    0 -0.00000000000E+00 -0.00000000000E+00 -0.27500000000E+03  0.27500000000E+03  0.00000000000E+00 0.  1.
    9000005    2    1    2  501    0  0.22045656490E+02  0.23764640201E+02 -0.57122023438E+02  0.46422572757E+03  0.45955612441E+03 0.  0.
         13    1    3    3    0    0 -0.21753033667E+03 -0.12656158837E+02 -0.37528473559E+02  0.22110633654E+03  0.00000000000E+00 0.  1.
          3    1    3    3  501    0  0.23957599316E+03  0.36420799037E+02 -0.19593549879E+02  0.24311939104E+03  0.00000000000E+00 0.  1.
         21    1    1    2  502  501 -0.22045656490E+02 -0.23764640201E+02  0.40104656670E+01  0.32662714657E+02  0.00000000000E+00 0.  1.
<scales pt_clust_4="550.00000" pt_clust_5="550.00000" pt_clust_6="32.41557"></scales>
<mgrwt>
<rscale>  0 0.30000000E+03</rscale>
<asrwt>  1 0.32415569E+02</asrwt>
<pdfrwt beam="1">  1        1 0.80686706E+00 0.30000000E+03</pdfrwt>
<pdfrwt beam="2">0</pdfrwt>
<totfact> 0.93559246E-04</totfact>
</mgrwt>
<clustering>
<clus scale="   32.416">  1  6  2 -1</clus>
<clus scale="  459.556">  4  5 -1 -1</clus>
<clus scale="  300.000">  1  4  2 -1</clus>
</clustering>
</event>
<event>
 6    1  0.9131597E-012  0.3000000E+03  0.7818608E-02  0.1093470E+00
          1   -1    0    0  502    0  0.00000000000E+00  0.00000000000E+00  0.23697491157E+03  0.23697491157E+03  0.00000000000E+00 0.  1.
         13   -1    0    0    0    0 -0.00000000000E+00 -0.00000000000E+00 -0.27500000000E+03  0.27500000000E+03  0.00000000000E+00 0.  1.
    9000005    2    1    2  501    0  0.34052339354E+02  0.71608629285E+01 -0.17510898649E+02  0.47158095465E+03  0.46996928138E+03 0.  0.
         13    1    3    3    0    0 -0.17126562749E+03  0.14398979526E+03 -0.21784696352E+02  0.22481002934E+03  0.00000000000E+00 0.  1.
          3    1    3    3  501    0  0.20531796684E+03 -0.13682893233E+03  0.42737977026E+01  0.24677092531E+03  0.00000000000E+00 0.  1.
         21    1    1    2  502  501 -0.34052339354E+02 -0.71608629285E+01 -0.20514189780E+02  0.40393956920E+02  0.00000000000E+00 0.  1.
<scales pt_clust_4="550.00000" pt_clust_5="550.00000" pt_clust_6="34.79714"></scales>
<mgrwt>
<rscale>  0 0.30000000E+03</rscale>
<asrwt>  1 0.34797140E+02</asrwt>
<pdfrwt beam="1">  1        1 0.86172695E+00 0.30000000E+03</pdfrwt>
<pdfrwt beam="2">0</pdfrwt>
<totfact> 0.31028188E-04</totfact>
</mgrwt>
<clustering>
<clus scale="   34.797">  1  6  2 -1</clus>
<clus scale="  469.969">  4  5 -1 -1</clus>
<clus scale="  300.000">  1  4  2 -1</clus>
</clustering>
</event>
<event>
 6    1  0.9131597E-012  0.3000000E+03  0.7818608E-02  0.1093470E+00
          1   -1    0    0  502    0  0.00000000000E+00  0.00000000000E+00  0.23139336253E+03  0.23139336253E+03  0.00000000000E+00 0.  1.
         13   -1    0    0    0    0 -0.00000000000E+00 -0.00000000000E+00 -0.27500000000E+03  0.27500000000E+03  0.00000000000E+00 0.  1.
    9000005    2    1    2  501    0 -0.31382041741E+02 -0.15549598252E+02 -0.25718338935E+02  0.46706635178E+03  0.46504077397E+03 0.  0.
         13    1    3    3    0    0  0.20057185817E+03  0.37714805911E+02  0.62200475099E+02  0.21335504676E+03  0.00000000000E+00 0.  1.
          1    1    3    3  501    0 -0.23195389991E+03 -0.53264404163E+02 -0.87918814034E+02  0.25371130502E+03  0.00000000000E+00 0.  1.
         21    1    1    2  502  501  0.31382041741E+02  0.15549598252E+02 -0.17888298540E+02  0.39327010747E+02  0.00000000000E+00 0. -1.
<scales pt_clust_4="550.00000" pt_clust_5="550.00000" pt_clust_6="35.02319"></scales>
<mgrwt>
<rscale>  0 0.30000000E+03</rscale>
<asrwt>  1 0.35023189E+02</asrwt>
<pdfrwt beam="1">  1        1 0.84143041E+00 0.30000000E+03</pdfrwt>
<pdfrwt beam="2">0</pdfrwt>
<totfact> 0.48427397E-04</totfact>
</mgrwt>
<clustering>
<clus scale="   35.023">  1  6  2 -1</clus>
<clus scale="  465.041">  4  5 -1 -1</clus>
<clus scale="  300.000">  1  4  2 -1</clus>
</clustering>
</event>
<event>
 6    1  0.9131597E-012  0.3000000E+03  0.7818608E-02  0.1093470E+00
          1   -1    0    0  502    0  0.00000000000E+00  0.00000000000E+00  0.22823813808E+03  0.22823813808E+03  0.00000000000E+00 0.  1.
         13   -1    0    0    0    0 -0.00000000000E+00 -0.00000000000E+00 -0.27500000000E+03  0.27500000000E+03  0.00000000000E+00 0.  1.
    9000005    2    1    2  501    0 -0.30218620267E+02  0.12812217695E+02 -0.54050764761E+02  0.46961603170E+03  0.46533903138E+03 0.  0.
         13    1    3    3    0    0 -0.38266652088E+02  0.18970967888E+03  0.11473203356E+03  0.22498341817E+03  0.00000000000E+00 0.  1.
          3    1    3    3  501    0  0.80480318210E+01 -0.17689746119E+03 -0.16878279833E+03  0.24463261353E+03  0.00000000000E+00 0.  1.
         21    1    1    2  502  501  0.30218620267E+02 -0.12812217695E+02  0.72889028416E+01  0.33622106384E+02  0.00000000000E+00 0. -1.
<scales pt_clust_4="550.00000" pt_clust_5="550.00000" pt_clust_6="32.82252"></scales>
<mgrwt>
<rscale>  0 0.30000000E+03</rscale>
<asrwt>  1 0.32822522E+02</asrwt>
<pdfrwt beam="1">  1        1 0.82995687E+00 0.30000000E+03</pdfrwt>
<pdfrwt beam="2">0</pdfrwt>
<totfact> 0.59868683E-04</totfact>
</mgrwt>
<clustering>
<clus scale="   32.823">  1  6  2 -1</clus>
<clus scale="  465.339">  4  5 -1 -1</clus>
<clus scale="  300.000">  1  4  2 -1</clus>
</clustering>
</event>
<event>
 6    1  0.9131597E-012  0.3000000E+03  0.7818608E-02  0.1093470E+00
          1   -1    0    0  502    0  0.00000000000E+00  0.00000000000E+00  0.24474808874E+03  0.24474808874E+03  0.00000000000E+00 0.  1.
         13   -1    0    0    0    0 -0.00000000000E+00 -0.00000000000E+00 -0.27500000000E+03  0.27500000000E+03  0.00000000000E+00 0.  1.
    9000005    2    1    2  501    0 -0.10841942144E+02 -0.35655674019E+02 -0.65422434703E+02  0.46850513295E+03  0.46241549481E+03 0.  0.
         13    1    3    3    0    0  0.84231459842E+02 -0.16292971527E+03  0.12391379574E+03  0.22134963230E+03  0.00000000000E+00 0.  1.
          1    1    3    3  501    0 -0.95073401986E+02  0.12727404126E+03 -0.18933623044E+03  0.24715550065E+03  0.00000000000E+00 0.  1.
         21    1    1    2  502  501  0.10841942144E+02  0.35655674019E+02  0.35170523447E+02  0.51242955797E+02  0.00000000000E+00 0. -1.
<scales pt_clust_4="550.00000" pt_clust_5="550.00000" pt_clust_6="37.26761"></scales>
<mgrwt>
<rscale>  0 0.30000000E+03</rscale>
<asrwt>  1 0.37267611E+02</asrwt>
<pdfrwt beam="1">  1        1 0.88999305E+00 0.30000000E+03</pdfrwt>
<pdfrwt beam="2">0</pdfrwt>
<totfact> 0.14330389E-04</totfact>
</mgrwt>
<clustering>
<clus scale="   37.268">  1  6  2 -1</clus>
<clus scale="  462.415">  4  5 -1 -1</clus>
<clus scale="  300.000">  1  4  2 -1</clus>
</clustering>
</event>
<event>
 6    1  0.9131597E-012  0.3000000E+03  0.7818608E-02  0.1093470E+00
          1   -1    0    0  502    0  0.00000000000E+00  0.00000000000E+00  0.24645797223E+03  0.24645797223E+03  0.00000000000E+00 0.  1.
         13   -1    0    0    0    0 -0.00000000000E+00 -0.00000000000E+00 -0.27500000000E+03  0.27500000000E+03  0.00000000000E+00 0.  1.
    9000005    2    1    2  501    0  0.40983323166E+01  0.41882036456E+02 -0.32089880982E+02  0.47922660276E+03  0.47629557527E+03 0.  0.
         13    1    3    3    0    0 -0.94752566536E+02  0.55288897180E+02 -0.23154369961E+03  0.25621747764E+03  0.00000000000E+00 0.  1.
          3    1    3    3  501    0  0.98850898852E+02 -0.13406860723E+02  0.19945381863E+03  0.22300912512E+03  0.00000000000E+00 0.  1.
         21    1    1    2  502  501 -0.40983323166E+01 -0.41882036456E+02  0.35478532164E+01  0.42231369478E+02  0.00000000000E+00 0.  1.
<scales pt_clust_4="550.00000" pt_clust_5="550.00000" pt_clust_6="42.08208"></scales>
<mgrwt>
<rscale>  0 0.30000000E+03</rscale>
<asrwt>  1 0.42082078E+02</asrwt>
<pdfrwt beam="1">  1        1 0.89621081E+00 0.30000000E+03</pdfrwt>
<pdfrwt beam="2">0</pdfrwt>
<totfact> 0.11815620E-04</totfact>
</mgrwt>
<clustering>
<clus scale="   42.082">  1  6  2 -1</clus>
<clus scale="  476.296">  4  5 -1 -1</clus>
<clus scale="  300.000">  1  4  2 -1</clus>
</clustering>
</event>
<event>
 6    1  0.9131597E-012  0.3000000E+03  0.7818608E-02  0.1093470E+00
          1   -1    0    0  502    0  0.00000000000E+00  0.00000000000E+00  0.22686995519E+03  0.22686995519E+03  0.00000000000E+00 0.  1.
         13   -1    0    0    0    0 -0.00000000000E+00 -0.00000000000E+00 -0.27500000000E+03  0.27500000000E+03  0.00000000000E+00 0.  1.
    9000005    2    1    2  501    0  0.18918688970E+01 -0.40620876854E+02 -0.35305667375E+02  0.45923077766E+03  0.45606225693E+03 0.  0.
         13    1    3    3    0    0  0.16849478915E+03 -0.16509854320E+03  0.37552265611E+02  0.23886857388E+03  0.00000000000E+00 0.  1.
          3    1    3    3  501    0 -0.16660292025E+03  0.12447766634E+03 -0.72857932985E+02  0.22036220378E+03  0.00000000000E+00 0.  1.
         21    1    1    2  502  501 -0.18918688970E+01  0.40620876854E+02 -0.12824377433E+02  0.42639177535E+02  0.00000000000E+00 0.  1.
<scales pt_clust_4="550.00000" pt_clust_5="550.00000" pt_clust_6="40.66493"></scales>
<mgrwt>
<rscale>  0 0.30000000E+03</rscale>
<asrwt>  1 0.40664929E+02</asrwt>
<pdfrwt beam="1">  1        1 0.82498166E+00 0.30000000E+03</pdfrwt>
<pdfrwt beam="2">0</pdfrwt>
<totfact> 0.63558370E-04</totfact>
</mgrwt>
<clustering>
<clus scale="   40.665">  1  6  2 -1</clus>
<clus scale="  456.062">  4  5 -1 -1</clus>
<clus scale="  300.000">  1  4  2 -1</clus>
</clustering>
</event>
<event>
 6    1  0.9131597E-012  0.3000000E+03  0.7818608E-02  0.1093470E+00
          1   -1    0    0  502    0  0.00000000000E+00  0.00000000000E+00  0.22073032779E+03  0.22073032779E+03  0.00000000000E+00 0.  1.
         13   -1    0    0    0    0 -0.00000000000E+00 -0.00000000000E+00 -0.27500000000E+03  0.27500000000E+03  0.00000000000E+00 0.  1.
    9000005    2    1    2  501    0 -0.31302925540E+02  0.10218372992E+02 -0.57551535672E+02  0.46263865328E+03  0.45786248586E+03 0.  0.
         13    1    3    3    0    0 -0.22026212377E+02 -0.19364952008E+03 -0.14265309515E+03  0.24152680227E+03  0.00000000000E+00 0.  1.
          1    1    3    3  501    0 -0.92767131630E+01  0.20386789307E+03  0.85101559482E+02  0.22111185101E+03  0.00000000000E+00 0.  1.
         21    1    1    2  502  501  0.31302925540E+02 -0.10218372992E+02  0.32818634578E+01  0.33091674507E+02  0.00000000000E+00 0.  1.
<scales pt_clust_4="550.00000" pt_clust_5="550.00000" pt_clust_6="32.92853"></scales>
<mgrwt>
<rscale>  0 0.30000000E+03</rscale>
<asrwt>  1 0.32928533E+02</asrwt>
<pdfrwt beam="1">  1        1 0.80265574E+00 0.30000000E+03</pdfrwt>
<pdfrwt beam="2">0</pdfrwt>
<totfact> 0.10034123E-03</totfact>
</mgrwt>
<clustering>
<clus scale="   32.929">  1  6  2 -1</clus>
<clus scale="  457.862">  4  5 -1 -1</clus>
<clus scale="  300.000">  1  4  2 -1</clus>
</clustering>
</event>
<event>
 6    1  0.9131597E-012  0.3000000E+03  0.7818608E-02  0.1093470E+00
          1   -1    0    0  502    0  0.00000000000E+00  0.00000000000E+00  0.24921253368E+03  0.24921253368E+03  0.00000000000E+00 0.  1.
         13   -1    0    0    0    0 -0.00000000000E+00 -0.00000000000E+00 -0.27500000000E+03  0.27500000000E+03  0.00000000000E+00 0.  1.
    9000005    2    1    2  501    0 -0.12671064475E+02 -0.31358419866E+02 -0.10673471734E+02  0.48716743679E+03  0.48587475969E+03 0.  0.
         13    1    3    3    0    0  0.43085447628E+02  0.14841524179E+03 -0.17771508247E+03  0.23551239952E+03  0.00000000000E+00 0.  1.
          3    1    3    3  501    0 -0.55756512103E+02 -0.17977366165E+03  0.16704161074E+03  0.25165503727E+03  0.00000000000E+00 0.  1.
         21    1    1    2  502  501  0.12671064475E+02  0.31358419866E+02 -0.15113994581E+02  0.37045096890E+02  0.00000000000E+00 0.  1.
<scales pt_clust_4="550.00000" pt_clust_5="550.00000" pt_clust_6="33.82170"></scales>
<mgrwt>
<rscale>  0 0.30000000E+03</rscale>
<asrwt>  1 0.33821702E+02</asrwt>
<pdfrwt beam="1">  1        1 0.90622740E+00 0.30000000E+03</pdfrwt>
<pdfrwt beam="2">0</pdfrwt>
<totfact> 0.88014711E-05</totfact>
</mgrwt>
<clustering>
<clus scale="   33.822">  1  6  2 -1</clus>
<clus scale="  485.875">  4  5 -1 -1</clus>
<clus scale="  300.000">  1  4  2 -1</clus>
</clustering>
</event>
<event>
 6    1  0.9131597E-012  0.3000000E+03  0.7818608E-02  0.1093470E+00
          1   -1    0    0  502    0  0.00000000000E+00  0.00000000000E+00  0.22967535457E+03  0.22967535457E+03  0.00000000000E+00 0.  1.
         13   -1    0    0    0    0 -0.00000000000E+00 -0.00000000000E+00 -0.27500000000E+03  0.27500000000E+03  0.00000000000E+00 0.  1.
    9000005    2    1    2  501    0 -0.24862008655E+02  0.18887085606E+02 -0.67823950235E+02  0.46619080970E+03  0.46017272991E+03 0.  0.
         13    1    3    3    0    0  0.15496155318E+03  0.15187965524E+03  0.35419122844E+02  0.21985228428E+03  0.00000000000E+00 0.  1.
          1    1    3    3  501    0 -0.17982356183E+03 -0.13299256964E+03 -0.10324307308E+03  0.24633852542E+03  0.00000000000E+00 0.  1.
         21    1    1    2  502  501  0.24862008655E+02 -0.18887085606E+02  0.22499304808E+02  0.38484544871E+02  0.00000000000E+00 0. -1.
<scales pt_clust_4="550.00000" pt_clust_5="550.00000" pt_clust_6="31.22245"></scales>
<mgrwt>
<rscale>  0 0.30000000E+03</rscale>
<asrwt>  1 0.31222451E+02</asrwt>
<pdfrwt beam="1">  1        1 0.83518311E+00 0.30000000E+03</pdfrwt>
<pdfrwt beam="2">0</pdfrwt>
<totfact> 0.55109971E-04</totfact>
</mgrwt>
<clustering>
<clus scale="   31.222">  1  6  2 -1</clus>
<clus scale="  460.173">  4  5 -1 -1</clus>
<clus scale="  300.000">  1  4  2 -1</clus>
</clustering>
</event>
<event>
 6    1  0.9131597E-012  0.3000000E+03  0.7818608E-02  0.1093470E+00
          1   -1    0    0  502    0  0.00000000000E+00  0.00000000000E+00  0.23533973956E+03  0.23533973956E+03  0.00000000000E+00 0.  1.
         13   -1    0    0    0    0 -0.00000000000E+00 -0.00000000000E+00 -0.27500000000E+03  0.27500000000E+03  0.00000000000E+00 0.  1.
    9000005    2    1    2  501    0 -0.30377164533E+02  0.39968024290E+01 -0.67445526474E+02  0.46897831353E+03  0.46309071786E+03 0.  0.
         13    1    3    3    0    0  0.31206734801E+02 -0.22455372579E+03 -0.20226347262E+02  0.22761226063E+03  0.00000000000E+00 0.  1.
          1    1    3    3  501    0 -0.61583899335E+02  0.22855052822E+03 -0.47219179211E+02  0.24136605290E+03  0.00000000000E+00 0.  1.
         21    1    1    2  502  501  0.30377164533E+02 -0.39968024290E+01  0.27785266032E+02  0.41361426030E+02  0.00000000000E+00 0.  1.
<scales pt_clust_4="550.00000" pt_clust_5="550.00000" pt_clust_6="30.63897"></scales>
<mgrwt>
<rscale>  0 0.30000000E+03</rscale>
<asrwt>  1 0.30638971E+02</asrwt>
<pdfrwt beam="1">  1        1 0.85578087E+00 0.30000000E+03</pdfrwt>
<pdfrwt beam="2">0</pdfrwt>
<totfact> 0.36698327E-04</totfact>
</mgrwt>
<clustering>
<clus scale="   30.639">  1  6  2 -1</clus>
<clus scale="  463.091">  4  5 -1 -1</clus>
<clus scale="  300.000">  1  4  2 -1</clus>
</clustering>
</event>
<event>
 6    1  0.9131597E-012  0.3000000E+03  0.7818608E-02  0.1093470E+00
          1   -1    0    0  502    0  0.00000000000E+00  0.00000000000E+00  0.25233783061E+03  0.25233783061E+03  0.00000000000E+00 0.  1.
         13   -1    0    0    0    0 -0.00000000000E+00 -0.00000000000E+00 -0.27500000000E+03  0.27500000000E+03  0.00000000000E+00 0.  1.
    9000005    2    1    2  501    0  0.51374745968E+02  0.15903757076E+02 -0.47909660543E+02  0.46792630124E+03  0.46234986083E+03 0.  0.
         13    1    3    3    0    0 -0.11294910279E+03  0.92823727819E+02  0.14303291659E+03  0.20452911650E+03  0.00000000000E+00 0.  1.
          1    1    3    3  501    0  0.16432384875E+03 -0.76919970743E+02 -0.19094257713E+03  0.26339718474E+03  0.00000000000E+00 0.  1.
         21    1    1    2  502  501 -0.51374745968E+02 -0.15903757076E+02  0.25247491150E+02  0.59411529368E+02  0.00000000000E+00 0.  1.
<scales pt_clust_4="550.00000" pt_clust_5="550.00000" pt_clust_6="53.78005"></scales>
<mgrwt>
<rscale>  0 0.30000000E+03</rscale>
<asrwt>  1 0.53780052E+02</asrwt>
<pdfrwt beam="1">  1        1 0.91759211E+00 0.30000000E+03</pdfrwt>
<pdfrwt beam="2">0</pdfrwt>
<totfact> 0.43729882E-05</totfact>
</mgrwt>
<clustering>
<clus scale="   53.780">  1  6  2 -1</clus>
<clus scale="  462.350">  4  5 -1 -1</clus>
<clus scale="  300.000">  1  4  2 -1</clus>
</clustering>
</event>
<event>
 6    1  0.9131597E-012  0.3000000E+03  0.7818608E-02  0.1093470E+00
          1   -1    0    0  502    0  0.00000000000E+00  0.00000000000E+00  0.23210824119E+03  0.23210824119E+03  0.00000000000E+00 0.  1.
         13   -1    0    0    0    0 -0.00000000000E+00 -0.00000000000E+00 -0.27500000000E+03  0.27500000000E+03  0.00000000000E+00 0.  1.
    9000005    2    1    2  501    0  0.30526815480E+02  0.84149496588E+01 -0.50615696144E+02  0.47451442201E+03  0.47074333788E+03 0.  0.
         13    1    3    3    0    0 -0.20190717883E+03  0.22870003075E+02  0.66549834326E+02  0.21381867634E+03  0.00000000000E+00 0.  1.
          1    1    3    3  501    0  0.23243399431E+03 -0.14455053417E+02 -0.11716553047E+03  0.26069574567E+03  0.00000000000E+00 0.  1.
         21    1    1    2  502  501 -0.30526815480E+02 -0.84149496588E+01  0.77239373382E+01  0.32593819186E+02  0.00000000000E+00 0.  1.
<scales pt_clust_4="550.00000" pt_clust_5="550.00000" pt_clust_6="31.66540"></scales>
<mgrwt>
<rscale>  0 0.30000000E+03</rscale>
<asrwt>  1 0.31665404E+02</asrwt>
<pdfrwt beam="1">  1        1 0.84402997E+00 0.30000000E+03</pdfrwt>
<pdfrwt beam="2">0</pdfrwt>
<totfact> 0.46944353E-04</totfact>
</mgrwt>
<clustering>
<clus scale="   31.665">  1  6  2 -1</clus>
<clus scale="  470.743">  4  5 -1 -1</clus>
<clus scale="  300.000">  1  4  2 -1</clus>
</clustering>
</event>
<event>
 6    1  0.9131597E-012  0.3000000E+03  0.7818608E-02  0.1093470E+00
          1   -1    0    0  502    0  0.00000000000E+00  0.00000000000E+00  0.21959397975E+03  0.21959397975E+03  0.00000000000E+00 0.  1.
         13   -1    0    0    0    0 -0.00000000000E+00 -0.00000000000E+00 -0.27500000000E+03  0.27500000000E+03  0.00000000000E+00 0.  1.
    9000005    2    1    2  501    0  0.24071394748E+02  0.19744185817E+02 -0.58112431620E+02  0.46334354645E+03  0.45862939549E+03 0.  0.
         13    1    3    3    0    0  0.87986488422E+02 -0.17421608886E+03  0.86116425038E+02  0.21332816603E+03  0.00000000000E+00 0.  1.
          3    1    3    3  501    0 -0.63915093673E+02  0.19396027468E+03 -0.14422885666E+03  0.25001538042E+03  0.00000000000E+00 0.  1.
         21    1    1    2  502  501 -0.24071394748E+02 -0.19744185817E+02  0.27064113658E+01  0.31250433296E+02  0.00000000000E+00 0.  1.
<scales pt_clust_4="550.00000" pt_clust_5="550.00000" pt_clust_6="31.13302"></scales>
<mgrwt>
<rscale>  0 0.30000000E+03</rscale>
<asrwt>  1 0.31133020E+02</asrwt>
<pdfrwt beam="1">  1        1 0.79852356E+00 0.30000000E+03</pdfrwt>
<pdfrwt beam="2">0</pdfrwt>
<totfact> 0.10866477E-03</totfact>
</mgrwt>
<clustering>
<clus scale="   31.133">  1  6  2 -1</clus>
<clus scale="  458.629">  4  5 -1 -1</clus>
<clus scale="  300.000">  1  4  2 -1</clus>
</clustering>
</event>
<event>
 6    1  0.9131597E-012  0.3000000E+03  0.7818608E-02  0.1093470E+00
          1   -1    0    0  502    0  0.00000000000E+00  0.00000000000E+00  0.23216010828E+03  0.23216010828E+03  0.00000000000E+00 0.  1.
         13   -1    0    0    0    0 -0.00000000000E+00 -0.00000000000E+00 -0.27500000000E+03  0.27500000000E+03  0.00000000000E+00 0.  1.
    9000005    2    1    2  501    0 -0.97494113447E+01  0.37571905320E+02 -0.63464480051E+02  0.46320475895E+03  0.45719165499E+03 0.  0.
         13    1    3    3    0    0  0.47399474056E+02 -0.26764916112E+02  0.18889233550E+03  0.19657920869E+03  0.00000000000E+00 0.  1.
          1    1    3    3  501    0 -0.57148885401E+02  0.64336821433E+02 -0.25235681556E+03  0.26662555026E+03  0.00000000000E+00 0.  1.
         21    1    1    2  502  501  0.97494113447E+01 -0.37571905320E+02  0.20624588327E+02  0.43955349329E+02  0.00000000000E+00 0.  1.
<scales pt_clust_4="550.00000" pt_clust_5="550.00000" pt_clust_6="38.81622"></scales>
<mgrwt>
<rscale>  0 0.30000000E+03</rscale>
<asrwt>  1 0.38816222E+02</asrwt>
<pdfrwt beam="1">  1        1 0.84421858E+00 0.30000000E+03</pdfrwt>
<pdfrwt beam="2">0</pdfrwt>
<totfact> 0.45021932E-04</totfact>
</mgrwt>
<clustering>
<clus scale="   38.816">  1  6  2 -1</clus>
<clus scale="  457.192">  4  5 -1 -1</clus>
<clus scale="  300.000">  1  4  2 -1</clus>
</clustering>
</event>
<event>
 6    1  0.9131597E-012  0.3000000E+03  0.7818608E-02  0.1093470E+00
          1   -1    0    0  502    0  0.00000000000E+00  0.00000000000E+00  0.25104627472E+03  0.25104627472E+03  0.00000000000E+00 0.  1.
         13   -1    0    0    0    0 -0.00000000000E+00 -0.00000000000E+00 -0.27500000000E+03  0.27500000000E+03  0.00000000000E+00 0.  1.
    9000005    2    1    2  501    0 -0.20287110638E+02 -0.26367927332E+02 -0.75695748870E+02  0.46453146792E+03  0.45711355684E+03 0.  0.
         13    1    3    3    0    0  0.78327466633E+02  0.19717101679E+03 -0.14469436047E+02  0.21265221953E+03  0.00000000000E+00 0.  1.
          1    1    3    3  501    0 -0.98614577271E+02 -0.22353894412E+03 -0.61226312823E+02  0.25187924839E+03  0.00000000000E+00 0.  1.
         21    1    1    2  502  501  0.20287110638E+02  0.26367927332E+02  0.51742023588E+02  0.61514806793E+02  0.00000000000E+00 0.  1.
<scales pt_clust_4="550.00000" pt_clust_5="550.00000" pt_clust_6="33.26912"></scales>
<mgrwt>
<rscale>  0 0.30000000E+03</rscale>
<asrwt>  1 0.33269122E+02</asrwt>
<pdfrwt beam="1">  1        1 0.91289554E+00 0.30000000E+03</pdfrwt>
<pdfrwt beam="2">0</pdfrwt>
<totfact> 0.61468393E-05</totfact>
</mgrwt>
<clustering>
<clus scale="   33.269">  1  6  2 -1</clus>
<clus scale="  457.114">  4  5 -1 -1</clus>
<clus scale="  300.000">  1  4  2 -1</clus>
</clustering>
</event>
<event>
 6    1  0.9131597E-012  0.3000000E+03  0.7818608E-02  0.1093470E+00
          1   -1    0    0  502    0  0.00000000000E+00  0.00000000000E+00  0.23105644653E+03  0.23105644653E+03  0.00000000000E+00 0.  1.
         13   -1    0    0    0    0 -0.00000000000E+00 -0.00000000000E+00 -0.27500000000E+03  0.27500000000E+03  0.00000000000E+00 0.  1.
    9000005    2    1    2  501    0 -0.14165743025E+02  0.39236064040E+02 -0.56946147277E+02  0.46236200246E+03  0.45694159434E+03 0.  0.
         13    1    3    3    0    0 -0.78127719239E+02  0.22778654162E+03 -0.96392463355E+02  0.25938804145E+03  0.00000000000E+00 0.  1.
          1    1    3    3  501    0  0.63961976214E+02 -0.18855047758E+03  0.39446316078E+02  0.20297396101E+03  0.00000000000E+00 0.  1.
         21    1    1    2  502  501  0.14165743025E+02 -0.39236064040E+02  0.13002593811E+02  0.43694444070E+02  0.00000000000E+00 0.  1.
<scales pt_clust_4="550.00000" pt_clust_5="550.00000" pt_clust_6="41.71495"></scales>
<mgrwt>
<rscale>  0 0.30000000E+03</rscale>
<asrwt>  1 0.41714949E+02</asrwt>
<pdfrwt beam="1">  1        1 0.84020526E+00 0.30000000E+03</pdfrwt>
<pdfrwt beam="2">0</pdfrwt>
<totfact> 0.47949712E-04</totfact>
</mgrwt>
<clustering>
<clus scale="   41.715">  1  6  2 -1</clus>
<clus scale="  456.942">  4  5 -1 -1</clus>
<clus scale="  300.000">  1  4  2 -1</clus>
</clustering>
</event>
<event>
 6    1  0.9131597E-012  0.3000000E+03  0.7818608E-02  0.1093470E+00
          1   -1    0    0  502    0  0.00000000000E+00  0.00000000000E+00  0.24591025693E+03  0.24591025693E+03  0.00000000000E+00 0.  1.
         13   -1    0    0    0    0 -0.00000000000E+00 -0.00000000000E+00 -0.27500000000E+03  0.27500000000E+03  0.00000000000E+00 0.  1.
    9000005    2    1    2  501    0 -0.37924851616E+02 -0.19345168799E+02 -0.35290770977E+02  0.47788720877E+03  0.47467695948E+03 0.  0.
         13    1    3    3    0    0 -0.52564840888E+02  0.16537452091E+03  0.13988757520E+03  0.22289084404E+03  0.00000000000E+00 0.  1.
          1    1    3    3  501    0  0.14639989272E+02 -0.18471968971E+03 -0.17517834618E+03  0.25499636472E+03  0.00000000000E+00 0.  1.
         21    1    1    2  502  501  0.37924851616E+02  0.19345168799E+02  0.62010279046E+01  0.43023048161E+02  0.00000000000E+00 0.  1.
<scales pt_clust_4="550.00000" pt_clust_5="550.00000" pt_clust_6="42.57382"></scales>
<mgrwt>
<rscale>  0 0.30000000E+03</rscale>
<asrwt>  1 0.42573817E+02</asrwt>
<pdfrwt beam="1">  1        1 0.89421912E+00 0.30000000E+03</pdfrwt>
<pdfrwt beam="2">0</pdfrwt>
<totfact> 0.12413059E-04</totfact>
</mgrwt>
<clustering>
<clus scale="   42.574">  1  6  2 -1</clus>
<clus scale="  474.677">  4  5 -1 -1</clus>
<clus scale="  300.000">  1  4  2 -1</clus>
</clustering>
</event>
<event>
 6    1  0.9131597E-012  0.3000000E+03  0.7818608E-02  0.1093470E+00
          1   -1    0    0  502    0  0.00000000000E+00  0.00000000000E+00  0.23291717918E+03  0.23291717918E+03  0.00000000000E+00 0.  1.
         13   -1    0    0    0    0 -0.00000000000E+00 -0.00000000000E+00 -0.27500000000E+03  0.27500000000E+03  0.00000000000E+00 0.  1.
    9000005    2    1    2  501    0  0.40980943425E+01  0.30179943155E+02 -0.39498143330E+02  0.47735079399E+03  0.47473787910E+03 0.  0.
         13    1    3    3    0    0  0.21280329350E+03  0.53262956489E+01 -0.12900119614E+03  0.24890745219E+03  0.00000000000E+00 0.  1.
          3    1    3    3  501    0 -0.20870519916E+03  0.24853647506E+02  0.89503052813E+02  0.22844334180E+03  0.00000000000E+00 0.  1.
         21    1    1    2  502  501 -0.40980943425E+01 -0.30179943155E+02 -0.25846774860E+01  0.30566385194E+02  0.00000000000E+00 0. -1.
<scales pt_clust_4="550.00000" pt_clust_5="550.00000" pt_clust_6="30.45692"></scales>
<mgrwt>
<rscale>  0 0.30000000E+03</rscale>
<asrwt>  1 0.30456925E+02</asrwt>
<pdfrwt beam="1">  1        1 0.84697156E+00 0.30000000E+03</pdfrwt>
<pdfrwt beam="2">0</pdfrwt>
<totfact> 0.44555862E-04</totfact>
</mgrwt>
<clustering>
<clus scale="   30.457">  1  6  2 -1</clus>
<clus scale="  474.738">  4  5 -1 -1</clus>
<clus scale="  300.000">  1  4  2 -1</clus>
</clustering>
</event>
<event>
 6    1  0.9131597E-012  0.3000000E+03  0.7818608E-02  0.1093470E+00
          1   -1    0    0  502    0  0.00000000000E+00  0.00000000000E+00  0.22689628112E+03  0.22689628112E+03  0.00000000000E+00 0.  1.
         13   -1    0    0    0    0 -0.00000000000E+00 -0.00000000000E+00 -0.27500000000E+03  0.27500000000E+03  0.00000000000E+00 0.  1.
    9000005    2    1    2  501    0  0.31971943941E+02 -0.11733369301E+02 -0.47787475957E+02  0.46783784363E+03  0.46414300374E+03 0.  0.
         13    1    3    3    0    0 -0.92974964650E+02 -0.10615903760E+03 -0.20307222353E+03  0.24729013988E+03  0.00000000000E+00 0.  1.
          1    1    3    3  501    0  0.12494690859E+03  0.94425668303E+02  0.15528474757E+03  0.22054770375E+03  0.00000000000E+00 0.  1.
         21    1    1    2  502  501 -0.31971943941E+02  0.11733369301E+02 -0.31624292405E+00  0.34058437487E+02  0.00000000000E+00 0.  1.
<scales pt_clust_4="550.00000" pt_clust_5="550.00000" pt_clust_6="34.05697"></scales>
<mgrwt>
<rscale>  0 0.30000000E+03</rscale>
<asrwt>  1 0.34056969E+02</asrwt>
<pdfrwt beam="1">  1        1 0.82507739E+00 0.30000000E+03</pdfrwt>
<pdfrwt beam="2">0</pdfrwt>
<totfact> 0.65548275E-04</totfact>
</mgrwt>
<clustering>
<clus scale="   34.057">  1  6  2 -1</clus>
<clus scale="  464.143">  4  5 -1 -1</clus>
<clus scale="  300.000">  1  4  2 -1</clus>
</clustering>
</event>
<event>
 6    1  0.9131597E-012  0.3000000E+03  0.7818608E-02  0.1093470E+00
          1   -1    0    0  502    0  0.00000000000E+00  0.00000000000E+00  0.26180781956E+03  0.26180781956E+03  0.00000000000E+00 0.  1.
         13   -1    0    0    0    0 -0.00000000000E+00 -0.00000000000E+00 -0.27500000000E+03  0.27500000000E+03  0.00000000000E+00 0.  1.
    9000005    2    1    2  501    0  0.31275223557E+02 -0.90898989855E+01 -0.43618950187E+02  0.49223704226E+03  0.48921766841E+03 0.  0.
         13    1    3    3    0    0 -0.18899036349E+03 -0.42584992235E+02 -0.15031884858E+03  0.24520724967E+03  0.00000000000E+00 0.  1.
          3    1    3    3  501    0  0.22026558704E+03  0.33495093250E+02  0.10669989839E+03  0.24702979258E+03  0.00000000000E+00 0.  1.
         21    1    1    2  502  501 -0.31275223557E+02  0.90898989855E+01  0.30426769750E+02  0.44570777305E+02  0.00000000000E+00 0. -1.
<scales pt_clust_4="550.00000" pt_clust_5="550.00000" pt_clust_6="32.56940"></scales>
<mgrwt>
<rscale>  0 0.30000000E+03</rscale>
<asrwt>  1 0.32569401E+02</asrwt>
<pdfrwt beam="1">  1        1 0.95202843E+00 0.30000000E+03</pdfrwt>
<pdfrwt beam="2">0</pdfrwt>
<totfact> 0.11356727E-05</totfact>
</mgrwt>
<clustering>
<clus scale="   32.569">  1  6  2 -1</clus>
<clus scale="  489.218">  4  5 -1 -1</clus>
<clus scale="  300.000">  1  4  2 -1</clus>
</clustering>
</event>
<event>
 6    1  0.9131597E-012  0.3000000E+03  0.7818608E-02  0.1093470E+00
          1   -1    0    0  502    0  0.00000000000E+00  0.00000000000E+00  0.22411350790E+03  0.22411350790E+03  0.00000000000E+00 0.  1.
         13   -1    0    0    0    0 -0.00000000000E+00 -0.00000000000E+00 -0.27500000000E+03  0.27500000000E+03  0.00000000000E+00 0.  1.
    9000005    2    1    2  501    0 -0.14636215814E+02  0.28959602081E+02 -0.52584342740E+02  0.46662104627E+03  0.46251184888E+03 0.  0.
         13    1    3    3    0    0  0.16259172737E+02 -0.19689000049E+03 -0.11717285080E+03  0.22969438381E+03  0.00000000000E+00 0.  1.
          1    1    3    3  501    0 -0.30895388551E+02  0.22584960257E+03  0.64588508056E+02  0.23692666246E+03  0.00000000000E+00 0.  1.
         21    1    1    2  502  501  0.14636215814E+02 -0.28959602081E+02  0.16978506429E+01  0.32492461631E+02  0.00000000000E+00 0.  1.
<scales pt_clust_4="550.00000" pt_clust_5="550.00000" pt_clust_6="32.44807"></scales>
<mgrwt>
<rscale>  0 0.30000000E+03</rscale>
<asrwt>  1 0.32448072E+02</asrwt>
<pdfrwt beam="1">  1        1 0.81495821E+00 0.30000000E+03</pdfrwt>
<pdfrwt beam="2">0</pdfrwt>
<totfact> 0.80810215E-04</totfact>
</mgrwt>
<clustering>
<clus scale="   32.448">  1  6  2 -1</clus>
<clus scale="  462.512">  4  5 -1 -1</clus>
<clus scale="  300.000">  1  4  2 -1</clus>
</clustering>
</event>
<event>
 6    1  0.9131597E-012  0.3000000E+03  0.7818608E-02  0.1093470E+00
          1   -1    0    0  502    0  0.00000000000E+00  0.00000000000E+00  0.21941146365E+03  0.21941146365E+03  0.00000000000E+00 0.  1.
         13   -1    0    0    0    0 -0.00000000000E+00 -0.00000000000E+00 -0.27500000000E+03  0.27500000000E+03  0.00000000000E+00 0.  1.
    9000005    2    1    2  501    0  0.24713839283E+02  0.21796647744E+02 -0.58758972577E+02  0.46130679071E+03  0.45636111862E+03 0.  0.
         13    1    3    3    0    0  0.97913634048E+02  0.93632404161E+02 -0.22695067591E+03  0.26431177828E+03  0.00000000000E+00 0.  1.
          3    1    3    3  501    0 -0.73199794765E+02 -0.71835756417E+02  0.16819170333E+03  0.19699501243E+03  0.00000000000E+00 0.  1.
         21    1    1    2  502  501 -0.24713839283E+02 -0.21796647744E+02  0.31704362303E+01  0.33104672946E+02  0.00000000000E+00 0.  1.
<scales pt_clust_4="550.00000" pt_clust_5="550.00000" pt_clust_6="32.95251"></scales>
<mgrwt>
<rscale>  0 0.30000000E+03</rscale>
<asrwt>  1 0.32952507E+02</asrwt>
<pdfrwt beam="1">  1        1 0.79785987E+00 0.30000000E+03</pdfrwt>
<pdfrwt beam="2">0</pdfrwt>
<totfact> 0.10869689E-03</totfact>
</mgrwt>
<clustering>
<clus scale="   32.953">  1  6  2 -1</clus>
<clus scale="  456.361">  4  5 -1 -1</clus>
<clus scale="  300.000">  1  4  2 -1</clus>
</clustering>
</event>
<event>
 6    1  0.9131597E-012  0.3000000E+03  0.7818608E-02  0.1093470E+00
          1   -1    0    0  502    0  0.00000000000E+00  0.00000000000E+00  0.24858177616E+03  0.24858177616E+03  0.00000000000E+00 0.  1.
         13   -1    0    0    0    0 -0.00000000000E+00 -0.00000000000E+00 -0.27500000000E+03  0.27500000000E+03  0.00000000000E+00 0.  1.
    9000005    2    1    2  501    0 -0.16384667364E+02 -0.40975389551E+02  0.64200179830E+01  0.46857459481E+03  0.46644774026E+03 0.  0.
         13    1    3    3    0    0 -0.20729551335E+03 -0.13859712144E+03 -0.29729542705E+02  0.25112633800E+03  0.00000000000E+00 0.  1.
          1    1    3    3  501    0  0.19091084599E+03  0.97621731884E+02  0.36149560688E+02  0.21744825681E+03  0.00000000000E+00 0.  1.
         21    1    1    2  502  501  0.16384667364E+02  0.40975389551E+02 -0.32838241827E+02  0.55007181347E+02  0.00000000000E+00 0. -1.
<scales pt_clust_4="550.00000" pt_clust_5="550.00000" pt_clust_6="44.12983"></scales>
<mgrwt>
<rscale>  0 0.30000000E+03</rscale>
<asrwt>  1 0.44129829E+02</asrwt>
<pdfrwt beam="1">  1        1 0.90393373E+00 0.30000000E+03</pdfrwt>
<pdfrwt beam="2">0</pdfrwt>
<totfact> 0.92662079E-05</totfact>
</mgrwt>
<clustering>
<clus scale="   44.130">  1  6  2 -1</clus>
<clus scale="  466.448">  4  5 -1 -1</clus>
<clus scale="  300.000">  1  4  2 -1</clus>
</clustering>
</event>
<event>
 6    1  0.9131597E-012  0.3000000E+03  0.7818608E-02  0.1093470E+00
          1   -1    0    0  502    0  0.00000000000E+00  0.00000000000E+00  0.24306049512E+03  0.24306049512E+03  0.00000000000E+00 0.  1.
         13   -1    0    0    0    0 -0.00000000000E+00 -0.00000000000E+00 -0.27500000000E+03  0.27500000000E+03  0.00000000000E+00 0.  1.
    9000005    2    1    2  501    0 -0.16389588238E+02  0.29753941314E+02 -0.35111056574E+02  0.48394342657E+03  0.48147122261E+03 0.  0.
         13    1    3    3    0    0  0.12448571684E+03  0.64807731470E+02 -0.21253836114E+03  0.25469450468E+03  0.00000000000E+00 0.  1.
          1    1    3    3  501    0 -0.14087530508E+03 -0.35053790155E+02  0.17742730457E+03  0.22924892190E+03  0.00000000000E+00 0.  1.
         21    1    1    2  502  501  0.16389588238E+02 -0.29753941314E+02  0.31715516970E+01  0.34117068551E+02  0.00000000000E+00 0.  1.
<scales pt_clust_4="550.00000" pt_clust_5="550.00000" pt_clust_6="33.96933"></scales>
<mgrwt>
<rscale>  0 0.30000000E+03</rscale>
<asrwt>  1 0.33969334E+02</asrwt>
<pdfrwt beam="1">  1        1 0.88385635E+00 0.30000000E+03</pdfrwt>
<pdfrwt beam="2">0</pdfrwt>
<totfact> 0.17688908E-04</totfact>
</mgrwt>
<clustering>
<clus scale="   33.969">  1  6  2 -1</clus>
<clus scale="  481.471">  4  5 -1 -1</clus>
<clus scale="  300.000">  1  4  2 -1</clus>
</clustering>
</event>
<event>
 6    1  0.9131597E-012  0.3000000E+03  0.7818608E-02  0.1093470E+00
          1   -1    0    0  502    0  0.00000000000E+00  0.00000000000E+00  0.25401890630E+03  0.25401890630E+03  0.00000000000E+00 0.  1.
         13   -1    0    0    0    0 -0.00000000000E+00 -0.00000000000E+00 -0.27500000000E+03  0.27500000000E+03  0.00000000000E+00 0.  1.
    9000005    2    1    2  501    0  0.39094085150E+02 -0.23568879080E+02 -0.38406050174E+02  0.48015717626E+03  0.47643682652E+03 0.  0.
         13    1    3    3    0    0  0.87242083225E+01 -0.14812913536E+03 -0.21542620339E+03  0.26158517095E+03  0.00000000000E+00 0.  1.
          1    1    3    3  501    0  0.30369876828E+02  0.12456025628E+03  0.17702015321E+03  0.21857200531E+03  0.00000000000E+00 0.  1.
         21    1    1    2  502  501 -0.39094085150E+02  0.23568879080E+02  0.17424956476E+02  0.48861730045E+02  0.00000000000E+00 0. -1.
<scales pt_clust_4="550.00000" pt_clust_5="550.00000" pt_clust_6="45.64909"></scales>
<mgrwt>
<rscale>  0 0.30000000E+03</rscale>
<asrwt>  1 0.45649092E+02</asrwt>
<pdfrwt beam="1">  1        1 0.92370511E+00 0.30000000E+03</pdfrwt>
<pdfrwt beam="2">0</pdfrwt>
<totfact> 0.33231004E-05</totfact>
</mgrwt>
<clustering>
<clus scale="   45.649">  1  6  2 -1</clus>
<clus scale="  476.437">  4  5 -1 -1</clus>
<clus scale="  300.000">  1  4  2 -1</clus>
</clustering>
</event>
<event>
 6    1  0.9131597E-012  0.3000000E+03  0.7818608E-02  0.1093470E+00
          1   -1    0    0  502    0  0.00000000000E+00  0.00000000000E+00  0.22845233824E+03  0.22845233824E+03  0.00000000000E+00 0.  1.
         13   -1    0    0    0    0 -0.00000000000E+00 -0.00000000000E+00 -0.27500000000E+03  0.27500000000E+03  0.00000000000E+00 0.  1.
    9000005    2    1    2  501    0 -0.29975543362E+02  0.21892706843E+02 -0.26024371001E+02  0.46103737299E+03  0.45880319049E+03 0.  0.
         13    1    3    3    0    0 -0.11424738596E+03  0.21838458667E+03 -0.16884600109E+02  0.24704125690E+03  0.00000000000E+00 0.  1.
          1    1    3    3  501    0  0.84271842596E+02 -0.19649187982E+03 -0.91397708922E+01  0.21399611609E+03  0.00000000000E+00 0.  1.
         21    1    1    2  502  501  0.29975543362E+02 -0.21892706843E+02 -0.20523290762E+02  0.42414965242E+02  0.00000000000E+00 0.  1.
<scales pt_clust_4="550.00000" pt_clust_5="550.00000" pt_clust_6="37.11907"></scales>
<mgrwt>
<rscale>  0 0.30000000E+03</rscale>
<asrwt>  1 0.37119068E+02</asrwt>
<pdfrwt beam="1">  1        1 0.83073578E+00 0.30000000E+03</pdfrwt>
<pdfrwt beam="2">0</pdfrwt>
<totfact> 0.57657035E-04</totfact>
</mgrwt>
<clustering>
<clus scale="   37.119">  1  6  2 -1</clus>
<clus scale="  458.803">  4  5 -1 -1</clus>
<clus scale="  300.000">  1  4  2 -1</clus>
</clustering>
</event>
<event>
 6    1  0.9131597E-012  0.3000000E+03  0.7818608E-02  0.1093470E+00
          1   -1    0    0  502    0  0.00000000000E+00  0.00000000000E+00  0.23387401575E+03  0.23387401575E+03  0.00000000000E+00 0.  1.
         13   -1    0    0    0    0 -0.00000000000E+00 -0.00000000000E+00 -0.27500000000E+03  0.27500000000E+03  0.00000000000E+00 0.  1.
    9000005    2    1    2  501    0 -0.30345969949E+02 -0.65906973477E+01 -0.53370902126E+02  0.47549358439E+03  0.47146726336E+03 0.  0.
         13    1    3    3    0    0 -0.19288462208E+03 -0.13966449287E+03 -0.10329451931E+03  0.25957735980E+03  0.00000000000E+00 0.  1.
          3    1    3    3  501    0  0.16253865213E+03  0.13307379552E+03  0.49923617181E+02  0.21591622459E+03  0.00000000000E+00 0.  1.
         21    1    1    2  502  501  0.30345969949E+02  0.65906973477E+01  0.12244917875E+02  0.33380431355E+02  0.00000000000E+00 0. -1.
<scales pt_clust_4="550.00000" pt_clust_5="550.00000" pt_clust_6="31.05342"></scales>
<mgrwt>
<rscale>  0 0.30000000E+03</rscale>
<asrwt>  1 0.31053425E+02</asrwt>
<pdfrwt beam="1">  1        1 0.85045097E+00 0.30000000E+03</pdfrwt>
<pdfrwt beam="2">0</pdfrwt>
<totfact> 0.41225452E-04</totfact>
</mgrwt>
<clustering>
<clus scale="   31.053">  1  6  2 -1</clus>
<clus scale="  471.467">  4  5 -1 -1</clus>
<clus scale="  300.000">  1  4  2 -1</clus>
</clustering>
</event>
<event>
 6    1  0.9131597E-012  0.3000000E+03  0.7818608E-02  0.1093470E+00
          1   -1    0    0  502    0  0.00000000000E+00  0.00000000000E+00  0.23880177533E+03  0.23880177533E+03  0.00000000000E+00 0.  1.
         13   -1    0    0    0    0 -0.00000000000E+00 -0.00000000000E+00 -0.27500000000E+03  0.27500000000E+03  0.00000000000E+00 0.  1.
    9000005    2    1    2  501    0 -0.16729725058E+02 -0.44837167622E+02 -0.37838409296E+02  0.46591706476E+03  0.46190552141E+03 0.  0.
         13    1    3    3    0    0  0.56224044275E+02 -0.21422802015E+02  0.20376148689E+03  0.21245899167E+03  0.00000000000E+00 0.  1.
          3    1    3    3  501    0 -0.72953769333E+02 -0.23414365608E+02 -0.24159989619E+03  0.25345807309E+03  0.00000000000E+00 0.  1.
         21    1    1    2  502  501  0.16729725058E+02  0.44837167622E+02  0.16401846221E+01  0.47884710571E+02  0.00000000000E+00 0. -1.
<scales pt_clust_4="550.00000" pt_clust_5="550.00000" pt_clust_6="47.85661"></scales>
<mgrwt>
<rscale>  0 0.30000000E+03</rscale>
<asrwt>  1 0.47856612E+02</asrwt>
<pdfrwt beam="1">  1        1 0.86837009E+00 0.30000000E+03</pdfrwt>
<pdfrwt beam="2">0</pdfrwt>
<totfact> 0.24866073E-04</totfact>
</mgrwt>
<clustering>
<clus scale="   47.857">  1  6  2 -1</clus>
<clus scale="  461.906">  4  5 -1 -1</clus>
<clus scale="  300.000">  1  4  2 -1</clus>
</clustering>
</event>
<event>
 6    1  0.9131597E-012  0.3000000E+03  0.7818608E-02  0.1093470E+00
          1   -1    0    0  502    0  0.00000000000E+00  0.00000000000E+00  0.23835487826E+03  0.23835487826E+03  0.00000000000E+00 0.  1.
         13   -1    0    0    0    0 -0.00000000000E+00 -0.00000000000E+00 -0.27500000000E+03  0.27500000000E+03  0.00000000000E+00 0.  1.
    9000005    2    1    2  501    0 -0.13343650489E+02 -0.36093256853E+02 -0.70290360215E+01  0.46479678180E+03  0.46314777860E+03 0.  0.
         13    1    3    3    0    0 -0.61699929532E+02  0.71007783452E+02 -0.21008793630E+03  0.23018672332E+03  0.00000000000E+00 0.  1.
          3    1    3    3  501    0  0.48356279044E+02 -0.10710104031E+03  0.20305890028E+03  0.23461005848E+03  0.00000000000E+00 0.  1.
         21    1    1    2  502  501  0.13343650489E+02  0.36093256853E+02 -0.29616085720E+02  0.48558096461E+02  0.00000000000E+00 0. -1.
<scales pt_clust_4="550.00000" pt_clust_5="550.00000" pt_clust_6="38.48087"></scales>
<mgrwt>
<rscale>  0 0.30000000E+03</rscale>
<asrwt>  1 0.38480874E+02</asrwt>
<pdfrwt beam="1">  1        1 0.86674501E+00 0.30000000E+03</pdfrwt>
<pdfrwt beam="2">0</pdfrwt>
<totfact> 0.26893542E-04</totfact>
</mgrwt>
<clustering>
<clus scale="   38.481">  1  6  2 -1</clus>
<clus scale="  463.148">  4  5 -1 -1</clus>
<clus scale="  300.000">  1  4  2 -1</clus>
</clustering>
</event>
<event>
 6    1  0.9131597E-012  0.3000000E+03  0.7818608E-02  0.1093470E+00
          1   -1    0    0  502    0  0.00000000000E+00  0.00000000000E+00  0.23189710146E+03  0.23189710146E+03  0.00000000000E+00 0.  1.
         13   -1    0    0    0    0 -0.00000000000E+00 -0.00000000000E+00 -0.27500000000E+03  0.27500000000E+03  0.00000000000E+00 0.  1.
    9000005    2    1    2  501    0  0.13401004993E+02 -0.33274882038E+02 -0.57124675224E+02  0.46838197546E+03  0.46349934380E+03 0.  0.
         13    1    3    3    0    0 -0.35415695373E+02 -0.23226927552E+03 -0.10596951345E+03  0.25774566070E+03  0.00000000000E+00 0.  1.
          1    1    3    3  501    0  0.48816700366E+02  0.19899439348E+03  0.48844838226E+02  0.21063631476E+03  0.00000000000E+00 0.  1.
         21    1    1    2  502  501 -0.13401004993E+02  0.33274882038E+02  0.14021776685E+02  0.38515126001E+02  0.00000000000E+00 0. -1.
<scales pt_clust_4="550.00000" pt_clust_5="550.00000" pt_clust_6="35.87206"></scales>
<mgrwt>
<rscale>  0 0.30000000E+03</rscale>
<asrwt>  1 0.35872060E+02</asrwt>
<pdfrwt beam="1">  1        1 0.84326219E+00 0.30000000E+03</pdfrwt>
<pdfrwt beam="2">0</pdfrwt>
<totfact> 0.46551099E-04</totfact>
</mgrwt>
<clustering>
<clus scale="   35.872">  1  6  2 -1</clus>
<clus scale="  463.499">  4  5 -1 -1</clus>
<clus scale="  300.000">  1  4  2 -1</clus>
</clustering>
</event>
<event>
 6    1  0.9131597E-012  0.3000000E+03  0.7818608E-02  0.1093470E+00
          1   -1    0    0  502    0  0.00000000000E+00  0.00000000000E+00  0.22600172639E+03  0.22600172639E+03  0.00000000000E+00 0.  1.
         13   -1    0    0    0    0 -0.00000000000E+00 -0.00000000000E+00 -0.27500000000E+03  0.27500000000E+03  0.00000000000E+00 0.  1.
    9000005    2    1    2  501    0 -0.32751431952E+02  0.11790988870E+01 -0.66977396175E+02  0.46362131150E+03  0.45758573220E+03 0.  0.
         13    1    3    3    0    0  0.14190630927E+03  0.88657157995E+02 -0.17357147661E+03  0.24109033528E+03  0.00000000000E+00 0.  1.
          1    1    3    3  501    0 -0.17465774122E+03 -0.87478059108E+02  0.10659408044E+03  0.22253097622E+03  0.00000000000E+00 0.  1.
         21    1    1    2  502  501  0.32751431952E+02 -0.11790988870E+01  0.17979122563E+02  0.37380414889E+02  0.00000000000E+00 0.  1.
<scales pt_clust_4="550.00000" pt_clust_5="550.00000" pt_clust_6="32.77265"></scales>
<mgrwt>
<rscale>  0 0.30000000E+03</rscale>
<asrwt>  1 0.32772650E+02</asrwt>
<pdfrwt beam="1">  1        1 0.82182446E+00 0.30000000E+03</pdfrwt>
<pdfrwt beam="2">0</pdfrwt>
<totfact> 0.70583807E-04</totfact>
</mgrwt>
<clustering>
<clus scale="   32.773">  1  6  2 -1</clus>
<clus scale="  457.586">  4  5 -1 -1</clus>
<clus scale="  300.000">  1  4  2 -1</clus>
</clustering>
</event>
<event>
 6    1  0.9131597E-012  0.3000000E+03  0.7818608E-02  0.1093470E+00
          1   -1    0    0  502    0  0.00000000000E+00  0.00000000000E+00  0.24003299885E+03  0.24003299885E+03  0.00000000000E+00 0.  1.
         13   -1    0    0    0    0 -0.00000000000E+00 -0.00000000000E+00 -0.27500000000E+03  0.27500000000E+03  0.00000000000E+00 0.  1.
    9000005    2    1    2  501    0  0.19311294733E+02  0.28084690993E+02 -0.43378801340E+02  0.47992695443E+03  0.47674572385E+03 0.  0.
         13    1    3    3    0    0 -0.45588415048E+02  0.10162293989E+03 -0.23756379430E+03  0.26237774650E+03  0.00000000000E+00 0.  1.
          3    1    3    3  501    0  0.64899709781E+02 -0.73538248894E+02  0.19418499296E+03  0.21754920793E+03  0.00000000000E+00 0.  1.
         21    1    1    2  502  501 -0.19311294733E+02 -0.28084690993E+02  0.84118001909E+01  0.35106044421E+02  0.00000000000E+00 0.  1.
<scales pt_clust_4="550.00000" pt_clust_5="550.00000" pt_clust_6="34.08337"></scales>
<mgrwt>
<rscale>  0 0.30000000E+03</rscale>
<asrwt>  1 0.34083368E+02</asrwt>
<pdfrwt beam="1">  1        1 0.87284727E+00 0.30000000E+03</pdfrwt>
<pdfrwt beam="2">0</pdfrwt>
<totfact> 0.23801669E-04</totfact>
</mgrwt>
<clustering>
<clus scale="   34.083">  1  6  2 -1</clus>
<clus scale="  476.746">  4  5 -1 -1</clus>
<clus scale="  300.000">  1  4  2 -1</clus>
</clustering>
</event>
<event>
 6    1  0.9131597E-012  0.3000000E+03  0.7818608E-02  0.1093470E+00
          1   -1    0    0  502    0  0.00000000000E+00  0.00000000000E+00  0.22700573678E+03  0.22700573678E+03  0.00000000000E+00 0.  1.
         13   -1    0    0    0    0 -0.00000000000E+00 -0.00000000000E+00 -0.27500000000E+03  0.27500000000E+03  0.00000000000E+00 0.  1.
    9000005    2    1    2  501    0 -0.33856286884E+02 -0.67060188076E+01 -0.62669053265E+02  0.46450149285E+03  0.45895861226E+03 0.  0.
         13    1    3    3    0    0 -0.11745579795E+03 -0.20844015513E+03 -0.79859651123E+01  0.23938867638E+03  0.00000000000E+00 0.  1.
          3    1    3    3  501    0  0.83599511071E+02  0.20173413632E+03 -0.54683088152E+02  0.22511281647E+03  0.00000000000E+00 0.  1.
         21    1    1    2  502  501  0.33856286884E+02  0.67060188076E+01  0.14674790041E+02  0.37504243927E+02  0.00000000000E+00 0.  1.
<scales pt_clust_4="550.00000" pt_clust_5="550.00000" pt_clust_6="34.51404"></scales>
<mgrwt>
<rscale>  0 0.30000000E+03</rscale>
<asrwt>  1 0.34514038E+02</asrwt>
<pdfrwt beam="1">  1        1 0.82547541E+00 0.30000000E+03</pdfrwt>
<pdfrwt beam="2">0</pdfrwt>
<totfact> 0.64852318E-04</totfact>
</mgrwt>
<clustering>
<clus scale="   34.514">  1  6  2 -1</clus>
<clus scale="  458.959">  4  5 -1 -1</clus>
<clus scale="  300.000">  1  4  2 -1</clus>
</clustering>
</event>
<event>
 6    1  0.9131597E-012  0.3000000E+03  0.7818608E-02  0.1093470E+00
          1   -1    0    0  502    0  0.00000000000E+00  0.00000000000E+00  0.24397749092E+03  0.24397749092E+03  0.00000000000E+00 0.  1.
         13   -1    0    0    0    0 -0.00000000000E+00 -0.00000000000E+00 -0.27500000000E+03  0.27500000000E+03  0.00000000000E+00 0.  1.
    9000005    2    1    2  501    0 -0.11459492264E+02  0.28901195348E+02 -0.47068309620E+02  0.48399082531E+03  0.48069230716E+03 0.  0.
         13    1    3    3    0    0  0.89047416346E+02  0.18679984366E+03  0.11469902673E+03  0.23659985351E+03  0.00000000000E+00 0.  1.
          3    1    3    3  501    0 -0.10050690861E+03 -0.15789864831E+03 -0.16176733635E+03  0.24739097180E+03  0.00000000000E+00 0.  1.
         21    1    1    2  502  501  0.11459492264E+02 -0.28901195348E+02  0.16045800541E+02  0.34986665610E+02  0.00000000000E+00 0. -1.
<scales pt_clust_4="550.00000" pt_clust_5="550.00000" pt_clust_6="31.09018"></scales>
<mgrwt>
<rscale>  0 0.30000000E+03</rscale>
<asrwt>  1 0.31090176E+02</asrwt>
<pdfrwt beam="1">  1        1 0.88719088E+00 0.30000000E+03</pdfrwt>
<pdfrwt beam="2">0</pdfrwt>
<totfact> 0.16189424E-04</totfact>
</mgrwt>
<clustering>
<clus scale="   31.090">  1  6  2 -1</clus>
<clus scale="  480.692">  4  5 -1 -1</clus>
<clus scale="  300.000">  1  4  2 -1</clus>
</clustering>
</event>
<event>
 6    1  0.9131597E-012  0.3000000E+03  0.7818608E-02  0.1093470E+00
          1   -1    0    0  502    0  0.00000000000E+00  0.00000000000E+00  0.23205034499E+03  0.23205034499E+03  0.00000000000E+00 0.  1.
         13   -1    0    0    0    0 -0.00000000000E+00 -0.00000000000E+00 -0.27500000000E+03  0.27500000000E+03  0.00000000000E+00 0.  1.
    9000005    2    1    2  501    0  0.34485922181E+02 -0.11775094211E+02 -0.65877277835E+02  0.46399680204E+03  0.45784853925E+03 0.  0.
         13    1    3    3    0    0  0.18949168641E+03  0.14250154160E+03 -0.56615504662E+01  0.23716205795E+03  0.00000000000E+00 0.  1.
          3    1    3    3  501    0 -0.15500576423E+03 -0.15427663581E+03 -0.60215727369E+02  0.22683474409E+03  0.00000000000E+00 0.  1.
         21    1    1    2  502  501 -0.34485922181E+02  0.11775094211E+02  0.22927622830E+02  0.43053542955E+02  0.00000000000E+00 0.  1.
<scales pt_clust_4="550.00000" pt_clust_5="550.00000" pt_clust_6="36.44080"></scales>
<mgrwt>
<rscale>  0 0.30000000E+03</rscale>
<asrwt>  1 0.36440797E+02</asrwt>
<pdfrwt beam="1">  1        1 0.84381944E+00 0.30000000E+03</pdfrwt>
<pdfrwt beam="2">0</pdfrwt>
<totfact> 0.45910813E-04</totfact>
</mgrwt>
<clustering>
<clus scale="   36.441">  1  6  2 -1</clus>
<clus scale="  457.849">  4  5 -1 -1</clus>
<clus scale="  300.000">  1  4  2 -1</clus>
</clustering>
</event>
<event>
 6    1  0.9131597E-012  0.3000000E+03  0.7818608E-02  0.1093470E+00
          1   -1    0    0  502    0  0.00000000000E+00  0.00000000000E+00  0.24458391054E+03  0.24458391054E+03  0.00000000000E+00 0.  1.
         13   -1    0    0    0    0 -0.00000000000E+00 -0.00000000000E+00 -0.27500000000E+03  0.27500000000E+03  0.00000000000E+00 0.  1.
    9000005    2    1    2  501    0 -0.43401173653E+02  0.52939324613E+01 -0.25413657501E+02  0.47557582127E+03  0.47287928713E+03 0.  0.
         13    1    3    3    0    0 -0.17004355214E+03  0.95445499946E+02  0.14642617160E+03  0.24385503237E+03  0.00000000000E+00 0.  1.
          1    1    3    3  501    0  0.12664237848E+03 -0.90151567484E+02 -0.17183982910E+03  0.23172078891E+03  0.00000000000E+00 0.  1.
         21    1    1    2  502  501  0.43401173653E+02 -0.52939324613E+01 -0.50024319591E+01  0.44008089266E+02  0.00000000000E+00 0. -1.
<scales pt_clust_4="550.00000" pt_clust_5="550.00000" pt_clust_6="43.72287"></scales>
<mgrwt>
<rscale>  0 0.30000000E+03</rscale>
<asrwt>  1 0.43722872E+02</asrwt>
<pdfrwt beam="1">  1        1 0.88939604E+00 0.30000000E+03</pdfrwt>
<pdfrwt beam="2">0</pdfrwt>
<totfact> 0.14178066E-04</totfact>
</mgrwt>
<clustering>
<clus scale="   43.723">  1  6  2 -1</clus>
<clus scale="  472.879">  4  5 -1 -1</clus>
<clus scale="  300.000">  1  4  2 -1</clus>
</clustering>
</event>
<event>
 6    1  0.9131597E-012  0.3000000E+03  0.7818608E-02  0.1093470E+00
          1   -1    0    0  502    0  0.00000000000E+00  0.00000000000E+00  0.24585219658E+03  0.24585219658E+03  0.00000000000E+00 0.  1.
         13   -1    0    0    0    0 -0.00000000000E+00 -0.00000000000E+00 -0.27500000000E+03  0.27500000000E+03  0.00000000000E+00 0.  1.
    9000005    2    1    2  501    0 -0.36063724364E+02 -0.17039653408E+02 -0.28602994571E+02  0.48096186166E+03  0.47845087425E+03 0.  0.
         13    1    3    3    0    0 -0.19596346479E+03  0.97082888293E+02 -0.13554432772E+03  0.25729172452E+03  0.00000000000E+00 0.  1.
          3    1    3    3  501    0  0.15989974043E+03 -0.11412254170E+03  0.10694133315E+03  0.22367013714E+03  0.00000000000E+00 0.  1.
         21    1    1    2  502  501  0.36063724364E+02  0.17039653408E+02 -0.54480884595E+00  0.39890334918E+02  0.00000000000E+00 0. -1.
<scales pt_clust_4="550.00000" pt_clust_5="550.00000" pt_clust_6="39.88661"></scales>
<mgrwt>
<rscale>  0 0.30000000E+03</rscale>
<asrwt>  1 0.39886614E+02</asrwt>
<pdfrwt beam="1">  1        1 0.89400799E+00 0.30000000E+03</pdfrwt>
<pdfrwt beam="2">0</pdfrwt>
<totfact> 0.12630631E-04</totfact>
</mgrwt>
<clustering>
<clus scale="   39.887">  1  6  2 -1</clus>
<clus scale="  478.451">  4  5 -1 -1</clus>
<clus scale="  300.000">  1  4  2 -1</clus>
</clustering>
</event>
<event>
 6    1  0.9131597E-012  0.3000000E+03  0.7818608E-02  0.1093470E+00
          1   -1    0    0  502    0  0.00000000000E+00  0.00000000000E+00  0.23285269434E+03  0.23285269434E+03  0.00000000000E+00 0.  1.
         13   -1    0    0    0    0 -0.00000000000E+00 -0.00000000000E+00 -0.27500000000E+03  0.27500000000E+03  0.00000000000E+00 0.  1.
    9000005    2    1    2  501    0  0.22545173725E+02 -0.22319628079E+02 -0.61597301521E+02  0.47064042493E+03  0.46551233213E+03 0.  0.
         13    1    3    3    0    0  0.20357799813E+03 -0.78798008776E+02  0.81559529502E+02  0.23303451324E+03  0.00000000000E+00 0.  1.
          1    1    3    3  501    0 -0.18103282441E+03  0.56478380697E+02 -0.14315683102E+03  0.23760591168E+03  0.00000000000E+00 0.  1.
         21    1    1    2  502  501 -0.22545173725E+02  0.22319628079E+02  0.19449995860E+02  0.37212269412E+02  0.00000000000E+00 0. -1.
<scales pt_clust_4="550.00000" pt_clust_5="550.00000" pt_clust_6="31.72461"></scales>
<mgrwt>
<rscale>  0 0.30000000E+03</rscale>
<asrwt>  1 0.31724606E+02</asrwt>
<pdfrwt beam="1">  1        1 0.84673707E+00 0.30000000E+03</pdfrwt>
<pdfrwt beam="2">0</pdfrwt>
<totfact> 0.44424987E-04</totfact>
</mgrwt>
<clustering>
<clus scale="   31.725">  1  6  2 -1</clus>
<clus scale="  465.512">  4  5 -1 -1</clus>
<clus scale="  300.000">  1  4  2 -1</clus>
</clustering>
</event>
<event>
 6    1  0.9131597E-012  0.3000000E+03  0.7818608E-02  0.1093470E+00
          1   -1    0    0  502    0  0.00000000000E+00  0.00000000000E+00  0.21775895683E+03  0.21775895683E+03  0.00000000000E+00 0.  1.
         13   -1    0    0    0    0 -0.00000000000E+00 -0.00000000000E+00 -0.27500000000E+03  0.27500000000E+03  0.00000000000E+00 0.  1.
    9000005    2    1    2  501    0  0.20339276021E+02 -0.22754367639E+02 -0.59959613632E+02  0.46211849304E+03  0.45719459637E+03 0.  0.
         13    1    3    3    0    0  0.29719486635E+02 -0.94207187384E+02  0.18340047870E+03  0.20831221191E+03  0.00000000000E+00 0.  1.
          3    1    3    3  501    0 -0.93802106142E+01  0.71452819745E+02 -0.24336009234E+03  0.25380628113E+03  0.00000000000E+00 0.  1.
         21    1    1    2  502  501 -0.20339276021E+02  0.22754367639E+02  0.27185704574E+01  0.30640463786E+02  0.00000000000E+00 0. -1.
<scales pt_clust_4="550.00000" pt_clust_5="550.00000" pt_clust_6="30.51962"></scales>
<mgrwt>
<rscale>  0 0.30000000E+03</rscale>
<asrwt>  1 0.30519623E+02</asrwt>
<pdfrwt beam="1">  1        1 0.79185075E+00 0.30000000E+03</pdfrwt>
<pdfrwt beam="2">0</pdfrwt>
<totfact> 0.12237825E-03</totfact>
</mgrwt>
<clustering>
<clus scale="   30.520">  1  6  2 -1</clus>
<clus scale="  457.195">  4  5 -1 -1</clus>
<clus scale="  300.000">  1  4  2 -1</clus>
</clustering>
</event>
<event>
 6    1  0.9131597E-012  0.3000000E+03  0.7818608E-02  0.1093470E+00
          1   -1    0    0  502    0  0.00000000000E+00  0.00000000000E+00  0.24605928291E+03  0.24605928291E+03  0.00000000000E+00 0.  1.
         13   -1    0    0    0    0 -0.00000000000E+00 -0.00000000000E+00 -0.27500000000E+03  0.27500000000E+03  0.00000000000E+00 0.  1.
    9000005    2    1    2  501    0  0.23117180574E+02  0.22206359951E+02 -0.58378954695E+02  0.47753760678E+03  0.47287052887E+03 0.  0.
         13    1    3    3    0    0  0.81559483383E+02 -0.20815100790E+03  0.26621684073E+02  0.22513885822E+03  0.00000000000E+00 0.  1.
          3    1    3    3  501    0 -0.58442302809E+02  0.23035736785E+03 -0.85000638767E+02  0.25239874855E+03  0.00000000000E+00 0.  1.
         21    1    1    2  502  501 -0.23117180574E+02 -0.22206359951E+02  0.29438237600E+02  0.43521676128E+02  0.00000000000E+00 0.  1.
<scales pt_clust_4="550.00000" pt_clust_5="550.00000" pt_clust_6="32.05505"></scales>
<mgrwt>
<rscale>  0 0.30000000E+03</rscale>
<asrwt>  1 0.32055054E+02</asrwt>
<pdfrwt beam="1">  1        1 0.89476103E+00 0.30000000E+03</pdfrwt>
<pdfrwt beam="2">0</pdfrwt>
<totfact> 0.12899465E-04</totfact>
</mgrwt>
<clustering>
<clus scale="   32.055">  1  6  2 -1</clus>
<clus scale="  472.871">  4  5 -1 -1</clus>
<clus scale="  300.000">  1  4  2 -1</clus>
</clustering>
</event>
<event>
 6    1  0.9131597E-012  0.3000000E+03  0.7818608E-02  0.1093470E+00
          1   -1    0    0  502    0  0.00000000000E+00  0.00000000000E+00  0.22774649380E+03  0.22774649380E+03  0.00000000000E+00 0.  1.
         13   -1    0    0    0    0 -0.00000000000E+00 -0.00000000000E+00 -0.27500000000E+03  0.27500000000E+03  0.00000000000E+00 0.  1.
    9000005    2    1    2  501    0 -0.27403554660E+02  0.12643016055E+02 -0.65082858350E+02  0.46769386963E+03  0.46215903819E+03 0.  0.
         13    1    3    3    0    0  0.56094661952E+02  0.17125987346E+03 -0.18004792816E+03  0.25474263835E+03  0.00000000000E+00 0.  1.
          3    1    3    3  501    0 -0.83498216612E+02 -0.15861685740E+03  0.11496506981E+03  0.21295123129E+03  0.00000000000E+00 0.  1.
         21    1    1    2  502  501  0.27403554660E+02 -0.12643016055E+02  0.17829352153E+02  0.35052624169E+02  0.00000000000E+00 0.  1.
<scales pt_clust_4="550.00000" pt_clust_5="550.00000" pt_clust_6="30.17947"></scales>
<mgrwt>
<rscale>  0 0.30000000E+03</rscale>
<asrwt>  1 0.30179474E+02</asrwt>
<pdfrwt beam="1">  1        1 0.82816907E+00 0.30000000E+03</pdfrwt>
<pdfrwt beam="2">0</pdfrwt>
<totfact> 0.62993860E-04</totfact>
</mgrwt>
<clustering>
<clus scale="   30.179">  1  6  2 -1</clus>
<clus scale="  462.159">  4  5 -1 -1</clus>
<clus scale="  300.000">  1  4  2 -1</clus>
</clustering>
</event>
<event>
 6    1  0.9131597E-012  0.3000000E+03  0.7818608E-02  0.1093470E+00
          1   -1    0    0  502    0  0.00000000000E+00  0.00000000000E+00  0.22954120609E+03  0.22954120609E+03  0.00000000000E+00 0.  1.
         13   -1    0    0    0    0 -0.00000000000E+00 -0.00000000000E+00 -0.27500000000E+03  0.27500000000E+03  0.00000000000E+00 0.  1.
    9000005    2    1    2  501    0 -0.41682708933E+01  0.36982267745E+02 -0.48081957095E+02  0.46723244580E+03  0.46325934550E+03 0.  0.
         13    1    3    3    0    0 -0.86536591482E-01 -0.95192458485E+02  0.17998120498E+03  0.20360463106E+03  0.00000000000E+00 0.  1.
          1    1    3    3  501    0 -0.40817343019E+01  0.13217472623E+03 -0.22806316208E+03  0.26362781474E+03  0.00000000000E+00 0.  1.
         21    1    1    2  502  501  0.41682708933E+01 -0.36982267745E+02  0.26231631875E+01  0.37308760297E+02  0.00000000000E+00 0. -1.
<scales pt_clust_4="550.00000" pt_clust_5="550.00000" pt_clust_6="37.21643"></scales>
<mgrwt>
<rscale>  0 0.30000000E+03</rscale>
<asrwt>  1 0.37216429E+02</asrwt>
<pdfrwt beam="1">  1        1 0.83469529E+00 0.30000000E+03</pdfrwt>
<pdfrwt beam="2">0</pdfrwt>
<totfact> 0.53759680E-04</totfact>
</mgrwt>
<clustering>
<clus scale="   37.216">  1  6  2 -1</clus>
<clus scale="  463.259">  4  5 -1 -1</clus>
<clus scale="  300.000">  1  4  2 -1</clus>
</clustering>
</event>
<event>
 6    1  0.9131597E-012  0.3000000E+03  0.7818608E-02  0.1093470E+00
          1   -1    0    0  502    0  0.00000000000E+00  0.00000000000E+00  0.22615640417E+03  0.22615640417E+03  0.00000000000E+00 0.  1.
         13   -1    0    0    0    0 -0.00000000000E+00 -0.00000000000E+00 -0.27500000000E+03  0.27500000000E+03  0.00000000000E+00 0.  1.
    9000005    2    1    2  501    0 -0.27042024948E+02 -0.13927000269E+02 -0.55833069847E+02  0.46994606619E+03  0.46562510778E+03 0.  0.
         13    1    3    3    0    0 -0.50626528488E+02  0.15549002013E+03  0.13617312958E+03  0.21279876166E+03  0.00000000000E+00 0.  1.
          3    1    3    3  501    0  0.23584503540E+02 -0.16941702040E+03 -0.19200619943E+03  0.25714730453E+03  0.00000000000E+00 0.  1.
         21    1    1    2  502  501  0.27042024948E+02  0.13927000269E+02  0.69894740187E+01  0.31210337980E+02  0.00000000000E+00 0. -1.
<scales pt_clust_4="550.00000" pt_clust_5="550.00000" pt_clust_6="30.41763"></scales>
<mgrwt>
<rscale>  0 0.30000000E+03</rscale>
<asrwt>  1 0.30417634E+02</asrwt>
<pdfrwt beam="1">  1        1 0.82238692E+00 0.30000000E+03</pdfrwt>
<pdfrwt beam="2">0</pdfrwt>
<totfact> 0.70777579E-04</totfact>
</mgrwt>
<clustering>
<clus scale="   30.418">  1  6  2 -1</clus>
<clus scale="  465.625">  4  5 -1 -1</clus>
<clus scale="  300.000">  1  4  2 -1</clus>
</clustering>
</event>
<event>
 6    1  0.9131597E-012  0.3000000E+03  0.7818608E-02  0.1093470E+00
          1   -1    0    0  502    0  0.00000000000E+00  0.00000000000E+00  0.23631788948E+03  0.23631788948E+03  0.00000000000E+00 0.  1.
         13   -1    0    0    0    0 -0.00000000000E+00 -0.00000000000E+00 -0.27500000000E+03  0.27500000000E+03  0.00000000000E+00 0.  1.
    9000005    2    1    2  501    0 -0.34437482809E+02  0.56497421548E+01 -0.37943799917E+02  0.47641223218E+03  0.47361484691E+03 0.  0.
         13    1    3    3    0    0  0.22001378363E+03  0.89342450171E+01 -0.10189887763E+02  0.22043075904E+03  0.00000000000E+00 0.  1.
          3    1    3    3  501    0 -0.25445126644E+03 -0.32845028623E+01 -0.27753912154E+02  0.25598147314E+03  0.00000000000E+00 0.  1.
         21    1    1    2  502  501  0.34437482809E+02 -0.56497421548E+01 -0.73831060487E+00  0.34905657295E+02  0.00000000000E+00 0.  1.
<scales pt_clust_4="550.00000" pt_clust_5="550.00000" pt_clust_6="34.89785"></scales>
<mgrwt>
<rscale>  0 0.30000000E+03</rscale>
<asrwt>  1 0.34897848E+02</asrwt>
<pdfrwt beam="1">  1        1 0.85933778E+00 0.30000000E+03</pdfrwt>
<pdfrwt beam="2">0</pdfrwt>
<totfact> 0.32893215E-04</totfact>
</mgrwt>
<clustering>
<clus scale="   34.898">  1  6  2 -1</clus>
<clus scale="  473.615">  4  5 -1 -1</clus>
<clus scale="  300.000">  1  4  2 -1</clus>
</clustering>
</event>
<event>
 6    1  0.9131597E-012  0.3000000E+03  0.7818608E-02  0.1093470E+00
          1   -1    0    0  502    0  0.00000000000E+00  0.00000000000E+00  0.22090329796E+03  0.22090329796E+03  0.00000000000E+00 0.  1.
         13   -1    0    0    0    0 -0.00000000000E+00 -0.00000000000E+00 -0.27500000000E+03  0.27500000000E+03  0.00000000000E+00 0.  1.
    9000005    2    1    2  501    0 -0.32804060299E+02  0.36969636164E+01 -0.53868639820E+02  0.46289078633E+03  0.45855891202E+03 0.  0.
         13    1    3    3    0    0 -0.10295881568E+03 -0.16193602169E+03 -0.16361440812E+03  0.25217745219E+03  0.00000000000E+00 0.  1.
          1    1    3    3  501    0  0.70154755377E+02  0.16563298531E+03  0.10974576830E+03  0.21071333414E+03  0.00000000000E+00 0.  1.
         21    1    1    2  502  501  0.32804060299E+02 -0.36969636164E+01 -0.22806221891E+00  0.33012511635E+02  0.00000000000E+00 0.  1.
<scales pt_clust_4="550.00000" pt_clust_5="550.00000" pt_clust_6="33.01172"></scales>
<mgrwt>
<rscale>  0 0.30000000E+03</rscale>
<asrwt>  1 0.33011724E+02</asrwt>
<pdfrwt beam="1">  1        1 0.80328472E+00 0.30000000E+03</pdfrwt>
<pdfrwt beam="2">0</pdfrwt>
<totfact> 0.99231291E-04</totfact>
</mgrwt>
<clustering>
<clus scale="   33.012">  1  6  2 -1</clus>
<clus scale="  458.559">  4  5 -1 -1</clus>
<clus scale="  300.000">  1  4  2 -1</clus>
</clustering>
</event>
<event>
 6    1  0.9131597E-012  0.3000000E+03  0.7818608E-02  0.1093470E+00
          1   -1    0    0  502    0  0.00000000000E+00  0.00000000000E+00  0.22575694179E+03  0.22575694179E+03  0.00000000000E+00 0.  1.
         13   -1    0    0    0    0 -0.00000000000E+00 -0.00000000000E+00 -0.27500000000E+03  0.27500000000E+03  0.00000000000E+00 0.  1.
    9000005    2    1    2  501    0 -0.52852528632E+01  0.36958284028E+02 -0.53736580540E+02  0.46315321327E+03  0.45850783005E+03 0.  0.
         13    1    3    3    0    0  0.82574032090E+01  0.11406281020E+02 -0.25723002326E+03  0.25761516419E+03  0.00000000000E+00 0.  1.
          1    1    3    3  501    0 -0.13542656072E+02  0.25552003008E+02  0.20349344272E+03  0.20553804908E+03  0.00000000000E+00 0.  1.
         21    1    1    2  502  501  0.52852528632E+01 -0.36958284028E+02  0.44935223322E+01  0.37603728526E+02  0.00000000000E+00 0. -1.
<scales pt_clust_4="550.00000" pt_clust_5="550.00000" pt_clust_6="37.33428"></scales>
<mgrwt>
<rscale>  0 0.30000000E+03</rscale>
<asrwt>  1 0.37334283E+02</asrwt>
<pdfrwt beam="1">  1        1 0.82093433E+00 0.30000000E+03</pdfrwt>
<pdfrwt beam="2">0</pdfrwt>
<totfact> 0.70138548E-04</totfact>
</mgrwt>
<clustering>
<clus scale="   37.334">  1  6  2 -1</clus>
<clus scale="  458.508">  4  5 -1 -1</clus>
<clus scale="  300.000">  1  4  2 -1</clus>
</clustering>
</event>
<event>
 6    1  0.9131597E-012  0.3000000E+03  0.7818608E-02  0.1093470E+00
          1   -1    0    0  502    0  0.00000000000E+00  0.00000000000E+00  0.23110145714E+03  0.23110145714E+03  0.00000000000E+00 0.  1.
         13   -1    0    0    0    0 -0.00000000000E+00 -0.00000000000E+00 -0.27500000000E+03  0.27500000000E+03  0.00000000000E+00 0.  1.
    9000005    2    1    2  501    0 -0.37423908178E+02 -0.10771869034E+01 -0.49084289248E+02  0.46830461599E+03  0.46421787630E+03 0.  0.
         13    1    3    3    0    0  0.11108218459E+02 -0.66418874868E+02  0.19748373152E+03  0.20864966732E+03  0.00000000000E+00 0.  1.
          3    1    3    3  501    0 -0.48532126637E+02  0.65341687965E+02 -0.24656802077E+03  0.25965494867E+03  0.00000000000E+00 0.  1.
         21    1    1    2  502  501  0.37423908178E+02  0.10771869034E+01  0.51857463835E+01  0.37796841145E+02  0.00000000000E+00 0. -1.
<scales pt_clust_4="550.00000" pt_clust_5="550.00000" pt_clust_6="37.43941"></scales>
<mgrwt>
<rscale>  0 0.30000000E+03</rscale>
<asrwt>  1 0.37439408E+02</asrwt>
<pdfrwt beam="1">  1        1 0.84036894E+00 0.30000000E+03</pdfrwt>
<pdfrwt beam="2">0</pdfrwt>
<totfact> 0.48764796E-04</totfact>
</mgrwt>
<clustering>
<clus scale="   37.439">  1  6  2 -1</clus>
<clus scale="  464.218">  4  5 -1 -1</clus>
<clus scale="  300.000">  1  4  2 -1</clus>
</clustering>
</event>
<event>
 6    1  0.9131597E-012  0.3000000E+03  0.7818608E-02  0.1093470E+00
          1   -1    0    0  502    0  0.00000000000E+00  0.00000000000E+00  0.23240753346E+03  0.23240753346E+03  0.00000000000E+00 0.  1.
         13   -1    0    0    0    0 -0.00000000000E+00 -0.00000000000E+00 -0.27500000000E+03  0.27500000000E+03  0.00000000000E+00 0.  1.
    9000005    2    1    2  501    0  0.27649084018E+02 -0.25738624738E+02 -0.53447065264E+02  0.46810395902E+03  0.46350596438E+03 0.  0.
         13    1    3    3    0    0 -0.35929722693E+02  0.83460157205E+02  0.18057449972E+03  0.20214770036E+03  0.00000000000E+00 0.  1.
          3    1    3    3  501    0  0.63578806710E+02 -0.10919878194E+03 -0.23402156498E+03  0.26595625866E+03  0.00000000000E+00 0.  1.
         21    1    1    2  502  501 -0.27649084018E+02  0.25738624738E+02  0.10854598726E+02  0.39303574442E+02  0.00000000000E+00 0.  1.
<scales pt_clust_4="550.00000" pt_clust_5="550.00000" pt_clust_6="37.77497"></scales>
<mgrwt>
<rscale>  0 0.30000000E+03</rscale>
<asrwt>  1 0.37774974E+02</asrwt>
<pdfrwt beam="1">  1        1 0.84511830E+00 0.30000000E+03</pdfrwt>
<pdfrwt beam="2">0</pdfrwt>
<totfact> 0.44440557E-04</totfact>
</mgrwt>
<clustering>
<clus scale="   37.775">  1  6  2 -1</clus>
<clus scale="  463.506">  4  5 -1 -1</clus>
<clus scale="  300.000">  1  4  2 -1</clus>
</clustering>
</event>
<event>
 6    1  0.9131597E-012  0.3000000E+03  0.7818608E-02  0.1093470E+00
          1   -1    0    0  502    0  0.00000000000E+00  0.00000000000E+00  0.23885342175E+03  0.23885342175E+03  0.00000000000E+00 0.  1.
         13   -1    0    0    0    0 -0.00000000000E+00 -0.00000000000E+00 -0.27500000000E+03  0.27500000000E+03  0.00000000000E+00 0.  1.
    9000005    2    1    2  501    0  0.15675038480E+01  0.37205154307E+02 -0.28953208116E+02  0.47592684598E+03  0.47358356590E+03 0.  0.
         13    1    3    3    0    0  0.74117389239E+02  0.45267448580E+02 -0.23861110697E+03  0.25392477165E+03  0.00000000000E+00 0.  1.
          1    1    3    3  501    0 -0.72549885391E+02 -0.80622942730E+01  0.20965789885E+03  0.22200207434E+03  0.00000000000E+00 0.  1.
         21    1    1    2  502  501 -0.15675038480E+01 -0.37205154307E+02 -0.71933701371E+01  0.37926575765E+02  0.00000000000E+00 0.  1.
<scales pt_clust_4="550.00000" pt_clust_5="550.00000" pt_clust_6="37.23818"></scales>
<mgrwt>
<rscale>  0 0.30000000E+03</rscale>
<asrwt>  1 0.37238179E+02</asrwt>
<pdfrwt beam="1">  1        1 0.86855790E+00 0.30000000E+03</pdfrwt>
<pdfrwt beam="2">0</pdfrwt>
<totfact> 0.25903436E-04</totfact>
</mgrwt>
<clustering>
<clus scale="   37.238">  1  6  2 -1</clus>
<clus scale="  473.584">  4  5 -1 -1</clus>
<clus scale="  300.000">  1  4  2 -1</clus>
</clustering>
</event>
<event>
 6    1  0.9131597E-012  0.3000000E+03  0.7818608E-02  0.1093470E+00
          1   -1    0    0  502    0  0.00000000000E+00  0.00000000000E+00  0.23044501079E+03  0.23044501079E+03  0.00000000000E+00 0.  1.
         13   -1    0    0    0    0 -0.00000000000E+00 -0.00000000000E+00 -0.27500000000E+03  0.27500000000E+03  0.00000000000E+00 0.  1.
    9000005    2    1    2  501    0 -0.15786425783E+02  0.27826347073E+02 -0.41202221825E+02  0.47327735809E+03  0.47039379011E+03 0.  0.
         13    1    3    3    0    0 -0.91501735408E+02  0.23341031551E+03 -0.41963163473E+02  0.25419254524E+03  0.00000000000E+00 0.  1.
          1    1    3    3  501    0  0.75715309625E+02 -0.20558396844E+03  0.76094164828E+00  0.21908481285E+03  0.00000000000E+00 0.  1.
         21    1    1    2  502  501  0.15786425783E+02 -0.27826347073E+02 -0.33527673896E+01  0.32167652691E+02  0.00000000000E+00 0. -1.
<scales pt_clust_4="550.00000" pt_clust_5="550.00000" pt_clust_6="31.99247"></scales>
<mgrwt>
<rscale>  0 0.30000000E+03</rscale>
<asrwt>  1 0.31992466E+02</asrwt>
<pdfrwt beam="1">  1        1 0.83798186E+00 0.30000000E+03</pdfrwt>
<pdfrwt beam="2">0</pdfrwt>
<totfact> 0.52342313E-04</totfact>
</mgrwt>
<clustering>
<clus scale="   31.992">  1  6  2 -1</clus>
<clus scale="  470.394">  4  5 -1 -1</clus>
<clus scale="  300.000">  1  4  2 -1</clus>
</clustering>
</event>
<event>
 6    1  0.9131597E-012  0.3000000E+03  0.7818608E-02  0.1093470E+00
          1   -1    0    0  502    0  0.00000000000E+00  0.00000000000E+00  0.24238148121E+03  0.24238148121E+03  0.00000000000E+00 0.  1.
         13   -1    0    0    0    0 -0.00000000000E+00 -0.00000000000E+00 -0.27500000000E+03  0.27500000000E+03  0.00000000000E+00 0.  1.
    9000005    2    1    2  501    0  0.27869146870E+02 -0.31797244256E+02 -0.56343083599E+02  0.46889840102E+03  0.46357676098E+03 0.  0.
         13    1    3    3    0    0 -0.12560926435E+03 -0.11460949109E+02  0.15945408316E+03  0.20330923560E+03  0.00000000000E+00 0.  1.
          1    1    3    3  501    0  0.15347841122E+03 -0.20336295147E+02 -0.21579716675E+03  0.26558916542E+03  0.00000000000E+00 0.  1.
         21    1    1    2  502  501 -0.27869146870E+02  0.31797244256E+02  0.23724564809E+02  0.48483080192E+02  0.00000000000E+00 0.  1.
<scales pt_clust_4="550.00000" pt_clust_5="550.00000" pt_clust_6="42.28184"></scales>
<mgrwt>
<rscale>  0 0.30000000E+03</rscale>
<asrwt>  1 0.42281841E+02</asrwt>
<pdfrwt beam="1">  1        1 0.88138720E+00 0.30000000E+03</pdfrwt>
<pdfrwt beam="2">0</pdfrwt>
<totfact> 0.18312806E-04</totfact>
</mgrwt>
<clustering>
<clus scale="   42.282">  1  6  2 -1</clus>
<clus scale="  463.577">  4  5 -1 -1</clus>
<clus scale="  300.000">  1  4  2 -1</clus>
</clustering>
</event>
<event>
 6    1  0.9131597E-012  0.3000000E+03  0.7818608E-02  0.1093470E+00
          1   -1    0    0  502    0  0.00000000000E+00  0.00000000000E+00  0.24210530543E+03  0.24210530543E+03  0.00000000000E+00 0.  1.
         13   -1    0    0    0    0 -0.00000000000E+00 -0.00000000000E+00 -0.27500000000E+03  0.27500000000E+03  0.00000000000E+00 0.  1.
    9000005    2    1    2  501    0 -0.74316355506E+01 -0.33127096651E+02 -0.59617871571E+02  0.47389926501E+03  0.46890680207E+03 0.  0.
         13    1    3    3    0    0 -0.21276542710E+03 -0.99299164199E+02  0.36688888330E+02  0.23764579842E+03  0.00000000000E+00 0.  1.
          3    1    3    3  501    0  0.20533379155E+03  0.66172067548E+02 -0.96306759901E+02  0.23625346659E+03  0.00000000000E+00 0.  1.
         21    1    1    2  502  501  0.74316355506E+01  0.33127096651E+02  0.26723177001E+02  0.43206040417E+02  0.00000000000E+00 0.  1.
<scales pt_clust_4="550.00000" pt_clust_5="550.00000" pt_clust_6="33.95046"></scales>
<mgrwt>
<rscale>  0 0.30000000E+03</rscale>
<asrwt>  1 0.33950460E+02</asrwt>
<pdfrwt beam="1">  1        1 0.88038293E+00 0.30000000E+03</pdfrwt>
<pdfrwt beam="2">0</pdfrwt>
<totfact> 0.19634951E-04</totfact>
</mgrwt>
<clustering>
<clus scale="   33.950">  1  6  2 -1</clus>
<clus scale="  468.907">  4  5 -1 -1</clus>
<clus scale="  300.000">  1  4  2 -1</clus>
</clustering>
</event>
<event>
 6    1  0.9131597E-012  0.3000000E+03  0.7818608E-02  0.1093470E+00
          1   -1    0    0  502    0  0.00000000000E+00  0.00000000000E+00  0.24080357520E+03  0.24080357520E+03  0.00000000000E+00 0.  1.
         13   -1    0    0    0    0 -0.00000000000E+00 -0.00000000000E+00 -0.27500000000E+03  0.27500000000E+03  0.00000000000E+00 0.  1.
    9000005    2    1    2  501    0  0.31171422262E+02  0.23845146196E+02 -0.63424112228E+02  0.46686988256E+03  0.46087375784E+03 0.  0.
         13    1    3    3    0    0 -0.10962133955E+02 -0.21344741232E+03 -0.72512202382E+02  0.22569445208E+03  0.00000000000E+00 0.  1.
          1    1    3    3  501    0  0.42133556217E+02  0.23729255851E+03  0.90880901546E+01  0.24117543048E+03  0.00000000000E+00 0.  1.
         21    1    1    2  502  501 -0.31171422262E+02 -0.23845146196E+02  0.29227687430E+02  0.48933692640E+02  0.00000000000E+00 0. -1.
<scales pt_clust_4="550.00000" pt_clust_5="550.00000" pt_clust_6="39.24600"></scales>
<mgrwt>
<rscale>  0 0.30000000E+03</rscale>
<asrwt>  1 0.39246001E+02</asrwt>
<pdfrwt beam="1">  1        1 0.87564936E+00 0.30000000E+03</pdfrwt>
<pdfrwt beam="2">0</pdfrwt>
<totfact> 0.21673172E-04</totfact>
</mgrwt>
<clustering>
<clus scale="   39.246">  1  6  2 -1</clus>
<clus scale="  460.874">  4  5 -1 -1</clus>
<clus scale="  300.000">  1  4  2 -1</clus>
</clustering>
</event>
<event>
 6    1  0.9131597E-012  0.3000000E+03  0.7818608E-02  0.1093470E+00
          1   -1    0    0  502    0  0.00000000000E+00  0.00000000000E+00  0.22841537760E+03  0.22841537760E+03  0.00000000000E+00 0.  1.
         13   -1    0    0    0    0 -0.00000000000E+00 -0.00000000000E+00 -0.27500000000E+03  0.27500000000E+03  0.00000000000E+00 0.  1.
    9000005    2    1    2  501    0 -0.32305571988E+02 -0.58764624652E+01 -0.55825350431E+02  0.46930417933E+03  0.46481368332E+03 0.  0.
         13    1    3    3    0    0 -0.15307133318E+03  0.18497003074E+03 -0.26013343779E+02  0.24149832167E+03  0.00000000000E+00 0.  1.
          3    1    3    3  501    0  0.12076576120E+03 -0.19084649320E+03 -0.29812006652E+02  0.22780585767E+03  0.00000000000E+00 0.  1.
         21    1    1    2  502  501  0.32305571988E+02  0.58764624652E+01  0.92407280315E+01  0.34111198266E+02  0.00000000000E+00 0.  1.
<scales pt_clust_4="550.00000" pt_clust_5="550.00000" pt_clust_6="32.83569"></scales>
<mgrwt>
<rscale>  0 0.30000000E+03</rscale>
<asrwt>  1 0.32835694E+02</asrwt>
<pdfrwt beam="1">  1        1 0.83060137E+00 0.30000000E+03</pdfrwt>
<pdfrwt beam="2">0</pdfrwt>
<totfact> 0.59142681E-04</totfact>
</mgrwt>
<clustering>
<clus scale="   32.836">  1  6  2 -1</clus>
<clus scale="  464.814">  4  5 -1 -1</clus>
<clus scale="  300.000">  1  4  2 -1</clus>
</clustering>
</event>
<event>
 6    1  0.9131597E-012  0.3000000E+03  0.7818608E-02  0.1093470E+00
          1   -1    0    0  502    0  0.00000000000E+00  0.00000000000E+00  0.22796280131E+03  0.22796280131E+03  0.00000000000E+00 0.  1.
         13   -1    0    0    0    0 -0.00000000000E+00 -0.00000000000E+00 -0.27500000000E+03  0.27500000000E+03  0.00000000000E+00 0.  1.
    9000005    2    1    2  501    0 -0.25397950523E+02 -0.19475899330E+02 -0.49302123620E+02  0.47087703452E+03  0.46719387378E+03 0.  0.
         13    1    3    3    0    0 -0.43344720617E+02  0.22137322810E+03 -0.40615388867E+02  0.22920401554E+03  0.00000000000E+00 0.  1.
          1    1    3    3  501    0  0.17946770094E+02 -0.24084912743E+03 -0.86867347523E+01  0.24167301898E+03  0.00000000000E+00 0.  1.
         21    1    1    2  502  501  0.25397950523E+02  0.19475899330E+02  0.22649249255E+01  0.32085766788E+02  0.00000000000E+00 0.  1.
<scales pt_clust_4="550.00000" pt_clust_5="550.00000" pt_clust_6="32.00573"></scales>
<mgrwt>
<rscale>  0 0.30000000E+03</rscale>
<asrwt>  1 0.32005727E+02</asrwt>
<pdfrwt beam="1">  1        1 0.82895564E+00 0.30000000E+03</pdfrwt>
<pdfrwt beam="2">0</pdfrwt>
<totfact> 0.61330475E-04</totfact>
</mgrwt>
<clustering>
<clus scale="   32.006">  1  6  2 -1</clus>
<clus scale="  467.194">  4  5 -1 -1</clus>
<clus scale="  300.000">  1  4  2 -1</clus>
</clustering>
</event>
<event>
 6    1  0.9131597E-012  0.3000000E+03  0.7818608E-02  0.1093470E+00
          1   -1    0    0  502    0  0.00000000000E+00  0.00000000000E+00  0.21754535432E+03  0.21754535432E+03  0.00000000000E+00 0.  1.
         13   -1    0    0    0    0 -0.00000000000E+00 -0.00000000000E+00 -0.27500000000E+03  0.27500000000E+03  0.00000000000E+00 0.  1.
    9000005    2    1    2  501    0  0.13766036994E+01  0.31059499621E+02 -0.56107978649E+02  0.46142621123E+03  0.45694579064E+03 0.  0.
         13    1    3    3    0    0 -0.10184435945E+03 -0.13897914785E+03  0.10817236267E+03  0.20344222062E+03  0.00000000000E+00 0.  1.
          1    1    3    3  501    0  0.10322096315E+03  0.17003864747E+03 -0.16428034132E+03  0.25798399060E+03  0.00000000000E+00 0.  1.
         21    1    1    2  502  501 -0.13766036994E+01 -0.31059499621E+02 -0.13466670351E+01  0.31119143088E+02  0.00000000000E+00 0. -1.
<scales pt_clust_4="550.00000" pt_clust_5="550.00000" pt_clust_6="31.08999"></scales>
<mgrwt>
<rscale>  0 0.30000000E+03</rscale>
<asrwt>  1 0.31089991E+02</asrwt>
<pdfrwt beam="1">  1        1 0.79107402E+00 0.30000000E+03</pdfrwt>
<pdfrwt beam="2">0</pdfrwt>
<totfact> 0.12366906E-03</totfact>
</mgrwt>
<clustering>
<clus scale="   31.090">  1  6  2 -1</clus>
<clus scale="  456.946">  4  5 -1 -1</clus>
<clus scale="  300.000">  1  4  2 -1</clus>
</clustering>
</event>
<event>
 6    1  0.9131597E-012  0.3000000E+03  0.7818608E-02  0.1093470E+00
          1   -1    0    0  502    0  0.00000000000E+00  0.00000000000E+00  0.24872714578E+03  0.24872714578E+03  0.00000000000E+00 0.  1.
         13   -1    0    0    0    0 -0.00000000000E+00 -0.00000000000E+00 -0.27500000000E+03  0.27500000000E+03  0.00000000000E+00 0.  1.
    9000005    2    1    2  501    0 -0.38361584758E+02 -0.11039149709E+02 -0.48209671423E+02  0.47817829332E+03  0.47406416630E+03 0.  0.
         13    1    3    3    0    0 -0.20170004339E+03 -0.15589680047E+03 -0.15539261688E+01  0.25492966596E+03  0.00000000000E+00 0.  1.
          3    1    3    3  501    0  0.16333845863E+03  0.14485765076E+03 -0.46655745254E+02  0.22324862736E+03  0.00000000000E+00 0.  1.
         21    1    1    2  502  501  0.38361584758E+02  0.11039149709E+02  0.21936817204E+02  0.45548852461E+02  0.00000000000E+00 0. -1.
<scales pt_clust_4="550.00000" pt_clust_5="550.00000" pt_clust_6="39.91834"></scales>
<mgrwt>
<rscale>  0 0.30000000E+03</rscale>
<asrwt>  1 0.39918342E+02</asrwt>
<pdfrwt beam="1">  1        1 0.90446235E+00 0.30000000E+03</pdfrwt>
<pdfrwt beam="2">0</pdfrwt>
<totfact> 0.92339262E-05</totfact>
</mgrwt>
<clustering>
<clus scale="   39.918">  1  6  2 -1</clus>
<clus scale="  474.064">  4  5 -1 -1</clus>
<clus scale="  300.000">  1  4  2 -1</clus>
</clustering>
</event>
<event>
 6    1  0.9131597E-012  0.3000000E+03  0.7818608E-02  0.1093470E+00
          1   -1    0    0  502    0  0.00000000000E+00  0.00000000000E+00  0.23491633901E+03  0.23491633901E+03  0.00000000000E+00 0.  1.
         13   -1    0    0    0    0 -0.00000000000E+00 -0.00000000000E+00 -0.27500000000E+03  0.27500000000E+03  0.00000000000E+00 0.  1.
    9000005    2    1    2  501    0  0.31256915539E+02  0.17707990511E+02 -0.49987981338E+02  0.47265156666E+03  0.46862579687E+03 0.  0.
         13    1    3    3    0    0  0.18388124968E+03 -0.33310696989E+02 -0.18472743550E+03  0.26276632574E+03  0.00000000000E+00 0.  1.
          3    1    3    3  501    0 -0.15262433414E+03  0.51018687500E+02  0.13473945416E+03  0.20988524092E+03  0.00000000000E+00 0.  1.
         21    1    1    2  502  501 -0.31256915539E+02 -0.17707990511E+02  0.99043203484E+01  0.37264772353E+02  0.00000000000E+00 0.  1.
<scales pt_clust_4="550.00000" pt_clust_5="550.00000" pt_clust_6="35.92447"></scales>
<mgrwt>
<rscale>  0 0.30000000E+03</rscale>
<asrwt>  1 0.35924472E+02</asrwt>
<pdfrwt beam="1">  1        1 0.85424123E+00 0.30000000E+03</pdfrwt>
<pdfrwt beam="2">0</pdfrwt>
<totfact> 0.36885473E-04</totfact>
</mgrwt>
<clustering>
<clus scale="   35.924">  1  6  2 -1</clus>
<clus scale="  468.626">  4  5 -1 -1</clus>
<clus scale="  300.000">  1  4  2 -1</clus>
</clustering>
</event>
<event>
 6    1  0.9131597E-012  0.3000000E+03  0.7818608E-02  0.1093470E+00
          1   -1    0    0  502    0  0.00000000000E+00  0.00000000000E+00  0.22339004694E+03  0.22339004694E+03  0.00000000000E+00 0.  1.
         13   -1    0    0    0    0 -0.00000000000E+00 -0.00000000000E+00 -0.27500000000E+03  0.27500000000E+03  0.00000000000E+00 0.  1.
    9000005    2    1    2  501    0 -0.67678637142E+01 -0.29872645146E+02 -0.42547090231E+02  0.46644768651E+03  0.46349219029E+03 0.  0.
         13    1    3    3    0    0 -0.17514235782E+03 -0.14423095595E+03  0.65308546580E+02  0.23609875140E+03  0.00000000000E+00 0.  1.
          1    1    3    3  501    0  0.16837449411E+03  0.11435831080E+03 -0.10785563681E+03  0.23034893511E+03  0.00000000000E+00 0.  1.
         21    1    1    2  502  501  0.67678637142E+01  0.29872645146E+02 -0.90628628255E+01  0.31942360430E+02  0.00000000000E+00 0.  1.
<scales pt_clust_4="550.00000" pt_clust_5="550.00000" pt_clust_6="30.62972"></scales>
<mgrwt>
<rscale>  0 0.30000000E+03</rscale>
<asrwt>  1 0.30629722E+02</asrwt>
<pdfrwt beam="1">  1        1 0.81232744E+00 0.30000000E+03</pdfrwt>
<pdfrwt beam="2">0</pdfrwt>
<totfact> 0.85758649E-04</totfact>
</mgrwt>
<clustering>
<clus scale="   30.630">  1  6  2 -1</clus>
<clus scale="  463.492">  4  5 -1 -1</clus>
<clus scale="  300.000">  1  4  2 -1</clus>
</clustering>
</event>
<event>
 6    1  0.9131597E-012  0.3000000E+03  0.7818608E-02  0.1093470E+00
          1   -1    0    0  502    0  0.00000000000E+00  0.00000000000E+00  0.24248483578E+03  0.24248483578E+03  0.00000000000E+00 0.  1.
         13   -1    0    0    0    0 -0.00000000000E+00 -0.00000000000E+00 -0.27500000000E+03  0.27500000000E+03  0.00000000000E+00 0.  1.
    9000005    2    1    2  501    0  0.20906711835E+02 -0.21953220892E+02 -0.24581276537E+02  0.48614825841E+03  0.48457904979E+03 0.  0.
         13    1    3    3    0    0  0.38734890261E+02 -0.22096418753E+02 -0.25306798548E+03  0.25696701874E+03  0.00000000000E+00 0.  1.
          3    1    3    3  501    0 -0.17828178426E+02  0.14319786106E+00  0.22848670895E+03  0.22918123967E+03  0.00000000000E+00 0.  1.
         21    1    1    2  502  501 -0.20906711835E+02  0.21953220892E+02 -0.79338876840E+01  0.31336577366E+02  0.00000000000E+00 0. -1.
<scales pt_clust_4="550.00000" pt_clust_5="550.00000" pt_clust_6="30.31560"></scales>
<mgrwt>
<rscale>  0 0.30000000E+03</rscale>
<asrwt>  1 0.30315597E+02</asrwt>
<pdfrwt beam="1">  1        1 0.88176304E+00 0.30000000E+03</pdfrwt>
<pdfrwt beam="2">0</pdfrwt>
<totfact> 0.19267636E-04</totfact>
</mgrwt>
<clustering>
<clus scale="   30.316">  1  6  2 -1</clus>
<clus scale="  484.579">  4  5 -1 -1</clus>
<clus scale="  300.000">  1  4  2 -1</clus>
</clustering>
</event>
<event>
 6    1  0.9131597E-012  0.3000000E+03  0.7818608E-02  0.1093470E+00
          1   -1    0    0  502    0  0.00000000000E+00  0.00000000000E+00  0.26811608187E+03  0.26811608187E+03  0.00000000000E+00 0.  1.
         13   -1    0    0    0    0 -0.00000000000E+00 -0.00000000000E+00 -0.27500000000E+03  0.27500000000E+03  0.00000000000E+00 0.  1.
    9000005    2    1    2  501    0  0.27710228971E+02 -0.18335596063E+02 -0.21619740875E+02  0.50676783095E+03  0.50521497446E+03 0.  0.
         13    1    3    3    0    0  0.17993023406E+03  0.13370011116E+03 -0.13692371479E+03  0.26267606005E+03  0.00000000000E+00 0.  1.
          1    1    3    3  501    0 -0.15222000509E+03 -0.15203570722E+03  0.11530397391E+03  0.24409177090E+03  0.00000000000E+00 0.  1.
         21    1    1    2  502  501 -0.27710228971E+02  0.18335596063E+02  0.14735822744E+02  0.36348250914E+02  0.00000000000E+00 0.  1.
<scales pt_clust_4="550.00000" pt_clust_5="550.00000" pt_clust_6="33.22726"></scales>
<mgrwt>
<rscale>  0 0.30000000E+03</rscale>
<asrwt>  1 0.33227261E+02</asrwt>
<pdfrwt beam="1">  1        1 0.97496757E+00 0.30000000E+03</pdfrwt>
<pdfrwt beam="2">0</pdfrwt>
<totfact> 0.41276140E-06</totfact>
</mgrwt>
<clustering>
<clus scale="   33.227">  1  6  2 -1</clus>
<clus scale="  505.215">  4  5 -1 -1</clus>
<clus scale="  300.000">  1  4  2 -1</clus>
</clustering>
</event>
<event>
 6    1  0.9131597E-012  0.3000000E+03  0.7818608E-02  0.1093470E+00
          1   -1    0    0  502    0  0.00000000000E+00  0.00000000000E+00  0.24034204930E+03  0.24034204930E+03  0.00000000000E+00 0.  1.
         13   -1    0    0    0    0 -0.00000000000E+00 -0.00000000000E+00 -0.27500000000E+03  0.27500000000E+03  0.00000000000E+00 0.  1.
    9000005    2    1    2  501    0  0.17552795945E+02 -0.39444890275E+02 -0.15710895174E+02  0.46819344458E+03  0.46593376064E+03 0.  0.
         13    1    3    3    0    0  0.17810404694E+03 -0.21536939556E+01  0.15118314309E+03  0.23362797925E+03  0.00000000000E+00 0.  1.
          3    1    3    3  501    0 -0.16055125099E+03 -0.37291196320E+02 -0.16689403826E+03  0.23456546533E+03  0.00000000000E+00 0.  1.
         21    1    1    2  502  501 -0.17552795945E+02  0.39444890275E+02 -0.18947055524E+02  0.47148604723E+02  0.00000000000E+00 0.  1.
<scales pt_clust_4="550.00000" pt_clust_5="550.00000" pt_clust_6="43.17409"></scales>
<mgrwt>
<rscale>  0 0.30000000E+03</rscale>
<asrwt>  1 0.43174088E+02</asrwt>
<pdfrwt beam="1">  1        1 0.87397109E+00 0.30000000E+03</pdfrwt>
<pdfrwt beam="2">0</pdfrwt>
<totfact> 0.22187531E-04</totfact>
</mgrwt>
<clustering>
<clus scale="   43.174">  1  6  2 -1</clus>
<clus scale="  465.934">  4  5 -1 -1</clus>
<clus scale="  300.000">  1  4  2 -1</clus>
</clustering>
</event>
<event>
 6    1  0.9131597E-012  0.3000000E+03  0.7818608E-02  0.1093470E+00
          1   -1    0    0  502    0  0.00000000000E+00  0.00000000000E+00  0.24301857989E+03  0.24301857989E+03  0.00000000000E+00 0.  1.
         13   -1    0    0    0    0 -0.00000000000E+00 -0.00000000000E+00 -0.27500000000E+03  0.27500000000E+03  0.00000000000E+00 0.  1.
    9000005    2    1    2  501    0  0.35317719310E+02 -0.94353486328E+01 -0.49461386843E+02  0.47749801304E+03  0.47352038664E+03 0.  0.
         13    1    3    3    0    0  0.94892425132E+02  0.16305070055E+03  0.12397471364E+03  0.22574284688E+03  0.00000000000E+00 0.  1.
          3    1    3    3  501    0 -0.59574705822E+02 -0.17248604918E+03 -0.17343610048E+03  0.25175516615E+03  0.00000000000E+00 0.  1.
         21    1    1    2  502  501 -0.35317719310E+02  0.94353486328E+01  0.17479966731E+02  0.40520566851E+02  0.00000000000E+00 0. -1.
<scales pt_clust_4="550.00000" pt_clust_5="550.00000" pt_clust_6="36.55636"></scales>
<mgrwt>
<rscale>  0 0.30000000E+03</rscale>
<asrwt>  1 0.36556355E+02</asrwt>
<pdfrwt beam="1">  1        1 0.88370393E+00 0.30000000E+03</pdfrwt>
<pdfrwt beam="2">0</pdfrwt>
<totfact> 0.17530815E-04</totfact>
</mgrwt>
<clustering>
<clus scale="   36.556">  1  6  2 -1</clus>
<clus scale="  473.520">  4  5 -1 -1</clus>
<clus scale="  300.000">  1  4  2 -1</clus>
</clustering>
</event>
<event>
 6    1  0.9131597E-012  0.3000000E+03  0.7818608E-02  0.1093470E+00
          1   -1    0    0  502    0  0.00000000000E+00  0.00000000000E+00  0.22793204230E+03  0.22793204230E+03  0.00000000000E+00 0.  1.
         13   -1    0    0    0    0 -0.00000000000E+00 -0.00000000000E+00 -0.27500000000E+03  0.27500000000E+03  0.00000000000E+00 0.  1.
    9000005    2    1    2  501    0 -0.75507469908E+01  0.32320358874E+02 -0.66363788598E+02  0.46454000578E+03  0.45857567005E+03 0.  0.
         13    1    3    3    0    0  0.25821686322E+02  0.73832017142E+02  0.18854538835E+03  0.20412567136E+03  0.00000000000E+00 0.  1.
          3    1    3    3  501    0 -0.33372433313E+02 -0.41511658268E+02 -0.25490917695E+03  0.26041433442E+03  0.00000000000E+00 0.  1.
         21    1    1    2  502  501  0.75507469908E+01 -0.32320358874E+02  0.19295830900E+02  0.38392036518E+02  0.00000000000E+00 0.  1.
<scales pt_clust_4="550.00000" pt_clust_5="550.00000" pt_clust_6="33.19065"></scales>
<mgrwt>
<rscale>  0 0.30000000E+03</rscale>
<asrwt>  1 0.33190652E+02</asrwt>
<pdfrwt beam="1">  1        1 0.82884379E+00 0.30000000E+03</pdfrwt>
<pdfrwt beam="2">0</pdfrwt>
<totfact> 0.61042992E-04</totfact>
</mgrwt>
<clustering>
<clus scale="   33.191">  1  6  2 -1</clus>
<clus scale="  458.576">  4  5 -1 -1</clus>
<clus scale="  300.000">  1  4  2 -1</clus>
</clustering>
</event>
<event>
 6    1  0.9131597E-012  0.3000000E+03  0.7818608E-02  0.1093470E+00
          1   -1    0    0  502    0  0.00000000000E+00  0.00000000000E+00  0.23949159783E+03  0.23949159783E+03  0.00000000000E+00 0.  1.
         13   -1    0    0    0    0 -0.00000000000E+00 -0.00000000000E+00 -0.27500000000E+03  0.27500000000E+03  0.00000000000E+00 0.  1.
    9000005    2    1    2  501    0  0.16419282932E+02 -0.36434492317E+02 -0.34292150095E+02  0.47450979758E+03  0.47157876474E+03 0.  0.
         13    1    3    3    0    0 -0.15879836448E+03  0.99054428536E+02 -0.13543043895E+03  0.23101970515E+03  0.00000000000E+00 0.  1.
          3    1    3    3  501    0  0.17521764741E+03 -0.13548892085E+03  0.10113828885E+03  0.24349009243E+03  0.00000000000E+00 0.  1.
         21    1    1    2  502  501 -0.16419282932E+02  0.36434492317E+02 -0.12162520735E+01  0.39981800253E+02  0.00000000000E+00 0. -1.
<scales pt_clust_4="550.00000" pt_clust_5="550.00000" pt_clust_6="39.96330"></scales>
<mgrwt>
<rscale>  0 0.30000000E+03</rscale>
<asrwt>  1 0.39963297E+02</asrwt>
<pdfrwt beam="1">  1        1 0.87087854E+00 0.30000000E+03</pdfrwt>
<pdfrwt beam="2">0</pdfrwt>
<totfact> 0.24206764E-04</totfact>
</mgrwt>
<clustering>
<clus scale="   39.963">  1  6  2 -1</clus>
<clus scale="  471.579">  4  5 -1 -1</clus>
<clus scale="  300.000">  1  4  2 -1</clus>
</clustering>
</event>
<event>
 6    1  0.9131597E-012  0.3000000E+03  0.7818608E-02  0.1093470E+00
          1   -1    0    0  502    0  0.00000000000E+00  0.00000000000E+00  0.24357911745E+03  0.24357911745E+03  0.00000000000E+00 0.  1.
         13   -1    0    0    0    0 -0.00000000000E+00 -0.00000000000E+00 -0.27500000000E+03  0.27500000000E+03  0.00000000000E+00 0.  1.
    9000005    2    1    2  501    0  0.35342505945E+02  0.81654169571E+01 -0.43657304277E+02  0.48029731006E+03  0.47693162935E+03 0.  0.
         13    1    3    3    0    0  0.23784205934E+03  0.54786549029E+02  0.55121077235E+02  0.25021739408E+03  0.00000000000E+00 0.  1.
          3    1    3    3  501    0 -0.20249955340E+03 -0.46621132072E+02 -0.98778381512E+02  0.23007991598E+03  0.00000000000E+00 0.  1.
         21    1    1    2  502  501 -0.35342505945E+02 -0.81654169571E+01  0.12236421731E+02  0.38281807393E+02  0.00000000000E+00 0. -1.
<scales pt_clust_4="550.00000" pt_clust_5="550.00000" pt_clust_6="36.27350"></scales>
<mgrwt>
<rscale>  0 0.30000000E+03</rscale>
<asrwt>  1 0.36273499E+02</asrwt>
<pdfrwt beam="1">  1        1 0.88574225E+00 0.30000000E+03</pdfrwt>
<pdfrwt beam="2">0</pdfrwt>
<totfact> 0.16466796E-04</totfact>
</mgrwt>
<clustering>
<clus scale="   36.273">  1  6  2 -1</clus>
<clus scale="  476.932">  4  5 -1 -1</clus>
<clus scale="  300.000">  1  4  2 -1</clus>
</clustering>
</event>
<event>
 6    1  0.9131597E-012  0.3000000E+03  0.7818608E-02  0.1093470E+00
          1   -1    0    0  502    0  0.00000000000E+00  0.00000000000E+00  0.23327246409E+03  0.23327246409E+03  0.00000000000E+00 0.  1.
         13   -1    0    0    0    0 -0.00000000000E+00 -0.00000000000E+00 -0.27500000000E+03  0.27500000000E+03  0.00000000000E+00 0.  1.
    9000005    2    1    2  501    0  0.29760140472E+02 -0.20442816983E+02 -0.55112431860E+02  0.46976622866E+03  0.46512294581E+03 0.  0.
         13    1    3    3    0    0 -0.11955268888E+03 -0.12944531982E+03 -0.17586784755E+03  0.24895468673E+03  0.00000000000E+00 0.  1.
          1    1    3    3  501    0  0.14931282935E+03  0.10900250284E+03  0.12075541569E+03  0.22081154194E+03  0.00000000000E+00 0.  1.
         21    1    1    2  502  501 -0.29760140472E+02  0.20442816983E+02  0.13384895947E+02  0.38506235425E+02  0.00000000000E+00 0.  1.
<scales pt_clust_4="550.00000" pt_clust_5="550.00000" pt_clust_6="36.10505"></scales>
<mgrwt>
<rscale>  0 0.30000000E+03</rscale>
<asrwt>  1 0.36105051E+02</asrwt>
<pdfrwt beam="1">  1        1 0.84826351E+00 0.30000000E+03</pdfrwt>
<pdfrwt beam="2">0</pdfrwt>
<totfact> 0.41993944E-04</totfact>
</mgrwt>
<clustering>
<clus scale="   36.105">  1  6  2 -1</clus>
<clus scale="  465.123">  4  5 -1 -1</clus>
<clus scale="  300.000">  1  4  2 -1</clus>
</clustering>
</event>
<event>
 6    1  0.9131597E-012  0.3000000E+03  0.7818608E-02  0.1093470E+00
          1   -1    0    0  502    0  0.00000000000E+00  0.00000000000E+00  0.22339418151E+03  0.22339418151E+03  0.00000000000E+00 0.  1.
         13   -1    0    0    0    0 -0.00000000000E+00 -0.00000000000E+00 -0.27500000000E+03  0.27500000000E+03  0.00000000000E+00 0.  1.
    9000005    2    1    2  501    0 -0.77514968921E+01 -0.29104537778E+02 -0.67887330306E+02  0.46415608211E+03  0.45817575135E+03 0.  0.
         13    1    3    3    0    0  0.13241200292E+03  0.11374188821E+03 -0.16634194809E+03  0.24112195948E+03  0.00000000000E+00 0.  1.
          1    1    3    3  501    0 -0.14016349981E+03 -0.14284642598E+03  0.98454617783E+02  0.22303412263E+03  0.00000000000E+00 0.  1.
         21    1    1    2  502  501  0.77514968921E+01  0.29104537778E+02  0.16281511818E+02  0.34238099399E+02  0.00000000000E+00 0.  1.
<scales pt_clust_4="550.00000" pt_clust_5="550.00000" pt_clust_6="30.11909"></scales>
<mgrwt>
<rscale>  0 0.30000000E+03</rscale>
<asrwt>  1 0.30119094E+02</asrwt>
<pdfrwt beam="1">  1        1 0.81234248E+00 0.30000000E+03</pdfrwt>
<pdfrwt beam="2">0</pdfrwt>
<totfact> 0.86012661E-04</totfact>
</mgrwt>
<clustering>
<clus scale="   30.119">  1  6  2 -1</clus>
<clus scale="  458.176">  4  5 -1 -1</clus>
<clus scale="  300.000">  1  4  2 -1</clus>
</clustering>
</event>
<event>
 6    1  0.9131597E-012  0.3000000E+03  0.7818608E-02  0.1093470E+00
          1   -1    0    0  502    0  0.00000000000E+00  0.00000000000E+00  0.23561117801E+03  0.23561117801E+03  0.00000000000E+00 0.  1.
         13   -1    0    0    0    0 -0.00000000000E+00 -0.00000000000E+00 -0.27500000000E+03  0.27500000000E+03  0.00000000000E+00 0.  1.
    9000005    2    1    2  501    0 -0.81844572953E+01  0.44226452675E+02 -0.15947802616E+02  0.45989189325E+03  0.45740928785E+03 0.  0.
         13    1    3    3    0    0 -0.79882987960E+02  0.23368105262E+03 -0.56419783419E+02  0.25332058360E+03  0.00000000000E+00 0.  1.
          1    1    3    3  501    0  0.71698530665E+02 -0.18945459994E+03  0.40471980804E+02  0.20657130964E+03  0.00000000000E+00 0.  1.
         21    1    1    2  502  501  0.81844572953E+01 -0.44226452675E+02 -0.23441019374E+02  0.50719284762E+02  0.00000000000E+00 0.  1.
<scales pt_clust_4="550.00000" pt_clust_5="550.00000" pt_clust_6="44.97740"></scales>
<mgrwt>
<rscale>  0 0.30000000E+03</rscale>
<asrwt>  1 0.44977400E+02</asrwt>
<pdfrwt beam="1">  1        1 0.85676792E+00 0.30000000E+03</pdfrwt>
<pdfrwt beam="2">0</pdfrwt>
<totfact> 0.33401612E-04</totfact>
</mgrwt>
<clustering>
<clus scale="   44.977">  1  6  2 -1</clus>
<clus scale="  457.409">  4  5 -1 -1</clus>
<clus scale="  300.000">  1  4  2 -1</clus>
</clustering>
</event>
<event>
 6    1  0.9131597E-012  0.3000000E+03  0.7818608E-02  0.1093470E+00
          1   -1    0    0  502    0  0.00000000000E+00  0.00000000000E+00  0.24267268257E+03  0.24267268257E+03  0.00000000000E+00 0.  1.
         13   -1    0    0    0    0 -0.00000000000E+00 -0.00000000000E+00 -0.27500000000E+03  0.27500000000E+03  0.00000000000E+00 0.  1.
    9000005    2    1    2  501    0  0.13189554372E+02 -0.37613339152E+02 -0.26524452786E+02  0.47739364504E+03  0.47498675571E+03 0.  0.
         13    1    3    3    0    0 -0.16981419659E+03 -0.10210434532E+03 -0.14901826435E+03  0.24792862240E+03  0.00000000000E+00 0.  1.
          3    1    3    3  501    0  0.18300375096E+03  0.64491006167E+02  0.12249381156E+03  0.22946502264E+03  0.00000000000E+00 0.  1.
         21    1    1    2  502  501 -0.13189554372E+02  0.37613339152E+02 -0.58028646427E+01  0.40279037535E+02  0.00000000000E+00 0.  1.
<scales pt_clust_4="550.00000" pt_clust_5="550.00000" pt_clust_6="39.85887"></scales>
<mgrwt>
<rscale>  0 0.30000000E+03</rscale>
<asrwt>  1 0.39858866E+02</asrwt>
<pdfrwt beam="1">  1        1 0.88244612E+00 0.30000000E+03</pdfrwt>
<pdfrwt beam="2">0</pdfrwt>
<totfact> 0.17932676E-04</totfact>
</mgrwt>
<clustering>
<clus scale="   39.859">  1  6  2 -1</clus>
<clus scale="  474.987">  4  5 -1 -1</clus>
<clus scale="  300.000">  1  4  2 -1</clus>
</clustering>
</event>
<event>
 6    1  0.9131597E-012  0.3000000E+03  0.7818608E-02  0.1093470E+00
          1   -1    0    0  502    0  0.00000000000E+00  0.00000000000E+00  0.24579318412E+03  0.24579318412E+03  0.00000000000E+00 0.  1.
         13   -1    0    0    0    0 -0.00000000000E+00 -0.00000000000E+00 -0.27500000000E+03  0.27500000000E+03  0.00000000000E+00 0.  1.
    9000005    2    1    2  501    0  0.38475861843E+02 -0.45344975409E+01 -0.67542279438E+02  0.46629032751E+03  0.45974314177E+03 0.  0.
         13    1    3    3    0    0  0.21358319700E+03  0.12122442589E+03 -0.42781167365E+02  0.24928572313E+03  0.00000000000E+00 0.  1.
          3    1    3    3  501    0 -0.17510733516E+03 -0.12575892343E+03 -0.24761112073E+02  0.21700460438E+03  0.00000000000E+00 0.  1.
         21    1    1    2  502  501 -0.38475861843E+02  0.45344975409E+01  0.38335463556E+02  0.54502856609E+02  0.00000000000E+00 0.  1.
<scales pt_clust_4="550.00000" pt_clust_5="550.00000" pt_clust_6="38.74214"></scales>
<mgrwt>
<rscale>  0 0.30000000E+03</rscale>
<asrwt>  1 0.38742143E+02</asrwt>
<pdfrwt beam="1">  1        1 0.89379340E+00 0.30000000E+03</pdfrwt>
<pdfrwt beam="2">0</pdfrwt>
<totfact> 0.12770268E-04</totfact>
</mgrwt>
<clustering>
<clus scale="   38.742">  1  6  2 -1</clus>
<clus scale="  459.743">  4  5 -1 -1</clus>
<clus scale="  300.000">  1  4  2 -1</clus>
</clustering>
</event>
<event>
 6    1  0.9131597E-012  0.3000000E+03  0.7818608E-02  0.1093470E+00
          1   -1    0    0  502    0  0.00000000000E+00  0.00000000000E+00  0.23234513860E+03  0.23234513860E+03  0.00000000000E+00 0.  1.
         13   -1    0    0    0    0 -0.00000000000E+00 -0.00000000000E+00 -0.27500000000E+03  0.27500000000E+03  0.00000000000E+00 0.  1.
    9000005    2    1    2  501    0  0.12882996093E+02 -0.29398332350E+02 -0.71204439039E+02  0.46438804470E+03  0.45777281525E+03 0.  0.
         13    1    3    3    0    0 -0.21372493170E+03 -0.72807334823E+02 -0.58850025568E+02  0.23332933794E+03  0.00000000000E+00 0.  1.
          1    1    3    3  501    0  0.22660792779E+03  0.43409002474E+02 -0.12354413471E+02  0.23105870675E+03  0.00000000000E+00 0.  1.
         21    1    1    2  502  501 -0.12882996093E+02  0.29398332350E+02  0.28549577638E+02  0.42957093903E+02  0.00000000000E+00 0.  1.
<scales pt_clust_4="550.00000" pt_clust_5="550.00000" pt_clust_6="32.09725"></scales>
<mgrwt>
<rscale>  0 0.30000000E+03</rscale>
<asrwt>  1 0.32097251E+02</asrwt>
<pdfrwt beam="1">  1        1 0.84489141E+00 0.30000000E+03</pdfrwt>
<pdfrwt beam="2">0</pdfrwt>
<totfact> 0.46026343E-04</totfact>
</mgrwt>
<clustering>
<clus scale="   32.097">  1  6  2 -1</clus>
<clus scale="  457.773">  4  5 -1 -1</clus>
<clus scale="  300.000">  1  4  2 -1</clus>
</clustering>
</event>
<event>
 6    1  0.9131597E-012  0.3000000E+03  0.7818608E-02  0.1093470E+00
          1   -1    0    0  502    0  0.00000000000E+00  0.00000000000E+00  0.22740944198E+03  0.22740944198E+03  0.00000000000E+00 0.  1.
         13   -1    0    0    0    0 -0.00000000000E+00 -0.00000000000E+00 -0.27500000000E+03  0.27500000000E+03  0.00000000000E+00 0.  1.
    9000005    2    1    2  501    0  0.34313210499E+02  0.45747442721E+01 -0.49755102065E+02  0.46772500814E+03  0.46378097024E+03 0.  0.
         13    1    3    3    0    0 -0.15613106042E+03 -0.14812251343E+03 -0.59958787032E+02  0.22341048130E+03  0.00000000000E+00 0.  1.
          1    1    3    3  501    0  0.19044427092E+03  0.15269725771E+03  0.10203684967E+02  0.24431452684E+03  0.00000000000E+00 0.  1.
         21    1    1    2  502  501 -0.34313210499E+02 -0.45747442721E+01  0.21645440465E+01  0.34684433840E+02  0.00000000000E+00 0.  1.
<scales pt_clust_4="550.00000" pt_clust_5="550.00000" pt_clust_6="34.61683"></scales>
<mgrwt>
<rscale>  0 0.30000000E+03</rscale>
<asrwt>  1 0.34616827E+02</asrwt>
<pdfrwt beam="1">  1        1 0.82694343E+00 0.30000000E+03</pdfrwt>
<pdfrwt beam="2">0</pdfrwt>
<totfact> 0.62903829E-04</totfact>
</mgrwt>
<clustering>
<clus scale="   34.617">  1  6  2 -1</clus>
<clus scale="  463.781">  4  5 -1 -1</clus>
<clus scale="  300.000">  1  4  2 -1</clus>
</clustering>
</event>
<event>
 6    1  0.9131597E-012  0.3000000E+03  0.7818608E-02  0.1093470E+00
          1   -1    0    0  502    0  0.00000000000E+00  0.00000000000E+00  0.24949204518E+03  0.24949204518E+03  0.00000000000E+00 0.  1.
         13   -1    0    0    0    0 -0.00000000000E+00 -0.00000000000E+00 -0.27500000000E+03  0.27500000000E+03  0.00000000000E+00 0.  1.
    9000005    2    1    2  501    0 -0.15568445274E+02 -0.40065512645E+02 -0.22861785356E+02  0.48142669943E+03  0.47895864530E+03 0.  0.
         13    1    3    3    0    0  0.14338478430E+03  0.15336010141E+03 -0.79924065617E+02  0.22464721974E+03  0.00000000000E+00 0.  1.
          1    1    3    3  501    0 -0.15895322957E+03 -0.19342561405E+03  0.57062280261E+02  0.25677947969E+03  0.00000000000E+00 0.  1.
         21    1    1    2  502  501  0.15568445274E+02  0.40065512645E+02 -0.26461694623E+01  0.43065345750E+02  0.00000000000E+00 0.  1.
<scales pt_clust_4="550.00000" pt_clust_5="550.00000" pt_clust_6="42.98399"></scales>
<mgrwt>
<rscale>  0 0.30000000E+03</rscale>
<asrwt>  1 0.42983993E+02</asrwt>
<pdfrwt beam="1">  1        1 0.90724380E+00 0.30000000E+03</pdfrwt>
<pdfrwt beam="2">0</pdfrwt>
<totfact> 0.80147402E-05</totfact>
</mgrwt>
<clustering>
<clus scale="   42.984">  1  6  2 -1</clus>
<clus scale="  478.959">  4  5 -1 -1</clus>
<clus scale="  300.000">  1  4  2 -1</clus>
</clustering>
</event>
<event>
 6    1  0.9131597E-012  0.3000000E+03  0.7818608E-02  0.1093470E+00
          1   -1    0    0  502    0  0.00000000000E+00  0.00000000000E+00  0.22283021067E+03  0.22283021067E+03  0.00000000000E+00 0.  1.
         13   -1    0    0    0    0 -0.00000000000E+00 -0.00000000000E+00 -0.27500000000E+03  0.27500000000E+03  0.00000000000E+00 0.  1.
    9000005    2    1    2  501    0 -0.21672085361E+02 -0.23770122840E+02 -0.36680465179E+02  0.46212842940E+03  0.45954600499E+03 0.  0.
         13    1    3    3    0    0  0.14389326171E+03 -0.63541748792E+02  0.14442634211E+03  0.21354576301E+03  0.00000000000E+00 0.  1.
          1    1    3    3  501    0 -0.16556534707E+03  0.39771625953E+02 -0.18110680729E+03  0.24858266638E+03  0.00000000000E+00 0.  1.
         21    1    1    2  502  501  0.21672085361E+02  0.23770122840E+02 -0.15489324150E+02  0.35701781276E+02  0.00000000000E+00 0. -1.
<scales pt_clust_4="550.00000" pt_clust_5="550.00000" pt_clust_6="32.16674"></scales>
<mgrwt>
<rscale>  0 0.30000000E+03</rscale>
<asrwt>  1 0.32166738E+02</asrwt>
<pdfrwt beam="1">  1        1 0.81029168E+00 0.30000000E+03</pdfrwt>
<pdfrwt beam="2">0</pdfrwt>
<totfact> 0.88150216E-04</totfact>
</mgrwt>
<clustering>
<clus scale="   32.167">  1  6  2 -1</clus>
<clus scale="  459.546">  4  5 -1 -1</clus>
<clus scale="  300.000">  1  4  2 -1</clus>
</clustering>
</event>
<event>
 6    1  0.9131597E-012  0.3000000E+03  0.7818608E-02  0.1093470E+00
          1   -1    0    0  502    0  0.00000000000E+00  0.00000000000E+00  0.24852068356E+03  0.24852068356E+03  0.00000000000E+00 0.  1.
         13   -1    0    0    0    0 -0.00000000000E+00 -0.00000000000E+00 -0.27500000000E+03  0.27500000000E+03  0.00000000000E+00 0.  1.
    9000005    2    1    2  501    0 -0.64125499422E+01  0.29545400725E+02 -0.30359296964E+02  0.49303944753E+03  0.49117426481E+03 0.  0.
         13    1    3    3    0    0 -0.16680946546E+03  0.18361856937E+03 -0.88105748742E+02  0.26325614854E+03  0.00000000000E+00 0.  1.
          3    1    3    3  501    0  0.16039691552E+03 -0.15407316864E+03  0.57746451778E+02  0.22978329899E+03  0.00000000000E+00 0.  1.
         21    1    1    2  502  501  0.64125499422E+01 -0.29545400725E+02  0.38799805211E+01  0.30481236024E+02  0.00000000000E+00 0.  1.
<scales pt_clust_4="550.00000" pt_clust_5="550.00000" pt_clust_6="30.23328"></scales>
<mgrwt>
<rscale>  0 0.30000000E+03</rscale>
<asrwt>  1 0.30233285E+02</asrwt>
<pdfrwt beam="1">  1        1 0.90371158E+00 0.30000000E+03</pdfrwt>
<pdfrwt beam="2">0</pdfrwt>
<totfact> 0.10028086E-04</totfact>
</mgrwt>
<clustering>
<clus scale="   30.233">  1  6  2 -1</clus>
<clus scale="  491.174">  4  5 -1 -1</clus>
<clus scale="  300.000">  1  4  2 -1</clus>
</clustering>
</event>
<event>
 6    1  0.9131597E-012  0.3000000E+03  0.7818608E-02  0.1093470E+00
          1   -1    0    0  502    0  0.00000000000E+00  0.00000000000E+00  0.23571866853E+03  0.23571866853E+03  0.00000000000E+00 0.  1.
         13   -1    0    0    0    0 -0.00000000000E+00 -0.00000000000E+00 -0.27500000000E+03  0.27500000000E+03  0.00000000000E+00 0.  1.
    9000005    2    1    2  501    0 -0.22563428970E+02  0.36452721205E+02 -0.31441202915E+02  0.46713682798E+03  0.46410166731E+03 0.  0.
         13    1    3    3    0    0  0.18245147851E+03  0.14544687338E+03 -0.43179934271E+01  0.23337090661E+03  0.00000000000E+00 0.  1.
          1    1    3    3  501    0 -0.20501490748E+03 -0.10899415217E+03 -0.27123209488E+02  0.23376592136E+03  0.00000000000E+00 0.  1.
         21    1    1    2  502  501  0.22563428970E+02 -0.36452721205E+02 -0.78401285558E+01  0.43581840552E+02  0.00000000000E+00 0. -1.
<scales pt_clust_4="550.00000" pt_clust_5="550.00000" pt_clust_6="42.87086"></scales>
<mgrwt>
<rscale>  0 0.30000000E+03</rscale>
<asrwt>  1 0.42870865E+02</asrwt>
<pdfrwt beam="1">  1        1 0.85715879E+00 0.30000000E+03</pdfrwt>
<pdfrwt beam="2">0</pdfrwt>
<totfact> 0.33380378E-04</totfact>
</mgrwt>
<clustering>
<clus scale="   42.871">  1  6  2 -1</clus>
<clus scale="  464.102">  4  5 -1 -1</clus>
<clus scale="  300.000">  1  4  2 -1</clus>
</clustering>
</event>
<event>
 6    1  0.9131597E-012  0.3000000E+03  0.7818608E-02  0.1093470E+00
          1   -1    0    0  502    0  0.00000000000E+00  0.00000000000E+00  0.24454035782E+03  0.24454035782E+03  0.00000000000E+00 0.  1.
         13   -1    0    0    0    0 -0.00000000000E+00 -0.00000000000E+00 -0.27500000000E+03  0.27500000000E+03  0.00000000000E+00 0.  1.
    9000005    2    1    2  501    0  0.36292435621E+02 -0.15773846883E+02 -0.38767391271E+02  0.47910554826E+03  0.47589206825E+03 0.  0.
         13    1    3    3    0    0 -0.13621829310E+03  0.17397052588E+03 -0.12228957912E+02  0.22129327749E+03  0.00000000000E+00 0.  1.
          1    1    3    3  501    0  0.17251072872E+03 -0.18974437276E+03 -0.26538433359E+02  0.25781227078E+03  0.00000000000E+00 0.  1.
         21    1    1    2  502  501 -0.36292435621E+02  0.15773846883E+02  0.83077490893E+01  0.40434809555E+02  0.00000000000E+00 0.  1.
<scales pt_clust_4="550.00000" pt_clust_5="550.00000" pt_clust_6="39.57215"></scales>
<mgrwt>
<rscale>  0 0.30000000E+03</rscale>
<asrwt>  1 0.39572151E+02</asrwt>
<pdfrwt beam="1">  1        1 0.88923766E+00 0.30000000E+03</pdfrwt>
<pdfrwt beam="2">0</pdfrwt>
<totfact> 0.14507846E-04</totfact>
</mgrwt>
<clustering>
<clus scale="   39.572">  1  6  2 -1</clus>
<clus scale="  475.892">  4  5 -1 -1</clus>
<clus scale="  300.000">  1  4  2 -1</clus>
</clustering>
</event>
<event>
 6    1  0.9131597E-012  0.3000000E+03  0.7818608E-02  0.1093470E+00
          1   -1    0    0  502    0  0.00000000000E+00  0.00000000000E+00  0.23874084022E+03  0.23874084022E+03  0.00000000000E+00 0.  1.
         13   -1    0    0    0    0 -0.00000000000E+00 -0.00000000000E+00 -0.27500000000E+03  0.27500000000E+03  0.00000000000E+00 0.  1.
    9000005    2    1    2  501    0  0.19237672755E+02 -0.29422272018E+02 -0.17338126287E+02  0.47381887068E+03  0.47219482573E+03 0.  0.
         13    1    3    3    0    0 -0.14565640101E+03 -0.14411729472E+03  0.11336827557E+03  0.23417503645E+03  0.00000000000E+00 0.  1.
          1    1    3    3  501    0  0.16489407376E+03  0.11469502270E+03 -0.13070640186E+03  0.23964383422E+03  0.00000000000E+00 0.  1.
         21    1    1    2  502  501 -0.19237672755E+02  0.29422272018E+02 -0.18921033494E+02  0.39921969543E+02  0.00000000000E+00 0. -1.
<scales pt_clust_4="550.00000" pt_clust_5="550.00000" pt_clust_6="35.15337"></scales>
<mgrwt>
<rscale>  0 0.30000000E+03</rscale>
<asrwt>  1 0.35153369E+02</asrwt>
<pdfrwt beam="1">  1        1 0.86814851E+00 0.30000000E+03</pdfrwt>
<pdfrwt beam="2">0</pdfrwt>
<totfact> 0.26439148E-04</totfact>
</mgrwt>
<clustering>
<clus scale="   35.153">  1  6  2 -1</clus>
<clus scale="  472.195">  4  5 -1 -1</clus>
<clus scale="  300.000">  1  4  2 -1</clus>
</clustering>
</event>
<event>
 6    1  0.9131597E-012  0.3000000E+03  0.7818608E-02  0.1093470E+00
          1   -1    0    0  502    0  0.00000000000E+00  0.00000000000E+00  0.24324047243E+03  0.24324047243E+03  0.00000000000E+00 0.  1.
         13   -1    0    0    0    0 -0.00000000000E+00 -0.00000000000E+00 -0.27500000000E+03  0.27500000000E+03  0.00000000000E+00 0.  1.
    9000005    2    1    2  501    0 -0.22219459922E+02  0.34864407005E+02 -0.63397812979E+02  0.46618077229E+03  0.45999565051E+03 0.  0.
         13    1    3    3    0    0 -0.13929282106E+03  0.20011040858E+03  0.25234939025E+02  0.24511929294E+03  0.00000000000E+00 0.  1.
          3    1    3    3  501    0  0.11707336114E+03 -0.16524600158E+03 -0.88632752003E+02  0.22106147935E+03  0.00000000000E+00 0.  1.
         21    1    1    2  502  501  0.22219459922E+02 -0.34864407005E+02  0.31638285407E+02  0.52059700139E+02  0.00000000000E+00 0. -1.
<scales pt_clust_4="550.00000" pt_clust_5="550.00000" pt_clust_6="41.34285"></scales>
<mgrwt>
<rscale>  0 0.30000000E+03</rscale>
<asrwt>  1 0.41342850E+02</asrwt>
<pdfrwt beam="1">  1        1 0.88451081E+00 0.30000000E+03</pdfrwt>
<pdfrwt beam="2">0</pdfrwt>
<totfact> 0.16713370E-04</totfact>
</mgrwt>
<clustering>
<clus scale="   41.343">  1  6  2 -1</clus>
<clus scale="  459.996">  4  5 -1 -1</clus>
<clus scale="  300.000">  1  4  2 -1</clus>
</clustering>
</event>
<event>
 6    1  0.9131597E-012  0.3000000E+03  0.7818608E-02  0.1093470E+00
          1   -1    0    0  502    0  0.00000000000E+00  0.00000000000E+00  0.23710663890E+03  0.23710663890E+03  0.00000000000E+00 0.  1.
         13   -1    0    0    0    0 -0.00000000000E+00 -0.00000000000E+00 -0.27500000000E+03  0.27500000000E+03  0.00000000000E+00 0.  1.
    9000005    2    1    2  501    0 -0.39828798548E+02 -0.15260350142E+02 -0.24830581913E+02  0.46749893015E+03  0.46488652423E+03 0.  0.
         13    1    3    3    0    0  0.55084715927E+02  0.36431606805E+02  0.20400311624E+03  0.21442681581E+03  0.00000000000E+00 0.  1.
          3    1    3    3  501    0 -0.94913514475E+02 -0.51691956948E+02 -0.22883369816E+03  0.25307211434E+03  0.00000000000E+00 0.  1.
         21    1    1    2  502  501  0.39828798548E+02  0.15260350142E+02 -0.13062779184E+02  0.44607708753E+02  0.00000000000E+00 0. -1.
<scales pt_clust_4="550.00000" pt_clust_5="550.00000" pt_clust_6="42.65224"></scales>
<mgrwt>
<rscale>  0 0.30000000E+03</rscale>
<asrwt>  1 0.42652237E+02</asrwt>
<pdfrwt beam="1">  1        1 0.86220596E+00 0.30000000E+03</pdfrwt>
<pdfrwt beam="2">0</pdfrwt>
<totfact> 0.29535120E-04</totfact>
</mgrwt>
<clustering>
<clus scale="   42.652">  1  6  2 -1</clus>
<clus scale="  464.887">  4  5 -1 -1</clus>
<clus scale="  300.000">  1  4  2 -1</clus>
</clustering>
</event>
<event>
 6    1  0.9131597E-012  0.3000000E+03  0.7818608E-02  0.1093470E+00
          1   -1    0    0  502    0  0.00000000000E+00  0.00000000000E+00  0.23146697181E+03  0.23146697181E+03  0.00000000000E+00 0.  1.
         13   -1    0    0    0    0 -0.00000000000E+00 -0.00000000000E+00 -0.27500000000E+03  0.27500000000E+03  0.00000000000E+00 0.  1.
    9000005    2    1    2  501    0  0.58444422169E+01 -0.30374611282E+02 -0.49114531278E+02  0.47503565475E+03  0.47147625772E+03 0.  0.
         13    1    3    3    0    0  0.33079334411E+02 -0.28107362518E+02 -0.25938728838E+03  0.26299435653E+03  0.00000000000E+00 0.  1.
          1    1    3    3  501    0 -0.27234892194E+02 -0.22672487639E+01  0.21027275711E+03  0.21204129822E+03  0.00000000000E+00 0.  1.
         21    1    1    2  502  501 -0.58444422169E+01  0.30374611282E+02  0.55815030918E+01  0.31431317060E+02  0.00000000000E+00 0.  1.
<scales pt_clust_4="550.00000" pt_clust_5="550.00000" pt_clust_6="30.93177"></scales>
<mgrwt>
<rscale>  0 0.30000000E+03</rscale>
<asrwt>  1 0.30931772E+02</asrwt>
<pdfrwt beam="1">  1        1 0.84169808E+00 0.30000000E+03</pdfrwt>
<pdfrwt beam="2">0</pdfrwt>
<totfact> 0.49331314E-04</totfact>
</mgrwt>
<clustering>
<clus scale="   30.932">  1  6  2 -1</clus>
<clus scale="  471.476">  4  5 -1 -1</clus>
<clus scale="  300.000">  1  4  2 -1</clus>
</clustering>
</event>
<event>
 6    1  0.9131597E-012  0.3000000E+03  0.7818608E-02  0.1093470E+00
          1   -1    0    0  502    0  0.00000000000E+00  0.00000000000E+00  0.24338468843E+03  0.24338468843E+03  0.00000000000E+00 0.  1.
         13   -1    0    0    0    0 -0.00000000000E+00 -0.00000000000E+00 -0.27500000000E+03  0.27500000000E+03  0.00000000000E+00 0.  1.
    9000005    2    1    2  501    0  0.27448136197E+02 -0.12429682769E+02 -0.59500147451E+02  0.47733031879E+03  0.47264793292E+03 0.  0.
         13    1    3    3    0    0  0.14530161978E+01 -0.16869189249E+03 -0.20275053693E+03  0.26375527686E+03  0.00000000000E+00 0.  1.
          3    1    3    3  501    0  0.25995119999E+02  0.15626220972E+03  0.14325038948E+03  0.21357504193E+03  0.00000000000E+00 0.  1.
         21    1    1    2  502  501 -0.27448136197E+02  0.12429682769E+02  0.27884835876E+02  0.41054369637E+02  0.00000000000E+00 0.  1.
<scales pt_clust_4="550.00000" pt_clust_5="550.00000" pt_clust_6="30.13133"></scales>
<mgrwt>
<rscale>  0 0.30000000E+03</rscale>
<asrwt>  1 0.30131332E+02</asrwt>
<pdfrwt beam="1">  1        1 0.88503523E+00 0.30000000E+03</pdfrwt>
<pdfrwt beam="2">0</pdfrwt>
<totfact> 0.17440526E-04</totfact>
</mgrwt>
<clustering>
<clus scale="   30.131">  1  6  2 -1</clus>
<clus scale="  472.648">  4  5 -1 -1</clus>
<clus scale="  300.000">  1  4  2 -1</clus>
</clustering>
</event>
<event>
 6    1  0.9131597E-012  0.3000000E+03  0.7818608E-02  0.1093470E+00
          1   -1    0    0  502    0  0.00000000000E+00  0.00000000000E+00  0.23299676470E+03  0.23299676470E+03  0.00000000000E+00 0.  1.
         13   -1    0    0    0    0 -0.00000000000E+00 -0.00000000000E+00 -0.27500000000E+03  0.27500000000E+03  0.00000000000E+00 0.  1.
    9000005    2    1    2  501    0 -0.16905497645E+02  0.25246913813E+02 -0.56473999854E+02  0.47434255940E+03  0.46998760462E+03 0.  0.
         13    1    3    3    0    0 -0.90721070285E+02  0.13942441238E+03 -0.21089301670E+03  0.26859885304E+03  0.00000000000E+00 0.  1.
          1    1    3    3  501    0  0.73815572640E+02 -0.11417749857E+03  0.15441901685E+03  0.20574370636E+03  0.00000000000E+00 0.  1.
         21    1    1    2  502  501  0.16905497645E+02 -0.25246913813E+02  0.14470764558E+02  0.33654205303E+02  0.00000000000E+00 0.  1.
<scales pt_clust_4="550.00000" pt_clust_5="550.00000" pt_clust_6="30.38425"></scales>
<mgrwt>
<rscale>  0 0.30000000E+03</rscale>
<asrwt>  1 0.30384248E+02</asrwt>
<pdfrwt beam="1">  1        1 0.84726096E+00 0.30000000E+03</pdfrwt>
<pdfrwt beam="2">0</pdfrwt>
<totfact> 0.44308714E-04</totfact>
</mgrwt>
<clustering>
<clus scale="   30.384">  1  6  2 -1</clus>
<clus scale="  469.988">  4  5 -1 -1</clus>
<clus scale="  300.000">  1  4  2 -1</clus>
</clustering>
</event>
<event>
 6    1  0.9131597E-012  0.3000000E+03  0.7818608E-02  0.1093470E+00
          1   -1    0    0  502    0  0.00000000000E+00  0.00000000000E+00  0.23137572286E+03  0.23137572286E+03  0.00000000000E+00 0.  1.
         13   -1    0    0    0    0 -0.00000000000E+00 -0.00000000000E+00 -0.27500000000E+03  0.27500000000E+03  0.00000000000E+00 0.  1.
    9000005    2    1    2  501    0  0.27181120673E+02  0.22252321975E+02 -0.53320891654E+02  0.46993394070E+03  0.46557578543E+03 0.  0.
         13    1    3    3    0    0  0.13883669727E+03  0.29858721172E+02 -0.22436436450E+03  0.26553067581E+03  0.00000000000E+00 0.  1.
          3    1    3    3  501    0 -0.11165557660E+03 -0.76063991967E+01  0.17104347284E+03  0.20440326489E+03  0.00000000000E+00 0.  1.
         21    1    1    2  502  501 -0.27181120673E+02 -0.22252321975E+02  0.96966145188E+01  0.36441782166E+02  0.00000000000E+00 0. -1.
<scales pt_clust_4="550.00000" pt_clust_5="550.00000" pt_clust_6="35.12804"></scales>
<mgrwt>
<rscale>  0 0.30000000E+03</rscale>
<asrwt>  1 0.35128039E+02</asrwt>
<pdfrwt beam="1">  1        1 0.84136626E+00 0.30000000E+03</pdfrwt>
<pdfrwt beam="2">0</pdfrwt>
<totfact> 0.48458065E-04</totfact>
</mgrwt>
<clustering>
<clus scale="   35.128">  1  6  2 -1</clus>
<clus scale="  465.576">  4  5 -1 -1</clus>
<clus scale="  300.000">  1  4  2 -1</clus>
</clustering>
</event>
<event>
 6    1  0.9131597E-012  0.3000000E+03  0.7818608E-02  0.1093470E+00
          1   -1    0    0  502    0  0.00000000000E+00  0.00000000000E+00  0.25211141311E+03  0.25211141311E+03  0.00000000000E+00 0.  1.
         13   -1    0    0    0    0 -0.00000000000E+00 -0.00000000000E+00 -0.27500000000E+03  0.27500000000E+03  0.00000000000E+00 0.  1.
    9000005    2    1    2  501    0  0.17806206742E+02 -0.28870628571E+02 -0.51804045578E+02  0.48253924754E+03  0.47854978015E+03 0.  0.
         13    1    3    3    0    0 -0.57648985342E+02  0.21597407284E+03 -0.25435913618E+02  0.22497820195E+03  0.00000000000E+00 0.  1.
          3    1    3    3  501    0  0.75455192084E+02 -0.24484470141E+03 -0.26368131960E+02  0.25756104559E+03  0.00000000000E+00 0.  1.
         21    1    1    2  502  501 -0.17806206742E+02  0.28870628571E+02  0.28915458688E+02  0.44572165572E+02  0.00000000000E+00 0.  1.
<scales pt_clust_4="550.00000" pt_clust_5="550.00000" pt_clust_6="33.92011"></scales>
<mgrwt>
<rscale>  0 0.30000000E+03</rscale>
<asrwt>  1 0.33920115E+02</asrwt>
<pdfrwt beam="1">  1        1 0.91676877E+00 0.30000000E+03</pdfrwt>
<pdfrwt beam="2">0</pdfrwt>
<totfact> 0.49600466E-05</totfact>
</mgrwt>
<clustering>
<clus scale="   33.920">  1  6  2 -1</clus>
<clus scale="  478.550">  4  5 -1 -1</clus>
<clus scale="  300.000">  1  4  2 -1</clus>
</clustering>
</event>
<event>
 6    1  0.9131597E-012  0.3000000E+03  0.7818608E-02  0.1093470E+00
          1   -1    0    0  502    0  0.00000000000E+00  0.00000000000E+00  0.25325168684E+03  0.25325168684E+03  0.00000000000E+00 0.  1.
         13   -1    0    0    0    0 -0.00000000000E+00 -0.00000000000E+00 -0.27500000000E+03  0.27500000000E+03  0.00000000000E+00 0.  1.
    9000005    2    1    2  501    0  0.18892031170E+02  0.26323765124E+02 -0.23789095610E+02  0.49578610129E+03  0.49415391096E+03 0.  0.
         13    1    3    3    0    0  0.14388249889E+03  0.84040182871E+02 -0.20755771621E+03  0.26616748747E+03  0.00000000000E+00 0.  1.
          1    1    3    3  501    0 -0.12499046772E+03 -0.57716417747E+02  0.18376862060E+03  0.22961861383E+03  0.00000000000E+00 0.  1.
         21    1    1    2  502  501 -0.18892031170E+02 -0.26323765124E+02  0.20407824548E+01  0.32465585550E+02  0.00000000000E+00 0. -1.
<scales pt_clust_4="550.00000" pt_clust_5="550.00000" pt_clust_6="32.40138"></scales>
<mgrwt>
<rscale>  0 0.30000000E+03</rscale>
<asrwt>  1 0.32401380E+02</asrwt>
<pdfrwt beam="1">  1        1 0.92091522E+00 0.30000000E+03</pdfrwt>
<pdfrwt beam="2">0</pdfrwt>
<totfact> 0.40527188E-05</totfact>
</mgrwt>
<clustering>
<clus scale="   32.401">  1  6  2 -1</clus>
<clus scale="  494.154">  4  5 -1 -1</clus>
<clus scale="  300.000">  1  4  2 -1</clus>
</clustering>
</event>
<event>
 6    1  0.9131597E-012  0.3000000E+03  0.7818608E-02  0.1093470E+00
          1   -1    0    0  502    0  0.00000000000E+00  0.00000000000E+00  0.26891471467E+03  0.26891471467E+03  0.00000000000E+00 0.  1.
         13   -1    0    0    0    0 -0.00000000000E+00 -0.00000000000E+00 -0.27500000000E+03  0.27500000000E+03  0.00000000000E+00 0.  1.
    9000005    2    1    2  501    0 -0.18995152640E+02  0.32805818185E+02  0.90809592672E+01  0.50308516035E+03  0.50157270382E+03 0.  0.
         13    1    3    3    0    0  0.80276345177E+01 -0.18641792364E+03 -0.14285086114E+03  0.23499458227E+03  0.00000000000E+00 0.  1.
          3    1    3    3  501    0 -0.27022787157E+02  0.21922374182E+03  0.15193182040E+03  0.26809057808E+03  0.00000000000E+00 0.  1.
         21    1    1    2  502  501  0.18995152640E+02 -0.32805818185E+02 -0.15166244598E+02  0.40829554318E+02  0.00000000000E+00 0. -1.
<scales pt_clust_4="550.00000" pt_clust_5="550.00000" pt_clust_6="37.90830"></scales>
<mgrwt>
<rscale>  0 0.30000000E+03</rscale>
<asrwt>  1 0.37908297E+02</asrwt>
<pdfrwt beam="1">  1        1 0.97787169E+00 0.30000000E+03</pdfrwt>
<pdfrwt beam="2">0</pdfrwt>
<totfact> 0.33660819E-06</totfact>
</mgrwt>
<clustering>
<clus scale="   37.908">  1  6  2 -1</clus>
<clus scale="  501.573">  4  5 -1 -1</clus>
<clus scale="  300.000">  1  4  2 -1</clus>
</clustering>
</event>
<event>
 6    1  0.9131597E-012  0.3000000E+03  0.7818608E-02  0.1093470E+00
          1   -1    0    0  502    0  0.00000000000E+00  0.00000000000E+00  0.22509984748E+03  0.22509984748E+03  0.00000000000E+00 0.  1.
         13   -1    0    0    0    0 -0.00000000000E+00 -0.00000000000E+00 -0.27500000000E+03  0.27500000000E+03  0.00000000000E+00 0.  1.
    9000005    2    1    2  501    0 -0.37030273691E+01 -0.38219353404E+02 -0.51228092671E+02  0.46167856677E+03  0.45721805536E+03 0.  0.
         13    1    3    3    0    0 -0.14236392461E+03 -0.18610270154E+02 -0.20718757985E+03  0.25207245472E+03  0.00000000000E+00 0.  1.
          3    1    3    3  501    0  0.13866089724E+03 -0.19609083251E+02  0.15595948718E+03  0.20960611205E+03  0.00000000000E+00 0.  1.
         21    1    1    2  502  501  0.37030273691E+01  0.38219353404E+02  0.13279401529E+01  0.38421280710E+02  0.00000000000E+00 0. -1.
<scales pt_clust_4="550.00000" pt_clust_5="550.00000" pt_clust_6="38.39833"></scales>
<mgrwt>
<rscale>  0 0.30000000E+03</rscale>
<asrwt>  1 0.38398325E+02</asrwt>
<pdfrwt beam="1">  1        1 0.81854490E+00 0.30000000E+03</pdfrwt>
<pdfrwt beam="2">0</pdfrwt>
<totfact> 0.73164582E-04</totfact>
</mgrwt>
<clustering>
<clus scale="   38.398">  1  6  2 -1</clus>
<clus scale="  457.218">  4  5 -1 -1</clus>
<clus scale="  300.000">  1  4  2 -1</clus>
</clustering>
</event>
<event>
 6    1  0.9131597E-012  0.3000000E+03  0.7818608E-02  0.1093470E+00
          1   -1    0    0  502    0  0.00000000000E+00  0.00000000000E+00  0.22855228427E+03  0.22855228427E+03  0.00000000000E+00 0.  1.
         13   -1    0    0    0    0 -0.00000000000E+00 -0.00000000000E+00 -0.27500000000E+03  0.27500000000E+03  0.00000000000E+00 0.  1.
    9000005    2    1    2  501    0 -0.34997707531E+02  0.61640358457E+01 -0.54360583542E+02  0.46714557682E+03  0.46260899475E+03 0.  0.
         13    1    3    3    0    0 -0.43552611800E+02  0.19866323545E+03  0.93907762539E+02  0.22401468474E+03  0.00000000000E+00 0.  1.
          3    1    3    3  501    0  0.85549042687E+01 -0.19249919960E+03 -0.14826834608E+03  0.24313089208E+03  0.00000000000E+00 0.  1.
         21    1    1    2  502  501  0.34997707531E+02 -0.61640358457E+01  0.79128678072E+01  0.36406707449E+02  0.00000000000E+00 0. -1.
<scales pt_clust_4="550.00000" pt_clust_5="550.00000" pt_clust_6="35.53639"></scales>
<mgrwt>
<rscale>  0 0.30000000E+03</rscale>
<asrwt>  1 0.35536388E+02</asrwt>
<pdfrwt beam="1">  1        1 0.83109922E+00 0.30000000E+03</pdfrwt>
<pdfrwt beam="2">0</pdfrwt>
<totfact> 0.57738188E-04</totfact>
</mgrwt>
<clustering>
<clus scale="   35.536">  1  6  2 -1</clus>
<clus scale="  462.609">  4  5 -1 -1</clus>
<clus scale="  300.000">  1  4  2 -1</clus>
</clustering>
</event>
<event>
 6    1  0.9131597E-012  0.3000000E+03  0.7818608E-02  0.1093470E+00
          1   -1    0    0  502    0  0.00000000000E+00  0.00000000000E+00  0.24114185655E+03  0.24114185655E+03  0.00000000000E+00 0.  1.
         13   -1    0    0    0    0 -0.00000000000E+00 -0.00000000000E+00 -0.27500000000E+03  0.27500000000E+03  0.00000000000E+00 0.  1.
    9000005    2    1    2  501    0  0.23809145186E+02 -0.42834574618E+02 -0.31541842169E+02  0.46708024805E+03  0.46343003154E+03 0.  0.
         13    1    3    3    0    0 -0.27082654824E+02 -0.40977221829E+02 -0.24385107462E+03  0.24874876783E+03  0.00000000000E+00 0.  1.
          1    1    3    3  501    0  0.50891800010E+02 -0.18573527883E+01  0.21230923245E+03  0.21833148022E+03  0.00000000000E+00 0.  1.
         21    1    1    2  502  501 -0.23809145186E+02  0.42834574618E+02 -0.23163012836E+01  0.49061608502E+02  0.00000000000E+00 0.  1.
<scales pt_clust_4="550.00000" pt_clust_5="550.00000" pt_clust_6="49.00690"></scales>
<mgrwt>
<rscale>  0 0.30000000E+03</rscale>
<asrwt>  1 0.49006899E+02</asrwt>
<pdfrwt beam="1">  1        1 0.87687948E+00 0.30000000E+03</pdfrwt>
<pdfrwt beam="2">0</pdfrwt>
<totfact> 0.20193647E-04</totfact>
</mgrwt>
<clustering>
<clus scale="   49.007">  1  6  2 -1</clus>
<clus scale="  463.430">  4  5 -1 -1</clus>
<clus scale="  300.000">  1  4  2 -1</clus>
</clustering>
</event>
<event>
 6    1  0.9131597E-012  0.3000000E+03  0.7818608E-02  0.1093470E+00
          1   -1    0    0  502    0  0.00000000000E+00  0.00000000000E+00  0.24882567147E+03  0.24882567147E+03  0.00000000000E+00 0.  1.
         13   -1    0    0    0    0 -0.00000000000E+00 -0.00000000000E+00 -0.27500000000E+03  0.27500000000E+03  0.00000000000E+00 0.  1.
    9000005    2    1    2  501    0  0.31569825949E+02  0.54440679433E+01 -0.75428260839E+02  0.46506989189E+03  0.45779284619E+03 0.  0.
         13    1    3    3    0    0  0.23202019175E+03  0.23803760683E+02  0.34409759466E+02  0.23576263476E+03  0.00000000000E+00 0.  1.
          3    1    3    3  501    0 -0.20045036580E+03 -0.18359692739E+02 -0.10983802030E+03  0.22930725713E+03  0.00000000000E+00 0.  1.
         21    1    1    2  502  501 -0.31569825949E+02 -0.54440679433E+01  0.49253932310E+02  0.58755779582E+02  0.00000000000E+00 0. -1.
<scales pt_clust_4="550.00000" pt_clust_5="550.00000" pt_clust_6="32.03579"></scales>
<mgrwt>
<rscale>  0 0.30000000E+03</rscale>
<asrwt>  1 0.32035789E+02</asrwt>
<pdfrwt beam="1">  1        1 0.90482062E+00 0.30000000E+03</pdfrwt>
<pdfrwt beam="2">0</pdfrwt>
<totfact> 0.94752897E-05</totfact>
</mgrwt>
<clustering>
<clus scale="   32.036">  1  6  2 -1</clus>
<clus scale="  457.793">  4  5 -1 -1</clus>
<clus scale="  300.000">  1  4  2 -1</clus>
</clustering>
</event>
<event>
 6    1  0.9131597E-012  0.3000000E+03  0.7818608E-02  0.1093470E+00
          1   -1    0    0  502    0  0.00000000000E+00  0.00000000000E+00  0.23221141687E+03  0.23221141687E+03  0.00000000000E+00 0.  1.
         13   -1    0    0    0    0 -0.00000000000E+00 -0.00000000000E+00 -0.27500000000E+03  0.27500000000E+03  0.00000000000E+00 0.  1.
    9000005    2    1    2  501    0  0.30652997904E+02  0.17085654743E+02 -0.35829427583E+02  0.47143494800E+03  0.46875967877E+03 0.  0.
         13    1    3    3    0    0 -0.15076306127E+03 -0.13895190769E+03  0.60063520711E+02  0.21364634285E+03  0.00000000000E+00 0.  1.
          1    1    3    3  501    0  0.18141605917E+03  0.15603756243E+03 -0.95892948294E+02  0.25778860515E+03  0.00000000000E+00 0.  1.
         21    1    1    2  502  501 -0.30652997904E+02 -0.17085654743E+02 -0.69591555488E+01  0.35776468865E+02  0.00000000000E+00 0. -1.
<scales pt_clust_4="550.00000" pt_clust_5="550.00000" pt_clust_6="35.09312"></scales>
<mgrwt>
<rscale>  0 0.30000000E+03</rscale>
<asrwt>  1 0.35093121E+02</asrwt>
<pdfrwt beam="1">  1        1 0.84440515E+00 0.30000000E+03</pdfrwt>
<pdfrwt beam="2">0</pdfrwt>
<totfact> 0.45700969E-04</totfact>
</mgrwt>
<clustering>
<clus scale="   35.093">  1  6  2 -1</clus>
<clus scale="  468.760">  4  5 -1 -1</clus>
<clus scale="  300.000">  1  4  2 -1</clus>
</clustering>
</event>
<event>
 6    1  0.9131597E-012  0.3000000E+03  0.7818608E-02  0.1093470E+00
          1   -1    0    0  502    0  0.00000000000E+00  0.00000000000E+00  0.22640159319E+03  0.22640159319E+03  0.00000000000E+00 0.  1.
         13   -1    0    0    0    0 -0.00000000000E+00 -0.00000000000E+00 -0.27500000000E+03  0.27500000000E+03  0.00000000000E+00 0.  1.
    9000005    2    1    2  501    0 -0.12830629992E+02 -0.27783920699E+02 -0.62502775695E+02  0.46778756651E+03  0.46258192690E+03 0.  0.
         13    1    3    3    0    0 -0.12117404020E+03 -0.16842895505E+02 -0.23433990156E+03  0.26435207700E+03  0.00000000000E+00 0.  1.
          1    1    3    3  501    0  0.10834341021E+03 -0.10941025194E+02  0.17183712587E+03  0.20343548952E+03  0.00000000000E+00 0.  1.
         21    1    1    2  502  501  0.12830629992E+02  0.27783920699E+02  0.13904368886E+02  0.33614026678E+02  0.00000000000E+00 0. -1.
<scales pt_clust_4="550.00000" pt_clust_5="550.00000" pt_clust_6="30.60345"></scales>
<mgrwt>
<rscale>  0 0.30000000E+03</rscale>
<asrwt>  1 0.30603453E+02</asrwt>
<pdfrwt beam="1">  1        1 0.82327852E+00 0.30000000E+03</pdfrwt>
<pdfrwt beam="2">0</pdfrwt>
<totfact> 0.69414140E-04</totfact>
</mgrwt>
<clustering>
<clus scale="   30.603">  1  6  2 -1</clus>
<clus scale="  462.582">  4  5 -1 -1</clus>
<clus scale="  300.000">  1  4  2 -1</clus>
</clustering>
</event>
<event>
 6    1  0.9131597E-012  0.3000000E+03  0.7818608E-02  0.1093470E+00
          1   -1    0    0  502    0  0.00000000000E+00  0.00000000000E+00  0.24216583762E+03  0.24216583762E+03  0.00000000000E+00 0.  1.
         13   -1    0    0    0    0 -0.00000000000E+00 -0.00000000000E+00 -0.27500000000E+03  0.27500000000E+03  0.00000000000E+00 0.  1.
    9000005    2    1    2  501    0  0.28468283585E+02  0.10753447637E+02 -0.36409260682E+02  0.48652499667E+03  0.48420538856E+03 0.  0.
         13    1    3    3    0    0 -0.30240609101E+02  0.24336853776E+03 -0.20055971298E+02  0.24605889863E+03  0.00000000000E+00 0.  1.
          1    1    3    3  501    0  0.58708892685E+02 -0.23261509012E+03 -0.16353289384E+02  0.24046609804E+03  0.00000000000E+00 0.  1.
         21    1    1    2  502  501 -0.28468283585E+02 -0.10753447637E+02  0.35750983002E+01  0.30640840951E+02  0.00000000000E+00 0. -1.
<scales pt_clust_4="550.00000" pt_clust_5="550.00000" pt_clust_6="30.43156"></scales>
<mgrwt>
<rscale>  0 0.30000000E+03</rscale>
<asrwt>  1 0.30431559E+02</asrwt>
<pdfrwt beam="1">  1        1 0.88060305E+00 0.30000000E+03</pdfrwt>
<pdfrwt beam="2">0</pdfrwt>
<totfact> 0.19920837E-04</totfact>
</mgrwt>
<clustering>
<clus scale="   30.432">  1  6  2 -1</clus>
<clus scale="  484.205">  4  5 -1 -1</clus>
<clus scale="  300.000">  1  4  2 -1</clus>
</clustering>
</event>
<event>
 6    1  0.9131597E-012  0.3000000E+03  0.7818608E-02  0.1093470E+00
          1   -1    0    0  502    0  0.00000000000E+00  0.00000000000E+00  0.22906529814E+03  0.22906529814E+03  0.00000000000E+00 0.  1.
         13   -1    0    0    0    0 -0.00000000000E+00 -0.00000000000E+00 -0.27500000000E+03  0.27500000000E+03  0.00000000000E+00 0.  1.
    9000005    2    1    2  501    0  0.21065994209E+01 -0.31051189873E+02 -0.55090294220E+02  0.47162398151E+03  0.46736027352E+03 0.  0.
         13    1    3    3    0    0  0.16529121618E+03 -0.36445977017E+01 -0.19448683509E+03  0.25526378173E+03  0.00000000000E+00 0.  1.
          1    1    3    3  501    0 -0.16318461676E+03 -0.27406592171E+02  0.13939654087E+03  0.21636019978E+03  0.00000000000E+00 0.  1.
         21    1    1    2  502  501 -0.21065994209E+01  0.31051189873E+02  0.91555923631E+01  0.32441316637E+02  0.00000000000E+00 0. -1.
<scales pt_clust_4="550.00000" pt_clust_5="550.00000" pt_clust_6="31.12257"></scales>
<mgrwt>
<rscale>  0 0.30000000E+03</rscale>
<asrwt>  1 0.31122567E+02</asrwt>
<pdfrwt beam="1">  1        1 0.83296472E+00 0.30000000E+03</pdfrwt>
<pdfrwt beam="2">0</pdfrwt>
<totfact> 0.57267405E-04</totfact>
</mgrwt>
<clustering>
<clus scale="   31.123">  1  6  2 -1</clus>
<clus scale="  467.360">  4  5 -1 -1</clus>
<clus scale="  300.000">  1  4  2 -1</clus>
</clustering>
</event>
<event>
 6    1  0.9131597E-012  0.3000000E+03  0.7818608E-02  0.1093470E+00
          1   -1    0    0  502    0  0.00000000000E+00  0.00000000000E+00  0.24500560590E+03  0.24500560590E+03  0.00000000000E+00 0.  1.
         13   -1    0    0    0    0 -0.00000000000E+00 -0.00000000000E+00 -0.27500000000E+03  0.27500000000E+03  0.00000000000E+00 0.  1.
    9000005    2    1    2  501    0 -0.28580128396E+02 -0.23096956381E+02 -0.54058926641E+02  0.47608072844E+03  0.47157205103E+03 0.  0.
         13    1    3    3    0    0 -0.29761400902E+02 -0.80470187748E+02  0.19894147984E+03  0.21665388180E+03  0.00000000000E+00 0.  1.
          1    1    3    3  501    0  0.11812725064E+01  0.57373231367E+02 -0.25300040648E+03  0.25942684664E+03  0.00000000000E+00 0.  1.
         21    1    1    2  502  501  0.28580128396E+02  0.23096956381E+02  0.24064532544E+02  0.43924877459E+02  0.00000000000E+00 0.  1.
<scales pt_clust_4="550.00000" pt_clust_5="550.00000" pt_clust_6="36.74633"></scales>
<mgrwt>
<rscale>  0 0.30000000E+03</rscale>
<asrwt>  1 0.36746335E+02</asrwt>
<pdfrwt beam="1">  1        1 0.89092948E+00 0.30000000E+03</pdfrwt>
<pdfrwt beam="2">0</pdfrwt>
<totfact> 0.13967269E-04</totfact>
</mgrwt>
<clustering>
<clus scale="   36.746">  1  6  2 -1</clus>
<clus scale="  471.572">  4  5 -1 -1</clus>
<clus scale="  300.000">  1  4  2 -1</clus>
</clustering>
</event>
<event>
 6    1  0.9131597E-012  0.3000000E+03  0.7818608E-02  0.1093470E+00
          1   -1    0    0  502    0  0.00000000000E+00  0.00000000000E+00  0.23691326344E+03  0.23691326344E+03  0.00000000000E+00 0.  1.
         13   -1    0    0    0    0 -0.00000000000E+00 -0.00000000000E+00 -0.27500000000E+03  0.27500000000E+03  0.00000000000E+00 0.  1.
    9000005    2    1    2  501    0 -0.29142534382E+02  0.28279999615E+02 -0.53492565130E+02  0.46848072676E+03  0.46364177027E+03 0.  0.
         13    1    3    3    0    0 -0.15320568417E+03  0.20018082765E+03 -0.46755560973E+02  0.25637946076E+03  0.00000000000E+00 0.  1.
          3    1    3    3  501    0  0.12406314979E+03 -0.17190082803E+03 -0.67370041570E+01  0.21210126600E+03  0.00000000000E+00 0.  1.
         21    1    1    2  502  501  0.29142534382E+02 -0.28279999615E+02  0.15405828573E+02  0.43432536680E+02  0.00000000000E+00 0. -1.
<scales pt_clust_4="550.00000" pt_clust_5="550.00000" pt_clust_6="40.60844"></scales>
<mgrwt>
<rscale>  0 0.30000000E+03</rscale>
<asrwt>  1 0.40608444E+02</asrwt>
<pdfrwt beam="1">  1        1 0.86150278E+00 0.30000000E+03</pdfrwt>
<pdfrwt beam="2">0</pdfrwt>
<totfact> 0.30324430E-04</totfact>
</mgrwt>
<clustering>
<clus scale="   40.608">  1  6  2 -1</clus>
<clus scale="  463.642">  4  5 -1 -1</clus>
<clus scale="  300.000">  1  4  2 -1</clus>
</clustering>
</event>
<event>
 6    1  0.9131597E-012  0.3000000E+03  0.7818608E-02  0.1093470E+00
          1   -1    0    0  502    0  0.00000000000E+00  0.00000000000E+00  0.21843960283E+03  0.21843960283E+03  0.00000000000E+00 0.  1.
         13   -1    0    0    0    0 -0.00000000000E+00 -0.00000000000E+00 -0.27500000000E+03  0.27500000000E+03  0.00000000000E+00 0.  1.
    9000005    2    1    2  501    0 -0.55011873855E+00 -0.31617262593E+02 -0.45809205140E+02  0.46003987147E+03  0.45665988015E+03 0.  0.
         13    1    3    3    0    0 -0.16189683691E+02 -0.17401195160E+03  0.14105432591E+03  0.22458536910E+03  0.00000000000E+00 0.  1.
          3    1    3    3  501    0  0.15639564953E+02  0.14239468901E+03 -0.18686353105E+03  0.23545450237E+03  0.00000000000E+00 0.  1.
         21    1    1    2  502  501  0.55011873855E+00  0.31617262593E+02 -0.10751192034E+02  0.33399731356E+02  0.00000000000E+00 0. -1.
<scales pt_clust_4="550.00000" pt_clust_5="550.00000" pt_clust_6="31.62206"></scales>
<mgrwt>
<rscale>  0 0.30000000E+03</rscale>
<asrwt>  1 0.31622064E+02</asrwt>
<pdfrwt beam="1">  1        1 0.79432583E+00 0.30000000E+03</pdfrwt>
<pdfrwt beam="2">0</pdfrwt>
<totfact> 0.11634059E-03</totfact>
</mgrwt>
<clustering>
<clus scale="   31.622">  1  6  2 -1</clus>
<clus scale="  456.660">  4  5 -1 -1</clus>
<clus scale="  300.000">  1  4  2 -1</clus>
</clustering>
</event>
<event>
 6    1  0.9131597E-012  0.3000000E+03  0.7818608E-02  0.1093470E+00
          1   -1    0    0  502    0  0.00000000000E+00  0.00000000000E+00  0.24076949496E+03  0.24076949496E+03  0.00000000000E+00 0.  1.
         13   -1    0    0    0    0 -0.00000000000E+00 -0.00000000000E+00 -0.27500000000E+03  0.27500000000E+03  0.00000000000E+00 0.  1.
    9000005    2    1    2  501    0  0.25147399886E+02  0.32432733050E+02 -0.37743562085E+02  0.47457950268E+03  0.47129274765E+03 0.  0.
         13    1    3    3    0    0 -0.58736339928E+02 -0.20412991009E+03 -0.64935313721E+02  0.22211612456E+03  0.00000000000E+00 0.  1.
          1    1    3    3  501    0  0.83883739814E+02  0.23656264314E+03  0.27191751636E+02  0.25246337812E+03  0.00000000000E+00 0.  1.
         21    1    1    2  502  501 -0.25147399886E+02 -0.32432733050E+02  0.35130570413E+01  0.41189992278E+02  0.00000000000E+00 0.  1.
<scales pt_clust_4="550.00000" pt_clust_5="550.00000" pt_clust_6="41.03991"></scales>
<mgrwt>
<rscale>  0 0.30000000E+03</rscale>
<asrwt>  1 0.41039906E+02</asrwt>
<pdfrwt beam="1">  1        1 0.87552544E+00 0.30000000E+03</pdfrwt>
<pdfrwt beam="2">0</pdfrwt>
<totfact> 0.21563071E-04</totfact>
</mgrwt>
<clustering>
<clus scale="   41.040">  1  6  2 -1</clus>
<clus scale="  471.293">  4  5 -1 -1</clus>
<clus scale="  300.000">  1  4  2 -1</clus>
</clustering>
</event>
<event>
 6    1  0.9131597E-012  0.3000000E+03  0.7818608E-02  0.1093470E+00
          1   -1    0    0  502    0  0.00000000000E+00  0.00000000000E+00  0.22130447273E+03  0.22130447273E+03  0.00000000000E+00 0.  1.
         13   -1    0    0    0    0 -0.00000000000E+00 -0.00000000000E+00 -0.27500000000E+03  0.27500000000E+03  0.00000000000E+00 0.  1.
    9000005    2    1    2  501    0 -0.29148247936E+02  0.78709850442E+01 -0.66539317587E+02  0.46349386907E+03  0.45769805889E+03 0.  0.
         13    1    3    3    0    0 -0.62109251024E+02 -0.21986583123E+03 -0.28005376788E+02  0.23018002506E+03  0.00000000000E+00 0.  1.
          3    1    3    3  501    0  0.32961003089E+02  0.22773681628E+03 -0.38533940799E+02  0.23331384401E+03  0.00000000000E+00 0.  1.
         21    1    1    2  502  501  0.29148247936E+02 -0.78709850442E+01  0.12843790320E+02  0.32810603668E+02  0.00000000000E+00 0. -1.
<scales pt_clust_4="550.00000" pt_clust_5="550.00000" pt_clust_6="30.19226"></scales>
<mgrwt>
<rscale>  0 0.30000000E+03</rscale>
<asrwt>  1 0.30192263E+02</asrwt>
<pdfrwt beam="1">  1        1 0.80474354E+00 0.30000000E+03</pdfrwt>
<pdfrwt beam="2">0</pdfrwt>
<totfact> 0.98441030E-04</totfact>
</mgrwt>
<clustering>
<clus scale="   30.192">  1  6  2 -1</clus>
<clus scale="  457.698">  4  5 -1 -1</clus>
<clus scale="  300.000">  1  4  2 -1</clus>
</clustering>
</event>
<event>
 6    1  0.9131597E-012  0.3000000E+03  0.7818608E-02  0.1093470E+00
          1   -1    0    0  502    0  0.00000000000E+00  0.00000000000E+00  0.24696790187E+03  0.24696790187E+03  0.00000000000E+00 0.  1.
         13   -1    0    0    0    0 -0.00000000000E+00 -0.00000000000E+00 -0.27500000000E+03  0.27500000000E+03  0.00000000000E+00 0.  1.
    9000005    2    1    2  501    0 -0.37058075347E+02  0.21685293700E+02 -0.36817122290E+02  0.47814177313E+03  0.47478468994E+03 0.  0.
         13    1    3    3    0    0  0.12160880839E+03  0.20210436931E+03 -0.30118176031E+02  0.23778558178E+03  0.00000000000E+00 0.  1.
          3    1    3    3  501    0 -0.15866688374E+03 -0.18041907561E+03 -0.66989462592E+01  0.24035619135E+03  0.00000000000E+00 0.  1.
         21    1    1    2  502  501  0.37058075347E+02 -0.21685293700E+02  0.87850241637E+01  0.43826128746E+02  0.00000000000E+00 0. -1.
<scales pt_clust_4="550.00000" pt_clust_5="550.00000" pt_clust_6="42.93662"></scales>
<mgrwt>
<rscale>  0 0.30000000E+03</rscale>
<asrwt>  1 0.42936615E+02</asrwt>
<pdfrwt beam="1">  1        1 0.89806510E+00 0.30000000E+03</pdfrwt>
<pdfrwt beam="2">0</pdfrwt>
<totfact> 0.11219800E-04</totfact>
</mgrwt>
<clustering>
<clus scale="   42.937">  1  6  2 -1</clus>
<clus scale="  474.785">  4  5 -1 -1</clus>
<clus scale="  300.000">  1  4  2 -1</clus>
</clustering>
</event>
<event>
 6    1  0.9131597E-012  0.3000000E+03  0.7818608E-02  0.1093470E+00
          1   -1    0    0  502    0  0.00000000000E+00  0.00000000000E+00  0.24011284700E+03  0.24011284700E+03  0.00000000000E+00 0.  1.
         13   -1    0    0    0    0 -0.00000000000E+00 -0.00000000000E+00 -0.27500000000E+03  0.27500000000E+03  0.00000000000E+00 0.  1.
    9000005    2    1    2  501    0  0.29266191947E+02 -0.12464833138E+02 -0.33501036358E+02  0.48327256786E+03  0.48105942809E+03 0.  0.
         13    1    3    3    0    0  0.22836966697E+03  0.77427605356E+02 -0.90403489825E+02  0.25752772634E+03  0.00000000000E+00 0.  1.
          1    1    3    3  501    0 -0.19910347502E+03 -0.89892438494E+02  0.56902453467E+02  0.22574484152E+03  0.00000000000E+00 0.  1.
         21    1    1    2  502  501 -0.29266191947E+02  0.12464833138E+02 -0.13861166405E+01  0.31840279138E+02  0.00000000000E+00 0.  1.
<scales pt_clust_4="550.00000" pt_clust_5="550.00000" pt_clust_6="31.81009"></scales>
<mgrwt>
<rscale>  0 0.30000000E+03</rscale>
<asrwt>  1 0.31810094E+02</asrwt>
<pdfrwt beam="1">  1        1 0.87313763E+00 0.30000000E+03</pdfrwt>
<pdfrwt beam="2">0</pdfrwt>
<totfact> 0.23949147E-04</totfact>
</mgrwt>
<clustering>
<clus scale="   31.810">  1  6  2 -1</clus>
<clus scale="  481.059">  4  5 -1 -1</clus>
<clus scale="  300.000">  1  4  2 -1</clus>
</clustering>
</event>
<event>
 6    1  0.9131597E-012  0.3000000E+03  0.7818608E-02  0.1093470E+00
          1   -1    0    0  502    0  0.00000000000E+00  0.00000000000E+00  0.23439304565E+03  0.23439304565E+03  0.00000000000E+00 0.  1.
         13   -1    0    0    0    0 -0.00000000000E+00 -0.00000000000E+00 -0.27500000000E+03  0.27500000000E+03  0.00000000000E+00 0.  1.
    9000005    2    1    2  501    0  0.38480186790E+02  0.13647344313E+02 -0.36136714994E+02  0.46832045355E+03  0.46513569016E+03 0.  0.
         13    1    3    3    0    0 -0.11162186863E+03  0.13873605521E+03 -0.15798686821E+03  0.23804828312E+03  0.00000000000E+00 0.  1.
          1    1    3    3  501    0  0.15010205542E+03 -0.12508871090E+03  0.12185015321E+03  0.23027217043E+03  0.00000000000E+00 0.  1.
         21    1    1    2  502  501 -0.38480186790E+02 -0.13647344313E+02 -0.44702393535E+01  0.41072592103E+02  0.00000000000E+00 0.  1.
<scales pt_clust_4="550.00000" pt_clust_5="550.00000" pt_clust_6="40.82862"></scales>
<mgrwt>
<rscale>  0 0.30000000E+03</rscale>
<asrwt>  1 0.40828623E+02</asrwt>
<pdfrwt beam="1">  1        1 0.85233835E+00 0.30000000E+03</pdfrwt>
<pdfrwt beam="2">0</pdfrwt>
<totfact> 0.37586840E-04</totfact>
</mgrwt>
<clustering>
<clus scale="   40.829">  1  6  2 -1</clus>
<clus scale="  465.136">  4  5 -1 -1</clus>
<clus scale="  300.000">  1  4  2 -1</clus>
</clustering>
</event>
<event>
 6    1  0.9131597E-012  0.3000000E+03  0.7818608E-02  0.1093470E+00
          1   -1    0    0  502    0  0.00000000000E+00  0.00000000000E+00  0.24187595816E+03  0.24187595816E+03  0.00000000000E+00 0.  1.
         13   -1    0    0    0    0 -0.00000000000E+00 -0.00000000000E+00 -0.27500000000E+03  0.27500000000E+03  0.00000000000E+00 0.  1.
    9000005    2    1    2  501    0  0.60626180723E+01 -0.48609286147E+02 -0.41323674952E+01  0.45995377252E+03  0.45731912092E+03 0.  0.
         13    1    3    3    0    0  0.47707735808E+02 -0.10871241862E+03  0.20583507002E+03  0.23761837907E+03  0.00000000000E+00 0.  1.
          3    1    3    3  501    0 -0.41645117736E+02  0.60103132471E+02 -0.20996743752E+03  0.22233539345E+03  0.00000000000E+00 0.  1.
         21    1    1    2  502  501 -0.60626180723E+01  0.48609286147E+02 -0.28991674340E+02  0.56922185645E+02  0.00000000000E+00 0.  1.
<scales pt_clust_4="550.00000" pt_clust_5="550.00000" pt_clust_6="48.98592"></scales>
<mgrwt>
<rscale>  0 0.30000000E+03</rscale>
<asrwt>  1 0.48985921E+02</asrwt>
<pdfrwt beam="1">  1        1 0.87954894E+00 0.30000000E+03</pdfrwt>
<pdfrwt beam="2">0</pdfrwt>
<totfact> 0.18807426E-04</totfact>
</mgrwt>
<clustering>
<clus scale="   48.986">  1  6  2 -1</clus>
<clus scale="  457.319">  4  5 -1 -1</clus>
<clus scale="  300.000">  1  4  2 -1</clus>
</clustering>
</event>
<event>
 6    1  0.9131597E-012  0.3000000E+03  0.7818608E-02  0.1093470E+00
          1   -1    0    0  502    0  0.00000000000E+00  0.00000000000E+00  0.25699236954E+03  0.25699236954E+03  0.00000000000E+00 0.  1.
         13   -1    0    0    0    0 -0.00000000000E+00 -0.00000000000E+00 -0.27500000000E+03  0.27500000000E+03  0.00000000000E+00 0.  1.
    9000005    2    1    2  501    0 -0.91764788819E+01 -0.43043239150E+02 -0.49860089585E+02  0.47766459254E+03  0.47301216288E+03 0.  0.
         13    1    3    3    0    0  0.15037037507E+03  0.62513065853E+02  0.13508181833E+03  0.21158031748E+03  0.00000000000E+00 0.  1.
          3    1    3    3  501    0 -0.15954685395E+03 -0.10555630500E+03 -0.18494190792E+03  0.26608427506E+03  0.00000000000E+00 0.  1.
         21    1    1    2  502  501  0.91764788819E+01  0.43043239150E+02  0.31852459123E+02  0.54327776997E+02  0.00000000000E+00 0.  1.
<scales pt_clust_4="550.00000" pt_clust_5="550.00000" pt_clust_6="44.01055"></scales>
<mgrwt>
<rscale>  0 0.30000000E+03</rscale>
<asrwt>  1 0.44010546E+02</asrwt>
<pdfrwt beam="1">  1        1 0.93451771E+00 0.30000000E+03</pdfrwt>
<pdfrwt beam="2">0</pdfrwt>
<totfact> 0.21893355E-05</totfact>
</mgrwt>
<clustering>
<clus scale="   44.011">  1  6  2 -1</clus>
<clus scale="  473.012">  4  5 -1 -1</clus>
<clus scale="  300.000">  1  4  2 -1</clus>
</clustering>
</event>
<event>
 6    1  0.9131597E-012  0.3000000E+03  0.7818608E-02  0.1093470E+00
          1   -1    0    0  502    0  0.00000000000E+00  0.00000000000E+00  0.23899272422E+03  0.23899272422E+03  0.00000000000E+00 0.  1.
         13   -1    0    0    0    0 -0.00000000000E+00 -0.00000000000E+00 -0.27500000000E+03  0.27500000000E+03  0.00000000000E+00 0.  1.
    9000005    2    1    2  501    0 -0.27996286776E+02  0.32422976760E+02 -0.51083513185E+02  0.46857979181E+03  0.46381295204E+03 0.  0.
         13    1    3    3    0    0 -0.16632567181E+03  0.15961750627E+03 -0.13012353265E+03  0.26471515099E+03  0.00000000000E+00 0.  1.
          3    1    3    3  501    0  0.13832938504E+03 -0.12719452951E+03  0.79040019464E+02  0.20386464083E+03  0.00000000000E+00 0.  1.
         21    1    1    2  502  501  0.27996286776E+02 -0.32422976760E+02  0.15076237402E+02  0.45412932403E+02  0.00000000000E+00 0.  1.
<scales pt_clust_4="550.00000" pt_clust_5="550.00000" pt_clust_6="42.83738"></scales>
<mgrwt>
<rscale>  0 0.30000000E+03</rscale>
<asrwt>  1 0.42837384E+02</asrwt>
<pdfrwt beam="1">  1        1 0.86906445E+00 0.30000000E+03</pdfrwt>
<pdfrwt beam="2">0</pdfrwt>
<totfact> 0.24947859E-04</totfact>
</mgrwt>
<clustering>
<clus scale="   42.837">  1  6  2 -1</clus>
<clus scale="  463.813">  4  5 -1 -1</clus>
<clus scale="  300.000">  1  4  2 -1</clus>
</clustering>
</event>
<event>
 6    1  0.9131597E-012  0.3000000E+03  0.7818608E-02  0.1093470E+00
          1   -1    0    0  502    0  0.00000000000E+00  0.00000000000E+00  0.23792130474E+03  0.23792130474E+03  0.00000000000E+00 0.  1.
         13   -1    0    0    0    0 -0.00000000000E+00 -0.00000000000E+00 -0.27500000000E+03  0.27500000000E+03  0.00000000000E+00 0.  1.
    9000005    2    1    2  501    0 -0.44508736673E+02 -0.22915817140E+01 -0.43871026599E+02  0.46783899389E+03  0.46364035441E+03 0.  0.
         13    1    3    3    0    0 -0.24972699747E+03 -0.49503009173E+02 -0.12067156659E+02  0.25487200210E+03  0.00000000000E+00 0.  1.
          3    1    3    3  501    0  0.20521826080E+03  0.47211427459E+02 -0.31803869940E+02  0.21296699179E+03  0.00000000000E+00 0.  1.
         21    1    1    2  502  501  0.44508736673E+02  0.22915817140E+01  0.67923313393E+01  0.45082310854E+02  0.00000000000E+00 0.  1.
<scales pt_clust_4="550.00000" pt_clust_5="550.00000" pt_clust_6="44.56769"></scales>
<mgrwt>
<rscale>  0 0.30000000E+03</rscale>
<asrwt>  1 0.44567690E+02</asrwt>
<pdfrwt beam="1">  1        1 0.86516838E+00 0.30000000E+03</pdfrwt>
<pdfrwt beam="2">0</pdfrwt>
<totfact> 0.27220878E-04</totfact>
</mgrwt>
<clustering>
<clus scale="   44.568">  1  6  2 -1</clus>
<clus scale="  463.640">  4  5 -1 -1</clus>
<clus scale="  300.000">  1  4  2 -1</clus>
</clustering>
</event>
<event>
 6    1  0.9131597E-012  0.3000000E+03  0.7818608E-02  0.1093470E+00
          1   -1    0    0  502    0  0.00000000000E+00  0.00000000000E+00  0.24165521043E+03  0.24165521043E+03  0.00000000000E+00 0.  1.
         13   -1    0    0    0    0 -0.00000000000E+00 -0.00000000000E+00 -0.27500000000E+03  0.27500000000E+03  0.00000000000E+00 0.  1.
    9000005    2    1    2  501    0 -0.55318119355E+01 -0.48415653283E+02 -0.57129149919E+02  0.46243001127E+03  0.45629277786E+03 0.  0.
         13    1    3    3    0    0 -0.21205298387E+03 -0.64026976359E+02 -0.11194459298E+03  0.24818846380E+03  0.00000000000E+00 0.  1.
          3    1    3    3  501    0  0.20652117193E+03  0.15611323076E+02  0.54815443057E+02  0.21424154747E+03  0.00000000000E+00 0.  1.
         21    1    1    2  502  501  0.55318119355E+01  0.48415653283E+02  0.23784360348E+02  0.54225199154E+02  0.00000000000E+00 0.  1.
<scales pt_clust_4="550.00000" pt_clust_5="550.00000" pt_clust_6="48.73065"></scales>
<mgrwt>
<rscale>  0 0.30000000E+03</rscale>
<asrwt>  1 0.48730652E+02</asrwt>
<pdfrwt beam="1">  1        1 0.87874622E+00 0.30000000E+03</pdfrwt>
<pdfrwt beam="2">0</pdfrwt>
<totfact> 0.19245954E-04</totfact>
</mgrwt>
<clustering>
<clus scale="   48.731">  1  6  2 -1</clus>
<clus scale="  456.293">  4  5 -1 -1</clus>
<clus scale="  300.000">  1  4  2 -1</clus>
</clustering>
</event>
<event>
 6    1  0.9131597E-012  0.3000000E+03  0.7818608E-02  0.1093470E+00
          1   -1    0    0  502    0  0.00000000000E+00  0.00000000000E+00  0.24308557814E+03  0.24308557814E+03  0.00000000000E+00 0.  1.
         13   -1    0    0    0    0 -0.00000000000E+00 -0.00000000000E+00 -0.27500000000E+03  0.27500000000E+03  0.00000000000E+00 0.  1.
    9000005    2    1    2  501    0 -0.48642342109E+01 -0.30692521744E+02 -0.47779723453E+02  0.48319432623E+03  0.47982097001E+03 0.  0.
         13    1    3    3    0    0 -0.61572628603E+02  0.11841913200E+03 -0.21437825208E+03  0.25253180865E+03  0.00000000000E+00 0.  1.
          3    1    3    3  501    0  0.56708394392E+02 -0.14911165374E+03  0.16659852862E+03  0.23066251758E+03  0.00000000000E+00 0.  1.
         21    1    1    2  502  501  0.48642342109E+01  0.30692521744E+02  0.15865301598E+02  0.34891251916E+02  0.00000000000E+00 0.  1.
<scales pt_clust_4="550.00000" pt_clust_5="550.00000" pt_clust_6="31.07558"></scales>
<mgrwt>
<rscale>  0 0.30000000E+03</rscale>
<asrwt>  1 0.31075580E+02</asrwt>
<pdfrwt beam="1">  1        1 0.88394756E+00 0.30000000E+03</pdfrwt>
<pdfrwt beam="2">0</pdfrwt>
<totfact> 0.17939141E-04</totfact>
</mgrwt>
<clustering>
<clus scale="   31.076">  1  6  2 -1</clus>
<clus scale="  479.821">  4  5 -1 -1</clus>
<clus scale="  300.000">  1  4  2 -1</clus>
</clustering>
</event>
<event>
 6    1  0.9131597E-012  0.3000000E+03  0.7818608E-02  0.1093470E+00
          1   -1    0    0  502    0  0.00000000000E+00  0.00000000000E+00  0.22903658358E+03  0.22903658358E+03  0.00000000000E+00 0.  1.
         13   -1    0    0    0    0 -0.00000000000E+00 -0.00000000000E+00 -0.27500000000E+03  0.27500000000E+03  0.00000000000E+00 0.  1.
    9000005    2    1    2  501    0 -0.34251759165E+02 -0.11347259313E+02 -0.51702673728E+02  0.46750054145E+03  0.46322958292E+03 0.  0.
         13    1    3    3    0    0  0.98633431538E+01 -0.13520702232E+03  0.16529523696E+03  0.21377731353E+03  0.00000000000E+00 0.  1.
          1    1    3    3  501    0 -0.44115102319E+02  0.12385976300E+03 -0.21699791068E+03  0.25372322792E+03  0.00000000000E+00 0.  1.
         21    1    1    2  502  501  0.34251759165E+02  0.11347259313E+02  0.57392573071E+01  0.36536042127E+02  0.00000000000E+00 0.  1.
<scales pt_clust_4="550.00000" pt_clust_5="550.00000" pt_clust_6="36.08245"></scales>
<mgrwt>
<rscale>  0 0.30000000E+03</rscale>
<asrwt>  1 0.36082451E+02</asrwt>
<pdfrwt beam="1">  1        1 0.83286030E+00 0.30000000E+03</pdfrwt>
<pdfrwt beam="2">0</pdfrwt>
<totfact> 0.55793960E-04</totfact>
</mgrwt>
<clustering>
<clus scale="   36.082">  1  6  2 -1</clus>
<clus scale="  463.230">  4  5 -1 -1</clus>
<clus scale="  300.000">  1  4  2 -1</clus>
</clustering>
</event>
<event>
 6    1  0.9131597E-012  0.3000000E+03  0.7818608E-02  0.1093470E+00
          1   -1    0    0  502    0  0.00000000000E+00  0.00000000000E+00  0.26871597660E+03  0.26871597660E+03  0.00000000000E+00 0.  1.
         13   -1    0    0    0    0 -0.00000000000E+00 -0.00000000000E+00 -0.27500000000E+03  0.27500000000E+03  0.00000000000E+00 0.  1.
    9000005    2    1    2  501    0  0.28992636312E+02  0.32269574658E+02 -0.38591418827E+02  0.48962654872E+03  0.48617174044E+03 0.  0.
         13    1    3    3    0    0  0.62654356024E+02  0.24913908547E+03 -0.73953908524E+02  0.26732944624E+03  0.00000000000E+00 0.  1.
          3    1    3    3  501    0 -0.33661719712E+02 -0.21686951082E+03  0.35362489697E+02  0.22229710249E+03  0.00000000000E+00 0.  1.
         21    1    1    2  502  501 -0.28992636312E+02 -0.32269574658E+02  0.32307395432E+02  0.54089427881E+02  0.00000000000E+00 0. -1.
<scales pt_clust_4="550.00000" pt_clust_5="550.00000" pt_clust_6="43.38085"></scales>
<mgrwt>
<rscale>  0 0.30000000E+03</rscale>
<asrwt>  1 0.43380853E+02</asrwt>
<pdfrwt beam="1">  1        1 0.97714901E+00 0.30000000E+03</pdfrwt>
<pdfrwt beam="2">0</pdfrwt>
<totfact> 0.34567096E-06</totfact>
</mgrwt>
<clustering>
<clus scale="   43.381">  1  6  2 -1</clus>
<clus scale="  486.172">  4  5 -1 -1</clus>
<clus scale="  300.000">  1  4  2 -1</clus>
</clustering>
</event>
<event>
 6    1  0.9131597E-012  0.3000000E+03  0.7818608E-02  0.1093470E+00
          1   -1    0    0  502    0  0.00000000000E+00  0.00000000000E+00  0.22964939040E+03  0.22964939040E+03  0.00000000000E+00 0.  1.
         13   -1    0    0    0    0 -0.00000000000E+00 -0.00000000000E+00 -0.27500000000E+03  0.27500000000E+03  0.00000000000E+00 0.  1.
    9000005    2    1    2  501    0 -0.32932766812E+02 -0.33629380814E+01 -0.40989463188E+02  0.47125933080E+03  0.46830475578E+03 0.  0.
         13    1    3    3    0    0  0.13102881399E+03 -0.75917285208E+02  0.14730143309E+03  0.21125741757E+03  0.00000000000E+00 0.  1.
          3    1    3    3  501    0 -0.16396158080E+03  0.72554347126E+02 -0.18829089627E+03  0.26000191323E+03  0.00000000000E+00 0.  1.
         21    1    1    2  502  501  0.32932766812E+02  0.33629380814E+01 -0.43611464084E+01  0.33390059605E+02  0.00000000000E+00 0.  1.
<scales pt_clust_4="550.00000" pt_clust_5="550.00000" pt_clust_6="33.10404"></scales>
<mgrwt>
<rscale>  0 0.30000000E+03</rscale>
<asrwt>  1 0.33104042E+02</asrwt>
<pdfrwt beam="1">  1        1 0.83508869E+00 0.30000000E+03</pdfrwt>
<pdfrwt beam="2">0</pdfrwt>
<totfact> 0.54586982E-04</totfact>
</mgrwt>
<clustering>
<clus scale="   33.104">  1  6  2 -1</clus>
<clus scale="  468.305">  4  5 -1 -1</clus>
<clus scale="  300.000">  1  4  2 -1</clus>
</clustering>
</event>
<event>
 6    1  0.9131597E-012  0.3000000E+03  0.7818608E-02  0.1093470E+00
          1   -1    0    0  502    0  0.00000000000E+00  0.00000000000E+00  0.24024537740E+03  0.24024537740E+03  0.00000000000E+00 0.  1.
         13   -1    0    0    0    0 -0.00000000000E+00 -0.00000000000E+00 -0.27500000000E+03  0.27500000000E+03  0.00000000000E+00 0.  1.
    9000005    2    1    2  501    0 -0.42416635572E+02 -0.28228962083E+02 -0.41337709421E+02  0.46387045837E+03  0.45920687130E+03 0.  0.
         13    1    3    3    0    0 -0.16585848068E+03 -0.11871730811E+03  0.12389027941E+03  0.23864541938E+03  0.00000000000E+00 0.  1.
          3    1    3    3  501    0  0.12344184511E+03  0.90488346030E+02 -0.16522798883E+03  0.22522503898E+03  0.00000000000E+00 0.  1.
         21    1    1    2  502  501  0.42416635572E+02  0.28228962083E+02  0.65830868211E+01  0.51374919032E+02  0.00000000000E+00 0.  1.
<scales pt_clust_4="550.00000" pt_clust_5="550.00000" pt_clust_6="50.95140"></scales>
<mgrwt>
<rscale>  0 0.30000000E+03</rscale>
<asrwt>  1 0.50951401E+02</asrwt>
<pdfrwt beam="1">  1        1 0.87361955E+00 0.30000000E+03</pdfrwt>
<pdfrwt beam="2">0</pdfrwt>
<totfact> 0.21727038E-04</totfact>
</mgrwt>
<clustering>
<clus scale="   50.951">  1  6  2 -1</clus>
<clus scale="  459.207">  4  5 -1 -1</clus>
<clus scale="  300.000">  1  4  2 -1</clus>
</clustering>
</event>
<event>
 6    1  0.9131597E-012  0.3000000E+03  0.7818608E-02  0.1093470E+00
          1   -1    0    0  502    0  0.00000000000E+00  0.00000000000E+00  0.23541534658E+03  0.23541534658E+03  0.00000000000E+00 0.  1.
         13   -1    0    0    0    0 -0.00000000000E+00 -0.00000000000E+00 -0.27500000000E+03  0.27500000000E+03  0.00000000000E+00 0.  1.
    9000005    2    1    2  501    0  0.33044166565E+02  0.87441709012E+01 -0.47275077589E+02  0.47537936376E+03  0.47178621118E+03 0.  0.
         13    1    3    3    0    0 -0.13640424542E+03 -0.17200341869E+03  0.14615655099E+02  0.22001116241E+03  0.00000000000E+00 0.  1.
          3    1    3    3  501    0  0.16944841198E+03  0.18074758960E+03 -0.61890732687E+02  0.25536820135E+03  0.00000000000E+00 0.  1.
         21    1    1    2  502  501 -0.33044166565E+02 -0.87441709012E+01  0.76904241729E+01  0.35035982827E+02  0.00000000000E+00 0. -1.
<scales pt_clust_4="550.00000" pt_clust_5="550.00000" pt_clust_6="34.18154"></scales>
<mgrwt>
<rscale>  0 0.30000000E+03</rscale>
<asrwt>  1 0.34181537E+02</asrwt>
<pdfrwt beam="1">  1        1 0.85605581E+00 0.30000000E+03</pdfrwt>
<pdfrwt beam="2">0</pdfrwt>
<totfact> 0.35715192E-04</totfact>
</mgrwt>
<clustering>
<clus scale="   34.182">  1  6  2 -1</clus>
<clus scale="  471.786">  4  5 -1 -1</clus>
<clus scale="  300.000">  1  4  2 -1</clus>
</clustering>
</event>
<event>
 6    1  0.9131597E-012  0.3000000E+03  0.7818608E-02  0.1093470E+00
          1   -1    0    0  502    0  0.00000000000E+00  0.00000000000E+00  0.25031300431E+03  0.25031300431E+03  0.00000000000E+00 0.  1.
         13   -1    0    0    0    0 -0.00000000000E+00 -0.00000000000E+00 -0.27500000000E+03  0.27500000000E+03  0.00000000000E+00 0.  1.
    9000005    2    1    2  501    0  0.30508498315E+02 -0.94287456294E+01 -0.63819057512E+02  0.47480569814E+03  0.46941230190E+03 0.  0.
         13    1    3    3    0    0 -0.10275911190E+03 -0.14012661016E+03  0.12129924164E+03  0.21191603992E+03  0.00000000000E+00 0.  1.
          1    1    3    3  501    0  0.13326761021E+03  0.13069786453E+03 -0.18511829915E+03  0.26288965823E+03  0.00000000000E+00 0.  1.
         21    1    1    2  502  501 -0.30508498315E+02  0.94287456294E+01  0.39132061820E+02  0.50507306164E+02  0.00000000000E+00 0.  1.
<scales pt_clust_4="550.00000" pt_clust_5="550.00000" pt_clust_6="31.93227"></scales>
<mgrwt>
<rscale>  0 0.30000000E+03</rscale>
<asrwt>  1 0.31932268E+02</asrwt>
<pdfrwt beam="1">  1        1 0.91022911E+00 0.30000000E+03</pdfrwt>
<pdfrwt beam="2">0</pdfrwt>
<totfact> 0.72178157E-05</totfact>
</mgrwt>
<clustering>
<clus scale="   31.932">  1  6  2 -1</clus>
<clus scale="  469.412">  4  5 -1 -1</clus>
<clus scale="  300.000">  1  4  2 -1</clus>
</clustering>
</event>
<event>
 6    1  0.9131597E-012  0.3000000E+03  0.7818608E-02  0.1093470E+00
          1   -1    0    0  502    0  0.00000000000E+00  0.00000000000E+00  0.22680094879E+03  0.22680094879E+03  0.00000000000E+00 0.  1.
         13   -1    0    0    0    0 -0.00000000000E+00 -0.00000000000E+00 -0.27500000000E+03  0.27500000000E+03  0.00000000000E+00 0.  1.
    9000005    2    1    2  501    0  0.39968940099E+02  0.68691218835E+01 -0.46744897899E+02  0.46121997333E+03  0.45704931606E+03 0.  0.
         13    1    3    3    0    0 -0.10088686295E+03  0.71340008774E+02  0.16045292238E+03  0.20251591608E+03  0.00000000000E+00 0.  1.
          3    1    3    3  501    0  0.14085580304E+03 -0.64470886890E+02 -0.20719782028E+03  0.25870405725E+03  0.00000000000E+00 0.  1.
         21    1    1    2  502  501 -0.39968940099E+02 -0.68691218835E+01 -0.14541533065E+01  0.40580975468E+02  0.00000000000E+00 0.  1.
<scales pt_clust_4="550.00000" pt_clust_5="550.00000" pt_clust_6="40.55491"></scales>
<mgrwt>
<rscale>  0 0.30000000E+03</rscale>
<asrwt>  1 0.40554913E+02</asrwt>
<pdfrwt beam="1">  1        1 0.82473072E+00 0.30000000E+03</pdfrwt>
<pdfrwt beam="2">0</pdfrwt>
<totfact> 0.63918642E-04</totfact>
</mgrwt>
<clustering>
<clus scale="   40.555">  1  6  2 -1</clus>
<clus scale="  457.049">  4  5 -1 -1</clus>
<clus scale="  300.000">  1  4  2 -1</clus>
</clustering>
</event>
<event>
 6    1  0.9131597E-012  0.3000000E+03  0.7818608E-02  0.1093470E+00
          1   -1    0    0  502    0  0.00000000000E+00  0.00000000000E+00  0.22013205350E+03  0.22013205350E+03  0.00000000000E+00 0.  1.
         13   -1    0    0    0    0 -0.00000000000E+00 -0.00000000000E+00 -0.27500000000E+03  0.27500000000E+03  0.00000000000E+00 0.  1.
    9000005    2    1    2  501    0  0.19793860821E+02  0.26782460920E+02 -0.57331993612E+02  0.46173791229E+03  0.45695278204E+03 0.  0.
         13    1    3    3    0    0 -0.65544080982E+02  0.75685254679E+02 -0.23679369920E+03  0.25709052940E+03  0.00000000000E+00 0.  1.
          1    1    3    3  501    0  0.85337941803E+02 -0.48902793759E+02  0.17946170559E+03  0.20464738288E+03  0.00000000000E+00 0.  1.
         21    1    1    2  502  501 -0.19793860821E+02 -0.26782460920E+02  0.24640471096E+01  0.33394141212E+02  0.00000000000E+00 0.  1.
<scales pt_clust_4="550.00000" pt_clust_5="550.00000" pt_clust_6="33.30311"></scales>
<mgrwt>
<rscale>  0 0.30000000E+03</rscale>
<asrwt>  1 0.33303110E+02</asrwt>
<pdfrwt beam="1">  1        1 0.80048019E+00 0.30000000E+03</pdfrwt>
<pdfrwt beam="2">0</pdfrwt>
<totfact> 0.10384156E-03</totfact>
</mgrwt>
<clustering>
<clus scale="   33.303">  1  6  2 -1</clus>
<clus scale="  456.953">  4  5 -1 -1</clus>
<clus scale="  300.000">  1  4  2 -1</clus>
</clustering>
</event>
<event>
 6    1  0.9131597E-012  0.3000000E+03  0.7818608E-02  0.1093470E+00
          1   -1    0    0  502    0  0.00000000000E+00  0.00000000000E+00  0.23340358203E+03  0.23340358203E+03  0.00000000000E+00 0.  1.
         13   -1    0    0    0    0 -0.00000000000E+00 -0.00000000000E+00 -0.27500000000E+03  0.27500000000E+03  0.00000000000E+00 0.  1.
    9000005    2    1    2  501    0 -0.37713027322E+02  0.65942812797E+01 -0.53144133678E+02  0.46841474967E+03  0.46381280900E+03 0.  0.
         13    1    3    3    0    0 -0.10588500734E+03 -0.85265338716E+02  0.16999068174E+03  0.21766636085E+03  0.00000000000E+00 0.  1.
          3    1    3    3  501    0  0.68171980020E+02  0.91859619996E+02 -0.22313481542E+03  0.25074838882E+03  0.00000000000E+00 0.  1.
         21    1    1    2  502  501  0.37713027322E+02 -0.65942812797E+01  0.11547715707E+02  0.39988832359E+02  0.00000000000E+00 0.  1.
<scales pt_clust_4="550.00000" pt_clust_5="550.00000" pt_clust_6="38.28521"></scales>
<mgrwt>
<rscale>  0 0.30000000E+03</rscale>
<asrwt>  1 0.38285206E+02</asrwt>
<pdfrwt beam="1">  1        1 0.84874030E+00 0.30000000E+03</pdfrwt>
<pdfrwt beam="2">0</pdfrwt>
<totfact> 0.41122871E-04</totfact>
</mgrwt>
<clustering>
<clus scale="   38.285">  1  6  2 -1</clus>
<clus scale="  463.813">  4  5 -1 -1</clus>
<clus scale="  300.000">  1  4  2 -1</clus>
</clustering>
</event>
<event>
 6    1  0.9131597E-012  0.3000000E+03  0.7818608E-02  0.1093470E+00
          1   -1    0    0  502    0  0.00000000000E+00  0.00000000000E+00  0.24996579971E+03  0.24996579971E+03  0.00000000000E+00 0.  1.
         13   -1    0    0    0    0 -0.00000000000E+00 -0.00000000000E+00 -0.27500000000E+03  0.27500000000E+03  0.00000000000E+00 0.  1.
    9000005    2    1    2  501    0 -0.25851684287E+02 -0.16583049069E+02 -0.65994783148E+02  0.47376935018E+03  0.46814397216E+03 0.  0.
         13    1    3    3    0    0  0.11912186130E+03 -0.12781939875E+03  0.12083361431E+03  0.21243488152E+03  0.00000000000E+00 0.  1.
          1    1    3    3  501    0 -0.14497354559E+03  0.11123634968E+03 -0.18682839746E+03  0.26133446866E+03  0.00000000000E+00 0.  1.
         21    1    1    2  502  501  0.25851684287E+02  0.16583049069E+02  0.40960582862E+02  0.51196449538E+02  0.00000000000E+00 0.  1.
<scales pt_clust_4="550.00000" pt_clust_5="550.00000" pt_clust_6="30.71330"></scales>
<mgrwt>
<rscale>  0 0.30000000E+03</rscale>
<asrwt>  1 0.30713305E+02</asrwt>
<pdfrwt beam="1">  1        1 0.90896654E+00 0.30000000E+03</pdfrwt>
<pdfrwt beam="2">0</pdfrwt>
<totfact> 0.77974369E-05</totfact>
</mgrwt>
<clustering>
<clus scale="   30.713">  1  6  2 -1</clus>
<clus scale="  468.144">  4  5 -1 -1</clus>
<clus scale="  300.000">  1  4  2 -1</clus>
</clustering>
</event>
<event>
 6    1  0.9131597E-012  0.3000000E+03  0.7818608E-02  0.1093470E+00
          1   -1    0    0  502    0  0.00000000000E+00  0.00000000000E+00  0.23261590851E+03  0.23261590851E+03  0.00000000000E+00 0.  1.
         13   -1    0    0    0    0 -0.00000000000E+00 -0.00000000000E+00 -0.27500000000E+03  0.27500000000E+03  0.00000000000E+00 0.  1.
    9000005    2    1    2  501    0 -0.39252453390E+02  0.79426749984E-01 -0.48336530513E+02  0.46791461210E+03  0.46375306213E+03 0.  0.
         13    1    3    3    0    0  0.17040960898E+03  0.60212057008E+02  0.97674584983E+02  0.20543916665E+03  0.00000000000E+00 0.  1.
          3    1    3    3  501    0 -0.20966206237E+03 -0.60132630258E+02 -0.14601111550E+03  0.26247544546E+03  0.00000000000E+00 0.  1.
         21    1    1    2  502  501  0.39252453390E+02 -0.79426749984E-01  0.59524390194E+01  0.39701296403E+02  0.00000000000E+00 0. -1.
<scales pt_clust_4="550.00000" pt_clust_5="550.00000" pt_clust_6="39.25253"></scales>
<mgrwt>
<rscale>  0 0.30000000E+03</rscale>
<asrwt>  1 0.39252534E+02</asrwt>
<pdfrwt beam="1">  1        1 0.84587603E+00 0.30000000E+03</pdfrwt>
<pdfrwt beam="2">0</pdfrwt>
<totfact> 0.43455171E-04</totfact>
</mgrwt>
<clustering>
<clus scale="   39.253">  1  6  2 -1</clus>
<clus scale="  463.753">  4  5 -1 -1</clus>
<clus scale="  300.000">  1  4  2 -1</clus>
</clustering>
</event>
<event>
 6    1  0.9131597E-012  0.3000000E+03  0.7818608E-02  0.1093470E+00
          1   -1    0    0  502    0  0.00000000000E+00  0.00000000000E+00  0.23956705431E+03  0.23956705431E+03  0.00000000000E+00 0.  1.
         13   -1    0    0    0    0 -0.00000000000E+00 -0.00000000000E+00 -0.27500000000E+03  0.27500000000E+03  0.00000000000E+00 0.  1.
    9000005    2    1    2  501    0  0.63775163570E+01  0.38067108996E+02 -0.62019160019E+02  0.46769910903E+03  0.46195920045E+03 0.  0.
         13    1    3    3    0    0 -0.17701220908E+03  0.70249586530E+02 -0.16757069959E+03  0.25366959994E+03  0.00000000000E+00 0.  1.
          3    1    3    3  501    0  0.18338972544E+03 -0.32182477535E+02  0.10555153957E+03  0.21402950909E+03  0.00000000000E+00 0.  1.
         21    1    1    2  502  501 -0.63775163570E+01 -0.38067108996E+02  0.26586214328E+02  0.46867945277E+02  0.00000000000E+00 0. -1.
<scales pt_clust_4="550.00000" pt_clust_5="550.00000" pt_clust_6="38.59764"></scales>
<mgrwt>
<rscale>  0 0.30000000E+03</rscale>
<asrwt>  1 0.38597636E+02</asrwt>
<pdfrwt beam="1">  1        1 0.87115292E+00 0.30000000E+03</pdfrwt>
<pdfrwt beam="2">0</pdfrwt>
<totfact> 0.24204777E-04</totfact>
</mgrwt>
<clustering>
<clus scale="   38.598">  1  6  2 -1</clus>
<clus scale="  461.959">  4  5 -1 -1</clus>
<clus scale="  300.000">  1  4  2 -1</clus>
</clustering>
</event>
<event>
 6    1  0.9131597E-012  0.3000000E+03  0.7818608E-02  0.1093470E+00
          1   -1    0    0  502    0  0.00000000000E+00  0.00000000000E+00  0.25402158536E+03  0.25402158536E+03  0.00000000000E+00 0.  1.
         13   -1    0    0    0    0 -0.00000000000E+00 -0.00000000000E+00 -0.27500000000E+03  0.27500000000E+03  0.00000000000E+00 0.  1.
    9000005    2    1    2  501    0  0.12719238466E+02 -0.57284431501E+02 -0.31913866621E+02  0.46933181044E+03  0.46455416077E+03 0.  0.
         13    1    3    3    0    0 -0.56300635765E+02  0.18855480084E+03 -0.74595156050E+02  0.21044503276E+03  0.00000000000E+00 0.  1.
          3    1    3    3  501    0  0.69019874231E+02 -0.24583923234E+03  0.42681289429E+02  0.25888677769E+03  0.00000000000E+00 0.  1.
         21    1    1    2  502  501 -0.12719238466E+02  0.57284431501E+02  0.10935451981E+02  0.59689774916E+02  0.00000000000E+00 0. -1.
<scales pt_clust_4="550.00000" pt_clust_5="550.00000" pt_clust_6="58.67951"></scales>
<mgrwt>
<rscale>  0 0.30000000E+03</rscale>
<asrwt>  1 0.58679512E+02</asrwt>
<pdfrwt beam="1">  1        1 0.92371486E+00 0.30000000E+03</pdfrwt>
<pdfrwt beam="2">0</pdfrwt>
<totfact> 0.31792958E-05</totfact>
</mgrwt>
<clustering>
<clus scale="   58.680">  1  6  2 -1</clus>
<clus scale="  464.554">  4  5 -1 -1</clus>
<clus scale="  300.000">  1  4  2 -1</clus>
</clustering>
</event>
<event>
 6    1  0.9131597E-012  0.3000000E+03  0.7818608E-02  0.1093470E+00
          1   -1    0    0  502    0  0.00000000000E+00  0.00000000000E+00  0.24667874799E+03  0.24667874799E+03  0.00000000000E+00 0.  1.
         13   -1    0    0    0    0 -0.00000000000E+00 -0.00000000000E+00 -0.27500000000E+03  0.27500000000E+03  0.00000000000E+00 0.  1.
    9000005    2    1    2  501    0  0.32491306244E+02  0.16705101720E+02 -0.68194470192E+02  0.46759900194E+03  0.46115463290E+03 0.  0.
         13    1    3    3    0    0 -0.18272912830E+03  0.84122382371E+00  0.86407592182E+02  0.20213093275E+03  0.00000000000E+00 0.  1.
          3    1    3    3  501    0  0.21522043455E+03  0.15863877897E+02 -0.15460206237E+03  0.26546806919E+03  0.00000000000E+00 0.  1.
         21    1    1    2  502  501 -0.32491306244E+02 -0.16705101720E+02  0.39873218177E+02  0.54079746049E+02  0.00000000000E+00 0. -1.
<scales pt_clust_4="550.00000" pt_clust_5="550.00000" pt_clust_6="36.53417"></scales>
<mgrwt>
<rscale>  0 0.30000000E+03</rscale>
<asrwt>  1 0.36534168E+02</asrwt>
<pdfrwt beam="1">  1        1 0.89701363E+00 0.30000000E+03</pdfrwt>
<pdfrwt beam="2">0</pdfrwt>
<totfact> 0.11877649E-04</totfact>
</mgrwt>
<clustering>
<clus scale="   36.534">  1  6  2 -1</clus>
<clus scale="  461.155">  4  5 -1 -1</clus>
<clus scale="  300.000">  1  4  2 -1</clus>
</clustering>
</event>
<event>
 6    1  0.9131597E-012  0.3000000E+03  0.7818608E-02  0.1093470E+00
          1   -1    0    0  502    0  0.00000000000E+00  0.00000000000E+00  0.22066423705E+03  0.22066423705E+03  0.00000000000E+00 0.  1.
         13   -1    0    0    0    0 -0.00000000000E+00 -0.00000000000E+00 -0.27500000000E+03  0.27500000000E+03  0.00000000000E+00 0.  1.
    9000005    2    1    2  501    0 -0.29091160532E+02  0.11819179171E+02 -0.45065855256E+02  0.46292405064E+03  0.45965395324E+03 0.  0.
         13    1    3    3    0    0 -0.71224854030E+02 -0.22627221111E+02  0.19915387567E+03  0.21271397971E+03  0.00000000000E+00 0.  1.
          3    1    3    3  501    0  0.42133693498E+02  0.34446400282E+02 -0.24421973093E+03  0.25021007093E+03  0.00000000000E+00 0.  1.
         21    1    1    2  502  501  0.29091160532E+02 -0.11819179171E+02 -0.92699076967E+01  0.32740186409E+02  0.00000000000E+00 0. -1.
<scales pt_clust_4="550.00000" pt_clust_5="550.00000" pt_clust_6="31.40047"></scales>
<mgrwt>
<rscale>  0 0.30000000E+03</rscale>
<asrwt>  1 0.31400471E+02</asrwt>
<pdfrwt beam="1">  1        1 0.80241541E+00 0.30000000E+03</pdfrwt>
<pdfrwt beam="2">0</pdfrwt>
<totfact> 0.10166225E-03</totfact>
</mgrwt>
<clustering>
<clus scale="   31.400">  1  6  2 -1</clus>
<clus scale="  459.654">  4  5 -1 -1</clus>
<clus scale="  300.000">  1  4  2 -1</clus>
</clustering>
</event>
<event>
 6    1  0.9131597E-012  0.3000000E+03  0.7818608E-02  0.1093470E+00
          1   -1    0    0  502    0  0.00000000000E+00  0.00000000000E+00  0.23328077847E+03  0.23328077847E+03  0.00000000000E+00 0.  1.
         13   -1    0    0    0    0 -0.00000000000E+00 -0.00000000000E+00 -0.27500000000E+03  0.27500000000E+03  0.00000000000E+00 0.  1.
    9000005    2    1    2  501    0  0.25511383477E+02 -0.15881826204E+02 -0.47646890564E+02  0.47765072214E+03  0.47431732320E+03 0.  0.
         13    1    3    3    0    0  0.32088041451E+02 -0.21338305021E+03  0.93131601162E+02  0.23502226205E+03  0.00000000000E+00 0.  1.
          3    1    3    3  501    0 -0.65766579738E+01  0.19750122401E+03 -0.14077849173E+03  0.24262846010E+03  0.00000000000E+00 0.  1.
         21    1    1    2  502  501 -0.25511383477E+02  0.15881826204E+02  0.59276690334E+01  0.30630056328E+02  0.00000000000E+00 0. -1.
<scales pt_clust_4="550.00000" pt_clust_5="550.00000" pt_clust_6="30.05101"></scales>
<mgrwt>
<rscale>  0 0.30000000E+03</rscale>
<asrwt>  1 0.30051008E+02</asrwt>
<pdfrwt beam="1">  1        1 0.84829374E+00 0.30000000E+03</pdfrwt>
<pdfrwt beam="2">0</pdfrwt>
<totfact> 0.43450014E-04</totfact>
</mgrwt>
<clustering>
<clus scale="   30.051">  1  6  2 -1</clus>
<clus scale="  474.317">  4  5 -1 -1</clus>
<clus scale="  300.000">  1  4  2 -1</clus>
</clustering>
</event>
<event>
 6    1  0.9131597E-012  0.3000000E+03  0.7818608E-02  0.1093470E+00
          1   -1    0    0  502    0  0.00000000000E+00  0.00000000000E+00  0.24224697103E+03  0.24224697103E+03  0.00000000000E+00 0.  1.
         13   -1    0    0    0    0 -0.00000000000E+00 -0.00000000000E+00 -0.27500000000E+03  0.27500000000E+03  0.00000000000E+00 0.  1.
    9000005    2    1    2  501    0  0.30189376026E+02 -0.23846380696E+02 -0.45585802072E+02  0.47669172029E+03  0.47294490434E+03 0.  0.
         13    1    3    3    0    0 -0.30679938637E+02 -0.10768446881E+03  0.18932022148E+03  0.21995306253E+03  0.00000000000E+00 0.  1.
          1    1    3    3  501    0  0.60869314663E+02  0.83838088113E+02 -0.23490602355E+03  0.25673865776E+03  0.00000000000E+00 0.  1.
         21    1    1    2  502  501 -0.30189376026E+02  0.23846380696E+02  0.12832773103E+02  0.40555250741E+02  0.00000000000E+00 0. -1.
<scales pt_clust_4="550.00000" pt_clust_5="550.00000" pt_clust_6="38.47140"></scales>
<mgrwt>
<rscale>  0 0.30000000E+03</rscale>
<asrwt>  1 0.38471396E+02</asrwt>
<pdfrwt beam="1">  1        1 0.88089808E+00 0.30000000E+03</pdfrwt>
<pdfrwt beam="2">0</pdfrwt>
<totfact> 0.18899946E-04</totfact>
</mgrwt>
<clustering>
<clus scale="   38.471">  1  6  2 -1</clus>
<clus scale="  472.945">  4  5 -1 -1</clus>
<clus scale="  300.000">  1  4  2 -1</clus>
</clustering>
</event>
<event>
 6    1  0.9131597E-012  0.3000000E+03  0.7818608E-02  0.1093470E+00
          1   -1    0    0  502    0  0.00000000000E+00  0.00000000000E+00  0.24900339557E+03  0.24900339557E+03  0.00000000000E+00 0.  1.
         13   -1    0    0    0    0 -0.00000000000E+00 -0.00000000000E+00 -0.27500000000E+03  0.27500000000E+03  0.00000000000E+00 0.  1.
    9000005    2    1    2  501    0 -0.10296393173E+02  0.35769396618E+02 -0.48478093877E+02  0.48051911318E+03  0.47661622623E+03 0.  0.
         13    1    3    3    0    0  0.47876922726E+02 -0.54650297102E+01  0.20841520520E+03  0.21391344988E+03  0.00000000000E+00 0.  1.
          3    1    3    3  501    0 -0.58173315899E+02  0.41234426328E+02 -0.25689329908E+03  0.26660566331E+03  0.00000000000E+00 0.  1.
         21    1    1    2  502  501  0.10296393173E+02 -0.35769396618E+02  0.22481489443E+02  0.43484282383E+02  0.00000000000E+00 0. -1.
<scales pt_clust_4="550.00000" pt_clust_5="550.00000" pt_clust_6="37.22184"></scales>
<mgrwt>
<rscale>  0 0.30000000E+03</rscale>
<asrwt>  1 0.37221841E+02</asrwt>
<pdfrwt beam="1">  1        1 0.90546689E+00 0.30000000E+03</pdfrwt>
<pdfrwt beam="2">0</pdfrwt>
<totfact> 0.89542735E-05</totfact>
</mgrwt>
<clustering>
<clus scale="   37.222">  1  6  2 -1</clus>
<clus scale="  476.616">  4  5 -1 -1</clus>
<clus scale="  300.000">  1  4  2 -1</clus>
</clustering>
</event>
<event>
 6    1  0.9131597E-012  0.3000000E+03  0.7818608E-02  0.1093470E+00
          1   -1    0    0  502    0  0.00000000000E+00  0.00000000000E+00  0.22280202291E+03  0.22280202291E+03  0.00000000000E+00 0.  1.
         13   -1    0    0    0    0 -0.00000000000E+00 -0.00000000000E+00 -0.27500000000E+03  0.27500000000E+03  0.00000000000E+00 0.  1.
    9000005    2    1    2  501    0  0.17166026182E+02 -0.25744332163E+02 -0.44432170598E+02  0.46589981540E+03  0.46274288445E+03 0.  0.
         13    1    3    3    0    0  0.67712432063E+02 -0.19210062558E+03  0.11162740820E+03  0.23226773789E+03  0.00000000000E+00 0.  1.
          3    1    3    3  501    0 -0.50546405880E+02  0.16635629342E+03 -0.15605957880E+03  0.23363207751E+03  0.00000000000E+00 0.  1.
         21    1    1    2  502  501 -0.17166026182E+02  0.25744332163E+02 -0.77658064959E+01  0.31902207509E+02  0.00000000000E+00 0.  1.
<scales pt_clust_4="550.00000" pt_clust_5="550.00000" pt_clust_6="30.94259"></scales>
<mgrwt>
<rscale>  0 0.30000000E+03</rscale>
<asrwt>  1 0.30942593E+02</asrwt>
<pdfrwt beam="1">  1        1 0.81018917E+00 0.30000000E+03</pdfrwt>
<pdfrwt beam="2">0</pdfrwt>
<totfact> 0.88968819E-04</totfact>
</mgrwt>
<clustering>
<clus scale="   30.943">  1  6  2 -1</clus>
<clus scale="  462.743">  4  5 -1 -1</clus>
<clus scale="  300.000">  1  4  2 -1</clus>
</clustering>
</event>
<event>
 6    1  0.9131597E-012  0.3000000E+03  0.7818608E-02  0.1093470E+00
          1   -1    0    0  502    0  0.00000000000E+00  0.00000000000E+00  0.24628550825E+03  0.24628550825E+03  0.00000000000E+00 0.  1.
         13   -1    0    0    0    0 -0.00000000000E+00 -0.00000000000E+00 -0.27500000000E+03  0.27500000000E+03  0.00000000000E+00 0.  1.
    9000005    2    1    2  501    0  0.17560355471E+02 -0.52516380383E+02 -0.43933808262E+02  0.46385760660E+03  0.45844014156E+03 0.  0.
         13    1    3    3    0    0 -0.35056000452E+02 -0.90588719398E+02 -0.23914870596E+03  0.25812272820E+03  0.00000000000E+00 0.  1.
          1    1    3    3  501    0  0.52616355923E+02  0.38072339015E+02  0.19521489770E+03  0.20573487840E+03  0.00000000000E+00 0.  1.
         21    1    1    2  502  501 -0.17560355471E+02  0.52516380383E+02  0.15219316509E+02  0.57427901649E+02  0.00000000000E+00 0.  1.
<scales pt_clust_4="550.00000" pt_clust_5="550.00000" pt_clust_6="55.37451"></scales>
<mgrwt>
<rscale>  0 0.30000000E+03</rscale>
<asrwt>  1 0.55374509E+02</asrwt>
<pdfrwt beam="1">  1        1 0.89558367E+00 0.30000000E+03</pdfrwt>
<pdfrwt beam="2">0</pdfrwt>
<totfact> 0.11439529E-04</totfact>
</mgrwt>
<clustering>
<clus scale="   55.375">  1  6  2 -1</clus>
<clus scale="  458.440">  4  5 -1 -1</clus>
<clus scale="  300.000">  1  4  2 -1</clus>
</clustering>
</event>
<event>
 6    1  0.9131597E-012  0.3000000E+03  0.7818608E-02  0.1093470E+00
          1   -1    0    0  502    0  0.00000000000E+00  0.00000000000E+00  0.22703325544E+03  0.22703325544E+03  0.00000000000E+00 0.  1.
         13   -1    0    0    0    0 -0.00000000000E+00 -0.00000000000E+00 -0.27500000000E+03  0.27500000000E+03  0.00000000000E+00 0.  1.
    9000005    2    1    2  501    0  0.29962750570E+01 -0.29925089612E+02 -0.62383431836E+02  0.46868165091E+03  0.46353673930E+03 0.  0.
         13    1    3    3    0    0 -0.81407799018E+02  0.50360334624E+02 -0.23880198328E+03  0.25727374577E+03  0.00000000000E+00 0.  1.
          3    1    3    3  501    0  0.84404074075E+02 -0.80285424236E+02  0.17641855144E+03  0.21140790515E+03  0.00000000000E+00 0.  1.
         21    1    1    2  502  501 -0.29962750570E+01  0.29925089612E+02  0.14416687275E+02  0.33351604526E+02  0.00000000000E+00 0. -1.
<scales pt_clust_4="550.00000" pt_clust_5="550.00000" pt_clust_6="30.07472"></scales>
<mgrwt>
<rscale>  0 0.30000000E+03</rscale>
<asrwt>  1 0.30074718E+02</asrwt>
<pdfrwt beam="1">  1        1 0.82557547E+00 0.30000000E+03</pdfrwt>
<pdfrwt beam="2">0</pdfrwt>
<totfact> 0.66434579E-04</totfact>
</mgrwt>
<clustering>
<clus scale="   30.075">  1  6  2 -1</clus>
<clus scale="  463.537">  4  5 -1 -1</clus>
<clus scale="  300.000">  1  4  2 -1</clus>
</clustering>
</event>
<event>
 6    1  0.9131597E-012  0.3000000E+03  0.7818608E-02  0.1093470E+00
          1   -1    0    0  502    0  0.00000000000E+00  0.00000000000E+00  0.25875840033E+03  0.25875840033E+03  0.00000000000E+00 0.  1.
         13   -1    0    0    0    0 -0.00000000000E+00 -0.00000000000E+00 -0.27500000000E+03  0.27500000000E+03  0.00000000000E+00 0.  1.
    9000005    2    1    2  501    0 -0.57082509037E+02 -0.13978239470E+02 -0.46962517950E+02  0.46744415724E+03  0.46135101390E+03 0.  0.
         13    1    3    3    0    0 -0.26121724625E+02 -0.16334465678E+03  0.14657666906E+03  0.22101706112E+03  0.00000000000E+00 0.  1.
          1    1    3    3  501    0 -0.30960784412E+02  0.14936641731E+03 -0.19353918701E+03  0.24642709611E+03  0.00000000000E+00 0.  1.
         21    1    1    2  502  501  0.57082509037E+02  0.13978239470E+02  0.30720918277E+02  0.66314243088E+02  0.00000000000E+00 0.  1.
<scales pt_clust_4="550.00000" pt_clust_5="550.00000" pt_clust_6="58.76907"></scales>
<mgrwt>
<rscale>  0 0.30000000E+03</rscale>
<asrwt>  1 0.58769074E+02</asrwt>
<pdfrwt beam="1">  1        1 0.94093964E+00 0.30000000E+03</pdfrwt>
<pdfrwt beam="2">0</pdfrwt>
<totfact> 0.16829616E-05</totfact>
</mgrwt>
<clustering>
<clus scale="   58.769">  1  6  2 -1</clus>
<clus scale="  461.351">  4  5 -1 -1</clus>
<clus scale="  300.000">  1  4  2 -1</clus>
</clustering>
</event>
<event>
 6    1  0.9131597E-012  0.3000000E+03  0.7818608E-02  0.1093470E+00
          1   -1    0    0  502    0  0.00000000000E+00  0.00000000000E+00  0.23390998476E+03  0.23390998476E+03  0.00000000000E+00 0.  1.
         13   -1    0    0    0    0 -0.00000000000E+00 -0.00000000000E+00 -0.27500000000E+03  0.27500000000E+03  0.00000000000E+00 0.  1.
    9000005    2    1    2  501    0 -0.44315945411E+02  0.17670820301E+02 -0.41595185975E+02  0.46119818218E+03  0.45683415245E+03 0.  0.
         13    1    3    3    0    0 -0.23463956764E+03  0.20466421167E+02 -0.10865730301E+03  0.25938583345E+03  0.00000000000E+00 0.  1.
          1    1    3    3  501    0  0.19032362223E+03 -0.27956008658E+01  0.67062117032E+02  0.20181234874E+03  0.00000000000E+00 0.  1.
         21    1    1    2  502  501  0.44315945411E+02 -0.17670820301E+02  0.50517073568E+00  0.47711802578E+02  0.00000000000E+00 0. -1.
<scales pt_clust_4="550.00000" pt_clust_5="550.00000" pt_clust_6="47.70913"></scales>
<mgrwt>
<rscale>  0 0.30000000E+03</rscale>
<asrwt>  1 0.47709128E+02</asrwt>
<pdfrwt beam="1">  1        1 0.85058176E+00 0.30000000E+03</pdfrwt>
<pdfrwt beam="2">0</pdfrwt>
<totfact> 0.37987575E-04</totfact>
</mgrwt>
<clustering>
<clus scale="   47.709">  1  6  2 -1</clus>
<clus scale="  456.834">  4  5 -1 -1</clus>
<clus scale="  300.000">  1  4  2 -1</clus>
</clustering>
</event>
<event>
 6    1  0.9131597E-012  0.3000000E+03  0.7818608E-02  0.1093470E+00
          1   -1    0    0  502    0  0.00000000000E+00  0.00000000000E+00  0.23975229818E+03  0.23975229818E+03  0.00000000000E+00 0.  1.
         13   -1    0    0    0    0 -0.00000000000E+00 -0.00000000000E+00 -0.27500000000E+03  0.27500000000E+03  0.00000000000E+00 0.  1.
    9000005    2    1    2  501    0 -0.33393698769E+02 -0.54559569437E+01 -0.52889301623E+02  0.47659299227E+03  0.47243909182E+03 0.  0.
         13    1    3    3    0    0 -0.12318415668E+03  0.20739604346E+03 -0.45399289352E+02  0.24545580208E+03  0.00000000000E+00 0.  1.
          1    1    3    3  501    0  0.89790457912E+02 -0.21285200040E+03 -0.74900122711E+01  0.23113719020E+03  0.00000000000E+00 0.  1.
         21    1    1    2  502  501  0.33393698769E+02  0.54559569437E+01  0.17641599804E+02  0.38159305907E+02  0.00000000000E+00 0. -1.
<scales pt_clust_4="550.00000" pt_clust_5="550.00000" pt_clust_6="33.83647"></scales>
<mgrwt>
<rscale>  0 0.30000000E+03</rscale>
<asrwt>  1 0.33836468E+02</asrwt>
<pdfrwt beam="1">  1        1 0.87182654E+00 0.30000000E+03</pdfrwt>
<pdfrwt beam="2">0</pdfrwt>
<totfact> 0.24414982E-04</totfact>
</mgrwt>
<clustering>
<clus scale="   33.836">  1  6  2 -1</clus>
<clus scale="  472.439">  4  5 -1 -1</clus>
<clus scale="  300.000">  1  4  2 -1</clus>
</clustering>
</event>
<event>
 6    1  0.9131597E-012  0.3000000E+03  0.7818608E-02  0.1093470E+00
          1   -1    0    0  502    0  0.00000000000E+00  0.00000000000E+00  0.23514341030E+03  0.23514341030E+03  0.00000000000E+00 0.  1.
         13   -1    0    0    0    0 -0.00000000000E+00 -0.00000000000E+00 -0.27500000000E+03  0.27500000000E+03  0.00000000000E+00 0.  1.
    9000005    2    1    2  501    0 -0.16150375898E+02  0.32545282932E+02 -0.62028671627E+02  0.46758014798E+03  0.46202122093E+03 0.  0.
         13    1    3    3    0    0 -0.21295029656E+03  0.81120463243E+02 -0.11892048172E+03  0.25704170738E+03  0.00000000000E+00 0.  1.
          3    1    3    3  501    0  0.19679992066E+03 -0.48575180310E+02  0.56891810092E+02  0.21053844060E+03  0.00000000000E+00 0.  1.
         21    1    1    2  502  501  0.16150375898E+02 -0.32545282932E+02  0.22172081930E+02  0.42563262327E+02  0.00000000000E+00 0.  1.
<scales pt_clust_4="550.00000" pt_clust_5="550.00000" pt_clust_6="36.33222"></scales>
<mgrwt>
<rscale>  0 0.30000000E+03</rscale>
<asrwt>  1 0.36332218E+02</asrwt>
<pdfrwt beam="1">  1        1 0.85506695E+00 0.30000000E+03</pdfrwt>
<pdfrwt beam="2">0</pdfrwt>
<totfact> 0.36125552E-04</totfact>
</mgrwt>
<clustering>
<clus scale="   36.332">  1  6  2 -1</clus>
<clus scale="  462.021">  4  5 -1 -1</clus>
<clus scale="  300.000">  1  4  2 -1</clus>
</clustering>
</event>
<event>
 6    1  0.9131597E-012  0.3000000E+03  0.7818608E-02  0.1093470E+00
          1   -1    0    0  502    0  0.00000000000E+00  0.00000000000E+00  0.23121339723E+03  0.23121339723E+03  0.00000000000E+00 0.  1.
         13   -1    0    0    0    0 -0.00000000000E+00 -0.00000000000E+00 -0.27500000000E+03  0.27500000000E+03  0.00000000000E+00 0.  1.
    9000005    2    1    2  501    0  0.14685993675E+02 -0.36587385131E+02 -0.39811583215E+02  0.46658870870E+03  0.46321241970E+03 0.  0.
         13    1    3    3    0    0 -0.54383915949E+02  0.14251841595E+03  0.13742639120E+03  0.20531712592E+03  0.00000000000E+00 0.  1.
          3    1    3    3  501    0  0.69069909624E+02 -0.17910580108E+03 -0.17723797441E+03  0.26127158278E+03  0.00000000000E+00 0.  1.
         21    1    1    2  502  501 -0.14685993675E+02  0.36587385131E+02 -0.39750195511E+01  0.39624688534E+02  0.00000000000E+00 0.  1.
<scales pt_clust_4="550.00000" pt_clust_5="550.00000" pt_clust_6="39.42482"></scales>
<mgrwt>
<rscale>  0 0.30000000E+03</rscale>
<asrwt>  1 0.39424824E+02</asrwt>
<pdfrwt beam="1">  1        1 0.84077599E+00 0.30000000E+03</pdfrwt>
<pdfrwt beam="2">0</pdfrwt>
<totfact> 0.47951097E-04</totfact>
</mgrwt>
<clustering>
<clus scale="   39.425">  1  6  2 -1</clus>
<clus scale="  463.212">  4  5 -1 -1</clus>
<clus scale="  300.000">  1  4  2 -1</clus>
</clustering>
</event>
<event>
 6    1  0.9131597E-012  0.3000000E+03  0.7818608E-02  0.1093470E+00
          1   -1    0    0  502    0  0.00000000000E+00  0.00000000000E+00  0.22324196598E+03  0.22324196598E+03  0.00000000000E+00 0.  1.
         13   -1    0    0    0    0 -0.00000000000E+00 -0.00000000000E+00 -0.27500000000E+03  0.27500000000E+03  0.00000000000E+00 0.  1.
    9000005    2    1    2  501    0 -0.21550528205E+02 -0.21864294873E+02 -0.70208472442E+02  0.46242449351E+03  0.45603147911E+03 0.  0.
         13    1    3    3    0    0  0.12787388734E+03 -0.17997053043E+03  0.30194249367E+02  0.22282911745E+03  0.00000000000E+00 0.  1.
          3    1    3    3  501    0 -0.14942441555E+03  0.15810623556E+03 -0.10040272181E+03  0.23959537606E+03  0.00000000000E+00 0.  1.
         21    1    1    2  502  501  0.21550528205E+02  0.21864294873E+02  0.18450438419E+02  0.35817472469E+02  0.00000000000E+00 0.  1.
<scales pt_clust_4="550.00000" pt_clust_5="550.00000" pt_clust_6="30.69972"></scales>
<mgrwt>
<rscale>  0 0.30000000E+03</rscale>
<asrwt>  1 0.30699718E+02</asrwt>
<pdfrwt beam="1">  1        1 0.81178897E+00 0.30000000E+03</pdfrwt>
<pdfrwt beam="2">0</pdfrwt>
<totfact> 0.86565014E-04</totfact>
</mgrwt>
<clustering>
<clus scale="   30.700">  1  6  2 -1</clus>
<clus scale="  456.031">  4  5 -1 -1</clus>
<clus scale="  300.000">  1  4  2 -1</clus>
</clustering>
</event>
<event>
 6    1  0.9131597E-012  0.3000000E+03  0.7818608E-02  0.1093470E+00
          1   -1    0    0  502    0  0.00000000000E+00  0.00000000000E+00  0.24244338016E+03  0.24244338016E+03  0.00000000000E+00 0.  1.
         13   -1    0    0    0    0 -0.00000000000E+00 -0.00000000000E+00 -0.27500000000E+03  0.27500000000E+03  0.00000000000E+00 0.  1.
    9000005    2    1    2  501    0  0.29318568232E+02  0.12738541157E+02 -0.75974382335E+02  0.46352723254E+03  0.45613982468E+03 0.  0.
         13    1    3    3    0    0 -0.13214336474E+03  0.18079796669E+03 -0.29363408198E+02  0.22585832583E+03  0.00000000000E+00 0.  1.
          1    1    3    3  501    0  0.16146193297E+03 -0.16805942553E+03 -0.46610974138E+02  0.23766890672E+03  0.00000000000E+00 0.  1.
         21    1    1    2  502  501 -0.29318568232E+02 -0.12738541157E+02  0.43417762498E+02  0.53916147621E+02  0.00000000000E+00 0.  1.
<scales pt_clust_4="550.00000" pt_clust_5="550.00000" pt_clust_6="31.96637"></scales>
<mgrwt>
<rscale>  0 0.30000000E+03</rscale>
<asrwt>  1 0.31966371E+02</asrwt>
<pdfrwt beam="1">  1        1 0.88161229E+00 0.30000000E+03</pdfrwt>
<pdfrwt beam="2">0</pdfrwt>
<totfact> 0.19159009E-04</totfact>
</mgrwt>
<clustering>
<clus scale="   31.966">  1  6  2 -1</clus>
<clus scale="  456.140">  4  5 -1 -1</clus>
<clus scale="  300.000">  1  4  2 -1</clus>
</clustering>
</event>
<event>
 6    1  0.9131597E-012  0.3000000E+03  0.7818608E-02  0.1093470E+00
          1   -1    0    0  502    0  0.00000000000E+00  0.00000000000E+00  0.24353265489E+03  0.24353265489E+03  0.00000000000E+00 0.  1.
         13   -1    0    0    0    0 -0.00000000000E+00 -0.00000000000E+00 -0.27500000000E+03  0.27500000000E+03  0.00000000000E+00 0.  1.
    9000005    2    1    2  501    0  0.11209355611E+02  0.30663324294E+02 -0.46465442569E+02  0.48260450385E+03  0.47925168823E+03 0.  0.
         13    1    3    3    0    0 -0.13111665694E+03  0.80723889979E+02  0.16315270052E+03  0.22433619375E+03  0.00000000000E+00 0.  1.
          1    1    3    3  501    0  0.14232601255E+03 -0.50060565685E+02 -0.20961814309E+03  0.25826831009E+03  0.00000000000E+00 0.  1.
         21    1    1    2  502  501 -0.11209355611E+02 -0.30663324294E+02  0.14998097458E+02  0.35928151043E+02  0.00000000000E+00 0.  1.
<scales pt_clust_4="550.00000" pt_clust_5="550.00000" pt_clust_6="32.64796"></scales>
<mgrwt>
<rscale>  0 0.30000000E+03</rscale>
<asrwt>  1 0.32647957E+02</asrwt>
<pdfrwt beam="1">  1        1 0.88557329E+00 0.30000000E+03</pdfrwt>
<pdfrwt beam="2">0</pdfrwt>
<totfact> 0.16885585E-04</totfact>
</mgrwt>
<clustering>
<clus scale="   32.648">  1  6  2 -1</clus>
<clus scale="  479.252">  4  5 -1 -1</clus>
<clus scale="  300.000">  1  4  2 -1</clus>
</clustering>
</event>
<event>
 6    1  0.9131597E-012  0.3000000E+03  0.7818608E-02  0.1093470E+00
          1   -1    0    0  502    0  0.00000000000E+00  0.00000000000E+00  0.22813236407E+03  0.22813236407E+03  0.00000000000E+00 0.  1.
         13   -1    0    0    0    0 -0.00000000000E+00 -0.00000000000E+00 -0.27500000000E+03  0.27500000000E+03  0.00000000000E+00 0.  1.
    9000005    2    1    2  501    0  0.29494559177E+00  0.31731647282E+02 -0.56027238859E+02  0.47010384975E+03  0.46567326917E+03 0.  0.
         13    1    3    3    0    0 -0.20774921056E+02  0.99992050796E+02 -0.24642271043E+03  0.26674737072E+03  0.00000000000E+00 0.  1.
          3    1    3    3  501    0  0.21069866648E+02 -0.68260403514E+02  0.19039547157E+03  0.20335647903E+03  0.00000000000E+00 0.  1.
         21    1    1    2  502  501 -0.29494559177E+00 -0.31731647282E+02  0.91596029251E+01  0.33028514315E+02  0.00000000000E+00 0. -1.
<scales pt_clust_4="550.00000" pt_clust_5="550.00000" pt_clust_6="31.73302"></scales>
<mgrwt>
<rscale>  0 0.30000000E+03</rscale>
<asrwt>  1 0.31733018E+02</asrwt>
<pdfrwt beam="1">  1        1 0.82957223E+00 0.30000000E+03</pdfrwt>
<pdfrwt beam="2">0</pdfrwt>
<totfact> 0.60699251E-04</totfact>
</mgrwt>
<clustering>
<clus scale="   31.733">  1  6  2 -1</clus>
<clus scale="  465.673">  4  5 -1 -1</clus>
<clus scale="  300.000">  1  4  2 -1</clus>
</clustering>
</event>
<event>
 6    1  0.9131597E-012  0.3000000E+03  0.7818608E-02  0.1093470E+00
          1   -1    0    0  502    0  0.00000000000E+00  0.00000000000E+00  0.22041100217E+03  0.22041100217E+03  0.00000000000E+00 0.  1.
         13   -1    0    0    0    0 -0.00000000000E+00 -0.00000000000E+00 -0.27500000000E+03  0.27500000000E+03  0.00000000000E+00 0.  1.
    9000005    2    1    2  501    0  0.11634873599E+02 -0.28659024131E+02 -0.62330558254E+02  0.46352618281E+03  0.45827362319E+03 0.  0.
         13    1    3    3    0    0 -0.19130005882E+03  0.35889114197E+02 -0.13682677852E+03  0.23791870112E+03  0.00000000000E+00 0.  1.
          1    1    3    3  501    0  0.20293493242E+03 -0.64548138328E+02  0.74496220266E+02  0.22560748169E+03  0.00000000000E+00 0.  1.
         21    1    1    2  502  501 -0.11634873599E+02  0.28659024131E+02  0.77415604229E+01  0.31884819360E+02  0.00000000000E+00 0.  1.
<scales pt_clust_4="550.00000" pt_clust_5="550.00000" pt_clust_6="30.93073"></scales>
<mgrwt>
<rscale>  0 0.30000000E+03</rscale>
<asrwt>  1 0.30930728E+02</asrwt>
<pdfrwt beam="1">  1        1 0.80149455E+00 0.30000000E+03</pdfrwt>
<pdfrwt beam="2">0</pdfrwt>
<totfact> 0.10354292E-03</totfact>
</mgrwt>
<clustering>
<clus scale="   30.931">  1  6  2 -1</clus>
<clus scale="  458.274">  4  5 -1 -1</clus>
<clus scale="  300.000">  1  4  2 -1</clus>
</clustering>
</event>
<event>
 6    1  0.9131597E-012  0.3000000E+03  0.7818608E-02  0.1093470E+00
          1   -1    0    0  502    0  0.00000000000E+00  0.00000000000E+00  0.23341994897E+03  0.23341994897E+03  0.00000000000E+00 0.  1.
         13   -1    0    0    0    0 -0.00000000000E+00 -0.00000000000E+00 -0.27500000000E+03  0.27500000000E+03  0.00000000000E+00 0.  1.
    9000005    2    1    2  501    0  0.11318667067E+02 -0.29567518572E+02 -0.62212370997E+02  0.47063049269E+03  0.46542489315E+03 0.  0.
         13    1    3    3    0    0  0.16880392000E+03 -0.11620840424E+03 -0.16541463878E+03  0.26336506857E+03  0.00000000000E+00 0.  1.
          3    1    3    3  501    0 -0.15748525293E+03  0.86640885666E+02  0.10320226778E+03  0.20726542412E+03  0.00000000000E+00 0.  1.
         21    1    1    2  502  501 -0.11318667067E+02  0.29567518572E+02  0.20632319966E+02  0.37789456279E+02  0.00000000000E+00 0.  1.
<scales pt_clust_4="550.00000" pt_clust_5="550.00000" pt_clust_6="31.65992"></scales>
<mgrwt>
<rscale>  0 0.30000000E+03</rscale>
<asrwt>  1 0.31659918E+02</asrwt>
<pdfrwt beam="1">  1        1 0.84879981E+00 0.30000000E+03</pdfrwt>
<pdfrwt beam="2">0</pdfrwt>
<totfact> 0.42558355E-04</totfact>
</mgrwt>
<clustering>
<clus scale="   31.660">  1  6  2 -1</clus>
<clus scale="  465.425">  4  5 -1 -1</clus>
<clus scale="  300.000">  1  4  2 -1</clus>
</clustering>
</event>
<event>
 6    1  0.9131597E-012  0.3000000E+03  0.7818608E-02  0.1093470E+00
          1   -1    0    0  502    0  0.00000000000E+00  0.00000000000E+00  0.26320877946E+03  0.26320877946E+03  0.00000000000E+00 0.  1.
         13   -1    0    0    0    0 -0.00000000000E+00 -0.00000000000E+00 -0.27500000000E+03  0.27500000000E+03  0.00000000000E+00 0.  1.
    9000005    2    1    2  501    0  0.12481749131E+02 -0.40789318604E+02 -0.18062121514E+02  0.49509397026E+03  0.49292214048E+03 0.  0.
         13    1    3    3    0    0 -0.15366178442E+03 -0.13922968797E+03  0.13606425863E+03  0.24801276677E+03  0.00000000000E+00 0.  1.
          3    1    3    3  501    0  0.16614353355E+03  0.98440369369E+02 -0.15412638014E+03  0.24708120349E+03  0.00000000000E+00 0.  1.
         21    1    1    2  502  501 -0.12481749131E+02  0.40789318604E+02  0.62709009711E+01  0.43114809202E+02  0.00000000000E+00 0.  1.
<scales pt_clust_4="550.00000" pt_clust_5="550.00000" pt_clust_6="42.65633"></scales>
<mgrwt>
<rscale>  0 0.30000000E+03</rscale>
<asrwt>  1 0.42656331E+02</asrwt>
<pdfrwt beam="1">  1        1 0.95712283E+00 0.30000000E+03</pdfrwt>
<pdfrwt beam="2">0</pdfrwt>
<totfact> 0.84347516E-06</totfact>
</mgrwt>
<clustering>
<clus scale="   42.656">  1  6  2 -1</clus>
<clus scale="  492.922">  4  5 -1 -1</clus>
<clus scale="  300.000">  1  4  2 -1</clus>
</clustering>
</event>
<event>
 6    1  0.9131597E-012  0.3000000E+03  0.7818608E-02  0.1093470E+00
          1   -1    0    0  502    0  0.00000000000E+00  0.00000000000E+00  0.22024883970E+03  0.22024883970E+03  0.00000000000E+00 0.  1.
         13   -1    0    0    0    0 -0.00000000000E+00 -0.00000000000E+00 -0.27500000000E+03  0.27500000000E+03  0.00000000000E+00 0.  1.
    9000005    2    1    2  501    0  0.28306534940E+02 -0.14008767738E+02 -0.55715281783E+02  0.46365081723E+03  0.45920625235E+03 0.  0.
         13    1    3    3    0    0  0.93331728352E+02 -0.21417670760E+03 -0.90090309933E+02  0.25039715961E+03  0.00000000000E+00 0.  1.
          3    1    3    3  501    0 -0.65025193412E+02  0.20016793986E+03  0.34375028150E+02  0.21325365762E+03  0.00000000000E+00 0.  1.
         21    1    1    2  502  501 -0.28306534940E+02  0.14008767738E+02  0.96412148229E+00  0.31598022471E+02  0.00000000000E+00 0.  1.
<scales pt_clust_4="550.00000" pt_clust_5="550.00000" pt_clust_6="31.58331"></scales>
<mgrwt>
<rscale>  0 0.30000000E+03</rscale>
<asrwt>  1 0.31583310E+02</asrwt>
<pdfrwt beam="1">  1        1 0.80090487E+00 0.30000000E+03</pdfrwt>
<pdfrwt beam="2">0</pdfrwt>
<totfact> 0.10415135E-03</totfact>
</mgrwt>
<clustering>
<clus scale="   31.583">  1  6  2 -1</clus>
<clus scale="  459.206">  4  5 -1 -1</clus>
<clus scale="  300.000">  1  4  2 -1</clus>
</clustering>
</event>
<event>
 6    1  0.9131597E-012  0.3000000E+03  0.7818608E-02  0.1093470E+00
          1   -1    0    0  502    0  0.00000000000E+00  0.00000000000E+00  0.23271463300E+03  0.23271463300E+03  0.00000000000E+00 0.  1.
         13   -1    0    0    0    0 -0.00000000000E+00 -0.00000000000E+00 -0.27500000000E+03  0.27500000000E+03  0.00000000000E+00 0.  1.
    9000005    2    1    2  501    0 -0.14463236348E+02  0.30684588058E+02 -0.63307229248E+02  0.46780664079E+03  0.46226022838E+03 0.  0.
         13    1    3    3    0    0 -0.16490056656E+03  0.10508346855E+03 -0.17808841350E+03  0.26448103001E+03  0.00000000000E+00 0.  1.
          3    1    3    3  501    0  0.15043733021E+03 -0.74398880494E+02  0.11478118425E+03  0.20332561078E+03  0.00000000000E+00 0.  1.
         21    1    1    2  502  501  0.14463236348E+02 -0.30684588058E+02  0.21021862248E+02  0.39907992211E+02  0.00000000000E+00 0.  1.
<scales pt_clust_4="550.00000" pt_clust_5="550.00000" pt_clust_6="33.92240"></scales>
<mgrwt>
<rscale>  0 0.30000000E+03</rscale>
<asrwt>  1 0.33922399E+02</asrwt>
<pdfrwt beam="1">  1        1 0.84623503E+00 0.30000000E+03</pdfrwt>
<pdfrwt beam="2">0</pdfrwt>
<totfact> 0.44321510E-04</totfact>
</mgrwt>
<clustering>
<clus scale="   33.922">  1  6  2 -1</clus>
<clus scale="  462.260">  4  5 -1 -1</clus>
<clus scale="  300.000">  1  4  2 -1</clus>
</clustering>
</event>
<event>
 6    1  0.9131597E-012  0.3000000E+03  0.7818608E-02  0.1093470E+00
          1   -1    0    0  502    0  0.00000000000E+00  0.00000000000E+00  0.23436314623E+03  0.23436314623E+03  0.00000000000E+00 0.  1.
         13   -1    0    0    0    0 -0.00000000000E+00 -0.00000000000E+00 -0.27500000000E+03  0.27500000000E+03  0.00000000000E+00 0.  1.
    9000005    2    1    2  501    0  0.37043736413E+02 -0.29560852080E+02 -0.40901750741E+02  0.46196955433E+03  0.45770824062E+03 0.  0.
         13    1    3    3    0    0  0.16516412465E+02  0.54266674508E+01  0.20853372989E+03  0.20925715544E+03  0.00000000000E+00 0.  1.
          3    1    3    3  501    0  0.20527323948E+02 -0.34987519531E+02 -0.24943548064E+03  0.25271239889E+03  0.00000000000E+00 0.  1.
         21    1    1    2  502  501 -0.37043736413E+02  0.29560852080E+02  0.26489697482E+00  0.47393591904E+02  0.00000000000E+00 0. -1.
<scales pt_clust_4="550.00000" pt_clust_5="550.00000" pt_clust_6="47.39285"></scales>
<mgrwt>
<rscale>  0 0.30000000E+03</rscale>
<asrwt>  1 0.47392852E+02</asrwt>
<pdfrwt beam="1">  1        1 0.85222962E+00 0.30000000E+03</pdfrwt>
<pdfrwt beam="2">0</pdfrwt>
<totfact> 0.36682902E-04</totfact>
</mgrwt>
<clustering>
<clus scale="   47.393">  1  6  2 -1</clus>
<clus scale="  457.708">  4  5 -1 -1</clus>
<clus scale="  300.000">  1  4  2 -1</clus>
</clustering>
</event>
<event>
 6    1  0.9131597E-012  0.3000000E+03  0.7818608E-02  0.1093470E+00
          1   -1    0    0  502    0  0.00000000000E+00  0.00000000000E+00  0.23108395512E+03  0.23108395512E+03  0.00000000000E+00 0.  1.
         13   -1    0    0    0    0 -0.00000000000E+00 -0.00000000000E+00 -0.27500000000E+03  0.27500000000E+03  0.00000000000E+00 0.  1.
    9000005    2    1    2  501    0  0.34657844439E+02  0.17517052181E-02 -0.61995544514E+02  0.46699387337E+03  0.46156111626E+03 0.  0.
         13    1    3    3    0    0 -0.50333448463E+02 -0.21156921122E+03 -0.93691161781E+02  0.23679742601E+03  0.00000000000E+00 0.  1.
          3    1    3    3  501    0  0.84991292902E+02  0.21157096293E+03  0.31695617267E+02  0.23019644736E+03  0.00000000000E+00 0.  1.
         21    1    1    2  502  501 -0.34657844439E+02 -0.17517052180E-02  0.18079499636E+02  0.39090081751E+02  0.00000000000E+00 0.  1.
<scales pt_clust_4="550.00000" pt_clust_5="550.00000" pt_clust_6="34.65784"></scales>
<mgrwt>
<rscale>  0 0.30000000E+03</rscale>
<asrwt>  1 0.34657844E+02</asrwt>
<pdfrwt beam="1">  1        1 0.84030529E+00 0.30000000E+03</pdfrwt>
<pdfrwt beam="2">0</pdfrwt>
<totfact> 0.49526657E-04</totfact>
</mgrwt>
<clustering>
<clus scale="   34.658">  1  6  2 -1</clus>
<clus scale="  461.561">  4  5 -1 -1</clus>
<clus scale="  300.000">  1  4  2 -1</clus>
</clustering>
</event>
<event>
 6    1  0.9131597E-012  0.3000000E+03  0.7818608E-02  0.1093470E+00
          1   -1    0    0  502    0  0.00000000000E+00  0.00000000000E+00  0.23463240919E+03  0.23463240919E+03  0.00000000000E+00 0.  1.
         13   -1    0    0    0    0 -0.00000000000E+00 -0.00000000000E+00 -0.27500000000E+03  0.27500000000E+03  0.00000000000E+00 0.  1.
    9000005    2    1    2  501    0 -0.28058760767E+02 -0.21115430954E+02 -0.60304789764E+02  0.46925113405E+03  0.46403319241E+03 0.  0.
         13    1    3    3    0    0  0.17097165360E+03  0.83638666369E+02  0.77467261342E+02  0.20549430510E+03  0.00000000000E+00 0.  1.
          1    1    3    3  501    0 -0.19903041437E+03 -0.10475409732E+03 -0.13777205111E+03  0.26375682895E+03  0.00000000000E+00 0.  1.
         21    1    1    2  502  501  0.28058760767E+02  0.21115430954E+02  0.19937198958E+02  0.40381275146E+02  0.00000000000E+00 0.  1.
<scales pt_clust_4="550.00000" pt_clust_5="550.00000" pt_clust_6="35.11631"></scales>
<mgrwt>
<rscale>  0 0.30000000E+03</rscale>
<asrwt>  1 0.35116314E+02</asrwt>
<pdfrwt beam="1">  1        1 0.85320876E+00 0.30000000E+03</pdfrwt>
<pdfrwt beam="2">0</pdfrwt>
<totfact> 0.37906710E-04</totfact>
</mgrwt>
<clustering>
<clus scale="   35.116">  1  6  2 -1</clus>
<clus scale="  464.033">  4  5 -1 -1</clus>
<clus scale="  300.000">  1  4  2 -1</clus>
</clustering>
</event>
<event>
 6    1  0.9131597E-012  0.3000000E+03  0.7818608E-02  0.1093470E+00
          1   -1    0    0  502    0  0.00000000000E+00  0.00000000000E+00  0.23127495517E+03  0.23127495517E+03  0.00000000000E+00 0.  1.
         13   -1    0    0    0    0 -0.00000000000E+00 -0.00000000000E+00 -0.27500000000E+03  0.27500000000E+03  0.00000000000E+00 0.  1.
    9000005    2    1    2  501    0  0.28185140630E+02 -0.21722001800E+02 -0.59311787181E+02  0.46742660834E+03  0.46228075730E+03 0.  0.
         13    1    3    3    0    0  0.16177563562E+03  0.13571036829E+03 -0.13142842867E+03  0.24872091228E+03  0.00000000000E+00 0.  1.
          1    1    3    3  501    0 -0.13359049499E+03 -0.15743237009E+03  0.72116641491E+02  0.21870569605E+03  0.00000000000E+00 0.  1.
         21    1    1    2  502  501 -0.28185140630E+02  0.21722001800E+02  0.15586742348E+02  0.38848346832E+02  0.00000000000E+00 0.  1.
<scales pt_clust_4="550.00000" pt_clust_5="550.00000" pt_clust_6="35.58437"></scales>
<mgrwt>
<rscale>  0 0.30000000E+03</rscale>
<asrwt>  1 0.35584372E+02</asrwt>
<pdfrwt beam="1">  1        1 0.84099984E+00 0.30000000E+03</pdfrwt>
<pdfrwt beam="2">0</pdfrwt>
<totfact> 0.48668835E-04</totfact>
</mgrwt>
<clustering>
<clus scale="   35.584">  1  6  2 -1</clus>
<clus scale="  462.281">  4  5 -1 -1</clus>
<clus scale="  300.000">  1  4  2 -1</clus>
</clustering>
</event>
<event>
 6    1  0.9131597E-012  0.3000000E+03  0.7818608E-02  0.1093470E+00
          1   -1    0    0  502    0  0.00000000000E+00  0.00000000000E+00  0.24959936824E+03  0.24959936824E+03  0.00000000000E+00 0.  1.
         13   -1    0    0    0    0 -0.00000000000E+00 -0.00000000000E+00 -0.27500000000E+03  0.27500000000E+03  0.00000000000E+00 0.  1.
    9000005    2    1    2  501    0 -0.29069638224E+02 -0.11660929371E+02 -0.73599036607E+02  0.46711800282E+03  0.46021884928E+03 0.  0.
         13    1    3    3    0    0  0.13230667366E+03 -0.33567274999E+02  0.14197156816E+03  0.19694604340E+03  0.00000000000E+00 0.  1.
          1    1    3    3  501    0 -0.16137631188E+03  0.21906345628E+02 -0.21557060477E+03  0.27017195942E+03  0.00000000000E+00 0.  1.
         21    1    1    2  502  501  0.29069638224E+02  0.11660929371E+02  0.48198404843E+02  0.57481365412E+02  0.00000000000E+00 0.  1.
<scales pt_clust_4="550.00000" pt_clust_5="550.00000" pt_clust_6="31.32126"></scales>
<mgrwt>
<rscale>  0 0.30000000E+03</rscale>
<asrwt>  1 0.31321257E+02</asrwt>
<pdfrwt beam="1">  1        1 0.90763407E+00 0.30000000E+03</pdfrwt>
<pdfrwt beam="2">0</pdfrwt>
<totfact> 0.83330792E-05</totfact>
</mgrwt>
<clustering>
<clus scale="   31.321">  1  6  2 -1</clus>
<clus scale="  460.219">  4  5 -1 -1</clus>
<clus scale="  300.000">  1  4  2 -1</clus>
</clustering>
</event>
<event>
 6    1  0.9131597E-012  0.3000000E+03  0.7818608E-02  0.1093470E+00
          1   -1    0    0  502    0  0.00000000000E+00  0.00000000000E+00  0.23666106029E+03  0.23666106029E+03  0.00000000000E+00 0.  1.
         13   -1    0    0    0    0 -0.00000000000E+00 -0.00000000000E+00 -0.27500000000E+03  0.27500000000E+03  0.00000000000E+00 0.  1.
    9000005    2    1    2  501    0  0.31476535646E+02 -0.36944946360E+02 -0.50451341080E+02  0.46163694985E+03  0.45629774741E+03 0.  0.
         13    1    3    3    0    0 -0.70702853630E+02  0.23400352249E+02 -0.23260594947E+03  0.24423758459E+03  0.00000000000E+00 0.  1.
          1    1    3    3  501    0  0.10217938928E+03 -0.60345298609E+02  0.18215460839E+03  0.21739936526E+03  0.00000000000E+00 0.  1.
         21    1    1    2  502  501 -0.31476535646E+02  0.36944946360E+02  0.12112401367E+02  0.50024110434E+02  0.00000000000E+00 0.  1.
<scales pt_clust_4="550.00000" pt_clust_5="550.00000" pt_clust_6="48.53557"></scales>
<mgrwt>
<rscale>  0 0.30000000E+03</rscale>
<asrwt>  1 0.48535568E+02</asrwt>
<pdfrwt beam="1">  1        1 0.86058567E+00 0.30000000E+03</pdfrwt>
<pdfrwt beam="2">0</pdfrwt>
<totfact> 0.30045744E-04</totfact>
</mgrwt>
<clustering>
<clus scale="   48.536">  1  6  2 -1</clus>
<clus scale="  456.298">  4  5 -1 -1</clus>
<clus scale="  300.000">  1  4  2 -1</clus>
</clustering>
</event>
<event>
 6    1  0.9131597E-012  0.3000000E+03  0.7818608E-02  0.1093470E+00
          1   -1    0    0  502    0  0.00000000000E+00  0.00000000000E+00  0.24584997984E+03  0.24584997984E+03  0.00000000000E+00 0.  1.
         13   -1    0    0    0    0 -0.00000000000E+00 -0.00000000000E+00 -0.27500000000E+03  0.27500000000E+03  0.00000000000E+00 0.  1.
    9000005    2    1    2  501    0 -0.33242071645E+02 -0.75461225683E+01 -0.43243931615E+02  0.48396342900E+03  0.48082073966E+03 0.  0.
         13    1    3    3    0    0 -0.28716997192E+02  0.15565092874E+03 -0.20174226763E+03  0.25642117715E+03  0.00000000000E+00 0.  1.
          3    1    3    3  501    0 -0.45250744535E+01 -0.16319705131E+03  0.15849833601E+03  0.22754225184E+03  0.00000000000E+00 0.  1.
         21    1    1    2  502  501  0.33242071645E+02  0.75461225683E+01  0.14093911456E+02  0.36886550844E+02  0.00000000000E+00 0.  1.
<scales pt_clust_4="550.00000" pt_clust_5="550.00000" pt_clust_6="34.08782"></scales>
<mgrwt>
<rscale>  0 0.30000000E+03</rscale>
<asrwt>  1 0.34087817E+02</asrwt>
<pdfrwt beam="1">  1        1 0.89399993E+00 0.30000000E+03</pdfrwt>
<pdfrwt beam="2">0</pdfrwt>
<totfact> 0.13006400E-04</totfact>
</mgrwt>
<clustering>
<clus scale="   34.088">  1  6  2 -1</clus>
<clus scale="  480.821">  4  5 -1 -1</clus>
<clus scale="  300.000">  1  4  2 -1</clus>
</clustering>
</event>
<event>
 6    1  0.9131597E-012  0.3000000E+03  0.7818608E-02  0.1093470E+00
          1   -1    0    0  502    0  0.00000000000E+00  0.00000000000E+00  0.23505964755E+03  0.23505964755E+03  0.00000000000E+00 0.  1.
         13   -1    0    0    0    0 -0.00000000000E+00 -0.00000000000E+00 -0.27500000000E+03  0.27500000000E+03  0.00000000000E+00 0.  1.
    9000005    2    1    2  501    0 -0.86828595248E-01  0.39600123456E+02 -0.47156962757E+02  0.46980723419E+03  0.46575409912E+03 0.  0.
         13    1    3    3    0    0  0.12825595503E+03 -0.83364226086E+02 -0.18847073798E+03  0.24273525345E+03  0.00000000000E+00 0.  1.
          1    1    3    3  501    0 -0.12834278363E+03  0.12296434954E+03  0.14131377523E+03  0.22707198074E+03  0.00000000000E+00 0.  1.
         21    1    1    2  502  501  0.86828595248E-01 -0.39600123456E+02  0.72166103082E+01  0.40252413360E+02  0.00000000000E+00 0.  1.
<scales pt_clust_4="550.00000" pt_clust_5="550.00000" pt_clust_6="39.60022"></scales>
<mgrwt>
<rscale>  0 0.30000000E+03</rscale>
<asrwt>  1 0.39600219E+02</asrwt>
<pdfrwt beam="1">  1        1 0.85476235E+00 0.30000000E+03</pdfrwt>
<pdfrwt beam="2">0</pdfrwt>
<totfact> 0.35804342E-04</totfact>
</mgrwt>
<clustering>
<clus scale="   39.600">  1  6  2 -1</clus>
<clus scale="  465.754">  4  5 -1 -1</clus>
<clus scale="  300.000">  1  4  2 -1</clus>
</clustering>
</event>
<event>
 6    1  0.9131597E-012  0.3000000E+03  0.7818608E-02  0.1093470E+00
          1   -1    0    0  502    0  0.00000000000E+00  0.00000000000E+00  0.23793300921E+03  0.23793300921E+03  0.00000000000E+00 0.  1.
         13   -1    0    0    0    0 -0.00000000000E+00 -0.00000000000E+00 -0.27500000000E+03  0.27500000000E+03  0.00000000000E+00 0.  1.
    9000005    2    1    2  501    0  0.14106927816E+02  0.28290162271E+02 -0.34682254615E+02  0.48123086953E+03  0.47893731563E+03 0.  0.
         13    1    3    3    0    0  0.15877279657E+03 -0.10049320671E+03 -0.16312187460E+03  0.24883012579E+03  0.00000000000E+00 0.  1.
          3    1    3    3  501    0 -0.14466586876E+03  0.12878336898E+03  0.12843961998E+03  0.23240074374E+03  0.00000000000E+00 0.  1.
         21    1    1    2  502  501 -0.14106927816E+02 -0.28290162271E+02 -0.23847361770E+01  0.31702139681E+02  0.00000000000E+00 0. -1.
<scales pt_clust_4="550.00000" pt_clust_5="550.00000" pt_clust_6="31.61233"></scales>
<mgrwt>
<rscale>  0 0.30000000E+03</rscale>
<asrwt>  1 0.31612335E+02</asrwt>
<pdfrwt beam="1">  1        1 0.86521094E+00 0.30000000E+03</pdfrwt>
<pdfrwt beam="2">0</pdfrwt>
<totfact> 0.28972897E-04</totfact>
</mgrwt>
<clustering>
<clus scale="   31.612">  1  6  2 -1</clus>
<clus scale="  478.937">  4  5 -1 -1</clus>
<clus scale="  300.000">  1  4  2 -1</clus>
</clustering>
</event>
<event>
 6    1  0.9131597E-012  0.3000000E+03  0.7818608E-02  0.1093470E+00
          1   -1    0    0  502    0  0.00000000000E+00  0.00000000000E+00  0.25467184187E+03  0.25467184187E+03  0.00000000000E+00 0.  1.
         13   -1    0    0    0    0 -0.00000000000E+00 -0.00000000000E+00 -0.27500000000E+03  0.27500000000E+03  0.00000000000E+00 0.  1.
    9000005    2    1    2  501    0 -0.31655302112E+02 -0.41373444273E+01 -0.37768412914E+02  0.49329412537E+03  0.49080899069E+03 0.  0.
         13    1    3    3    0    0  0.12284721158E+02  0.56458013323E+02 -0.25607483850E+03  0.26251237029E+03  0.00000000000E+00 0.  1.
          3    1    3    3  501    0 -0.43940023271E+02 -0.60595357750E+02  0.21830642559E+03  0.23078175508E+03  0.00000000000E+00 0.  1.
         21    1    1    2  502  501  0.31655302112E+02  0.41373444273E+01  0.17440254781E+02  0.36377716497E+02  0.00000000000E+00 0. -1.
<scales pt_clust_4="550.00000" pt_clust_5="550.00000" pt_clust_6="31.92453"></scales>
<mgrwt>
<rscale>  0 0.30000000E+03</rscale>
<asrwt>  1 0.31924532E+02</asrwt>
<pdfrwt beam="1">  1        1 0.92607942E+00 0.30000000E+03</pdfrwt>
<pdfrwt beam="2">0</pdfrwt>
<totfact> 0.31702015E-05</totfact>
</mgrwt>
<clustering>
<clus scale="   31.925">  1  6  2 -1</clus>
<clus scale="  490.809">  4  5 -1 -1</clus>
<clus scale="  300.000">  1  4  2 -1</clus>
</clustering>
</event>
<event>
 6    1  0.9131597E-012  0.3000000E+03  0.7818608E-02  0.1093470E+00
          1   -1    0    0  502    0  0.00000000000E+00  0.00000000000E+00  0.23011545733E+03  0.23011545733E+03  0.00000000000E+00 0.  1.
         13   -1    0    0    0    0 -0.00000000000E+00 -0.00000000000E+00 -0.27500000000E+03  0.27500000000E+03  0.00000000000E+00 0.  1.
    9000005    2    1    2  501    0  0.32830426728E+02  0.15312009637E+02 -0.58605184285E+02  0.46637851676E+03  0.46126137787E+03 0.  0.
         13    1    3    3    0    0  0.55098464620E+02 -0.11772783207E+02 -0.25792040705E+03  0.26400260529E+03  0.00000000000E+00 0.  1.
          3    1    3    3  501    0 -0.22268037891E+02  0.27084792844E+02  0.19931522277E+03  0.20237591147E+03  0.00000000000E+00 0.  1.
         21    1    1    2  502  501 -0.32830426728E+02 -0.15312009637E+02  0.13720641612E+02  0.38736940568E+02  0.00000000000E+00 0.  1.
<scales pt_clust_4="550.00000" pt_clust_5="550.00000" pt_clust_6="36.22561"></scales>
<mgrwt>
<rscale>  0 0.30000000E+03</rscale>
<asrwt>  1 0.36225606E+02</asrwt>
<pdfrwt beam="1">  1        1 0.83678348E+00 0.30000000E+03</pdfrwt>
<pdfrwt beam="2">0</pdfrwt>
<totfact> 0.52172905E-04</totfact>
</mgrwt>
<clustering>
<clus scale="   36.226">  1  6  2 -1</clus>
<clus scale="  461.261">  4  5 -1 -1</clus>
<clus scale="  300.000">  1  4  2 -1</clus>
</clustering>
</event>
<event>
 6    1  0.9131597E-012  0.3000000E+03  0.7818608E-02  0.1093470E+00
          1   -1    0    0  502    0  0.00000000000E+00  0.00000000000E+00  0.22608617186E+03  0.22608617186E+03  0.00000000000E+00 0.  1.
         13   -1    0    0    0    0 -0.00000000000E+00 -0.00000000000E+00 -0.27500000000E+03  0.27500000000E+03  0.00000000000E+00 0.  1.
    9000005    2    1    2  501    0 -0.14425122071E+02  0.33252239356E+02 -0.34341525962E+02  0.46202023325E+03  0.45931422791E+03 0.  0.
         13    1    3    3    0    0 -0.10391010674E+03 -0.15952736384E+03  0.95466026047E+02  0.21297899480E+03  0.00000000000E+00 0.  1.
          1    1    3    3  501    0  0.89484984671E+02  0.19277960320E+03 -0.12980755201E+03  0.24904123845E+03  0.00000000000E+00 0.  1.
         21    1    1    2  502  501  0.14425122071E+02 -0.33252239356E+02 -0.14572302174E+02  0.39065938612E+02  0.00000000000E+00 0.  1.
<scales pt_clust_4="550.00000" pt_clust_5="550.00000" pt_clust_6="36.24634"></scales>
<mgrwt>
<rscale>  0 0.30000000E+03</rscale>
<asrwt>  1 0.36246336E+02</asrwt>
<pdfrwt beam="1">  1        1 0.82213153E+00 0.30000000E+03</pdfrwt>
<pdfrwt beam="2">0</pdfrwt>
<totfact> 0.68830229E-04</totfact>
</mgrwt>
<clustering>
<clus scale="   36.246">  1  6  2 -1</clus>
<clus scale="  459.314">  4  5 -1 -1</clus>
<clus scale="  300.000">  1  4  2 -1</clus>
</clustering>
</event>
<event>
 6    1  0.9131597E-012  0.3000000E+03  0.7818608E-02  0.1093470E+00
          1   -1    0    0  502    0  0.00000000000E+00  0.00000000000E+00  0.22929639933E+03  0.22929639933E+03  0.00000000000E+00 0.  1.
         13   -1    0    0    0    0 -0.00000000000E+00 -0.00000000000E+00 -0.27500000000E+03  0.27500000000E+03  0.00000000000E+00 0.  1.
    9000005    2    1    2  501    0 -0.23098587082E+02  0.23666554273E+02 -0.33220192678E+02  0.46894833020E+03  0.46659972640E+03 0.  0.
         13    1    3    3    0    0 -0.41899765302E+02 -0.21889348632E+03  0.35614004113E+01  0.22289601221E+03  0.00000000000E+00 0.  1.
          3    1    3    3  501    0  0.18801178220E+02  0.24256004060E+03 -0.36781593090E+02  0.24605231799E+03  0.00000000000E+00 0.  1.
         21    1    1    2  502  501  0.23098587082E+02 -0.23666554273E+02 -0.12483407991E+02  0.35348069133E+02  0.00000000000E+00 0. -1.
<scales pt_clust_4="550.00000" pt_clust_5="550.00000" pt_clust_6="33.07040"></scales>
<mgrwt>
<rscale>  0 0.30000000E+03</rscale>
<asrwt>  1 0.33070404E+02</asrwt>
<pdfrwt beam="1">  1        1 0.83380509E+00 0.30000000E+03</pdfrwt>
<pdfrwt beam="2">0</pdfrwt>
<totfact> 0.55796568E-04</totfact>
</mgrwt>
<clustering>
<clus scale="   33.070">  1  6  2 -1</clus>
<clus scale="  466.600">  4  5 -1 -1</clus>
<clus scale="  300.000">  1  4  2 -1</clus>
</clustering>
</event>
<event>
 6    1  0.9131597E-012  0.3000000E+03  0.7818608E-02  0.1093470E+00
          1   -1    0    0  502    0  0.00000000000E+00  0.00000000000E+00  0.24715146395E+03  0.24715146395E+03  0.00000000000E+00 0.  1.
         13   -1    0    0    0    0 -0.00000000000E+00 -0.00000000000E+00 -0.27500000000E+03  0.27500000000E+03  0.00000000000E+00 0.  1.
    9000005    2    1    2  501    0  0.41611888626E+02 -0.78822502737E+01 -0.53607111760E+02  0.47258147941E+03  0.46761720788E+03 0.  0.
         13    1    3    3    0    0  0.22398960445E+03 -0.10816955196E+03 -0.83350606484E+02  0.26233436388E+03  0.00000000000E+00 0.  1.
          3    1    3    3  501    0 -0.18237771583E+03  0.10028730168E+03  0.29743494724E+02  0.21024711553E+03  0.00000000000E+00 0.  1.
         21    1    1    2  502  501 -0.41611888626E+02  0.78822502737E+01  0.25758575707E+02  0.49569984536E+02  0.00000000000E+00 0.  1.
<scales pt_clust_4="550.00000" pt_clust_5="550.00000" pt_clust_6="42.35185"></scales>
<mgrwt>
<rscale>  0 0.30000000E+03</rscale>
<asrwt>  1 0.42351849E+02</asrwt>
<pdfrwt beam="1">  1        1 0.89873260E+00 0.30000000E+03</pdfrwt>
<pdfrwt beam="2">0</pdfrwt>
<totfact> 0.11048387E-04</totfact>
</mgrwt>
<clustering>
<clus scale="   42.352">  1  6  2 -1</clus>
<clus scale="  467.617">  4  5 -1 -1</clus>
<clus scale="  300.000">  1  4  2 -1</clus>
</clustering>
</event>
<event>
 6    1  0.9131597E-012  0.3000000E+03  0.7818608E-02  0.1093470E+00
          1   -1    0    0  502    0  0.00000000000E+00  0.00000000000E+00  0.22829487098E+03  0.22829487098E+03  0.00000000000E+00 0.  1.
         13   -1    0    0    0    0 -0.00000000000E+00 -0.00000000000E+00 -0.27500000000E+03  0.27500000000E+03  0.00000000000E+00 0.  1.
    9000005    2    1    2  501    0 -0.27009872510E+02  0.27620602707E+02 -0.57579466371E+02  0.46316156661E+03  0.45794192965E+03 0.  0.
         13    1    3    3    0    0 -0.16596853324E+02  0.23683222376E+03 -0.84426005696E+02  0.25197759462E+03  0.00000000000E+00 0.  1.
          1    1    3    3  501    0 -0.10413019186E+02 -0.20921162106E+03  0.26846539325E+02  0.21118397199E+03  0.00000000000E+00 0.  1.
         21    1    1    2  502  501  0.27009872510E+02 -0.27620602707E+02  0.10874337355E+02  0.40133304372E+02  0.00000000000E+00 0. -1.
<scales pt_clust_4="550.00000" pt_clust_5="550.00000" pt_clust_6="38.63199"></scales>
<mgrwt>
<rscale>  0 0.30000000E+03</rscale>
<asrwt>  1 0.38631993E+02</asrwt>
<pdfrwt beam="1">  1        1 0.83016317E+00 0.30000000E+03</pdfrwt>
<pdfrwt beam="2">0</pdfrwt>
<totfact> 0.57850153E-04</totfact>
</mgrwt>
<clustering>
<clus scale="   38.632">  1  6  2 -1</clus>
<clus scale="  457.942">  4  5 -1 -1</clus>
<clus scale="  300.000">  1  4  2 -1</clus>
</clustering>
</event>
<event>
 6    1  0.9131597E-012  0.3000000E+03  0.7818608E-02  0.1093470E+00
          1   -1    0    0  502    0  0.00000000000E+00  0.00000000000E+00  0.23394267739E+03  0.23394267739E+03  0.00000000000E+00 0.  1.
         13   -1    0    0    0    0 -0.00000000000E+00 -0.00000000000E+00 -0.27500000000E+03  0.27500000000E+03  0.00000000000E+00 0.  1.
    9000005    2    1    2  501    0  0.25032516866E+02  0.23972130038E+02 -0.25717266937E+02  0.47104007554E+03  0.46905872237E+03 0.  0.
         13    1    3    3    0    0  0.20760638871E+03  0.14309764876E+03 -0.70846069283E+01  0.25224500267E+03  0.00000000000E+00 0.  1.
          1    1    3    3  501    0 -0.18257387185E+03 -0.11912551873E+03 -0.18632660009E+02  0.21879507287E+03  0.00000000000E+00 0.  1.
         21    1    1    2  502  501 -0.25032516866E+02 -0.23972130038E+02 -0.15340055670E+02  0.37902601852E+02  0.00000000000E+00 0. -1.
<scales pt_clust_4="550.00000" pt_clust_5="550.00000" pt_clust_6="34.65965"></scales>
<mgrwt>
<rscale>  0 0.30000000E+03</rscale>
<asrwt>  1 0.34659647E+02</asrwt>
<pdfrwt beam="1">  1        1 0.85070065E+00 0.30000000E+03</pdfrwt>
<pdfrwt beam="2">0</pdfrwt>
<totfact> 0.40158307E-04</totfact>
</mgrwt>
<clustering>
<clus scale="   34.660">  1  6  2 -1</clus>
<clus scale="  469.059">  4  5 -1 -1</clus>
<clus scale="  300.000">  1  4  2 -1</clus>
</clustering>
</event>
<event>
 6    1  0.9131597E-012  0.3000000E+03  0.7818608E-02  0.1093470E+00
          1   -1    0    0  502    0  0.00000000000E+00  0.00000000000E+00  0.25471161964E+03  0.25471161964E+03  0.00000000000E+00 0.  1.
         13   -1    0    0    0    0 -0.00000000000E+00 -0.00000000000E+00 -0.27500000000E+03  0.27500000000E+03  0.00000000000E+00 0.  1.
    9000005    2    1    2  501    0  0.27071125382E+02 -0.46228216416E+02  0.98992326379E+01  0.46822027227E+03  0.46504014314E+03 0.  0.
         13    1    3    3    0    0 -0.16795652183E+03  0.65932614776E+02  0.12105366345E+03  0.21727975597E+03  0.00000000000E+00 0.  1.
          1    1    3    3  501    0  0.19502764722E+03 -0.11216083119E+03 -0.11115443081E+03  0.25094051630E+03  0.00000000000E+00 0.  1.
         21    1    1    2  502  501 -0.27071125382E+02  0.46228216416E+02 -0.30187613003E+02  0.61491347369E+02  0.00000000000E+00 0.  1.
<scales pt_clust_4="550.00000" pt_clust_5="550.00000" pt_clust_6="53.57142"></scales>
<mgrwt>
<rscale>  0 0.30000000E+03</rscale>
<asrwt>  1 0.53571417E+02</asrwt>
<pdfrwt beam="1">  1        1 0.92622407E+00 0.30000000E+03</pdfrwt>
<pdfrwt beam="2">0</pdfrwt>
<totfact> 0.28661756E-05</totfact>
</mgrwt>
<clustering>
<clus scale="   53.571">  1  6  2 -1</clus>
<clus scale="  465.040">  4  5 -1 -1</clus>
<clus scale="  300.000">  1  4  2 -1</clus>
</clustering>
</event>
<event>
 6    1  0.9131597E-012  0.3000000E+03  0.7818608E-02  0.1093470E+00
          1   -1    0    0  502    0  0.00000000000E+00  0.00000000000E+00  0.24141472364E+03  0.24141472364E+03  0.00000000000E+00 0.  1.
         13   -1    0    0    0    0 -0.00000000000E+00 -0.00000000000E+00 -0.27500000000E+03  0.27500000000E+03  0.00000000000E+00 0.  1.
    9000005    2    1    2  501    0  0.27335782992E+02  0.20228198269E+02 -0.50089367716E+02  0.47861511956E+03  0.47477053708E+03 0.  0.
         13    1    3    3    0    0  0.19221836547E+03  0.16645324988E+03 -0.89735639767E+01  0.25443095187E+03  0.00000000000E+00 0.  1.
          1    1    3    3  501    0 -0.16488258248E+03 -0.14622505161E+03 -0.41115803740E+02  0.22418416769E+03  0.00000000000E+00 0.  1.
         21    1    1    2  502  501 -0.27335782992E+02 -0.20228198269E+02  0.16504091354E+02  0.37799604078E+02  0.00000000000E+00 0. -1.
<scales pt_clust_4="550.00000" pt_clust_5="550.00000" pt_clust_6="34.00625"></scales>
<mgrwt>
<rscale>  0 0.30000000E+03</rscale>
<asrwt>  1 0.34006250E+02</asrwt>
<pdfrwt beam="1">  1        1 0.87787172E+00 0.30000000E+03</pdfrwt>
<pdfrwt beam="2">0</pdfrwt>
<totfact> 0.21034079E-04</totfact>
</mgrwt>
<clustering>
<clus scale="   34.006">  1  6  2 -1</clus>
<clus scale="  474.771">  4  5 -1 -1</clus>
<clus scale="  300.000">  1  4  2 -1</clus>
</clustering>
</event>
<event>
 6    1  0.9131597E-012  0.3000000E+03  0.7818608E-02  0.1093470E+00
          1   -1    0    0  502    0  0.00000000000E+00  0.00000000000E+00  0.24043462391E+03  0.24043462391E+03  0.00000000000E+00 0.  1.
         13   -1    0    0    0    0 -0.00000000000E+00 -0.00000000000E+00 -0.27500000000E+03  0.27500000000E+03  0.00000000000E+00 0.  1.
    9000005    2    1    2  501    0 -0.33170104501E+02 -0.74256814312E+01 -0.56644130172E+02  0.47490231631E+03  0.47028529211E+03 0.  0.
         13    1    3    3    0    0 -0.12499656922E+03  0.12090653320E+03 -0.19766128286E+03  0.26327270050E+03  0.00000000000E+00 0.  1.
          3    1    3    3  501    0  0.91826464715E+02 -0.12833221463E+03  0.14101715269E+03  0.21162961581E+03  0.00000000000E+00 0.  1.
         21    1    1    2  502  501  0.33170104501E+02  0.74256814312E+01  0.22078754083E+02  0.40532307598E+02  0.00000000000E+00 0.  1.
<scales pt_clust_4="550.00000" pt_clust_5="550.00000" pt_clust_6="33.99112"></scales>
<mgrwt>
<rscale>  0 0.30000000E+03</rscale>
<asrwt>  1 0.33991125E+02</asrwt>
<pdfrwt beam="1">  1        1 0.87430772E+00 0.30000000E+03</pdfrwt>
<pdfrwt beam="2">0</pdfrwt>
<totfact> 0.22998720E-04</totfact>
</mgrwt>
<clustering>
<clus scale="   33.991">  1  6  2 -1</clus>
<clus scale="  470.285">  4  5 -1 -1</clus>
<clus scale="  300.000">  1  4  2 -1</clus>
</clustering>
</event>
<event>
 6    1  0.9131597E-012  0.3000000E+03  0.7818608E-02  0.1093470E+00
          1   -1    0    0  502    0  0.00000000000E+00  0.00000000000E+00  0.23169243357E+03  0.23169243357E+03  0.00000000000E+00 0.  1.
         13   -1    0    0    0    0 -0.00000000000E+00 -0.00000000000E+00 -0.27500000000E+03  0.27500000000E+03  0.00000000000E+00 0.  1.
    9000005    2    1    2  501    0 -0.32608078135E+02  0.69351547051E+01 -0.67048492219E+02  0.46576549027E+03  0.45970708988E+03 0.  0.
         13    1    3    3    0    0  0.91581872201E+02  0.19824631784E+03 -0.90684628928E+02  0.23645833412E+03  0.00000000000E+00 0.  1.
          3    1    3    3  501    0 -0.12418995034E+03 -0.19131116313E+03  0.23636136710E+02  0.22930715615E+03  0.00000000000E+00 0.  1.
         21    1    1    2  502  501  0.32608078135E+02 -0.69351547051E+01  0.23740925787E+02  0.40926943297E+02  0.00000000000E+00 0.  1.
<scales pt_clust_4="550.00000" pt_clust_5="550.00000" pt_clust_6="33.33741"></scales>
<mgrwt>
<rscale>  0 0.30000000E+03</rscale>
<asrwt>  1 0.33337413E+02</asrwt>
<pdfrwt beam="1">  1        1 0.84251794E+00 0.30000000E+03</pdfrwt>
<pdfrwt beam="2">0</pdfrwt>
<totfact> 0.47879998E-04</totfact>
</mgrwt>
<clustering>
<clus scale="   33.337">  1  6  2 -1</clus>
<clus scale="  459.707">  4  5 -1 -1</clus>
<clus scale="  300.000">  1  4  2 -1</clus>
</clustering>
</event>
<event>
 6    1  0.9131597E-012  0.3000000E+03  0.7818608E-02  0.1093470E+00
          1   -1    0    0  502    0  0.00000000000E+00  0.00000000000E+00  0.23428735085E+03  0.23428735085E+03  0.00000000000E+00 0.  1.
         13   -1    0    0    0    0 -0.00000000000E+00 -0.00000000000E+00 -0.27500000000E+03  0.27500000000E+03  0.00000000000E+00 0.  1.
    9000005    2    1    2  501    0  0.12236109526E+01  0.43202137319E+02 -0.49079148431E+02  0.46526553577E+03  0.46064664774E+03 0.  0.
         13    1    3    3    0    0 -0.20278477462E+03 -0.86651045212E+02 -0.14789957868E+02  0.22101767194E+03  0.00000000000E+00 0.  1.
          3    1    3    3  501    0  0.20400838557E+03  0.12985318253E+03 -0.34289190563E+02  0.24424786383E+03  0.00000000000E+00 0.  1.
         21    1    1    2  502  501 -0.12236109526E+01 -0.43202137319E+02  0.83664992802E+01  0.44021815079E+02  0.00000000000E+00 0. -1.
<scales pt_clust_4="550.00000" pt_clust_5="550.00000" pt_clust_6="43.21946"></scales>
<mgrwt>
<rscale>  0 0.30000000E+03</rscale>
<asrwt>  1 0.43219462E+02</asrwt>
<pdfrwt beam="1">  1        1 0.85195400E+00 0.30000000E+03</pdfrwt>
<pdfrwt beam="2">0</pdfrwt>
<totfact> 0.37518975E-04</totfact>
</mgrwt>
<clustering>
<clus scale="   43.219">  1  6  2 -1</clus>
<clus scale="  460.647">  4  5 -1 -1</clus>
<clus scale="  300.000">  1  4  2 -1</clus>
</clustering>
</event>
<event>
 6    1  0.9131597E-012  0.3000000E+03  0.7818608E-02  0.1093470E+00
          1   -1    0    0  502    0  0.00000000000E+00  0.00000000000E+00  0.23146500425E+03  0.23146500425E+03  0.00000000000E+00 0.  1.
         13   -1    0    0    0    0 -0.00000000000E+00 -0.00000000000E+00 -0.27500000000E+03  0.27500000000E+03  0.00000000000E+00 0.  1.
    9000005    2    1    2  501    0 -0.28106980547E+02  0.14776727469E+02 -0.36684163886E+02  0.47397980874E+03  0.47148995449E+03 0.  0.
         13    1    3    3    0    0  0.18493524394E+03  0.84220447686E+02 -0.11873471687E+03  0.23535518106E+03  0.00000000000E+00 0.  1.
          1    1    3    3  501    0 -0.21304222449E+03 -0.69443720218E+02  0.82050552983E+02  0.23862462768E+03  0.00000000000E+00 0.  1.
         21    1    1    2  502  501  0.28106980547E+02 -0.14776727469E+02 -0.68508318643E+01  0.32485195511E+02  0.00000000000E+00 0.  1.
<scales pt_clust_4="550.00000" pt_clust_5="550.00000" pt_clust_6="31.75461"></scales>
<mgrwt>
<rscale>  0 0.30000000E+03</rscale>
<asrwt>  1 0.31754607E+02</asrwt>
<pdfrwt beam="1">  1        1 0.84169092E+00 0.30000000E+03</pdfrwt>
<pdfrwt beam="2">0</pdfrwt>
<totfact> 0.49091179E-04</totfact>
</mgrwt>
<clustering>
<clus scale="   31.755">  1  6  2 -1</clus>
<clus scale="  471.490">  4  5 -1 -1</clus>
<clus scale="  300.000">  1  4  2 -1</clus>
</clustering>
</event>
<event>
 6    1  0.9131597E-012  0.3000000E+03  0.7818608E-02  0.1093470E+00
          1   -1    0    0  502    0  0.00000000000E+00  0.00000000000E+00  0.24449766094E+03  0.24449766094E+03  0.00000000000E+00 0.  1.
         13   -1    0    0    0    0 -0.00000000000E+00 -0.00000000000E+00 -0.27500000000E+03  0.27500000000E+03  0.00000000000E+00 0.  1.
    9000005    2    1    2  501    0  0.30697203045E+02 -0.27141463443E+02 -0.31949653292E+02  0.47849678252E+03  0.47566733462E+03 0.  0.
         13    1    3    3    0    0 -0.31166995957E+02 -0.23962366973E+03 -0.75061229875E+02  0.25303176275E+03  0.00000000000E+00 0.  1.
          1    1    3    3  501    0  0.61864199002E+02  0.21248220628E+03  0.43111576583E+02  0.22546501977E+03  0.00000000000E+00 0.  1.
         21    1    1    2  502  501 -0.30697203045E+02  0.27141463443E+02  0.14473142359E+01  0.41000878419E+02  0.00000000000E+00 0. -1.
<scales pt_clust_4="550.00000" pt_clust_5="550.00000" pt_clust_6="40.97533"></scales>
<mgrwt>
<rscale>  0 0.30000000E+03</rscale>
<asrwt>  1 0.40975326E+02</asrwt>
<pdfrwt beam="1">  1        1 0.88908240E+00 0.30000000E+03</pdfrwt>
<pdfrwt beam="2">0</pdfrwt>
<totfact> 0.14485978E-04</totfact>
</mgrwt>
<clustering>
<clus scale="   40.975">  1  6  2 -1</clus>
<clus scale="  475.667">  4  5 -1 -1</clus>
<clus scale="  300.000">  1  4  2 -1</clus>
</clustering>
</event>
<event>
 6    1  0.9131597E-012  0.3000000E+03  0.7818608E-02  0.1093470E+00
          1   -1    0    0  502    0  0.00000000000E+00  0.00000000000E+00  0.25574003166E+03  0.25574003166E+03  0.00000000000E+00 0.  1.
         13   -1    0    0    0    0 -0.00000000000E+00 -0.00000000000E+00 -0.27500000000E+03  0.27500000000E+03  0.00000000000E+00 0.  1.
    9000005    2    1    2  501    0 -0.21755638084E+02  0.40993562879E+02 -0.58426038327E+00  0.48071441768E+03  0.47846863013E+03 0.  0.
         13    1    3    3    0    0 -0.82430018643E+02  0.18679375737E+03  0.15704657069E+03  0.25758540551E+03  0.00000000000E+00 0.  1.
          3    1    3    3  501    0  0.60674380559E+02 -0.14580019449E+03 -0.15763083107E+03  0.22312901217E+03  0.00000000000E+00 0.  1.
         21    1    1    2  502  501  0.21755638084E+02 -0.40993562879E+02 -0.18675707959E+02  0.50025613977E+02  0.00000000000E+00 0.  1.
<scales pt_clust_4="550.00000" pt_clust_5="550.00000" pt_clust_6="46.40886"></scales>
<mgrwt>
<rscale>  0 0.30000000E+03</rscale>
<asrwt>  1 0.46408858E+02</asrwt>
<pdfrwt beam="1">  1        1 0.92996375E+00 0.30000000E+03</pdfrwt>
<pdfrwt beam="2">0</pdfrwt>
<totfact> 0.25007644E-05</totfact>
</mgrwt>
<clustering>
<clus scale="   46.409">  1  6  2 -1</clus>
<clus scale="  478.469">  4  5 -1 -1</clus>
<clus scale="  300.000">  1  4  2 -1</clus>
</clustering>
</event>
<event>
 6    1  0.9131597E-012  0.3000000E+03  0.7818608E-02  0.1093470E+00
          1   -1    0    0  502    0  0.00000000000E+00  0.00000000000E+00  0.23687592795E+03  0.23687592795E+03  0.00000000000E+00 0.  1.
         13   -1    0    0    0    0 -0.00000000000E+00 -0.00000000000E+00 -0.27500000000E+03  0.27500000000E+03  0.00000000000E+00 0.  1.
    9000005    2    1    2  501    0 -0.99646905797E+01 -0.39073242680E+02 -0.60787808647E+02  0.46561948723E+03  0.45986991188E+03 0.  0.
         13    1    3    3    0    0 -0.22373583993E+03  0.48512933301E+02 -0.50107779000E+02  0.23435447571E+03  0.00000000000E+00 0.  1.
          3    1    3    3  501    0  0.21377114935E+03 -0.87586175982E+02 -0.10680029647E+02  0.23126501152E+03  0.00000000000E+00 0.  1.
         21    1    1    2  502  501  0.99646905797E+01  0.39073242680E+02  0.22663736595E+02  0.46256440723E+02  0.00000000000E+00 0.  1.
<scales pt_clust_4="550.00000" pt_clust_5="550.00000" pt_clust_6="40.32386"></scales>
<mgrwt>
<rscale>  0 0.30000000E+03</rscale>
<asrwt>  1 0.40323856E+02</asrwt>
<pdfrwt beam="1">  1        1 0.86136701E+00 0.30000000E+03</pdfrwt>
<pdfrwt beam="2">0</pdfrwt>
<totfact> 0.30465735E-04</totfact>
</mgrwt>
<clustering>
<clus scale="   40.324">  1  6  2 -1</clus>
<clus scale="  459.870">  4  5 -1 -1</clus>
<clus scale="  300.000">  1  4  2 -1</clus>
</clustering>
</event>
<event>
 6    1  0.9131597E-012  0.3000000E+03  0.7818608E-02  0.1093470E+00
          1   -1    0    0  502    0  0.00000000000E+00  0.00000000000E+00  0.24782844909E+03  0.24782844909E+03  0.00000000000E+00 0.  1.
         13   -1    0    0    0    0 -0.00000000000E+00 -0.00000000000E+00 -0.27500000000E+03  0.27500000000E+03  0.00000000000E+00 0.  1.
    9000005    2    1    2  501    0 -0.14429973472E+02  0.34090258374E+02 -0.34654236643E+02  0.48506126180E+03  0.48240350510E+03 0.  0.
         13    1    3    3    0    0  0.20328367156E+02  0.19383990985E+03  0.14442348324E+03  0.24258049318E+03  0.00000000000E+00 0.  1.
          1    1    3    3  501    0 -0.34758340628E+02 -0.15974965147E+03 -0.17907771989E+03  0.24248076862E+03  0.00000000000E+00 0.  1.
         21    1    1    2  502  501  0.14429973472E+02 -0.34090258374E+02  0.74826857380E+01  0.37767187297E+02  0.00000000000E+00 0. -1.
<scales pt_clust_4="550.00000" pt_clust_5="550.00000" pt_clust_6="37.01851"></scales>
<mgrwt>
<rscale>  0 0.30000000E+03</rscale>
<asrwt>  1 0.37018507E+02</asrwt>
<pdfrwt beam="1">  1        1 0.90119436E+00 0.30000000E+03</pdfrwt>
<pdfrwt beam="2">0</pdfrwt>
<totfact> 0.10543837E-04</totfact>
</mgrwt>
<clustering>
<clus scale="   37.019">  1  6  2 -1</clus>
<clus scale="  482.404">  4  5 -1 -1</clus>
<clus scale="  300.000">  1  4  2 -1</clus>
</clustering>
</event>
<event>
 6    1  0.9131597E-012  0.3000000E+03  0.7818608E-02  0.1093470E+00
          1   -1    0    0  502    0  0.00000000000E+00  0.00000000000E+00  0.23942438406E+03  0.23942438406E+03  0.00000000000E+00 0.  1.
         13   -1    0    0    0    0 -0.00000000000E+00 -0.00000000000E+00 -0.27500000000E+03  0.27500000000E+03  0.00000000000E+00 0.  1.
    9000005    2    1    2  501    0  0.16824147140E+01  0.31555601990E+02 -0.63908806677E+02  0.47198199683E+03  0.46656626885E+03 0.  0.
         13    1    3    3    0    0  0.10614010783E+03  0.20040613075E+03 -0.13161742867E+03  0.26220504813E+03  0.00000000000E+00 0.  1.
          1    1    3    3  501    0 -0.10445769312E+03 -0.16885052876E+03  0.67708621995E+02  0.20977694870E+03  0.00000000000E+00 0.  1.
         21    1    1    2  502  501 -0.16824147140E+01 -0.31555601990E+02  0.28333190736E+02  0.42442387226E+02  0.00000000000E+00 0. -1.
<scales pt_clust_4="550.00000" pt_clust_5="550.00000" pt_clust_6="31.60042"></scales>
<mgrwt>
<rscale>  0 0.30000000E+03</rscale>
<asrwt>  1 0.31600420E+02</asrwt>
<pdfrwt beam="1">  1        1 0.87063412E+00 0.30000000E+03</pdfrwt>
<pdfrwt beam="2">0</pdfrwt>
<totfact> 0.25436164E-04</totfact>
</mgrwt>
<clustering>
<clus scale="   31.600">  1  6  2 -1</clus>
<clus scale="  466.566">  4  5 -1 -1</clus>
<clus scale="  300.000">  1  4  2 -1</clus>
</clustering>
</event>
<event>
 6    1  0.9131597E-012  0.3000000E+03  0.7818608E-02  0.1093470E+00
          1   -1    0    0  502    0  0.00000000000E+00  0.00000000000E+00  0.23105249571E+03  0.23105249571E+03  0.00000000000E+00 0.  1.
         13   -1    0    0    0    0 -0.00000000000E+00 -0.00000000000E+00 -0.27500000000E+03  0.27500000000E+03  0.00000000000E+00 0.  1.
    9000005    2    1    2  501    0 -0.14968489079E+02 -0.29410263363E+02 -0.68534793069E+02  0.46489968261E+03  0.45863457979E+03 0.  0.
         13    1    3    3    0    0  0.21821809546E+03  0.17865706275E+02 -0.66340035095E+01  0.21904869469E+03  0.00000000000E+00 0.  1.
          3    1    3    3  501    0 -0.23318658453E+03 -0.47275969638E+02 -0.61900789559E+02  0.24585098792E+03  0.00000000000E+00 0.  1.
         21    1    1    2  502  501  0.14968489079E+02  0.29410263363E+02  0.24587288780E+02  0.41152813099E+02  0.00000000000E+00 0.  1.
<scales pt_clust_4="550.00000" pt_clust_5="550.00000" pt_clust_6="33.00029"></scales>
<mgrwt>
<rscale>  0 0.30000000E+03</rscale>
<asrwt>  1 0.33000292E+02</asrwt>
<pdfrwt beam="1">  1        1 0.84019089E+00 0.30000000E+03</pdfrwt>
<pdfrwt beam="2">0</pdfrwt>
<totfact> 0.50087481E-04</totfact>
</mgrwt>
<clustering>
<clus scale="   33.000">  1  6  2 -1</clus>
<clus scale="  458.635">  4  5 -1 -1</clus>
<clus scale="  300.000">  1  4  2 -1</clus>
</clustering>
</event>
<event>
 6    1  0.9131597E-012  0.3000000E+03  0.7818608E-02  0.1093470E+00
          1   -1    0    0  502    0  0.00000000000E+00  0.00000000000E+00  0.23610481708E+03  0.23610481708E+03  0.00000000000E+00 0.  1.
         13   -1    0    0    0    0 -0.00000000000E+00 -0.00000000000E+00 -0.27500000000E+03  0.27500000000E+03  0.00000000000E+00 0.  1.
    9000005    2    1    2  501    0  0.82917548200E+01 -0.34206779608E+02 -0.69650974194E+02  0.46436323317E+03  0.45775877616E+03 0.  0.
         13    1    3    3    0    0 -0.51523124479E+02  0.42749782240E+02  0.18230613830E+03  0.19421046393E+03  0.00000000000E+00 0.  1.
          1    1    3    3  501    0  0.59814879299E+02 -0.76956561847E+02 -0.25195711249E+03  0.27015276925E+03  0.00000000000E+00 0.  1.
         21    1    1    2  502  501 -0.82917548200E+01  0.34206779608E+02  0.30755791275E+02  0.46741583906E+02  0.00000000000E+00 0. -1.
<scales pt_clust_4="550.00000" pt_clust_5="550.00000" pt_clust_6="35.19740"></scales>
<mgrwt>
<rscale>  0 0.30000000E+03</rscale>
<asrwt>  1 0.35197400E+02</asrwt>
<pdfrwt beam="1">  1        1 0.85856297E+00 0.30000000E+03</pdfrwt>
<pdfrwt beam="2">0</pdfrwt>
<totfact> 0.33464974E-04</totfact>
</mgrwt>
<clustering>
<clus scale="   35.197">  1  6  2 -1</clus>
<clus scale="  457.759">  4  5 -1 -1</clus>
<clus scale="  300.000">  1  4  2 -1</clus>
</clustering>
</event>
<event>
 6    1  0.9131597E-012  0.3000000E+03  0.7818608E-02  0.1093470E+00
          1   -1    0    0  502    0  0.00000000000E+00  0.00000000000E+00  0.26660287788E+03  0.26660287788E+03  0.00000000000E+00 0.  1.
         13   -1    0    0    0    0 -0.00000000000E+00 -0.00000000000E+00 -0.27500000000E+03  0.27500000000E+03  0.00000000000E+00 0.  1.
    9000005    2    1    2  501    0  0.28761162979E+02 -0.17490063377E+02 -0.27353246417E+02  0.50297074797E+03  0.50109706287E+03 0.  0.
         13    1    3    3    0    0 -0.15183527395E+03  0.17814306813E+03 -0.34666397227E+02  0.23662346087E+03  0.00000000000E+00 0.  1.
          3    1    3    3  501    0  0.18059643693E+03 -0.19563313150E+03  0.73131508098E+01  0.26634728710E+03  0.00000000000E+00 0.  1.
         21    1    1    2  502  501 -0.28761162979E+02  0.17490063377E+02  0.18956124299E+02  0.38632129909E+02  0.00000000000E+00 0.  1.
<scales pt_clust_4="550.00000" pt_clust_5="550.00000" pt_clust_6="33.66165"></scales>
<mgrwt>
<rscale>  0 0.30000000E+03</rscale>
<asrwt>  1 0.33661652E+02</asrwt>
<pdfrwt beam="1">  1        1 0.96946501E+00 0.30000000E+03</pdfrwt>
<pdfrwt beam="2">0</pdfrwt>
<totfact> 0.50790587E-06</totfact>
</mgrwt>
<clustering>
<clus scale="   33.662">  1  6  2 -1</clus>
<clus scale="  501.097">  4  5 -1 -1</clus>
<clus scale="  300.000">  1  4  2 -1</clus>
</clustering>
</event>
<event>
 6    1  0.9131597E-012  0.3000000E+03  0.7818608E-02  0.1093470E+00
          1   -1    0    0  502    0  0.00000000000E+00  0.00000000000E+00  0.22768426125E+03  0.22768426125E+03  0.00000000000E+00 0.  1.
         13   -1    0    0    0    0 -0.00000000000E+00 -0.00000000000E+00 -0.27500000000E+03  0.27500000000E+03  0.00000000000E+00 0.  1.
    9000005    2    1    2  501    0 -0.16369804988E+02 -0.25575527735E+02 -0.46578907923E+02  0.47230958341E+03  0.46902523363E+03 0.  0.
         13    1    3    3    0    0 -0.99713428918E+02  0.11093962318E+03 -0.20078760330E+03  0.25013202421E+03  0.00000000000E+00 0.  1.
          1    1    3    3  501    0  0.83343623930E+02 -0.13651515091E+03  0.15420869538E+03  0.22217755919E+03  0.00000000000E+00 0.  1.
         21    1    1    2  502  501  0.16369804988E+02  0.25575527735E+02 -0.73683082762E+00  0.30374677841E+02  0.00000000000E+00 0.  1.
<scales pt_clust_4="550.00000" pt_clust_5="550.00000" pt_clust_6="30.36574"></scales>
<mgrwt>
<rscale>  0 0.30000000E+03</rscale>
<asrwt>  1 0.30365739E+02</asrwt>
<pdfrwt beam="1">  1        1 0.82794277E+00 0.30000000E+03</pdfrwt>
<pdfrwt beam="2">0</pdfrwt>
<totfact> 0.63203696E-04</totfact>
</mgrwt>
<clustering>
<clus scale="   30.366">  1  6  2 -1</clus>
<clus scale="  469.025">  4  5 -1 -1</clus>
<clus scale="  300.000">  1  4  2 -1</clus>
</clustering>
</event>
<event>
 6    1  0.9131597E-012  0.3000000E+03  0.7818608E-02  0.1093470E+00
          1   -1    0    0  502    0  0.00000000000E+00  0.00000000000E+00  0.24908409149E+03  0.24908409149E+03  0.00000000000E+00 0.  1.
         13   -1    0    0    0    0 -0.00000000000E+00 -0.00000000000E+00 -0.27500000000E+03  0.27500000000E+03  0.00000000000E+00 0.  1.
    9000005    2    1    2  501    0 -0.25022506589E+01  0.34149458870E+02 -0.65207710820E+02  0.47196602813E+03  0.46618391152E+03 0.  0.
         13    1    3    3    0    0  0.17926499793E+03  0.36441238242E+02 -0.18026998353E+03  0.25682906823E+03  0.00000000000E+00 0.  1.
          1    1    3    3  501    0 -0.18176724859E+03 -0.22917793721E+01  0.11506227271E+03  0.21513695990E+03  0.00000000000E+00 0.  1.
         21    1    1    2  502  501  0.25022506589E+01 -0.34149458870E+02  0.39291802314E+02  0.52118063362E+02  0.00000000000E+00 0.  1.
<scales pt_clust_4="550.00000" pt_clust_5="550.00000" pt_clust_6="34.24101"></scales>
<mgrwt>
<rscale>  0 0.30000000E+03</rscale>
<asrwt>  1 0.34241010E+02</asrwt>
<pdfrwt beam="1">  1        1 0.90576033E+00 0.30000000E+03</pdfrwt>
<pdfrwt beam="2">0</pdfrwt>
<totfact> 0.89742263E-05</totfact>
</mgrwt>
<clustering>
<clus scale="   34.241">  1  6  2 -1</clus>
<clus scale="  466.184">  4  5 -1 -1</clus>
<clus scale="  300.000">  1  4  2 -1</clus>
</clustering>
</event>
<event>
 6    1  0.9131597E-012  0.3000000E+03  0.7818608E-02  0.1093470E+00
          1   -1    0    0  502    0  0.00000000000E+00  0.00000000000E+00  0.22737601485E+03  0.22737601485E+03  0.00000000000E+00 0.  1.
         13   -1    0    0    0    0 -0.00000000000E+00 -0.00000000000E+00 -0.27500000000E+03  0.27500000000E+03  0.00000000000E+00 0.  1.
    9000005    2    1    2  501    0  0.34599111101E+02  0.15812072152E+02 -0.52548249225E+02  0.46401759346E+03  0.45946043185E+03 0.  0.
         13    1    3    3    0    0 -0.20344902621E+03 -0.46786022320E+02  0.13418541050E+02  0.20919009392E+03  0.00000000000E+00 0.  1.
          1    1    3    3  501    0  0.23804813731E+03  0.62598094472E+02 -0.65966790276E+02  0.25482749955E+03  0.00000000000E+00 0.  1.
         21    1    1    2  502  501 -0.34599111101E+02 -0.15812072152E+02  0.49242640768E+01  0.38358421388E+02  0.00000000000E+00 0.  1.
<scales pt_clust_4="550.00000" pt_clust_5="550.00000" pt_clust_6="38.04103"></scales>
<mgrwt>
<rscale>  0 0.30000000E+03</rscale>
<asrwt>  1 0.38041032E+02</asrwt>
<pdfrwt beam="1">  1        1 0.82682187E+00 0.30000000E+03</pdfrwt>
<pdfrwt beam="2">0</pdfrwt>
<totfact> 0.61963314E-04</totfact>
</mgrwt>
<clustering>
<clus scale="   38.041">  1  6  2 -1</clus>
<clus scale="  459.460">  4  5 -1 -1</clus>
<clus scale="  300.000">  1  4  2 -1</clus>
</clustering>
</event>
<event>
 6    1  0.9131597E-012  0.3000000E+03  0.7818608E-02  0.1093470E+00
          1   -1    0    0  502    0  0.00000000000E+00  0.00000000000E+00  0.23577677199E+03  0.23577677199E+03  0.00000000000E+00 0.  1.
         13   -1    0    0    0    0 -0.00000000000E+00 -0.00000000000E+00 -0.27500000000E+03  0.27500000000E+03  0.00000000000E+00 0.  1.
    9000005    2    1    2  501    0 -0.10921616992E+02  0.31690751849E+02 -0.55260933546E+02  0.47361774255E+03  0.46918696679E+03 0.  0.
         13    1    3    3    0    0 -0.47398175261E+01 -0.48877528144E+02 -0.25419703508E+03  0.25889691244E+03  0.00000000000E+00 0.  1.
          1    1    3    3  501    0 -0.61817994656E+01  0.80568279992E+02  0.19893610154E+03  0.21472083010E+03  0.00000000000E+00 0.  1.
         21    1    1    2  502  501  0.10921616992E+02 -0.31690751849E+02  0.16037705539E+02  0.37159029447E+02  0.00000000000E+00 0.  1.
<scales pt_clust_4="550.00000" pt_clust_5="550.00000" pt_clust_6="33.51993"></scales>
<mgrwt>
<rscale>  0 0.30000000E+03</rscale>
<asrwt>  1 0.33519926E+02</asrwt>
<pdfrwt beam="1">  1        1 0.85737008E+00 0.30000000E+03</pdfrwt>
<pdfrwt beam="2">0</pdfrwt>
<totfact> 0.34754099E-04</totfact>
</mgrwt>
<clustering>
<clus scale="   33.520">  1  6  2 -1</clus>
<clus scale="  469.187">  4  5 -1 -1</clus>
<clus scale="  300.000">  1  4  2 -1</clus>
</clustering>
</event>
<event>
 6    1  0.9131597E-012  0.3000000E+03  0.7818608E-02  0.1093470E+00
          1   -1    0    0  502    0  0.00000000000E+00  0.00000000000E+00  0.24783477291E+03  0.24783477291E+03  0.00000000000E+00 0.  1.
         13   -1    0    0    0    0 -0.00000000000E+00 -0.00000000000E+00 -0.27500000000E+03  0.27500000000E+03  0.00000000000E+00 0.  1.
    9000005    2    1    2  501    0  0.83991166685E+01 -0.50317856223E+02 -0.39957076892E+02  0.47024139655E+03  0.46575526966E+03 0.  0.
         13    1    3    3    0    0  0.13171719726E+03  0.12067327865E+03 -0.14924455213E+03  0.23277756888E+03  0.00000000000E+00 0.  1.
          1    1    3    3  501    0 -0.12331808059E+03 -0.17099113487E+03  0.10928747524E+03  0.23746382767E+03  0.00000000000E+00 0.  1.
         21    1    1    2  502  501 -0.83991166685E+01  0.50317856223E+02  0.12791849800E+02  0.52593376360E+02  0.00000000000E+00 0. -1.
<scales pt_clust_4="550.00000" pt_clust_5="550.00000" pt_clust_6="51.01404"></scales>
<mgrwt>
<rscale>  0 0.30000000E+03</rscale>
<asrwt>  1 0.51014035E+02</asrwt>
<pdfrwt beam="1">  1        1 0.90121736E+00 0.30000000E+03</pdfrwt>
<pdfrwt beam="2">0</pdfrwt>
<totfact> 0.99458823E-05</totfact>
</mgrwt>
<clustering>
<clus scale="   51.014">  1  6  2 -1</clus>
<clus scale="  465.755">  4  5 -1 -1</clus>
<clus scale="  300.000">  1  4  2 -1</clus>
</clustering>
</event>
<event>
 6    1  0.9131597E-012  0.3000000E+03  0.7818608E-02  0.1093470E+00
          1   -1    0    0  502    0  0.00000000000E+00  0.00000000000E+00  0.24926907686E+03  0.24926907686E+03  0.00000000000E+00 0.  1.
         13   -1    0    0    0    0 -0.00000000000E+00 -0.00000000000E+00 -0.27500000000E+03  0.27500000000E+03  0.00000000000E+00 0.  1.
    9000005    2    1    2  501    0  0.14336852625E+02 -0.33469085219E+02 -0.31219728732E+02  0.48744718126E+03  0.48508180552E+03 0.  0.
         13    1    3    3    0    0  0.10405048319E+03  0.29135215158E+02 -0.23360659718E+03  0.25738571457E+03  0.00000000000E+00 0.  1.
          1    1    3    3  501    0 -0.89713630565E+02 -0.62604300378E+02  0.20238686845E+03  0.23006146669E+03  0.00000000000E+00 0.  1.
         21    1    1    2  502  501 -0.14336852625E+02  0.33469085219E+02  0.54888055876E+01  0.36821895597E+02  0.00000000000E+00 0.  1.
<scales pt_clust_4="550.00000" pt_clust_5="550.00000" pt_clust_6="36.41051"></scales>
<mgrwt>
<rscale>  0 0.30000000E+03</rscale>
<asrwt>  1 0.36410507E+02</asrwt>
<pdfrwt beam="1">  1        1 0.90643301E+00 0.30000000E+03</pdfrwt>
<pdfrwt beam="2">0</pdfrwt>
<totfact> 0.85964640E-05</totfact>
</mgrwt>
<clustering>
<clus scale="   36.411">  1  6  2 -1</clus>
<clus scale="  485.082">  4  5 -1 -1</clus>
<clus scale="  300.000">  1  4  2 -1</clus>
</clustering>
</event>
<event>
 6    1  0.9131597E-012  0.3000000E+03  0.7818608E-02  0.1093470E+00
          1   -1    0    0  502    0  0.00000000000E+00  0.00000000000E+00  0.24346904326E+03  0.24346904326E+03  0.00000000000E+00 0.  1.
         13   -1    0    0    0    0 -0.00000000000E+00 -0.00000000000E+00 -0.27500000000E+03  0.27500000000E+03  0.00000000000E+00 0.  1.
    9000005    2    1    2  501    0 -0.29273655558E+02 -0.10536421827E+02 -0.27138032230E+02  0.48704833543E+03  0.48529542050E+03 0.  0.
         13    1    3    3    0    0 -0.22286355726E+03  0.11915075036E+03 -0.24265177361E+01  0.25272703546E+03  0.00000000000E+00 0.  1.
          1    1    3    3  501    0  0.19358990170E+03 -0.12968717218E+03 -0.24711514494E+02  0.23432129997E+03  0.00000000000E+00 0.  1.
         21    1    1    2  502  501  0.29273655558E+02  0.10536421827E+02 -0.43929245079E+01  0.31420707828E+02  0.00000000000E+00 0. -1.
<scales pt_clust_4="550.00000" pt_clust_5="550.00000" pt_clust_6="31.11212"></scales>
<mgrwt>
<rscale>  0 0.30000000E+03</rscale>
<asrwt>  1 0.31112121E+02</asrwt>
<pdfrwt beam="1">  1        1 0.88534198E+00 0.30000000E+03</pdfrwt>
<pdfrwt beam="2">0</pdfrwt>
<totfact> 0.17166453E-04</totfact>
</mgrwt>
<clustering>
<clus scale="   31.112">  1  6  2 -1</clus>
<clus scale="  485.295">  4  5 -1 -1</clus>
<clus scale="  300.000">  1  4  2 -1</clus>
</clustering>
</event>
<event>
 6    1  0.9131597E-012  0.3000000E+03  0.7818608E-02  0.1093470E+00
          1   -1    0    0  502    0  0.00000000000E+00  0.00000000000E+00  0.23134273145E+03  0.23134273145E+03  0.00000000000E+00 0.  1.
         13   -1    0    0    0    0 -0.00000000000E+00 -0.00000000000E+00 -0.27500000000E+03  0.27500000000E+03  0.00000000000E+00 0.  1.
    9000005    2    1    2  501    0  0.21760882520E+02  0.23824963313E+02 -0.66826082791E+02  0.46661920142E+03  0.46068057144E+03 0.  0.
         13    1    3    3    0    0 -0.18520538202E+03 -0.10889338010E+03 -0.47224465369E+02  0.21997488922E+03  0.00000000000E+00 0.  1.
          1    1    3    3  501    0  0.20696626454E+03  0.13271834341E+03 -0.19601617422E+02  0.24664431220E+03  0.00000000000E+00 0.  1.
         21    1    1    2  502  501 -0.21760882520E+02 -0.23824963313E+02  0.23168814245E+02  0.39723530035E+02  0.00000000000E+00 0. -1.
<scales pt_clust_4="550.00000" pt_clust_5="550.00000" pt_clust_6="32.26709"></scales>
<mgrwt>
<rscale>  0 0.30000000E+03</rscale>
<asrwt>  1 0.32267087E+02</asrwt>
<pdfrwt beam="1">  1        1 0.84124630E+00 0.30000000E+03</pdfrwt>
<pdfrwt beam="2">0</pdfrwt>
<totfact> 0.49349206E-04</totfact>
</mgrwt>
<clustering>
<clus scale="   32.267">  1  6  2 -1</clus>
<clus scale="  460.681">  4  5 -1 -1</clus>
<clus scale="  300.000">  1  4  2 -1</clus>
</clustering>
</event>
<event>
 6    1  0.9131597E-012  0.3000000E+03  0.7818608E-02  0.1093470E+00
          1   -1    0    0  502    0  0.00000000000E+00  0.00000000000E+00  0.24759748016E+03  0.24759748016E+03  0.00000000000E+00 0.  1.
         13   -1    0    0    0    0 -0.00000000000E+00 -0.00000000000E+00 -0.27500000000E+03  0.27500000000E+03  0.00000000000E+00 0.  1.
    9000005    2    1    2  501    0  0.17241839937E+02  0.29870642305E+02 -0.26788476997E+02  0.48810235928E+03  0.48614478740E+03 0.  0.
         13    1    3    3    0    0 -0.85751627734E+02 -0.19813284119E+03  0.58669583745E+02  0.22372323186E+03  0.00000000000E+00 0.  1.
          1    1    3    3  501    0  0.10299346767E+03  0.22800348350E+03 -0.85458060741E+02  0.26437912742E+03  0.00000000000E+00 0.  1.
         21    1    1    2  502  501 -0.17241839937E+02 -0.29870642305E+02 -0.61404284133E+00  0.34495120883E+02  0.00000000000E+00 0.  1.
<scales pt_clust_4="550.00000" pt_clust_5="550.00000" pt_clust_6="34.48966"></scales>
<mgrwt>
<rscale>  0 0.30000000E+03</rscale>
<asrwt>  1 0.34489655E+02</asrwt>
<pdfrwt beam="1">  1        1 0.90035447E+00 0.30000000E+03</pdfrwt>
<pdfrwt beam="2">0</pdfrwt>
<totfact> 0.10960490E-04</totfact>
</mgrwt>
<clustering>
<clus scale="   34.490">  1  6  2 -1</clus>
<clus scale="  486.145">  4  5 -1 -1</clus>
<clus scale="  300.000">  1  4  2 -1</clus>
</clustering>
</event>
<event>
 6    1  0.9131597E-012  0.3000000E+03  0.7818608E-02  0.1093470E+00
          1   -1    0    0  502    0  0.00000000000E+00  0.00000000000E+00  0.23638348298E+03  0.23638348298E+03  0.00000000000E+00 0.  1.
         13   -1    0    0    0    0 -0.00000000000E+00 -0.00000000000E+00 -0.27500000000E+03  0.27500000000E+03  0.00000000000E+00 0.  1.
    9000005    2    1    2  501    0 -0.36141919440E+02 -0.10243106493E+02 -0.49691293886E+02  0.47221959331E+03  0.46809289681E+03 0.  0.
         13    1    3    3    0    0  0.65106122408E+02  0.20734068867E+03 -0.77275535439E+02  0.23065228534E+03  0.00000000000E+00 0.  1.
          3    1    3    3  501    0 -0.10124804185E+03 -0.21758379517E+03  0.27584241553E+02  0.24156730797E+03  0.00000000000E+00 0.  1.
         21    1    1    2  502  501  0.36141919440E+02  0.10243106493E+02  0.11074776865E+02  0.39163889670E+02  0.00000000000E+00 0. -1.
<scales pt_clust_4="550.00000" pt_clust_5="550.00000" pt_clust_6="37.56540"></scales>
<mgrwt>
<rscale>  0 0.30000000E+03</rscale>
<asrwt>  1 0.37565404E+02</asrwt>
<pdfrwt beam="1">  1        1 0.85957630E+00 0.30000000E+03</pdfrwt>
<pdfrwt beam="2">0</pdfrwt>
<totfact> 0.32257254E-04</totfact>
</mgrwt>
<clustering>
<clus scale="   37.565">  1  6  2 -1</clus>
<clus scale="  468.093">  4  5 -1 -1</clus>
<clus scale="  300.000">  1  4  2 -1</clus>
</clustering>
</event>
<event>
 6    1  0.9131597E-012  0.3000000E+03  0.7818608E-02  0.1093470E+00
          1   -1    0    0  502    0  0.00000000000E+00  0.00000000000E+00  0.26620219701E+03  0.26620219701E+03  0.00000000000E+00 0.  1.
         13   -1    0    0    0    0 -0.00000000000E+00 -0.00000000000E+00 -0.27500000000E+03  0.27500000000E+03  0.00000000000E+00 0.  1.
    9000005    2    1    2  501    0 -0.37191157945E+02  0.21059948351E+02 -0.41199394867E+02  0.48756856195E+03  0.48394112122E+03 0.  0.
         13    1    3    3    0    0 -0.47104760950E+02 -0.15067690692E+03 -0.19908013637E+03  0.25407732973E+03  0.00000000000E+00 0.  1.
          1    1    3    3  501    0  0.99136030043E+01  0.17173685527E+03  0.15788074151E+03  0.23349123222E+03  0.00000000000E+00 0.  1.
         21    1    1    2  502  501  0.37191157945E+02 -0.21059948351E+02  0.32401591872E+02  0.53633635060E+02  0.00000000000E+00 0. -1.
<scales pt_clust_4="550.00000" pt_clust_5="550.00000" pt_clust_6="42.73995"></scales>
<mgrwt>
<rscale>  0 0.30000000E+03</rscale>
<asrwt>  1 0.42739954E+02</asrwt>
<pdfrwt beam="1">  1        1 0.96800799E+00 0.30000000E+03</pdfrwt>
<pdfrwt beam="2">0</pdfrwt>
<totfact> 0.51084616E-06</totfact>
</mgrwt>
<clustering>
<clus scale="   42.740">  1  6  2 -1</clus>
<clus scale="  483.941">  4  5 -1 -1</clus>
<clus scale="  300.000">  1  4  2 -1</clus>
</clustering>
</event>
<event>
 6    1  0.9131597E-012  0.3000000E+03  0.7818608E-02  0.1093470E+00
          1   -1    0    0  502    0  0.00000000000E+00  0.00000000000E+00  0.24057848463E+03  0.24057848463E+03  0.00000000000E+00 0.  1.
         13   -1    0    0    0    0 -0.00000000000E+00 -0.00000000000E+00 -0.27500000000E+03  0.27500000000E+03  0.00000000000E+00 0.  1.
    9000005    2    1    2  501    0 -0.22384988178E+01  0.31204576210E+02 -0.51293096677E+02  0.48003433308E+03  0.47625963793E+03 0.  0.
         13    1    3    3    0    0  0.65127229830E+02  0.24330480937E+03 -0.96207303400E+00  0.25187241197E+03  0.00000000000E+00 0.  1.
          1    1    3    3  501    0 -0.67365728648E+02 -0.21210023316E+03 -0.50331023643E+02  0.22816192111E+03  0.00000000000E+00 0.  1.
         21    1    1    2  502  501  0.22384988178E+01 -0.31204576210E+02  0.16871581308E+02  0.35544151547E+02  0.00000000000E+00 0.  1.
<scales pt_clust_4="550.00000" pt_clust_5="550.00000" pt_clust_6="31.28476"></scales>
<mgrwt>
<rscale>  0 0.30000000E+03</rscale>
<asrwt>  1 0.31284764E+02</asrwt>
<pdfrwt beam="1">  1        1 0.87483085E+00 0.30000000E+03</pdfrwt>
<pdfrwt beam="2">0</pdfrwt>
<totfact> 0.23069580E-04</totfact>
</mgrwt>
<clustering>
<clus scale="   31.285">  1  6  2 -1</clus>
<clus scale="  476.260">  4  5 -1 -1</clus>
<clus scale="  300.000">  1  4  2 -1</clus>
</clustering>
</event>
<event>
 6    1  0.9131597E-012  0.3000000E+03  0.7818608E-02  0.1093470E+00
          1   -1    0    0  502    0  0.00000000000E+00  0.00000000000E+00  0.21909148628E+03  0.21909148628E+03  0.00000000000E+00 0.  1.
         13   -1    0    0    0    0 -0.00000000000E+00 -0.00000000000E+00 -0.27500000000E+03  0.27500000000E+03  0.00000000000E+00 0.  1.
    9000005    2    1    2  501    0 -0.29963880278E+02 -0.17915658478E+01 -0.57612528449E+02  0.46402576667E+03  0.45945583560E+03 0.  0.
         13    1    3    3    0    0 -0.14444333257E+03 -0.39487863170E+02  0.15757888204E+03  0.21738047687E+03  0.00000000000E+00 0.  1.
          3    1    3    3  501    0  0.11447945229E+03  0.37696297323E+02 -0.21519141049E+03  0.24664528979E+03  0.00000000000E+00 0.  1.
         21    1    1    2  502  501  0.29963880278E+02  0.17915658478E+01  0.17040147247E+01  0.30065719610E+02  0.00000000000E+00 0.  1.
<scales pt_clust_4="550.00000" pt_clust_5="550.00000" pt_clust_6="30.01739"></scales>
<mgrwt>
<rscale>  0 0.30000000E+03</rscale>
<asrwt>  1 0.30017392E+02</asrwt>
<pdfrwt beam="1">  1        1 0.79669631E+00 0.30000000E+03</pdfrwt>
<pdfrwt beam="2">0</pdfrwt>
<totfact> 0.11283617E-03</totfact>
</mgrwt>
<clustering>
<clus scale="   30.017">  1  6  2 -1</clus>
<clus scale="  459.456">  4  5 -1 -1</clus>
<clus scale="  300.000">  1  4  2 -1</clus>
</clustering>
</event>
<event>
 6    1  0.9131597E-012  0.3000000E+03  0.7818608E-02  0.1093470E+00
          1   -1    0    0  502    0  0.00000000000E+00  0.00000000000E+00  0.23561607312E+03  0.23561607312E+03  0.00000000000E+00 0.  1.
         13   -1    0    0    0    0 -0.00000000000E+00 -0.00000000000E+00 -0.27500000000E+03  0.27500000000E+03  0.00000000000E+00 0.  1.
    9000005    2    1    2  501    0 -0.16515505827E+02  0.30279960299E+02 -0.51158690649E+02  0.47417045623E+03  0.47013909857E+03 0.  0.
         13    1    3    3    0    0 -0.79338008609E+02  0.22764604554E+03 -0.10060767796E+03  0.26122623629E+03  0.00000000000E+00 0.  1.
          3    1    3    3  501    0  0.62822502783E+02 -0.19736608524E+03  0.49448987311E+02  0.21294421994E+03  0.00000000000E+00 0.  1.
         21    1    1    2  502  501  0.16515505827E+02 -0.30279960299E+02  0.11774763764E+02  0.36445616885E+02  0.00000000000E+00 0. -1.
<scales pt_clust_4="550.00000" pt_clust_5="550.00000" pt_clust_6="34.49113"></scales>
<mgrwt>
<rscale>  0 0.30000000E+03</rscale>
<asrwt>  1 0.34491128E+02</asrwt>
<pdfrwt beam="1">  1        1 0.85678572E+00 0.30000000E+03</pdfrwt>
<pdfrwt beam="2">0</pdfrwt>
<totfact> 0.35049946E-04</totfact>
</mgrwt>
<clustering>
<clus scale="   34.491">  1  6  2 -1</clus>
<clus scale="  470.139">  4  5 -1 -1</clus>
<clus scale="  300.000">  1  4  2 -1</clus>
</clustering>
</event>
<event>
 6    1  0.9131597E-012  0.3000000E+03  0.7818608E-02  0.1093470E+00
          1   -1    0    0  502    0  0.00000000000E+00  0.00000000000E+00  0.24420887121E+03  0.24420887121E+03  0.00000000000E+00 0.  1.
         13   -1    0    0    0    0 -0.00000000000E+00 -0.00000000000E+00 -0.27500000000E+03  0.27500000000E+03  0.00000000000E+00 0.  1.
    9000005    2    1    2  501    0  0.10068258798E+02  0.36766029015E+02 -0.69111242781E+02  0.46515758204E+03  0.45841258875E+03 0.  0.
         13    1    3    3    0    0  0.80967059232E+02  0.49976793236E+02 -0.25157021902E+03  0.26896267332E+03  0.00000000000E+00 0.  1.
          1    1    3    3  501    0 -0.70898800434E+02 -0.13210764220E+02  0.18245897624E+03  0.19619490871E+03  0.00000000000E+00 0.  1.
         21    1    1    2  502  501 -0.10068258798E+02 -0.36766029015E+02  0.38320113987E+02  0.54051289168E+02  0.00000000000E+00 0.  1.
<scales pt_clust_4="550.00000" pt_clust_5="550.00000" pt_clust_6="38.11969"></scales>
<mgrwt>
<rscale>  0 0.30000000E+03</rscale>
<asrwt>  1 0.38119689E+02</asrwt>
<pdfrwt beam="1">  1        1 0.88803226E+00 0.30000000E+03</pdfrwt>
<pdfrwt beam="2">0</pdfrwt>
<totfact> 0.15171454E-04</totfact>
</mgrwt>
<clustering>
<clus scale="   38.120">  1  6  2 -1</clus>
<clus scale="  458.413">  4  5 -1 -1</clus>
<clus scale="  300.000">  1  4  2 -1</clus>
</clustering>
</event>
<event>
 6    1  0.9131597E-012  0.3000000E+03  0.7818608E-02  0.1093470E+00
          1   -1    0    0  502    0  0.00000000000E+00  0.00000000000E+00  0.23501686171E+03  0.23501686171E+03  0.00000000000E+00 0.  1.
         13   -1    0    0    0    0 -0.00000000000E+00 -0.00000000000E+00 -0.27500000000E+03  0.27500000000E+03  0.00000000000E+00 0.  1.
    9000005    2    1    2  501    0 -0.27119941246E+02 -0.24340408662E+02 -0.66037225493E+02  0.46521996263E+03  0.45906508446E+03 0.  0.
         13    1    3    3    0    0 -0.12668451657E+03 -0.20255416522E+03 -0.98681001344E+02  0.25848616329E+03  0.00000000000E+00 0.  1.
          1    1    3    3  501    0  0.99564575325E+02  0.17821375656E+03  0.32643775852E+02  0.20673379934E+03  0.00000000000E+00 0.  1.
         21    1    1    2  502  501  0.27119941246E+02  0.24340408662E+02  0.26054087201E+02  0.44796899077E+02  0.00000000000E+00 0.  1.
<scales pt_clust_4="550.00000" pt_clust_5="550.00000" pt_clust_6="36.44100"></scales>
<mgrwt>
<rscale>  0 0.30000000E+03</rscale>
<asrwt>  1 0.36441003E+02</asrwt>
<pdfrwt beam="1">  1        1 0.85460677E+00 0.30000000E+03</pdfrwt>
<pdfrwt beam="2">0</pdfrwt>
<totfact> 0.36485555E-04</totfact>
</mgrwt>
<clustering>
<clus scale="   36.441">  1  6  2 -1</clus>
<clus scale="  459.065">  4  5 -1 -1</clus>
<clus scale="  300.000">  1  4  2 -1</clus>
</clustering>
</event>
<event>
 6    1  0.9131597E-012  0.3000000E+03  0.7818608E-02  0.1093470E+00
          1   -1    0    0  502    0  0.00000000000E+00  0.00000000000E+00  0.22117073939E+03  0.22117073939E+03  0.00000000000E+00 0.  1.
         13   -1    0    0    0    0 -0.00000000000E+00 -0.00000000000E+00 -0.27500000000E+03  0.27500000000E+03  0.00000000000E+00 0.  1.
    9000005    2    1    2  501    0 -0.20800186090E+02 -0.27490071195E+02 -0.49106176986E+02  0.46137621001E+03  0.45745845581E+03 0.  0.
         13    1    3    3    0    0 -0.21446253977E+03  0.86293669210E+01 -0.12715878111E+03  0.24947545481E+03  0.00000000000E+00 0.  1.
          3    1    3    3  501    0  0.19366235368E+03 -0.36119438116E+02  0.78052604126E+02  0.21190075520E+03  0.00000000000E+00 0.  1.
         21    1    1    2  502  501  0.20800186090E+02  0.27490071195E+02 -0.47230836240E+01  0.34794529378E+02  0.00000000000E+00 0.  1.
<scales pt_clust_4="550.00000" pt_clust_5="550.00000" pt_clust_6="34.47250"></scales>
<mgrwt>
<rscale>  0 0.30000000E+03</rscale>
<asrwt>  1 0.34472495E+02</asrwt>
<pdfrwt beam="1">  1        1 0.80425723E+00 0.30000000E+03</pdfrwt>
<pdfrwt beam="2">0</pdfrwt>
<totfact> 0.96803083E-04</totfact>
</mgrwt>
<clustering>
<clus scale="   34.472">  1  6  2 -1</clus>
<clus scale="  457.458">  4  5 -1 -1</clus>
<clus scale="  300.000">  1  4  2 -1</clus>
</clustering>
</event>
<event>
 6    1  0.9131597E-012  0.3000000E+03  0.7818608E-02  0.1093470E+00
          1   -1    0    0  502    0  0.00000000000E+00  0.00000000000E+00  0.24095368913E+03  0.24095368913E+03  0.00000000000E+00 0.  1.
         13   -1    0    0    0    0 -0.00000000000E+00 -0.00000000000E+00 -0.27500000000E+03  0.27500000000E+03  0.00000000000E+00 0.  1.
    9000005    2    1    2  501    0 -0.36115632714E+02 -0.24088785529E+02 -0.27823450373E+02  0.47209787415E+03  0.46927353417E+03 0.  0.
         13    1    3    3    0    0 -0.12729108044E+03 -0.95466539692E+01 -0.22256837036E+03  0.25657520778E+03  0.00000000000E+00 0.  1.
          1    1    3    3  501    0  0.91175447723E+02 -0.14542131560E+02  0.19474491999E+03  0.21552266637E+03  0.00000000000E+00 0.  1.
         21    1    1    2  502  501  0.36115632714E+02  0.24088785529E+02 -0.62228605001E+01  0.43855814978E+02  0.00000000000E+00 0. -1.
<scales pt_clust_4="550.00000" pt_clust_5="550.00000" pt_clust_6="43.41210"></scales>
<mgrwt>
<rscale>  0 0.30000000E+03</rscale>
<asrwt>  1 0.43412100E+02</asrwt>
<pdfrwt beam="1">  1        1 0.87619523E+00 0.30000000E+03</pdfrwt>
<pdfrwt beam="2">0</pdfrwt>
<totfact> 0.20993390E-04</totfact>
</mgrwt>
<clustering>
<clus scale="   43.412">  1  6  2 -1</clus>
<clus scale="  469.274">  4  5 -1 -1</clus>
<clus scale="  300.000">  1  4  2 -1</clus>
</clustering>
</event>
<event>
 6    1  0.9131597E-012  0.3000000E+03  0.7818608E-02  0.1093470E+00
          1   -1    0    0  502    0  0.00000000000E+00  0.00000000000E+00  0.22474559168E+03  0.22474559168E+03  0.00000000000E+00 0.  1.
         13   -1    0    0    0    0 -0.00000000000E+00 -0.00000000000E+00 -0.27500000000E+03  0.27500000000E+03  0.00000000000E+00 0.  1.
    9000005    2    1    2  501    0 -0.23021106434E+02 -0.22295022359E+02 -0.42033641515E+02  0.46666054415E+03  0.46365741349E+03 0.  0.
         13    1    3    3    0    0 -0.16671948599E+03 -0.17519456968E+03 -0.77285038833E+02  0.25389269679E+03  0.00000000000E+00 0.  1.
          1    1    3    3  501    0  0.14369837956E+03  0.15289954732E+03  0.35251397318E+02  0.21276784736E+03  0.00000000000E+00 0.  1.
         21    1    1    2  502  501  0.23021106434E+02  0.22295022359E+02 -0.82207668002E+01  0.33085047533E+02  0.00000000000E+00 0. -1.
<scales pt_clust_4="550.00000" pt_clust_5="550.00000" pt_clust_6="32.04747"></scales>
<mgrwt>
<rscale>  0 0.30000000E+03</rscale>
<asrwt>  1 0.32047471E+02</asrwt>
<pdfrwt beam="1">  1        1 0.81725670E+00 0.30000000E+03</pdfrwt>
<pdfrwt beam="2">0</pdfrwt>
<totfact> 0.77575876E-04</totfact>
</mgrwt>
<clustering>
<clus scale="   32.047">  1  6  2 -1</clus>
<clus scale="  463.657">  4  5 -1 -1</clus>
<clus scale="  300.000">  1  4  2 -1</clus>
</clustering>
</event>
<event>
 6    1  0.9131597E-012  0.3000000E+03  0.7818608E-02  0.1093470E+00
          1   -1    0    0  502    0  0.00000000000E+00  0.00000000000E+00  0.24240185884E+03  0.24240185884E+03  0.00000000000E+00 0.  1.
         13   -1    0    0    0    0 -0.00000000000E+00 -0.00000000000E+00 -0.27500000000E+03  0.27500000000E+03  0.00000000000E+00 0.  1.
    9000005    2    1    2  501    0  0.44755811330E+02 -0.52249202817E+01 -0.60966633627E+02  0.46415569649E+03  0.45792269842E+03 0.  0.
         13    1    3    3    0    0  0.29605579072E+02 -0.22238068702E+03  0.33551403724E+02  0.22683773267E+03  0.00000000000E+00 0.  1.
          1    1    3    3  501    0  0.15150232258E+02  0.21715576674E+03 -0.94518037352E+02  0.23731796382E+03  0.00000000000E+00 0.  1.
         21    1    1    2  502  501 -0.44755811330E+02  0.52249202817E+01  0.28368492466E+02  0.53246162345E+02  0.00000000000E+00 0. -1.
<scales pt_clust_4="550.00000" pt_clust_5="550.00000" pt_clust_6="45.05977"></scales>
<mgrwt>
<rscale>  0 0.30000000E+03</rscale>
<asrwt>  1 0.45059765E+02</asrwt>
<pdfrwt beam="1">  1        1 0.88146130E+00 0.30000000E+03</pdfrwt>
<pdfrwt beam="2">0</pdfrwt>
<totfact> 0.18065020E-04</totfact>
</mgrwt>
<clustering>
<clus scale="   45.060">  1  6  2 -1</clus>
<clus scale="  457.923">  4  5 -1 -1</clus>
<clus scale="  300.000">  1  4  2 -1</clus>
</clustering>
</event>
<event>
 6    1  0.9131597E-012  0.3000000E+03  0.7818608E-02  0.1093470E+00
          1   -1    0    0  502    0  0.00000000000E+00  0.00000000000E+00  0.23057975755E+03  0.23057975755E+03  0.00000000000E+00 0.  1.
         13   -1    0    0    0    0 -0.00000000000E+00 -0.00000000000E+00 -0.27500000000E+03  0.27500000000E+03  0.00000000000E+00 0.  1.
    9000005    2    1    2  501    0 -0.47392456338E+01  0.33978449725E+02 -0.63829997549E+02  0.46616232374E+03  0.46049543754E+03 0.  0.
         13    1    3    3    0    0 -0.10629856000E+02  0.54755436054E+02 -0.26146634037E+03  0.26734958156E+03  0.00000000000E+00 0.  1.
          3    1    3    3  501    0  0.58906103662E+01 -0.20776986329E+02  0.19763634282E+03  0.19881274218E+03  0.00000000000E+00 0.  1.
         21    1    1    2  502  501  0.47392456338E+01 -0.33978449725E+02  0.19409755098E+02  0.39417433806E+02  0.00000000000E+00 0.  1.
<scales pt_clust_4="550.00000" pt_clust_5="550.00000" pt_clust_6="34.30737"></scales>
<mgrwt>
<rscale>  0 0.30000000E+03</rscale>
<asrwt>  1 0.34307368E+02</asrwt>
<pdfrwt beam="1">  1        1 0.83847185E+00 0.30000000E+03</pdfrwt>
<pdfrwt beam="2">0</pdfrwt>
<totfact> 0.51228580E-04</totfact>
</mgrwt>
<clustering>
<clus scale="   34.307">  1  6  2 -1</clus>
<clus scale="  460.495">  4  5 -1 -1</clus>
<clus scale="  300.000">  1  4  2 -1</clus>
</clustering>
</event>
<event>
 6    1  0.9131597E-012  0.3000000E+03  0.7818608E-02  0.1093470E+00
          1   -1    0    0  502    0  0.00000000000E+00  0.00000000000E+00  0.23616209259E+03  0.23616209259E+03  0.00000000000E+00 0.  1.
         13   -1    0    0    0    0 -0.00000000000E+00 -0.00000000000E+00 -0.27500000000E+03  0.27500000000E+03  0.00000000000E+00 0.  1.
    9000005    2    1    2  501    0 -0.18019179200E+02  0.43413449715E+02 -0.49449965736E+02  0.46297460233E+03  0.45792004199E+03 0.  0.
         13    1    3    3    0    0  0.18131817663E+03  0.14796179134E+03 -0.41959577775E+02  0.23775949832E+03  0.00000000000E+00 0.  1.
          1    1    3    3  501    0 -0.19933735583E+03 -0.10454834163E+03 -0.74903879620E+01  0.22521510402E+03  0.00000000000E+00 0.  1.
         21    1    1    2  502  501  0.18019179200E+02 -0.43413449715E+02  0.10612058323E+02  0.48187490255E+02  0.00000000000E+00 0.  1.
<scales pt_clust_4="550.00000" pt_clust_5="550.00000" pt_clust_6="47.00445"></scales>
<mgrwt>
<rscale>  0 0.30000000E+03</rscale>
<asrwt>  1 0.47004451E+02</asrwt>
<pdfrwt beam="1">  1        1 0.85877125E+00 0.30000000E+03</pdfrwt>
<pdfrwt beam="2">0</pdfrwt>
<totfact> 0.31589090E-04</totfact>
</mgrwt>
<clustering>
<clus scale="   47.004">  1  6  2 -1</clus>
<clus scale="  457.920">  4  5 -1 -1</clus>
<clus scale="  300.000">  1  4  2 -1</clus>
</clustering>
</event>
<event>
 6    1  0.9131597E-012  0.3000000E+03  0.7818608E-02  0.1093470E+00
          1   -1    0    0  502    0  0.00000000000E+00  0.00000000000E+00  0.22056908275E+03  0.22056908275E+03  0.00000000000E+00 0.  1.
         13   -1    0    0    0    0 -0.00000000000E+00 -0.00000000000E+00 -0.27500000000E+03  0.27500000000E+03  0.00000000000E+00 0.  1.
    9000005    2    1    2  501    0  0.21092070631E+02 -0.25873270834E+02 -0.53843363953E+02  0.46218275611E+03  0.45782036938E+03 0.  0.
         13    1    3    3    0    0  0.85041031053E+02  0.18383483643E+03  0.65097654714E+02  0.21275556090E+03  0.00000000000E+00 0.  1.
          1    1    3    3  501    0 -0.63948960422E+02 -0.20970810726E+03 -0.11894101867E+03  0.24942719521E+03  0.00000000000E+00 0.  1.
         21    1    1    2  502  501 -0.21092070631E+02  0.25873270834E+02 -0.58755329963E+00  0.33386326633E+02  0.00000000000E+00 0.  1.
<scales pt_clust_4="550.00000" pt_clust_5="550.00000" pt_clust_6="33.38116"></scales>
<mgrwt>
<rscale>  0 0.30000000E+03</rscale>
<asrwt>  1 0.33381156E+02</asrwt>
<pdfrwt beam="1">  1        1 0.80206939E+00 0.30000000E+03</pdfrwt>
<pdfrwt beam="2">0</pdfrwt>
<totfact> 0.10107520E-03</totfact>
</mgrwt>
<clustering>
<clus scale="   33.381">  1  6  2 -1</clus>
<clus scale="  457.820">  4  5 -1 -1</clus>
<clus scale="  300.000">  1  4  2 -1</clus>
</clustering>
</event>
<event>
 6    1  0.9131597E-012  0.3000000E+03  0.7818608E-02  0.1093470E+00
          1   -1    0    0  502    0  0.00000000000E+00  0.00000000000E+00  0.24742388405E+03  0.24742388405E+03  0.00000000000E+00 0.  1.
         13   -1    0    0    0    0 -0.00000000000E+00 -0.00000000000E+00 -0.27500000000E+03  0.27500000000E+03  0.00000000000E+00 0.  1.
    9000005    2    1    2  501    0 -0.45813958808E+02  0.15144641040E+02 -0.30945129883E+02  0.47405417009E+03  0.47057568588E+03 0.  0.
         13    1    3    3    0    0  0.90166033816E+02 -0.19788643316E+03 -0.40242809553E+02  0.22115252159E+03  0.00000000000E+00 0.  1.
          1    1    3    3  501    0 -0.13597999262E+03  0.21303107420E+03  0.92976796707E+01  0.25290164850E+03  0.00000000000E+00 0.  1.
         21    1    1    2  502  501  0.45813958808E+02 -0.15144641040E+02  0.33690139343E+01  0.48369713962E+02  0.00000000000E+00 0. -1.
<scales pt_clust_4="550.00000" pt_clust_5="550.00000" pt_clust_6="48.25224"></scales>
<mgrwt>
<rscale>  0 0.30000000E+03</rscale>
<asrwt>  1 0.48252243E+02</asrwt>
<pdfrwt beam="1">  1        1 0.89972321E+00 0.30000000E+03</pdfrwt>
<pdfrwt beam="2">0</pdfrwt>
<totfact> 0.10501516E-04</totfact>
</mgrwt>
<clustering>
<clus scale="   48.252">  1  6  2 -1</clus>
<clus scale="  470.576">  4  5 -1 -1</clus>
<clus scale="  300.000">  1  4  2 -1</clus>
</clustering>
</event>
<event>
 6    1  0.9131597E-012  0.3000000E+03  0.7818608E-02  0.1093470E+00
          1   -1    0    0  502    0  0.00000000000E+00  0.00000000000E+00  0.23399396445E+03  0.23399396445E+03  0.00000000000E+00 0.  1.
         13   -1    0    0    0    0 -0.00000000000E+00 -0.00000000000E+00 -0.27500000000E+03  0.27500000000E+03  0.00000000000E+00 0.  1.
    9000005    2    1    2  501    0  0.30845987093E+02  0.67480267825E+01 -0.68547692582E+01  0.46248246292E+03  0.46135239228E+03 0.  0.
         13    1    3    3    0    0  0.28431302295E+02 -0.20314932250E+03  0.98571540509E+02  0.22758368742E+03  0.00000000000E+00 0.  1.
          1    1    3    3  501    0  0.24146847985E+01  0.20989734928E+03 -0.10542630977E+03  0.23489877550E+03  0.00000000000E+00 0.  1.
         21    1    1    2  502  501 -0.30845987093E+02 -0.67480267825E+01 -0.34151266291E+02  0.46511501529E+02  0.00000000000E+00 0.  1.
<scales pt_clust_4="550.00000" pt_clust_5="550.00000" pt_clust_6="31.57549"></scales>
<mgrwt>
<rscale>  0 0.30000000E+03</rscale>
<asrwt>  1 0.31575493E+02</asrwt>
<pdfrwt beam="1">  1        1 0.85088714E+00 0.30000000E+03</pdfrwt>
<pdfrwt beam="2">0</pdfrwt>
<totfact> 0.40706114E-04</totfact>
</mgrwt>
<clustering>
<clus scale="   31.575">  1  6  2 -1</clus>
<clus scale="  461.352">  4  5 -1 -1</clus>
<clus scale="  300.000">  1  4  2 -1</clus>
</clustering>
</event>
<event>
 6    1  0.9131597E-012  0.3000000E+03  0.7818608E-02  0.1093470E+00
          1   -1    0    0  502    0  0.00000000000E+00  0.00000000000E+00  0.24055277560E+03  0.24055277560E+03  0.00000000000E+00 0.  1.
         13   -1    0    0    0    0 -0.00000000000E+00 -0.00000000000E+00 -0.27500000000E+03  0.27500000000E+03  0.00000000000E+00 0.  1.
    9000005    2    1    2  501    0  0.16518552699E+02 -0.29133517530E+02 -0.50436733911E+02  0.47844093327E+03  0.47459481463E+03 0.  0.
         13    1    3    3    0    0 -0.12708978357E+03 -0.17045628839E+03 -0.14348925493E+03  0.25650794456E+03  0.00000000000E+00 0.  1.
          3    1    3    3  501    0  0.14360833627E+03  0.14132277086E+03  0.93052521021E+02  0.22193298871E+03  0.00000000000E+00 0.  1.
         21    1    1    2  502  501 -0.16518552699E+02  0.29133517530E+02  0.15989509513E+02  0.37111842334E+02  0.00000000000E+00 0.  1.
<scales pt_clust_4="550.00000" pt_clust_5="550.00000" pt_clust_6="33.49066"></scales>
<mgrwt>
<rscale>  0 0.30000000E+03</rscale>
<asrwt>  1 0.33490662E+02</asrwt>
<pdfrwt beam="1">  1        1 0.87473737E+00 0.30000000E+03</pdfrwt>
<pdfrwt beam="2">0</pdfrwt>
<totfact> 0.22824912E-04</totfact>
</mgrwt>
<clustering>
<clus scale="   33.491">  1  6  2 -1</clus>
<clus scale="  474.595">  4  5 -1 -1</clus>
<clus scale="  300.000">  1  4  2 -1</clus>
</clustering>
</event>
<event>
 6    1  0.9131597E-012  0.3000000E+03  0.7818608E-02  0.1093470E+00
          1   -1    0    0  502    0  0.00000000000E+00  0.00000000000E+00  0.24041349189E+03  0.24041349189E+03  0.00000000000E+00 0.  1.
         13   -1    0    0    0    0 -0.00000000000E+00 -0.00000000000E+00 -0.27500000000E+03  0.27500000000E+03  0.00000000000E+00 0.  1.
    9000005    2    1    2  501    0 -0.34090074975E+02 -0.12104171435E+01 -0.62409097568E+02  0.47139423695E+03  0.46599788932E+03 0.  0.
         13    1    3    3    0    0  0.92318614336E+02 -0.18842490178E+03 -0.11526147344E+03  0.23939899211E+03  0.00000000000E+00 0.  1.
          1    1    3    3  501    0 -0.12640868931E+03  0.18721448464E+03  0.52852375873E+02  0.23199524484E+03  0.00000000000E+00 0.  1.
         21    1    1    2  502  501  0.34090074975E+02  0.12104171435E+01  0.27822589459E+02  0.44019254942E+02  0.00000000000E+00 0.  1.
<scales pt_clust_4="550.00000" pt_clust_5="550.00000" pt_clust_6="34.11156"></scales>
<mgrwt>
<rscale>  0 0.30000000E+03</rscale>
<asrwt>  1 0.34111557E+02</asrwt>
<pdfrwt beam="1">  1        1 0.87423088E+00 0.30000000E+03</pdfrwt>
<pdfrwt beam="2">0</pdfrwt>
<totfact> 0.23025966E-04</totfact>
</mgrwt>
<clustering>
<clus scale="   34.112">  1  6  2 -1</clus>
<clus scale="  465.998">  4  5 -1 -1</clus>
<clus scale="  300.000">  1  4  2 -1</clus>
</clustering>
</event>
<event>
 6    1  0.9131597E-012  0.3000000E+03  0.7818608E-02  0.1093470E+00
          1   -1    0    0  502    0  0.00000000000E+00  0.00000000000E+00  0.23571337752E+03  0.23571337752E+03  0.00000000000E+00 0.  1.
         13   -1    0    0    0    0 -0.00000000000E+00 -0.00000000000E+00 -0.27500000000E+03  0.27500000000E+03  0.00000000000E+00 0.  1.
    9000005    2    1    2  501    0 -0.11429779242E+02 -0.39867579896E+02 -0.36530456840E+02  0.46914824514E+03  0.46588146332E+03 0.  0.
         13    1    3    3    0    0  0.20158447975E+03 -0.12546480909E+03 -0.31534336949E+02  0.23952481125E+03  0.00000000000E+00 0.  1.
          1    1    3    3  501    0 -0.21301425899E+03  0.85597229197E+02 -0.49961198907E+01  0.22962343389E+03  0.00000000000E+00 0.  1.
         21    1    1    2  502  501  0.11429779242E+02  0.39867579896E+02 -0.27561656447E+01  0.41565132375E+02  0.00000000000E+00 0. -1.
<scales pt_clust_4="550.00000" pt_clust_5="550.00000" pt_clust_6="41.47365"></scales>
<mgrwt>
<rscale>  0 0.30000000E+03</rscale>
<asrwt>  1 0.41473652E+02</asrwt>
<pdfrwt beam="1">  1        1 0.85713955E+00 0.30000000E+03</pdfrwt>
<pdfrwt beam="2">0</pdfrwt>
<totfact> 0.33596180E-04</totfact>
</mgrwt>
<clustering>
<clus scale="   41.474">  1  6  2 -1</clus>
<clus scale="  465.881">  4  5 -1 -1</clus>
<clus scale="  300.000">  1  4  2 -1</clus>
</clustering>
</event>
<event>
 6    1  0.9131597E-012  0.3000000E+03  0.7818608E-02  0.1093470E+00
          1   -1    0    0  502    0  0.00000000000E+00  0.00000000000E+00  0.22022562393E+03  0.22022562393E+03  0.00000000000E+00 0.  1.
         13   -1    0    0    0    0 -0.00000000000E+00 -0.00000000000E+00 -0.27500000000E+03  0.27500000000E+03  0.00000000000E+00 0.  1.
    9000005    2    1    2  501    0  0.27345381205E+02 -0.21071833545E+02 -0.53588721063E+02  0.46068292832E+03  0.45625126562E+03 0.  0.
         13    1    3    3    0    0  0.16779020563E+03  0.87066110651E+02 -0.16534252849E+03  0.25114181742E+03  0.00000000000E+00 0.  1.
          3    1    3    3  501    0 -0.14044482443E+03 -0.10813794420E+03  0.11175380742E+03  0.20954111090E+03  0.00000000000E+00 0.  1.
         21    1    1    2  502  501 -0.27345381205E+02  0.21071833545E+02 -0.11856550091E+01  0.34542695610E+02  0.00000000000E+00 0. -1.
<scales pt_clust_4="550.00000" pt_clust_5="550.00000" pt_clust_6="34.52234"></scales>
<mgrwt>
<rscale>  0 0.30000000E+03</rscale>
<asrwt>  1 0.34522341E+02</asrwt>
<pdfrwt beam="1">  1        1 0.80082045E+00 0.30000000E+03</pdfrwt>
<pdfrwt beam="2">0</pdfrwt>
<totfact> 0.10255827E-03</totfact>
</mgrwt>
<clustering>
<clus scale="   34.522">  1  6  2 -1</clus>
<clus scale="  456.251">  4  5 -1 -1</clus>
<clus scale="  300.000">  1  4  2 -1</clus>
</clustering>
</event>
<event>
 6    1  0.9131597E-012  0.3000000E+03  0.7818608E-02  0.1093470E+00
          1   -1    0    0  502    0  0.00000000000E+00  0.00000000000E+00  0.22632533978E+03  0.22632533978E+03  0.00000000000E+00 0.  1.
         13   -1    0    0    0    0 -0.00000000000E+00 -0.00000000000E+00 -0.27500000000E+03  0.27500000000E+03  0.00000000000E+00 0.  1.
    9000005    2    1    2  501    0  0.24984874463E+02  0.21133033930E+02 -0.38410954820E+02  0.46702967352E+03  0.46429566596E+03 0.  0.
         13    1    3    3    0    0  0.12974363025E+03  0.20587628122E+03  0.26913410105E+02  0.24483215557E+03  0.00000000000E+00 0.  1.
          1    1    3    3  501    0 -0.10475875579E+03 -0.18474324729E+03 -0.65324364925E+02  0.22219751795E+03  0.00000000000E+00 0.  1.
         21    1    1    2  502  501 -0.24984874463E+02 -0.21133033930E+02 -0.10263705404E+02  0.34295666252E+02  0.00000000000E+00 0. -1.
<scales pt_clust_4="550.00000" pt_clust_5="550.00000" pt_clust_6="32.72385"></scales>
<mgrwt>
<rscale>  0 0.30000000E+03</rscale>
<asrwt>  1 0.32723847E+02</asrwt>
<pdfrwt beam="1">  1        1 0.82300124E+00 0.30000000E+03</pdfrwt>
<pdfrwt beam="2">0</pdfrwt>
<totfact> 0.68924681E-04</totfact>
</mgrwt>
<clustering>
<clus scale="   32.724">  1  6  2 -1</clus>
<clus scale="  464.296">  4  5 -1 -1</clus>
<clus scale="  300.000">  1  4  2 -1</clus>
</clustering>
</event>
<event>
 6    1  0.9131597E-012  0.3000000E+03  0.7818608E-02  0.1093470E+00
          1   -1    0    0  502    0  0.00000000000E+00  0.00000000000E+00  0.24701149749E+03  0.24701149749E+03  0.00000000000E+00 0.  1.
         13   -1    0    0    0    0 -0.00000000000E+00 -0.00000000000E+00 -0.27500000000E+03  0.27500000000E+03  0.00000000000E+00 0.  1.
    9000005    2    1    2  501    0 -0.16406215587E+02  0.36437946019E+02 -0.50874546259E+02  0.47596088600E+03  0.47154390859E+03 0.  0.
         13    1    3    3    0    0 -0.17389523482E+03  0.53046262697E+02  0.13889778062E+03  0.22879259634E+03  0.00000000000E+00 0.  1.
          1    1    3    3  501    0  0.15748901923E+03 -0.16608316678E+02 -0.18977232688E+03  0.24716828966E+03  0.00000000000E+00 0.  1.
         21    1    1    2  502  501  0.16406215587E+02 -0.36437946019E+02  0.22886043749E+02  0.46050611489E+02  0.00000000000E+00 0.  1.
<scales pt_clust_4="550.00000" pt_clust_5="550.00000" pt_clust_6="39.96108"></scales>
<mgrwt>
<rscale>  0 0.30000000E+03</rscale>
<asrwt>  1 0.39961079E+02</asrwt>
<pdfrwt beam="1">  1        1 0.89822363E+00 0.30000000E+03</pdfrwt>
<pdfrwt beam="2">0</pdfrwt>
<totfact> 0.11319126E-04</totfact>
</mgrwt>
<clustering>
<clus scale="   39.961">  1  6  2 -1</clus>
<clus scale="  471.544">  4  5 -1 -1</clus>
<clus scale="  300.000">  1  4  2 -1</clus>
</clustering>
</event>
<event>
 6    1  0.9131597E-012  0.3000000E+03  0.7818608E-02  0.1093470E+00
          1   -1    0    0  502    0  0.00000000000E+00  0.00000000000E+00  0.23716117733E+03  0.23716117733E+03  0.00000000000E+00 0.  1.
         13   -1    0    0    0    0 -0.00000000000E+00 -0.00000000000E+00 -0.27500000000E+03  0.27500000000E+03  0.00000000000E+00 0.  1.
    9000005    2    1    2  501    0  0.27269495878E+02 -0.24685514051E+02 -0.38108234989E+02  0.47537704227E+03  0.47241728878E+03 0.  0.
         13    1    3    3    0    0 -0.13149112985E+03  0.30002966143E+02  0.16418216359E+03  0.21247559400E+03  0.00000000000E+00 0.  1.
          3    1    3    3  501    0  0.15876062573E+03 -0.54688480194E+02 -0.20229039857E+03  0.26290144827E+03  0.00000000000E+00 0.  1.
         21    1    1    2  502  501 -0.27269495878E+02  0.24685514051E+02  0.26941232340E+00  0.36784135064E+02  0.00000000000E+00 0.  1.
<scales pt_clust_4="550.00000" pt_clust_5="550.00000" pt_clust_6="36.78315"></scales>
<mgrwt>
<rscale>  0 0.30000000E+03</rscale>
<asrwt>  1 0.36783148E+02</asrwt>
<pdfrwt beam="1">  1        1 0.86240428E+00 0.30000000E+03</pdfrwt>
<pdfrwt beam="2">0</pdfrwt>
<totfact> 0.30195862E-04</totfact>
</mgrwt>
<clustering>
<clus scale="   36.783">  1  6  2 -1</clus>
<clus scale="  472.417">  4  5 -1 -1</clus>
<clus scale="  300.000">  1  4  2 -1</clus>
</clustering>
</event>
<event>
 6    1  0.9131597E-012  0.3000000E+03  0.7818608E-02  0.1093470E+00
          1   -1    0    0  502    0  0.00000000000E+00  0.00000000000E+00  0.23913825744E+03  0.23913825744E+03  0.00000000000E+00 0.  1.
         13   -1    0    0    0    0 -0.00000000000E+00 -0.00000000000E+00 -0.27500000000E+03  0.27500000000E+03  0.00000000000E+00 0.  1.
    9000005    2    1    2  501    0 -0.68984819902E+01  0.32095194870E+02 -0.39968899766E+02  0.48105413243E+03  0.47826548568E+03 0.  0.
         13    1    3    3    0    0 -0.20349254859E+03 -0.95578212412E+02  0.49397172460E+02  0.23018360643E+03  0.00000000000E+00 0.  1.
          3    1    3    3  501    0  0.19659406660E+03  0.12767340728E+03 -0.89366072226E+02  0.25087052600E+03  0.00000000000E+00 0.  1.
         21    1    1    2  502  501  0.68984819902E+01 -0.32095194870E+02  0.41071572080E+01  0.33084125012E+02  0.00000000000E+00 0. -1.
<scales pt_clust_4="550.00000" pt_clust_5="550.00000" pt_clust_6="32.82820"></scales>
<mgrwt>
<rscale>  0 0.30000000E+03</rscale>
<asrwt>  1 0.32828198E+02</asrwt>
<pdfrwt beam="1">  1        1 0.86959366E+00 0.30000000E+03</pdfrwt>
<pdfrwt beam="2">0</pdfrwt>
<totfact> 0.25878863E-04</totfact>
</mgrwt>
<clustering>
<clus scale="   32.828">  1  6  2 -1</clus>
<clus scale="  478.265">  4  5 -1 -1</clus>
<clus scale="  300.000">  1  4  2 -1</clus>
</clustering>
</event>
<event>
 6    1  0.9131597E-012  0.3000000E+03  0.7818608E-02  0.1093470E+00
          1   -1    0    0  502    0  0.00000000000E+00  0.00000000000E+00  0.25011494290E+03  0.25011494290E+03  0.00000000000E+00 0.  1.
         13   -1    0    0    0    0 -0.00000000000E+00 -0.00000000000E+00 -0.27500000000E+03  0.27500000000E+03  0.00000000000E+00 0.  1.
    9000005    2    1    2  501    0  0.11195407378E+02 -0.49937002896E+02 -0.57667607271E+02  0.46433882094E+03  0.45789294197E+03 0.  0.
         13    1    3    3    0    0  0.16439940838E+03  0.14040573209E+03 -0.20113180829E+02  0.21713008802E+03  0.00000000000E+00 0.  1.
          1    1    3    3  501    0 -0.15320400101E+03 -0.19034273499E+03 -0.37554426441E+02  0.24720873292E+03  0.00000000000E+00 0.  1.
         21    1    1    2  502  501 -0.11195407378E+02  0.49937002896E+02  0.32782550172E+02  0.60776121959E+02  0.00000000000E+00 0.  1.
<scales pt_clust_4="550.00000" pt_clust_5="550.00000" pt_clust_6="51.17657"></scales>
<mgrwt>
<rscale>  0 0.30000000E+03</rscale>
<asrwt>  1 0.51176571E+02</asrwt>
<pdfrwt beam="1">  1        1 0.90950888E+00 0.30000000E+03</pdfrwt>
<pdfrwt beam="2">0</pdfrwt>
<totfact> 0.68947382E-05</totfact>
</mgrwt>
<clustering>
<clus scale="   51.177">  1  6  2 -1</clus>
<clus scale="  457.893">  4  5 -1 -1</clus>
<clus scale="  300.000">  1  4  2 -1</clus>
</clustering>
</event>
<event>
 6    1  0.9131597E-012  0.3000000E+03  0.7818608E-02  0.1093470E+00
          1   -1    0    0  502    0  0.00000000000E+00  0.00000000000E+00  0.22936255262E+03  0.22936255262E+03  0.00000000000E+00 0.  1.
         13   -1    0    0    0    0 -0.00000000000E+00 -0.00000000000E+00 -0.27500000000E+03  0.27500000000E+03  0.00000000000E+00 0.  1.
    9000005    2    1    2  501    0 -0.17889934240E+02  0.26687915307E+02 -0.39721643303E+02  0.47169312795E+03  0.46891822681E+03 0.  0.
         13    1    3    3    0    0  0.27672484072E+01  0.13587646604E+03 -0.22077775773E+03  0.25925448886E+03  0.00000000000E+00 0.  1.
          1    1    3    3  501    0 -0.20657182647E+02 -0.10918855073E+03  0.18105611443E+03  0.21243863909E+03  0.00000000000E+00 0.  1.
         21    1    1    2  502  501  0.17889934240E+02 -0.26687915307E+02 -0.59158040785E+01  0.32669424672E+02  0.00000000000E+00 0.  1.
<scales pt_clust_4="550.00000" pt_clust_5="550.00000" pt_clust_6="32.12936"></scales>
<mgrwt>
<rscale>  0 0.30000000E+03</rscale>
<asrwt>  1 0.32129357E+02</asrwt>
<pdfrwt beam="1">  1        1 0.83404565E+00 0.30000000E+03</pdfrwt>
<pdfrwt beam="2">0</pdfrwt>
<totfact> 0.55872998E-04</totfact>
</mgrwt>
<clustering>
<clus scale="   32.129">  1  6  2 -1</clus>
<clus scale="  468.918">  4  5 -1 -1</clus>
<clus scale="  300.000">  1  4  2 -1</clus>
</clustering>
</event>
<event>
 6    1  0.9131597E-012  0.3000000E+03  0.7818608E-02  0.1093470E+00
          1   -1    0    0  502    0  0.00000000000E+00  0.00000000000E+00  0.24089500318E+03  0.24089500318E+03  0.00000000000E+00 0.  1.
         13   -1    0    0    0    0 -0.00000000000E+00 -0.00000000000E+00 -0.27500000000E+03  0.27500000000E+03  0.00000000000E+00 0.  1.
    9000005    2    1    2  501    0 -0.38577249654E+02 -0.17682682477E+02 -0.64350552409E+02  0.46378286368E+03  0.45733212177E+03 0.  0.
         13    1    3    3    0    0  0.16162589078E+03  0.79691740867E+02 -0.14048745328E+03  0.22849601017E+03  0.00000000000E+00 0.  1.
          3    1    3    3  501    0 -0.20020314043E+03 -0.97374423344E+02  0.76136900876E+02  0.23528685351E+03  0.00000000000E+00 0.  1.
         21    1    1    2  502  501  0.38577249654E+02  0.17682682477E+02  0.30245555592E+02  0.52112139502E+02  0.00000000000E+00 0.  1.
<scales pt_clust_4="550.00000" pt_clust_5="550.00000" pt_clust_6="42.43679"></scales>
<mgrwt>
<rscale>  0 0.30000000E+03</rscale>
<asrwt>  1 0.42436794E+02</asrwt>
<pdfrwt beam="1">  1        1 0.87598183E+00 0.30000000E+03</pdfrwt>
<pdfrwt beam="2">0</pdfrwt>
<totfact> 0.21192046E-04</totfact>
</mgrwt>
<clustering>
<clus scale="   42.437">  1  6  2 -1</clus>
<clus scale="  457.332">  4  5 -1 -1</clus>
<clus scale="  300.000">  1  4  2 -1</clus>
</clustering>
</event>
<event>
 6    1  0.9131597E-012  0.3000000E+03  0.7818608E-02  0.1093470E+00
          1   -1    0    0  502    0  0.00000000000E+00  0.00000000000E+00  0.23640332544E+03  0.23640332544E+03  0.00000000000E+00 0.  1.
         13   -1    0    0    0    0 -0.00000000000E+00 -0.00000000000E+00 -0.27500000000E+03  0.27500000000E+03  0.00000000000E+00 0.  1.
    9000005    2    1    2  501    0 -0.26165103643E+02  0.20549367689E+02 -0.63196527199E+02  0.47002649725E+03  0.46456885163E+03 0.  0.
         13    1    3    3    0    0 -0.81827173229E+02 -0.13577392126E+02 -0.25461196614E+03  0.26778215990E+03  0.00000000000E+00 0.  1.
          3    1    3    3  501    0  0.55662069586E+02  0.34126759815E+02  0.19141543894E+03  0.20224433735E+03  0.00000000000E+00 0.  1.
         21    1    1    2  502  501  0.26165103643E+02 -0.20549367689E+02  0.24599852635E+02  0.41376828186E+02  0.00000000000E+00 0.  1.
<scales pt_clust_4="550.00000" pt_clust_5="550.00000" pt_clust_6="33.26994"></scales>
<mgrwt>
<rscale>  0 0.30000000E+03</rscale>
<asrwt>  1 0.33269944E+02</asrwt>
<pdfrwt beam="1">  1        1 0.85964846E+00 0.30000000E+03</pdfrwt>
<pdfrwt beam="2">0</pdfrwt>
<totfact> 0.32938725E-04</totfact>
</mgrwt>
<clustering>
<clus scale="   33.270">  1  6  2 -1</clus>
<clus scale="  464.569">  4  5 -1 -1</clus>
<clus scale="  300.000">  1  4  2 -1</clus>
</clustering>
</event>
<event>
 6    1  0.9131597E-012  0.3000000E+03  0.7818608E-02  0.1093470E+00
          1   -1    0    0  502    0  0.00000000000E+00  0.00000000000E+00  0.21818499058E+03  0.21818499058E+03  0.00000000000E+00 0.  1.
         13   -1    0    0    0    0 -0.00000000000E+00 -0.00000000000E+00 -0.27500000000E+03  0.27500000000E+03  0.00000000000E+00 0.  1.
    9000005    2    1    2  501    0 -0.31616536189E+02 -0.12118036801E+01 -0.52959082924E+02  0.46131114554E+03  0.45716762211E+03 0.  0.
         13    1    3    3    0    0 -0.19882479847E+03 -0.85537375112E+02 -0.13688516275E+03  0.25609664349E+03  0.00000000000E+00 0.  1.
          3    1    3    3  501    0  0.16720826228E+03  0.84325571432E+02  0.83926079825E+02  0.20521450204E+03  0.00000000000E+00 0.  1.
         21    1    1    2  502  501  0.31616536189E+02  0.12118036801E+01 -0.38559264960E+01  0.31873845044E+02  0.00000000000E+00 0.  1.
<scales pt_clust_4="550.00000" pt_clust_5="550.00000" pt_clust_6="31.63977"></scales>
<mgrwt>
<rscale>  0 0.30000000E+03</rscale>
<asrwt>  1 0.31639767E+02</asrwt>
<pdfrwt beam="1">  1        1 0.79339997E+00 0.30000000E+03</pdfrwt>
<pdfrwt beam="2">0</pdfrwt>
<totfact> 0.11822727E-03</totfact>
</mgrwt>
<clustering>
<clus scale="   31.640">  1  6  2 -1</clus>
<clus scale="  457.168">  4  5 -1 -1</clus>
<clus scale="  300.000">  1  4  2 -1</clus>
</clustering>
</event>
<event>
 6    1  0.9131597E-012  0.3000000E+03  0.7818608E-02  0.1093470E+00
          1   -1    0    0  502    0  0.00000000000E+00  0.00000000000E+00  0.23103999405E+03  0.23103999405E+03  0.00000000000E+00 0.  1.
         13   -1    0    0    0    0 -0.00000000000E+00 -0.00000000000E+00 -0.27500000000E+03  0.27500000000E+03  0.00000000000E+00 0.  1.
    9000005    2    1    2  501    0  0.89561450755E+00  0.34444312879E+02 -0.42950788749E+02  0.47156926249E+03  0.46834344903E+03 0.  0.
         13    1    3    3    0    0  0.19056804884E+03  0.10958922485E+03 -0.12359426305E+03  0.25219342041E+03  0.00000000000E+00 0.  1.
          3    1    3    3  501    0 -0.18967243433E+03 -0.75144911974E+02  0.80643474297E+02  0.21937584208E+03  0.00000000000E+00 0.  1.
         21    1    1    2  502  501 -0.89561450755E+00 -0.34444312879E+02 -0.10092172027E+01  0.34470731562E+02  0.00000000000E+00 0.  1.
<scales pt_clust_4="550.00000" pt_clust_5="550.00000" pt_clust_6="34.45595"></scales>
<mgrwt>
<rscale>  0 0.30000000E+03</rscale>
<asrwt>  1 0.34455955E+02</asrwt>
<pdfrwt beam="1">  1        1 0.84014543E+00 0.30000000E+03</pdfrwt>
<pdfrwt beam="2">0</pdfrwt>
<totfact> 0.49722145E-04</totfact>
</mgrwt>
<clustering>
<clus scale="   34.456">  1  6  2 -1</clus>
<clus scale="  468.343">  4  5 -1 -1</clus>
<clus scale="  300.000">  1  4  2 -1</clus>
</clustering>
</event>
<event>
 6    1  0.9131597E-012  0.3000000E+03  0.7818608E-02  0.1093470E+00
          1   -1    0    0  502    0  0.00000000000E+00  0.00000000000E+00  0.24832963450E+03  0.24832963450E+03  0.00000000000E+00 0.  1.
         13   -1    0    0    0    0 -0.00000000000E+00 -0.00000000000E+00 -0.27500000000E+03  0.27500000000E+03  0.00000000000E+00 0.  1.
    9000005    2    1    2  501    0 -0.34408822436E+02 -0.24876430208E+02 -0.51277791699E+02  0.47425490307E+03  0.46955883265E+03 0.  0.
         13    1    3    3    0    0  0.20507834555E+03 -0.50050225809E+02  0.43385803938E+02  0.21550981625E+03  0.00000000000E+00 0.  1.
          3    1    3    3  501    0 -0.23948716798E+03  0.25173795601E+02 -0.94663595637E+02  0.25874508682E+03  0.00000000000E+00 0.  1.
         21    1    1    2  502  501  0.34408822436E+02  0.24876430208E+02  0.24607426203E+02  0.49074731438E+02  0.00000000000E+00 0.  1.
<scales pt_clust_4="550.00000" pt_clust_5="550.00000" pt_clust_6="42.45944"></scales>
<mgrwt>
<rscale>  0 0.30000000E+03</rscale>
<asrwt>  1 0.42459438E+02</asrwt>
<pdfrwt beam="1">  1        1 0.90301685E+00 0.30000000E+03</pdfrwt>
<pdfrwt beam="2">0</pdfrwt>
<totfact> 0.96658154E-05</totfact>
</mgrwt>
<clustering>
<clus scale="   42.459">  1  6  2 -1</clus>
<clus scale="  469.559">  4  5 -1 -1</clus>
<clus scale="  300.000">  1  4  2 -1</clus>
</clustering>
</event>
<event>
 6    1  0.9131597E-012  0.3000000E+03  0.7818608E-02  0.1093470E+00
          1   -1    0    0  502    0  0.00000000000E+00  0.00000000000E+00  0.25759193191E+03  0.25759193191E+03  0.00000000000E+00 0.  1.
         13   -1    0    0    0    0 -0.00000000000E+00 -0.00000000000E+00 -0.27500000000E+03  0.27500000000E+03  0.00000000000E+00 0.  1.
    9000005    2    1    2  501    0  0.11429414079E+02 -0.33674623766E+02 -0.67816563780E+02  0.47090215780E+03  0.46463441985E+03 0.  0.
         13    1    3    3    0    0  0.17454581080E+03  0.14135257991E+03 -0.55363256155E+02  0.23132635398E+03  0.00000000000E+00 0.  1.
          1    1    3    3  501    0 -0.16311639672E+03 -0.17502720367E+03 -0.12453307625E+02  0.23957580382E+03  0.00000000000E+00 0.  1.
         21    1    1    2  502  501 -0.11429414079E+02  0.33674623766E+02  0.50408495686E+02  0.61689774107E+02  0.00000000000E+00 0.  1.
<scales pt_clust_4="550.00000" pt_clust_5="550.00000" pt_clust_6="35.56138"></scales>
<mgrwt>
<rscale>  0 0.30000000E+03</rscale>
<asrwt>  1 0.35561381E+02</asrwt>
<pdfrwt beam="1">  1        1 0.93669793E+00 0.30000000E+03</pdfrwt>
<pdfrwt beam="2">0</pdfrwt>
<totfact> 0.21395355E-05</totfact>
</mgrwt>
<clustering>
<clus scale="   35.561">  1  6  2 -1</clus>
<clus scale="  464.634">  4  5 -1 -1</clus>
<clus scale="  300.000">  1  4  2 -1</clus>
</clustering>
</event>
<event>
 6    1  0.9131597E-012  0.3000000E+03  0.7818608E-02  0.1093470E+00
          1   -1    0    0  502    0  0.00000000000E+00  0.00000000000E+00  0.24716353908E+03  0.24716353908E+03  0.00000000000E+00 0.  1.
         13   -1    0    0    0    0 -0.00000000000E+00 -0.00000000000E+00 -0.27500000000E+03  0.27500000000E+03  0.00000000000E+00 0.  1.
    9000005    2    1    2  501    0  0.37389514254E+02  0.25218619490E+02 -0.23629462074E+02  0.47686835850E+03  0.47414251583E+03 0.  0.
         13    1    3    3    0    0 -0.94454297627E+02  0.21313755486E+03 -0.68463723906E+02  0.24297430548E+03  0.00000000000E+00 0.  1.
          1    1    3    3  501    0  0.13184381188E+03 -0.18791893537E+03  0.44834261832E+02  0.23389405302E+03  0.00000000000E+00 0.  1.
         21    1    1    2  502  501 -0.37389514254E+02 -0.25218619490E+02 -0.42069988421E+01  0.45295180586E+02  0.00000000000E+00 0. -1.
<scales pt_clust_4="550.00000" pt_clust_5="550.00000" pt_clust_6="45.09941"></scales>
<mgrwt>
<rscale>  0 0.30000000E+03</rscale>
<asrwt>  1 0.45099408E+02</asrwt>
<pdfrwt beam="1">  1        1 0.89877651E+00 0.30000000E+03</pdfrwt>
<pdfrwt beam="2">0</pdfrwt>
<totfact> 0.10911340E-04</totfact>
</mgrwt>
<clustering>
<clus scale="   45.099">  1  6  2 -1</clus>
<clus scale="  474.143">  4  5 -1 -1</clus>
<clus scale="  300.000">  1  4  2 -1</clus>
</clustering>
</event>
<event>
 6    1  0.9131597E-012  0.3000000E+03  0.7818608E-02  0.1093470E+00
          1   -1    0    0  502    0  0.00000000000E+00  0.00000000000E+00  0.22838632747E+03  0.22838632747E+03  0.00000000000E+00 0.  1.
         13   -1    0    0    0    0 -0.00000000000E+00 -0.00000000000E+00 -0.27500000000E+03  0.27500000000E+03  0.00000000000E+00 0.  1.
    9000005    2    1    2  501    0 -0.17905170338E+02 -0.38724028870E+02 -0.38155077659E+02  0.45989272605E+03  0.45631717477E+03 0.  0.
         13    1    3    3    0    0 -0.21947008368E+03 -0.10569971135E+03 -0.43370046619E+02  0.24742778251E+03  0.00000000000E+00 0.  1.
          1    1    3    3  501    0  0.20156491335E+03  0.66975682478E+02  0.52149689595E+01  0.21246494355E+03  0.00000000000E+00 0.  1.
         21    1    1    2  502  501  0.17905170338E+02  0.38724028870E+02 -0.84585948719E+01  0.43493601414E+02  0.00000000000E+00 0.  1.
<scales pt_clust_4="550.00000" pt_clust_5="550.00000" pt_clust_6="42.66319"></scales>
<mgrwt>
<rscale>  0 0.30000000E+03</rscale>
<asrwt>  1 0.42663185E+02</asrwt>
<pdfrwt beam="1">  1        1 0.83049574E+00 0.30000000E+03</pdfrwt>
<pdfrwt beam="2">0</pdfrwt>
<totfact> 0.56461071E-04</totfact>
</mgrwt>
<clustering>
<clus scale="   42.663">  1  6  2 -1</clus>
<clus scale="  456.317">  4  5 -1 -1</clus>
<clus scale="  300.000">  1  4  2 -1</clus>
</clustering>
</event>
<event>
 6    1  0.9131597E-012  0.3000000E+03  0.7818608E-02  0.1093470E+00
          1   -1    0    0  502    0  0.00000000000E+00  0.00000000000E+00  0.23426116020E+03  0.23426116020E+03  0.00000000000E+00 0.  1.
         13   -1    0    0    0    0 -0.00000000000E+00 -0.00000000000E+00 -0.27500000000E+03  0.27500000000E+03  0.00000000000E+00 0.  1.
    9000005    2    1    2  501    0  0.16055875656E+02  0.27705961775E+02 -0.42764028157E+02  0.47717513756E+03  0.47417500813E+03 0.  0.
         13    1    3    3    0    0 -0.64762960716E+02  0.37729388695E+02  0.20399302986E+03  0.21732672197E+03  0.00000000000E+00 0.  1.
          3    1    3    3  501    0  0.80818836371E+02 -0.10023426920E+02 -0.24675705802E+03  0.25984841558E+03  0.00000000000E+00 0.  1.
         21    1    1    2  502  501 -0.16055875656E+02 -0.27705961775E+02  0.20251883529E+01  0.32086022640E+02  0.00000000000E+00 0. -1.
<scales pt_clust_4="550.00000" pt_clust_5="550.00000" pt_clust_6="32.02205"></scales>
<mgrwt>
<rscale>  0 0.30000000E+03</rscale>
<asrwt>  1 0.32022046E+02</asrwt>
<pdfrwt beam="1">  1        1 0.85185876E+00 0.30000000E+03</pdfrwt>
<pdfrwt beam="2">0</pdfrwt>
<totfact> 0.39741999E-04</totfact>
</mgrwt>
<clustering>
<clus scale="   32.022">  1  6  2 -1</clus>
<clus scale="  474.175">  4  5 -1 -1</clus>
<clus scale="  300.000">  1  4  2 -1</clus>
</clustering>
</event>
<event>
 6    1  0.9131597E-012  0.3000000E+03  0.7818608E-02  0.1093470E+00
          1   -1    0    0  502    0  0.00000000000E+00  0.00000000000E+00  0.24169169194E+03  0.24169169194E+03  0.00000000000E+00 0.  1.
         13   -1    0    0    0    0 -0.00000000000E+00 -0.00000000000E+00 -0.27500000000E+03  0.27500000000E+03  0.00000000000E+00 0.  1.
    9000005    2    1    2  501    0  0.35290701321E+02  0.27749425621E+01 -0.43185402961E+02  0.47993994491E+03  0.47668043571E+03 0.  0.
         13    1    3    3    0    0 -0.16527417271E+03 -0.15205130466E+03 -0.23513171652E+02  0.22580527154E+03  0.00000000000E+00 0.  1.
          3    1    3    3  501    0  0.20056487403E+03  0.15482624722E+03 -0.19672231309E+02  0.25413467337E+03  0.00000000000E+00 0.  1.
         21    1    1    2  502  501 -0.35290701321E+02 -0.27749425621E+01  0.98770949013E+01  0.36751747028E+02  0.00000000000E+00 0. -1.
<scales pt_clust_4="550.00000" pt_clust_5="550.00000" pt_clust_6="35.39963"></scales>
<mgrwt>
<rscale>  0 0.30000000E+03</rscale>
<asrwt>  1 0.35399631E+02</asrwt>
<pdfrwt beam="1">  1        1 0.87887888E+00 0.30000000E+03</pdfrwt>
<pdfrwt beam="2">0</pdfrwt>
<totfact> 0.20320523E-04</totfact>
</mgrwt>
<clustering>
<clus scale="   35.400">  1  6  2 -1</clus>
<clus scale="  476.680">  4  5 -1 -1</clus>
<clus scale="  300.000">  1  4  2 -1</clus>
</clustering>
</event>
<event>
 6    1  0.9131597E-012  0.3000000E+03  0.7818608E-02  0.1093470E+00
          1   -1    0    0  502    0  0.00000000000E+00  0.00000000000E+00  0.23153183637E+03  0.23153183637E+03  0.00000000000E+00 0.  1.
         13   -1    0    0    0    0 -0.00000000000E+00 -0.00000000000E+00 -0.27500000000E+03  0.27500000000E+03  0.00000000000E+00 0.  1.
    9000005    2    1    2  501    0  0.19754466161E+01 -0.36863088202E+02 -0.60699483474E+02  0.46579232184E+03  0.46034255737E+03 0.  0.
         13    1    3    3    0    0  0.13856825515E+03  0.43091120371E+02 -0.20530150227E+03  0.25140945253E+03  0.00000000000E+00 0.  1.
          1    1    3    3  501    0 -0.13659280853E+03 -0.79954208572E+02  0.14460201879E+03  0.21438286930E+03  0.00000000000E+00 0.  1.
         21    1    1    2  502  501 -0.19754466161E+01  0.36863088202E+02  0.17231319848E+02  0.40739514538E+02  0.00000000000E+00 0. -1.
<scales pt_clust_4="550.00000" pt_clust_5="550.00000" pt_clust_6="36.91598"></scales>
<mgrwt>
<rscale>  0 0.30000000E+03</rscale>
<asrwt>  1 0.36915981E+02</asrwt>
<pdfrwt beam="1">  1        1 0.84193395E+00 0.30000000E+03</pdfrwt>
<pdfrwt beam="2">0</pdfrwt>
<totfact> 0.47503141E-04</totfact>
</mgrwt>
<clustering>
<clus scale="   36.916">  1  6  2 -1</clus>
<clus scale="  460.343">  4  5 -1 -1</clus>
<clus scale="  300.000">  1  4  2 -1</clus>
</clustering>
</event>
<event>
 6    1  0.9131597E-012  0.3000000E+03  0.7818608E-02  0.1093470E+00
          1   -1    0    0  502    0  0.00000000000E+00  0.00000000000E+00  0.24268697207E+03  0.24268697207E+03  0.00000000000E+00 0.  1.
         13   -1    0    0    0    0 -0.00000000000E+00 -0.00000000000E+00 -0.27500000000E+03  0.27500000000E+03  0.00000000000E+00 0.  1.
    9000005    2    1    2  501    0 -0.34452609018E+02  0.93080259078E+01 -0.37262017831E+02  0.48165762132E+03  0.47888619169E+03 0.  0.
         13    1    3    3    0    0  0.18083938366E+03 -0.88929810532E+02 -0.11567103959E+03  0.23236002945E+03  0.00000000000E+00 0.  1.
          1    1    3    3  501    0 -0.21529199268E+03  0.98237836440E+02  0.78409021757E+02  0.24929759187E+03  0.00000000000E+00 0.  1.
         21    1    1    2  502  501  0.34452609018E+02 -0.93080259078E+01  0.49489899032E+01  0.36029350751E+02  0.00000000000E+00 0.  1.
<scales pt_clust_4="550.00000" pt_clust_5="550.00000" pt_clust_6="35.68784"></scales>
<mgrwt>
<rscale>  0 0.30000000E+03</rscale>
<asrwt>  1 0.35687836E+02</asrwt>
<pdfrwt beam="1">  1        1 0.88249808E+00 0.30000000E+03</pdfrwt>
<pdfrwt beam="2">0</pdfrwt>
<totfact> 0.18273324E-04</totfact>
</mgrwt>
<clustering>
<clus scale="   35.688">  1  6  2 -1</clus>
<clus scale="  478.886">  4  5 -1 -1</clus>
<clus scale="  300.000">  1  4  2 -1</clus>
</clustering>
</event>
<event>
 6    1  0.9131597E-012  0.3000000E+03  0.7818608E-02  0.1093470E+00
          1   -1    0    0  502    0  0.00000000000E+00  0.00000000000E+00  0.23281858627E+03  0.23281858627E+03  0.00000000000E+00 0.  1.
         13   -1    0    0    0    0 -0.00000000000E+00 -0.00000000000E+00 -0.27500000000E+03  0.27500000000E+03  0.00000000000E+00 0.  1.
    9000005    2    1    2  501    0 -0.41199397088E+02  0.51872440392E+00 -0.43848606125E+02  0.46658220760E+03  0.46268628334E+03 0.  0.
         13    1    3    3    0    0  0.94081695865E+02  0.41744397593E+02 -0.21869212072E+03  0.24170271801E+03  0.00000000000E+00 0.  1.
          3    1    3    3  501    0 -0.13528109295E+03 -0.41225673189E+02  0.17484351460E+03  0.22487948959E+03  0.00000000000E+00 0.  1.
         21    1    1    2  502  501  0.41199397088E+02 -0.51872440392E+00  0.16671923924E+01  0.41236378671E+02  0.00000000000E+00 0. -1.
<scales pt_clust_4="550.00000" pt_clust_5="550.00000" pt_clust_6="41.20266"></scales>
<mgrwt>
<rscale>  0 0.30000000E+03</rscale>
<asrwt>  1 0.41202662E+02</asrwt>
<pdfrwt beam="1">  1        1 0.84661304E+00 0.30000000E+03</pdfrwt>
<pdfrwt beam="2">0</pdfrwt>
<totfact> 0.42425954E-04</totfact>
</mgrwt>
<clustering>
<clus scale="   41.203">  1  6  2 -1</clus>
<clus scale="  462.686">  4  5 -1 -1</clus>
<clus scale="  300.000">  1  4  2 -1</clus>
</clustering>
</event>
<event>
 6    1  0.9131597E-012  0.3000000E+03  0.7818608E-02  0.1093470E+00
          1   -1    0    0  502    0  0.00000000000E+00  0.00000000000E+00  0.22988392643E+03  0.22988392643E+03  0.00000000000E+00 0.  1.
         13   -1    0    0    0    0 -0.00000000000E+00 -0.00000000000E+00 -0.27500000000E+03  0.27500000000E+03  0.00000000000E+00 0.  1.
    9000005    2    1    2  501    0  0.20115311404E+02 -0.28395942074E+02 -0.66871477438E+02  0.46384427638E+03  0.45767757532E+03 0.  0.
         13    1    3    3    0    0  0.30499222587E+02  0.12134171869E+03  0.15298839071E+03  0.19763467045E+03  0.00000000000E+00 0.  1.
          1    1    3    3  501    0 -0.10383911183E+02 -0.14973766076E+03 -0.21985986815E+03  0.26620960592E+03  0.00000000000E+00 0.  1.
         21    1    1    2  502  501 -0.20115311404E+02  0.28395942074E+02  0.21755403868E+02  0.41039650055E+02  0.00000000000E+00 0. -1.
<scales pt_clust_4="550.00000" pt_clust_5="550.00000" pt_clust_6="34.79878"></scales>
<mgrwt>
<rscale>  0 0.30000000E+03</rscale>
<asrwt>  1 0.34798783E+02</asrwt>
<pdfrwt beam="1">  1        1 0.83594155E+00 0.30000000E+03</pdfrwt>
<pdfrwt beam="2">0</pdfrwt>
<totfact> 0.53310062E-04</totfact>
</mgrwt>
<clustering>
<clus scale="   34.799">  1  6  2 -1</clus>
<clus scale="  457.678">  4  5 -1 -1</clus>
<clus scale="  300.000">  1  4  2 -1</clus>
</clustering>
</event>
<event>
 6    1  0.9131597E-012  0.3000000E+03  0.7818608E-02  0.1093470E+00
          1   -1    0    0  502    0  0.00000000000E+00  0.00000000000E+00  0.27032251579E+03  0.27032251579E+03  0.00000000000E+00 0.  1.
         13   -1    0    0    0    0 -0.00000000000E+00 -0.00000000000E+00 -0.27500000000E+03  0.27500000000E+03  0.00000000000E+00 0.  1.
    9000005    2    1    2  501    0  0.20056046700E+01  0.41706110941E+02 -0.56432532436E+02  0.47882434170E+03  0.47365039571E+03 0.  0.
         13    1    3    3    0    0  0.16237975405E+03  0.12442460186E+03  0.11092936378E+03  0.23271009824E+03  0.00000000000E+00 0.  1.
          1    1    3    3  501    0 -0.16037414938E+03 -0.82718490916E+02 -0.16736189622E+03  0.24611424346E+03  0.00000000000E+00 0.  1.
         21    1    1    2  502  501 -0.20056046700E+01 -0.41706110941E+02  0.51755048228E+02  0.66498174088E+02  0.00000000000E+00 0. -1.
<scales pt_clust_4="550.00000" pt_clust_5="550.00000" pt_clust_6="41.75431"></scales>
<mgrwt>
<rscale>  0 0.30000000E+03</rscale>
<asrwt>  1 0.41754307E+02</asrwt>
<pdfrwt beam="1">  1        1 0.98299097E+00 0.30000000E+03</pdfrwt>
<pdfrwt beam="2">0</pdfrwt>
<totfact> 0.20144059E-06</totfact>
</mgrwt>
<clustering>
<clus scale="   41.754">  1  6  2 -1</clus>
<clus scale="  473.650">  4  5 -1 -1</clus>
<clus scale="  300.000">  1  4  2 -1</clus>
</clustering>
</event>
<event>
 6    1  0.9131597E-012  0.3000000E+03  0.7818608E-02  0.1093470E+00
          1   -1    0    0  502    0  0.00000000000E+00  0.00000000000E+00  0.24865391280E+03  0.24865391280E+03  0.00000000000E+00 0.  1.
         13   -1    0    0    0    0 -0.00000000000E+00 -0.00000000000E+00 -0.27500000000E+03  0.27500000000E+03  0.00000000000E+00 0.  1.
    9000005    2    1    2  501    0  0.22349369100E+00 -0.30379795741E+02 -0.24600920506E+02  0.49322321209E+03  0.49167158726E+03 0.  0.
         13    1    3    3    0    0 -0.15892903459E+03  0.13636648824E+03 -0.12269586499E+03  0.24271080000E+03  0.00000000000E+00 0.  1.
          3    1    3    3  501    0  0.15915252828E+03 -0.16674628398E+03  0.98094944484E+02  0.25051241209E+03  0.00000000000E+00 0.  1.
         21    1    1    2  502  501 -0.22349369100E+00  0.30379795741E+02 -0.17451666970E+01  0.30430700707E+02  0.00000000000E+00 0. -1.
<scales pt_clust_4="550.00000" pt_clust_5="550.00000" pt_clust_6="30.38063"></scales>
<mgrwt>
<rscale>  0 0.30000000E+03</rscale>
<asrwt>  1 0.30380633E+02</asrwt>
<pdfrwt beam="1">  1        1 0.90419605E+00 0.30000000E+03</pdfrwt>
<pdfrwt beam="2">0</pdfrwt>
<totfact> 0.98259245E-05</totfact>
</mgrwt>
<clustering>
<clus scale="   30.381">  1  6  2 -1</clus>
<clus scale="  491.672">  4  5 -1 -1</clus>
<clus scale="  300.000">  1  4  2 -1</clus>
</clustering>
</event>
<event>
 6    1  0.9131597E-012  0.3000000E+03  0.7818608E-02  0.1093470E+00
          1   -1    0    0  502    0  0.00000000000E+00  0.00000000000E+00  0.22150648027E+03  0.22150648027E+03  0.00000000000E+00 0.  1.
         13   -1    0    0    0    0 -0.00000000000E+00 -0.00000000000E+00 -0.27500000000E+03  0.27500000000E+03  0.00000000000E+00 0.  1.
    9000005    2    1    2  501    0 -0.32894352253E+02  0.33920080431E+01 -0.51252370404E+02  0.46336184452E+03  0.45932978279E+03 0.  0.
         13    1    3    3    0    0 -0.16073397751E+03 -0.17597810726E+03 -0.47736776046E+02  0.24306893168E+03  0.00000000000E+00 0.  1.
          1    1    3    3  501    0  0.12783962525E+03  0.17937011530E+03 -0.35155943581E+01  0.22029291285E+03  0.00000000000E+00 0.  1.
         21    1    1    2  502  501  0.32894352253E+02 -0.33920080431E+01 -0.22411493224E+01  0.33144635750E+02  0.00000000000E+00 0.  1.
<scales pt_clust_4="550.00000" pt_clust_5="550.00000" pt_clust_6="33.06878"></scales>
<mgrwt>
<rscale>  0 0.30000000E+03</rscale>
<asrwt>  1 0.33068779E+02</asrwt>
<pdfrwt beam="1">  1        1 0.80547811E+00 0.30000000E+03</pdfrwt>
<pdfrwt beam="2">0</pdfrwt>
<totfact> 0.95514572E-04</totfact>
</mgrwt>
<clustering>
<clus scale="   33.069">  1  6  2 -1</clus>
<clus scale="  459.330">  4  5 -1 -1</clus>
<clus scale="  300.000">  1  4  2 -1</clus>
</clustering>
</event>
<event>
 6    1  0.9131597E-012  0.3000000E+03  0.7818608E-02  0.1093470E+00
          1   -1    0    0  502    0  0.00000000000E+00  0.00000000000E+00  0.24940160456E+03  0.24940160456E+03  0.00000000000E+00 0.  1.
         13   -1    0    0    0    0 -0.00000000000E+00 -0.00000000000E+00 -0.27500000000E+03  0.27500000000E+03  0.00000000000E+00 0.  1.
    9000005    2    1    2  501    0  0.10246883976E+02 -0.29276589110E+02 -0.39979579219E+02  0.49021190219E+03  0.48759329876E+03 0.  0.
         13    1    3    3    0    0 -0.16322518123E+02  0.54085604067E+02  0.21413211255E+03  0.22145933891E+03  0.00000000000E+00 0.  1.
          1    1    3    3  501    0  0.26569402099E+02 -0.83362193178E+02 -0.25411169177E+03  0.26875256328E+03  0.00000000000E+00 0.  1.
         21    1    1    2  502  501 -0.10246883976E+02  0.29276589110E+02  0.14381183778E+02  0.34189702368E+02  0.00000000000E+00 0. -1.
<scales pt_clust_4="550.00000" pt_clust_5="550.00000" pt_clust_6="31.01802"></scales>
<mgrwt>
<rscale>  0 0.30000000E+03</rscale>
<asrwt>  1 0.31018016E+02</asrwt>
<pdfrwt beam="1">  1        1 0.90691493E+00 0.30000000E+03</pdfrwt>
<pdfrwt beam="2">0</pdfrwt>
<totfact> 0.86552793E-05</totfact>
</mgrwt>
<clustering>
<clus scale="   31.018">  1  6  2 -1</clus>
<clus scale="  487.593">  4  5 -1 -1</clus>
<clus scale="  300.000">  1  4  2 -1</clus>
</clustering>
</event>
<event>
 6    1  0.9131597E-012  0.3000000E+03  0.7818608E-02  0.1093470E+00
          1   -1    0    0  502    0  0.00000000000E+00  0.00000000000E+00  0.24385305380E+03  0.24385305380E+03  0.00000000000E+00 0.  1.
         13   -1    0    0    0    0 -0.00000000000E+00 -0.00000000000E+00 -0.27500000000E+03  0.27500000000E+03  0.00000000000E+00 0.  1.
    9000005    2    1    2  501    0 -0.47952259847E+02  0.18790053875E+02 -0.71694042019E+01  0.46204277418E+03  0.45910743783E+03 0.  0.
         13    1    3    3    0    0 -0.13973213626E+03 -0.10758871378E+03  0.15651848831E+03  0.23579321113E+03  0.00000000000E+00 0.  1.
          3    1    3    3  501    0  0.91779876411E+02  0.12637876765E+03 -0.16368789251E+03  0.22624956305E+03  0.00000000000E+00 0.  1.
         21    1    1    2  502  501  0.47952259847E+02 -0.18790053875E+02 -0.23977542003E+02  0.56810279612E+02  0.00000000000E+00 0.  1.
<scales pt_clust_4="550.00000" pt_clust_5="550.00000" pt_clust_6="51.50231"></scales>
<mgrwt>
<rscale>  0 0.30000000E+03</rscale>
<asrwt>  1 0.51502311E+02</asrwt>
<pdfrwt beam="1">  1        1 0.88673838E+00 0.30000000E+03</pdfrwt>
<pdfrwt beam="2">0</pdfrwt>
<totfact> 0.14978118E-04</totfact>
</mgrwt>
<clustering>
<clus scale="   51.502">  1  6  2 -1</clus>
<clus scale="  459.107">  4  5 -1 -1</clus>
<clus scale="  300.000">  1  4  2 -1</clus>
</clustering>
</event>
<event>
 6    1  0.9131597E-012  0.3000000E+03  0.7818608E-02  0.1093470E+00
          1   -1    0    0  502    0  0.00000000000E+00  0.00000000000E+00  0.26061531220E+03  0.26061531220E+03  0.00000000000E+00 0.  1.
         13   -1    0    0    0    0 -0.00000000000E+00 -0.00000000000E+00 -0.27500000000E+03  0.27500000000E+03  0.00000000000E+00 0.  1.
    9000005    2    1    2  501    0  0.34501761631E+02 -0.14873036555E+02 -0.44961148151E+02  0.48717464024E+03  0.48363834265E+03 0.  0.
         13    1    3    3    0    0 -0.51350457278E+02  0.11601085776E+03  0.17564915944E+03  0.21667490808E+03  0.00000000000E+00 0.  1.
          1    1    3    3  501    0  0.85852218909E+02 -0.13088389431E+03 -0.22061030759E+03  0.27049973216E+03  0.00000000000E+00 0.  1.
         21    1    1    2  502  501 -0.34501761631E+02  0.14873036555E+02  0.30576460350E+02  0.48440671956E+02  0.00000000000E+00 0.  1.
<scales pt_clust_4="550.00000" pt_clust_5="550.00000" pt_clust_6="37.57098"></scales>
<mgrwt>
<rscale>  0 0.30000000E+03</rscale>
<asrwt>  1 0.37570983E+02</asrwt>
<pdfrwt beam="1">  1        1 0.94769204E+00 0.30000000E+03</pdfrwt>
<pdfrwt beam="2">0</pdfrwt>
<totfact> 0.13572570E-05</totfact>
</mgrwt>
<clustering>
<clus scale="   37.571">  1  6  2 -1</clus>
<clus scale="  483.638">  4  5 -1 -1</clus>
<clus scale="  300.000">  1  4  2 -1</clus>
</clustering>
</event>
<event>
 6    1  0.9131597E-012  0.3000000E+03  0.7818608E-02  0.1093470E+00
          1   -1    0    0  502    0  0.00000000000E+00  0.00000000000E+00  0.22138487960E+03  0.22138487960E+03  0.00000000000E+00 0.  1.
         13   -1    0    0    0    0 -0.00000000000E+00 -0.00000000000E+00 -0.27500000000E+03  0.27500000000E+03  0.00000000000E+00 0.  1.
    9000005    2    1    2  501    0 -0.25243346204E+02 -0.17768598834E+02 -0.60429292307E+02  0.46477186691E+03  0.45979151718E+03 0.  0.
         13    1    3    3    0    0  0.16921377423E+02  0.57396642248E+02 -0.24971752934E+03  0.25678697789E+03  0.00000000000E+00 0.  1.
          1    1    3    3  501    0 -0.42164723626E+02 -0.75165241082E+02  0.18928823703E+03  0.20798488903E+03  0.00000000000E+00 0.  1.
         21    1    1    2  502  501  0.25243346204E+02  0.17768598834E+02  0.68141719024E+01  0.31613012681E+02  0.00000000000E+00 0. -1.
<scales pt_clust_4="550.00000" pt_clust_5="550.00000" pt_clust_6="30.86988"></scales>
<mgrwt>
<rscale>  0 0.30000000E+03</rscale>
<asrwt>  1 0.30869882E+02</asrwt>
<pdfrwt beam="1">  1        1 0.80503593E+00 0.30000000E+03</pdfrwt>
<pdfrwt beam="2">0</pdfrwt>
<totfact> 0.97525242E-04</totfact>
</mgrwt>
<clustering>
<clus scale="   30.870">  1  6  2 -1</clus>
<clus scale="  459.792">  4  5 -1 -1</clus>
<clus scale="  300.000">  1  4  2 -1</clus>
</clustering>
</event>
<event>
 6    1  0.9131597E-012  0.3000000E+03  0.7818608E-02  0.1093470E+00
          1   -1    0    0  502    0  0.00000000000E+00  0.00000000000E+00  0.25589959062E+03  0.25589959062E+03  0.00000000000E+00 0.  1.
         13   -1    0    0    0    0 -0.00000000000E+00 -0.00000000000E+00 -0.27500000000E+03  0.27500000000E+03  0.00000000000E+00 0.  1.
    9000005    2    1    2  501    0  0.14103494631E+02 -0.49533732347E+02 -0.62899716959E+02  0.46329131786E+03  0.45610302741E+03 0.  0.
         13    1    3    3    0    0  0.21461661537E+03 -0.79687967967E+02 -0.11170563877E+03  0.25473243524E+03  0.00000000000E+00 0.  1.
          1    1    3    3  501    0 -0.20051312074E+03  0.30154235619E+02  0.48805921811E+02  0.20855888262E+03  0.00000000000E+00 0.  1.
         21    1    1    2  502  501 -0.14103494631E+02  0.49533732347E+02  0.43799307580E+02  0.67608272760E+02  0.00000000000E+00 0.  1.
<scales pt_clust_4="550.00000" pt_clust_5="550.00000" pt_clust_6="51.50242"></scales>
<mgrwt>
<rscale>  0 0.30000000E+03</rscale>
<asrwt>  1 0.51502419E+02</asrwt>
<pdfrwt beam="1">  1        1 0.93054397E+00 0.30000000E+03</pdfrwt>
<pdfrwt beam="2">0</pdfrwt>
<totfact> 0.24047585E-05</totfact>
</mgrwt>
<clustering>
<clus scale="   51.502">  1  6  2 -1</clus>
<clus scale="  456.103">  4  5 -1 -1</clus>
<clus scale="  300.000">  1  4  2 -1</clus>
</clustering>
</event>
<event>
 6    1  0.9131597E-012  0.3000000E+03  0.7818608E-02  0.1093470E+00
          1   -1    0    0  502    0  0.00000000000E+00  0.00000000000E+00  0.22450940179E+03  0.22450940179E+03  0.00000000000E+00 0.  1.
         13   -1    0    0    0    0 -0.00000000000E+00 -0.00000000000E+00 -0.27500000000E+03  0.27500000000E+03  0.00000000000E+00 0.  1.
    9000005    2    1    2  501    0 -0.23210217702E+02  0.25238672328E+02 -0.40969525622E+02  0.46392351119E+03  0.46083708338E+03 0.  0.
         13    1    3    3    0    0 -0.22510487541E+03 -0.44990384180E+02  0.44284164886E+02  0.23378927876E+03  0.00000000000E+00 0.  1.
          3    1    3    3  501    0  0.20189465771E+03  0.70229056507E+02 -0.85253690508E+02  0.23013423243E+03  0.00000000000E+00 0.  1.
         21    1    1    2  502  501  0.23210217702E+02 -0.25238672328E+02 -0.95210725900E+01  0.35585890601E+02  0.00000000000E+00 0.  1.
<scales pt_clust_4="550.00000" pt_clust_5="550.00000" pt_clust_6="34.28857"></scales>
<mgrwt>
<rscale>  0 0.30000000E+03</rscale>
<asrwt>  1 0.34288569E+02</asrwt>
<pdfrwt beam="1">  1        1 0.81639782E+00 0.30000000E+03</pdfrwt>
<pdfrwt beam="2">0</pdfrwt>
<totfact> 0.77846550E-04</totfact>
</mgrwt>
<clustering>
<clus scale="   34.289">  1  6  2 -1</clus>
<clus scale="  460.837">  4  5 -1 -1</clus>
<clus scale="  300.000">  1  4  2 -1</clus>
</clustering>
</event>
<event>
 6    1  0.9131597E-012  0.3000000E+03  0.7818608E-02  0.1093470E+00
          1   -1    0    0  502    0  0.00000000000E+00  0.00000000000E+00  0.26188947313E+03  0.26188947313E+03  0.00000000000E+00 0.  1.
         13   -1    0    0    0    0 -0.00000000000E+00 -0.00000000000E+00 -0.27500000000E+03  0.27500000000E+03  0.00000000000E+00 0.  1.
    9000005    2    1    2  501    0  0.47314695932E+01 -0.49194322791E+02 -0.39775429216E+02  0.48073357214E+03  0.47652934265E+03 0.  0.
         13    1    3    3    0    0  0.42635359347E+02  0.20408339610E+03 -0.76364953930E+02  0.22203471040E+03  0.00000000000E+00 0.  1.
          1    1    3    3  501    0 -0.37903889754E+02 -0.25327771889E+03  0.36589524714E+02  0.25869886174E+03  0.00000000000E+00 0.  1.
         21    1    1    2  502  501 -0.47314695932E+01  0.49194322791E+02  0.26664902347E+02  0.56155900995E+02  0.00000000000E+00 0. -1.
<scales pt_clust_4="550.00000" pt_clust_5="550.00000" pt_clust_6="49.42133"></scales>
<mgrwt>
<rscale>  0 0.30000000E+03</rscale>
<asrwt>  1 0.49421333E+02</asrwt>
<pdfrwt beam="1">  1        1 0.95232536E+00 0.30000000E+03</pdfrwt>
<pdfrwt beam="2">0</pdfrwt>
<totfact> 0.10376576E-05</totfact>
</mgrwt>
<clustering>
<clus scale="   49.421">  1  6  2 -1</clus>
<clus scale="  476.529">  4  5 -1 -1</clus>
<clus scale="  300.000">  1  4  2 -1</clus>
</clustering>
</event>
<event>
 6    1  0.9131597E-012  0.3000000E+03  0.7818608E-02  0.1093470E+00
          1   -1    0    0  502    0  0.00000000000E+00  0.00000000000E+00  0.23908195288E+03  0.23908195288E+03  0.00000000000E+00 0.  1.
         13   -1    0    0    0    0 -0.00000000000E+00 -0.00000000000E+00 -0.27500000000E+03  0.27500000000E+03  0.00000000000E+00 0.  1.
    9000005    2    1    2  501    0 -0.16853619996E+02  0.31803111244E+02 -0.54934168120E+02  0.47337451806E+03  0.46879653276E+03 0.  0.
         13    1    3    3    0    0 -0.99393684478E+01 -0.12800144085E+03 -0.21286889248E+03  0.24858866685E+03  0.00000000000E+00 0.  1.
          3    1    3    3  501    0 -0.69142515480E+01  0.15980455209E+03  0.15793472436E+03  0.22478585120E+03  0.00000000000E+00 0.  1.
         21    1    1    2  502  501  0.16853619996E+02 -0.31803111244E+02  0.19016120997E+02  0.40707434819E+02  0.00000000000E+00 0.  1.
<scales pt_clust_4="550.00000" pt_clust_5="550.00000" pt_clust_6="35.99281"></scales>
<mgrwt>
<rscale>  0 0.30000000E+03</rscale>
<asrwt>  1 0.35992810E+02</asrwt>
<pdfrwt beam="1">  1        1 0.86938892E+00 0.30000000E+03</pdfrwt>
<pdfrwt beam="2">0</pdfrwt>
<totfact> 0.25559044E-04</totfact>
</mgrwt>
<clustering>
<clus scale="   35.993">  1  6  2 -1</clus>
<clus scale="  468.797">  4  5 -1 -1</clus>
<clus scale="  300.000">  1  4  2 -1</clus>
</clustering>
</event>
<event>
 6    1  0.9131597E-012  0.3000000E+03  0.7818608E-02  0.1093470E+00
          1   -1    0    0  502    0  0.00000000000E+00  0.00000000000E+00  0.22865362285E+03  0.22865362285E+03  0.00000000000E+00 0.  1.
         13   -1    0    0    0    0 -0.00000000000E+00 -0.00000000000E+00 -0.27500000000E+03  0.27500000000E+03  0.00000000000E+00 0.  1.
    9000005    2    1    2  501    0  0.32573263898E+02  0.36701862160E+01 -0.62667855686E+02  0.46703561568E+03  0.46164977893E+03 0.  0.
         13    1    3    3    0    0  0.19694703323E+03 -0.74879927866E+02 -0.15616652138E+03  0.26226536160E+03  0.00000000000E+00 0.  1.
          3    1    3    3  501    0 -0.16437376933E+03  0.78550114082E+02  0.93498665697E+02  0.20477025408E+03  0.00000000000E+00 0.  1.
         21    1    1    2  502  501 -0.32573263898E+02 -0.36701862160E+01  0.16321478541E+02  0.36618007176E+02  0.00000000000E+00 0.  1.
<scales pt_clust_4="550.00000" pt_clust_5="550.00000" pt_clust_6="32.77938"></scales>
<mgrwt>
<rscale>  0 0.30000000E+03</rscale>
<asrwt>  1 0.32779381E+02</asrwt>
<pdfrwt beam="1">  1        1 0.83146772E+00 0.30000000E+03</pdfrwt>
<pdfrwt beam="2">0</pdfrwt>
<totfact> 0.58229214E-04</totfact>
</mgrwt>
<clustering>
<clus scale="   32.779">  1  6  2 -1</clus>
<clus scale="  461.650">  4  5 -1 -1</clus>
<clus scale="  300.000">  1  4  2 -1</clus>
</clustering>
</event>
<event>
 6    1  0.9131597E-012  0.3000000E+03  0.7818608E-02  0.1093470E+00
          1   -1    0    0  502    0  0.00000000000E+00  0.00000000000E+00  0.24694267418E+03  0.24694267418E+03  0.00000000000E+00 0.  1.
         13   -1    0    0    0    0 -0.00000000000E+00 -0.00000000000E+00 -0.27500000000E+03  0.27500000000E+03  0.00000000000E+00 0.  1.
    9000005    2    1    2  501    0  0.16198683548E+02  0.36176699947E+02 -0.70111680259E+02  0.46415236621E+03  0.45711116852E+03 0.  0.
         13    1    3    3    0    0  0.10168067618E+03  0.10233036690E+03 -0.22979638988E+03  0.27132424274E+03  0.00000000000E+00 0.  1.
          1    1    3    3  501    0 -0.85481992629E+02 -0.66153666956E+02  0.15968470962E+03  0.19282812347E+03  0.00000000000E+00 0.  1.
         21    1    1    2  502  501 -0.16198683548E+02 -0.36176699947E+02  0.42054354440E+02  0.57790307968E+02  0.00000000000E+00 0.  1.
<scales pt_clust_4="550.00000" pt_clust_5="550.00000" pt_clust_6="39.63775"></scales>
<mgrwt>
<rscale>  0 0.30000000E+03</rscale>
<asrwt>  1 0.39637747E+02</asrwt>
<pdfrwt beam="1">  1        1 0.89797336E+00 0.30000000E+03</pdfrwt>
<pdfrwt beam="2">0</pdfrwt>
<totfact> 0.11411341E-04</totfact>
</mgrwt>
<clustering>
<clus scale="   39.638">  1  6  2 -1</clus>
<clus scale="  457.111">  4  5 -1 -1</clus>
<clus scale="  300.000">  1  4  2 -1</clus>
</clustering>
</event>
<event>
 6    1  0.9131597E-012  0.3000000E+03  0.7818608E-02  0.1093470E+00
          1   -1    0    0  502    0  0.00000000000E+00  0.00000000000E+00  0.24618301021E+03  0.24618301021E+03  0.00000000000E+00 0.  1.
         13   -1    0    0    0    0 -0.00000000000E+00 -0.00000000000E+00 -0.27500000000E+03  0.27500000000E+03  0.00000000000E+00 0.  1.
    9000005    2    1    2  501    0 -0.31576010093E+02  0.12252269410E+01 -0.70419101493E+02  0.46894048641E+03  0.46254489982E+03 0.  0.
         13    1    3    3    0    0 -0.20040438334E+02  0.15671076083E+03 -0.20786801487E+03  0.26109192507E+03  0.00000000000E+00 0.  1.
          3    1    3    3  501    0 -0.11535571759E+02 -0.15548553389E+03  0.13744891338E+03  0.20784856135E+03  0.00000000000E+00 0.  1.
         21    1    1    2  502  501  0.31576010093E+02 -0.12252269410E+01  0.41602111708E+02  0.52242523800E+02  0.00000000000E+00 0.  1.
<scales pt_clust_4="550.00000" pt_clust_5="550.00000" pt_clust_6="31.59977"></scales>
<mgrwt>
<rscale>  0 0.30000000E+03</rscale>
<asrwt>  1 0.31599772E+02</asrwt>
<pdfrwt beam="1">  1        1 0.89521095E+00 0.30000000E+03</pdfrwt>
<pdfrwt beam="2">0</pdfrwt>
<totfact> 0.12785147E-04</totfact>
</mgrwt>
<clustering>
<clus scale="   31.600">  1  6  2 -1</clus>
<clus scale="  462.545">  4  5 -1 -1</clus>
<clus scale="  300.000">  1  4  2 -1</clus>
</clustering>
</event>
<event>
 6    1  0.9131597E-012  0.3000000E+03  0.7818608E-02  0.1093470E+00
          1   -1    0    0  502    0  0.00000000000E+00  0.00000000000E+00  0.22392865760E+03  0.22392865760E+03  0.00000000000E+00 0.  1.
         13   -1    0    0    0    0 -0.00000000000E+00 -0.00000000000E+00 -0.27500000000E+03  0.27500000000E+03  0.00000000000E+00 0.  1.
    9000005    2    1    2  501    0  0.31332724454E+02  0.22656249410E+01 -0.43462773196E+02  0.46660586374E+03  0.46351391213E+03 0.  0.
         13    1    3    3    0    0  0.52433216344E+01 -0.95887466797E+02 -0.23275606912E+03  0.25178817769E+03  0.00000000000E+00 0.  1.
          1    1    3    3  501    0  0.26089402820E+02  0.98153091738E+02  0.18929329593E+03  0.21481768605E+03  0.00000000000E+00 0.  1.
         21    1    1    2  502  501 -0.31332724454E+02 -0.22656249410E+01 -0.76085691999E+01  0.32322793867E+02  0.00000000000E+00 0. -1.
<scales pt_clust_4="550.00000" pt_clust_5="550.00000" pt_clust_6="31.41455"></scales>
<mgrwt>
<rscale>  0 0.30000000E+03</rscale>
<asrwt>  1 0.31414545E+02</asrwt>
<pdfrwt beam="1">  1        1 0.81428603E+00 0.30000000E+03</pdfrwt>
<pdfrwt beam="2">0</pdfrwt>
<totfact> 0.82329834E-04</totfact>
</mgrwt>
<clustering>
<clus scale="   31.415">  1  6  2 -1</clus>
<clus scale="  463.514">  4  5 -1 -1</clus>
<clus scale="  300.000">  1  4  2 -1</clus>
</clustering>
</event>
<event>
 6    1  0.9131597E-012  0.3000000E+03  0.7818608E-02  0.1093470E+00
          1   -1    0    0  502    0  0.00000000000E+00  0.00000000000E+00  0.23343988885E+03  0.23343988885E+03  0.00000000000E+00 0.  1.
         13   -1    0    0    0    0 -0.00000000000E+00 -0.00000000000E+00 -0.27500000000E+03  0.27500000000E+03  0.00000000000E+00 0.  1.
    9000005    2    1    2  501    0  0.39327004722E+02  0.78861798555E+01 -0.43544821889E+02  0.46828090219E+03  0.46452346196E+03 0.  0.
         13    1    3    3    0    0  0.15580212301E+03  0.10015688247E+03  0.13996391377E+03  0.23215425862E+03  0.00000000000E+00 0.  1.
          3    1    3    3  501    0 -0.11647511829E+03 -0.92270702612E+02 -0.18350873565E+03  0.23612664357E+03  0.00000000000E+00 0.  1.
         21    1    1    2  502  501 -0.39327004722E+02 -0.78861798555E+01  0.19847107427E+01  0.40158986664E+02  0.00000000000E+00 0.  1.
<scales pt_clust_4="550.00000" pt_clust_5="550.00000" pt_clust_6="40.10991"></scales>
<mgrwt>
<rscale>  0 0.30000000E+03</rscale>
<asrwt>  1 0.40109913E+02</asrwt>
<pdfrwt beam="1">  1        1 0.84887232E+00 0.30000000E+03</pdfrwt>
<pdfrwt beam="2">0</pdfrwt>
<totfact> 0.40659239E-04</totfact>
</mgrwt>
<clustering>
<clus scale="   40.110">  1  6  2 -1</clus>
<clus scale="  464.523">  4  5 -1 -1</clus>
<clus scale="  300.000">  1  4  2 -1</clus>
</clustering>
</event>
<event>
 6    1  0.9131597E-012  0.3000000E+03  0.7818608E-02  0.1093470E+00
          1   -1    0    0  502    0  0.00000000000E+00  0.00000000000E+00  0.23184744164E+03  0.23184744164E+03  0.00000000000E+00 0.  1.
         13   -1    0    0    0    0 -0.00000000000E+00 -0.00000000000E+00 -0.27500000000E+03  0.27500000000E+03  0.00000000000E+00 0.  1.
    9000005    2    1    2  501    0  0.11804429357E+02  0.35038682735E+02 -0.60248196765E+02  0.46611275503E+03  0.46072139233E+03 0.  0.
         13    1    3    3    0    0  0.21860630188E+03  0.99267851015E+02 -0.67655575080E+02  0.24943956844E+03  0.00000000000E+00 0.  1.
          3    1    3    3  501    0 -0.20680187252E+03 -0.64229168280E+02  0.74073783145E+01  0.21667318659E+03  0.00000000000E+00 0.  1.
         21    1    1    2  502  501 -0.11804429357E+02 -0.35038682735E+02  0.17095638402E+02  0.40734686603E+02  0.00000000000E+00 0. -1.
<scales pt_clust_4="550.00000" pt_clust_5="550.00000" pt_clust_6="36.97369"></scales>
<mgrwt>
<rscale>  0 0.30000000E+03</rscale>
<asrwt>  1 0.36973691E+02</asrwt>
<pdfrwt beam="1">  1        1 0.84308161E+00 0.30000000E+03</pdfrwt>
<pdfrwt beam="2">0</pdfrwt>
<totfact> 0.46453322E-04</totfact>
</mgrwt>
<clustering>
<clus scale="   36.974">  1  6  2 -1</clus>
<clus scale="  460.721">  4  5 -1 -1</clus>
<clus scale="  300.000">  1  4  2 -1</clus>
</clustering>
</event>
<event>
 6    1  0.9131597E-012  0.3000000E+03  0.7818608E-02  0.1093470E+00
          1   -1    0    0  502    0  0.00000000000E+00  0.00000000000E+00  0.24928463998E+03  0.24928463998E+03  0.00000000000E+00 0.  1.
         13   -1    0    0    0    0 -0.00000000000E+00 -0.00000000000E+00 -0.27500000000E+03  0.27500000000E+03  0.00000000000E+00 0.  1.
    9000005    2    1    2  501    0  0.33367763804E+02 -0.91550004456E+01 -0.54987730621E+02  0.47896253307E+03  0.47453581094E+03 0.  0.
         13    1    3    3    0    0  0.23845954557E+03 -0.79738511326E+02 -0.71586984223E+02  0.26143045227E+03  0.00000000000E+00 0.  1.
          3    1    3    3  501    0 -0.20509178177E+03  0.70583510880E+02  0.16599253602E+02  0.21753208080E+03  0.00000000000E+00 0.  1.
         21    1    1    2  502  501 -0.33367763804E+02  0.91550004456E+01  0.29272370597E+02  0.45322106911E+02  0.00000000000E+00 0. -1.
<scales pt_clust_4="550.00000" pt_clust_5="550.00000" pt_clust_6="34.60089"></scales>
<mgrwt>
<rscale>  0 0.30000000E+03</rscale>
<asrwt>  1 0.34600892E+02</asrwt>
<pdfrwt beam="1">  1        1 0.90648960E+00 0.30000000E+03</pdfrwt>
<pdfrwt beam="2">0</pdfrwt>
<totfact> 0.86551036E-05</totfact>
</mgrwt>
<clustering>
<clus scale="   34.601">  1  6  2 -1</clus>
<clus scale="  474.536">  4  5 -1 -1</clus>
<clus scale="  300.000">  1  4  2 -1</clus>
</clustering>
</event>
<event>
 6    1  0.9131597E-012  0.3000000E+03  0.7818608E-02  0.1093470E+00
          1   -1    0    0  502    0  0.00000000000E+00  0.00000000000E+00  0.22329134703E+03  0.22329134703E+03  0.00000000000E+00 0.  1.
         13   -1    0    0    0    0 -0.00000000000E+00 -0.00000000000E+00 -0.27500000000E+03  0.27500000000E+03  0.00000000000E+00 0.  1.
    9000005    2    1    2  501    0  0.27518116472E+02 -0.22122673033E+02 -0.37765680277E+02  0.46032997346E+03  0.45741751001E+03 0.  0.
         13    1    3    3    0    0  0.15227284682E+03 -0.61320114190E+02  0.15607160955E+03  0.22650722635E+03  0.00000000000E+00 0.  1.
          1    1    3    3  501    0 -0.12475473035E+03  0.39197441157E+02 -0.19383728982E+03  0.23382274711E+03  0.00000000000E+00 0.  1.
         21    1    1    2  502  501 -0.27518116472E+02  0.22122673033E+02 -0.13942972688E+02  0.37961373574E+02  0.00000000000E+00 0. -1.
<scales pt_clust_4="550.00000" pt_clust_5="550.00000" pt_clust_6="35.30808"></scales>
<mgrwt>
<rscale>  0 0.30000000E+03</rscale>
<asrwt>  1 0.35308082E+02</asrwt>
<pdfrwt beam="1">  1        1 0.81196853E+00 0.30000000E+03</pdfrwt>
<pdfrwt beam="2">0</pdfrwt>
<totfact> 0.84029948E-04</totfact>
</mgrwt>
<clustering>
<clus scale="   35.308">  1  6  2 -1</clus>
<clus scale="  457.418">  4  5 -1 -1</clus>
<clus scale="  300.000">  1  4  2 -1</clus>
</clustering>
</event>
<event>
 6    1  0.9131597E-012  0.3000000E+03  0.7818608E-02  0.1093470E+00
          1   -1    0    0  502    0  0.00000000000E+00  0.00000000000E+00  0.24047931230E+03  0.24047931230E+03  0.00000000000E+00 0.  1.
         13   -1    0    0    0    0 -0.00000000000E+00 -0.00000000000E+00 -0.27500000000E+03  0.27500000000E+03  0.00000000000E+00 0.  1.
    9000005    2    1    2  501    0 -0.24417253741E+02 -0.20571165194E+02 -0.52638271081E+02  0.47876934165E+03  0.47479460802E+03 0.  0.
         13    1    3    3    0    0  0.81330574768E+02  0.12255046300E+03  0.14932215174E+03  0.20959576182E+03  0.00000000000E+00 0.  1.
          3    1    3    3  501    0 -0.10574782851E+03 -0.14312162819E+03 -0.20196042282E+03  0.26917357983E+03  0.00000000000E+00 0.  1.
         21    1    1    2  502  501  0.24417253741E+02  0.20571165194E+02  0.18117583378E+02  0.36709970650E+02  0.00000000000E+00 0.  1.
<scales pt_clust_4="550.00000" pt_clust_5="550.00000" pt_clust_6="31.92765"></scales>
<mgrwt>
<rscale>  0 0.30000000E+03</rscale>
<asrwt>  1 0.31927654E+02</asrwt>
<pdfrwt beam="1">  1        1 0.87447023E+00 0.30000000E+03</pdfrwt>
<pdfrwt beam="2">0</pdfrwt>
<totfact> 0.23181778E-04</totfact>
</mgrwt>
<clustering>
<clus scale="   31.928">  1  6  2 -1</clus>
<clus scale="  474.795">  4  5 -1 -1</clus>
<clus scale="  300.000">  1  4  2 -1</clus>
</clustering>
</event>
<event>
 6    1  0.9131597E-012  0.3000000E+03  0.7818608E-02  0.1093470E+00
          1   -1    0    0  502    0  0.00000000000E+00  0.00000000000E+00  0.22412011099E+03  0.22412011099E+03  0.00000000000E+00 0.  1.
         13   -1    0    0    0    0 -0.00000000000E+00 -0.00000000000E+00 -0.27500000000E+03  0.27500000000E+03  0.00000000000E+00 0.  1.
    9000005    2    1    2  501    0 -0.34667808254E+02 -0.35022146619E+01 -0.45228861394E+02  0.46382058479E+03  0.46029312675E+03 0.  0.
         13    1    3    3    0    0 -0.16249551719E+03 -0.16818662382E+03  0.42408739732E+02  0.23767632348E+03  0.00000000000E+00 0.  1.
          1    1    3    3  501    0  0.12782770894E+03  0.16468440916E+03 -0.87637601126E+02  0.22614426131E+03  0.00000000000E+00 0.  1.
         21    1    1    2  502  501  0.34667808254E+02  0.35022146619E+01 -0.56510276193E+01  0.35299526198E+02  0.00000000000E+00 0.  1.
<scales pt_clust_4="550.00000" pt_clust_5="550.00000" pt_clust_6="34.84428"></scales>
<mgrwt>
<rscale>  0 0.30000000E+03</rscale>
<asrwt>  1 0.34844277E+02</asrwt>
<pdfrwt beam="1">  1        1 0.81498222E+00 0.30000000E+03</pdfrwt>
<pdfrwt beam="2">0</pdfrwt>
<totfact> 0.79697092E-04</totfact>
</mgrwt>
<clustering>
<clus scale="   34.844">  1  6  2 -1</clus>
<clus scale="  460.293">  4  5 -1 -1</clus>
<clus scale="  300.000">  1  4  2 -1</clus>
</clustering>
</event>
<event>
 6    1  0.9131597E-012  0.3000000E+03  0.7818608E-02  0.1093470E+00
          1   -1    0    0  502    0  0.00000000000E+00  0.00000000000E+00  0.23299573900E+03  0.23299573900E+03  0.00000000000E+00 0.  1.
         13   -1    0    0    0    0 -0.00000000000E+00 -0.00000000000E+00 -0.27500000000E+03  0.27500000000E+03  0.00000000000E+00 0.  1.
    9000005    2    1    2  501    0 -0.27000088357E+02 -0.27317802079E+02 -0.25391844482E+02  0.46614792586E+03  0.46386838213E+03 0.  0.
         13    1    3    3    0    0 -0.13307260567E+01 -0.21321572812E+02  0.21915031918E+03  0.22018910667E+03  0.00000000000E+00 0.  1.
          1    1    3    3  501    0 -0.25669362300E+02 -0.59962292674E+01 -0.24454216367E+03  0.24595881919E+03  0.00000000000E+00 0.  1.
         21    1    1    2  502  501  0.27000088357E+02  0.27317802079E+02 -0.16612416519E+02  0.41847813137E+02  0.00000000000E+00 0.  1.
<scales pt_clust_4="550.00000" pt_clust_5="550.00000" pt_clust_6="38.40922"></scales>
<mgrwt>
<rscale>  0 0.30000000E+03</rscale>
<asrwt>  1 0.38409225E+02</asrwt>
<pdfrwt beam="1">  1        1 0.84725723E+00 0.30000000E+03</pdfrwt>
<pdfrwt beam="2">0</pdfrwt>
<totfact> 0.42402784E-04</totfact>
</mgrwt>
<clustering>
<clus scale="   38.409">  1  6  2 -1</clus>
<clus scale="  463.868">  4  5 -1 -1</clus>
<clus scale="  300.000">  1  4  2 -1</clus>
</clustering>
</event>
<event>
 6    1  0.9131597E-012  0.3000000E+03  0.7818608E-02  0.1093470E+00
          1   -1    0    0  502    0  0.00000000000E+00  0.00000000000E+00  0.23960063559E+03  0.23960063559E+03  0.00000000000E+00 0.  1.
         13   -1    0    0    0    0 -0.00000000000E+00 -0.00000000000E+00 -0.27500000000E+03  0.27500000000E+03  0.00000000000E+00 0.  1.
    9000005    2    1    2  501    0  0.27705170341E+02 -0.14769242613E+02 -0.52780824545E+02  0.47871439662E+03  0.47475883467E+03 0.  0.
         13    1    3    3    0    0 -0.14866328895E+03  0.55342458183E+02  0.13752428284E+03  0.20994401522E+03  0.00000000000E+00 0.  1.
          3    1    3    3  501    0  0.17636845929E+03 -0.70111700796E+02 -0.19030510738E+03  0.26877038140E+03  0.00000000000E+00 0.  1.
         21    1    1    2  502  501 -0.27705170341E+02  0.14769242613E+02  0.17381460131E+02  0.35886238968E+02  0.00000000000E+00 0. -1.
<scales pt_clust_4="550.00000" pt_clust_5="550.00000" pt_clust_6="31.39597"></scales>
<mgrwt>
<rscale>  0 0.30000000E+03</rscale>
<asrwt>  1 0.31395971E+02</asrwt>
<pdfrwt beam="1">  1        1 0.87127504E+00 0.30000000E+03</pdfrwt>
<pdfrwt beam="2">0</pdfrwt>
<totfact> 0.25087012E-04</totfact>
</mgrwt>
<clustering>
<clus scale="   31.396">  1  6  2 -1</clus>
<clus scale="  474.759">  4  5 -1 -1</clus>
<clus scale="  300.000">  1  4  2 -1</clus>
</clustering>
</event>
<event>
 6    1  0.9131597E-012  0.3000000E+03  0.7818608E-02  0.1093470E+00
          1   -1    0    0  502    0  0.00000000000E+00  0.00000000000E+00  0.22214966288E+03  0.22214966288E+03  0.00000000000E+00 0.  1.
         13   -1    0    0    0    0 -0.00000000000E+00 -0.00000000000E+00 -0.27500000000E+03  0.27500000000E+03  0.00000000000E+00 0.  1.
    9000005    2    1    2  501    0 -0.30217829087E+02 -0.48670688109E+01 -0.52910461194E+02  0.46654232441E+03  0.46252072171E+03 0.  0.
         13    1    3    3    0    0 -0.26559462834E+02 -0.13524241915E+03 -0.21691524759E+03  0.25699833003E+03  0.00000000000E+00 0.  1.
          1    1    3    3  501    0 -0.36583662533E+01  0.13037535034E+03  0.16400478639E+03  0.20954399438E+03  0.00000000000E+00 0.  1.
         21    1    1    2  502  501  0.30217829087E+02  0.48670688109E+01  0.60124077418E-01  0.30607338474E+02  0.00000000000E+00 0. -1.
<scales pt_clust_4="550.00000" pt_clust_5="550.00000" pt_clust_6="30.60728"></scales>
<mgrwt>
<rscale>  0 0.30000000E+03</rscale>
<asrwt>  1 0.30607279E+02</asrwt>
<pdfrwt beam="1">  1        1 0.80781696E+00 0.30000000E+03</pdfrwt>
<pdfrwt beam="2">0</pdfrwt>
<totfact> 0.93012223E-04</totfact>
</mgrwt>
<clustering>
<clus scale="   30.607">  1  6  2 -1</clus>
<clus scale="  462.521">  4  5 -1 -1</clus>
<clus scale="  300.000">  1  4  2 -1</clus>
</clustering>
</event>
<event>
 6    1  0.9131597E-012  0.3000000E+03  0.7818608E-02  0.1093470E+00
          1   -1    0    0  502    0  0.00000000000E+00  0.00000000000E+00  0.24979732156E+03  0.24979732156E+03  0.00000000000E+00 0.  1.
         13   -1    0    0    0    0 -0.00000000000E+00 -0.00000000000E+00 -0.27500000000E+03  0.27500000000E+03  0.00000000000E+00 0.  1.
    9000005    2    1    2  501    0 -0.41261237245E+02  0.19968314800E+02 -0.29278838402E+02  0.47877734356E+03  0.47567769659E+03 0.  0.
         13    1    3    3    0    0  0.14217304660E+03 -0.12907409291E+03 -0.11907037785E+03  0.22594479751E+03  0.00000000000E+00 0.  1.
          1    1    3    3  501    0 -0.18343428385E+03  0.14904240771E+03  0.89791539444E+02  0.25283254605E+03  0.00000000000E+00 0.  1.
         21    1    1    2  502  501  0.41261237245E+02 -0.19968314800E+02  0.40761599630E+01  0.46019977999E+02  0.00000000000E+00 0.  1.
<scales pt_clust_4="550.00000" pt_clust_5="550.00000" pt_clust_6="45.83910"></scales>
<mgrwt>
<rscale>  0 0.30000000E+03</rscale>
<asrwt>  1 0.45839102E+02</asrwt>
<pdfrwt beam="1">  1        1 0.90835390E+00 0.30000000E+03</pdfrwt>
<pdfrwt beam="2">0</pdfrwt>
<totfact> 0.74827451E-05</totfact>
</mgrwt>
<clustering>
<clus scale="   45.839">  1  6  2 -1</clus>
<clus scale="  475.678">  4  5 -1 -1</clus>
<clus scale="  300.000">  1  4  2 -1</clus>
</clustering>
</event>
<event>
 6    1  0.9131597E-012  0.3000000E+03  0.7818608E-02  0.1093470E+00
          1   -1    0    0  502    0  0.00000000000E+00  0.00000000000E+00  0.24666531643E+03  0.24666531643E+03  0.00000000000E+00 0.  1.
         13   -1    0    0    0    0 -0.00000000000E+00 -0.00000000000E+00 -0.27500000000E+03  0.27500000000E+03  0.00000000000E+00 0.  1.
    9000005    2    1    2  501    0 -0.21137157924E+02 -0.32412006673E+02 -0.63595228477E+02  0.46931435036E+03  0.46337273198E+03 0.  0.
         13    1    3    3    0    0  0.13556458444E+03 -0.13755159787E+03  0.10186252160E+03  0.21834415939E+03  0.00000000000E+00 0.  1.
          3    1    3    3  501    0 -0.15670174236E+03  0.10513959120E+03 -0.16545775008E+03  0.25097019097E+03  0.00000000000E+00 0.  1.
         21    1    1    2  502  501  0.21137157924E+02  0.32412006673E+02  0.35260544912E+02  0.52350966076E+02  0.00000000000E+00 0.  1.
<scales pt_clust_4="550.00000" pt_clust_5="550.00000" pt_clust_6="38.69519"></scales>
<mgrwt>
<rscale>  0 0.30000000E+03</rscale>
<asrwt>  1 0.38695189E+02</asrwt>
<pdfrwt beam="1">  1        1 0.89696479E+00 0.30000000E+03</pdfrwt>
<pdfrwt beam="2">0</pdfrwt>
<totfact> 0.11767141E-04</totfact>
</mgrwt>
<clustering>
<clus scale="   38.695">  1  6  2 -1</clus>
<clus scale="  463.373">  4  5 -1 -1</clus>
<clus scale="  300.000">  1  4  2 -1</clus>
</clustering>
</event>
<event>
 6    1  0.9131597E-012  0.3000000E+03  0.7818608E-02  0.1093470E+00
          1   -1    0    0  502    0  0.00000000000E+00  0.00000000000E+00  0.22714628467E+03  0.22714628467E+03  0.00000000000E+00 0.  1.
         13   -1    0    0    0    0 -0.00000000000E+00 -0.00000000000E+00 -0.27500000000E+03  0.27500000000E+03  0.00000000000E+00 0.  1.
    9000005    2    1    2  501    0 -0.30463647121E+02 -0.15406141937E+02 -0.35324367850E+02  0.46578191263E+03  0.46318419248E+03 0.  0.
         13    1    3    3    0    0 -0.43232968729E+02 -0.23638965377E+03  0.70333550266E+01  0.24041344820E+03  0.00000000000E+00 0.  1.
          3    1    3    3  501    0  0.12769321608E+02  0.22098351183E+03 -0.42357722876E+02  0.22536846443E+03  0.00000000000E+00 0.  1.
         21    1    1    2  502  501  0.30463647121E+02  0.15406141937E+02 -0.12529347480E+02  0.36364372036E+02  0.00000000000E+00 0.  1.
<scales pt_clust_4="550.00000" pt_clust_5="550.00000" pt_clust_6="34.13772"></scales>
<mgrwt>
<rscale>  0 0.30000000E+03</rscale>
<asrwt>  1 0.34137724E+02</asrwt>
<pdfrwt beam="1">  1        1 0.82598649E+00 0.30000000E+03</pdfrwt>
<pdfrwt beam="2">0</pdfrwt>
<totfact> 0.64309226E-04</totfact>
</mgrwt>
<clustering>
<clus scale="   34.138">  1  6  2 -1</clus>
<clus scale="  463.184">  4  5 -1 -1</clus>
<clus scale="  300.000">  1  4  2 -1</clus>
</clustering>
</event>
<event>
 6    1  0.9131597E-012  0.3000000E+03  0.7818608E-02  0.1093470E+00
          1   -1    0    0  502    0  0.00000000000E+00  0.00000000000E+00  0.24650523149E+03  0.24650523149E+03  0.00000000000E+00 0.  1.
         13   -1    0    0    0    0 -0.00000000000E+00 -0.00000000000E+00 -0.27500000000E+03  0.27500000000E+03  0.00000000000E+00 0.  1.
    9000005    2    1    2  501    0 -0.21177651877E+02 -0.33621125683E+02 -0.60834064794E+02  0.47027337504E+03  0.46462607633E+03 0.  0.
         13    1    3    3    0    0  0.16496867815E+03 -0.16029231654E+03 -0.81826558755E+02  0.24413905306E+03  0.00000000000E+00 0.  1.
          3    1    3    3  501    0 -0.18614633002E+03  0.12667119086E+03  0.20992493961E+02  0.22613432198E+03  0.00000000000E+00 0.  1.
         21    1    1    2  502  501  0.21177651877E+02  0.33621125683E+02  0.32339296286E+02  0.51231856452E+02  0.00000000000E+00 0.  1.
<scales pt_clust_4="550.00000" pt_clust_5="550.00000" pt_clust_6="39.73504"></scales>
<mgrwt>
<rscale>  0 0.30000000E+03</rscale>
<asrwt>  1 0.39735035E+02</asrwt>
<pdfrwt beam="1">  1        1 0.89638266E+00 0.30000000E+03</pdfrwt>
<pdfrwt beam="2">0</pdfrwt>
<totfact> 0.11886922E-04</totfact>
</mgrwt>
<clustering>
<clus scale="   39.735">  1  6  2 -1</clus>
<clus scale="  464.626">  4  5 -1 -1</clus>
<clus scale="  300.000">  1  4  2 -1</clus>
</clustering>
</event>
<event>
 6    1  0.9131597E-012  0.3000000E+03  0.7818608E-02  0.1093470E+00
          1   -1    0    0  502    0  0.00000000000E+00  0.00000000000E+00  0.24454124767E+03  0.24454124767E+03  0.00000000000E+00 0.  1.
         13   -1    0    0    0    0 -0.00000000000E+00 -0.00000000000E+00 -0.27500000000E+03  0.27500000000E+03  0.00000000000E+00 0.  1.
    9000005    2    1    2  501    0 -0.20276568633E+02 -0.32231606830E+02 -0.11594738590E+02  0.47704575698E+03  0.47538216266E+03 0.  0.
         13    1    3    3    0    0  0.18485507008E+03  0.96087985917E+02 -0.83773146202E+02  0.22454896570E+03  0.00000000000E+00 0.  1.
          1    1    3    3  501    0 -0.20513163871E+03 -0.12831959275E+03  0.72178407613E+02  0.25249679128E+03  0.00000000000E+00 0.  1.
         21    1    1    2  502  501  0.20276568633E+02  0.32231606830E+02 -0.18864013745E+02  0.42495490689E+02  0.00000000000E+00 0. -1.
<scales pt_clust_4="550.00000" pt_clust_5="550.00000" pt_clust_6="38.07909"></scales>
<mgrwt>
<rscale>  0 0.30000000E+03</rscale>
<asrwt>  1 0.38079091E+02</asrwt>
<pdfrwt beam="1">  1        1 0.88924090E+00 0.30000000E+03</pdfrwt>
<pdfrwt beam="2">0</pdfrwt>
<totfact> 0.14609104E-04</totfact>
</mgrwt>
<clustering>
<clus scale="   38.079">  1  6  2 -1</clus>
<clus scale="  475.382">  4  5 -1 -1</clus>
<clus scale="  300.000">  1  4  2 -1</clus>
</clustering>
</event>
<event>
 6    1  0.9131597E-012  0.3000000E+03  0.7818608E-02  0.1093470E+00
          1   -1    0    0  502    0  0.00000000000E+00  0.00000000000E+00  0.23025740299E+03  0.23025740299E+03  0.00000000000E+00 0.  1.
         13   -1    0    0    0    0 -0.00000000000E+00 -0.00000000000E+00 -0.27500000000E+03  0.27500000000E+03  0.00000000000E+00 0.  1.
    9000005    2    1    2  501    0 -0.24883755091E+02 -0.28621834495E+02 -0.29831951108E+02  0.46450524921E+03  0.46199217586E+03 0.  0.
         13    1    3    3    0    0  0.16102840728E+03  0.13224425568E+03 -0.59937929450E+02  0.21682077045E+03  0.00000000000E+00 0.  1.
          3    1    3    3  501    0 -0.18591216237E+03 -0.16086609018E+03  0.30105978342E+02  0.24768447876E+03  0.00000000000E+00 0.  1.
         21    1    1    2  502  501  0.24883755091E+02  0.28621834495E+02 -0.14910645898E+02  0.40752153788E+02  0.00000000000E+00 0. -1.
<scales pt_clust_4="550.00000" pt_clust_5="550.00000" pt_clust_6="37.92640"></scales>
<mgrwt>
<rscale>  0 0.30000000E+03</rscale>
<asrwt>  1 0.37926404E+02</asrwt>
<pdfrwt beam="1">  1        1 0.83729965E+00 0.30000000E+03</pdfrwt>
<pdfrwt beam="2">0</pdfrwt>
<totfact> 0.51286562E-04</totfact>
</mgrwt>
<clustering>
<clus scale="   37.926">  1  6  2 -1</clus>
<clus scale="  461.992">  4  5 -1 -1</clus>
<clus scale="  300.000">  1  4  2 -1</clus>
</clustering>
</event>
<event>
 6    1  0.9131597E-012  0.3000000E+03  0.7818608E-02  0.1093470E+00
          1   -1    0    0  502    0  0.00000000000E+00  0.00000000000E+00  0.23179105610E+03  0.23179105610E+03  0.00000000000E+00 0.  1.
         13   -1    0    0    0    0 -0.00000000000E+00 -0.00000000000E+00 -0.27500000000E+03  0.27500000000E+03  0.00000000000E+00 0.  1.
    9000005    2    1    2  501    0 -0.31510197576E+02  0.13222420608E+02 -0.33014948498E+02  0.47113095935E+03  0.46872877987E+03 0.  0.
         13    1    3    3    0    0  0.17725089462E+03 -0.13265293807E+02 -0.14803062698E+03  0.23131561596E+03  0.00000000000E+00 0.  1.
          3    1    3    3  501    0 -0.20876109220E+03  0.26487714415E+02  0.11501567848E+03  0.23981534339E+03  0.00000000000E+00 0.  1.
         21    1    1    2  502  501  0.31510197576E+02 -0.13222420608E+02 -0.10193995398E+02  0.35660096749E+02  0.00000000000E+00 0. -1.
<scales pt_clust_4="550.00000" pt_clust_5="550.00000" pt_clust_6="34.17201"></scales>
<mgrwt>
<rscale>  0 0.30000000E+03</rscale>
<asrwt>  1 0.34172008E+02</asrwt>
<pdfrwt beam="1">  1        1 0.84287657E+00 0.30000000E+03</pdfrwt>
<pdfrwt beam="2">0</pdfrwt>
<totfact> 0.47329033E-04</totfact>
</mgrwt>
<clustering>
<clus scale="   34.172">  1  6  2 -1</clus>
<clus scale="  468.729">  4  5 -1 -1</clus>
<clus scale="  300.000">  1  4  2 -1</clus>
</clustering>
</event>
<event>
 6    1  0.9131597E-012  0.3000000E+03  0.7818608E-02  0.1093470E+00
          1   -1    0    0  502    0  0.00000000000E+00  0.00000000000E+00  0.24035765906E+03  0.24035765906E+03  0.00000000000E+00 0.  1.
         13   -1    0    0    0    0 -0.00000000000E+00 -0.00000000000E+00 -0.27500000000E+03  0.27500000000E+03  0.00000000000E+00 0.  1.
    9000005    2    1    2  501    0 -0.19501481149E+02  0.28091726930E+02 -0.59368975509E+02  0.47315742984E+03  0.46817072236E+03 0.  0.
         13    1    3    3    0    0  0.95714153358E+01 -0.17296596769E+03  0.11292267602E+03  0.20678580398E+03  0.00000000000E+00 0.  1.
          3    1    3    3  501    0 -0.29072896485E+02  0.20105769462E+03 -0.17229165153E+03  0.26637162586E+03  0.00000000000E+00 0.  1.
         21    1    1    2  502  501  0.19501481149E+02 -0.28091726930E+02  0.24726634567E+02  0.42200229217E+02  0.00000000000E+00 0.  1.
<scales pt_clust_4="550.00000" pt_clust_5="550.00000" pt_clust_6="34.19726"></scales>
<mgrwt>
<rscale>  0 0.30000000E+03</rscale>
<asrwt>  1 0.34197264E+02</asrwt>
<pdfrwt beam="1">  1        1 0.87402785E+00 0.30000000E+03</pdfrwt>
<pdfrwt beam="2">0</pdfrwt>
<totfact> 0.23127574E-04</totfact>
</mgrwt>
<clustering>
<clus scale="   34.197">  1  6  2 -1</clus>
<clus scale="  468.171">  4  5 -1 -1</clus>
<clus scale="  300.000">  1  4  2 -1</clus>
</clustering>
</event>
<event>
 6    1  0.9131597E-012  0.3000000E+03  0.7818608E-02  0.1093470E+00
          1   -1    0    0  502    0  0.00000000000E+00  0.00000000000E+00  0.23929465075E+03  0.23929465075E+03  0.00000000000E+00 0.  1.
         13   -1    0    0    0    0 -0.00000000000E+00 -0.00000000000E+00 -0.27500000000E+03  0.27500000000E+03  0.00000000000E+00 0.  1.
    9000005    2    1    2  501    0  0.31483484527E+02  0.13387967102E+02 -0.50247107457E+02  0.47712059807E+03  0.47323233811E+03 0.  0.
         13    1    3    3    0    0 -0.18009674980E+03 -0.12633913292E+03 -0.38170153787E+02  0.22327869678E+03  0.00000000000E+00 0.  1.
          1    1    3    3  501    0  0.21158023433E+03  0.13972710002E+03 -0.12076953670E+02  0.25384190129E+03  0.00000000000E+00 0.  1.
         21    1    1    2  502  501 -0.31483484527E+02 -0.13387967102E+02  0.14541758205E+02  0.37174052682E+02  0.00000000000E+00 0.  1.
<scales pt_clust_4="550.00000" pt_clust_5="550.00000" pt_clust_6="34.21180"></scales>
<mgrwt>
<rscale>  0 0.30000000E+03</rscale>
<asrwt>  1 0.34211803E+02</asrwt>
<pdfrwt beam="1">  1        1 0.87016237E+00 0.30000000E+03</pdfrwt>
<pdfrwt beam="2">0</pdfrwt>
<totfact> 0.25336432E-04</totfact>
</mgrwt>
<clustering>
<clus scale="   34.212">  1  6  2 -1</clus>
<clus scale="  473.232">  4  5 -1 -1</clus>
<clus scale="  300.000">  1  4  2 -1</clus>
</clustering>
</event>
<event>
 6    1  0.9131597E-012  0.3000000E+03  0.7818608E-02  0.1093470E+00
          1   -1    0    0  502    0  0.00000000000E+00  0.00000000000E+00  0.23185830542E+03  0.23185830542E+03  0.00000000000E+00 0.  1.
         13   -1    0    0    0    0 -0.00000000000E+00 -0.00000000000E+00 -0.27500000000E+03  0.27500000000E+03  0.00000000000E+00 0.  1.
    9000005    2    1    2  501    0  0.44315810949E+02  0.24815548514E+01 -0.40138489571E+02  0.46237158319E+03  0.45848264240E+03 0.  0.
         13    1    3    3    0    0  0.20303789049E+03  0.10000322229E+02  0.12058652356E+03  0.23635883965E+03  0.00000000000E+00 0.  1.
          3    1    3    3  501    0 -0.15872207954E+03 -0.75187673780E+01 -0.16072501313E+03  0.22601274354E+03  0.00000000000E+00 0.  1.
         21    1    1    2  502  501 -0.44315810949E+02 -0.24815548514E+01 -0.30032050068E+01  0.44486722231E+02  0.00000000000E+00 0. -1.
<scales pt_clust_4="550.00000" pt_clust_5="550.00000" pt_clust_6="44.38524"></scales>
<mgrwt>
<rscale>  0 0.30000000E+03</rscale>
<asrwt>  1 0.44385236E+02</asrwt>
<pdfrwt beam="1">  1        1 0.84312111E+00 0.30000000E+03</pdfrwt>
<pdfrwt beam="2">0</pdfrwt>
<totfact> 0.44899034E-04</totfact>
</mgrwt>
<clustering>
<clus scale="   44.385">  1  6  2 -1</clus>
<clus scale="  458.483">  4  5 -1 -1</clus>
<clus scale="  300.000">  1  4  2 -1</clus>
</clustering>
</event>
<event>
 6    1  0.9131597E-012  0.3000000E+03  0.7818608E-02  0.1093470E+00
          1   -1    0    0  502    0  0.00000000000E+00  0.00000000000E+00  0.24943241333E+03  0.24943241333E+03  0.00000000000E+00 0.  1.
         13   -1    0    0    0    0 -0.00000000000E+00 -0.00000000000E+00 -0.27500000000E+03  0.27500000000E+03  0.00000000000E+00 0.  1.
    9000005    2    1    2  501    0 -0.28629264545E+02 -0.29319533858E+02 -0.65242415808E+02  0.46739416370E+03  0.46100050063E+03 0.  0.
         13    1    3    3    0    0 -0.13363693856E+03  0.17220761643E+03 -0.95807861679E+02  0.23810384470E+03  0.00000000000E+00 0.  1.
          1    1    3    3  501    0  0.10500767401E+03 -0.20152715029E+03  0.30565445871E+02  0.22929031900E+03  0.00000000000E+00 0.  1.
         21    1    1    2  502  501  0.28629264545E+02  0.29319533858E+02  0.39674829142E+02  0.57038249636E+02  0.00000000000E+00 0. -1.
<scales pt_clust_4="550.00000" pt_clust_5="550.00000" pt_clust_6="40.97890"></scales>
<mgrwt>
<rscale>  0 0.30000000E+03</rscale>
<asrwt>  1 0.40978895E+02</asrwt>
<pdfrwt beam="1">  1        1 0.90702696E+00 0.30000000E+03</pdfrwt>
<pdfrwt beam="2">0</pdfrwt>
<totfact> 0.81720643E-05</totfact>
</mgrwt>
<clustering>
<clus scale="   40.979">  1  6  2 -1</clus>
<clus scale="  461.001">  4  5 -1 -1</clus>
<clus scale="  300.000">  1  4  2 -1</clus>
</clustering>
</event>
<event>
 6    1  0.9131597E-012  0.3000000E+03  0.7818608E-02  0.1093470E+00
          1   -1    0    0  502    0  0.00000000000E+00  0.00000000000E+00  0.23609370714E+03  0.23609370714E+03  0.00000000000E+00 0.  1.
         13   -1    0    0    0    0 -0.00000000000E+00 -0.00000000000E+00 -0.27500000000E+03  0.27500000000E+03  0.00000000000E+00 0.  1.
    9000005    2    1    2  501    0  0.15472723193E+02  0.29548192426E+02 -0.72916150468E+02  0.46345788813E+03  0.45646900029E+03 0.  0.
         13    1    3    3    0    0  0.15680924825E+03 -0.15703797223E+03 -0.15611840217E+02  0.22247200860E+03  0.00000000000E+00 0.  1.
          3    1    3    3  501    0 -0.14133652505E+03  0.18658616466E+03 -0.57304310251E+02  0.24098587952E+03  0.00000000000E+00 0.  1.
         21    1    1    2  502  501 -0.15472723193E+02 -0.29548192426E+02  0.34009857608E+02  0.47635819014E+02  0.00000000000E+00 0.  1.
<scales pt_clust_4="550.00000" pt_clust_5="550.00000" pt_clust_6="33.35417"></scales>
<mgrwt>
<rscale>  0 0.30000000E+03</rscale>
<asrwt>  1 0.33354173E+02</asrwt>
<pdfrwt beam="1">  1        1 0.85852257E+00 0.30000000E+03</pdfrwt>
<pdfrwt beam="2">0</pdfrwt>
<totfact> 0.33837695E-04</totfact>
</mgrwt>
<clustering>
<clus scale="   33.354">  1  6  2 -1</clus>
<clus scale="  456.469">  4  5 -1 -1</clus>
<clus scale="  300.000">  1  4  2 -1</clus>
</clustering>
</event>
<event>
 6    1  0.9131597E-012  0.3000000E+03  0.7818608E-02  0.1093470E+00
          1   -1    0    0  502    0  0.00000000000E+00  0.00000000000E+00  0.22698764321E+03  0.22698764321E+03  0.00000000000E+00 0.  1.
         13   -1    0    0    0    0 -0.00000000000E+00 -0.00000000000E+00 -0.27500000000E+03  0.27500000000E+03  0.00000000000E+00 0.  1.
    9000005    2    1    2  501    0 -0.31191284225E+02  0.51060256515E+01 -0.70982856591E+02  0.46291576623E+03  0.45634797357E+03 0.  0.
         13    1    3    3    0    0  0.15437066851E+03  0.61987443532E+02 -0.17605487934E+03  0.24221491901E+03  0.00000000000E+00 0.  1.
          1    1    3    3  501    0 -0.18556195273E+03 -0.56881417880E+02  0.10507202275E+03  0.22070084722E+03  0.00000000000E+00 0.  1.
         21    1    1    2  502  501  0.31191284225E+02 -0.51060256515E+01  0.22970499799E+02  0.39071876978E+02  0.00000000000E+00 0. -1.
<scales pt_clust_4="550.00000" pt_clust_5="550.00000" pt_clust_6="31.60645"></scales>
<mgrwt>
<rscale>  0 0.30000000E+03</rscale>
<asrwt>  1 0.31606450E+02</asrwt>
<pdfrwt beam="1">  1        1 0.82540961E+00 0.30000000E+03</pdfrwt>
<pdfrwt beam="2">0</pdfrwt>
<totfact> 0.66029372E-04</totfact>
</mgrwt>
<clustering>
<clus scale="   31.606">  1  6  2 -1</clus>
<clus scale="  456.348">  4  5 -1 -1</clus>
<clus scale="  300.000">  1  4  2 -1</clus>
</clustering>
</event>
<event>
 6    1  0.9131597E-012  0.3000000E+03  0.7818608E-02  0.1093470E+00
          1   -1    0    0  502    0  0.00000000000E+00  0.00000000000E+00  0.23599903104E+03  0.23599903104E+03  0.00000000000E+00 0.  1.
         13   -1    0    0    0    0 -0.00000000000E+00 -0.00000000000E+00 -0.27500000000E+03  0.27500000000E+03  0.00000000000E+00 0.  1.
    9000005    2    1    2  501    0  0.29556518294E+02 -0.98236724626E+01 -0.45194025424E+02  0.47924298811E+03  0.47608953927E+03 0.  0.
         13    1    3    3    0    0  0.77104330189E+02  0.19412935564E+03 -0.13782013666E+03  0.25025122282E+03  0.00000000000E+00 0.  1.
          1    1    3    3  501    0 -0.47547811896E+02 -0.20395302810E+03  0.92626111236E+02  0.22899176529E+03  0.00000000000E+00 0.  1.
         21    1    1    2  502  501 -0.29556518294E+02  0.98236724626E+01  0.61930564657E+01  0.31756042932E+02  0.00000000000E+00 0. -1.
<scales pt_clust_4="550.00000" pt_clust_5="550.00000" pt_clust_6="31.14630"></scales>
<mgrwt>
<rscale>  0 0.30000000E+03</rscale>
<asrwt>  1 0.31146305E+02</asrwt>
<pdfrwt beam="1">  1        1 0.85817829E+00 0.30000000E+03</pdfrwt>
<pdfrwt beam="2">0</pdfrwt>
<totfact> 0.34566703E-04</totfact>
</mgrwt>
<clustering>
<clus scale="   31.146">  1  6  2 -1</clus>
<clus scale="  476.090">  4  5 -1 -1</clus>
<clus scale="  300.000">  1  4  2 -1</clus>
</clustering>
</event>
<event>
 6    1  0.9131597E-012  0.3000000E+03  0.7818608E-02  0.1093470E+00
          1   -1    0    0  502    0  0.00000000000E+00  0.00000000000E+00  0.23457552891E+03  0.23457552891E+03  0.00000000000E+00 0.  1.
         13   -1    0    0    0    0 -0.00000000000E+00 -0.00000000000E+00 -0.27500000000E+03  0.27500000000E+03  0.00000000000E+00 0.  1.
    9000005    2    1    2  501    0 -0.12776288075E+02 -0.28298707476E+02 -0.64225215855E+02  0.47045359346E+03  0.46501360719E+03 0.  0.
         13    1    3    3    0    0 -0.21134814268E+03 -0.93872839745E+02 -0.11046055002E+03  0.25628437441E+03  0.00000000000E+00 0.  1.
          3    1    3    3  501    0  0.19857185460E+03  0.65574132269E+02  0.46235334166E+02  0.21416921905E+03  0.00000000000E+00 0.  1.
         21    1    1    2  502  501  0.12776288075E+02  0.28298707476E+02  0.23800744762E+02  0.39121935445E+02  0.00000000000E+00 0.  1.
<scales pt_clust_4="550.00000" pt_clust_5="550.00000" pt_clust_6="31.04916"></scales>
<mgrwt>
<rscale>  0 0.30000000E+03</rscale>
<asrwt>  1 0.31049161E+02</asrwt>
<pdfrwt beam="1">  1        1 0.85300192E+00 0.30000000E+03</pdfrwt>
<pdfrwt beam="2">0</pdfrwt>
<totfact> 0.38978192E-04</totfact>
</mgrwt>
<clustering>
<clus scale="   31.049">  1  6  2 -1</clus>
<clus scale="  465.014">  4  5 -1 -1</clus>
<clus scale="  300.000">  1  4  2 -1</clus>
</clustering>
</event>
<event>
 6    1  0.9131597E-012  0.3000000E+03  0.7818608E-02  0.1093470E+00
          1   -1    0    0  502    0  0.00000000000E+00  0.00000000000E+00  0.24453600299E+03  0.24453600299E+03  0.00000000000E+00 0.  1.
         13   -1    0    0    0    0 -0.00000000000E+00 -0.00000000000E+00 -0.27500000000E+03  0.27500000000E+03  0.00000000000E+00 0.  1.
    9000005    2    1    2  501    0 -0.18112869394E+02  0.44451146291E+02 -0.52856602720E+02  0.46656988897E+03  0.46107446296E+03 0.  0.
         13    1    3    3    0    0  0.16882785870E+03  0.10312641881E+03  0.96584489191E+02  0.22015101108E+03  0.00000000000E+00 0.  1.
          3    1    3    3  501    0 -0.18694072809E+03 -0.58675272523E+02 -0.14944109191E+03  0.24641887788E+03  0.00000000000E+00 0.  1.
         21    1    1    2  502  501  0.18112869394E+02 -0.44451146291E+02  0.22392605709E+02  0.52966114023E+02  0.00000000000E+00 0.  1.
<scales pt_clust_4="550.00000" pt_clust_5="550.00000" pt_clust_6="47.99980"></scales>
<mgrwt>
<rscale>  0 0.30000000E+03</rscale>
<asrwt>  1 0.47999796E+02</asrwt>
<pdfrwt beam="1">  1        1 0.88922183E+00 0.30000000E+03</pdfrwt>
<pdfrwt beam="2">0</pdfrwt>
<totfact> 0.14020071E-04</totfact>
</mgrwt>
<clustering>
<clus scale="   48.000">  1  6  2 -1</clus>
<clus scale="  461.074">  4  5 -1 -1</clus>
<clus scale="  300.000">  1  4  2 -1</clus>
</clustering>
</event>
<event>
 6    1  0.9131597E-012  0.3000000E+03  0.7818608E-02  0.1093470E+00
          1   -1    0    0  502    0  0.00000000000E+00  0.00000000000E+00  0.22217592150E+03  0.22217592150E+03  0.00000000000E+00 0.  1.
         13   -1    0    0    0    0 -0.00000000000E+00 -0.00000000000E+00 -0.27500000000E+03  0.27500000000E+03  0.00000000000E+00 0.  1.
    9000005    2    1    2  501    0 -0.13599524151E+02  0.30809452264E+02 -0.54336507726E+02  0.46346454585E+03  0.45903459541E+03 0.  0.
         13    1    3    3    0    0 -0.22069284428E+02 -0.81189409288E+02  0.18271197457E+03  0.20115277564E+03  0.00000000000E+00 0.  1.
          3    1    3    3  501    0  0.84697602769E+01  0.11199886155E+03 -0.23704848230E+03  0.26231177021E+03  0.00000000000E+00 0.  1.
         21    1    1    2  502  501  0.13599524151E+02 -0.30809452264E+02  0.15124292238E+01  0.33711375648E+02  0.00000000000E+00 0.  1.
<scales pt_clust_4="550.00000" pt_clust_5="550.00000" pt_clust_6="33.67743"></scales>
<mgrwt>
<rscale>  0 0.30000000E+03</rscale>
<asrwt>  1 0.33677432E+02</asrwt>
<pdfrwt beam="1">  1        1 0.80791244E+00 0.30000000E+03</pdfrwt>
<pdfrwt beam="2">0</pdfrwt>
<totfact> 0.91182704E-04</totfact>
</mgrwt>
<clustering>
<clus scale="   33.677">  1  6  2 -1</clus>
<clus scale="  459.035">  4  5 -1 -1</clus>
<clus scale="  300.000">  1  4  2 -1</clus>
</clustering>
</event>
<event>
 6    1  0.9131597E-012  0.3000000E+03  0.7818608E-02  0.1093470E+00
          1   -1    0    0  502    0  0.00000000000E+00  0.00000000000E+00  0.25213142764E+03  0.25213142764E+03  0.00000000000E+00 0.  1.
         13   -1    0    0    0    0 -0.00000000000E+00 -0.00000000000E+00 -0.27500000000E+03  0.27500000000E+03  0.00000000000E+00 0.  1.
    9000005    2    1    2  501    0 -0.28127381437E+02 -0.53332300996E+02 -0.17916917846E+02  0.46663347066E+03  0.46237462741E+03 0.  0.
         13    1    3    3    0    0 -0.24017575142E+03 -0.53114109273E+02 -0.53209840677E+02  0.25166801012E+03  0.00000000000E+00 0.  1.
          3    1    3    3  501    0  0.21204836998E+03 -0.21819172281E+00  0.35292922831E+02  0.21496546053E+03  0.00000000000E+00 0.  1.
         21    1    1    2  502  501  0.28127381437E+02  0.53332300996E+02 -0.49516545190E+01  0.60497956978E+02  0.00000000000E+00 0.  1.
<scales pt_clust_4="550.00000" pt_clust_5="550.00000" pt_clust_6="60.29500"></scales>
<mgrwt>
<rscale>  0 0.30000000E+03</rscale>
<asrwt>  1 0.60295004E+02</asrwt>
<pdfrwt beam="1">  1        1 0.91684156E+00 0.30000000E+03</pdfrwt>
<pdfrwt beam="2">0</pdfrwt>
<totfact> 0.44586586E-05</totfact>
</mgrwt>
<clustering>
<clus scale="   60.295">  1  6  2 -1</clus>
<clus scale="  462.375">  4  5 -1 -1</clus>
<clus scale="  300.000">  1  4  2 -1</clus>
</clustering>
</event>
<event>
 6    1  0.9131597E-012  0.3000000E+03  0.7818608E-02  0.1093470E+00
          1   -1    0    0  502    0  0.00000000000E+00  0.00000000000E+00  0.24746690235E+03  0.24746690235E+03  0.00000000000E+00 0.  1.
         13   -1    0    0    0    0 -0.00000000000E+00 -0.00000000000E+00 -0.27500000000E+03  0.27500000000E+03  0.00000000000E+00 0.  1.
    9000005    2    1    2  501    0 -0.25022505083E+01  0.40633912041E+02 -0.24825581232E+02  0.48166608482E+03  0.47930004352E+03 0.  0.
         13    1    3    3    0    0 -0.30426493572E+02 -0.12458475072E+03 -0.20106576473E+03  0.23848390589E+03  0.00000000000E+00 0.  1.
          3    1    3    3  501    0  0.27924243064E+02  0.16521866276E+03  0.17624018350E+03  0.24318217894E+03  0.00000000000E+00 0.  1.
         21    1    1    2  502  501  0.25022505083E+01 -0.40633912041E+02 -0.27075164207E+01  0.40800817522E+02  0.00000000000E+00 0.  1.
<scales pt_clust_4="550.00000" pt_clust_5="550.00000" pt_clust_6="40.71090"></scales>
<mgrwt>
<rscale>  0 0.30000000E+03</rscale>
<asrwt>  1 0.40710904E+02</asrwt>
<pdfrwt beam="1">  1        1 0.89987964E+00 0.30000000E+03</pdfrwt>
<pdfrwt beam="2">0</pdfrwt>
<totfact> 0.10777877E-04</totfact>
</mgrwt>
<clustering>
<clus scale="   40.711">  1  6  2 -1</clus>
<clus scale="  479.300">  4  5 -1 -1</clus>
<clus scale="  300.000">  1  4  2 -1</clus>
</clustering>
</event>
<event>
 6    1  0.9131597E-012  0.3000000E+03  0.7818608E-02  0.1093470E+00
          1   -1    0    0  502    0  0.00000000000E+00  0.00000000000E+00  0.24230543566E+03  0.24230543566E+03  0.00000000000E+00 0.  1.
         13   -1    0    0    0    0 -0.00000000000E+00 -0.00000000000E+00 -0.27500000000E+03  0.27500000000E+03  0.00000000000E+00 0.  1.
    9000005    2    1    2  501    0  0.80708043336E+01 -0.34521401947E+02 -0.44559520803E+02  0.47992038160E+03  0.47653033136E+03 0.  0.
         13    1    3    3    0    0 -0.22548735123E+03  0.45976048296E+02 -0.34276483955E+02  0.23266546786E+03  0.00000000000E+00 0.  1.
          3    1    3    3  501    0  0.23355815556E+03 -0.80497450243E+02 -0.10283036848E+02  0.24725491375E+03  0.00000000000E+00 0.  1.
         21    1    1    2  502  501 -0.80708043336E+01  0.34521401947E+02  0.11864956461E+02  0.37385054057E+02  0.00000000000E+00 0.  1.
<scales pt_clust_4="550.00000" pt_clust_5="550.00000" pt_clust_6="35.45229"></scales>
<mgrwt>
<rscale>  0 0.30000000E+03</rscale>
<asrwt>  1 0.35452293E+02</asrwt>
<pdfrwt beam="1">  1        1 0.88111068E+00 0.30000000E+03</pdfrwt>
<pdfrwt beam="2">0</pdfrwt>
<totfact> 0.19069348E-04</totfact>
</mgrwt>
<clustering>
<clus scale="   35.452">  1  6  2 -1</clus>
<clus scale="  476.530">  4  5 -1 -1</clus>
<clus scale="  300.000">  1  4  2 -1</clus>
</clustering>
</event>
<event>
 6    1  0.9131597E-012  0.3000000E+03  0.7818608E-02  0.1093470E+00
          1   -1    0    0  502    0  0.00000000000E+00  0.00000000000E+00  0.22652169077E+03  0.22652169077E+03  0.00000000000E+00 0.  1.
         13   -1    0    0    0    0 -0.00000000000E+00 -0.00000000000E+00 -0.27500000000E+03  0.27500000000E+03  0.00000000000E+00 0.  1.
    9000005    2    1    2  501    0 -0.31722561707E+02  0.10479681412E+02 -0.22616814730E+02  0.45927288557E+03  0.45749745187E+03 0.  0.
         13    1    3    3    0    0 -0.18540903543E+03 -0.85213803529E+02  0.11282927551E+03  0.23317021281E+03  0.00000000000E+00 0.  1.
          1    1    3    3  501    0  0.15368647372E+03  0.95693484941E+02 -0.13544609024E+03  0.22610267275E+03  0.00000000000E+00 0.  1.
         21    1    1    2  502  501  0.31722561707E+02 -0.10479681412E+02 -0.25861494498E+02  0.42248805207E+02  0.00000000000E+00 0.  1.
<scales pt_clust_4="550.00000" pt_clust_5="550.00000" pt_clust_6="33.40877"></scales>
<mgrwt>
<rscale>  0 0.30000000E+03</rscale>
<asrwt>  1 0.33408768E+02</asrwt>
<pdfrwt beam="1">  1        1 0.82371524E+00 0.30000000E+03</pdfrwt>
<pdfrwt beam="2">0</pdfrwt>
<totfact> 0.67655352E-04</totfact>
</mgrwt>
<clustering>
<clus scale="   33.409">  1  6  2 -1</clus>
<clus scale="  457.497">  4  5 -1 -1</clus>
<clus scale="  300.000">  1  4  2 -1</clus>
</clustering>
</event>
<event>
 6    1  0.9131597E-012  0.3000000E+03  0.7818608E-02  0.1093470E+00
          1   -1    0    0  502    0  0.00000000000E+00  0.00000000000E+00  0.24550415768E+03  0.24550415768E+03  0.00000000000E+00 0.  1.
         13   -1    0    0    0    0 -0.00000000000E+00 -0.00000000000E+00 -0.27500000000E+03  0.27500000000E+03  0.00000000000E+00 0.  1.
    9000005    2    1    2  501    0  0.23050779487E+02  0.22801063571E+02 -0.53368988040E+02  0.48024060069E+03  0.47616337399E+03 0.  0.
         13    1    3    3    0    0 -0.16866823086E+03 -0.14495489101E+03 -0.30170606355E+02  0.22443519781E+03  0.00000000000E+00 0.  1.
          3    1    3    3  501    0  0.19171901035E+03  0.16775595458E+03 -0.23198381685E+02  0.25580540287E+03  0.00000000000E+00 0.  1.
         21    1    1    2  502  501 -0.23050779487E+02 -0.22801063571E+02  0.23873145715E+02  0.40263556987E+02  0.00000000000E+00 0.  1.
<scales pt_clust_4="550.00000" pt_clust_5="550.00000" pt_clust_6="32.42263"></scales>
<mgrwt>
<rscale>  0 0.30000000E+03</rscale>
<asrwt>  1 0.32422630E+02</asrwt>
<pdfrwt beam="1">  1        1 0.89274239E+00 0.30000000E+03</pdfrwt>
<pdfrwt beam="2">0</pdfrwt>
<totfact> 0.13580510E-04</totfact>
</mgrwt>
<clustering>
<clus scale="   32.423">  1  6  2 -1</clus>
<clus scale="  476.163">  4  5 -1 -1</clus>
<clus scale="  300.000">  1  4  2 -1</clus>
</clustering>
</event>
<event>
 6    1  0.9131597E-012  0.3000000E+03  0.7818608E-02  0.1093470E+00
          1   -1    0    0  502    0  0.00000000000E+00  0.00000000000E+00  0.23444263027E+03  0.23444263027E+03  0.00000000000E+00 0.  1.
         13   -1    0    0    0    0 -0.00000000000E+00 -0.00000000000E+00 -0.27500000000E+03  0.27500000000E+03  0.00000000000E+00 0.  1.
    9000005    2    1    2  501    0  0.88350339979E+01  0.33766605707E+02 -0.24914543890E+02  0.47119423832E+03  0.46923878169E+03 0.  0.
         13    1    3    3    0    0 -0.38823474177E+02 -0.18533449678E+03 -0.12369207925E+03  0.22617663078E+03  0.00000000000E+00 0.  1.
          1    1    3    3  501    0  0.47658508175E+02  0.21910110249E+03  0.98777535356E+02  0.24501760754E+03  0.00000000000E+00 0.  1.
         21    1    1    2  502  501 -0.88350339979E+01 -0.33766605707E+02 -0.15642825838E+02  0.38248391951E+02  0.00000000000E+00 0.  1.
<scales pt_clust_4="550.00000" pt_clust_5="550.00000" pt_clust_6="34.90333"></scales>
<mgrwt>
<rscale>  0 0.30000000E+03</rscale>
<asrwt>  1 0.34903334E+02</asrwt>
<pdfrwt beam="1">  1        1 0.85251866E+00 0.30000000E+03</pdfrwt>
<pdfrwt beam="2">0</pdfrwt>
<totfact> 0.38535776E-04</totfact>
</mgrwt>
<clustering>
<clus scale="   34.903">  1  6  2 -1</clus>
<clus scale="  469.239">  4  5 -1 -1</clus>
<clus scale="  300.000">  1  4  2 -1</clus>
</clustering>
</event>
<event>
 6    1  0.9131597E-012  0.3000000E+03  0.7818608E-02  0.1093470E+00
          1   -1    0    0  502    0  0.00000000000E+00  0.00000000000E+00  0.23157602407E+03  0.23157602407E+03  0.00000000000E+00 0.  1.
         13   -1    0    0    0    0 -0.00000000000E+00 -0.00000000000E+00 -0.27500000000E+03  0.27500000000E+03  0.00000000000E+00 0.  1.
    9000005    2    1    2  501    0  0.37405208917E+02  0.38604175763E+01 -0.28577891409E+02  0.46614758477E+03  0.46374866300E+03 0.  0.
         13    1    3    3    0    0 -0.17698963618E+03  0.23651702005E+01  0.11228273608E+03  0.20961473747E+03  0.00000000000E+00 0.  1.
          1    1    3    3  501    0  0.21439484509E+03  0.14952473758E+01 -0.14086062749E+03  0.25653284730E+03  0.00000000000E+00 0.  1.
         21    1    1    2  502  501 -0.37405208917E+02 -0.38604175763E+01 -0.14846084526E+02  0.40428439294E+02  0.00000000000E+00 0. -1.
<scales pt_clust_4="550.00000" pt_clust_5="550.00000" pt_clust_6="37.60391"></scales>
<mgrwt>
<rscale>  0 0.30000000E+03</rscale>
<asrwt>  1 0.37603908E+02</asrwt>
<pdfrwt beam="1">  1        1 0.84209463E+00 0.30000000E+03</pdfrwt>
<pdfrwt beam="2">0</pdfrwt>
<totfact> 0.47196652E-04</totfact>
</mgrwt>
<clustering>
<clus scale="   37.604">  1  6  2 -1</clus>
<clus scale="  463.749">  4  5 -1 -1</clus>
<clus scale="  300.000">  1  4  2 -1</clus>
</clustering>
</event>
<event>
 6    1  0.9131597E-012  0.3000000E+03  0.7818608E-02  0.1093470E+00
          1   -1    0    0  502    0  0.00000000000E+00  0.00000000000E+00  0.24967374162E+03  0.24967374162E+03  0.00000000000E+00 0.  1.
         13   -1    0    0    0    0 -0.00000000000E+00 -0.00000000000E+00 -0.27500000000E+03  0.27500000000E+03  0.00000000000E+00 0.  1.
    9000005    2    1    2  501    0 -0.42836809126E+01  0.30143671423E+02 -0.22072456131E+02  0.49405384485E+03  0.49262056133E+03 0.  0.
         13    1    3    3    0    0 -0.24228378257E+03 -0.39646413213E+02 -0.81316412151E+01  0.24564078034E+03  0.00000000000E+00 0.  1.
          3    1    3    3  501    0  0.23800010165E+03  0.69790084636E+02 -0.13940814916E+02  0.24841306451E+03  0.00000000000E+00 0.  1.
         21    1    1    2  502  501  0.42836809126E+01 -0.30143671423E+02 -0.32538022484E+01  0.30619896769E+02  0.00000000000E+00 0.  1.
<scales pt_clust_4="550.00000" pt_clust_5="550.00000" pt_clust_6="30.44654"></scales>
<mgrwt>
<rscale>  0 0.30000000E+03</rscale>
<asrwt>  1 0.30446540E+02</asrwt>
<pdfrwt beam="1">  1        1 0.90790451E+00 0.30000000E+03</pdfrwt>
<pdfrwt beam="2">0</pdfrwt>
<totfact> 0.82626750E-05</totfact>
</mgrwt>
<clustering>
<clus scale="   30.447">  1  6  2 -1</clus>
<clus scale="  492.621">  4  5 -1 -1</clus>
<clus scale="  300.000">  1  4  2 -1</clus>
</clustering>
</event>
<event>
 6    1  0.9131597E-012  0.3000000E+03  0.7818608E-02  0.1093470E+00
          1   -1    0    0  502    0  0.00000000000E+00  0.00000000000E+00  0.22842291314E+03  0.22842291314E+03  0.00000000000E+00 0.  1.
         13   -1    0    0    0    0 -0.00000000000E+00 -0.00000000000E+00 -0.27500000000E+03  0.27500000000E+03  0.00000000000E+00 0.  1.
    9000005    2    1    2  501    0  0.36616023024E+02 -0.28374406780E+01 -0.56782015460E+02  0.46530566272E+03  0.46036548336E+03 0.  0.
         13    1    3    3    0    0 -0.11909981751E+03 -0.11324050043E+03 -0.17556561224E+03  0.24048172836E+03  0.00000000000E+00 0.  1.
          1    1    3    3  501    0  0.15571584054E+03  0.11040305976E+03  0.11878359678E+03  0.22482393437E+03  0.00000000000E+00 0.  1.
         21    1    1    2  502  501 -0.36616023024E+02  0.28374406780E+01  0.10204928600E+02  0.38117250418E+02  0.00000000000E+00 0.  1.
<scales pt_clust_4="550.00000" pt_clust_5="550.00000" pt_clust_6="36.72580"></scales>
<mgrwt>
<rscale>  0 0.30000000E+03</rscale>
<asrwt>  1 0.36725798E+02</asrwt>
<pdfrwt beam="1">  1        1 0.83062878E+00 0.30000000E+03</pdfrwt>
<pdfrwt beam="2">0</pdfrwt>
<totfact> 0.57885727E-04</totfact>
</mgrwt>
<clustering>
<clus scale="   36.726">  1  6  2 -1</clus>
<clus scale="  460.365">  4  5 -1 -1</clus>
<clus scale="  300.000">  1  4  2 -1</clus>
</clustering>
</event>
<event>
 6    1  0.9131597E-012  0.3000000E+03  0.7818608E-02  0.1093470E+00
          1   -1    0    0  502    0  0.00000000000E+00  0.00000000000E+00  0.21950165676E+03  0.21950165676E+03  0.00000000000E+00 0.  1.
         13   -1    0    0    0    0 -0.00000000000E+00 -0.00000000000E+00 -0.27500000000E+03  0.27500000000E+03  0.00000000000E+00 0.  1.
    9000005    2    1    2  501    0 -0.99199191129E+01  0.29402057548E+02 -0.54169286752E+02  0.46344280658E+03  0.45921894295E+03 0.  0.
         13    1    3    3    0    0 -0.14787556952E+03  0.24827883089E+02  0.15317834687E+03  0.21435301209E+03  0.00000000000E+00 0.  1.
          1    1    3    3  501    0  0.13795565041E+03  0.45741744597E+01 -0.20734763363E+03  0.24908979450E+03  0.00000000000E+00 0.  1.
         21    1    1    2  502  501  0.99199191129E+01 -0.29402057548E+02 -0.13290564866E+01  0.31058850179E+02  0.00000000000E+00 0.  1.
<scales pt_clust_4="550.00000" pt_clust_5="550.00000" pt_clust_6="31.03040"></scales>
<mgrwt>
<rscale>  0 0.30000000E+03</rscale>
<asrwt>  1 0.31030401E+02</asrwt>
<pdfrwt beam="1">  1        1 0.79818784E+00 0.30000000E+03</pdfrwt>
<pdfrwt beam="2">0</pdfrwt>
<totfact> 0.10934499E-03</totfact>
</mgrwt>
<clustering>
<clus scale="   31.030">  1  6  2 -1</clus>
<clus scale="  459.219">  4  5 -1 -1</clus>
<clus scale="  300.000">  1  4  2 -1</clus>
</clustering>
</event>
<event>
 6    1  0.9131597E-012  0.3000000E+03  0.7818608E-02  0.1093470E+00
          1   -1    0    0  502    0  0.00000000000E+00  0.00000000000E+00  0.23505585130E+03  0.23505585130E+03  0.00000000000E+00 0.  1.
         13   -1    0    0    0    0 -0.00000000000E+00 -0.00000000000E+00 -0.27500000000E+03  0.27500000000E+03  0.00000000000E+00 0.  1.
    9000005    2    1    2  501    0 -0.79854510094E+01  0.31136031572E+02 -0.52222010817E+02  0.47564704737E+03  0.47167759685E+03 0.  0.
         13    1    3    3    0    0 -0.19508670636E+03 -0.83709097206E+02  0.71058616750E+02  0.22386460857E+03  0.00000000000E+00 0.  1.
          1    1    3    3  501    0  0.18710125535E+03  0.11484512878E+03 -0.12328062757E+03  0.25178243881E+03  0.00000000000E+00 0.  1.
         21    1    1    2  502  501  0.79854510094E+01 -0.31136031572E+02  0.12277862122E+02  0.34408803934E+02  0.00000000000E+00 0.  1.
<scales pt_clust_4="550.00000" pt_clust_5="550.00000" pt_clust_6="32.14374"></scales>
<mgrwt>
<rscale>  0 0.30000000E+03</rscale>
<asrwt>  1 0.32143738E+02</asrwt>
<pdfrwt beam="1">  1        1 0.85474855E+00 0.30000000E+03</pdfrwt>
<pdfrwt beam="2">0</pdfrwt>
<totfact> 0.37235670E-04</totfact>
</mgrwt>
<clustering>
<clus scale="   32.144">  1  6  2 -1</clus>
<clus scale="  471.678">  4  5 -1 -1</clus>
<clus scale="  300.000">  1  4  2 -1</clus>
</clustering>
</event>
<event>
 6    1  0.9131597E-012  0.3000000E+03  0.7818608E-02  0.1093470E+00
          1   -1    0    0  502    0  0.00000000000E+00  0.00000000000E+00  0.24886847127E+03  0.24886847127E+03  0.00000000000E+00 0.  1.
         13   -1    0    0    0    0 -0.00000000000E+00 -0.00000000000E+00 -0.27500000000E+03  0.27500000000E+03  0.00000000000E+00 0.  1.
    9000005    2    1    2  501    0 -0.41048972341E+02  0.32836197011E+02 -0.40347030903E+02  0.46941377022E+03  0.46471299832E+03 0.  0.
         13    1    3    3    0    0  0.35058117521E+02 -0.10128573777E+03 -0.21267764548E+03  0.23815888219E+03  0.00000000000E+00 0.  1.
          3    1    3    3  501    0 -0.76107089862E+02  0.13412193478E+03  0.17233061458E+03  0.23125488803E+03  0.00000000000E+00 0.  1.
         21    1    1    2  502  501  0.41048972341E+02 -0.32836197011E+02  0.14215502174E+02  0.54454701050E+02  0.00000000000E+00 0.  1.
<scales pt_clust_4="550.00000" pt_clust_5="550.00000" pt_clust_6="52.56647"></scales>
<mgrwt>
<rscale>  0 0.30000000E+03</rscale>
<asrwt>  1 0.52566472E+02</asrwt>
<pdfrwt beam="1">  1        1 0.90497626E+00 0.30000000E+03</pdfrwt>
<pdfrwt beam="2">0</pdfrwt>
<totfact> 0.86016817E-05</totfact>
</mgrwt>
<clustering>
<clus scale="   52.566">  1  6  2 -1</clus>
<clus scale="  464.713">  4  5 -1 -1</clus>
<clus scale="  300.000">  1  4  2 -1</clus>
</clustering>
</event>
<event>
 6    1  0.9131597E-012  0.3000000E+03  0.7818608E-02  0.1093470E+00
          1   -1    0    0  502    0  0.00000000000E+00  0.00000000000E+00  0.24235802605E+03  0.24235802605E+03  0.00000000000E+00 0.  1.
         13   -1    0    0    0    0 -0.00000000000E+00 -0.00000000000E+00 -0.27500000000E+03  0.27500000000E+03  0.00000000000E+00 0.  1.
    9000005    2    1    2  501    0 -0.16451885332E+02 -0.44377340087E+02 -0.13312509215E+02  0.46623424439E+03  0.46363469984E+03 0.  0.
         13    1    3    3    0    0 -0.15039752056E+03 -0.10377298321E+03  0.15746586571E+03  0.24121306992E+03  0.00000000000E+00 0.  1.
          1    1    3    3  501    0  0.13394563523E+03  0.59395643127E+02 -0.17077837492E+03  0.22502117447E+03  0.00000000000E+00 0.  1.
         21    1    1    2  502  501  0.16451885332E+02  0.44377340087E+02 -0.19329464733E+02  0.51123781659E+02  0.00000000000E+00 0. -1.
<scales pt_clust_4="550.00000" pt_clust_5="550.00000" pt_clust_6="47.32880"></scales>
<mgrwt>
<rscale>  0 0.30000000E+03</rscale>
<asrwt>  1 0.47328798E+02</asrwt>
<pdfrwt beam="1">  1        1 0.88130191E+00 0.30000000E+03</pdfrwt>
<pdfrwt beam="2">0</pdfrwt>
<totfact> 0.17992362E-04</totfact>
</mgrwt>
<clustering>
<clus scale="   47.329">  1  6  2 -1</clus>
<clus scale="  463.635">  4  5 -1 -1</clus>
<clus scale="  300.000">  1  4  2 -1</clus>
</clustering>
</event>
<event>
 6    1  0.9131597E-012  0.3000000E+03  0.7818608E-02  0.1093470E+00
          1   -1    0    0  502    0  0.00000000000E+00  0.00000000000E+00  0.21919537350E+03  0.21919537350E+03  0.00000000000E+00 0.  1.
         13   -1    0    0    0    0 -0.00000000000E+00 -0.00000000000E+00 -0.27500000000E+03  0.27500000000E+03  0.00000000000E+00 0.  1.
    9000005    2    1    2  501    0 -0.17132934987E+02 -0.26161228193E+02 -0.45567096586E+02  0.46129014077E+03  0.45796756038E+03 0.  0.
         13    1    3    3    0    0  0.11459775255E+03  0.74434084605E+02 -0.19500781578E+03  0.23811998248E+03  0.00000000000E+00 0.  1.
          3    1    3    3  501    0 -0.13173068754E+03 -0.10059531280E+03  0.14944071920E+03  0.22317015829E+03  0.00000000000E+00 0.  1.
         21    1    1    2  502  501  0.17132934987E+02  0.26161228193E+02 -0.10237529918E+02  0.32905232724E+02  0.00000000000E+00 0.  1.
<scales pt_clust_4="550.00000" pt_clust_5="550.00000" pt_clust_6="31.27216"></scales>
<mgrwt>
<rscale>  0 0.30000000E+03</rscale>
<asrwt>  1 0.31272165E+02</asrwt>
<pdfrwt beam="1">  1        1 0.79707409E+00 0.30000000E+03</pdfrwt>
<pdfrwt beam="2">0</pdfrwt>
<totfact> 0.11124192E-03</totfact>
</mgrwt>
<clustering>
<clus scale="   31.272">  1  6  2 -1</clus>
<clus scale="  457.968">  4  5 -1 -1</clus>
<clus scale="  300.000">  1  4  2 -1</clus>
</clustering>
</event>
<event>
 6    1  0.9131597E-012  0.3000000E+03  0.7818608E-02  0.1093470E+00
          1   -1    0    0  502    0  0.00000000000E+00  0.00000000000E+00  0.24034124772E+03  0.24034124772E+03  0.00000000000E+00 0.  1.
         13   -1    0    0    0    0 -0.00000000000E+00 -0.00000000000E+00 -0.27500000000E+03  0.27500000000E+03  0.00000000000E+00 0.  1.
    9000005    2    1    2  501    0  0.28505380592E+02 -0.20831601568E+02 -0.28774911036E+02  0.47954834431E+03  0.47738046324E+03 0.  0.
         13    1    3    3    0    0  0.21453928504E+03 -0.61715668478E+02  0.10509115124E+03  0.24673888755E+03  0.00000000000E+00 0.  1.
          3    1    3    3  501    0 -0.18603390444E+03  0.40884066910E+02 -0.13386606228E+03  0.23280945677E+03  0.00000000000E+00 0.  1.
         21    1    1    2  502  501 -0.28505380592E+02  0.20831601568E+02 -0.58838412419E+01  0.35792903408E+02  0.00000000000E+00 0.  1.
<scales pt_clust_4="550.00000" pt_clust_5="550.00000" pt_clust_6="35.30600"></scales>
<mgrwt>
<rscale>  0 0.30000000E+03</rscale>
<asrwt>  1 0.35305999E+02</asrwt>
<pdfrwt beam="1">  1        1 0.87396817E+00 0.30000000E+03</pdfrwt>
<pdfrwt beam="2">0</pdfrwt>
<totfact> 0.23022693E-04</totfact>
</mgrwt>
<clustering>
<clus scale="   35.306">  1  6  2 -1</clus>
<clus scale="  477.380">  4  5 -1 -1</clus>
<clus scale="  300.000">  1  4  2 -1</clus>
</clustering>
</event>
<event>
 6    1  0.9131597E-012  0.3000000E+03  0.7818608E-02  0.1093470E+00
          1   -1    0    0  502    0  0.00000000000E+00  0.00000000000E+00  0.24933538280E+03  0.24933538280E+03  0.00000000000E+00 0.  1.
         13   -1    0    0    0    0 -0.00000000000E+00 -0.00000000000E+00 -0.27500000000E+03  0.27500000000E+03  0.00000000000E+00 0.  1.
    9000005    2    1    2  501    0 -0.40130226955E+02  0.97589578707E+01 -0.32855520317E+02  0.48241424897E+03  0.47951887347E+03 0.  0.
         13    1    3    3    0    0 -0.95878110905E+01  0.70954694852E+01  0.22370784261E+03  0.22402560267E+03  0.00000000000E+00 0.  1.
          3    1    3    3  501    0 -0.30542415864E+02  0.26634883856E+01 -0.25656336293E+03  0.25838864629E+03  0.00000000000E+00 0.  1.
         21    1    1    2  502  501  0.40130226955E+02 -0.97589578707E+01  0.71909031163E+01  0.41921133833E+02  0.00000000000E+00 0. -1.
<scales pt_clust_4="550.00000" pt_clust_5="550.00000" pt_clust_6="41.29979"></scales>
<mgrwt>
<rscale>  0 0.30000000E+03</rscale>
<asrwt>  1 0.41299787E+02</asrwt>
<pdfrwt beam="1">  1        1 0.90667412E+00 0.30000000E+03</pdfrwt>
<pdfrwt beam="2">0</pdfrwt>
<totfact> 0.83029017E-05</totfact>
</mgrwt>
<clustering>
<clus scale="   41.300">  1  6  2 -1</clus>
<clus scale="  479.519">  4  5 -1 -1</clus>
<clus scale="  300.000">  1  4  2 -1</clus>
</clustering>
</event>
<event>
 6    1  0.9131597E-012  0.3000000E+03  0.7818608E-02  0.1093470E+00
          1   -1    0    0  502    0  0.00000000000E+00  0.00000000000E+00  0.25190700230E+03  0.25190700230E+03  0.00000000000E+00 0.  1.
         13   -1    0    0    0    0 -0.00000000000E+00 -0.00000000000E+00 -0.27500000000E+03  0.27500000000E+03  0.00000000000E+00 0.  1.
    9000005    2    1    2  501    0 -0.44538938037E+02  0.29676700344E+02 -0.39125822404E+02  0.47103684020E+03  0.46634799378E+03 0.  0.
         13    1    3    3    0    0 -0.97619928350E+02 -0.18068447151E+03 -0.12190637758E+03  0.23882565513E+03  0.00000000000E+00 0.  1.
          1    1    3    3  501    0  0.53080990313E+02  0.21036117185E+03  0.82780555175E+02  0.23221118507E+03  0.00000000000E+00 0.  1.
         21    1    1    2  502  501  0.44538938037E+02 -0.29676700344E+02  0.16032824699E+02  0.55870162096E+02  0.00000000000E+00 0. -1.
<scales pt_clust_4="550.00000" pt_clust_5="550.00000" pt_clust_6="53.52031"></scales>
<mgrwt>
<rscale>  0 0.30000000E+03</rscale>
<asrwt>  1 0.53520310E+02</asrwt>
<pdfrwt beam="1">  1        1 0.91602546E+00 0.30000000E+03</pdfrwt>
<pdfrwt beam="2">0</pdfrwt>
<totfact> 0.47500663E-05</totfact>
</mgrwt>
<clustering>
<clus scale="   53.520">  1  6  2 -1</clus>
<clus scale="  466.348">  4  5 -1 -1</clus>
<clus scale="  300.000">  1  4  2 -1</clus>
</clustering>
</event>
<event>
 6    1  0.9131597E-012  0.3000000E+03  0.7818608E-02  0.1093470E+00
          1   -1    0    0  502    0  0.00000000000E+00  0.00000000000E+00  0.22908864718E+03  0.22908864718E+03  0.00000000000E+00 0.  1.
         13   -1    0    0    0    0 -0.00000000000E+00 -0.00000000000E+00 -0.27500000000E+03  0.27500000000E+03  0.00000000000E+00 0.  1.
    9000005    2    1    2  501    0 -0.19955221269E+02  0.23653063703E+02 -0.48592298978E+02  0.47302635894E+03  0.46950510801E+03 0.  0.
         13    1    3    3    0    0  0.18599604059E+03  0.14106506540E+03 -0.22153196028E+02  0.23448804636E+03  0.00000000000E+00 0.  1.
          1    1    3    3  501    0 -0.20595126185E+03 -0.11741200170E+03 -0.26439102949E+02  0.23853831258E+03  0.00000000000E+00 0.  1.
         21    1    1    2  502  501  0.19955221269E+02 -0.23653063703E+02  0.26809461534E+01  0.31062288240E+02  0.00000000000E+00 0.  1.
<scales pt_clust_4="550.00000" pt_clust_5="550.00000" pt_clust_6="30.94638"></scales>
<mgrwt>
<rscale>  0 0.30000000E+03</rscale>
<asrwt>  1 0.30946377E+02</asrwt>
<pdfrwt beam="1">  1        1 0.83304963E+00 0.30000000E+03</pdfrwt>
<pdfrwt beam="2">0</pdfrwt>
<totfact> 0.57245191E-04</totfact>
</mgrwt>
<clustering>
<clus scale="   30.946">  1  6  2 -1</clus>
<clus scale="  469.505">  4  5 -1 -1</clus>
<clus scale="  300.000">  1  4  2 -1</clus>
</clustering>
</event>
<event>
 6    1  0.9131597E-012  0.3000000E+03  0.7818608E-02  0.1093470E+00
          1   -1    0    0  502    0  0.00000000000E+00  0.00000000000E+00  0.23054681605E+03  0.23054681605E+03  0.00000000000E+00 0.  1.
         13   -1    0    0    0    0 -0.00000000000E+00 -0.00000000000E+00 -0.27500000000E+03  0.27500000000E+03  0.00000000000E+00 0.  1.
    9000005    2    1    2  501    0 -0.96692861723E+01 -0.34317535030E+02 -0.58490397735E+02  0.46722930470E+03  0.46218060132E+03 0.  0.
         13    1    3    3    0    0  0.12962675296E+03  0.44329897488E+02  0.15084547750E+03  0.20377093261E+03  0.00000000000E+00 0.  1.
          3    1    3    3  501    0 -0.13929603913E+03 -0.78647432518E+02 -0.20933587524E+03  0.26345837209E+03  0.00000000000E+00 0.  1.
         21    1    1    2  502  501  0.96692861723E+01  0.34317535030E+02  0.14037213789E+02  0.38317511356E+02  0.00000000000E+00 0. -1.
<scales pt_clust_4="550.00000" pt_clust_5="550.00000" pt_clust_6="35.65373"></scales>
<mgrwt>
<rscale>  0 0.30000000E+03</rscale>
<asrwt>  1 0.35653728E+02</asrwt>
<pdfrwt beam="1">  1        1 0.83835206E+00 0.30000000E+03</pdfrwt>
<pdfrwt beam="2">0</pdfrwt>
<totfact> 0.50964762E-04</totfact>
</mgrwt>
<clustering>
<clus scale="   35.654">  1  6  2 -1</clus>
<clus scale="  462.181">  4  5 -1 -1</clus>
<clus scale="  300.000">  1  4  2 -1</clus>
</clustering>
</event>
<event>
 6    1  0.9131597E-012  0.3000000E+03  0.7818608E-02  0.1093470E+00
          1   -1    0    0  502    0  0.00000000000E+00  0.00000000000E+00  0.25233040301E+03  0.25233040301E+03  0.00000000000E+00 0.  1.
         13   -1    0    0    0    0 -0.00000000000E+00 -0.00000000000E+00 -0.27500000000E+03  0.27500000000E+03  0.00000000000E+00 0.  1.
    9000005    2    1    2  501    0 -0.27923754594E+02  0.23073725394E+02 -0.58349324022E+02  0.47648577895E+03  0.47151025552E+03 0.  0.
         13    1    3    3    0    0 -0.52268191123E+01 -0.21907515965E+03  0.22259506895E+02  0.22026513765E+03  0.00000000000E+00 0.  1.
          3    1    3    3  501    0 -0.22696935482E+02  0.24214888505E+03 -0.80608830917E+02  0.25622064131E+03  0.00000000000E+00 0.  1.
         21    1    1    2  502  501  0.27923754594E+02 -0.23073725394E+02  0.35679727031E+02  0.50844624054E+02  0.00000000000E+00 0.  1.
<scales pt_clust_4="550.00000" pt_clust_5="550.00000" pt_clust_6="36.22337"></scales>
<mgrwt>
<rscale>  0 0.30000000E+03</rscale>
<asrwt>  1 0.36223375E+02</asrwt>
<pdfrwt beam="1">  1        1 0.91756510E+00 0.30000000E+03</pdfrwt>
<pdfrwt beam="2">0</pdfrwt>
<totfact> 0.47007205E-05</totfact>
</mgrwt>
<clustering>
<clus scale="   36.223">  1  6  2 -1</clus>
<clus scale="  471.510">  4  5 -1 -1</clus>
<clus scale="  300.000">  1  4  2 -1</clus>
</clustering>
</event>
<event>
 6    1  0.9131597E-012  0.3000000E+03  0.7818608E-02  0.1093470E+00
          1   -1    0    0  502    0  0.00000000000E+00  0.00000000000E+00  0.23829716774E+03  0.23829716774E+03  0.00000000000E+00 0.  1.
         13   -1    0    0    0    0 -0.00000000000E+00 -0.00000000000E+00 -0.27500000000E+03  0.27500000000E+03  0.00000000000E+00 0.  1.
    9000005    2    1    2  501    0 -0.30482745115E+02 -0.12569790873E+02 -0.45532774304E+02  0.47916265047E+03  0.47585335418E+03 0.  0.
         13    1    3    3    0    0 -0.16902849250E+03  0.44741815508E+02  0.15164973445E+03  0.23145216199E+03  0.00000000000E+00 0.  1.
          3    1    3    3  501    0  0.13854574739E+03 -0.57311606382E+02 -0.19718250875E+03  0.24771048848E+03  0.00000000000E+00 0.  1.
         21    1    1    2  502  501  0.30482745115E+02  0.12569790873E+02  0.88299420413E+01  0.34134517264E+02  0.00000000000E+00 0. -1.
<scales pt_clust_4="550.00000" pt_clust_5="550.00000" pt_clust_6="32.97268"></scales>
<mgrwt>
<rscale>  0 0.30000000E+03</rscale>
<asrwt>  1 0.32972676E+02</asrwt>
<pdfrwt beam="1">  1        1 0.86653516E+00 0.30000000E+03</pdfrwt>
<pdfrwt beam="2">0</pdfrwt>
<totfact> 0.27821234E-04</totfact>
</mgrwt>
<clustering>
<clus scale="   32.973">  1  6  2 -1</clus>
<clus scale="  475.853">  4  5 -1 -1</clus>
<clus scale="  300.000">  1  4  2 -1</clus>
</clustering>
</event>
<event>
 6    1  0.9131597E-012  0.3000000E+03  0.7818608E-02  0.1093470E+00
          1   -1    0    0  502    0  0.00000000000E+00  0.00000000000E+00  0.24302992501E+03  0.24302992501E+03  0.00000000000E+00 0.  1.
         13   -1    0    0    0    0 -0.00000000000E+00 -0.00000000000E+00 -0.27500000000E+03  0.27500000000E+03  0.00000000000E+00 0.  1.
    9000005    2    1    2  501    0 -0.33806926697E+02 -0.70854192772E+00 -0.47062460833E+02  0.48100033637E+03  0.47749663669E+03 0.  0.
         13    1    3    3    0    0 -0.62628379346E+02  0.58026437453E+02  0.20421560995E+03  0.22134452035E+03  0.00000000000E+00 0.  1.
          3    1    3    3  501    0  0.28821452649E+02 -0.58734979381E+02 -0.25127807078E+03  0.25965581602E+03  0.00000000000E+00 0.  1.
         21    1    1    2  502  501  0.33806926697E+02  0.70854192772E+00  0.15092385846E+02  0.37029588641E+02  0.00000000000E+00 0.  1.
<scales pt_clust_4="550.00000" pt_clust_5="550.00000" pt_clust_6="33.81435"></scales>
<mgrwt>
<rscale>  0 0.30000000E+03</rscale>
<asrwt>  1 0.33814351E+02</asrwt>
<pdfrwt beam="1">  1        1 0.88374518E+00 0.30000000E+03</pdfrwt>
<pdfrwt beam="2">0</pdfrwt>
<totfact> 0.17765384E-04</totfact>
</mgrwt>
<clustering>
<clus scale="   33.814">  1  6  2 -1</clus>
<clus scale="  477.497">  4  5 -1 -1</clus>
<clus scale="  300.000">  1  4  2 -1</clus>
</clustering>
</event>
<event>
 6    1  0.9131597E-012  0.3000000E+03  0.7818608E-02  0.1093470E+00
          1   -1    0    0  502    0  0.00000000000E+00  0.00000000000E+00  0.24061449408E+03  0.24061449408E+03  0.00000000000E+00 0.  1.
         13   -1    0    0    0    0 -0.00000000000E+00 -0.00000000000E+00 -0.27500000000E+03  0.27500000000E+03  0.00000000000E+00 0.  1.
    9000005    2    1    2  501    0  0.23826513595E+02  0.33373850197E+02 -0.36396866284E+02  0.47455889523E+03  0.47138084023E+03 0.  0.
         13    1    3    3    0    0  0.71436105197E+01  0.36286880636E+02 -0.25380841549E+03  0.25648875346E+03  0.00000000000E+00 0.  1.
          3    1    3    3  501    0  0.16682903076E+02 -0.29130304390E+01  0.21741154921E+03  0.21807014177E+03  0.00000000000E+00 0.  1.
         21    1    1    2  502  501 -0.23826513595E+02 -0.33373850197E+02  0.20113603671E+01  0.41055598858E+02  0.00000000000E+00 0. -1.
<scales pt_clust_4="550.00000" pt_clust_5="550.00000" pt_clust_6="41.00630"></scales>
<mgrwt>
<rscale>  0 0.30000000E+03</rscale>
<asrwt>  1 0.41006300E+02</asrwt>
<pdfrwt beam="1">  1        1 0.87496180E+00 0.30000000E+03</pdfrwt>
<pdfrwt beam="2">0</pdfrwt>
<totfact> 0.21865916E-04</totfact>
</mgrwt>
<clustering>
<clus scale="   41.006">  1  6  2 -1</clus>
<clus scale="  471.381">  4  5 -1 -1</clus>
<clus scale="  300.000">  1  4  2 -1</clus>
</clustering>
</event>
<event>
 6    1  0.9131597E-012  0.3000000E+03  0.7818608E-02  0.1093470E+00
          1   -1    0    0  502    0  0.00000000000E+00  0.00000000000E+00  0.23464009371E+03  0.23464009371E+03  0.00000000000E+00 0.  1.
         13   -1    0    0    0    0 -0.00000000000E+00 -0.00000000000E+00 -0.27500000000E+03  0.27500000000E+03  0.00000000000E+00 0.  1.
    9000005    2    1    2  501    0  0.16946607537E+02 -0.32563861354E+02 -0.37616073324E+02  0.47282812293E+03  0.46989772535E+03 0.  0.
         13    1    3    3    0    0  0.88566736993E+02 -0.86999465894E+02 -0.22948638891E+03  0.26091565047E+03  0.00000000000E+00 0.  1.
          1    1    3    3  501    0 -0.71620129456E+02  0.54435604539E+02  0.19187031558E+03  0.21191247246E+03  0.00000000000E+00 0.  1.
         21    1    1    2  502  501 -0.16946607537E+02  0.32563861354E+02 -0.27438329621E+01  0.36811970779E+02  0.00000000000E+00 0.  1.
<scales pt_clust_4="550.00000" pt_clust_5="550.00000" pt_clust_6="36.70957"></scales>
<mgrwt>
<rscale>  0 0.30000000E+03</rscale>
<asrwt>  1 0.36709571E+02</asrwt>
<pdfrwt beam="1">  1        1 0.85323670E+00 0.30000000E+03</pdfrwt>
<pdfrwt beam="2">0</pdfrwt>
<totfact> 0.37571428E-04</totfact>
</mgrwt>
<clustering>
<clus scale="   36.710">  1  6  2 -1</clus>
<clus scale="  469.898">  4  5 -1 -1</clus>
<clus scale="  300.000">  1  4  2 -1</clus>
</clustering>
</event>
<event>
 6    1  0.9131597E-012  0.3000000E+03  0.7818608E-02  0.1093470E+00
          1   -1    0    0  502    0  0.00000000000E+00  0.00000000000E+00  0.24033200031E+03  0.24033200031E+03  0.00000000000E+00 0.  1.
         13   -1    0    0    0    0 -0.00000000000E+00 -0.00000000000E+00 -0.27500000000E+03  0.27500000000E+03  0.00000000000E+00 0.  1.
    9000005    2    1    2  501    0 -0.34861753520E+02  0.17557775915E+02 -0.50859758668E+02  0.47307338684E+03  0.46870896826E+03 0.  0.
         13    1    3    3    0    0  0.44595998772E+02 -0.21519850189E+03 -0.57033722078E+02  0.22705075154E+03  0.00000000000E+00 0.  1.
          3    1    3    3  501    0 -0.79457752292E+02  0.23275627780E+03  0.61739634096E+01  0.24602263530E+03  0.00000000000E+00 0.  1.
         21    1    1    2  502  501  0.34861753520E+02 -0.17557775915E+02  0.16191758975E+02  0.42258613468E+02  0.00000000000E+00 0.  1.
<scales pt_clust_4="550.00000" pt_clust_5="550.00000" pt_clust_6="39.03354"></scales>
<mgrwt>
<rscale>  0 0.30000000E+03</rscale>
<asrwt>  1 0.39033541E+02</asrwt>
<pdfrwt beam="1">  1        1 0.87393455E+00 0.30000000E+03</pdfrwt>
<pdfrwt beam="2">0</pdfrwt>
<totfact> 0.22617251E-04</totfact>
</mgrwt>
<clustering>
<clus scale="   39.034">  1  6  2 -1</clus>
<clus scale="  468.709">  4  5 -1 -1</clus>
<clus scale="  300.000">  1  4  2 -1</clus>
</clustering>
</event>
<event>
 6    1  0.9131597E-012  0.3000000E+03  0.7818608E-02  0.1093470E+00
          1   -1    0    0  502    0  0.00000000000E+00  0.00000000000E+00  0.23420698141E+03  0.23420698141E+03  0.00000000000E+00 0.  1.
         13   -1    0    0    0    0 -0.00000000000E+00 -0.00000000000E+00 -0.27500000000E+03  0.27500000000E+03  0.00000000000E+00 0.  1.
    9000005    2    1    2  501    0  0.20545604322E+02  0.31598449423E+02 -0.52122520905E+02  0.46985038748E+03  0.46542673491E+03 0.  0.
         13    1    3    3    0    0  0.33460055637E+02  0.24709745296E+03 -0.47969664213E+02  0.25392482207E+03  0.00000000000E+00 0.  1.
          1    1    3    3  501    0 -0.12914451315E+02 -0.21549900353E+03 -0.41528566924E+01  0.21592556541E+03  0.00000000000E+00 0.  1.
         21    1    1    2  502  501 -0.20545604322E+02 -0.31598449423E+02  0.11329502311E+02  0.39356593927E+02  0.00000000000E+00 0. -1.
<scales pt_clust_4="550.00000" pt_clust_5="550.00000" pt_clust_6="37.69063"></scales>
<mgrwt>
<rscale>  0 0.30000000E+03</rscale>
<asrwt>  1 0.37690634E+02</asrwt>
<pdfrwt beam="1">  1        1 0.85166175E+00 0.30000000E+03</pdfrwt>
<pdfrwt beam="2">0</pdfrwt>
<totfact> 0.38714443E-04</totfact>
</mgrwt>
<clustering>
<clus scale="   37.691">  1  6  2 -1</clus>
<clus scale="  465.427">  4  5 -1 -1</clus>
<clus scale="  300.000">  1  4  2 -1</clus>
</clustering>
</event>
<event>
 6    1  0.9131597E-012  0.3000000E+03  0.7818608E-02  0.1093470E+00
          1   -1    0    0  502    0  0.00000000000E+00  0.00000000000E+00  0.24725417189E+03  0.24725417189E+03  0.00000000000E+00 0.  1.
         13   -1    0    0    0    0 -0.00000000000E+00 -0.00000000000E+00 -0.27500000000E+03  0.27500000000E+03  0.00000000000E+00 0.  1.
    9000005    2    1    2  501    0  0.44023781626E+02  0.96007436963E+01 -0.58723807714E+02  0.46757416779E+03  0.46167829618E+03 0.  0.
         13    1    3    3    0    0 -0.72442374769E+02 -0.18177069732E+03  0.71642972408E+02  0.20837754092E+03  0.00000000000E+00 0.  1.
          1    1    3    3  501    0  0.11646615639E+03  0.19137144101E+03 -0.13036678012E+03  0.25919662687E+03  0.00000000000E+00 0.  1.
         21    1    1    2  502  501 -0.44023781626E+02 -0.96007436963E+01  0.30977979608E+02  0.54680004104E+02  0.00000000000E+00 0.  1.
<scales pt_clust_4="550.00000" pt_clust_5="550.00000" pt_clust_6="45.05849"></scales>
<mgrwt>
<rscale>  0 0.30000000E+03</rscale>
<asrwt>  1 0.45058491E+02</asrwt>
<pdfrwt beam="1">  1        1 0.89910608E+00 0.30000000E+03</pdfrwt>
<pdfrwt beam="2">0</pdfrwt>
<totfact> 0.10815169E-04</totfact>
</mgrwt>
<clustering>
<clus scale="   45.058">  1  6  2 -1</clus>
<clus scale="  461.678">  4  5 -1 -1</clus>
<clus scale="  300.000">  1  4  2 -1</clus>
</clustering>
</event>
<event>
 6    1  0.9131597E-012  0.3000000E+03  0.7818608E-02  0.1093470E+00
          1   -1    0    0  502    0  0.00000000000E+00  0.00000000000E+00  0.22922054212E+03  0.22922054212E+03  0.00000000000E+00 0.  1.
         13   -1    0    0    0    0 -0.00000000000E+00 -0.00000000000E+00 -0.27500000000E+03  0.27500000000E+03  0.00000000000E+00 0.  1.
    9000005    2    1    2  501    0  0.22398921226E+02  0.31956229359E+02 -0.57636874501E+02  0.46343438520E+03  0.45817737594E+03 0.  0.
         13    1    3    3    0    0 -0.15659265424E+03 -0.36255630133E+02  0.12125410692E+03  0.20134122410E+03  0.00000000000E+00 0.  1.
          1    1    3    3  501    0  0.17899157546E+03  0.68211859492E+02 -0.17889098142E+03  0.26209316110E+03  0.00000000000E+00 0.  1.
         21    1    1    2  502  501 -0.22398921226E+02 -0.31956229359E+02  0.11857416617E+02  0.40786156913E+02  0.00000000000E+00 0. -1.
<scales pt_clust_4="550.00000" pt_clust_5="550.00000" pt_clust_6="39.02451"></scales>
<mgrwt>
<rscale>  0 0.30000000E+03</rscale>
<asrwt>  1 0.39024509E+02</asrwt>
<pdfrwt beam="1">  1        1 0.83352924E+00 0.30000000E+03</pdfrwt>
<pdfrwt beam="2">0</pdfrwt>
<totfact> 0.54359523E-04</totfact>
</mgrwt>
<clustering>
<clus scale="   39.025">  1  6  2 -1</clus>
<clus scale="  458.177">  4  5 -1 -1</clus>
<clus scale="  300.000">  1  4  2 -1</clus>
</clustering>
</event>
<event>
 6    1  0.9131597E-012  0.3000000E+03  0.7818608E-02  0.1093470E+00
          1   -1    0    0  502    0  0.00000000000E+00  0.00000000000E+00  0.25027863628E+03  0.25027863628E+03  0.00000000000E+00 0.  1.
         13   -1    0    0    0    0 -0.00000000000E+00 -0.00000000000E+00 -0.27500000000E+03  0.27500000000E+03  0.00000000000E+00 0.  1.
    9000005    2    1    2  501    0 -0.27482454776E+02  0.23346763050E+02 -0.38919173363E+02  0.48652383704E+03  0.48362215136E+03 0.  0.
         13    1    3    3    0    0 -0.22714849997E+03  0.12620244773E+03 -0.97447420685E+01  0.26003549536E+03  0.00000000000E+00 0.  1.
          3    1    3    3  501    0  0.19966604519E+03 -0.10285568468E+03 -0.29174431295E+02  0.22648834168E+03  0.00000000000E+00 0.  1.
         21    1    1    2  502  501  0.27482454776E+02 -0.23346763050E+02  0.14197809643E+02  0.38754799240E+02  0.00000000000E+00 0.  1.
<scales pt_clust_4="550.00000" pt_clust_5="550.00000" pt_clust_6="36.06046"></scales>
<mgrwt>
<rscale>  0 0.30000000E+03</rscale>
<asrwt>  1 0.36060458E+02</asrwt>
<pdfrwt beam="1">  1        1 0.91010413E+00 0.30000000E+03</pdfrwt>
<pdfrwt beam="2">0</pdfrwt>
<totfact> 0.71043549E-05</totfact>
</mgrwt>
<clustering>
<clus scale="   36.060">  1  6  2 -1</clus>
<clus scale="  483.622">  4  5 -1 -1</clus>
<clus scale="  300.000">  1  4  2 -1</clus>
</clustering>
</event>
<event>
 6    1  0.9131597E-012  0.3000000E+03  0.7818608E-02  0.1093470E+00
          1   -1    0    0  502    0  0.00000000000E+00  0.00000000000E+00  0.22653792553E+03  0.22653792553E+03  0.00000000000E+00 0.  1.
         13   -1    0    0    0    0 -0.00000000000E+00 -0.00000000000E+00 -0.27500000000E+03  0.27500000000E+03  0.00000000000E+00 0.  1.
    9000005    2    1    2  501    0  0.32054745065E+02 -0.12510107601E+02 -0.45410135125E+02  0.46699340632E+03  0.46350485618E+03 0.  0.
         13    1    3    3    0    0 -0.63997268968E+02 -0.20391498677E+03  0.68497979599E+02  0.22443026862E+03  0.00000000000E+00 0.  1.
          1    1    3    3  501    0  0.96052014033E+02  0.19140487917E+03 -0.11390811472E+03  0.24256313770E+03  0.00000000000E+00 0.  1.
         21    1    1    2  502  501 -0.32054745065E+02  0.12510107601E+02 -0.30519393498E+01  0.34544519206E+02  0.00000000000E+00 0.  1.
<scales pt_clust_4="550.00000" pt_clust_5="550.00000" pt_clust_6="34.40944"></scales>
<mgrwt>
<rscale>  0 0.30000000E+03</rscale>
<asrwt>  1 0.34409439E+02</asrwt>
<pdfrwt beam="1">  1        1 0.82377427E+00 0.30000000E+03</pdfrwt>
<pdfrwt beam="2">0</pdfrwt>
<totfact> 0.67199145E-04</totfact>
</mgrwt>
<clustering>
<clus scale="   34.409">  1  6  2 -1</clus>
<clus scale="  463.505">  4  5 -1 -1</clus>
<clus scale="  300.000">  1  4  2 -1</clus>
</clustering>
</event>
<event>
 6    1  0.9131597E-012  0.3000000E+03  0.7818608E-02  0.1093470E+00
          1   -1    0    0  502    0  0.00000000000E+00  0.00000000000E+00  0.24175322991E+03  0.24175322991E+03  0.00000000000E+00 0.  1.
         13   -1    0    0    0    0 -0.00000000000E+00 -0.00000000000E+00 -0.27500000000E+03  0.27500000000E+03  0.00000000000E+00 0.  1.
    9000005    2    1    2  501    0  0.29719361568E+02 -0.20633775184E+02 -0.70327454693E+02  0.46494618115E+03  0.45817028205E+03 0.  0.
         13    1    3    3    0    0  0.52840799636E+02 -0.50345512609E+02  0.18915476520E+03  0.20274699984E+03  0.00000000000E+00 0.  1.
          3    1    3    3  501    0 -0.23121438068E+02  0.29711737424E+02 -0.25948221989E+03  0.26219918131E+03  0.00000000000E+00 0.  1.
         21    1    1    2  502  501 -0.29719361568E+02  0.20633775184E+02  0.37080684601E+02  0.51807048757E+02  0.00000000000E+00 0.  1.
<scales pt_clust_4="550.00000" pt_clust_5="550.00000" pt_clust_6="36.18001"></scales>
<mgrwt>
<rscale>  0 0.30000000E+03</rscale>
<asrwt>  1 0.36180010E+02</asrwt>
<pdfrwt beam="1">  1        1 0.87910265E+00 0.30000000E+03</pdfrwt>
<pdfrwt beam="2">0</pdfrwt>
<totfact> 0.20114359E-04</totfact>
</mgrwt>
<clustering>
<clus scale="   36.180">  1  6  2 -1</clus>
<clus scale="  458.170">  4  5 -1 -1</clus>
<clus scale="  300.000">  1  4  2 -1</clus>
</clustering>
</event>
<event>
 6    1  0.9131597E-012  0.3000000E+03  0.7818608E-02  0.1093470E+00
          1   -1    0    0  502    0  0.00000000000E+00  0.00000000000E+00  0.24315480642E+03  0.24315480642E+03  0.00000000000E+00 0.  1.
         13   -1    0    0    0    0 -0.00000000000E+00 -0.00000000000E+00 -0.27500000000E+03  0.27500000000E+03  0.00000000000E+00 0.  1.
    9000005    2    1    2  501    0 -0.33816427246E+02 -0.28352969964E+02 -0.21138779451E+02  0.47274479694E+03  0.47020565009E+03 0.  0.
         13    1    3    3    0    0  0.81222140288E+02 -0.20697784065E+03 -0.10301781355E+03  0.24505006122E+03  0.00000000000E+00 0.  1.
          3    1    3    3  501    0 -0.11503856753E+03  0.17862487069E+03  0.81879034100E+02  0.22769473572E+03  0.00000000000E+00 0.  1.
         21    1    1    2  502  501  0.33816427246E+02  0.28352969964E+02 -0.10706414130E+02  0.45410009480E+02  0.00000000000E+00 0. -1.
<scales pt_clust_4="550.00000" pt_clust_5="550.00000" pt_clust_6="44.12985"></scales>
<mgrwt>
<rscale>  0 0.30000000E+03</rscale>
<asrwt>  1 0.44129849E+02</asrwt>
<pdfrwt beam="1">  1        1 0.88419930E+00 0.30000000E+03</pdfrwt>
<pdfrwt beam="2">0</pdfrwt>
<totfact> 0.16679835E-04</totfact>
</mgrwt>
<clustering>
<clus scale="   44.130">  1  6  2 -1</clus>
<clus scale="  470.206">  4  5 -1 -1</clus>
<clus scale="  300.000">  1  4  2 -1</clus>
</clustering>
</event>
<event>
 6    1  0.9131597E-012  0.3000000E+03  0.7818608E-02  0.1093470E+00
          1   -1    0    0  502    0  0.00000000000E+00  0.00000000000E+00  0.22355854995E+03  0.22355854995E+03  0.00000000000E+00 0.  1.
         13   -1    0    0    0    0 -0.00000000000E+00 -0.00000000000E+00 -0.27500000000E+03  0.27500000000E+03  0.00000000000E+00 0.  1.
    9000005    2    1    2  501    0  0.21445474413E+02  0.25457909732E+02 -0.62200708144E+02  0.46357605182E+03  0.45817661899E+03 0.  0.
         13    1    3    3    0    0 -0.77119804610E+02 -0.82900390073E+02  0.16086378920E+03  0.19671577876E+03  0.00000000000E+00 0.  1.
          1    1    3    3  501    0  0.98565279023E+02  0.10835829980E+03 -0.22306449734E+03  0.26686027306E+03  0.00000000000E+00 0.  1.
         21    1    1    2  502  501 -0.21445474413E+02 -0.25457909732E+02  0.10759258097E+02  0.34982498132E+02  0.00000000000E+00 0.  1.
<scales pt_clust_4="550.00000" pt_clust_5="550.00000" pt_clust_6="33.28684"></scales>
<mgrwt>
<rscale>  0 0.30000000E+03</rscale>
<asrwt>  1 0.33286837E+02</asrwt>
<pdfrwt beam="1">  1        1 0.81294018E+00 0.30000000E+03</pdfrwt>
<pdfrwt beam="2">0</pdfrwt>
<totfact> 0.83472128E-04</totfact>
</mgrwt>
<clustering>
<clus scale="   33.287">  1  6  2 -1</clus>
<clus scale="  458.177">  4  5 -1 -1</clus>
<clus scale="  300.000">  1  4  2 -1</clus>
</clustering>
</event>
<event>
 6    1  0.9131597E-012  0.3000000E+03  0.7818608E-02  0.1093470E+00
          1   -1    0    0  502    0  0.00000000000E+00  0.00000000000E+00  0.24209699861E+03  0.24209699861E+03  0.00000000000E+00 0.  1.
         13   -1    0    0    0    0 -0.00000000000E+00 -0.00000000000E+00 -0.27500000000E+03  0.27500000000E+03  0.00000000000E+00 0.  1.
    9000005    2    1    2  501    0  0.20927180703E+02  0.22153378291E+02 -0.44404287991E+02  0.48452402430E+03  0.48152161973E+03 0.  0.
         13    1    3    3    0    0  0.22669049148E+03 -0.90807695850E+01  0.81752666511E+02  0.24115251975E+03  0.00000000000E+00 0.  1.
          1    1    3    3  501    0 -0.20576331077E+03  0.31234147876E+02 -0.12615695450E+03  0.24337150454E+03  0.00000000000E+00 0.  1.
         21    1    1    2  502  501 -0.20927180703E+02 -0.22153378291E+02  0.11501286597E+02  0.32572974308E+02  0.00000000000E+00 0.  1.
<scales pt_clust_4="550.00000" pt_clust_5="550.00000" pt_clust_6="30.47489"></scales>
<mgrwt>
<rscale>  0 0.30000000E+03</rscale>
<asrwt>  1 0.30474892E+02</asrwt>
<pdfrwt beam="1">  1        1 0.88035272E+00 0.30000000E+03</pdfrwt>
<pdfrwt beam="2">0</pdfrwt>
<totfact> 0.20059464E-04</totfact>
</mgrwt>
<clustering>
<clus scale="   30.475">  1  6  2 -1</clus>
<clus scale="  481.522">  4  5 -1 -1</clus>
<clus scale="  300.000">  1  4  2 -1</clus>
</clustering>
</event>
<event>
 6    1  0.9131597E-012  0.3000000E+03  0.7818608E-02  0.1093470E+00
          1   -1    0    0  502    0  0.00000000000E+00  0.00000000000E+00  0.22345304433E+03  0.22345304433E+03  0.00000000000E+00 0.  1.
         13   -1    0    0    0    0 -0.00000000000E+00 -0.00000000000E+00 -0.27500000000E+03  0.27500000000E+03  0.00000000000E+00 0.  1.
    9000005    2    1    2  501    0  0.15615111305E+02 -0.33468793962E+02 -0.56578197107E+02  0.46117965891E+03  0.45620345629E+03 0.  0.
         13    1    3    3    0    0 -0.11410085065E+03 -0.18017685271E+03 -0.13258058173E+03  0.25111812564E+03  0.00000000000E+00 0.  1.
          1    1    3    3  501    0  0.12971596196E+03  0.14670805875E+03  0.76002384623E+02  0.21006153327E+03  0.00000000000E+00 0.  1.
         21    1    1    2  502  501 -0.15615111305E+02  0.33468793962E+02  0.50312414381E+01  0.37273385421E+02  0.00000000000E+00 0. -1.
<scales pt_clust_4="550.00000" pt_clust_5="550.00000" pt_clust_6="36.93226"></scales>
<mgrwt>
<rscale>  0 0.30000000E+03</rscale>
<asrwt>  1 0.36932261E+02</asrwt>
<pdfrwt beam="1">  1        1 0.81255652E+00 0.30000000E+03</pdfrwt>
<pdfrwt beam="2">0</pdfrwt>
<totfact> 0.82441960E-04</totfact>
</mgrwt>
<clustering>
<clus scale="   36.932">  1  6  2 -1</clus>
<clus scale="  456.203">  4  5 -1 -1</clus>
<clus scale="  300.000">  1  4  2 -1</clus>
</clustering>
</event>
<event>
 6    1  0.9131597E-012  0.3000000E+03  0.7818608E-02  0.1093470E+00
          1   -1    0    0  502    0  0.00000000000E+00  0.00000000000E+00  0.24541983754E+03  0.24541983754E+03  0.00000000000E+00 0.  1.
         13   -1    0    0    0    0 -0.00000000000E+00 -0.00000000000E+00 -0.27500000000E+03  0.27500000000E+03  0.00000000000E+00 0.  1.
    9000005    2    1    2  501    0 -0.84540923229E+01  0.29787635085E+02 -0.73424188951E+02  0.46674420490E+03  0.45989158114E+03 0.  0.
         13    1    3    3    0    0  0.49403558459E+02 -0.20794470945E+03 -0.58616678035E+02  0.22162497315E+03  0.00000000000E+00 0.  1.
          1    1    3    3  501    0 -0.57857650782E+02  0.23773234454E+03 -0.14807510916E+02  0.24511923175E+03  0.00000000000E+00 0.  1.
         21    1    1    2  502  501  0.84540923229E+01 -0.29787635085E+02  0.43844026495E+02  0.53675632649E+02  0.00000000000E+00 0.  1.
<scales pt_clust_4="550.00000" pt_clust_5="550.00000" pt_clust_6="30.96409"></scales>
<mgrwt>
<rscale>  0 0.30000000E+03</rscale>
<asrwt>  1 0.30964090E+02</asrwt>
<pdfrwt beam="1">  1        1 0.89243577E+00 0.30000000E+03</pdfrwt>
<pdfrwt beam="2">0</pdfrwt>
<totfact> 0.13816385E-04</totfact>
</mgrwt>
<clustering>
<clus scale="   30.964">  1  6  2 -1</clus>
<clus scale="  459.892">  4  5 -1 -1</clus>
<clus scale="  300.000">  1  4  2 -1</clus>
</clustering>
</event>
<event>
 6    1  0.9131597E-012  0.3000000E+03  0.7818608E-02  0.1093470E+00
          1   -1    0    0  502    0  0.00000000000E+00  0.00000000000E+00  0.23330629903E+03  0.23330629903E+03  0.00000000000E+00 0.  1.
         13   -1    0    0    0    0 -0.00000000000E+00 -0.00000000000E+00 -0.27500000000E+03  0.27500000000E+03  0.00000000000E+00 0.  1.
    9000005    2    1    2  501    0 -0.32226941751E+02  0.22795194282E+02 -0.55128033869E+02  0.46660884158E+03  0.46165627286E+03 0.  0.
         13    1    3    3    0    0 -0.32784587809E+02  0.60098652550E+02 -0.25461776362E+03  0.26366054461E+03  0.00000000000E+00 0.  1.
          3    1    3    3  501    0  0.55764605827E+00 -0.37303458268E+02  0.19948972975E+03  0.20294829697E+03  0.00000000000E+00 0.  1.
         21    1    1    2  502  501  0.32226941751E+02 -0.22795194282E+02  0.13434332895E+02  0.41697457444E+02  0.00000000000E+00 0.  1.
<scales pt_clust_4="550.00000" pt_clust_5="550.00000" pt_clust_6="39.47400"></scales>
<mgrwt>
<rscale>  0 0.30000000E+03</rscale>
<asrwt>  1 0.39474000E+02</asrwt>
<pdfrwt beam="1">  1        1 0.84838654E+00 0.30000000E+03</pdfrwt>
<pdfrwt beam="2">0</pdfrwt>
<totfact> 0.41201137E-04</totfact>
</mgrwt>
<clustering>
<clus scale="   39.474">  1  6  2 -1</clus>
<clus scale="  461.656">  4  5 -1 -1</clus>
<clus scale="  300.000">  1  4  2 -1</clus>
</clustering>
</event>
<event>
 6    1  0.9131597E-012  0.3000000E+03  0.7818608E-02  0.1093470E+00
          1   -1    0    0  502    0  0.00000000000E+00  0.00000000000E+00  0.24821130821E+03  0.24821130821E+03  0.00000000000E+00 0.  1.
         13   -1    0    0    0    0 -0.00000000000E+00 -0.00000000000E+00 -0.27500000000E+03  0.27500000000E+03  0.00000000000E+00 0.  1.
    9000005    2    1    2  501    0  0.40318664731E+02 -0.26835901325E+02 -0.61089095922E+02  0.46386252516E+03  0.45726447958E+03 0.  0.
         13    1    3    3    0    0  0.17213157925E+03  0.13621215552E+03 -0.11439678823E+03  0.24752708346E+03  0.00000000000E+00 0.  1.
          3    1    3    3  501    0 -0.13181291452E+03 -0.16304805685E+03  0.53307692311E+02  0.21633544170E+03  0.00000000000E+00 0.  1.
         21    1    1    2  502  501 -0.40318664731E+02  0.26835901325E+02  0.34300404127E+02  0.59348783045E+02  0.00000000000E+00 0. -1.
<scales pt_clust_4="550.00000" pt_clust_5="550.00000" pt_clust_6="48.43305"></scales>
<mgrwt>
<rscale>  0 0.30000000E+03</rscale>
<asrwt>  1 0.48433050E+02</asrwt>
<pdfrwt beam="1">  1        1 0.90258658E+00 0.30000000E+03</pdfrwt>
<pdfrwt beam="2">0</pdfrwt>
<totfact> 0.95893791E-05</totfact>
</mgrwt>
<clustering>
<clus scale="   48.433">  1  6  2 -1</clus>
<clus scale="  457.264">  4  5 -1 -1</clus>
<clus scale="  300.000">  1  4  2 -1</clus>
</clustering>
</event>
<event>
 6    1  0.9131597E-012  0.3000000E+03  0.7818608E-02  0.1093470E+00
          1   -1    0    0  502    0  0.00000000000E+00  0.00000000000E+00  0.23929783058E+03  0.23929783058E+03  0.00000000000E+00 0.  1.
         13   -1    0    0    0    0 -0.00000000000E+00 -0.00000000000E+00 -0.27500000000E+03  0.27500000000E+03  0.00000000000E+00 0.  1.
    9000005    2    1    2  501    0 -0.26400432918E+02 -0.19795130557E+02 -0.69654880027E+02  0.46695211684E+03  0.46054711709E+03 0.  0.
         13    1    3    3    0    0 -0.22274034954E+03 -0.83167594848E+02  0.26684546965E+02  0.23925337446E+03  0.00000000000E+00 0.  1.
          3    1    3    3  501    0  0.19633991662E+03  0.63372464292E+02 -0.96339426992E+02  0.22769874238E+03  0.00000000000E+00 0.  1.
         21    1    1    2  502  501  0.26400432918E+02  0.19795130557E+02  0.33952710606E+02  0.47345713739E+02  0.00000000000E+00 0. -1.
<scales pt_clust_4="550.00000" pt_clust_5="550.00000" pt_clust_6="32.99742"></scales>
<mgrwt>
<rscale>  0 0.30000000E+03</rscale>
<asrwt>  1 0.32997425E+02</asrwt>
<pdfrwt beam="1">  1        1 0.87017393E+00 0.30000000E+03</pdfrwt>
<pdfrwt beam="2">0</pdfrwt>
<totfact> 0.25502618E-04</totfact>
</mgrwt>
<clustering>
<clus scale="   32.997">  1  6  2 -1</clus>
<clus scale="  460.547">  4  5 -1 -1</clus>
<clus scale="  300.000">  1  4  2 -1</clus>
</clustering>
</event>
<event>
 6    1  0.9131597E-012  0.3000000E+03  0.7818608E-02  0.1093470E+00
          1   -1    0    0  502    0  0.00000000000E+00  0.00000000000E+00  0.23832410532E+03  0.23832410532E+03  0.00000000000E+00 0.  1.
         13   -1    0    0    0    0 -0.00000000000E+00 -0.00000000000E+00 -0.27500000000E+03  0.27500000000E+03  0.00000000000E+00 0.  1.
    9000005    2    1    2  501    0  0.20596695573E+02 -0.23374031687E+02 -0.75357542211E+02  0.46365682150E+03  0.45642997243E+03 0.  0.
         13    1    3    3    0    0  0.23020757482E+03  0.49425720270E+02 -0.32956667051E+02  0.23774896684E+03  0.00000000000E+00 0.  1.
          3    1    3    3  501    0 -0.20961087925E+03 -0.72799751957E+02 -0.42400875160E+02  0.22590785467E+03  0.00000000000E+00 0.  1.
         21    1    1    2  502  501 -0.20596695573E+02  0.23374031687E+02  0.38681647530E+02  0.49667283814E+02  0.00000000000E+00 0. -1.
<scales pt_clust_4="550.00000" pt_clust_5="550.00000" pt_clust_6="31.15396"></scales>
<mgrwt>
<rscale>  0 0.30000000E+03</rscale>
<asrwt>  1 0.31153960E+02</asrwt>
<pdfrwt beam="1">  1        1 0.86663311E+00 0.30000000E+03</pdfrwt>
<pdfrwt beam="2">0</pdfrwt>
<totfact> 0.28055948E-04</totfact>
</mgrwt>
<clustering>
<clus scale="   31.154">  1  6  2 -1</clus>
<clus scale="  456.430">  4  5 -1 -1</clus>
<clus scale="  300.000">  1  4  2 -1</clus>
</clustering>
</event>
<event>
 6    1  0.9131597E-012  0.3000000E+03  0.7818608E-02  0.1093470E+00
          1   -1    0    0  502    0  0.00000000000E+00  0.00000000000E+00  0.22498481161E+03  0.22498481161E+03  0.00000000000E+00 0.  1.
         13   -1    0    0    0    0 -0.00000000000E+00 -0.00000000000E+00 -0.27500000000E+03  0.27500000000E+03  0.00000000000E+00 0.  1.
    9000005    2    1    2  501    0 -0.32857403800E+02 -0.10122540061E+02 -0.57493825379E+02  0.46479951905E+03  0.45994671229E+03 0.  0.
         13    1    3    3    0    0 -0.11514085168E+03 -0.11985178273E+03  0.14477674932E+03  0.22041363999E+03  0.00000000000E+00 0.  1.
          3    1    3    3  501    0  0.82283447877E+02  0.10972924267E+03 -0.20227057470E+03  0.24438587906E+03  0.00000000000E+00 0.  1.
         21    1    1    2  502  501  0.32857403800E+02  0.10122540061E+02  0.74786369940E+01  0.35185292567E+02  0.00000000000E+00 0.  1.
<scales pt_clust_4="550.00000" pt_clust_5="550.00000" pt_clust_6="34.38131"></scales>
<mgrwt>
<rscale>  0 0.30000000E+03</rscale>
<asrwt>  1 0.34381315E+02</asrwt>
<pdfrwt beam="1">  1        1 0.81812659E+00 0.30000000E+03</pdfrwt>
<pdfrwt beam="2">0</pdfrwt>
<totfact> 0.75289735E-04</totfact>
</mgrwt>
<clustering>
<clus scale="   34.381">  1  6  2 -1</clus>
<clus scale="  459.947">  4  5 -1 -1</clus>
<clus scale="  300.000">  1  4  2 -1</clus>
</clustering>
</event>
<event>
 6    1  0.9131597E-012  0.3000000E+03  0.7818608E-02  0.1093470E+00
          1   -1    0    0  502    0  0.00000000000E+00  0.00000000000E+00  0.25676167744E+03  0.25676167744E+03  0.00000000000E+00 0.  1.
         13   -1    0    0    0    0 -0.00000000000E+00 -0.00000000000E+00 -0.27500000000E+03  0.27500000000E+03  0.00000000000E+00 0.  1.
    9000005    2    1    2  501    0  0.19544515473E+02  0.24141949341E+02 -0.73241491788E+02  0.46859388162E+03  0.46179117355E+03 0.  0.
         13    1    3    3    0    0  0.21029586406E+02  0.20426081694E+03  0.91212928329E+02  0.22468761234E+03  0.00000000000E+00 0.  1.
          1    1    3    3  501    0 -0.14850709331E+01 -0.18011886760E+03 -0.16445442012E+03  0.24390626929E+03  0.00000000000E+00 0.  1.
         21    1    1    2  502  501 -0.19544515473E+02 -0.24141949341E+02  0.55003169225E+02  0.63167795813E+02  0.00000000000E+00 0.  1.
<scales pt_clust_4="550.00000" pt_clust_5="550.00000" pt_clust_6="31.06158"></scales>
<mgrwt>
<rscale>  0 0.30000000E+03</rscale>
<asrwt>  1 0.31061581E+02</asrwt>
<pdfrwt beam="1">  1        1 0.93367883E+00 0.30000000E+03</pdfrwt>
<pdfrwt beam="2">0</pdfrwt>
<totfact> 0.23912620E-05</totfact>
</mgrwt>
<clustering>
<clus scale="   31.062">  1  6  2 -1</clus>
<clus scale="  461.791">  4  5 -1 -1</clus>
<clus scale="  300.000">  1  4  2 -1</clus>
</clustering>
</event>
<event>
 6    1  0.9131597E-012  0.3000000E+03  0.7818608E-02  0.1093470E+00
          1   -1    0    0  502    0  0.00000000000E+00  0.00000000000E+00  0.23172651420E+03  0.23172651420E+03  0.00000000000E+00 0.  1.
         13   -1    0    0    0    0 -0.00000000000E+00 -0.00000000000E+00 -0.27500000000E+03  0.27500000000E+03  0.00000000000E+00 0.  1.
    9000005    2    1    2  501    0  0.31115364334E+02  0.18503581720E+02 -0.60233914456E+02  0.46674896332E+03  0.46142813295E+03 0.  0.
         13    1    3    3    0    0 -0.13702512562E+03 -0.16441671099E+03 -0.37042176908E+02  0.21721156224E+03  0.00000000000E+00 0.  1.
          1    1    3    3  501    0  0.16814048995E+03  0.18292029271E+03 -0.23191737548E+02  0.24953740108E+03  0.00000000000E+00 0.  1.
         21    1    1    2  502  501 -0.31115364334E+02 -0.18503581720E+02  0.16960428654E+02  0.39977550878E+02  0.00000000000E+00 0.  1.
<scales pt_clust_4="550.00000" pt_clust_5="550.00000" pt_clust_6="36.20150"></scales>
<mgrwt>
<rscale>  0 0.30000000E+03</rscale>
<asrwt>  1 0.36201498E+02</asrwt>
<pdfrwt beam="1">  1        1 0.84264187E+00 0.30000000E+03</pdfrwt>
<pdfrwt beam="2">0</pdfrwt>
<totfact> 0.47034241E-04</totfact>
</mgrwt>
<clustering>
<clus scale="   36.201">  1  6  2 -1</clus>
<clus scale="  461.428">  4  5 -1 -1</clus>
<clus scale="  300.000">  1  4  2 -1</clus>
</clustering>
</event>
<event>
 6    1  0.9131597E-012  0.3000000E+03  0.7818608E-02  0.1093470E+00
          1   -1    0    0  502    0  0.00000000000E+00  0.00000000000E+00  0.25212384694E+03  0.25212384694E+03  0.00000000000E+00 0.  1.
         13   -1    0    0    0    0 -0.00000000000E+00 -0.00000000000E+00 -0.27500000000E+03  0.27500000000E+03  0.00000000000E+00 0.  1.
    9000005    2    1    2  501    0  0.41193392993E+01  0.30765122531E+02 -0.20173721327E+02  0.49596674730E+03  0.49458323230E+03 0.  0.
         13    1    3    3    0    0  0.17836798443E+03 -0.93917556980E+01 -0.18184995414E+03  0.25489752601E+03  0.00000000000E+00 0.  1.
          3    1    3    3  501    0 -0.17424864513E+03  0.40156878229E+02  0.16167623281E+03  0.24106922129E+03  0.00000000000E+00 0.  1.
         21    1    1    2  502  501 -0.41193392993E+01 -0.30765122531E+02 -0.27024317321E+01  0.31157099638E+02  0.00000000000E+00 0.  1.
<scales pt_clust_4="550.00000" pt_clust_5="550.00000" pt_clust_6="31.03970"></scales>
<mgrwt>
<rscale>  0 0.30000000E+03</rscale>
<asrwt>  1 0.31039695E+02</asrwt>
<pdfrwt beam="1">  1        1 0.91681399E+00 0.30000000E+03</pdfrwt>
<pdfrwt beam="2">0</pdfrwt>
<totfact> 0.50323419E-05</totfact>
</mgrwt>
<clustering>
<clus scale="   31.040">  1  6  2 -1</clus>
<clus scale="  494.583">  4  5 -1 -1</clus>
<clus scale="  300.000">  1  4  2 -1</clus>
</clustering>
</event>
<event>
 6    1  0.9131597E-012  0.3000000E+03  0.7818608E-02  0.1093470E+00
          1   -1    0    0  502    0  0.00000000000E+00  0.00000000000E+00  0.23392696875E+03  0.23392696875E+03  0.00000000000E+00 0.  1.
         13   -1    0    0    0    0 -0.00000000000E+00 -0.00000000000E+00 -0.27500000000E+03  0.27500000000E+03  0.00000000000E+00 0.  1.
    9000005    2    1    2  501    0  0.10515193055E+02  0.32824473973E+02 -0.62248047199E+02  0.46847456861E+03  0.46303950877E+03 0.  0.
         13    1    3    3    0    0  0.11385798091E+03 -0.14477370847E+03 -0.15717456202E+03  0.24212994326E+03  0.00000000000E+00 0.  1.
          3    1    3    3  501    0 -0.10334278785E+03  0.17759818244E+03  0.94926514816E+02  0.22634462535E+03  0.00000000000E+00 0.  1.
         21    1    1    2  502  501 -0.10515193055E+02 -0.32824473973E+02  0.21175015951E+02  0.40452400140E+02  0.00000000000E+00 0.  1.
<scales pt_clust_4="550.00000" pt_clust_5="550.00000" pt_clust_6="34.46760"></scales>
<mgrwt>
<rscale>  0 0.30000000E+03</rscale>
<asrwt>  1 0.34467599E+02</asrwt>
<pdfrwt beam="1">  1        1 0.85064352E+00 0.30000000E+03</pdfrwt>
<pdfrwt beam="2">0</pdfrwt>
<totfact> 0.40250164E-04</totfact>
</mgrwt>
<clustering>
<clus scale="   34.468">  1  6  2 -1</clus>
<clus scale="  463.040">  4  5 -1 -1</clus>
<clus scale="  300.000">  1  4  2 -1</clus>
</clustering>
</event>
<event>
 6    1  0.9131597E-012  0.3000000E+03  0.7818608E-02  0.1093470E+00
          1   -1    0    0  502    0  0.00000000000E+00  0.00000000000E+00  0.22807610490E+03  0.22807610490E+03  0.00000000000E+00 0.  1.
         13   -1    0    0    0    0 -0.00000000000E+00 -0.00000000000E+00 -0.27500000000E+03  0.27500000000E+03  0.00000000000E+00 0.  1.
    9000005    2    1    2  501    0 -0.27130425367E+02  0.16767338477E+02 -0.58453805822E+02  0.46916235457E+03  0.46441281626E+03 0.  0.
         13    1    3    3    0    0 -0.82198134212E+02 -0.19353018620E+03  0.63834464325E+02  0.21973917510E+03  0.00000000000E+00 0.  1.
          3    1    3    3  501    0  0.55067708845E+02  0.21029752467E+03 -0.12228827015E+03  0.24942317947E+03  0.00000000000E+00 0.  1.
         21    1    1    2  502  501  0.27130425367E+02 -0.16767338477E+02  0.11529910718E+02  0.33913750329E+02  0.00000000000E+00 0.  1.
<scales pt_clust_4="550.00000" pt_clust_5="550.00000" pt_clust_6="31.89363"></scales>
<mgrwt>
<rscale>  0 0.30000000E+03</rscale>
<asrwt>  1 0.31893630E+02</asrwt>
<pdfrwt beam="1">  1        1 0.82936765E+00 0.30000000E+03</pdfrwt>
<pdfrwt beam="2">0</pdfrwt>
<totfact> 0.60881084E-04</totfact>
</mgrwt>
<clustering>
<clus scale="   31.894">  1  6  2 -1</clus>
<clus scale="  464.413">  4  5 -1 -1</clus>
<clus scale="  300.000">  1  4  2 -1</clus>
</clustering>
</event>
<event>
 6    1  0.9131597E-012  0.3000000E+03  0.7818608E-02  0.1093470E+00
          1   -1    0    0  502    0  0.00000000000E+00  0.00000000000E+00  0.22190914171E+03  0.22190914171E+03  0.00000000000E+00 0.  1.
         13   -1    0    0    0    0 -0.00000000000E+00 -0.00000000000E+00 -0.27500000000E+03  0.27500000000E+03  0.00000000000E+00 0.  1.
    9000005    2    1    2  501    0 -0.20314941712E+02 -0.28480610234E+02 -0.52385100359E+02  0.46191856998E+03  0.45760323921E+03 0.  0.
         13    1    3    3    0    0 -0.19905252576E+03  0.11455253640E+03 -0.17155024944E+02  0.23030086081E+03  0.00000000000E+00 0.  1.
          3    1    3    3  501    0  0.17873758405E+03 -0.14303314663E+03 -0.35230075415E+02  0.23161770917E+03  0.00000000000E+00 0.  1.
         21    1    1    2  502  501  0.20314941712E+02  0.28480610234E+02 -0.70575792814E+00  0.34990571735E+02  0.00000000000E+00 0. -1.
<scales pt_clust_4="550.00000" pt_clust_5="550.00000" pt_clust_6="34.98345"></scales>
<mgrwt>
<rscale>  0 0.30000000E+03</rscale>
<asrwt>  1 0.34983453E+02</asrwt>
<pdfrwt beam="1">  1        1 0.80694233E+00 0.30000000E+03</pdfrwt>
<pdfrwt beam="2">0</pdfrwt>
<totfact> 0.92102818E-04</totfact>
</mgrwt>
<clustering>
<clus scale="   34.983">  1  6  2 -1</clus>
<clus scale="  457.603">  4  5 -1 -1</clus>
<clus scale="  300.000">  1  4  2 -1</clus>
</clustering>
</event>
<event>
 6    1  0.9131597E-012  0.3000000E+03  0.7818608E-02  0.1093470E+00
          1   -1    0    0  502    0  0.00000000000E+00  0.00000000000E+00  0.24411200353E+03  0.24411200353E+03  0.00000000000E+00 0.  1.
         13   -1    0    0    0    0 -0.00000000000E+00 -0.00000000000E+00 -0.27500000000E+03  0.27500000000E+03  0.00000000000E+00 0.  1.
    9000005    2    1    2  501    0  0.33164321105E+02  0.21853567446E+02 -0.57580225145E+02  0.47125883565E+03  0.46603857914E+03 0.  0.
         13    1    3    3    0    0 -0.15625108888E+03  0.50441404916E+02  0.12520587087E+03  0.20648304581E+03  0.00000000000E+00 0.  1.
          1    1    3    3  501    0  0.18941540998E+03 -0.28587837470E+02 -0.18278609601E+03  0.26477578984E+03  0.00000000000E+00 0.  1.
         21    1    1    2  502  501 -0.33164321105E+02 -0.21853567446E+02  0.26692228678E+02  0.47853167881E+02  0.00000000000E+00 0.  1.
<scales pt_clust_4="550.00000" pt_clust_5="550.00000" pt_clust_6="39.71713"></scales>
<mgrwt>
<rscale>  0 0.30000000E+03</rscale>
<asrwt>  1 0.39717132E+02</asrwt>
<pdfrwt beam="1">  1        1 0.88768001E+00 0.30000000E+03</pdfrwt>
<pdfrwt beam="2">0</pdfrwt>
<totfact> 0.15226642E-04</totfact>
</mgrwt>
<clustering>
<clus scale="   39.717">  1  6  2 -1</clus>
<clus scale="  466.039">  4  5 -1 -1</clus>
<clus scale="  300.000">  1  4  2 -1</clus>
</clustering>
</event>
<event>
 6    1  0.9131597E-012  0.3000000E+03  0.7818608E-02  0.1093470E+00
          1   -1    0    0  502    0  0.00000000000E+00  0.00000000000E+00  0.23495885631E+03  0.23495885631E+03  0.00000000000E+00 0.  1.
         13   -1    0    0    0    0 -0.00000000000E+00 -0.00000000000E+00 -0.27500000000E+03  0.27500000000E+03  0.00000000000E+00 0.  1.
    9000005    2    1    2  501    0 -0.50228790312E+01 -0.33353209021E+02 -0.45851541304E+02  0.47573274659E+03  0.47231516647E+03 0.  0.
         13    1    3    3    0    0  0.11890551920E+03 -0.20328629761E+03 -0.10410645592E+03  0.25749173862E+03  0.00000000000E+00 0.  1.
          3    1    3    3  501    0 -0.12392839823E+03  0.16993308859E+03  0.58254914616E+02  0.21824100798E+03  0.00000000000E+00 0.  1.
         21    1    1    2  502  501  0.50228790312E+01  0.33353209021E+02  0.58103976127E+01  0.34226109714E+02  0.00000000000E+00 0.  1.
<scales pt_clust_4="550.00000" pt_clust_5="550.00000" pt_clust_6="33.72930"></scales>
<mgrwt>
<rscale>  0 0.30000000E+03</rscale>
<asrwt>  1 0.33729303E+02</asrwt>
<pdfrwt beam="1">  1        1 0.85439584E+00 0.30000000E+03</pdfrwt>
<pdfrwt beam="2">0</pdfrwt>
<totfact> 0.37193796E-04</totfact>
</mgrwt>
<clustering>
<clus scale="   33.729">  1  6  2 -1</clus>
<clus scale="  472.315">  4  5 -1 -1</clus>
<clus scale="  300.000">  1  4  2 -1</clus>
</clustering>
</event>
<event>
 6    1  0.9131597E-012  0.3000000E+03  0.7818608E-02  0.1093470E+00
          1   -1    0    0  502    0  0.00000000000E+00  0.00000000000E+00  0.22252737210E+03  0.22252737210E+03  0.00000000000E+00 0.  1.
         13   -1    0    0    0    0 -0.00000000000E+00 -0.00000000000E+00 -0.27500000000E+03  0.27500000000E+03  0.00000000000E+00 0.  1.
    9000005    2    1    2  501    0 -0.29011964542E+02 -0.12987523314E+02 -0.56213888375E+02  0.46552164014E+03  0.46102063548E+03 0.  0.
         13    1    3    3    0    0  0.15743295680E+03 -0.19955500533E+02 -0.18126466282E+03  0.24091541228E+03  0.00000000000E+00 0.  1.
          1    1    3    3  501    0 -0.18644492135E+03  0.69679772189E+01  0.12505077444E+03  0.22460622785E+03  0.00000000000E+00 0.  1.
         21    1    1    2  502  501  0.29011964542E+02  0.12987523314E+02  0.37412604726E+01  0.32005731961E+02  0.00000000000E+00 0.  1.
<scales pt_clust_4="550.00000" pt_clust_5="550.00000" pt_clust_6="31.78632"></scales>
<mgrwt>
<rscale>  0 0.30000000E+03</rscale>
<asrwt>  1 0.31786315E+02</asrwt>
<pdfrwt beam="1">  1        1 0.80919044E+00 0.30000000E+03</pdfrwt>
<pdfrwt beam="2">0</pdfrwt>
<totfact> 0.90111524E-04</totfact>
</mgrwt>
<clustering>
<clus scale="   31.786">  1  6  2 -1</clus>
<clus scale="  461.021">  4  5 -1 -1</clus>
<clus scale="  300.000">  1  4  2 -1</clus>
</clustering>
</event>
<event>
 6    1  0.9131597E-012  0.3000000E+03  0.7818608E-02  0.1093470E+00
          1   -1    0    0  502    0  0.00000000000E+00  0.00000000000E+00  0.23393038554E+03  0.23393038554E+03  0.00000000000E+00 0.  1.
         13   -1    0    0    0    0 -0.00000000000E+00 -0.00000000000E+00 -0.27500000000E+03  0.27500000000E+03  0.00000000000E+00 0.  1.
    9000005    2    1    2  501    0 -0.29316345563E+02  0.17431446509E+02 -0.44185855241E+02  0.47468108772E+03  0.47138778282E+03 0.  0.
         13    1    3    3    0    0 -0.13388917987E+03  0.19248509305E+03  0.65087116127E+02  0.24333753558E+03  0.00000000000E+00 0.  1.
          3    1    3    3  501    0  0.10457283431E+03 -0.17505364654E+03 -0.10927297137E+03  0.23134355214E+03  0.00000000000E+00 0.  1.
         21    1    1    2  502  501  0.29316345563E+02 -0.17431446509E+02  0.31162407788E+01  0.34249297820E+02  0.00000000000E+00 0.  1.
<scales pt_clust_4="550.00000" pt_clust_5="550.00000" pt_clust_6="34.10723"></scales>
<mgrwt>
<rscale>  0 0.30000000E+03</rscale>
<asrwt>  1 0.34107234E+02</asrwt>
<pdfrwt beam="1">  1        1 0.85065595E+00 0.30000000E+03</pdfrwt>
<pdfrwt beam="2">0</pdfrwt>
<totfact> 0.40318753E-04</totfact>
</mgrwt>
<clustering>
<clus scale="   34.107">  1  6  2 -1</clus>
<clus scale="  471.388">  4  5 -1 -1</clus>
<clus scale="  300.000">  1  4  2 -1</clus>
</clustering>
</event>
<event>
 6    1  0.9131597E-012  0.3000000E+03  0.7818608E-02  0.1093470E+00
          1   -1    0    0  502    0  0.00000000000E+00  0.00000000000E+00  0.22523806748E+03  0.22523806748E+03  0.00000000000E+00 0.  1.
         13   -1    0    0    0    0 -0.00000000000E+00 -0.00000000000E+00 -0.27500000000E+03  0.27500000000E+03  0.00000000000E+00 0.  1.
    9000005    2    1    2  501    0  0.31154078471E+02  0.91112906211E+01 -0.68829719015E+02  0.46259271313E+03  0.45629036347E+03 0.  0.
         13    1    3    3    0    0  0.65727912384E+02 -0.10027285070E+03 -0.23316079732E+03  0.26218077820E+03  0.00000000000E+00 0.  1.
          3    1    3    3  501    0 -0.34573833914E+02  0.10938414133E+03  0.16433107830E+03  0.20041193493E+03  0.00000000000E+00 0.  1.
         21    1    1    2  502  501 -0.31154078471E+02 -0.91112906211E+01  0.19067786491E+02  0.37645354346E+02  0.00000000000E+00 0. -1.
<scales pt_clust_4="550.00000" pt_clust_5="550.00000" pt_clust_6="32.45909"></scales>
<mgrwt>
<rscale>  0 0.30000000E+03</rscale>
<asrwt>  1 0.32459085E+02</asrwt>
<pdfrwt beam="1">  1        1 0.81904752E+00 0.30000000E+03</pdfrwt>
<pdfrwt beam="2">0</pdfrwt>
<totfact> 0.74759017E-04</totfact>
</mgrwt>
<clustering>
<clus scale="   32.459">  1  6  2 -1</clus>
<clus scale="  456.290">  4  5 -1 -1</clus>
<clus scale="  300.000">  1  4  2 -1</clus>
</clustering>
</event>
<event>
 6    1  0.9131597E-012  0.3000000E+03  0.7818608E-02  0.1093470E+00
          1   -1    0    0  502    0  0.00000000000E+00  0.00000000000E+00  0.23745825420E+03  0.23745825420E+03  0.00000000000E+00 0.  1.
         13   -1    0    0    0    0 -0.00000000000E+00 -0.00000000000E+00 -0.27500000000E+03  0.27500000000E+03  0.00000000000E+00 0.  1.
    9000005    2    1    2  501    0 -0.25758664830E+02 -0.19355751223E+02 -0.41794914851E+02  0.47995835626E+03  0.47704827315E+03 0.  0.
         13    1    3    3    0    0  0.22448678337E+03 -0.29625123657E+02 -0.37141564438E+02  0.22945905880E+03  0.00000000000E+00 0.  1.
          1    1    3    3  501    0 -0.25024544820E+03  0.10269372434E+02 -0.46533504122E+01  0.25049929745E+03  0.00000000000E+00 0.  1.
         21    1    1    2  502  501  0.25758664830E+02  0.19355751223E+02  0.42531690468E+01  0.32499897941E+02  0.00000000000E+00 0.  1.
<scales pt_clust_4="550.00000" pt_clust_5="550.00000" pt_clust_6="32.22040"></scales>
<mgrwt>
<rscale>  0 0.30000000E+03</rscale>
<asrwt>  1 0.32220396E+02</asrwt>
<pdfrwt beam="1">  1        1 0.86348456E+00 0.30000000E+03</pdfrwt>
<pdfrwt beam="2">0</pdfrwt>
<totfact> 0.30133465E-04</totfact>
</mgrwt>
<clustering>
<clus scale="   32.220">  1  6  2 -1</clus>
<clus scale="  477.048">  4  5 -1 -1</clus>
<clus scale="  300.000">  1  4  2 -1</clus>
</clustering>
</event>
<event>
 6    1  0.9131597E-012  0.3000000E+03  0.7818608E-02  0.1093470E+00
          1   -1    0    0  502    0  0.00000000000E+00  0.00000000000E+00  0.23999850301E+03  0.23999850301E+03  0.00000000000E+00 0.  1.
         13   -1    0    0    0    0 -0.00000000000E+00 -0.00000000000E+00 -0.27500000000E+03  0.27500000000E+03  0.00000000000E+00 0.  1.
    9000005    2    1    2  501    0  0.35108216000E+02  0.14358808331E+02 -0.48674753173E+02  0.47467828300E+03  0.47065005954E+03 0.  0.
         13    1    3    3    0    0  0.15516635988E+03 -0.16783275299E+03 -0.10163937730E+03  0.25014994550E+03  0.00000000000E+00 0.  1.
          3    1    3    3  501    0 -0.12005814388E+03  0.18219156132E+03  0.52964624127E+02  0.22452833750E+03  0.00000000000E+00 0.  1.
         21    1    1    2  502  501 -0.35108216000E+02 -0.14358808331E+02  0.13673256183E+02  0.40320220014E+02  0.00000000000E+00 0. -1.
<scales pt_clust_4="550.00000" pt_clust_5="550.00000" pt_clust_6="37.93102"></scales>
<mgrwt>
<rscale>  0 0.30000000E+03</rscale>
<asrwt>  1 0.37931019E+02</asrwt>
<pdfrwt beam="1">  1        1 0.87272183E+00 0.30000000E+03</pdfrwt>
<pdfrwt beam="2">0</pdfrwt>
<totfact> 0.23401807E-04</totfact>
</mgrwt>
<clustering>
<clus scale="   37.931">  1  6  2 -1</clus>
<clus scale="  470.650">  4  5 -1 -1</clus>
<clus scale="  300.000">  1  4  2 -1</clus>
</clustering>
</event>
<event>
 6    1  0.9131597E-012  0.3000000E+03  0.7818608E-02  0.1093470E+00
          1   -1    0    0  502    0  0.00000000000E+00  0.00000000000E+00  0.22665052386E+03  0.22665052386E+03  0.00000000000E+00 0.  1.
         13   -1    0    0    0    0 -0.00000000000E+00 -0.00000000000E+00 -0.27500000000E+03  0.27500000000E+03  0.00000000000E+00 0.  1.
    9000005    2    1    2  501    0 -0.69735438308E+01 -0.35155441892E+02 -0.48649310342E+02  0.46580885386E+03  0.46187292357E+03 0.  0.
         13    1    3    3    0    0  0.18125247150E+03 -0.90433563831E+02 -0.14317105101E+03  0.24804966789E+03  0.00000000000E+00 0.  1.
          3    1    3    3  501    0 -0.18822601534E+03  0.55278121940E+02  0.94521740667E+02  0.21775918597E+03  0.00000000000E+00 0.  1.
         21    1    1    2  502  501  0.69735438308E+01  0.35155441892E+02  0.29983420343E+00  0.35841670004E+02  0.00000000000E+00 0.  1.
<scales pt_clust_4="550.00000" pt_clust_5="550.00000" pt_clust_6="35.84042"></scales>
<mgrwt>
<rscale>  0 0.30000000E+03</rscale>
<asrwt>  1 0.35840416E+02</asrwt>
<pdfrwt beam="1">  1        1 0.82418372E+00 0.30000000E+03</pdfrwt>
<pdfrwt beam="2">0</pdfrwt>
<totfact> 0.66129779E-04</totfact>
</mgrwt>
<clustering>
<clus scale="   35.840">  1  6  2 -1</clus>
<clus scale="  461.873">  4  5 -1 -1</clus>
<clus scale="  300.000">  1  4  2 -1</clus>
</clustering>
</event>
<event>
 6    1  0.9131597E-012  0.3000000E+03  0.7818608E-02  0.1093470E+00
          1   -1    0    0  502    0  0.00000000000E+00  0.00000000000E+00  0.24342239879E+03  0.24342239879E+03  0.00000000000E+00 0.  1.
         13   -1    0    0    0    0 -0.00000000000E+00 -0.00000000000E+00 -0.27500000000E+03  0.27500000000E+03  0.00000000000E+00 0.  1.
    9000005    2    1    2  501    0  0.33671958035E+02 -0.98028908178E+01 -0.31043700092E+02  0.48334844155E+03  0.48107391034E+03 0.  0.
         13    1    3    3    0    0 -0.24334138776E+02 -0.13335357668E+03 -0.21507307012E+03  0.25422775658E+03  0.00000000000E+00 0.  1.
          1    1    3    3  501    0  0.58006096811E+02  0.12355068587E+03  0.18402937003E+03  0.22912068497E+03  0.00000000000E+00 0.  1.
         21    1    1    2  502  501 -0.33671958035E+02  0.98028908178E+01 -0.53390111383E+00  0.35073957244E+02  0.00000000000E+00 0.  1.
<scales pt_clust_4="550.00000" pt_clust_5="550.00000" pt_clust_6="35.06989"></scales>
<mgrwt>
<rscale>  0 0.30000000E+03</rscale>
<asrwt>  1 0.35069893E+02</asrwt>
<pdfrwt beam="1">  1        1 0.88517236E+00 0.30000000E+03</pdfrwt>
<pdfrwt beam="2">0</pdfrwt>
<totfact> 0.16872426E-04</totfact>
</mgrwt>
<clustering>
<clus scale="   35.070">  1  6  2 -1</clus>
<clus scale="  481.074">  4  5 -1 -1</clus>
<clus scale="  300.000">  1  4  2 -1</clus>
</clustering>
</event>
<event>
 6    1  0.9131597E-012  0.3000000E+03  0.7818608E-02  0.1093470E+00
          1   -1    0    0  502    0  0.00000000000E+00  0.00000000000E+00  0.23789940982E+03  0.23789940982E+03  0.00000000000E+00 0.  1.
         13   -1    0    0    0    0 -0.00000000000E+00 -0.00000000000E+00 -0.27500000000E+03  0.27500000000E+03  0.00000000000E+00 0.  1.
    9000005    2    1    2  501    0 -0.80170865920E+01 -0.44539042504E+02 -0.54554281320E+02  0.46439547886E+03  0.45895423649E+03 0.  0.
         13    1    3    3    0    0 -0.23244297045E+02 -0.11265151955E+02  0.20280723990E+03  0.20444553688E+03  0.00000000000E+00 0.  1.
          3    1    3    3  501    0  0.15227210453E+02 -0.33273890550E+02 -0.25736152122E+03  0.25994994198E+03  0.00000000000E+00 0.  1.
         21    1    1    2  502  501  0.80170865920E+01  0.44539042504E+02  0.17453691143E+02  0.48503930966E+02  0.00000000000E+00 0.  1.
<scales pt_clust_4="550.00000" pt_clust_5="550.00000" pt_clust_6="45.25483"></scales>
<mgrwt>
<rscale>  0 0.30000000E+03</rscale>
<asrwt>  1 0.45254834E+02</asrwt>
<pdfrwt beam="1">  1        1 0.86508876E+00 0.30000000E+03</pdfrwt>
<pdfrwt beam="2">0</pdfrwt>
<totfact> 0.27200067E-04</totfact>
</mgrwt>
<clustering>
<clus scale="   45.255">  1  6  2 -1</clus>
<clus scale="  458.954">  4  5 -1 -1</clus>
<clus scale="  300.000">  1  4  2 -1</clus>
</clustering>
</event>
<event>
 6    1  0.9131597E-012  0.3000000E+03  0.7818608E-02  0.1093470E+00
          1   -1    0    0  502    0  0.00000000000E+00  0.00000000000E+00  0.22332378853E+03  0.22332378853E+03  0.00000000000E+00 0.  1.
         13   -1    0    0    0    0 -0.00000000000E+00 -0.00000000000E+00 -0.27500000000E+03  0.27500000000E+03  0.00000000000E+00 0.  1.
    9000005    2    1    2  501    0 -0.24360303274E+02  0.20337958097E+02 -0.64280060977E+02  0.46417830658E+03  0.45860932955E+03 0.  0.
         13    1    3    3    0    0 -0.22199853295E+03 -0.80539145709E+02 -0.13465892179E+02  0.23654012953E+03  0.00000000000E+00 0.  1.
          1    1    3    3  501    0  0.19763822968E+03  0.10087710381E+03 -0.50814168798E+02  0.22763817705E+03  0.00000000000E+00 0.  1.
         21    1    1    2  502  501  0.24360303274E+02 -0.20337958097E+02  0.12603849507E+02  0.34145481950E+02  0.00000000000E+00 0.  1.
<scales pt_clust_4="550.00000" pt_clust_5="550.00000" pt_clust_6="31.73416"></scales>
<mgrwt>
<rscale>  0 0.30000000E+03</rscale>
<asrwt>  1 0.31734160E+02</asrwt>
<pdfrwt beam="1">  1        1 0.81208650E+00 0.30000000E+03</pdfrwt>
<pdfrwt beam="2">0</pdfrwt>
<totfact> 0.85554381E-04</totfact>
</mgrwt>
<clustering>
<clus scale="   31.734">  1  6  2 -1</clus>
<clus scale="  458.609">  4  5 -1 -1</clus>
<clus scale="  300.000">  1  4  2 -1</clus>
</clustering>
</event>
<event>
 6    1  0.9131597E-012  0.3000000E+03  0.7818608E-02  0.1093470E+00
          1   -1    0    0  502    0  0.00000000000E+00  0.00000000000E+00  0.23012251132E+03  0.23012251132E+03  0.00000000000E+00 0.  1.
         13   -1    0    0    0    0 -0.00000000000E+00 -0.00000000000E+00 -0.27500000000E+03  0.27500000000E+03  0.00000000000E+00 0.  1.
    9000005    2    1    2  501    0  0.31892026535E+01 -0.37620693322E+02 -0.53576524572E+02  0.46637769483E+03  0.46174909060E+03 0.  0.
         13    1    3    3    0    0 -0.62101725608E+02 -0.24103751053E+03 -0.15663199665E+02  0.24940136653E+03  0.00000000000E+00 0.  1.
          3    1    3    3  501    0  0.65290928261E+02  0.20341681721E+03 -0.37913324906E+02  0.21697632830E+03  0.00000000000E+00 0.  1.
         21    1    1    2  502  501 -0.31892026535E+01  0.37620693322E+02  0.86990358968E+01  0.38744816494E+02  0.00000000000E+00 0. -1.
<scales pt_clust_4="550.00000" pt_clust_5="550.00000" pt_clust_6="37.75563"></scales>
<mgrwt>
<rscale>  0 0.30000000E+03</rscale>
<asrwt>  1 0.37755630E+02</asrwt>
<pdfrwt beam="1">  1        1 0.83680913E+00 0.30000000E+03</pdfrwt>
<pdfrwt beam="2">0</pdfrwt>
<totfact> 0.51752501E-04</totfact>
</mgrwt>
<clustering>
<clus scale="   37.756">  1  6  2 -1</clus>
<clus scale="  461.749">  4  5 -1 -1</clus>
<clus scale="  300.000">  1  4  2 -1</clus>
</clustering>
</event>
<event>
 6    1  0.9131597E-012  0.3000000E+03  0.7818608E-02  0.1093470E+00
          1   -1    0    0  502    0  0.00000000000E+00  0.00000000000E+00  0.23036196684E+03  0.23036196684E+03  0.00000000000E+00 0.  1.
         13   -1    0    0    0    0 -0.00000000000E+00 -0.00000000000E+00 -0.27500000000E+03  0.27500000000E+03  0.00000000000E+00 0.  1.
    9000005    2    1    2  501    0  0.20631272658E+02  0.23421381334E+02 -0.59350806378E+02  0.47085579043E+03  0.46605626983E+03 0.  0.
         13    1    3    3    0    0 -0.19219890659E+03  0.11473379385E+03 -0.81482230611E+02  0.23820918758E+03  0.00000000000E+00 0.  1.
          1    1    3    3  501    0  0.21283017924E+03 -0.91312412516E+02  0.22131424233E+02  0.23264660284E+03  0.00000000000E+00 0.  1.
         21    1    1    2  502  501 -0.20631272658E+02 -0.23421381334E+02  0.14712773221E+02  0.34506176417E+02  0.00000000000E+00 0. -1.
<scales pt_clust_4="550.00000" pt_clust_5="550.00000" pt_clust_6="31.21235"></scales>
<mgrwt>
<rscale>  0 0.30000000E+03</rscale>
<asrwt>  1 0.31212346E+02</asrwt>
<pdfrwt beam="1">  1        1 0.83767988E+00 0.30000000E+03</pdfrwt>
<pdfrwt beam="2">0</pdfrwt>
<totfact> 0.52857736E-04</totfact>
</mgrwt>
<clustering>
<clus scale="   31.212">  1  6  2 -1</clus>
<clus scale="  466.056">  4  5 -1 -1</clus>
<clus scale="  300.000">  1  4  2 -1</clus>
</clustering>
</event>
<event>
 6    1  0.9131597E-012  0.3000000E+03  0.7818608E-02  0.1093470E+00
          1   -1    0    0  502    0  0.00000000000E+00  0.00000000000E+00  0.24401247297E+03  0.24401247297E+03  0.00000000000E+00 0.  1.
         13   -1    0    0    0    0 -0.00000000000E+00 -0.00000000000E+00 -0.27500000000E+03  0.27500000000E+03  0.00000000000E+00 0.  1.
    9000005    2    1    2  501    0  0.54417671397E+02 -0.15213044975E+02 -0.21613511751E+02  0.46173602178E+03  0.45775571020E+03 0.  0.
         13    1    3    3    0    0  0.17784875710E+03  0.16066691601E+03 -0.50488151053E+02  0.24493487236E+03  0.00000000000E+00 0.  1.
          1    1    3    3  501    0 -0.12343108571E+03 -0.17587996098E+03  0.28874639302E+02  0.21680114942E+03  0.00000000000E+00 0.  1.
         21    1    1    2  502  501 -0.54417671397E+02  0.15213044975E+02 -0.93740152839E+01  0.57276451184E+02  0.00000000000E+00 0.  1.
<scales pt_clust_4="550.00000" pt_clust_5="550.00000" pt_clust_6="56.50418"></scales>
<mgrwt>
<rscale>  0 0.30000000E+03</rscale>
<asrwt>  1 0.56504185E+02</asrwt>
<pdfrwt beam="1">  1        1 0.88731808E+00 0.30000000E+03</pdfrwt>
<pdfrwt beam="2">0</pdfrwt>
<totfact> 0.14470518E-04</totfact>
</mgrwt>
<clustering>
<clus scale="   56.504">  1  6  2 -1</clus>
<clus scale="  457.756">  4  5 -1 -1</clus>
<clus scale="  300.000">  1  4  2 -1</clus>
</clustering>
</event>
<event>
 6    1  0.9131597E-012  0.3000000E+03  0.7818608E-02  0.1093470E+00
          1   -1    0    0  502    0  0.00000000000E+00  0.00000000000E+00  0.22315169097E+03  0.22315169097E+03  0.00000000000E+00 0.  1.
         13   -1    0    0    0    0 -0.00000000000E+00 -0.00000000000E+00 -0.27500000000E+03  0.27500000000E+03  0.00000000000E+00 0.  1.
    9000005    2    1    2  501    0 -0.31614177957E+02 -0.75625299480E+01 -0.48013996569E+02  0.46542020676E+03  0.46179430148E+03 0.  0.
         13    1    3    3    0    0  0.13380229187E+03 -0.17866836728E+03 -0.43330757933E+02  0.22738292231E+03  0.00000000000E+00 0.  1.
          3    1    3    3  501    0 -0.16541646983E+03  0.17110583734E+03 -0.46832386361E+01  0.23803728444E+03  0.00000000000E+00 0.  1.
         21    1    1    2  502  501  0.31614177957E+02  0.75625299480E+01 -0.38343124563E+01  0.32731484218E+02  0.00000000000E+00 0.  1.
<scales pt_clust_4="550.00000" pt_clust_5="550.00000" pt_clust_6="32.50614"></scales>
<mgrwt>
<rscale>  0 0.30000000E+03</rscale>
<asrwt>  1 0.32506140E+02</asrwt>
<pdfrwt beam="1">  1        1 0.81146069E+00 0.30000000E+03</pdfrwt>
<pdfrwt beam="2">0</pdfrwt>
<totfact> 0.86137720E-04</totfact>
</mgrwt>
<clustering>
<clus scale="   32.506">  1  6  2 -1</clus>
<clus scale="  461.794">  4  5 -1 -1</clus>
<clus scale="  300.000">  1  4  2 -1</clus>
</clustering>
</event>
<event>
 6    1  0.9131597E-012  0.3000000E+03  0.7818608E-02  0.1093470E+00
          1   -1    0    0  502    0  0.00000000000E+00  0.00000000000E+00  0.23168704924E+03  0.23168704924E+03  0.00000000000E+00 0.  1.
         13   -1    0    0    0    0 -0.00000000000E+00 -0.00000000000E+00 -0.27500000000E+03  0.27500000000E+03  0.00000000000E+00 0.  1.
    9000005    2    1    2  501    0 -0.66764229449E+01  0.30318823086E+02 -0.55317376309E+02  0.47340173882E+03  0.46913259165E+03 0.  0.
         13    1    3    3    0    0 -0.46226160379E+02 -0.20779885875E+03  0.34886177218E+02  0.21571803115E+03  0.00000000000E+00 0.  1.
          3    1    3    3  501    0  0.39549737434E+02  0.23811768183E+03 -0.90203553527E+02  0.25768370768E+03  0.00000000000E+00 0.  1.
         21    1    1    2  502  501  0.66764229449E+01 -0.30318823086E+02  0.12004425547E+02  0.33285310414E+02  0.00000000000E+00 0. -1.
<scales pt_clust_4="550.00000" pt_clust_5="550.00000" pt_clust_6="31.04522"></scales>
<mgrwt>
<rscale>  0 0.30000000E+03</rscale>
<asrwt>  1 0.31045220E+02</asrwt>
<pdfrwt beam="1">  1        1 0.84249836E+00 0.30000000E+03</pdfrwt>
<pdfrwt beam="2">0</pdfrwt>
<totfact> 0.48550745E-04</totfact>
</mgrwt>
<clustering>
<clus scale="   31.045">  1  6  2 -1</clus>
<clus scale="  469.133">  4  5 -1 -1</clus>
<clus scale="  300.000">  1  4  2 -1</clus>
</clustering>
</event>
<event>
 6    1  0.9131597E-012  0.3000000E+03  0.7818608E-02  0.1093470E+00
          1   -1    0    0  502    0  0.00000000000E+00  0.00000000000E+00  0.22533075803E+03  0.22533075803E+03  0.00000000000E+00 0.  1.
         13   -1    0    0    0    0 -0.00000000000E+00 -0.00000000000E+00 -0.27500000000E+03  0.27500000000E+03  0.00000000000E+00 0.  1.
    9000005    2    1    2  501    0  0.31468976066E+02 -0.67376560582E+01 -0.53302359587E+02  0.46794415575E+03  0.46378324560E+03 0.  0.
         13    1    3    3    0    0  0.15691236069E+03  0.23540195930E+02  0.15570702917E+03  0.22230678958E+03  0.00000000000E+00 0.  1.
          3    1    3    3  501    0 -0.12544338462E+03 -0.30277851988E+02 -0.20900938876E+03  0.24563736616E+03  0.00000000000E+00 0.  1.
         21    1    1    2  502  501 -0.31468976066E+02  0.67376560582E+01  0.36331176185E+01  0.32386602283E+02  0.00000000000E+00 0. -1.
<scales pt_clust_4="550.00000" pt_clust_5="550.00000" pt_clust_6="32.18218"></scales>
<mgrwt>
<rscale>  0 0.30000000E+03</rscale>
<asrwt>  1 0.32182176E+02</asrwt>
<pdfrwt beam="1">  1        1 0.81938457E+00 0.30000000E+03</pdfrwt>
<pdfrwt beam="2">0</pdfrwt>
<totfact> 0.74385378E-04</totfact>
</mgrwt>
<clustering>
<clus scale="   32.182">  1  6  2 -1</clus>
<clus scale="  463.783">  4  5 -1 -1</clus>
<clus scale="  300.000">  1  4  2 -1</clus>
</clustering>
</event>
<event>
 6    1  0.9131597E-012  0.3000000E+03  0.7818608E-02  0.1093470E+00
          1   -1    0    0  502    0  0.00000000000E+00  0.00000000000E+00  0.24123093826E+03  0.24123093826E+03  0.00000000000E+00 0.  1.
         13   -1    0    0    0    0 -0.00000000000E+00 -0.00000000000E+00 -0.27500000000E+03  0.27500000000E+03  0.00000000000E+00 0.  1.
    9000005    2    1    2  501    0  0.22820030422E+02  0.22107412425E+02 -0.28779680507E+02  0.48406907579E+03  0.48216709619E+03 0.  0.
         13    1    3    3    0    0  0.24629912282E+03 -0.87573237575E+01  0.36666848635E+02  0.24916742646E+03  0.00000000000E+00 0.  1.
          1    1    3    3  501    0 -0.22347909240E+03  0.30864736183E+02 -0.65446529141E+02  0.23490164932E+03  0.00000000000E+00 0.  1.
         21    1    1    2  502  501 -0.22820030422E+02 -0.22107412425E+02 -0.49893812352E+01  0.32161862473E+02  0.00000000000E+00 0.  1.
<scales pt_clust_4="550.00000" pt_clust_5="550.00000" pt_clust_6="31.77251"></scales>
<mgrwt>
<rscale>  0 0.30000000E+03</rscale>
<asrwt>  1 0.31772511E+02</asrwt>
<pdfrwt beam="1">  1        1 0.87720341E+00 0.30000000E+03</pdfrwt>
<pdfrwt beam="2">0</pdfrwt>
<totfact> 0.21679954E-04</totfact>
</mgrwt>
<clustering>
<clus scale="   31.773">  1  6  2 -1</clus>
<clus scale="  482.167">  4  5 -1 -1</clus>
<clus scale="  300.000">  1  4  2 -1</clus>
</clustering>
</event>
<event>
 6    1  0.9131597E-012  0.3000000E+03  0.7818608E-02  0.1093470E+00
          1   -1    0    0  502    0  0.00000000000E+00  0.00000000000E+00  0.24345742146E+03  0.24345742146E+03  0.00000000000E+00 0.  1.
         13   -1    0    0    0    0 -0.00000000000E+00 -0.00000000000E+00 -0.27500000000E+03  0.27500000000E+03  0.00000000000E+00 0.  1.
    9000005    2    1    2  501    0  0.28126059742E+02 -0.30367074861E+02 -0.60760929027E+02  0.46779237949E+03  0.46197898799E+03 0.  0.
         13    1    3    3    0    0 -0.15527005983E+03  0.70204024982E+02  0.10565842439E+03  0.20050211781E+03  0.00000000000E+00 0.  1.
          3    1    3    3  501    0  0.18339611957E+03 -0.10057109984E+03 -0.16641935342E+03  0.26729026168E+03  0.00000000000E+00 0.  1.
         21    1    1    2  502  501 -0.28126059742E+02  0.30367074861E+02  0.29218350486E+02  0.50665041965E+02  0.00000000000E+00 0.  1.
<scales pt_clust_4="550.00000" pt_clust_5="550.00000" pt_clust_6="41.39124"></scales>
<mgrwt>
<rscale>  0 0.30000000E+03</rscale>
<asrwt>  1 0.41391237E+02</asrwt>
<pdfrwt beam="1">  1        1 0.88529971E+00 0.30000000E+03</pdfrwt>
<pdfrwt beam="2">0</pdfrwt>
<totfact> 0.16299569E-04</totfact>
</mgrwt>
<clustering>
<clus scale="   41.391">  1  6  2 -1</clus>
<clus scale="  461.979">  4  5 -1 -1</clus>
<clus scale="  300.000">  1  4  2 -1</clus>
</clustering>
</event>
<event>
 6    1  0.9131597E-012  0.3000000E+03  0.7818608E-02  0.1093470E+00
          1   -1    0    0  502    0  0.00000000000E+00  0.00000000000E+00  0.24966973447E+03  0.24966973447E+03  0.00000000000E+00 0.  1.
         13   -1    0    0    0    0 -0.00000000000E+00 -0.00000000000E+00 -0.27500000000E+03  0.27500000000E+03  0.00000000000E+00 0.  1.
    9000005    2    1    2  501    0 -0.43358242469E+02  0.11610867284E+02 -0.12849751713E+02  0.47808097344E+03  0.47579570365E+03 0.  0.
         13    1    3    3    0    0 -0.23997083894E+03  0.22403592240E+02 -0.10227577441E+03  0.26181722349E+03  0.00000000000E+00 0.  1.
          1    1    3    3  501    0  0.19661259647E+03 -0.10792724956E+02  0.89426022701E+02  0.21626374994E+03  0.00000000000E+00 0.  1.
         21    1    1    2  502  501  0.43358242469E+02 -0.11610867284E+02 -0.12480513820E+02  0.46588761030E+02  0.00000000000E+00 0. -1.
<scales pt_clust_4="550.00000" pt_clust_5="550.00000" pt_clust_6="44.88598"></scales>
<mgrwt>
<rscale>  0 0.30000000E+03</rscale>
<asrwt>  1 0.44885983E+02</asrwt>
<pdfrwt beam="1">  1        1 0.90788994E+00 0.30000000E+03</pdfrwt>
<pdfrwt beam="2">0</pdfrwt>
<totfact> 0.76952855E-05</totfact>
</mgrwt>
<clustering>
<clus scale="   44.886">  1  6  2 -1</clus>
<clus scale="  475.796">  4  5 -1 -1</clus>
<clus scale="  300.000">  1  4  2 -1</clus>
</clustering>
</event>
<event>
 6    1  0.9131597E-012  0.3000000E+03  0.7818608E-02  0.1093470E+00
          1   -1    0    0  502    0  0.00000000000E+00  0.00000000000E+00  0.25116822487E+03  0.25116822487E+03  0.00000000000E+00 0.  1.
         13   -1    0    0    0    0 -0.00000000000E+00 -0.00000000000E+00 -0.27500000000E+03  0.27500000000E+03  0.00000000000E+00 0.  1.
    9000005    2    1    2  501    0 -0.33120357418E+02 -0.12800675279E+02 -0.38568759436E+02  0.48772353643E+03  0.48489780719E+03 0.  0.
         13    1    3    3    0    0 -0.14418646893E+03  0.78954371147E+02 -0.20813313410E+03  0.26522241997E+03  0.00000000000E+00 0.  1.
          1    1    3    3  501    0  0.11106611151E+03 -0.91755046426E+02  0.16956437466E+03  0.22250111646E+03  0.00000000000E+00 0.  1.
         21    1    1    2  502  501  0.33120357418E+02  0.12800675279E+02  0.14736984306E+02  0.38444688444E+02  0.00000000000E+00 0.  1.
<scales pt_clust_4="550.00000" pt_clust_5="550.00000" pt_clust_6="35.50796"></scales>
<mgrwt>
<rscale>  0 0.30000000E+03</rscale>
<asrwt>  1 0.35507962E+02</asrwt>
<pdfrwt beam="1">  1        1 0.91333900E+00 0.30000000E+03</pdfrwt>
<pdfrwt beam="2">0</pdfrwt>
<totfact> 0.59201303E-05</totfact>
</mgrwt>
<clustering>
<clus scale="   35.508">  1  6  2 -1</clus>
<clus scale="  484.898">  4  5 -1 -1</clus>
<clus scale="  300.000">  1  4  2 -1</clus>
</clustering>
</event>
<event>
 6    1  0.9131597E-012  0.3000000E+03  0.7818608E-02  0.1093470E+00
          1   -1    0    0  502    0  0.00000000000E+00  0.00000000000E+00  0.24104659952E+03  0.24104659952E+03  0.00000000000E+00 0.  1.
         13   -1    0    0    0    0 -0.00000000000E+00 -0.00000000000E+00 -0.27500000000E+03  0.27500000000E+03  0.00000000000E+00 0.  1.
    9000005    2    1    2  501    0 -0.43055621630E+02 -0.15967460465E+02 -0.38524908910E+02  0.46989852223E+03  0.46605976682E+03 0.  0.
         13    1    3    3    0    0  0.24173566793E+02 -0.11550707614E+03  0.18308937436E+03  0.21782553793E+03  0.00000000000E+00 0.  1.
          1    1    3    3  501    0 -0.67229188423E+02  0.99539615674E+02 -0.22161428327E+03  0.25207298430E+03  0.00000000000E+00 0.  1.
         21    1    1    2  502  501  0.43055621630E+02  0.15967460465E+02  0.45715084277E+01  0.46148077283E+02  0.00000000000E+00 0.  1.
<scales pt_clust_4="550.00000" pt_clust_5="550.00000" pt_clust_6="45.92109"></scales>
<mgrwt>
<rscale>  0 0.30000000E+03</rscale>
<asrwt>  1 0.45921088E+02</asrwt>
<pdfrwt beam="1">  1        1 0.87653309E+00 0.30000000E+03</pdfrwt>
<pdfrwt beam="2">0</pdfrwt>
<totfact> 0.20607659E-04</totfact>
</mgrwt>
<clustering>
<clus scale="   45.921">  1  6  2 -1</clus>
<clus scale="  466.060">  4  5 -1 -1</clus>
<clus scale="  300.000">  1  4  2 -1</clus>
</clustering>
</event>
<event>
 6    1  0.9131597E-012  0.3000000E+03  0.7818608E-02  0.1093470E+00
          1   -1    0    0  502    0  0.00000000000E+00  0.00000000000E+00  0.22684696592E+03  0.22684696592E+03  0.00000000000E+00 0.  1.
         13   -1    0    0    0    0 -0.00000000000E+00 -0.00000000000E+00 -0.27500000000E+03  0.27500000000E+03  0.00000000000E+00 0.  1.
    9000005    2    1    2  501    0 -0.42021985014E+01  0.29716704914E+02 -0.65478994736E+02  0.46719252990E+03  0.46160656432E+03 0.  0.
         13    1    3    3    0    0 -0.18682571831E+03 -0.95017672163E+02  0.53142639924E+02  0.21623216048E+03  0.00000000000E+00 0.  1.
          1    1    3    3  501    0  0.18262351981E+03  0.12473437708E+03 -0.11862163466E+03  0.25096036943E+03  0.00000000000E+00 0.  1.
         21    1    1    2  502  501  0.42021985014E+01 -0.29716704914E+02  0.17325960656E+02  0.34654436020E+02  0.00000000000E+00 0.  1.
<scales pt_clust_4="550.00000" pt_clust_5="550.00000" pt_clust_6="30.01235"></scales>
<mgrwt>
<rscale>  0 0.30000000E+03</rscale>
<asrwt>  1 0.30012348E+02</asrwt>
<pdfrwt beam="1">  1        1 0.82489806E+00 0.30000000E+03</pdfrwt>
<pdfrwt beam="2">0</pdfrwt>
<totfact> 0.67392051E-04</totfact>
</mgrwt>
<clustering>
<clus scale="   30.012">  1  6  2 -1</clus>
<clus scale="  461.607">  4  5 -1 -1</clus>
<clus scale="  300.000">  1  4  2 -1</clus>
</clustering>
</event>
<event>
 6    1  0.9131597E-012  0.3000000E+03  0.7818608E-02  0.1093470E+00
          1   -1    0    0  502    0  0.00000000000E+00  0.00000000000E+00  0.23676289863E+03  0.23676289863E+03  0.00000000000E+00 0.  1.
         13   -1    0    0    0    0 -0.00000000000E+00 -0.00000000000E+00 -0.27500000000E+03  0.27500000000E+03  0.00000000000E+00 0.  1.
    9000005    2    1    2  501    0 -0.15888263492E+02 -0.41458820807E+02 -0.34490978887E+02  0.46720614636E+03  0.46381104432E+03 0.  0.
         13    1    3    3    0    0  0.22591063347E+01  0.12184748409E+03  0.16729898717E+03  0.20698034700E+03  0.00000000000E+00 0.  1.
          1    1    3    3  501    0 -0.18147369826E+02 -0.16330630489E+03 -0.20178996605E+03  0.26022579935E+03  0.00000000000E+00 0.  1.
         21    1    1    2  502  501  0.15888263492E+02  0.41458820807E+02 -0.37461224831E+01  0.44556752273E+02  0.00000000000E+00 0. -1.
<scales pt_clust_4="550.00000" pt_clust_5="550.00000" pt_clust_6="44.39902"></scales>
<mgrwt>
<rscale>  0 0.30000000E+03</rscale>
<asrwt>  1 0.44399017E+02</asrwt>
<pdfrwt beam="1">  1        1 0.86095600E+00 0.30000000E+03</pdfrwt>
<pdfrwt beam="2">0</pdfrwt>
<totfact> 0.30246992E-04</totfact>
</mgrwt>
<clustering>
<clus scale="   44.399">  1  6  2 -1</clus>
<clus scale="  463.811">  4  5 -1 -1</clus>
<clus scale="  300.000">  1  4  2 -1</clus>
</clustering>
</event>
<event>
 6    1  0.9131597E-012  0.3000000E+03  0.7818608E-02  0.1093470E+00
          1   -1    0    0  502    0  0.00000000000E+00  0.00000000000E+00  0.22841749292E+03  0.22841749292E+03  0.00000000000E+00 0.  1.
         13   -1    0    0    0    0 -0.00000000000E+00 -0.00000000000E+00 -0.27500000000E+03  0.27500000000E+03  0.00000000000E+00 0.  1.
    9000005    2    1    2  501    0  0.35649299249E+02 -0.14972894957E+02 -0.28279714813E+02  0.46063838207E+03  0.45814071708E+03 0.  0.
         13    1    3    3    0    0 -0.17779773947E+03 -0.12692242934E+03 -0.21668977581E+02  0.21952422149E+03  0.00000000000E+00 0.  1.
          3    1    3    3  501    0  0.21344703872E+03  0.11194953439E+03 -0.66107372324E+01  0.24111416058E+03  0.00000000000E+00 0.  1.
         21    1    1    2  502  501 -0.35649299249E+02  0.14972894957E+02 -0.18302792267E+02  0.42779110850E+02  0.00000000000E+00 0. -1.
<scales pt_clust_4="550.00000" pt_clust_5="550.00000" pt_clust_6="38.66603"></scales>
<mgrwt>
<rscale>  0 0.30000000E+03</rscale>
<asrwt>  1 0.38666027E+02</asrwt>
<pdfrwt beam="1">  1        1 0.83060907E+00 0.30000000E+03</pdfrwt>
<pdfrwt beam="2">0</pdfrwt>
<totfact> 0.57359444E-04</totfact>
</mgrwt>
<clustering>
<clus scale="   38.666">  1  6  2 -1</clus>
<clus scale="  458.141">  4  5 -1 -1</clus>
<clus scale="  300.000">  1  4  2 -1</clus>
</clustering>
</event>
<event>
 6    1  0.9131597E-012  0.3000000E+03  0.7818608E-02  0.1093470E+00
          1   -1    0    0  502    0  0.00000000000E+00  0.00000000000E+00  0.22700795730E+03  0.22700795730E+03  0.00000000000E+00 0.  1.
         13   -1    0    0    0    0 -0.00000000000E+00 -0.00000000000E+00 -0.27500000000E+03  0.27500000000E+03  0.00000000000E+00 0.  1.
    9000005    2    1    2  501    0  0.19634363618E+02  0.33117419878E+02 -0.52045587784E+02  0.46329487215E+03  0.45874952166E+03 0.  0.
         13    1    3    3    0    0 -0.99535969577E+02  0.14182517217E+03  0.13254915106E+03  0.21815376721E+03  0.00000000000E+00 0.  1.
          1    1    3    3  501    0  0.11917033320E+03 -0.10870775229E+03 -0.18459473885E+03  0.24514110494E+03  0.00000000000E+00 0.  1.
         21    1    1    2  502  501 -0.19634363618E+02 -0.33117419878E+02  0.40535450846E+01  0.38713085150E+02  0.00000000000E+00 0.  1.
<scales pt_clust_4="550.00000" pt_clust_5="550.00000" pt_clust_6="38.50028"></scales>
<mgrwt>
<rscale>  0 0.30000000E+03</rscale>
<asrwt>  1 0.38500282E+02</asrwt>
<pdfrwt beam="1">  1        1 0.82548348E+00 0.30000000E+03</pdfrwt>
<pdfrwt beam="2">0</pdfrwt>
<totfact> 0.63538975E-04</totfact>
</mgrwt>
<clustering>
<clus scale="   38.500">  1  6  2 -1</clus>
<clus scale="  458.750">  4  5 -1 -1</clus>
<clus scale="  300.000">  1  4  2 -1</clus>
</clustering>
</event>
<event>
 6    1  0.9131597E-012  0.3000000E+03  0.7818608E-02  0.1093470E+00
          1   -1    0    0  502    0  0.00000000000E+00  0.00000000000E+00  0.25937487338E+03  0.25937487338E+03  0.00000000000E+00 0.  1.
         13   -1    0    0    0    0 -0.00000000000E+00 -0.00000000000E+00 -0.27500000000E+03  0.27500000000E+03  0.00000000000E+00 0.  1.
    9000005    2    1    2  501    0 -0.21783409402E+02  0.39981881075E+02 -0.31048723027E+02  0.48630247937E+03  0.48316975330E+03 0.  0.
         13    1    3    3    0    0  0.21593783989E+03  0.34716985543E+02 -0.97430379252E+02  0.23943078036E+03  0.00000000000E+00 0.  1.
          1    1    3    3  501    0 -0.23772124929E+03  0.52648955319E+01  0.66381656225E+02  0.24687169901E+03  0.00000000000E+00 0.  1.
         21    1    1    2  502  501  0.21783409402E+02 -0.39981881075E+02  0.15423596409E+02  0.48072394008E+02  0.00000000000E+00 0.  1.
<scales pt_clust_4="550.00000" pt_clust_5="550.00000" pt_clust_6="45.53095"></scales>
<mgrwt>
<rscale>  0 0.30000000E+03</rscale>
<asrwt>  1 0.45530954E+02</asrwt>
<pdfrwt beam="1">  1        1 0.94318136E+00 0.30000000E+03</pdfrwt>
<pdfrwt beam="2">0</pdfrwt>
<totfact> 0.16039454E-05</totfact>
</mgrwt>
<clustering>
<clus scale="   45.531">  1  6  2 -1</clus>
<clus scale="  483.170">  4  5 -1 -1</clus>
<clus scale="  300.000">  1  4  2 -1</clus>
</clustering>
</event>
<event>
 6    1  0.9131597E-012  0.3000000E+03  0.7818608E-02  0.1093470E+00
          1   -1    0    0  502    0  0.00000000000E+00  0.00000000000E+00  0.23221558704E+03  0.23221558704E+03  0.00000000000E+00 0.  1.
         13   -1    0    0    0    0 -0.00000000000E+00 -0.00000000000E+00 -0.27500000000E+03  0.27500000000E+03  0.00000000000E+00 0.  1.
    9000005    2    1    2  501    0  0.29969731560E+02 -0.28336540708E+02 -0.53457782814E+02  0.46461200534E+03  0.45967971090E+03 0.  0.
         13    1    3    3    0    0  0.50368292426E+02 -0.16765399726E+03  0.14082647771E+03  0.22467070237E+03  0.00000000000E+00 0.  1.
          3    1    3    3  501    0 -0.20398560866E+02  0.13931745655E+03 -0.19428426053E+03  0.23994130297E+03  0.00000000000E+00 0.  1.
         21    1    1    2  502  501 -0.29969731560E+02  0.28336540708E+02  0.10673369849E+02  0.42603581692E+02  0.00000000000E+00 0.  1.
<scales pt_clust_4="550.00000" pt_clust_5="550.00000" pt_clust_6="41.24493"></scales>
<mgrwt>
<rscale>  0 0.30000000E+03</rscale>
<asrwt>  1 0.41244931E+02</asrwt>
<pdfrwt beam="1">  1        1 0.84442032E+00 0.30000000E+03</pdfrwt>
<pdfrwt beam="2">0</pdfrwt>
<totfact> 0.44347979E-04</totfact>
</mgrwt>
<clustering>
<clus scale="   41.245">  1  6  2 -1</clus>
<clus scale="  459.680">  4  5 -1 -1</clus>
<clus scale="  300.000">  1  4  2 -1</clus>
</clustering>
</event>
<event>
 6    1  0.9131597E-012  0.3000000E+03  0.7818608E-02  0.1093470E+00
          1   -1    0    0  502    0  0.00000000000E+00  0.00000000000E+00  0.23939610345E+03  0.23939610345E+03  0.00000000000E+00 0.  1.
         13   -1    0    0    0    0 -0.00000000000E+00 -0.00000000000E+00 -0.27500000000E+03  0.27500000000E+03  0.00000000000E+00 0.  1.
    9000005    2    1    2  501    0 -0.14528475208E+02  0.31270100744E+02 -0.59784215671E+02  0.47228216722E+03  0.46721236845E+03 0.  0.
         13    1    3    3    0    0 -0.11884195513E+03  0.15302520733E+03 -0.18573396666E+03  0.26839752374E+03  0.00000000000E+00 0.  1.
          1    1    3    3  501    0  0.10431347992E+03 -0.12175510659E+03  0.12594975099E+03  0.20388464348E+03  0.00000000000E+00 0.  1.
         21    1    1    2  502  501  0.14528475208E+02 -0.31270100744E+02  0.24180319126E+02  0.42113936238E+02  0.00000000000E+00 0.  1.
<scales pt_clust_4="550.00000" pt_clust_5="550.00000" pt_clust_6="34.48037"></scales>
<mgrwt>
<rscale>  0 0.30000000E+03</rscale>
<asrwt>  1 0.34480368E+02</asrwt>
<pdfrwt beam="1">  1        1 0.87053129E+00 0.30000000E+03</pdfrwt>
<pdfrwt beam="2">0</pdfrwt>
<totfact> 0.25080702E-04</totfact>
</mgrwt>
<clustering>
<clus scale="   34.480">  1  6  2 -1</clus>
<clus scale="  467.212">  4  5 -1 -1</clus>
<clus scale="  300.000">  1  4  2 -1</clus>
</clustering>
</event>
<event>
 6    1  0.9131597E-012  0.3000000E+03  0.7818608E-02  0.1093470E+00
          1   -1    0    0  502    0  0.00000000000E+00  0.00000000000E+00  0.22483964940E+03  0.22483964940E+03  0.00000000000E+00 0.  1.
         13   -1    0    0    0    0 -0.00000000000E+00 -0.00000000000E+00 -0.27500000000E+03  0.27500000000E+03  0.00000000000E+00 0.  1.
    9000005    2    1    2  501    0 -0.17811974271E+02  0.30222284413E+02 -0.60796592738E+02  0.46318200968E+03  0.45783260642E+03 0.  0.
         13    1    3    3    0    0  0.69471881837E+02  0.19084247243E+03 -0.15691314744E+03  0.25664942527E+03  0.00000000000E+00 0.  1.
          1    1    3    3  501    0 -0.87283856108E+02 -0.16062018802E+03  0.96116554706E+02  0.20653258442E+03  0.00000000000E+00 0.  1.
         21    1    1    2  502  501  0.17811974271E+02 -0.30222284413E+02  0.10636242136E+02  0.36657639714E+02  0.00000000000E+00 0. -1.
<scales pt_clust_4="550.00000" pt_clust_5="550.00000" pt_clust_6="35.08066"></scales>
<mgrwt>
<rscale>  0 0.30000000E+03</rscale>
<asrwt>  1 0.35080663E+02</asrwt>
<pdfrwt beam="1">  1        1 0.81759873E+00 0.30000000E+03</pdfrwt>
<pdfrwt beam="2">0</pdfrwt>
<totfact> 0.75769716E-04</totfact>
</mgrwt>
<clustering>
<clus scale="   35.081">  1  6  2 -1</clus>
<clus scale="  457.833">  4  5 -1 -1</clus>
<clus scale="  300.000">  1  4  2 -1</clus>
</clustering>
</event>
<event>
 6    1  0.9131597E-012  0.3000000E+03  0.7818608E-02  0.1093470E+00
          1   -1    0    0  502    0  0.00000000000E+00  0.00000000000E+00  0.23858577445E+03  0.23858577445E+03  0.00000000000E+00 0.  1.
         13   -1    0    0    0    0 -0.00000000000E+00 -0.00000000000E+00 -0.27500000000E+03  0.27500000000E+03  0.00000000000E+00 0.  1.
    9000005    2    1    2  501    0  0.23475112453E+02 -0.30841481122E+02 -0.22453430905E+02  0.47238890989E+03  0.47026040420E+03 0.  0.
         13    1    3    3    0    0 -0.19232349310E+03 -0.66889856918E+02 -0.11610499428E+03  0.23439912255E+03  0.00000000000E+00 0.  1.
          3    1    3    3  501    0  0.21579860555E+03  0.36048375796E+02  0.93651563375E+02  0.23798978734E+03  0.00000000000E+00 0.  1.
         21    1    1    2  502  501 -0.23475112453E+02  0.30841481122E+02 -0.13960794647E+02  0.41196864561E+02  0.00000000000E+00 0. -1.
<scales pt_clust_4="550.00000" pt_clust_5="550.00000" pt_clust_6="38.75925"></scales>
<mgrwt>
<rscale>  0 0.30000000E+03</rscale>
<asrwt>  1 0.38759249E+02</asrwt>
<pdfrwt beam="1">  1        1 0.86758463E+00 0.30000000E+03</pdfrwt>
<pdfrwt beam="2">0</pdfrwt>
<totfact> 0.26318362E-04</totfact>
</mgrwt>
<clustering>
<clus scale="   38.759">  1  6  2 -1</clus>
<clus scale="  470.260">  4  5 -1 -1</clus>
<clus scale="  300.000">  1  4  2 -1</clus>
</clustering>
</event>
<event>
 6    1  0.9131597E-012  0.3000000E+03  0.7818608E-02  0.1093470E+00
          1   -1    0    0  502    0  0.00000000000E+00  0.00000000000E+00  0.24631023785E+03  0.24631023785E+03  0.00000000000E+00 0.  1.
         13   -1    0    0    0    0 -0.00000000000E+00 -0.00000000000E+00 -0.27500000000E+03  0.27500000000E+03  0.00000000000E+00 0.  1.
    9000005    2    1    2  501    0  0.31061419873E+00 -0.30081482387E+02 -0.55164795896E+02  0.48123631272E+03  0.47711659152E+03 0.  0.
         13    1    3    3    0    0 -0.22403739861E+03 -0.18016751004E+02  0.54432522820E+02  0.23125799193E+03  0.00000000000E+00 0.  1.
          3    1    3    3  501    0  0.22434801281E+03 -0.12064731383E+02 -0.10959731872E+03  0.24997832079E+03  0.00000000000E+00 0.  1.
         21    1    1    2  502  501 -0.31061419873E+00  0.30081482387E+02  0.26475033744E+02  0.40073925133E+02  0.00000000000E+00 0. -1.
<scales pt_clust_4="550.00000" pt_clust_5="550.00000" pt_clust_6="30.08309"></scales>
<mgrwt>
<rscale>  0 0.30000000E+03</rscale>
<asrwt>  1 0.30083086E+02</asrwt>
<pdfrwt beam="1">  1        1 0.89567359E+00 0.30000000E+03</pdfrwt>
<pdfrwt beam="2">0</pdfrwt>
<totfact> 0.12753604E-04</totfact>
</mgrwt>
<clustering>
<clus scale="   30.083">  1  6  2 -1</clus>
<clus scale="  477.117">  4  5 -1 -1</clus>
<clus scale="  300.000">  1  4  2 -1</clus>
</clustering>
</event>
<event>
 6    1  0.9131597E-012  0.3000000E+03  0.7818608E-02  0.1093470E+00
          1   -1    0    0  502    0  0.00000000000E+00  0.00000000000E+00  0.23284803515E+03  0.23284803515E+03  0.00000000000E+00 0.  1.
         13   -1    0    0    0    0 -0.00000000000E+00 -0.00000000000E+00 -0.27500000000E+03  0.27500000000E+03  0.00000000000E+00 0.  1.
    9000005    2    1    2  501    0 -0.31329231441E+02 -0.23843735281E+02 -0.59585496596E+02  0.46479025439E+03  0.45927062253E+03 0.  0.
         13    1    3    3    0    0 -0.19175572054E+03 -0.88643888787E+02 -0.15976255933E+03  0.26486236189E+03  0.00000000000E+00 0.  1.
          1    1    3    3  501    0  0.16042648910E+03  0.64800153506E+02  0.10017706274E+03  0.19992789250E+03  0.00000000000E+00 0.  1.
         21    1    1    2  502  501  0.31329231441E+02  0.23843735281E+02  0.17433531746E+02  0.43057780760E+02  0.00000000000E+00 0.  1.
<scales pt_clust_4="550.00000" pt_clust_5="550.00000" pt_clust_6="39.37060"></scales>
<mgrwt>
<rscale>  0 0.30000000E+03</rscale>
<asrwt>  1 0.39370604E+02</asrwt>
<pdfrwt beam="1">  1        1 0.84672013E+00 0.30000000E+03</pdfrwt>
<pdfrwt beam="2">0</pdfrwt>
<totfact> 0.42684430E-04</totfact>
</mgrwt>
<clustering>
<clus scale="   39.371">  1  6  2 -1</clus>
<clus scale="  459.271">  4  5 -1 -1</clus>
<clus scale="  300.000">  1  4  2 -1</clus>
</clustering>
</event>
<event>
 6    1  0.9131597E-012  0.3000000E+03  0.7818608E-02  0.1093470E+00
          1   -1    0    0  502    0  0.00000000000E+00  0.00000000000E+00  0.23912920794E+03  0.23912920794E+03  0.00000000000E+00 0.  1.
         13   -1    0    0    0    0 -0.00000000000E+00 -0.00000000000E+00 -0.27500000000E+03  0.27500000000E+03  0.00000000000E+00 0.  1.
    9000005    2    1    2  501    0 -0.38377363525E+02 -0.48939259401E+01 -0.46913757506E+02  0.47389589304E+03  0.46997834445E+03 0.  0.
         13    1    3    3    0    0 -0.10830652910E+03 -0.13297259107E+03 -0.19928487349E+03  0.26291914161E+03  0.00000000000E+00 0.  1.
          3    1    3    3  501    0  0.69929165576E+02  0.12807866513E+03  0.15237111598E+03  0.21097675143E+03  0.00000000000E+00 0.  1.
         21    1    1    2  502  501  0.38377363525E+02  0.48939259401E+01  0.11042965447E+02  0.40233314903E+02  0.00000000000E+00 0.  1.
<scales pt_clust_4="550.00000" pt_clust_5="550.00000" pt_clust_6="38.68814"></scales>
<mgrwt>
<rscale>  0 0.30000000E+03</rscale>
<asrwt>  1 0.38688145E+02</asrwt>
<pdfrwt beam="1">  1        1 0.86956076E+00 0.30000000E+03</pdfrwt>
<pdfrwt beam="2">0</pdfrwt>
<totfact> 0.25117949E-04</totfact>
</mgrwt>
<clustering>
<clus scale="   38.688">  1  6  2 -1</clus>
<clus scale="  469.978">  4  5 -1 -1</clus>
<clus scale="  300.000">  1  4  2 -1</clus>
</clustering>
</event>
<event>
 6    1  0.9131597E-012  0.3000000E+03  0.7818608E-02  0.1093470E+00
          1   -1    0    0  502    0  0.00000000000E+00  0.00000000000E+00  0.23032229606E+03  0.23032229606E+03  0.00000000000E+00 0.  1.
         13   -1    0    0    0    0 -0.00000000000E+00 -0.00000000000E+00 -0.27500000000E+03  0.27500000000E+03  0.00000000000E+00 0.  1.
    9000005    2    1    2  501    0  0.20363347178E+02 -0.27052895816E+02 -0.54853798283E+02  0.46996585426E+03  0.46552383388E+03 0.  0.
         13    1    3    3    0    0  0.21453378945E+03  0.83046717961E+02 -0.83904380583E+02  0.24487027026E+03  0.00000000000E+00 0.  1.
          1    1    3    3  501    0 -0.19417044227E+03 -0.11009961378E+03  0.29050582300E+02  0.22509558400E+03  0.00000000000E+00 0.  1.
         21    1    1    2  502  501 -0.20363347178E+02  0.27052895816E+02  0.10176094343E+02  0.35356441795E+02  0.00000000000E+00 0.  1.
<scales pt_clust_4="550.00000" pt_clust_5="550.00000" pt_clust_6="33.86038"></scales>
<mgrwt>
<rscale>  0 0.30000000E+03</rscale>
<asrwt>  1 0.33860376E+02</asrwt>
<pdfrwt beam="1">  1        1 0.83753562E+00 0.30000000E+03</pdfrwt>
<pdfrwt beam="2">0</pdfrwt>
<totfact> 0.52174234E-04</totfact>
</mgrwt>
<clustering>
<clus scale="   33.860">  1  6  2 -1</clus>
<clus scale="  465.524">  4  5 -1 -1</clus>
<clus scale="  300.000">  1  4  2 -1</clus>
</clustering>
</event>
<event>
 6    1  0.9131597E-012  0.3000000E+03  0.7818608E-02  0.1093470E+00
          1   -1    0    0  502    0  0.00000000000E+00  0.00000000000E+00  0.22192586472E+03  0.22192586472E+03  0.00000000000E+00 0.  1.
         13   -1    0    0    0    0 -0.00000000000E+00 -0.00000000000E+00 -0.27500000000E+03  0.27500000000E+03  0.00000000000E+00 0.  1.
    9000005    2    1    2  501    0 -0.23492086166E+01 -0.29968225093E+02 -0.66257275782E+02  0.46410196352E+03  0.45836338494E+03 0.  0.
         13    1    3    3    0    0 -0.14247576065E+03  0.65415095561E+02  0.13079646166E+03  0.20417196547E+03  0.00000000000E+00 0.  1.
          3    1    3    3  501    0  0.14012655203E+03 -0.95383320655E+02 -0.19705373745E+03  0.25992999805E+03  0.00000000000E+00 0.  1.
         21    1    1    2  502  501  0.23492086166E+01  0.29968225093E+02  0.13183140498E+02  0.32823901196E+02  0.00000000000E+00 0.  1.
<scales pt_clust_4="550.00000" pt_clust_5="550.00000" pt_clust_6="30.06016"></scales>
<mgrwt>
<rscale>  0 0.30000000E+03</rscale>
<asrwt>  1 0.30060161E+02</asrwt>
<pdfrwt beam="1">  1        1 0.80700314E+00 0.30000000E+03</pdfrwt>
<pdfrwt beam="2">0</pdfrwt>
<totfact> 0.94690239E-04</totfact>
</mgrwt>
<clustering>
<clus scale="   30.060">  1  6  2 -1</clus>
<clus scale="  458.363">  4  5 -1 -1</clus>
<clus scale="  300.000">  1  4  2 -1</clus>
</clustering>
</event>
<event>
 6    1  0.9131597E-012  0.3000000E+03  0.7818608E-02  0.1093470E+00
          1   -1    0    0  502    0  0.00000000000E+00  0.00000000000E+00  0.23328492822E+03  0.23328492822E+03  0.00000000000E+00 0.  1.
         13   -1    0    0    0    0 -0.00000000000E+00 -0.00000000000E+00 -0.27500000000E+03  0.27500000000E+03  0.00000000000E+00 0.  1.
    9000005    2    1    2  501    0  0.15059222766E+02 -0.28683372751E+02 -0.63239259218E+02  0.46939011227E+03  0.46398098833E+03 0.  0.
         13    1    3    3    0    0  0.67692800495E+02 -0.13262959725E+03  0.15938475704E+03  0.21812021016E+03  0.00000000000E+00 0.  1.
          1    1    3    3  501    0 -0.52633577729E+02  0.10394622449E+03 -0.22262401626E+03  0.25126990211E+03  0.00000000000E+00 0.  1.
         21    1    1    2  502  501 -0.15059222766E+02  0.28683372751E+02  0.21524187436E+02  0.38894815946E+02  0.00000000000E+00 0.  1.
<scales pt_clust_4="550.00000" pt_clust_5="550.00000" pt_clust_6="32.39624"></scales>
<mgrwt>
<rscale>  0 0.30000000E+03</rscale>
<asrwt>  1 0.32396235E+02</asrwt>
<pdfrwt beam="1">  1        1 0.84830883E+00 0.30000000E+03</pdfrwt>
<pdfrwt beam="2">0</pdfrwt>
<totfact> 0.42816600E-04</totfact>
</mgrwt>
<clustering>
<clus scale="   32.396">  1  6  2 -1</clus>
<clus scale="  463.981">  4  5 -1 -1</clus>
<clus scale="  300.000">  1  4  2 -1</clus>
</clustering>
</event>
<event>
 6    1  0.9131597E-012  0.3000000E+03  0.7818608E-02  0.1093470E+00
          1   -1    0    0  502    0  0.00000000000E+00  0.00000000000E+00  0.23971046514E+03  0.23971046514E+03  0.00000000000E+00 0.  1.
         13   -1    0    0    0    0 -0.00000000000E+00 -0.00000000000E+00 -0.27500000000E+03  0.27500000000E+03  0.00000000000E+00 0.  1.
    9000005    2    1    2  501    0  0.19270338607E+02 -0.47831024033E+02 -0.27006019523E+02  0.46248241294E+03  0.45880442934E+03 0.  0.
         13    1    3    3    0    0 -0.19200159353E+03 -0.15341887443E+00  0.94655826671E+02  0.21406625372E+03  0.00000000000E+00 0.  1.
          1    1    3    3  501    0  0.21127193214E+03 -0.47677605159E+02 -0.12166184619E+03  0.24841615922E+03  0.00000000000E+00 0.  1.
         21    1    1    2  502  501 -0.19270338607E+02  0.47831024033E+02 -0.82835153386E+01  0.52228052198E+02  0.00000000000E+00 0.  1.
<scales pt_clust_4="550.00000" pt_clust_5="550.00000" pt_clust_6="51.56700"></scales>
<mgrwt>
<rscale>  0 0.30000000E+03</rscale>
<asrwt>  1 0.51567000E+02</asrwt>
<pdfrwt beam="1">  1        1 0.87167442E+00 0.30000000E+03</pdfrwt>
<pdfrwt beam="2">0</pdfrwt>
<totfact> 0.22702041E-04</totfact>
</mgrwt>
<clustering>
<clus scale="   51.567">  1  6  2 -1</clus>
<clus scale="  458.804">  4  5 -1 -1</clus>
<clus scale="  300.000">  1  4  2 -1</clus>
</clustering>
</event>
<event>
 6    1  0.9131597E-012  0.3000000E+03  0.7818608E-02  0.1093470E+00
          1   -1    0    0  502    0  0.00000000000E+00  0.00000000000E+00  0.22261910598E+03  0.22261910598E+03  0.00000000000E+00 0.  1.
         13   -1    0    0    0    0 -0.00000000000E+00 -0.00000000000E+00 -0.27500000000E+03  0.27500000000E+03  0.00000000000E+00 0.  1.
    9000005    2    1    2  501    0  0.35725731101E+02  0.51707046589E+00 -0.53898176806E+02  0.46185743136E+03  0.45730807802E+03 0.  0.
         13    1    3    3    0    0  0.15695807683E+02 -0.20906479742E+03 -0.11952285456E+03  0.24132998293E+03  0.00000000000E+00 0.  1.
          3    1    3    3  501    0  0.20029923418E+02  0.20958186789E+03  0.65624677755E+02  0.22052744843E+03  0.00000000000E+00 0.  1.
         21    1    1    2  502  501 -0.35725731101E+02 -0.51707046589E+00  0.15172827908E+01  0.35761674620E+02  0.00000000000E+00 0. -1.
<scales pt_clust_4="550.00000" pt_clust_5="550.00000" pt_clust_6="35.72947"></scales>
<mgrwt>
<rscale>  0 0.30000000E+03</rscale>
<asrwt>  1 0.35729473E+02</asrwt>
<pdfrwt beam="1">  1        1 0.80952402E+00 0.30000000E+03</pdfrwt>
<pdfrwt beam="2">0</pdfrwt>
<totfact> 0.87624080E-04</totfact>
</mgrwt>
<clustering>
<clus scale="   35.729">  1  6  2 -1</clus>
<clus scale="  457.308">  4  5 -1 -1</clus>
<clus scale="  300.000">  1  4  2 -1</clus>
</clustering>
</event>
<event>
 6    1  0.9131597E-012  0.3000000E+03  0.7818608E-02  0.1093470E+00
          1   -1    0    0  502    0  0.00000000000E+00  0.00000000000E+00  0.23441456153E+03  0.23441456153E+03  0.00000000000E+00 0.  1.
         13   -1    0    0    0    0 -0.00000000000E+00 -0.00000000000E+00 -0.27500000000E+03  0.27500000000E+03  0.00000000000E+00 0.  1.
    9000005    2    1    2  501    0  0.10405364813E+02  0.42633016305E+02 -0.42650342299E+02  0.46548154975E+03  0.46144141098E+03 0.  0.
         13    1    3    3    0    0 -0.13517497629E+03  0.14047344241E+03 -0.16187534547E+03  0.25339433638E+03  0.00000000000E+00 0.  1.
          3    1    3    3  501    0  0.14558034110E+03 -0.97840426108E+02  0.11922500317E+03  0.21208721338E+03  0.00000000000E+00 0.  1.
         21    1    1    2  502  501 -0.10405364813E+02 -0.42633016305E+02  0.20649038317E+01  0.43933011779E+02  0.00000000000E+00 0.  1.
<scales pt_clust_4="550.00000" pt_clust_5="550.00000" pt_clust_6="43.88446"></scales>
<mgrwt>
<rscale>  0 0.30000000E+03</rscale>
<asrwt>  1 0.43884458E+02</asrwt>
<pdfrwt beam="1">  1        1 0.85241659E+00 0.30000000E+03</pdfrwt>
<pdfrwt beam="2">0</pdfrwt>
<totfact> 0.37035930E-04</totfact>
</mgrwt>
<clustering>
<clus scale="   43.884">  1  6  2 -1</clus>
<clus scale="  461.441">  4  5 -1 -1</clus>
<clus scale="  300.000">  1  4  2 -1</clus>
</clustering>
</event>
<event>
 6    1  0.9131597E-012  0.3000000E+03  0.7818608E-02  0.1093470E+00
          1   -1    0    0  502    0  0.00000000000E+00  0.00000000000E+00  0.23109442350E+03  0.23109442350E+03  0.00000000000E+00 0.  1.
         13   -1    0    0    0    0 -0.00000000000E+00 -0.00000000000E+00 -0.27500000000E+03  0.27500000000E+03  0.00000000000E+00 0.  1.
    9000005    2    1    2  501    0 -0.10898810086E+02 -0.36715345438E+02 -0.54533908331E+02  0.46634820243E+03  0.46156245308E+03 0.  0.
         13    1    3    3    0    0 -0.19805012386E+03 -0.11697133976E+03 -0.11047804718E+03  0.25516963925E+03  0.00000000000E+00 0.  1.
          1    1    3    3  501    0  0.18715131378E+03  0.80255994320E+02  0.55944138853E+02  0.21117856317E+03  0.00000000000E+00 0.  1.
         21    1    1    2  502  501  0.10898810086E+02  0.36715345438E+02  0.10628331827E+02  0.39746221069E+02  0.00000000000E+00 0. -1.
<scales pt_clust_4="550.00000" pt_clust_5="550.00000" pt_clust_6="38.29883"></scales>
<mgrwt>
<rscale>  0 0.30000000E+03</rscale>
<asrwt>  1 0.38298834E+02</asrwt>
<pdfrwt beam="1">  1        1 0.84034336E+00 0.30000000E+03</pdfrwt>
<pdfrwt beam="2">0</pdfrwt>
<totfact> 0.48583395E-04</totfact>
</mgrwt>
<clustering>
<clus scale="   38.299">  1  6  2 -1</clus>
<clus scale="  461.562">  4  5 -1 -1</clus>
<clus scale="  300.000">  1  4  2 -1</clus>
</clustering>
</event>
<event>
 6    1  0.9131597E-012  0.3000000E+03  0.7818608E-02  0.1093470E+00
          1   -1    0    0  502    0  0.00000000000E+00  0.00000000000E+00  0.24506703408E+03  0.24506703408E+03  0.00000000000E+00 0.  1.
         13   -1    0    0    0    0 -0.00000000000E+00 -0.00000000000E+00 -0.27500000000E+03  0.27500000000E+03  0.00000000000E+00 0.  1.
    9000005    2    1    2  501    0 -0.65933050780E+01 -0.37736486272E+02 -0.41689424643E+02  0.47999549318E+03  0.47664468032E+03 0.  0.
         13    1    3    3    0    0 -0.14119517033E+03  0.17072660739E+03 -0.64663349448E+02  0.23079211285E+03  0.00000000000E+00 0.  1.
          1    1    3    3  501    0  0.13460186525E+03 -0.20846309366E+03  0.22973924806E+02  0.24920338033E+03  0.00000000000E+00 0.  1.
         21    1    1    2  502  501  0.65933050780E+01  0.37736486272E+02  0.11756458718E+02  0.40071540893E+02  0.00000000000E+00 0.  1.
<scales pt_clust_4="550.00000" pt_clust_5="550.00000" pt_clust_6="38.30815"></scales>
<mgrwt>
<rscale>  0 0.30000000E+03</rscale>
<asrwt>  1 0.38308146E+02</asrwt>
<pdfrwt beam="1">  1        1 0.89115285E+00 0.30000000E+03</pdfrwt>
<pdfrwt beam="2">0</pdfrwt>
<totfact> 0.13769426E-04</totfact>
</mgrwt>
<clustering>
<clus scale="   38.308">  1  6  2 -1</clus>
<clus scale="  476.645">  4  5 -1 -1</clus>
<clus scale="  300.000">  1  4  2 -1</clus>
</clustering>
</event>
<event>
 6    1  0.9131597E-012  0.3000000E+03  0.7818608E-02  0.1093470E+00
          1   -1    0    0  502    0  0.00000000000E+00  0.00000000000E+00  0.23292123212E+03  0.23292123212E+03  0.00000000000E+00 0.  1.
         13   -1    0    0    0    0 -0.00000000000E+00 -0.00000000000E+00 -0.27500000000E+03  0.27500000000E+03  0.00000000000E+00 0.  1.
    9000005    2    1    2  501    0  0.31469714830E+02 -0.10353782018E+02 -0.68639580281E+02  0.46545924313E+03  0.45917684097E+03 0.  0.
         13    1    3    3    0    0  0.22310500226E+03  0.33586539966E+02  0.56266646105E+02  0.23252920927E+03  0.00000000000E+00 0.  1.
          1    1    3    3  501    0 -0.19163528743E+03 -0.43940321984E+02 -0.12490622639E+03  0.23293003386E+03  0.00000000000E+00 0.  1.
         21    1    1    2  502  501 -0.31469714830E+02  0.10353782018E+02  0.26560812398E+02  0.42461988988E+02  0.00000000000E+00 0.  1.
<scales pt_clust_4="550.00000" pt_clust_5="550.00000" pt_clust_6="33.12920"></scales>
<mgrwt>
<rscale>  0 0.30000000E+03</rscale>
<asrwt>  1 0.33129198E+02</asrwt>
<pdfrwt beam="1">  1        1 0.84698630E+00 0.30000000E+03</pdfrwt>
<pdfrwt beam="2">0</pdfrwt>
<totfact> 0.43834320E-04</totfact>
</mgrwt>
<clustering>
<clus scale="   33.129">  1  6  2 -1</clus>
<clus scale="  459.177">  4  5 -1 -1</clus>
<clus scale="  300.000">  1  4  2 -1</clus>
</clustering>
</event>
<event>
 6    1  0.9131597E-012  0.3000000E+03  0.7818608E-02  0.1093470E+00
          1   -1    0    0  502    0  0.00000000000E+00  0.00000000000E+00  0.23850117316E+03  0.23850117316E+03  0.00000000000E+00 0.  1.
         13   -1    0    0    0    0 -0.00000000000E+00 -0.00000000000E+00 -0.27500000000E+03  0.27500000000E+03  0.00000000000E+00 0.  1.
    9000005    2    1    2  501    0  0.75816845154E+00  0.34887393706E+02 -0.39490543909E+02  0.47847753214E+03  0.47556654702E+03 0.  0.
         13    1    3    3    0    0  0.21256227503E+03 -0.84514798235E+02 -0.53541835418E+02  0.23493020246E+03  0.00000000000E+00 0.  1.
          1    1    3    3  501    0 -0.21180410658E+03  0.11940219194E+03  0.14051291509E+02  0.24354732968E+03  0.00000000000E+00 0.  1.
         21    1    1    2  502  501 -0.75816845154E+00 -0.34887393706E+02  0.29917170655E+01  0.35023641016E+02  0.00000000000E+00 0.  1.
<scales pt_clust_4="550.00000" pt_clust_5="550.00000" pt_clust_6="34.89563"></scales>
<mgrwt>
<rscale>  0 0.30000000E+03</rscale>
<asrwt>  1 0.34895631E+02</asrwt>
<pdfrwt beam="1">  1        1 0.86727699E+00 0.30000000E+03</pdfrwt>
<pdfrwt beam="2">0</pdfrwt>
<totfact> 0.27035254E-04</totfact>
</mgrwt>
<clustering>
<clus scale="   34.896">  1  6  2 -1</clus>
<clus scale="  475.567">  4  5 -1 -1</clus>
<clus scale="  300.000">  1  4  2 -1</clus>
</clustering>
</event>
<event>
 6    1  0.9131597E-012  0.3000000E+03  0.7818608E-02  0.1093470E+00
          1   -1    0    0  502    0  0.00000000000E+00  0.00000000000E+00  0.22299662961E+03  0.22299662961E+03  0.00000000000E+00 0.  1.
         13   -1    0    0    0    0 -0.00000000000E+00 -0.00000000000E+00 -0.27500000000E+03  0.27500000000E+03  0.00000000000E+00 0.  1.
    9000005    2    1    2  501    0  0.29756805336E+02 -0.13908819972E+02 -0.48042455911E+02  0.46491171491E+03  0.46125470443E+03 0.  0.
         13    1    3    3    0    0  0.12054271536E+03  0.58147103769E+02  0.17096840817E+03  0.21712169052E+03  0.00000000000E+00 0.  1.
          3    1    3    3  501    0 -0.90785910024E+02 -0.72055923741E+02 -0.21901086408E+03  0.24779002439E+03  0.00000000000E+00 0.  1.
         21    1    1    2  502  501 -0.29756805336E+02  0.13908819972E+02 -0.39609144817E+01  0.33084914695E+02  0.00000000000E+00 0.  1.
<scales pt_clust_4="550.00000" pt_clust_5="550.00000" pt_clust_6="32.84698"></scales>
<mgrwt>
<rscale>  0 0.30000000E+03</rscale>
<asrwt>  1 0.32846976E+02</asrwt>
<pdfrwt beam="1">  1        1 0.81089683E+00 0.30000000E+03</pdfrwt>
<pdfrwt beam="2">0</pdfrwt>
<totfact> 0.86848893E-04</totfact>
</mgrwt>
<clustering>
<clus scale="   32.847">  1  6  2 -1</clus>
<clus scale="  461.255">  4  5 -1 -1</clus>
<clus scale="  300.000">  1  4  2 -1</clus>
</clustering>
</event>
<event>
 6    1  0.9131597E-012  0.3000000E+03  0.7818608E-02  0.1093470E+00
          1   -1    0    0  502    0  0.00000000000E+00  0.00000000000E+00  0.22146627208E+03  0.22146627208E+03  0.00000000000E+00 0.  1.
         13   -1    0    0    0    0 -0.00000000000E+00 -0.00000000000E+00 -0.27500000000E+03  0.27500000000E+03  0.00000000000E+00 0.  1.
    9000005    2    1    2  501    0  0.31224157515E+02  0.63105110147E+01 -0.52594038453E+02  0.46459695176E+03  0.46050996096E+03 0.  0.
         13    1    3    3    0    0  0.11458292776E+03 -0.46739584892E+02 -0.23020119388E+03  0.26135498043E+03  0.00000000000E+00 0.  1.
          3    1    3    3  501    0 -0.83358770247E+02  0.53050095906E+02  0.17760715543E+03  0.20324197133E+03  0.00000000000E+00 0.  1.
         21    1    1    2  502  501 -0.31224157515E+02 -0.63105110147E+01 -0.93968946279E+00  0.31869320326E+02  0.00000000000E+00 0.  1.
<scales pt_clust_4="550.00000" pt_clust_5="550.00000" pt_clust_6="31.85546"></scales>
<mgrwt>
<rscale>  0 0.30000000E+03</rscale>
<asrwt>  1 0.31855464E+02</asrwt>
<pdfrwt beam="1">  1        1 0.80533190E+00 0.30000000E+03</pdfrwt>
<pdfrwt beam="2">0</pdfrwt>
<totfact> 0.96441355E-04</totfact>
</mgrwt>
<clustering>
<clus scale="   31.855">  1  6  2 -1</clus>
<clus scale="  460.510">  4  5 -1 -1</clus>
<clus scale="  300.000">  1  4  2 -1</clus>
</clustering>
</event>
<event>
 6    1  0.9131597E-012  0.3000000E+03  0.7818608E-02  0.1093470E+00
          1   -1    0    0  502    0  0.00000000000E+00  0.00000000000E+00  0.25491058410E+03  0.25491058410E+03  0.00000000000E+00 0.  1.
         13   -1    0    0    0    0 -0.00000000000E+00 -0.00000000000E+00 -0.27500000000E+03  0.27500000000E+03  0.00000000000E+00 0.  1.
    9000005    2    1    2  501    0  0.35991826532E+02  0.13452674291E+02 -0.51774263217E+02  0.48010781739E+03  0.47575892631E+03 0.  0.
         13    1    3    3    0    0  0.20820289472E+03  0.14970079985E+03 -0.10348179103E+02  0.25664344849E+03  0.00000000000E+00 0.  1.
          3    1    3    3  501    0 -0.17221106818E+03 -0.13624812555E+03 -0.41426084114E+02  0.22346436890E+03  0.00000000000E+00 0.  1.
         21    1    1    2  502  501 -0.35991826532E+02 -0.13452674291E+02  0.31684847321E+02  0.49802766715E+02  0.00000000000E+00 0.  1.
<scales pt_clust_4="550.00000" pt_clust_5="550.00000" pt_clust_6="38.42377"></scales>
<mgrwt>
<rscale>  0 0.30000000E+03</rscale>
<asrwt>  1 0.38423769E+02</asrwt>
<pdfrwt beam="1">  1        1 0.92694758E+00 0.30000000E+03</pdfrwt>
<pdfrwt beam="2">0</pdfrwt>
<totfact> 0.29385153E-05</totfact>
</mgrwt>
<clustering>
<clus scale="   38.424">  1  6  2 -1</clus>
<clus scale="  475.759">  4  5 -1 -1</clus>
<clus scale="  300.000">  1  4  2 -1</clus>
</clustering>
</event>
<event>
 6    1  0.9131597E-012  0.3000000E+03  0.7818608E-02  0.1093470E+00
          1   -1    0    0  502    0  0.00000000000E+00  0.00000000000E+00  0.24833645676E+03  0.24833645676E+03  0.00000000000E+00 0.  1.
         13   -1    0    0    0    0 -0.00000000000E+00 -0.00000000000E+00 -0.27500000000E+03  0.27500000000E+03  0.00000000000E+00 0.  1.
    9000005    2    1    2  501    0  0.31273819521E+02  0.18872533075E+02 -0.57196097313E+02  0.47572909231E+03  0.47086362296E+03 0.  0.
         13    1    3    3    0    0  0.15734475662E+03 -0.17803531055E+03 -0.14404339195E+02  0.23803661320E+03  0.00000000000E+00 0.  1.
          1    1    3    3  501    0 -0.12607093710E+03  0.19690784362E+03 -0.42791758118E+02  0.23769247911E+03  0.00000000000E+00 0.  1.
         21    1    1    2  502  501 -0.31273819521E+02 -0.18872533075E+02  0.30532554075E+02  0.47607364456E+02  0.00000000000E+00 0. -1.
<scales pt_clust_4="550.00000" pt_clust_5="550.00000" pt_clust_6="36.52704"></scales>
<mgrwt>
<rscale>  0 0.30000000E+03</rscale>
<asrwt>  1 0.36527035E+02</asrwt>
<pdfrwt beam="1">  1        1 0.90304166E+00 0.30000000E+03</pdfrwt>
<pdfrwt beam="2">0</pdfrwt>
<totfact> 0.99266220E-05</totfact>
</mgrwt>
<clustering>
<clus scale="   36.527">  1  6  2 -1</clus>
<clus scale="  470.864">  4  5 -1 -1</clus>
<clus scale="  300.000">  1  4  2 -1</clus>
</clustering>
</event>
<event>
 6    1  0.9131597E-012  0.3000000E+03  0.7818608E-02  0.1093470E+00
          1   -1    0    0  502    0  0.00000000000E+00  0.00000000000E+00  0.23661224368E+03  0.23661224368E+03  0.00000000000E+00 0.  1.
         13   -1    0    0    0    0 -0.00000000000E+00 -0.00000000000E+00 -0.27500000000E+03  0.27500000000E+03  0.00000000000E+00 0.  1.
    9000005    2    1    2  501    0  0.38662500781E+02  0.30019536311E+02 -0.33901540413E+02  0.46245852907E+03  0.45860943638E+03 0.  0.
         13    1    3    3    0    0 -0.20766809485E+03 -0.19746930568E+02 -0.32672711886E+02  0.21114801678E+03  0.00000000000E+00 0.  1.
          3    1    3    3  501    0  0.24633059563E+03  0.49766466879E+02 -0.12288285265E+01  0.25131051229E+03  0.00000000000E+00 0.  1.
         21    1    1    2  502  501 -0.38662500781E+02 -0.30019536311E+02 -0.44862159058E+01  0.49153714611E+02  0.00000000000E+00 0. -1.
<scales pt_clust_4="550.00000" pt_clust_5="550.00000" pt_clust_6="48.94858"></scales>
<mgrwt>
<rscale>  0 0.30000000E+03</rscale>
<asrwt>  1 0.48948584E+02</asrwt>
<pdfrwt beam="1">  1        1 0.86040816E+00 0.30000000E+03</pdfrwt>
<pdfrwt beam="2">0</pdfrwt>
<totfact> 0.30132598E-04</totfact>
</mgrwt>
<clustering>
<clus scale="   48.949">  1  6  2 -1</clus>
<clus scale="  458.609">  4  5 -1 -1</clus>
<clus scale="  300.000">  1  4  2 -1</clus>
</clustering>
</event>
<event>
 6    1  0.9131597E-012  0.3000000E+03  0.7818608E-02  0.1093470E+00
          1   -1    0    0  502    0  0.00000000000E+00  0.00000000000E+00  0.22620059833E+03  0.22620059833E+03  0.00000000000E+00 0.  1.
         13   -1    0    0    0    0 -0.00000000000E+00 -0.00000000000E+00 -0.27500000000E+03  0.27500000000E+03  0.00000000000E+00 0.  1.
    9000005    2    1    2  501    0  0.72514054199E+00  0.30965929057E+02 -0.58084429758E+02  0.46886445233E+03  0.46422048543E+03 0.  0.
         13    1    3    3    0    0 -0.12139439346E+03  0.17676629511E+03 -0.14591920377E+03  0.25937489447E+03  0.00000000000E+00 0.  1.
          3    1    3    3  501    0  0.12211953400E+03 -0.14580036606E+03  0.87834774015E+02  0.20948955786E+03  0.00000000000E+00 0.  1.
         21    1    1    2  502  501 -0.72514054199E+00 -0.30965929057E+02  0.92850280844E+01  0.32336145993E+02  0.00000000000E+00 0. -1.
<scales pt_clust_4="550.00000" pt_clust_5="550.00000" pt_clust_6="30.97442"></scales>
<mgrwt>
<rscale>  0 0.30000000E+03</rscale>
<asrwt>  1 0.30974418E+02</asrwt>
<pdfrwt beam="1">  1        1 0.82254763E+00 0.30000000E+03</pdfrwt>
<pdfrwt beam="2">0</pdfrwt>
<totfact> 0.70300177E-04</totfact>
</mgrwt>
<clustering>
<clus scale="   30.974">  1  6  2 -1</clus>
<clus scale="  464.220">  4  5 -1 -1</clus>
<clus scale="  300.000">  1  4  2 -1</clus>
</clustering>
</event>
<event>
 6    1  0.9131597E-012  0.3000000E+03  0.7818608E-02  0.1093470E+00
          1   -1    0    0  502    0  0.00000000000E+00  0.00000000000E+00  0.23018904633E+03  0.23018904633E+03  0.00000000000E+00 0.  1.
         13   -1    0    0    0    0 -0.00000000000E+00 -0.00000000000E+00 -0.27500000000E+03  0.27500000000E+03  0.00000000000E+00 0.  1.
    9000005    2    1    2  501    0  0.14651981949E+02 -0.27357760784E+02 -0.46793632117E+02  0.47409147948E+03  0.47075466993E+03 0.  0.
         13    1    3    3    0    0 -0.14778304796E+03 -0.51086855794E+02 -0.19704791096E+03  0.25155034350E+03  0.00000000000E+00 0.  1.
          1    1    3    3  501    0  0.16243502991E+03  0.23729095010E+02  0.15025427884E+03  0.22254113598E+03  0.00000000000E+00 0.  1.
         21    1    1    2  502  501 -0.14651981949E+02  0.27357760784E+02  0.19826784461E+01  0.31097566850E+02  0.00000000000E+00 0. -1.
<scales pt_clust_4="550.00000" pt_clust_5="550.00000" pt_clust_6="31.03430"></scales>
<mgrwt>
<rscale>  0 0.30000000E+03</rscale>
<asrwt>  1 0.31034298E+02</asrwt>
<pdfrwt beam="1">  1        1 0.83705108E+00 0.30000000E+03</pdfrwt>
<pdfrwt beam="2">0</pdfrwt>
<totfact> 0.53476911E-04</totfact>
</mgrwt>
<clustering>
<clus scale="   31.034">  1  6  2 -1</clus>
<clus scale="  470.755">  4  5 -1 -1</clus>
<clus scale="  300.000">  1  4  2 -1</clus>
</clustering>
</event>
<event>
 6    1  0.9131597E-012  0.3000000E+03  0.7818608E-02  0.1093470E+00
          1   -1    0    0  502    0  0.00000000000E+00  0.00000000000E+00  0.22437020327E+03  0.22437020327E+03  0.00000000000E+00 0.  1.
         13   -1    0    0    0    0 -0.00000000000E+00 -0.00000000000E+00 -0.27500000000E+03  0.27500000000E+03  0.00000000000E+00 0.  1.
    9000005    2    1    2  501    0 -0.33686116754E+02 -0.18330778149E+01 -0.44379063494E+02  0.46506005459E+03  0.46170687504E+03 0.  0.
         13    1    3    3    0    0 -0.14582633995E+02  0.21560977219E+03  0.58310341081E+02  0.22383101429E+03  0.00000000000E+00 0.  1.
          3    1    3    3  501    0 -0.19103482759E+02 -0.21744285001E+03 -0.10268940457E+03  0.24122904030E+03  0.00000000000E+00 0.  1.
         21    1    1    2  502  501  0.33686116754E+02  0.18330778149E+01 -0.62507332385E+01  0.34310148678E+02  0.00000000000E+00 0. -1.
<scales pt_clust_4="550.00000" pt_clust_5="550.00000" pt_clust_6="33.73597"></scales>
<mgrwt>
<rscale>  0 0.30000000E+03</rscale>
<asrwt>  1 0.33735972E+02</asrwt>
<pdfrwt beam="1">  1        1 0.81589165E+00 0.30000000E+03</pdfrwt>
<pdfrwt beam="2">0</pdfrwt>
<totfact> 0.78831358E-04</totfact>
</mgrwt>
<clustering>
<clus scale="   33.736">  1  6  2 -1</clus>
<clus scale="  461.707">  4  5 -1 -1</clus>
<clus scale="  300.000">  1  4  2 -1</clus>
</clustering>
</event>
<event>
 6    1  0.9131597E-012  0.3000000E+03  0.7818608E-02  0.1093470E+00
          1   -1    0    0  502    0  0.00000000000E+00  0.00000000000E+00  0.22918797940E+03  0.22918797940E+03  0.00000000000E+00 0.  1.
         13   -1    0    0    0    0 -0.00000000000E+00 -0.00000000000E+00 -0.27500000000E+03  0.27500000000E+03  0.00000000000E+00 0.  1.
    9000005    2    1    2  501    0 -0.27877236320E+02  0.24285985993E+02 -0.54823223352E+02  0.46613339760E+03  0.46141934195E+03 0.  0.
         13    1    3    3    0    0  0.17822721559E+03 -0.82453782291E+02  0.62473325271E+02  0.20607397449E+03  0.00000000000E+00 0.  1.
          3    1    3    3  501    0 -0.20610445191E+03  0.10673976828E+03 -0.11729654862E+03  0.26005942311E+03  0.00000000000E+00 0.  1.
         21    1    1    2  502  501  0.27877236320E+02 -0.24285985993E+02  0.90112027479E+01  0.38054581793E+02  0.00000000000E+00 0.  1.
<scales pt_clust_4="550.00000" pt_clust_5="550.00000" pt_clust_6="36.97228"></scales>
<mgrwt>
<rscale>  0 0.30000000E+03</rscale>
<asrwt>  1 0.36972279E+02</asrwt>
<pdfrwt beam="1">  1        1 0.83341083E+00 0.30000000E+03</pdfrwt>
<pdfrwt beam="2">0</pdfrwt>
<totfact> 0.55015164E-04</totfact>
</mgrwt>
<clustering>
<clus scale="   36.972">  1  6  2 -1</clus>
<clus scale="  461.419">  4  5 -1 -1</clus>
<clus scale="  300.000">  1  4  2 -1</clus>
</clustering>
</event>
<event>
 6    1  0.9131597E-012  0.3000000E+03  0.7818608E-02  0.1093470E+00
          1   -1    0    0  502    0  0.00000000000E+00  0.00000000000E+00  0.22496575546E+03  0.22496575546E+03  0.00000000000E+00 0.  1.
         13   -1    0    0    0    0 -0.00000000000E+00 -0.00000000000E+00 -0.27500000000E+03  0.27500000000E+03  0.00000000000E+00 0.  1.
    9000005    2    1    2  501    0 -0.10420126832E+02  0.32031222587E+02 -0.61146728619E+02  0.46449653548E+03  0.45922056878E+03 0.  0.
         13    1    3    3    0    0  0.81091934203E+02 -0.16566919950E+03 -0.14131400832E+03  0.23236143054E+03  0.00000000000E+00 0.  1.
          3    1    3    3  501    0 -0.91512061035E+02  0.19770042209E+03  0.80167279704E+02  0.23213510494E+03  0.00000000000E+00 0.  1.
         21    1    1    2  502  501  0.10420126832E+02 -0.32031222587E+02  0.11112484081E+02  0.35469219981E+02  0.00000000000E+00 0.  1.
<scales pt_clust_4="550.00000" pt_clust_5="550.00000" pt_clust_6="33.68350"></scales>
<mgrwt>
<rscale>  0 0.30000000E+03</rscale>
<asrwt>  1 0.33683501E+02</asrwt>
<pdfrwt beam="1">  1        1 0.81805729E+00 0.30000000E+03</pdfrwt>
<pdfrwt beam="2">0</pdfrwt>
<totfact> 0.75681526E-04</totfact>
</mgrwt>
<clustering>
<clus scale="   33.684">  1  6  2 -1</clus>
<clus scale="  459.221">  4  5 -1 -1</clus>
<clus scale="  300.000">  1  4  2 -1</clus>
</clustering>
</event>
<event>
 6    1  0.9131597E-012  0.3000000E+03  0.7818608E-02  0.1093470E+00
          1   -1    0    0  502    0  0.00000000000E+00  0.00000000000E+00  0.23363669969E+03  0.23363669969E+03  0.00000000000E+00 0.  1.
         13   -1    0    0    0    0 -0.00000000000E+00 -0.00000000000E+00 -0.27500000000E+03  0.27500000000E+03  0.00000000000E+00 0.  1.
    9000005    2    1    2  501    0  0.28242199525E+02  0.13086345954E+02 -0.60810666037E+02  0.47193418863E+03  0.46696366776E+03 0.  0.
         13    1    3    3    0    0  0.10174889716E+03 -0.20185416021E+03  0.28516102289E+02  0.22784009340E+03  0.00000000000E+00 0.  1.
          3    1    3    3  501    0 -0.73506697638E+02  0.21494050617E+03 -0.89326768327E+02  0.24409409523E+03  0.00000000000E+00 0.  1.
         21    1    1    2  502  501 -0.28242199525E+02 -0.13086345954E+02  0.19447365729E+02  0.36702511062E+02  0.00000000000E+00 0.  1.
<scales pt_clust_4="550.00000" pt_clust_5="550.00000" pt_clust_6="31.12675"></scales>
<mgrwt>
<rscale>  0 0.30000000E+03</rscale>
<asrwt>  1 0.31126745E+02</asrwt>
<pdfrwt beam="1">  1        1 0.84958800E+00 0.30000000E+03</pdfrwt>
<pdfrwt beam="2">0</pdfrwt>
<totfact> 0.41982484E-04</totfact>
</mgrwt>
<clustering>
<clus scale="   31.127">  1  6  2 -1</clus>
<clus scale="  466.964">  4  5 -1 -1</clus>
<clus scale="  300.000">  1  4  2 -1</clus>
</clustering>
</event>
<event>
 6    1  0.9131597E-012  0.3000000E+03  0.7818608E-02  0.1093470E+00
          1   -1    0    0  502    0  0.00000000000E+00  0.00000000000E+00  0.23442522969E+03  0.23442522969E+03  0.00000000000E+00 0.  1.
         13   -1    0    0    0    0 -0.00000000000E+00 -0.00000000000E+00 -0.27500000000E+03  0.27500000000E+03  0.00000000000E+00 0.  1.
    9000005    2    1    2  501    0  0.37334766296E+02 -0.15989237644E+02 -0.56856617407E+02  0.46566864116E+03  0.46039664196E+03 0.  0.
         13    1    3    3    0    0 -0.18765877077E+03  0.90822149018E+02  0.68371395844E+01  0.20859344064E+03  0.00000000000E+00 0.  1.
          1    1    3    3  501    0  0.22499353707E+03 -0.10681138666E+03 -0.63693756991E+02  0.25707520052E+03  0.00000000000E+00 0.  1.
         21    1    1    2  502  501 -0.37334766296E+02  0.15989237644E+02  0.16281847098E+02  0.43756588530E+02  0.00000000000E+00 0. -1.
<scales pt_clust_4="550.00000" pt_clust_5="550.00000" pt_clust_6="40.61454"></scales>
<mgrwt>
<rscale>  0 0.30000000E+03</rscale>
<asrwt>  1 0.40614536E+02</asrwt>
<pdfrwt beam="1">  1        1 0.85245538E+00 0.30000000E+03</pdfrwt>
<pdfrwt beam="2">0</pdfrwt>
<totfact> 0.37525518E-04</totfact>
</mgrwt>
<clustering>
<clus scale="   40.615">  1  6  2 -1</clus>
<clus scale="  460.397">  4  5 -1 -1</clus>
<clus scale="  300.000">  1  4  2 -1</clus>
</clustering>
</event>
<event>
 6    1  0.9131597E-012  0.3000000E+03  0.7818608E-02  0.1093470E+00
          1   -1    0    0  502    0  0.00000000000E+00  0.00000000000E+00  0.23553529669E+03  0.23553529669E+03  0.00000000000E+00 0.  1.
         13   -1    0    0    0    0 -0.00000000000E+00 -0.00000000000E+00 -0.27500000000E+03  0.27500000000E+03  0.00000000000E+00 0.  1.
    9000005    2    1    2  501    0  0.27634919490E+02 -0.22735034023E+02 -0.59870825302E+02  0.46934087520E+03  0.46412904548E+03 0.  0.
         13    1    3    3    0    0  0.21044708776E+03 -0.13533730586E+03 -0.20436291233E+02  0.25104144101E+03  0.00000000000E+00 0.  1.
          1    1    3    3  501    0 -0.18281216827E+03  0.11260227183E+03 -0.39434534070E+02  0.21829943419E+03  0.00000000000E+00 0.  1.
         21    1    1    2  502  501 -0.27634919490E+02  0.22735034023E+02  0.20406121989E+02  0.41194421490E+02  0.00000000000E+00 0.  1.
<scales pt_clust_4="550.00000" pt_clust_5="550.00000" pt_clust_6="35.78506"></scales>
<mgrwt>
<rscale>  0 0.30000000E+03</rscale>
<asrwt>  1 0.35785060E+02</asrwt>
<pdfrwt beam="1">  1        1 0.85649199E+00 0.30000000E+03</pdfrwt>
<pdfrwt beam="2">0</pdfrwt>
<totfact> 0.35050911E-04</totfact>
</mgrwt>
<clustering>
<clus scale="   35.785">  1  6  2 -1</clus>
<clus scale="  464.129">  4  5 -1 -1</clus>
<clus scale="  300.000">  1  4  2 -1</clus>
</clustering>
</event>
<event>
 6    1  0.9131597E-012  0.3000000E+03  0.7818608E-02  0.1093470E+00
          1   -1    0    0  502    0  0.00000000000E+00  0.00000000000E+00  0.22530116720E+03  0.22530116720E+03  0.00000000000E+00 0.  1.
         13   -1    0    0    0    0 -0.00000000000E+00 -0.00000000000E+00 -0.27500000000E+03  0.27500000000E+03  0.00000000000E+00 0.  1.
    9000005    2    1    2  501    0  0.35200277183E+02 -0.75411302499E+01 -0.59315920327E+02  0.46303970545E+03  0.45781160128E+03 0.  0.
         13    1    3    3    0    0  0.61683134203E+02  0.14454954315E+03  0.14031237001E+03  0.21068208430E+03  0.00000000000E+00 0.  1.
          1    1    3    3  501    0 -0.26482857020E+02 -0.15209067340E+03 -0.19962829033E+03  0.25235762115E+03  0.00000000000E+00 0.  1.
         21    1    1    2  502  501 -0.35200277183E+02  0.75411302499E+01  0.96170875293E+01  0.37261461750E+02  0.00000000000E+00 0. -1.
<scales pt_clust_4="550.00000" pt_clust_5="550.00000" pt_clust_6="35.99900"></scales>
<mgrwt>
<rscale>  0 0.30000000E+03</rscale>
<asrwt>  1 0.35999002E+02</asrwt>
<pdfrwt beam="1">  1        1 0.81927697E+00 0.30000000E+03</pdfrwt>
<pdfrwt beam="2">0</pdfrwt>
<totfact> 0.72989225E-04</totfact>
</mgrwt>
<clustering>
<clus scale="   35.999">  1  6  2 -1</clus>
<clus scale="  457.812">  4  5 -1 -1</clus>
<clus scale="  300.000">  1  4  2 -1</clus>
</clustering>
</event>
<event>
 6    1  0.9131597E-012  0.3000000E+03  0.7818608E-02  0.1093470E+00
          1   -1    0    0  502    0  0.00000000000E+00  0.00000000000E+00  0.22037996804E+03  0.22037996804E+03  0.00000000000E+00 0.  1.
         13   -1    0    0    0    0 -0.00000000000E+00 -0.00000000000E+00 -0.27500000000E+03  0.27500000000E+03  0.00000000000E+00 0.  1.
    9000005    2    1    2  501    0 -0.26883507425E+02 -0.17646891667E+02 -0.52531830801E+02  0.46315425872E+03  0.45904045396E+03 0.  0.
         13    1    3    3    0    0  0.13050302931E+03  0.90306264206E+02 -0.17511247984E+03  0.23632740554E+03  0.00000000000E+00 0.  1.
          1    1    3    3  501    0 -0.15738653674E+03 -0.10795315587E+03  0.12258064904E+03  0.22682685319E+03  0.00000000000E+00 0.  1.
         21    1    1    2  502  501  0.26883507425E+02  0.17646891667E+02 -0.20882011558E+01  0.32225709318E+02  0.00000000000E+00 0.  1.
<scales pt_clust_4="550.00000" pt_clust_5="550.00000" pt_clust_6="32.15798"></scales>
<mgrwt>
<rscale>  0 0.30000000E+03</rscale>
<asrwt>  1 0.32157981E+02</asrwt>
<pdfrwt beam="1">  1        1 0.80138170E+00 0.30000000E+03</pdfrwt>
<pdfrwt beam="2">0</pdfrwt>
<totfact> 0.10297135E-03</totfact>
</mgrwt>
<clustering>
<clus scale="   32.158">  1  6  2 -1</clus>
<clus scale="  459.040">  4  5 -1 -1</clus>
<clus scale="  300.000">  1  4  2 -1</clus>
</clustering>
</event>
<event>
 6    1  0.9131597E-012  0.3000000E+03  0.7818608E-02  0.1093470E+00
          1   -1    0    0  502    0  0.00000000000E+00  0.00000000000E+00  0.24707589010E+03  0.24707589010E+03  0.00000000000E+00 0.  1.
         13   -1    0    0    0    0 -0.00000000000E+00 -0.00000000000E+00 -0.27500000000E+03  0.27500000000E+03  0.00000000000E+00 0.  1.
    9000005    2    1    2  501    0 -0.54394278664E+01 -0.54153702036E+02 -0.45132935914E+02  0.46499389195E+03  0.45958690889E+03 0.  0.
         13    1    3    3    0    0  0.14764800250E+03  0.11812758706E+03  0.76997779061E+02  0.20416345767E+03  0.00000000000E+00 0.  1.
          3    1    3    3  501    0 -0.15308743036E+03 -0.17228128910E+03 -0.12213071498E+03  0.26083043428E+03  0.00000000000E+00 0.  1.
         21    1    1    2  502  501  0.54394278664E+01  0.54153702036E+02  0.17208826009E+02  0.57081998146E+02  0.00000000000E+00 0. -1.
<scales pt_clust_4="550.00000" pt_clust_5="550.00000" pt_clust_6="54.42620"></scales>
<mgrwt>
<rscale>  0 0.30000000E+03</rscale>
<asrwt>  1 0.54426196E+02</asrwt>
<pdfrwt beam="1">  1        1 0.89845778E+00 0.30000000E+03</pdfrwt>
<pdfrwt beam="2">0</pdfrwt>
<totfact> 0.10648182E-04</totfact>
</mgrwt>
<clustering>
<clus scale="   54.426">  1  6  2 -1</clus>
<clus scale="  459.587">  4  5 -1 -1</clus>
<clus scale="  300.000">  1  4  2 -1</clus>
</clustering>
</event>
<event>
 6    1  0.9131597E-012  0.3000000E+03  0.7818608E-02  0.1093470E+00
          1   -1    0    0  502    0  0.00000000000E+00  0.00000000000E+00  0.23694239746E+03  0.23694239746E+03  0.00000000000E+00 0.  1.
         13   -1    0    0    0    0 -0.00000000000E+00 -0.00000000000E+00 -0.27500000000E+03  0.27500000000E+03  0.00000000000E+00 0.  1.
    9000005    2    1    2  501    0  0.43026977889E+02 -0.11535781054E+02 -0.57796706765E+02  0.46321840638E+03  0.45743462662E+03 0.  0.
         13    1    3    3    0    0  0.17907436037E+03 -0.75513495390E+02 -0.18347288425E+03  0.26726805604E+03  0.00000000000E+00 0.  1.
          1    1    3    3  501    0 -0.13604738248E+03  0.63977714335E+02  0.12567617748E+03  0.19595035034E+03  0.00000000000E+00 0.  1.
         21    1    1    2  502  501 -0.43026977889E+02  0.11535781054E+02  0.19739104223E+02  0.48723991075E+02  0.00000000000E+00 0. -1.
<scales pt_clust_4="550.00000" pt_clust_5="550.00000" pt_clust_6="44.54655"></scales>
<mgrwt>
<rscale>  0 0.30000000E+03</rscale>
<asrwt>  1 0.44546549E+02</asrwt>
<pdfrwt beam="1">  1        1 0.86160872E+00 0.30000000E+03</pdfrwt>
<pdfrwt beam="2">0</pdfrwt>
<totfact> 0.29743794E-04</totfact>
</mgrwt>
<clustering>
<clus scale="   44.547">  1  6  2 -1</clus>
<clus scale="  457.435">  4  5 -1 -1</clus>
<clus scale="  300.000">  1  4  2 -1</clus>
</clustering>
</event>
<event>
 6    1  0.9131597E-012  0.3000000E+03  0.7818608E-02  0.1093470E+00
          1   -1    0    0  502    0  0.00000000000E+00  0.00000000000E+00  0.23744116578E+03  0.23744116578E+03  0.00000000000E+00 0.  1.
         13   -1    0    0    0    0 -0.00000000000E+00 -0.00000000000E+00 -0.27500000000E+03  0.27500000000E+03  0.00000000000E+00 0.  1.
    9000005    2    1    2  501    0 -0.26816855105E+02 -0.15677017900E+02 -0.71064968872E+02  0.46675119240E+03  0.46026246121E+03 0.  0.
         13    1    3    3    0    0  0.24876961294E+02  0.65073967319E+02  0.18267062468E+03  0.19550458191E+03  0.00000000000E+00 0.  1.
          3    1    3    3  501    0 -0.51693816399E+02 -0.80750985220E+02 -0.25373559355E+03  0.27124661049E+03  0.00000000000E+00 0.  1.
         21    1    1    2  502  501  0.26816855105E+02  0.15677017900E+02  0.33506134655E+02  0.45689973380E+02  0.00000000000E+00 0.  1.
<scales pt_clust_4="550.00000" pt_clust_5="550.00000" pt_clust_6="31.06304"></scales>
<mgrwt>
<rscale>  0 0.30000000E+03</rscale>
<asrwt>  1 0.31063042E+02</asrwt>
<pdfrwt beam="1">  1        1 0.86342242E+00 0.30000000E+03</pdfrwt>
<pdfrwt beam="2">0</pdfrwt>
<totfact> 0.30391358E-04</totfact>
</mgrwt>
<clustering>
<clus scale="   31.063">  1  6  2 -1</clus>
<clus scale="  460.262">  4  5 -1 -1</clus>
<clus scale="  300.000">  1  4  2 -1</clus>
</clustering>
</event>
<event>
 6    1  0.9131597E-012  0.3000000E+03  0.7818608E-02  0.1093470E+00
          1   -1    0    0  502    0  0.00000000000E+00  0.00000000000E+00  0.23046727688E+03  0.23046727688E+03  0.00000000000E+00 0.  1.
         13   -1    0    0    0    0 -0.00000000000E+00 -0.00000000000E+00 -0.27500000000E+03  0.27500000000E+03  0.00000000000E+00 0.  1.
    9000005    2    1    2  501    0  0.29793592951E+02 -0.14736373885E+02 -0.56968460313E+02  0.46997831443E+03  0.46532718776E+03 0.  0.
         13    1    3    3    0    0  0.71115305011E+02 -0.41524456186E+02  0.19582333949E+03  0.21243457195E+03  0.00000000000E+00 0.  1.
          1    1    3    3  501    0 -0.41321712060E+02  0.26788082300E+02 -0.25279179981E+03  0.25754374248E+03  0.00000000000E+00 0.  1.
         21    1    1    2  502  501 -0.29793592951E+02  0.14736373885E+02  0.12435737189E+02  0.35488962449E+02  0.00000000000E+00 0.  1.
<scales pt_clust_4="550.00000" pt_clust_5="550.00000" pt_clust_6="33.23882"></scales>
<mgrwt>
<rscale>  0 0.30000000E+03</rscale>
<asrwt>  1 0.33238816E+02</asrwt>
<pdfrwt beam="1">  1        1 0.83806283E+00 0.30000000E+03</pdfrwt>
<pdfrwt beam="2">0</pdfrwt>
<totfact> 0.51893530E-04</totfact>
</mgrwt>
<clustering>
<clus scale="   33.239">  1  6  2 -1</clus>
<clus scale="  465.327">  4  5 -1 -1</clus>
<clus scale="  300.000">  1  4  2 -1</clus>
</clustering>
</event>
<event>
 6    1  0.9131597E-012  0.3000000E+03  0.7818608E-02  0.1093470E+00
          1   -1    0    0  502    0  0.00000000000E+00  0.00000000000E+00  0.22948048341E+03  0.22948048341E+03  0.00000000000E+00 0.  1.
         13   -1    0    0    0    0 -0.00000000000E+00 -0.00000000000E+00 -0.27500000000E+03  0.27500000000E+03  0.00000000000E+00 0.  1.
    9000005    2    1    2  501    0  0.12158334001E+02 -0.28289621512E+02 -0.58887659689E+02  0.47091212002E+03  0.46619989333E+03 0.  0.
         13    1    3    3    0    0  0.17160113308E+03  0.14743046293E+03  0.82955454019E+00  0.22623743818E+03  0.00000000000E+00 0.  1.
          3    1    3    3  501    0 -0.15944279908E+03 -0.17572008444E+03 -0.59717214230E+02  0.24467468183E+03  0.00000000000E+00 0.  1.
         21    1    1    2  502  501 -0.12158334001E+02  0.28289621512E+02  0.13368143100E+02  0.33568363394E+02  0.00000000000E+00 0. -1.
<scales pt_clust_4="550.00000" pt_clust_5="550.00000" pt_clust_6="30.79168"></scales>
<mgrwt>
<rscale>  0 0.30000000E+03</rscale>
<asrwt>  1 0.30791683E+02</asrwt>
<pdfrwt beam="1">  1        1 0.83447449E+00 0.30000000E+03</pdfrwt>
<pdfrwt beam="2">0</pdfrwt>
<totfact> 0.55920068E-04</totfact>
</mgrwt>
<clustering>
<clus scale="   30.792">  1  6  2 -1</clus>
<clus scale="  466.200">  4  5 -1 -1</clus>
<clus scale="  300.000">  1  4  2 -1</clus>
</clustering>
</event>
<event>
 6    1  0.9131597E-012  0.3000000E+03  0.7818608E-02  0.1093470E+00
          1   -1    0    0  502    0  0.00000000000E+00  0.00000000000E+00  0.23926333424E+03  0.23926333424E+03  0.00000000000E+00 0.  1.
         13   -1    0    0    0    0 -0.00000000000E+00 -0.00000000000E+00 -0.27500000000E+03  0.27500000000E+03  0.00000000000E+00 0.  1.
    9000005    2    1    2  501    0 -0.30712741222E+02  0.12415528876E+02 -0.48902564795E+02  0.47861563125E+03  0.47495688626E+03 0.  0.
         13    1    3    3    0    0 -0.71387329431E+02  0.23698697679E+03 -0.34992314680E+02  0.24996687792E+03  0.00000000000E+00 0.  1.
          1    1    3    3  501    0  0.40674588209E+02 -0.22457144791E+03 -0.13910250115E+02  0.22864875333E+03  0.00000000000E+00 0.  1.
         21    1    1    2  502  501  0.30712741222E+02 -0.12415528876E+02  0.13165899031E+02  0.35647702982E+02  0.00000000000E+00 0. -1.
<scales pt_clust_4="550.00000" pt_clust_5="550.00000" pt_clust_6="33.12730"></scales>
<mgrwt>
<rscale>  0 0.30000000E+03</rscale>
<asrwt>  1 0.33127297E+02</asrwt>
<pdfrwt beam="1">  1        1 0.87004849E+00 0.30000000E+03</pdfrwt>
<pdfrwt beam="2">0</pdfrwt>
<totfact> 0.25559050E-04</totfact>
</mgrwt>
<clustering>
<clus scale="   33.127">  1  6  2 -1</clus>
<clus scale="  474.957">  4  5 -1 -1</clus>
<clus scale="  300.000">  1  4  2 -1</clus>
</clustering>
</event>
<event>
 6    1  0.9131597E-012  0.3000000E+03  0.7818608E-02  0.1093470E+00
          1   -1    0    0  502    0  0.00000000000E+00  0.00000000000E+00  0.22764415954E+03  0.22764415954E+03  0.00000000000E+00 0.  1.
         13   -1    0    0    0    0 -0.00000000000E+00 -0.00000000000E+00 -0.27500000000E+03  0.27500000000E+03  0.00000000000E+00 0.  1.
    9000005    2    1    2  501    0 -0.66363928116E+01 -0.30578512390E+02 -0.60454691814E+02  0.46872267614E+03  0.46375326439E+03 0.  0.
         13    1    3    3    0    0 -0.13834723063E+03 -0.16147418548E+03  0.88849031386E+02  0.23045177192E+03  0.00000000000E+00 0.  1.
          3    1    3    3  501    0  0.13171083782E+03  0.13089567309E+03 -0.14930372320E+03  0.23827090422E+03  0.00000000000E+00 0.  1.
         21    1    1    2  502  501  0.66363928116E+01  0.30578512390E+02  0.13098851353E+02  0.33921483404E+02  0.00000000000E+00 0.  1.
<scales pt_clust_4="550.00000" pt_clust_5="550.00000" pt_clust_6="31.29037"></scales>
<mgrwt>
<rscale>  0 0.30000000E+03</rscale>
<asrwt>  1 0.31290368E+02</asrwt>
<pdfrwt beam="1">  1        1 0.82779694E+00 0.30000000E+03</pdfrwt>
<pdfrwt beam="2">0</pdfrwt>
<totfact> 0.63024867E-04</totfact>
</mgrwt>
<clustering>
<clus scale="   31.290">  1  6  2 -1</clus>
<clus scale="  463.753">  4  5 -1 -1</clus>
<clus scale="  300.000">  1  4  2 -1</clus>
</clustering>
</event>
<event>
 6    1  0.9131597E-012  0.3000000E+03  0.7818608E-02  0.1093470E+00
          1   -1    0    0  502    0  0.00000000000E+00  0.00000000000E+00  0.21760200837E+03  0.21760200837E+03  0.00000000000E+00 0.  1.
         13   -1    0    0    0    0 -0.00000000000E+00 -0.00000000000E+00 -0.27500000000E+03  0.27500000000E+03  0.00000000000E+00 0.  1.
    9000005    2    1    2  501    0  0.31754923827E+02  0.83152641355E+00 -0.56999342150E+02  0.46083369799E+03  0.45619042687E+03 0.  0.
         13    1    3    3    0    0 -0.13318532804E+03  0.13634414651E+03 -0.13499418456E+03  0.23356259923E+03  0.00000000000E+00 0.  1.
          1    1    3    3  501    0  0.16494025186E+03 -0.13551262009E+03  0.77994842414E+02  0.22727109876E+03  0.00000000000E+00 0.  1.
         21    1    1    2  502  501 -0.31754923827E+02 -0.83152641355E+00 -0.39864947527E+00  0.31768310387E+02  0.00000000000E+00 0.  1.
<scales pt_clust_4="550.00000" pt_clust_5="550.00000" pt_clust_6="31.76581"></scales>
<mgrwt>
<rscale>  0 0.30000000E+03</rscale>
<asrwt>  1 0.31765809E+02</asrwt>
<pdfrwt beam="1">  1        1 0.79128003E+00 0.30000000E+03</pdfrwt>
<pdfrwt beam="2">0</pdfrwt>
<totfact> 0.12270337E-03</totfact>
</mgrwt>
<clustering>
<clus scale="   31.766">  1  6  2 -1</clus>
<clus scale="  456.190">  4  5 -1 -1</clus>
<clus scale="  300.000">  1  4  2 -1</clus>
</clustering>
</event>
<event>
 6    1  0.9131597E-012  0.3000000E+03  0.7818608E-02  0.1093470E+00
          1   -1    0    0  502    0  0.00000000000E+00  0.00000000000E+00  0.24154881037E+03  0.24154881037E+03  0.00000000000E+00 0.  1.
         13   -1    0    0    0    0 -0.00000000000E+00 -0.00000000000E+00 -0.27500000000E+03  0.27500000000E+03  0.00000000000E+00 0.  1.
    9000005    2    1    2  501    0  0.15152636275E+02 -0.27678467632E+02 -0.73270709575E+02  0.46574237254E+03  0.45885908593E+03 0.  0.
         13    1    3    3    0    0 -0.93988800075E+02 -0.85406187922E+02  0.15852065220E+03  0.20311796732E+03  0.00000000000E+00 0.  1.
          1    1    3    3  501    0  0.10914143635E+03  0.57727720290E+02 -0.23179136178E+03  0.26262440521E+03  0.00000000000E+00 0.  1.
         21    1    1    2  502  501 -0.15152636275E+02  0.27678467632E+02  0.39819519947E+02  0.50806437834E+02  0.00000000000E+00 0.  1.
<scales pt_clust_4="550.00000" pt_clust_5="550.00000" pt_clust_6="31.55471"></scales>
<mgrwt>
<rscale>  0 0.30000000E+03</rscale>
<asrwt>  1 0.31554714E+02</asrwt>
<pdfrwt beam="1">  1        1 0.87835931E+00 0.30000000E+03</pdfrwt>
<pdfrwt beam="2">0</pdfrwt>
<totfact> 0.21059896E-04</totfact>
</mgrwt>
<clustering>
<clus scale="   31.555">  1  6  2 -1</clus>
<clus scale="  458.859">  4  5 -1 -1</clus>
<clus scale="  300.000">  1  4  2 -1</clus>
</clustering>
</event>
<event>
 6    1  0.9131597E-012  0.3000000E+03  0.7818608E-02  0.1093470E+00
          1   -1    0    0  502    0  0.00000000000E+00  0.00000000000E+00  0.23551986955E+03  0.23551986955E+03  0.00000000000E+00 0.  1.
         13   -1    0    0    0    0 -0.00000000000E+00 -0.00000000000E+00 -0.27500000000E+03  0.27500000000E+03  0.00000000000E+00 0.  1.
    9000005    2    1    2  501    0 -0.17669426656E+02  0.36910303588E+02 -0.62891051306E+02  0.46337487656E+03  0.45725967758E+03 0.  0.
         13    1    3    3    0    0 -0.67222781402E+01  0.24550500870E+03 -0.12946582482E+01  0.24560043660E+03  0.00000000000E+00 0.  1.
          1    1    3    3  501    0 -0.10947148516E+02 -0.20859470511E+03 -0.61596393057E+02  0.21777443995E+03  0.00000000000E+00 0.  1.
         21    1    1    2  502  501  0.17669426656E+02 -0.36910303588E+02  0.23410920859E+02  0.47144992998E+02  0.00000000000E+00 0. -1.
<scales pt_clust_4="550.00000" pt_clust_5="550.00000" pt_clust_6="40.92162"></scales>
<mgrwt>
<rscale>  0 0.30000000E+03</rscale>
<asrwt>  1 0.40921622E+02</asrwt>
<pdfrwt beam="1">  1        1 0.85643589E+00 0.30000000E+03</pdfrwt>
<pdfrwt beam="2">0</pdfrwt>
<totfact> 0.34241550E-04</totfact>
</mgrwt>
<clustering>
<clus scale="   40.922">  1  6  2 -1</clus>
<clus scale="  457.260">  4  5 -1 -1</clus>
<clus scale="  300.000">  1  4  2 -1</clus>
</clustering>
</event>
<event>
 6    1  0.9131597E-012  0.3000000E+03  0.7818608E-02  0.1093470E+00
          1   -1    0    0  502    0  0.00000000000E+00  0.00000000000E+00  0.22835000943E+03  0.22835000943E+03  0.00000000000E+00 0.  1.
         13   -1    0    0    0    0 -0.00000000000E+00 -0.00000000000E+00 -0.27500000000E+03  0.27500000000E+03  0.00000000000E+00 0.  1.
    9000005    2    1    2  501    0  0.11452214557E+00 -0.38955758624E+02 -0.42628214945E+02  0.46418703043E+03  0.46058101379E+03 0.  0.
         13    1    3    3    0    0 -0.65563855784E+02 -0.15436652754E+03  0.15348631792E+03  0.22734487854E+03  0.00000000000E+00 0.  1.
          1    1    3    3  501    0  0.65678377929E+02  0.11541076892E+03 -0.19611453287E+03  0.23684215189E+03  0.00000000000E+00 0.  1.
         21    1    1    2  502  501 -0.11452214557E+00  0.38955758624E+02 -0.40217756239E+01  0.39162979004E+02  0.00000000000E+00 0.  1.
<scales pt_clust_4="550.00000" pt_clust_5="550.00000" pt_clust_6="38.95595"></scales>
<mgrwt>
<rscale>  0 0.30000000E+03</rscale>
<asrwt>  1 0.38955946E+02</asrwt>
<pdfrwt beam="1">  1        1 0.83036367E+00 0.30000000E+03</pdfrwt>
<pdfrwt beam="2">0</pdfrwt>
<totfact> 0.57544015E-04</totfact>
</mgrwt>
<clustering>
<clus scale="   38.956">  1  6  2 -1</clus>
<clus scale="  460.581">  4  5 -1 -1</clus>
<clus scale="  300.000">  1  4  2 -1</clus>
</clustering>
</event>
<event>
 6    1  0.9131597E-012  0.3000000E+03  0.7818608E-02  0.1093470E+00
          1   -1    0    0  502    0  0.00000000000E+00  0.00000000000E+00  0.22629143265E+03  0.22629143265E+03  0.00000000000E+00 0.  1.
         13   -1    0    0    0    0 -0.00000000000E+00 -0.00000000000E+00 -0.27500000000E+03  0.27500000000E+03  0.00000000000E+00 0.  1.
    9000005    2    1    2  501    0 -0.28113983080E+02  0.21144584653E+02 -0.24501735478E+02  0.45858943955E+03  0.45658126278E+03 0.  0.
         13    1    3    3    0    0 -0.10247373935E+03 -0.18296956789E+03 -0.94964096573E+02  0.23021057680E+03  0.00000000000E+00 0.  1.
          1    1    3    3  501    0  0.74359756269E+02  0.20411415255E+03  0.70462361094E+02  0.22837886276E+03  0.00000000000E+00 0.  1.
         21    1    1    2  502  501  0.28113983080E+02 -0.21144584653E+02 -0.24206831875E+02  0.42701993094E+02  0.00000000000E+00 0.  1.
<scales pt_clust_4="550.00000" pt_clust_5="550.00000" pt_clust_6="35.17799"></scales>
<mgrwt>
<rscale>  0 0.30000000E+03</rscale>
<asrwt>  1 0.35177987E+02</asrwt>
<pdfrwt beam="1">  1        1 0.82287794E+00 0.30000000E+03</pdfrwt>
<pdfrwt beam="2">0</pdfrwt>
<totfact> 0.68165736E-04</totfact>
</mgrwt>
<clustering>
<clus scale="   35.178">  1  6  2 -1</clus>
<clus scale="  456.581">  4  5 -1 -1</clus>
<clus scale="  300.000">  1  4  2 -1</clus>
</clustering>
</event>
<event>
 6    1  0.9131597E-012  0.3000000E+03  0.7818608E-02  0.1093470E+00
          1   -1    0    0  502    0  0.00000000000E+00  0.00000000000E+00  0.24125100321E+03  0.24125100321E+03  0.00000000000E+00 0.  1.
         13   -1    0    0    0    0 -0.00000000000E+00 -0.00000000000E+00 -0.27500000000E+03  0.27500000000E+03  0.00000000000E+00 0.  1.
    9000005    2    1    2  501    0  0.39039978433E+02  0.20634956631E+02 -0.41848121187E+02  0.47135649166E+03  0.46741390184E+03 0.  0.
         13    1    3    3    0    0  0.22302157658E+03 -0.96131510157E+02 -0.67188758650E+02  0.25198059479E+03  0.00000000000E+00 0.  1.
          3    1    3    3  501    0 -0.18398159814E+03  0.11676646679E+03  0.25340637463E+02  0.21937589687E+03  0.00000000000E+00 0.  1.
         21    1    1    2  502  501 -0.39039978433E+02 -0.20634956631E+02  0.80991244016E+01  0.44894511549E+02  0.00000000000E+00 0. -1.
<scales pt_clust_4="550.00000" pt_clust_5="550.00000" pt_clust_6="44.15791"></scales>
<mgrwt>
<rscale>  0 0.30000000E+03</rscale>
<asrwt>  1 0.44157914E+02</asrwt>
<pdfrwt beam="1">  1        1 0.87727638E+00 0.30000000E+03</pdfrwt>
<pdfrwt beam="2">0</pdfrwt>
<totfact> 0.20362529E-04</totfact>
</mgrwt>
<clustering>
<clus scale="   44.158">  1  6  2 -1</clus>
<clus scale="  467.414">  4  5 -1 -1</clus>
<clus scale="  300.000">  1  4  2 -1</clus>
</clustering>
</event>
<event>
 6    1  0.9131597E-012  0.3000000E+03  0.7818608E-02  0.1093470E+00
          1   -1    0    0  502    0  0.00000000000E+00  0.00000000000E+00  0.24323947316E+03  0.24323947316E+03  0.00000000000E+00 0.  1.
         13   -1    0    0    0    0 -0.00000000000E+00 -0.00000000000E+00 -0.27500000000E+03  0.27500000000E+03  0.00000000000E+00 0.  1.
    9000005    2    1    2  501    0  0.21453543956E-01 -0.34475582494E+02 -0.66782992440E+02  0.46909540592E+03  0.46303559855E+03 0.  0.
         13    1    3    3    0    0 -0.27049753460E+02  0.16407473196E+03 -0.17495633546E+03  0.24137507358E+03  0.00000000000E+00 0.  1.
          1    1    3    3  501    0  0.27071207004E+02 -0.19855031445E+03  0.10817334302E+03  0.22772033233E+03  0.00000000000E+00 0.  1.
         21    1    1    2  502  501 -0.21453543956E-01  0.34475582494E+02  0.35022465599E+02  0.49144067243E+02  0.00000000000E+00 0.  1.
<scales pt_clust_4="550.00000" pt_clust_5="550.00000" pt_clust_6="34.47559"></scales>
<mgrwt>
<rscale>  0 0.30000000E+03</rscale>
<asrwt>  1 0.34475589E+02</asrwt>
<pdfrwt beam="1">  1        1 0.88450718E+00 0.30000000E+03</pdfrwt>
<pdfrwt beam="2">0</pdfrwt>
<totfact> 0.17284800E-04</totfact>
</mgrwt>
<clustering>
<clus scale="   34.476">  1  6  2 -1</clus>
<clus scale="  463.036">  4  5 -1 -1</clus>
<clus scale="  300.000">  1  4  2 -1</clus>
</clustering>
</event>
<event>
 6    1  0.9131597E-012  0.3000000E+03  0.7818608E-02  0.1093470E+00
          1   -1    0    0  502    0  0.00000000000E+00  0.00000000000E+00  0.23736017670E+03  0.23736017670E+03  0.00000000000E+00 0.  1.
         13   -1    0    0    0    0 -0.00000000000E+00 -0.00000000000E+00 -0.27500000000E+03  0.27500000000E+03  0.00000000000E+00 0.  1.
    9000005    2    1    2  501    0  0.29469832207E+02 -0.11111482139E+02 -0.41801914162E+02  0.48059133904E+03  0.47773287420E+03 0.  0.
         13    1    3    3    0    0  0.90567725933E+02 -0.14167928798E+03 -0.20348687742E+03  0.26397432244E+03  0.00000000000E+00 0.  1.
          3    1    3    3  501    0 -0.61097893726E+02  0.13056780584E+03  0.16168496326E+03  0.21661701661E+03  0.00000000000E+00 0.  1.
         21    1    1    2  502  501 -0.29469832207E+02  0.11111482139E+02  0.41620908587E+01  0.31768837655E+02  0.00000000000E+00 0.  1.
<scales pt_clust_4="550.00000" pt_clust_5="550.00000" pt_clust_6="31.49502"></scales>
<mgrwt>
<rscale>  0 0.30000000E+03</rscale>
<asrwt>  1 0.31495016E+02</asrwt>
<pdfrwt beam="1">  1        1 0.86312792E+00 0.30000000E+03</pdfrwt>
<pdfrwt beam="2">0</pdfrwt>
<totfact> 0.30534548E-04</totfact>
</mgrwt>
<clustering>
<clus scale="   31.495">  1  6  2 -1</clus>
<clus scale="  477.733">  4  5 -1 -1</clus>
<clus scale="  300.000">  1  4  2 -1</clus>
</clustering>
</event>
<event>
 6    1  0.9131597E-012  0.3000000E+03  0.7818608E-02  0.1093470E+00
          1   -1    0    0  502    0  0.00000000000E+00  0.00000000000E+00  0.22783391105E+03  0.22783391105E+03  0.00000000000E+00 0.  1.
         13   -1    0    0    0    0 -0.00000000000E+00 -0.00000000000E+00 -0.27500000000E+03  0.27500000000E+03  0.00000000000E+00 0.  1.
    9000005    2    1    2  501    0  0.29679570229E+02 -0.76589378190E+01 -0.50292301987E+02  0.47202304567E+03  0.46833417961E+03 0.  0.
         13    1    3    3    0    0  0.30903917732E+02  0.10143949008E+03 -0.23481968119E+03  0.25765345904E+03  0.00000000000E+00 0.  1.
          1    1    3    3  501    0 -0.12243475027E+01 -0.10909842790E+03  0.18452737921E+03  0.21436958663E+03  0.00000000000E+00 0.  1.
         21    1    1    2  502  501 -0.29679570229E+02  0.76589378190E+01  0.31262130375E+01  0.30810865380E+02  0.00000000000E+00 0.  1.
<scales pt_clust_4="550.00000" pt_clust_5="550.00000" pt_clust_6="30.65186"></scales>
<mgrwt>
<rscale>  0 0.30000000E+03</rscale>
<asrwt>  1 0.30651855E+02</asrwt>
<pdfrwt beam="1">  1        1 0.82848695E+00 0.30000000E+03</pdfrwt>
<pdfrwt beam="2">0</pdfrwt>
<totfact> 0.62411563E-04</totfact>
</mgrwt>
<clustering>
<clus scale="   30.652">  1  6  2 -1</clus>
<clus scale="  468.334">  4  5 -1 -1</clus>
<clus scale="  300.000">  1  4  2 -1</clus>
</clustering>
</event>
<event>
 6    1  0.9131597E-012  0.3000000E+03  0.7818608E-02  0.1093470E+00
          1   -1    0    0  502    0  0.00000000000E+00  0.00000000000E+00  0.22246405239E+03  0.22246405239E+03  0.00000000000E+00 0.  1.
         13   -1    0    0    0    0 -0.00000000000E+00 -0.00000000000E+00 -0.27500000000E+03  0.27500000000E+03  0.00000000000E+00 0.  1.
    9000005    2    1    2  501    0 -0.30609675474E+02  0.88885519628E+01 -0.64393147299E+02  0.46345593905E+03  0.45785256517E+03 0.  0.
         13    1    3    3    0    0  0.15286056592E+03 -0.12655025637E+03  0.55161783956E+02  0.20597121743E+03  0.00000000000E+00 0.  1.
          1    1    3    3  501    0 -0.18347024140E+03  0.13543880833E+03 -0.11955493126E+03  0.25748472162E+03  0.00000000000E+00 0.  1.
         21    1    1    2  502  501  0.30609675474E+02 -0.88885519628E+01  0.11857199686E+02  0.34008113341E+02  0.00000000000E+00 0.  1.
<scales pt_clust_4="550.00000" pt_clust_5="550.00000" pt_clust_6="31.87411"></scales>
<mgrwt>
<rscale>  0 0.30000000E+03</rscale>
<asrwt>  1 0.31874105E+02</asrwt>
<pdfrwt beam="1">  1        1 0.80896019E+00 0.30000000E+03</pdfrwt>
<pdfrwt beam="2">0</pdfrwt>
<totfact> 0.90435354E-04</totfact>
</mgrwt>
<clustering>
<clus scale="   31.874">  1  6  2 -1</clus>
<clus scale="  457.853">  4  5 -1 -1</clus>
<clus scale="  300.000">  1  4  2 -1</clus>
</clustering>
</event>
<event>
 6    1  0.9131597E-012  0.3000000E+03  0.7818608E-02  0.1093470E+00
          1   -1    0    0  502    0  0.00000000000E+00  0.00000000000E+00  0.24338854127E+03  0.24338854127E+03  0.00000000000E+00 0.  1.
         13   -1    0    0    0    0 -0.00000000000E+00 -0.00000000000E+00 -0.27500000000E+03  0.27500000000E+03  0.00000000000E+00 0.  1.
    9000005    2    1    2  501    0 -0.32725149394E+02 -0.29967171708E+02 -0.54911279453E+02  0.46827019704E+03  0.46291766227E+03 0.  0.
         13    1    3    3    0    0 -0.17821770925E+03 -0.22210789016E+02 -0.19573079478E+03  0.26564151608E+03  0.00000000000E+00 0.  1.
          3    1    3    3  501    0  0.14549255986E+03 -0.77563826920E+01  0.14081951533E+03  0.20262868095E+03  0.00000000000E+00 0.  1.
         21    1    1    2  502  501  0.32725149394E+02  0.29967171708E+02  0.23299820724E+02  0.50118344234E+02  0.00000000000E+00 0. -1.
<scales pt_clust_4="550.00000" pt_clust_5="550.00000" pt_clust_6="44.37304"></scales>
<mgrwt>
<rscale>  0 0.30000000E+03</rscale>
<asrwt>  1 0.44373041E+02</asrwt>
<pdfrwt beam="1">  1        1 0.88504924E+00 0.30000000E+03</pdfrwt>
<pdfrwt beam="2">0</pdfrwt>
<totfact> 0.16224389E-04</totfact>
</mgrwt>
<clustering>
<clus scale="   44.373">  1  6  2 -1</clus>
<clus scale="  462.918">  4  5 -1 -1</clus>
<clus scale="  300.000">  1  4  2 -1</clus>
</clustering>
</event>
<event>
 6    1  0.9131597E-012  0.3000000E+03  0.7818608E-02  0.1093470E+00
          1   -1    0    0  502    0  0.00000000000E+00  0.00000000000E+00  0.24355302836E+03  0.24355302836E+03  0.00000000000E+00 0.  1.
         13   -1    0    0    0    0 -0.00000000000E+00 -0.00000000000E+00 -0.27500000000E+03  0.27500000000E+03  0.00000000000E+00 0.  1.
    9000005    2    1    2  501    0 -0.28992020360E+02 -0.46392401077E+02 -0.17644005813E+02  0.46213216353E+03  0.45854338236E+03 0.  0.
         13    1    3    3    0    0 -0.17703700038E+03  0.10343058662E+03 -0.10938714005E+03  0.23239090378E+03  0.00000000000E+00 0.  1.
          3    1    3    3  501    0  0.14804498002E+03 -0.14982298769E+03  0.91743134233E+02  0.22974125975E+03  0.00000000000E+00 0.  1.
         21    1    1    2  502  501  0.28992020360E+02  0.46392401077E+02 -0.13802965830E+02  0.56420864828E+02  0.00000000000E+00 0.  1.
<scales pt_clust_4="550.00000" pt_clust_5="550.00000" pt_clust_6="54.70644"></scales>
<mgrwt>
<rscale>  0 0.30000000E+03</rscale>
<asrwt>  1 0.54706445E+02</asrwt>
<pdfrwt beam="1">  1        1 0.88564738E+00 0.30000000E+03</pdfrwt>
<pdfrwt beam="2">0</pdfrwt>
<totfact> 0.15344941E-04</totfact>
</mgrwt>
<clustering>
<clus scale="   54.706">  1  6  2 -1</clus>
<clus scale="  458.543">  4  5 -1 -1</clus>
<clus scale="  300.000">  1  4  2 -1</clus>
</clustering>
</event>
<event>
 6    1  0.9131597E-012  0.3000000E+03  0.7818608E-02  0.1093470E+00
          1   -1    0    0  502    0  0.00000000000E+00  0.00000000000E+00  0.23868377366E+03  0.23868377366E+03  0.00000000000E+00 0.  1.
         13   -1    0    0    0    0 -0.00000000000E+00 -0.00000000000E+00 -0.27500000000E+03  0.27500000000E+03  0.00000000000E+00 0.  1.
    9000005    2    1    2  501    0 -0.16256015888E+01  0.35605844798E+02 -0.49745123048E+02  0.47559500850E+03  0.47164140624E+03 0.  0.
         13    1    3    3    0    0  0.91546601509E+01 -0.16467689256E+03 -0.17392544041E+03  0.23969218921E+03  0.00000000000E+00 0.  1.
          1    1    3    3  501    0 -0.10780261740E+02  0.20028273736E+03  0.12418031736E+03  0.23590281929E+03  0.00000000000E+00 0.  1.
         21    1    1    2  502  501  0.16256015888E+01 -0.35605844798E+02  0.13428896704E+02  0.38088765154E+02  0.00000000000E+00 0. -1.
<scales pt_clust_4="550.00000" pt_clust_5="550.00000" pt_clust_6="35.64293"></scales>
<mgrwt>
<rscale>  0 0.30000000E+03</rscale>
<asrwt>  1 0.35642934E+02</asrwt>
<pdfrwt beam="1">  1        1 0.86794100E+00 0.30000000E+03</pdfrwt>
<pdfrwt beam="2">0</pdfrwt>
<totfact> 0.26502152E-04</totfact>
</mgrwt>
<clustering>
<clus scale="   35.643">  1  6  2 -1</clus>
<clus scale="  471.641">  4  5 -1 -1</clus>
<clus scale="  300.000">  1  4  2 -1</clus>
</clustering>
</event>
<event>
 6    1  0.9131597E-012  0.3000000E+03  0.7818608E-02  0.1093470E+00
          1   -1    0    0  502    0  0.00000000000E+00  0.00000000000E+00  0.25620332828E+03  0.25620332828E+03  0.00000000000E+00 0.  1.
         13   -1    0    0    0    0 -0.00000000000E+00 -0.00000000000E+00 -0.27500000000E+03  0.27500000000E+03  0.00000000000E+00 0.  1.
    9000005    2    1    2  501    0 -0.45330890766E+02 -0.34102786505E+01  0.71004517275E+01  0.47888525625E+03  0.47666985701E+03 0.  0.
         13    1    3    3    0    0  0.11576296931E+03 -0.10525768359E+03 -0.16118373454E+03  0.22463401634E+03  0.00000000000E+00 0.  1.
          3    1    3    3  501    0 -0.16109386007E+03  0.10184740494E+03  0.16828418627E+03  0.25425123991E+03  0.00000000000E+00 0.  1.
         21    1    1    2  502  501  0.45330890766E+02  0.34102786505E+01 -0.25897123446E+02  0.52318072029E+02  0.00000000000E+00 0. -1.
<scales pt_clust_4="550.00000" pt_clust_5="550.00000" pt_clust_6="45.45901"></scales>
<mgrwt>
<rscale>  0 0.30000000E+03</rscale>
<asrwt>  1 0.45459011E+02</asrwt>
<pdfrwt beam="1">  1        1 0.93164847E+00 0.30000000E+03</pdfrwt>
<pdfrwt beam="2">0</pdfrwt>
<totfact> 0.23691025E-05</totfact>
</mgrwt>
<clustering>
<clus scale="   45.459">  1  6  2 -1</clus>
<clus scale="  476.670">  4  5 -1 -1</clus>
<clus scale="  300.000">  1  4  2 -1</clus>
</clustering>
</event>
<event>
 6    1  0.9131597E-012  0.3000000E+03  0.7818608E-02  0.1093470E+00
          1   -1    0    0  502    0  0.00000000000E+00  0.00000000000E+00  0.23254756450E+03  0.23254756450E+03  0.00000000000E+00 0.  1.
         13   -1    0    0    0    0 -0.00000000000E+00 -0.00000000000E+00 -0.27500000000E+03  0.27500000000E+03  0.00000000000E+00 0.  1.
    9000005    2    1    2  501    0 -0.32224559121E+02 -0.10534343906E+01 -0.52246323853E+02  0.47385109312E+03  0.46985705077E+03 0.  0.
         13    1    3    3    0    0 -0.20893174924E+03  0.15988232967E+02 -0.16224093714E+03  0.26500985098E+03  0.00000000000E+00 0.  1.
          3    1    3    3  501    0  0.17670719012E+03 -0.17041667357E+02  0.10999461329E+03  0.20884124214E+03  0.00000000000E+00 0.  1.
         21    1    1    2  502  501  0.32224559121E+02  0.10534343906E+01  0.97938883572E+01  0.33696471384E+02  0.00000000000E+00 0.  1.
<scales pt_clust_4="550.00000" pt_clust_5="550.00000" pt_clust_6="32.24177"></scales>
<mgrwt>
<rscale>  0 0.30000000E+03</rscale>
<asrwt>  1 0.32241773E+02</asrwt>
<pdfrwt beam="1">  1        1 0.84562751E+00 0.30000000E+03</pdfrwt>
<pdfrwt beam="2">0</pdfrwt>
<totfact> 0.45308091E-04</totfact>
</mgrwt>
<clustering>
<clus scale="   32.242">  1  6  2 -1</clus>
<clus scale="  469.857">  4  5 -1 -1</clus>
<clus scale="  300.000">  1  4  2 -1</clus>
</clustering>
</event>
<event>
 6    1  0.9131597E-012  0.3000000E+03  0.7818608E-02  0.1093470E+00
          1   -1    0    0  502    0  0.00000000000E+00  0.00000000000E+00  0.24214900034E+03  0.24214900034E+03  0.00000000000E+00 0.  1.
         13   -1    0    0    0    0 -0.00000000000E+00 -0.00000000000E+00 -0.27500000000E+03  0.27500000000E+03  0.00000000000E+00 0.  1.
    9000005    2    1    2  501    0 -0.45129424613E+02  0.16595839366E+02 -0.44248608339E+02  0.46773248151E+03  0.46314538545E+03 0.  0.
         13    1    3    3    0    0  0.15061155384E+03 -0.36951406451E+02 -0.16912030707E+03  0.22945789342E+03  0.00000000000E+00 0.  1.
          3    1    3    3  501    0 -0.19574097846E+03  0.53547245817E+02  0.12487169873E+03  0.23827458808E+03  0.00000000000E+00 0.  1.
         21    1    1    2  502  501  0.45129424613E+02 -0.16595839366E+02  0.11397608681E+02  0.49416518835E+02  0.00000000000E+00 0.  1.
<scales pt_clust_4="550.00000" pt_clust_5="550.00000" pt_clust_6="48.08416"></scales>
<mgrwt>
<rscale>  0 0.30000000E+03</rscale>
<asrwt>  1 0.48084164E+02</asrwt>
<pdfrwt beam="1">  1        1 0.88054182E+00 0.30000000E+03</pdfrwt>
<pdfrwt beam="2">0</pdfrwt>
<totfact> 0.18344276E-04</totfact>
</mgrwt>
<clustering>
<clus scale="   48.084">  1  6  2 -1</clus>
<clus scale="  463.145">  4  5 -1 -1</clus>
<clus scale="  300.000">  1  4  2 -1</clus>
</clustering>
</event>
<event>
 6    1  0.9131597E-012  0.3000000E+03  0.7818608E-02  0.1093470E+00
          1   -1    0    0  502    0  0.00000000000E+00  0.00000000000E+00  0.23550517471E+03  0.23550517471E+03  0.00000000000E+00 0.  1.
         13   -1    0    0    0    0 -0.00000000000E+00 -0.00000000000E+00 -0.27500000000E+03  0.27500000000E+03  0.00000000000E+00 0.  1.
    9000005    2    1    2  501    0 -0.36191586748E+02  0.22997687643E+01 -0.42412414930E+02  0.47412341806E+03  0.47082808192E+03 0.  0.
         13    1    3    3    0    0 -0.17362433212E+03  0.16696802778E+03 -0.85026340871E+02  0.25544707798E+03  0.00000000000E+00 0.  1.
          1    1    3    3  501    0  0.13743274537E+03 -0.16466825901E+03  0.42613925940E+02  0.21867634008E+03  0.00000000000E+00 0.  1.
         21    1    1    2  502  501  0.36191586748E+02 -0.22997687643E+01  0.29175896388E+01  0.36381756651E+02  0.00000000000E+00 0.  1.
<scales pt_clust_4="550.00000" pt_clust_5="550.00000" pt_clust_6="36.26458"></scales>
<mgrwt>
<rscale>  0 0.30000000E+03</rscale>
<asrwt>  1 0.36264582E+02</asrwt>
<pdfrwt beam="1">  1        1 0.85638245E+00 0.30000000E+03</pdfrwt>
<pdfrwt beam="2">0</pdfrwt>
<totfact> 0.35054111E-04</totfact>
</mgrwt>
<clustering>
<clus scale="   36.265">  1  6  2 -1</clus>
<clus scale="  470.828">  4  5 -1 -1</clus>
<clus scale="  300.000">  1  4  2 -1</clus>
</clustering>
</event>
<event>
 6    1  0.9131597E-012  0.3000000E+03  0.7818608E-02  0.1093470E+00
          1   -1    0    0  502    0  0.00000000000E+00  0.00000000000E+00  0.24706639299E+03  0.24706639299E+03  0.00000000000E+00 0.  1.
         13   -1    0    0    0    0 -0.00000000000E+00 -0.00000000000E+00 -0.27500000000E+03  0.27500000000E+03  0.00000000000E+00 0.  1.
    9000005    2    1    2  501    0 -0.29081120300E+02 -0.19073431130E+02 -0.50463113680E+02  0.48062865652E+03  0.47670522579E+03 0.  0.
         13    1    3    3    0    0  0.11547435371E+03  0.57098435890E+02  0.16555815552E+03  0.20977144850E+03  0.00000000000E+00 0.  1.
          1    1    3    3  501    0 -0.14455547401E+03 -0.76171867020E+02 -0.21602126920E+03  0.27085720802E+03  0.00000000000E+00 0.  1.
         21    1    1    2  502  501  0.29081120300E+02  0.19073431130E+02  0.22529506668E+02  0.41437736469E+02  0.00000000000E+00 0.  1.
<scales pt_clust_4="550.00000" pt_clust_5="550.00000" pt_clust_6="34.77797"></scales>
<mgrwt>
<rscale>  0 0.30000000E+03</rscale>
<asrwt>  1 0.34777972E+02</asrwt>
<pdfrwt beam="1">  1        1 0.89842325E+00 0.30000000E+03</pdfrwt>
<pdfrwt beam="2">0</pdfrwt>
<totfact> 0.11551909E-04</totfact>
</mgrwt>
<clustering>
<clus scale="   34.778">  1  6  2 -1</clus>
<clus scale="  476.705">  4  5 -1 -1</clus>
<clus scale="  300.000">  1  4  2 -1</clus>
</clustering>
</event>
<event>
 6    1  0.9131597E-012  0.3000000E+03  0.7818608E-02  0.1093470E+00
          1   -1    0    0  502    0  0.00000000000E+00  0.00000000000E+00  0.23100115892E+03  0.23100115892E+03  0.00000000000E+00 0.  1.
         13   -1    0    0    0    0 -0.00000000000E+00 -0.00000000000E+00 -0.27500000000E+03  0.27500000000E+03  0.00000000000E+00 0.  1.
    9000005    2    1    2  501    0 -0.36273060340E+02  0.96577902817E+01 -0.28864029714E+02  0.46552807731E+03  0.46311364775E+03 0.  0.
         13    1    3    3    0    0 -0.15762527919E+03  0.36082234974E+02  0.16773474863E+03  0.23298627044E+03  0.00000000000E+00 0.  1.
          1    1    3    3  501    0  0.12135221884E+03 -0.26424444692E+02 -0.19659877834E+03  0.23254180687E+03  0.00000000000E+00 0.  1.
         21    1    1    2  502  501  0.36273060340E+02 -0.96577902817E+01 -0.15134811368E+02  0.40473081607E+02  0.00000000000E+00 0.  1.
<scales pt_clust_4="550.00000" pt_clust_5="550.00000" pt_clust_6="37.53677"></scales>
<mgrwt>
<rscale>  0 0.30000000E+03</rscale>
<asrwt>  1 0.37536772E+02</asrwt>
<pdfrwt beam="1">  1        1 0.84000421E+00 0.30000000E+03</pdfrwt>
<pdfrwt beam="2">0</pdfrwt>
<totfact> 0.49058340E-04</totfact>
</mgrwt>
<clustering>
<clus scale="   37.537">  1  6  2 -1</clus>
<clus scale="  463.114">  4  5 -1 -1</clus>
<clus scale="  300.000">  1  4  2 -1</clus>
</clustering>
</event>
<event>
 6    1  0.9131597E-012  0.3000000E+03  0.7818608E-02  0.1093470E+00
          1   -1    0    0  502    0  0.00000000000E+00  0.00000000000E+00  0.23681513594E+03  0.23681513594E+03  0.00000000000E+00 0.  1.
         13   -1    0    0    0    0 -0.00000000000E+00 -0.00000000000E+00 -0.27500000000E+03  0.27500000000E+03  0.00000000000E+00 0.  1.
    9000005    2    1    2  501    0 -0.27196163855E+02 -0.34773913461E+02 -0.45362324800E+02  0.46708961382E+03  0.46278084494E+03 0.  0.
         13    1    3    3    0    0  0.14866177207E+03 -0.15119818072E+03  0.74205069954E+02  0.22464996046E+03  0.00000000000E+00 0.  1.
          3    1    3    3  501    0 -0.17585793593E+03  0.11642426726E+03 -0.11956739475E+03  0.24243965336E+03  0.00000000000E+00 0.  1.
         21    1    1    2  502  501  0.27196163855E+02  0.34773913461E+02  0.71774607377E+01  0.44725522115E+02  0.00000000000E+00 0.  1.
<scales pt_clust_4="550.00000" pt_clust_5="550.00000" pt_clust_6="44.14585"></scales>
<mgrwt>
<rscale>  0 0.30000000E+03</rscale>
<asrwt>  1 0.44145854E+02</asrwt>
<pdfrwt beam="1">  1        1 0.86114595E+00 0.30000000E+03</pdfrwt>
<pdfrwt beam="2">0</pdfrwt>
<totfact> 0.30135941E-04</totfact>
</mgrwt>
<clustering>
<clus scale="   44.146">  1  6  2 -1</clus>
<clus scale="  462.781">  4  5 -1 -1</clus>
<clus scale="  300.000">  1  4  2 -1</clus>
</clustering>
</event>
<event>
 6    1  0.9131597E-012  0.3000000E+03  0.7818608E-02  0.1093470E+00
          1   -1    0    0  502    0  0.00000000000E+00  0.00000000000E+00  0.23583630464E+03  0.23583630464E+03  0.00000000000E+00 0.  1.
         13   -1    0    0    0    0 -0.00000000000E+00 -0.00000000000E+00 -0.27500000000E+03  0.27500000000E+03  0.00000000000E+00 0.  1.
    9000005    2    1    2  501    0  0.31865065622E+02  0.10881844189E+02 -0.64278207335E+02  0.46882992832E+03  0.46318032861E+03 0.  0.
         13    1    3    3    0    0 -0.12529116228E+03  0.18475606302E+03  0.85714775856E+01  0.22339684062E+03  0.00000000000E+00 0.  1.
          1    1    3    3  501    0  0.15715622790E+03 -0.17387421884E+03 -0.72849684921E+02  0.24543308770E+03  0.00000000000E+00 0.  1.
         21    1    1    2  502  501 -0.31865065622E+02 -0.10881844189E+02  0.25114511978E+02  0.42006376325E+02  0.00000000000E+00 0.  1.
<scales pt_clust_4="550.00000" pt_clust_5="550.00000" pt_clust_6="33.67190"></scales>
<mgrwt>
<rscale>  0 0.30000000E+03</rscale>
<asrwt>  1 0.33671901E+02</asrwt>
<pdfrwt beam="1">  1        1 0.85758656E+00 0.30000000E+03</pdfrwt>
<pdfrwt beam="2">0</pdfrwt>
<totfact> 0.34545735E-04</totfact>
</mgrwt>
<clustering>
<clus scale="   33.672">  1  6  2 -1</clus>
<clus scale="  463.180">  4  5 -1 -1</clus>
<clus scale="  300.000">  1  4  2 -1</clus>
</clustering>
</event>
<event>
 6    1  0.9131597E-012  0.3000000E+03  0.7818608E-02  0.1093470E+00
          1   -1    0    0  502    0  0.00000000000E+00  0.00000000000E+00  0.23062823087E+03  0.23062823087E+03  0.00000000000E+00 0.  1.
         13   -1    0    0    0    0 -0.00000000000E+00 -0.00000000000E+00 -0.27500000000E+03  0.27500000000E+03  0.00000000000E+00 0.  1.
    9000005    2    1    2  501    0  0.37645414358E+01 -0.35253465553E+02 -0.52732078563E+02  0.46920195767E+03  0.46487936754E+03 0.  0.
         13    1    3    3    0    0  0.30610833312E+02  0.17439031757E+03  0.10466392936E+03  0.20567825380E+03  0.00000000000E+00 0.  1.
          3    1    3    3  501    0 -0.26846291876E+02 -0.20964378312E+03 -0.15739600792E+03  0.26352370387E+03  0.00000000000E+00 0.  1.
         21    1    1    2  502  501 -0.37645414358E+01  0.35253465553E+02  0.83603094370E+01  0.36426273205E+02  0.00000000000E+00 0.  1.
<scales pt_clust_4="550.00000" pt_clust_5="550.00000" pt_clust_6="35.45389"></scales>
<mgrwt>
<rscale>  0 0.30000000E+03</rscale>
<asrwt>  1 0.35453894E+02</asrwt>
<pdfrwt beam="1">  1        1 0.83864811E+00 0.30000000E+03</pdfrwt>
<pdfrwt beam="2">0</pdfrwt>
<totfact> 0.50761573E-04</totfact>
</mgrwt>
<clustering>
<clus scale="   35.454">  1  6  2 -1</clus>
<clus scale="  464.879">  4  5 -1 -1</clus>
<clus scale="  300.000">  1  4  2 -1</clus>
</clustering>
</event>
<event>
 6    1  0.9131597E-012  0.3000000E+03  0.7818608E-02  0.1093470E+00
          1   -1    0    0  502    0  0.00000000000E+00  0.00000000000E+00  0.25065044827E+03  0.25065044827E+03  0.00000000000E+00 0.  1.
         13   -1    0    0    0    0 -0.00000000000E+00 -0.00000000000E+00 -0.27500000000E+03  0.27500000000E+03  0.00000000000E+00 0.  1.
    9000005    2    1    2  501    0 -0.31632940233E+02  0.38271426500E+02 -0.41028434467E+02  0.47327173004E+03  0.46886826830E+03 0.  0.
         13    1    3    3    0    0 -0.52077249594E+02  0.14628297263E+03  0.17312138939E+03  0.23255486121E+03  0.00000000000E+00 0.  1.
          3    1    3    3  501    0  0.20444309361E+02 -0.10801154613E+03 -0.21414982386E+03  0.24071686883E+03  0.00000000000E+00 0.  1.
         21    1    1    2  502  501  0.31632940233E+02 -0.38271426500E+02  0.16678882734E+02  0.52378718230E+02  0.00000000000E+00 0. -1.
<scales pt_clust_4="550.00000" pt_clust_5="550.00000" pt_clust_6="49.65224"></scales>
<mgrwt>
<rscale>  0 0.30000000E+03</rscale>
<asrwt>  1 0.49652241E+02</asrwt>
<pdfrwt beam="1">  1        1 0.91145618E+00 0.30000000E+03</pdfrwt>
<pdfrwt beam="2">0</pdfrwt>
<totfact> 0.62087650E-05</totfact>
</mgrwt>
<clustering>
<clus scale="   49.652">  1  6  2 -1</clus>
<clus scale="  468.868">  4  5 -1 -1</clus>
<clus scale="  300.000">  1  4  2 -1</clus>
</clustering>
</event>
<event>
 6    1  0.9131597E-012  0.3000000E+03  0.7818608E-02  0.1093470E+00
          1   -1    0    0  502    0  0.00000000000E+00  0.00000000000E+00  0.22815775667E+03  0.22815775667E+03  0.00000000000E+00 0.  1.
         13   -1    0    0    0    0 -0.00000000000E+00 -0.00000000000E+00 -0.27500000000E+03  0.27500000000E+03  0.00000000000E+00 0.  1.
    9000005    2    1    2  501    0  0.18573660465E+02 -0.30705356531E+02 -0.59790052547E+02  0.46500745462E+03  0.45974915191E+03 0.  0.
         13    1    3    3    0    0  0.89646462286E+02 -0.12713022851E+03 -0.21722616678E+03  0.26718119458E+03  0.00000000000E+00 0.  1.
          3    1    3    3  501    0 -0.71072801821E+02  0.96424871982E+02  0.15743611424E+03  0.19782626004E+03  0.00000000000E+00 0.  1.
         21    1    1    2  502  501 -0.18573660465E+02  0.30705356531E+02  0.12947809214E+02  0.38150302046E+02  0.00000000000E+00 0. -1.
<scales pt_clust_4="550.00000" pt_clust_5="550.00000" pt_clust_6="35.88593"></scales>
<mgrwt>
<rscale>  0 0.30000000E+03</rscale>
<asrwt>  1 0.35885927E+02</asrwt>
<pdfrwt beam="1">  1        1 0.82966457E+00 0.30000000E+03</pdfrwt>
<pdfrwt beam="2">0</pdfrwt>
<totfact> 0.59204389E-04</totfact>
</mgrwt>
<clustering>
<clus scale="   35.886">  1  6  2 -1</clus>
<clus scale="  459.749">  4  5 -1 -1</clus>
<clus scale="  300.000">  1  4  2 -1</clus>
</clustering>
</event>
<event>
 6    1  0.9131597E-012  0.3000000E+03  0.7818608E-02  0.1093470E+00
          1   -1    0    0  502    0  0.00000000000E+00  0.00000000000E+00  0.23778974066E+03  0.23778974066E+03  0.00000000000E+00 0.  1.
         13   -1    0    0    0    0 -0.00000000000E+00 -0.00000000000E+00 -0.27500000000E+03  0.27500000000E+03  0.00000000000E+00 0.  1.
    9000005    2    1    2  501    0  0.27934103417E+01 -0.33600409893E+02 -0.70392184165E+02  0.46548402408E+03  0.45889380732E+03 0.  0.
         13    1    3    3    0    0  0.24094786320E+02 -0.17617275074E+02 -0.26620268745E+03  0.26787086052E+03  0.00000000000E+00 0.  1.
          1    1    3    3  501    0 -0.21301375979E+02 -0.15983134819E+02  0.19581050328E+03  0.19761316356E+03  0.00000000000E+00 0.  1.
         21    1    1    2  502  501 -0.27934103417E+01  0.33600409893E+02  0.33181924827E+02  0.47305716584E+02  0.00000000000E+00 0.  1.
<scales pt_clust_4="550.00000" pt_clust_5="550.00000" pt_clust_6="33.71633"></scales>
<mgrwt>
<rscale>  0 0.30000000E+03</rscale>
<asrwt>  1 0.33716327E+02</asrwt>
<pdfrwt beam="1">  1        1 0.86468997E+00 0.30000000E+03</pdfrwt>
<pdfrwt beam="2">0</pdfrwt>
<totfact> 0.28993281E-04</totfact>
</mgrwt>
<clustering>
<clus scale="   33.716">  1  6  2 -1</clus>
<clus scale="  458.894">  4  5 -1 -1</clus>
<clus scale="  300.000">  1  4  2 -1</clus>
</clustering>
</event>
<event>
 6    1  0.9131597E-012  0.3000000E+03  0.7818608E-02  0.1093470E+00
          1   -1    0    0  502    0  0.00000000000E+00  0.00000000000E+00  0.23362752805E+03  0.23362752805E+03  0.00000000000E+00 0.  1.
         13   -1    0    0    0    0 -0.00000000000E+00 -0.00000000000E+00 -0.27500000000E+03  0.27500000000E+03  0.00000000000E+00 0.  1.
    9000005    2    1    2  501    0  0.30360952748E+02 -0.23090680882E+02 -0.53766243668E+02  0.46852051404E+03  0.46385956509E+03 0.  0.
         13    1    3    3    0    0 -0.39411523653E+01  0.66217159064E+02 -0.24546785930E+03  0.25427291399E+03  0.00000000000E+00 0.  1.
          3    1    3    3  501    0  0.34302105113E+02 -0.89307839946E+02  0.19170161564E+03  0.21424760005E+03  0.00000000000E+00 0.  1.
         21    1    1    2  502  501 -0.30360952748E+02  0.23090680882E+02  0.12393771716E+02  0.40107014009E+02  0.00000000000E+00 0.  1.
<scales pt_clust_4="550.00000" pt_clust_5="550.00000" pt_clust_6="38.14403"></scales>
<mgrwt>
<rscale>  0 0.30000000E+03</rscale>
<asrwt>  1 0.38144030E+02</asrwt>
<pdfrwt beam="1">  1        1 0.84955465E+00 0.30000000E+03</pdfrwt>
<pdfrwt beam="2">0</pdfrwt>
<totfact> 0.40440344E-04</totfact>
</mgrwt>
<clustering>
<clus scale="   38.144">  1  6  2 -1</clus>
<clus scale="  463.860">  4  5 -1 -1</clus>
<clus scale="  300.000">  1  4  2 -1</clus>
</clustering>
</event>
<event>
 6    1  0.9131597E-012  0.3000000E+03  0.7818608E-02  0.1093470E+00
          1   -1    0    0  502    0  0.00000000000E+00  0.00000000000E+00  0.22164590133E+03  0.22164590133E+03  0.00000000000E+00 0.  1.
         13   -1    0    0    0    0 -0.00000000000E+00 -0.00000000000E+00 -0.27500000000E+03  0.27500000000E+03  0.00000000000E+00 0.  1.
    9000005    2    1    2  501    0 -0.29480219668E+02  0.79170586736E+01 -0.45443277253E+02  0.46511267655E+03  0.46187979743E+03 0.  0.
         13    1    3    3    0    0  0.86513483613E+02 -0.78824202940E+02 -0.21336423127E+03  0.24335598000E+03  0.00000000000E+00 0.  1.
          3    1    3    3  501    0 -0.11599370328E+03  0.86741261613E+02  0.16792095402E+03  0.22175669655E+03  0.00000000000E+00 0.  1.
         21    1    1    2  502  501  0.29480219668E+02 -0.79170586736E+01 -0.79108214131E+01  0.31533224782E+02  0.00000000000E+00 0.  1.
<scales pt_clust_4="550.00000" pt_clust_5="550.00000" pt_clust_6="30.52481"></scales>
<mgrwt>
<rscale>  0 0.30000000E+03</rscale>
<asrwt>  1 0.30524811E+02</asrwt>
<pdfrwt beam="1">  1        1 0.80598510E+00 0.30000000E+03</pdfrwt>
<pdfrwt beam="2">0</pdfrwt>
<totfact> 0.96121652E-04</totfact>
</mgrwt>
<clustering>
<clus scale="   30.525">  1  6  2 -1</clus>
<clus scale="  461.880">  4  5 -1 -1</clus>
<clus scale="  300.000">  1  4  2 -1</clus>
</clustering>
</event>
<event>
 6    1  0.9131597E-012  0.3000000E+03  0.7818608E-02  0.1093470E+00
          1   -1    0    0  502    0  0.00000000000E+00  0.00000000000E+00  0.22697719208E+03  0.22697719208E+03  0.00000000000E+00 0.  1.
         13   -1    0    0    0    0 -0.00000000000E+00 -0.00000000000E+00 -0.27500000000E+03  0.27500000000E+03  0.00000000000E+00 0.  1.
    9000005    2    1    2  501    0 -0.13826699478E+02 -0.28368048161E+02 -0.56606743756E+02  0.46927233419E+03  0.46477551186E+03 0.  0.
         13    1    3    3    0    0 -0.17199650856E+03  0.49575252109E+02 -0.18015831998E+03  0.25396362896E+03  0.00000000000E+00 0.  1.
          3    1    3    3  501    0  0.15816980908E+03 -0.77943300271E+02  0.12355157622E+03  0.21530870523E+03  0.00000000000E+00 0.  1.
         21    1    1    2  502  501  0.13826699478E+02  0.28368048161E+02  0.85839358327E+01  0.32704857886E+02  0.00000000000E+00 0.  1.
<scales pt_clust_4="550.00000" pt_clust_5="550.00000" pt_clust_6="31.55826"></scales>
<mgrwt>
<rscale>  0 0.30000000E+03</rscale>
<asrwt>  1 0.31558260E+02</asrwt>
<pdfrwt beam="1">  1        1 0.82537161E+00 0.30000000E+03</pdfrwt>
<pdfrwt beam="2">0</pdfrwt>
<totfact> 0.66100116E-04</totfact>
</mgrwt>
<clustering>
<clus scale="   31.558">  1  6  2 -1</clus>
<clus scale="  464.776">  4  5 -1 -1</clus>
<clus scale="  300.000">  1  4  2 -1</clus>
</clustering>
</event>
<event>
 6    1  0.9131597E-012  0.3000000E+03  0.7818608E-02  0.1093470E+00
          1   -1    0    0  502    0  0.00000000000E+00  0.00000000000E+00  0.23986151342E+03  0.23986151342E+03  0.00000000000E+00 0.  1.
         13   -1    0    0    0    0 -0.00000000000E+00 -0.00000000000E+00 -0.27500000000E+03  0.27500000000E+03  0.00000000000E+00 0.  1.
    9000005    2    1    2  501    0 -0.56277055891E+01 -0.33442523184E+02 -0.45741216413E+02  0.47932995974E+03  0.47593579188E+03 0.  0.
         13    1    3    3    0    0 -0.65216283966E+02 -0.16607641409E+03 -0.19954086708E+03  0.26767722474E+03  0.00000000000E+00 0.  1.
          1    1    3    3  501    0  0.59588578376E+02  0.13263389090E+03  0.15379965066E+03  0.21165273500E+03  0.00000000000E+00 0.  1.
         21    1    1    2  502  501  0.56277055891E+01  0.33442523184E+02  0.10602729831E+02  0.35531553681E+02  0.00000000000E+00 0.  1.
<scales pt_clust_4="550.00000" pt_clust_5="550.00000" pt_clust_6="33.91273"></scales>
<mgrwt>
<rscale>  0 0.30000000E+03</rscale>
<asrwt>  1 0.33912733E+02</asrwt>
<pdfrwt beam="1">  1        1 0.87222369E+00 0.30000000E+03</pdfrwt>
<pdfrwt beam="2">0</pdfrwt>
<totfact> 0.24177509E-04</totfact>
</mgrwt>
<clustering>
<clus scale="   33.913">  1  6  2 -1</clus>
<clus scale="  475.936">  4  5 -1 -1</clus>
<clus scale="  300.000">  1  4  2 -1</clus>
</clustering>
</event>
<event>
 6    1  0.9131597E-012  0.3000000E+03  0.7818608E-02  0.1093470E+00
          1   -1    0    0  502    0  0.00000000000E+00  0.00000000000E+00  0.23265338390E+03  0.23265338390E+03  0.00000000000E+00 0.  1.
         13   -1    0    0    0    0 -0.00000000000E+00 -0.00000000000E+00 -0.27500000000E+03  0.27500000000E+03  0.00000000000E+00 0.  1.
    9000005    2    1    2  501    0 -0.79052012015E+01 -0.29216412104E+02 -0.44520595979E+02  0.47730841511E+03  0.47426274229E+03 0.  0.
         13    1    3    3    0    0 -0.68165242995E+02 -0.41909900371E+02  0.20512472622E+03  0.22017968436E+03  0.00000000000E+00 0.  1.
          3    1    3    3  501    0  0.60260041793E+02  0.12693488267E+02 -0.24964532219E+03  0.25712873075E+03  0.00000000000E+00 0.  1.
         21    1    1    2  502  501  0.79052012015E+01  0.29216412104E+02  0.21739798761E+01  0.30344968788E+02  0.00000000000E+00 0.  1.
<scales pt_clust_4="550.00000" pt_clust_5="550.00000" pt_clust_6="30.26699"></scales>
<mgrwt>
<rscale>  0 0.30000000E+03</rscale>
<asrwt>  1 0.30266994E+02</asrwt>
<pdfrwt beam="1">  1        1 0.84601231E+00 0.30000000E+03</pdfrwt>
<pdfrwt beam="2">0</pdfrwt>
<totfact> 0.45500254E-04</totfact>
</mgrwt>
<clustering>
<clus scale="   30.267">  1  6  2 -1</clus>
<clus scale="  474.263">  4  5 -1 -1</clus>
<clus scale="  300.000">  1  4  2 -1</clus>
</clustering>
</event>
<event>
 6    1  0.9131597E-012  0.3000000E+03  0.7818608E-02  0.1093470E+00
          1   -1    0    0  502    0  0.00000000000E+00  0.00000000000E+00  0.24687988805E+03  0.24687988805E+03  0.00000000000E+00 0.  1.
         13   -1    0    0    0    0 -0.00000000000E+00 -0.00000000000E+00 -0.27500000000E+03  0.27500000000E+03  0.00000000000E+00 0.  1.
    9000005    2    1    2  501    0  0.20422143793E+02  0.25009594485E+02 -0.23514750573E+02  0.48926465960E+03  0.48763143856E+03 0.  0.
         13    1    3    3    0    0 -0.11618213908E+03  0.13372228894E+03 -0.18163887223E+03  0.25371759873E+03  0.00000000000E+00 0.  1.
          3    1    3    3  501    0  0.13660428288E+03 -0.10871269445E+03  0.15812412166E+03  0.23554706087E+03  0.00000000000E+00 0.  1.
         21    1    1    2  502  501 -0.20422143793E+02 -0.25009594485E+02 -0.46053613735E+01  0.32615228449E+02  0.00000000000E+00 0. -1.
<scales pt_clust_4="550.00000" pt_clust_5="550.00000" pt_clust_6="32.28846"></scales>
<mgrwt>
<rscale>  0 0.30000000E+03</rscale>
<asrwt>  1 0.32288463E+02</asrwt>
<pdfrwt beam="1">  1        1 0.89774505E+00 0.30000000E+03</pdfrwt>
<pdfrwt beam="2">0</pdfrwt>
<totfact> 0.11927159E-04</totfact>
</mgrwt>
<clustering>
<clus scale="   32.288">  1  6  2 -1</clus>
<clus scale="  487.631">  4  5 -1 -1</clus>
<clus scale="  300.000">  1  4  2 -1</clus>
</clustering>
</event>
<event>
 6    1  0.9131597E-012  0.3000000E+03  0.7818608E-02  0.1093470E+00
          1   -1    0    0  502    0  0.00000000000E+00  0.00000000000E+00  0.23613786903E+03  0.23613786903E+03  0.00000000000E+00 0.  1.
         13   -1    0    0    0    0 -0.00000000000E+00 -0.00000000000E+00 -0.27500000000E+03  0.27500000000E+03  0.00000000000E+00 0.  1.
    9000005    2    1    2  501    0 -0.30905306689E+02 -0.23704294885E+02 -0.56693544070E+02  0.46830107561E+03  0.46322209349E+03 0.  0.
         13    1    3    3    0    0 -0.25596452934E+02  0.18691411260E+03  0.92524798016E+02  0.21012591973E+03  0.00000000000E+00 0.  1.
          3    1    3    3  501    0 -0.53088537552E+01 -0.21061840749E+03 -0.14921834209E+03  0.25817515588E+03  0.00000000000E+00 0.  1.
         21    1    1    2  502  501  0.30905306689E+02  0.23704294885E+02  0.17831413104E+02  0.42836793424E+02  0.00000000000E+00 0.  1.
<scales pt_clust_4="550.00000" pt_clust_5="550.00000" pt_clust_6="38.94909"></scales>
<mgrwt>
<rscale>  0 0.30000000E+03</rscale>
<asrwt>  1 0.38949090E+02</asrwt>
<pdfrwt beam="1">  1        1 0.85868316E+00 0.30000000E+03</pdfrwt>
<pdfrwt beam="2">0</pdfrwt>
<totfact> 0.32747877E-04</totfact>
</mgrwt>
<clustering>
<clus scale="   38.949">  1  6  2 -1</clus>
<clus scale="  463.222">  4  5 -1 -1</clus>
<clus scale="  300.000">  1  4  2 -1</clus>
</clustering>
</event>
<event>
 6    1  0.9131597E-012  0.3000000E+03  0.7818608E-02  0.1093470E+00
          1   -1    0    0  502    0  0.00000000000E+00  0.00000000000E+00  0.21905757313E+03  0.21905757313E+03  0.00000000000E+00 0.  1.
         13   -1    0    0    0    0 -0.00000000000E+00 -0.00000000000E+00 -0.27500000000E+03  0.27500000000E+03  0.00000000000E+00 0.  1.
    9000005    2    1    2  501    0  0.25728657665E+02  0.16213419568E+02 -0.64497032456E+02  0.46246611738E+03  0.45693566695E+03 0.  0.
         13    1    3    3    0    0 -0.16107471432E+03  0.11760108930E+03 -0.13234700139E+03  0.23935498444E+03  0.00000000000E+00 0.  1.
          3    1    3    3  501    0  0.18680337198E+03 -0.10138766974E+03  0.67849968936E+02  0.22311113294E+03  0.00000000000E+00 0.  1.
         21    1    1    2  502  501 -0.25728657665E+02 -0.16213419568E+02  0.85546055818E+01  0.31591455744E+02  0.00000000000E+00 0.  1.
<scales pt_clust_4="550.00000" pt_clust_5="550.00000" pt_clust_6="30.41116"></scales>
<mgrwt>
<rscale>  0 0.30000000E+03</rscale>
<asrwt>  1 0.30411162E+02</asrwt>
<pdfrwt beam="1">  1        1 0.79657299E+00 0.30000000E+03</pdfrwt>
<pdfrwt beam="2">0</pdfrwt>
<totfact> 0.11278841E-03</totfact>
</mgrwt>
<clustering>
<clus scale="   30.411">  1  6  2 -1</clus>
<clus scale="  456.936">  4  5 -1 -1</clus>
<clus scale="  300.000">  1  4  2 -1</clus>
</clustering>
</event>
<event>
 6    1  0.9131597E-012  0.3000000E+03  0.7818608E-02  0.1093470E+00
          1   -1    0    0  502    0  0.00000000000E+00  0.00000000000E+00  0.22904087032E+03  0.22904087032E+03  0.00000000000E+00 0.  1.
         13   -1    0    0    0    0 -0.00000000000E+00 -0.00000000000E+00 -0.27500000000E+03  0.27500000000E+03  0.00000000000E+00 0.  1.
    9000005    2    1    2  501    0 -0.29161694668E+02 -0.15107101247E+02 -0.55175585432E+02  0.46992969912E+03  0.46552223142E+03 0.  0.
         13    1    3    3    0    0  0.47931937948E+02  0.71841133063E+02 -0.23806479428E+03  0.25324585950E+03  0.00000000000E+00 0.  1.
          3    1    3    3  501    0 -0.77093632616E+02 -0.86948234310E+02  0.18288920885E+03  0.21668383962E+03  0.00000000000E+00 0.  1.
         21    1    1    2  502  501  0.29161694668E+02  0.15107101247E+02  0.92164557522E+01  0.34111171200E+02  0.00000000000E+00 0.  1.
<scales pt_clust_4="550.00000" pt_clust_5="550.00000" pt_clust_6="32.84249"></scales>
<mgrwt>
<rscale>  0 0.30000000E+03</rscale>
<asrwt>  1 0.32842487E+02</asrwt>
<pdfrwt beam="1">  1        1 0.83287589E+00 0.30000000E+03</pdfrwt>
<pdfrwt beam="2">0</pdfrwt>
<totfact> 0.56772063E-04</totfact>
</mgrwt>
<clustering>
<clus scale="   32.842">  1  6  2 -1</clus>
<clus scale="  465.522">  4  5 -1 -1</clus>
<clus scale="  300.000">  1  4  2 -1</clus>
</clustering>
</event>
<event>
 6    1  0.9131597E-012  0.3000000E+03  0.7818608E-02  0.1093470E+00
          1   -1    0    0  502    0  0.00000000000E+00  0.00000000000E+00  0.23878466081E+03  0.23878466081E+03  0.00000000000E+00 0.  1.
         13   -1    0    0    0    0 -0.00000000000E+00 -0.00000000000E+00 -0.27500000000E+03  0.27500000000E+03  0.00000000000E+00 0.  1.
    9000005    2    1    2  501    0  0.28618410394E+02 -0.28592610265E+02 -0.26738940758E+02  0.47223525765E+03  0.46973888155E+03 0.  0.
         13    1    3    3    0    0 -0.34336938191E+02 -0.24271052005E+03 -0.41288483619E+02  0.24858029034E+03  0.00000000000E+00 0.  1.
          1    1    3    3  501    0  0.62955348585E+02  0.21411790978E+03  0.14549542861E+02  0.22365496731E+03  0.00000000000E+00 0.  1.
         21    1    1    2  502  501 -0.28618410394E+02  0.28592610265E+02 -0.94763984362E+01  0.41549403156E+02  0.00000000000E+00 0.  1.
<scales pt_clust_4="550.00000" pt_clust_5="550.00000" pt_clust_6="40.45433"></scales>
<mgrwt>
<rscale>  0 0.30000000E+03</rscale>
<asrwt>  1 0.40454325E+02</asrwt>
<pdfrwt beam="1">  1        1 0.86830786E+00 0.30000000E+03</pdfrwt>
<pdfrwt beam="2">0</pdfrwt>
<totfact> 0.25665068E-04</totfact>
</mgrwt>
<clustering>
<clus scale="   40.454">  1  6  2 -1</clus>
<clus scale="  469.739">  4  5 -1 -1</clus>
<clus scale="  300.000">  1  4  2 -1</clus>
</clustering>
</event>
<event>
 6    1  0.9131597E-012  0.3000000E+03  0.7818608E-02  0.1093470E+00
          1   -1    0    0  502    0  0.00000000000E+00  0.00000000000E+00  0.22572962607E+03  0.22572962607E+03  0.00000000000E+00 0.  1.
         13   -1    0    0    0    0 -0.00000000000E+00 -0.00000000000E+00 -0.27500000000E+03  0.27500000000E+03  0.00000000000E+00 0.  1.
    9000005    2    1    2  501    0 -0.25433619354E+02  0.19952608547E+02 -0.54227687822E+02  0.46802564248E+03  0.46374819063E+03 0.  0.
         13    1    3    3    0    0 -0.59244115791E+02  0.18246909042E+03  0.12087201713E+03  0.22674849225E+03  0.00000000000E+00 0.  1.
          1    1    3    3  501    0  0.33810496437E+02 -0.16251648188E+03 -0.17509970495E+03  0.24127715023E+03  0.00000000000E+00 0.  1.
         21    1    1    2  502  501  0.25433619354E+02 -0.19952608547E+02  0.49573138901E+01  0.32703983584E+02  0.00000000000E+00 0. -1.
<scales pt_clust_4="550.00000" pt_clust_5="550.00000" pt_clust_6="32.32608"></scales>
<mgrwt>
<rscale>  0 0.30000000E+03</rscale>
<asrwt>  1 0.32326082E+02</asrwt>
<pdfrwt beam="1">  1        1 0.82083500E+00 0.30000000E+03</pdfrwt>
<pdfrwt beam="2">0</pdfrwt>
<totfact> 0.72201153E-04</totfact>
</mgrwt>
<clustering>
<clus scale="   32.326">  1  6  2 -1</clus>
<clus scale="  463.748">  4  5 -1 -1</clus>
<clus scale="  300.000">  1  4  2 -1</clus>
</clustering>
</event>
<event>
 6    1  0.9131597E-012  0.3000000E+03  0.7818608E-02  0.1093470E+00
          1   -1    0    0  502    0  0.00000000000E+00  0.00000000000E+00  0.23355518937E+03  0.23355518937E+03  0.00000000000E+00 0.  1.
         13   -1    0    0    0    0 -0.00000000000E+00 -0.00000000000E+00 -0.27500000000E+03  0.27500000000E+03  0.00000000000E+00 0.  1.
    9000005    2    1    2  501    0 -0.30458956502E+02  0.49841439580E+00 -0.70037210463E+02  0.46677574734E+03  0.46048495199E+03 0.  0.
         13    1    3    3    0    0 -0.22494166890E+03 -0.85307670643E+02  0.69997086773E+01  0.24067644048E+03  0.00000000000E+00 0.  1.
          1    1    3    3  501    0  0.19448271240E+03  0.85806085039E+02 -0.77036919140E+02  0.22609930686E+03  0.00000000000E+00 0.  1.
         21    1    1    2  502  501  0.30458956502E+02 -0.49841439580E+00  0.28592399834E+02  0.41779442031E+02  0.00000000000E+00 0. -1.
<scales pt_clust_4="550.00000" pt_clust_5="550.00000" pt_clust_6="30.46303"></scales>
<mgrwt>
<rscale>  0 0.30000000E+03</rscale>
<asrwt>  1 0.30463034E+02</asrwt>
<pdfrwt beam="1">  1        1 0.84929160E+00 0.30000000E+03</pdfrwt>
<pdfrwt beam="2">0</pdfrwt>
<totfact> 0.42425338E-04</totfact>
</mgrwt>
<clustering>
<clus scale="   30.463">  1  6  2 -1</clus>
<clus scale="  460.485">  4  5 -1 -1</clus>
<clus scale="  300.000">  1  4  2 -1</clus>
</clustering>
</event>
<event>
 6    1  0.9131597E-012  0.3000000E+03  0.7818608E-02  0.1093470E+00
          1   -1    0    0  502    0  0.00000000000E+00  0.00000000000E+00  0.23484279108E+03  0.23484279108E+03  0.00000000000E+00 0.  1.
         13   -1    0    0    0    0 -0.00000000000E+00 -0.00000000000E+00 -0.27500000000E+03  0.27500000000E+03  0.00000000000E+00 0.  1.
    9000005    2    1    2  501    0  0.33943973733E+02  0.19142620945E+02 -0.55097262570E+02  0.46810745243E+03  0.46321727665E+03 0.  0.
         13    1    3    3    0    0 -0.11396694881E+03 -0.10270179204E+03  0.13043996903E+03  0.20137206616E+03  0.00000000000E+00 0.  1.
          3    1    3    3  501    0  0.14791092254E+03  0.12184441298E+03 -0.18553723160E+03  0.26673538627E+03  0.00000000000E+00 0.  1.
         21    1    1    2  502  501 -0.33943973733E+02 -0.19142620945E+02  0.14940053654E+02  0.41735338654E+02  0.00000000000E+00 0.  1.
<scales pt_clust_4="550.00000" pt_clust_5="550.00000" pt_clust_6="38.96965"></scales>
<mgrwt>
<rscale>  0 0.30000000E+03</rscale>
<asrwt>  1 0.38969646E+02</asrwt>
<pdfrwt beam="1">  1        1 0.85397379E+00 0.30000000E+03</pdfrwt>
<pdfrwt beam="2">0</pdfrwt>
<totfact> 0.36553507E-04</totfact>
</mgrwt>
<clustering>
<clus scale="   38.970">  1  6  2 -1</clus>
<clus scale="  463.217">  4  5 -1 -1</clus>
<clus scale="  300.000">  1  4  2 -1</clus>
</clustering>
</event>
<event>
 6    1  0.9131597E-012  0.3000000E+03  0.7818608E-02  0.1093470E+00
          1   -1    0    0  502    0  0.00000000000E+00  0.00000000000E+00  0.22951984782E+03  0.22951984782E+03  0.00000000000E+00 0.  1.
         13   -1    0    0    0    0 -0.00000000000E+00 -0.00000000000E+00 -0.27500000000E+03  0.27500000000E+03  0.00000000000E+00 0.  1.
    9000005    2    1    2  501    0 -0.11161581749E+02 -0.29321022352E+02 -0.53060748006E+02  0.47224340607E+03  0.46820304179E+03 0.  0.
         13    1    3    3    0    0  0.25220778943E+01  0.13747421319E+03  0.15370901115E+03  0.20623283026E+03  0.00000000000E+00 0.  1.
          3    1    3    3  501    0 -0.13683659643E+02 -0.16679523554E+03 -0.20676975916E+03  0.26601057581E+03  0.00000000000E+00 0.  1.
         21    1    1    2  502  501  0.11161581749E+02  0.29321022352E+02  0.75805958253E+01  0.32276441749E+02  0.00000000000E+00 0. -1.
<scales pt_clust_4="550.00000" pt_clust_5="550.00000" pt_clust_6="31.37361"></scales>
<mgrwt>
<rscale>  0 0.30000000E+03</rscale>
<asrwt>  1 0.31373608E+02</asrwt>
<pdfrwt beam="1">  1        1 0.83461763E+00 0.30000000E+03</pdfrwt>
<pdfrwt beam="2">0</pdfrwt>
<totfact> 0.55585539E-04</totfact>
</mgrwt>
<clustering>
<clus scale="   31.374">  1  6  2 -1</clus>
<clus scale="  468.203">  4  5 -1 -1</clus>
<clus scale="  300.000">  1  4  2 -1</clus>
</clustering>
</event>
<event>
 6    1  0.9131597E-012  0.3000000E+03  0.7818608E-02  0.1093470E+00
          1   -1    0    0  502    0  0.00000000000E+00  0.00000000000E+00  0.23340559878E+03  0.23340559878E+03  0.00000000000E+00 0.  1.
         13   -1    0    0    0    0 -0.00000000000E+00 -0.00000000000E+00 -0.27500000000E+03  0.27500000000E+03  0.00000000000E+00 0.  1.
    9000005    2    1    2  501    0  0.19589960335E+02  0.24166212220E+02 -0.56273764929E+02  0.47400710931E+03  0.46962562824E+03 0.  0.
         13    1    3    3    0    0 -0.11903996490E+03 -0.97044765484E+02  0.13789332992E+03  0.20640438509E+03  0.00000000000E+00 0.  1.
          3    1    3    3  501    0  0.13862992523E+03  0.12121097770E+03 -0.19416709485E+03  0.26760272421E+03  0.00000000000E+00 0.  1.
         21    1    1    2  502  501 -0.19589960335E+02 -0.24166212220E+02  0.14679363707E+02  0.34398489470E+02  0.00000000000E+00 0.  1.
<scales pt_clust_4="550.00000" pt_clust_5="550.00000" pt_clust_6="31.10904"></scales>
<mgrwt>
<rscale>  0 0.30000000E+03</rscale>
<asrwt>  1 0.31109040E+02</asrwt>
<pdfrwt beam="1">  1        1 0.84874763E+00 0.30000000E+03</pdfrwt>
<pdfrwt beam="2">0</pdfrwt>
<totfact> 0.42748691E-04</totfact>
</mgrwt>
<clustering>
<clus scale="   31.109">  1  6  2 -1</clus>
<clus scale="  469.626">  4  5 -1 -1</clus>
<clus scale="  300.000">  1  4  2 -1</clus>
</clustering>
</event>
<event>
 6    1  0.9131597E-012  0.3000000E+03  0.7818608E-02  0.1093470E+00
          1   -1    0    0  502    0  0.00000000000E+00  0.00000000000E+00  0.22710412169E+03  0.22710412169E+03  0.00000000000E+00 0.  1.
         13   -1    0    0    0    0 -0.00000000000E+00 -0.00000000000E+00 -0.27500000000E+03  0.27500000000E+03  0.00000000000E+00 0.  1.
    9000005    2    1    2  501    0  0.29513215474E+02  0.28217781381E+02 -0.51451095048E+02  0.46111738433E+03  0.45641511135E+03 0.  0.
         13    1    3    3    0    0  0.15320103296E+03 -0.86453011399E+02 -0.17799875904E+03  0.25025634437E+03  0.00000000000E+00 0.  1.
          1    1    3    3  501    0 -0.12368781748E+03  0.11467079278E+03  0.12654766399E+03  0.21086103996E+03  0.00000000000E+00 0.  1.
         21    1    1    2  502  501 -0.29513215474E+02 -0.28217781381E+02  0.35552167368E+01  0.40986737363E+02  0.00000000000E+00 0.  1.
<scales pt_clust_4="550.00000" pt_clust_5="550.00000" pt_clust_6="40.83226"></scales>
<mgrwt>
<rscale>  0 0.30000000E+03</rscale>
<asrwt>  1 0.40832255E+02</asrwt>
<pdfrwt beam="1">  1        1 0.82583317E+00 0.30000000E+03</pdfrwt>
<pdfrwt beam="2">0</pdfrwt>
<totfact> 0.62411053E-04</totfact>
</mgrwt>
<clustering>
<clus scale="   40.832">  1  6  2 -1</clus>
<clus scale="  456.415">  4  5 -1 -1</clus>
<clus scale="  300.000">  1  4  2 -1</clus>
</clustering>
</event>
<event>
 6    1  0.9131597E-012  0.3000000E+03  0.7818608E-02  0.1093470E+00
          1   -1    0    0  502    0  0.00000000000E+00  0.00000000000E+00  0.23703791429E+03  0.23703791429E+03  0.00000000000E+00 0.  1.
         13   -1    0    0    0    0 -0.00000000000E+00 -0.00000000000E+00 -0.27500000000E+03  0.27500000000E+03  0.00000000000E+00 0.  1.
    9000005    2    1    2  501    0 -0.17380127684E+02 -0.24624227592E+02 -0.76094117311E+02  0.46343263416E+03  0.45614807935E+03 0.  0.
         13    1    3    3    0    0  0.13169369660E+03 -0.19143141746E+03 -0.22895919579E+02  0.23348113510E+03  0.00000000000E+00 0.  1.
          3    1    3    3  501    0 -0.14907382429E+03  0.16680718986E+03 -0.53198197732E+02  0.22995149906E+03  0.00000000000E+00 0.  1.
         21    1    1    2  502  501  0.17380127684E+02  0.24624227592E+02  0.38132031605E+02  0.48605280136E+02  0.00000000000E+00 0.  1.
<scales pt_clust_4="550.00000" pt_clust_5="550.00000" pt_clust_6="30.14003"></scales>
<mgrwt>
<rscale>  0 0.30000000E+03</rscale>
<asrwt>  1 0.30140030E+02</asrwt>
<pdfrwt beam="1">  1        1 0.86195605E+00 0.30000000E+03</pdfrwt>
<pdfrwt beam="2">0</pdfrwt>
<totfact> 0.31704891E-04</totfact>
</mgrwt>
<clustering>
<clus scale="   30.140">  1  6  2 -1</clus>
<clus scale="  456.148">  4  5 -1 -1</clus>
<clus scale="  300.000">  1  4  2 -1</clus>
</clustering>
</event>
<event>
 6    1  0.9131597E-012  0.3000000E+03  0.7818608E-02  0.1093470E+00
          1   -1    0    0  502    0  0.00000000000E+00  0.00000000000E+00  0.23435773277E+03  0.23435773277E+03  0.00000000000E+00 0.  1.
         13   -1    0    0    0    0 -0.00000000000E+00 -0.00000000000E+00 -0.27500000000E+03  0.27500000000E+03  0.00000000000E+00 0.  1.
    9000005    2    1    2  501    0 -0.21582161807E+02  0.25890349371E+02 -0.50127661173E+02  0.47434241331E+03  0.47048043822E+03 0.  0.
         13    1    3    3    0    0  0.10997246234E+03  0.21093399040E+03 -0.65643653931E+02  0.24677151391E+03  0.00000000000E+00 0.  1.
          1    1    3    3  501    0 -0.13155462414E+03 -0.18504364103E+03  0.15515992758E+02  0.22757089939E+03  0.00000000000E+00 0.  1.
         21    1    1    2  502  501  0.21582161807E+02 -0.25890349371E+02  0.94853939422E+01  0.35015319462E+02  0.00000000000E+00 0. -1.
<scales pt_clust_4="550.00000" pt_clust_5="550.00000" pt_clust_6="33.70608"></scales>
<mgrwt>
<rscale>  0 0.30000000E+03</rscale>
<asrwt>  1 0.33706081E+02</asrwt>
<pdfrwt beam="1">  1        1 0.85220994E+00 0.30000000E+03</pdfrwt>
<pdfrwt beam="2">0</pdfrwt>
<totfact> 0.39054801E-04</totfact>
</mgrwt>
<clustering>
<clus scale="   33.706">  1  6  2 -1</clus>
<clus scale="  470.480">  4  5 -1 -1</clus>
<clus scale="  300.000">  1  4  2 -1</clus>
</clustering>
</event>
<event>
 6    1  0.9131597E-012  0.3000000E+03  0.7818608E-02  0.1093470E+00
          1   -1    0    0  502    0  0.00000000000E+00  0.00000000000E+00  0.23310889843E+03  0.23310889843E+03  0.00000000000E+00 0.  1.
         13   -1    0    0    0    0 -0.00000000000E+00 -0.00000000000E+00 -0.27500000000E+03  0.27500000000E+03  0.00000000000E+00 0.  1.
    9000005    2    1    2  501    0  0.21611915395E+02  0.32710631766E+02 -0.26233497852E+02  0.46589254056E+03  0.46349822289E+03 0.  0.
         13    1    3    3    0    0 -0.16005729664E+03  0.14762061219E+03  0.72295227321E+02  0.22942707609E+03  0.00000000000E+00 0.  1.
          1    1    3    3  501    0  0.18166921203E+03 -0.11490998043E+03 -0.98528725172E+02  0.23646546447E+03  0.00000000000E+00 0.  1.
         21    1    1    2  502  501 -0.21611915395E+02 -0.32710631766E+02 -0.15657603718E+02  0.42216357870E+02  0.00000000000E+00 0. -1.
<scales pt_clust_4="550.00000" pt_clust_5="550.00000" pt_clust_6="39.20538"></scales>
<mgrwt>
<rscale>  0 0.30000000E+03</rscale>
<asrwt>  1 0.39205380E+02</asrwt>
<pdfrwt beam="1">  1        1 0.84766872E+00 0.30000000E+03</pdfrwt>
<pdfrwt beam="2">0</pdfrwt>
<totfact> 0.41881532E-04</totfact>
</mgrwt>
<clustering>
<clus scale="   39.205">  1  6  2 -1</clus>
<clus scale="  463.498">  4  5 -1 -1</clus>
<clus scale="  300.000">  1  4  2 -1</clus>
</clustering>
</event>
<event>
 6    1  0.9131597E-012  0.3000000E+03  0.7818608E-02  0.1093470E+00
          1   -1    0    0  502    0  0.00000000000E+00  0.00000000000E+00  0.24261216884E+03  0.24261216884E+03  0.00000000000E+00 0.  1.
         13   -1    0    0    0    0 -0.00000000000E+00 -0.00000000000E+00 -0.27500000000E+03  0.27500000000E+03  0.00000000000E+00 0.  1.
    9000005    2    1    2  501    0 -0.17991768310E+02  0.30122114792E+02 -0.49902464898E+02  0.47839727472E+03  0.47449199248E+03 0.  0.
         13    1    3    3    0    0  0.27980257944E+02  0.20443880153E+03  0.11314106851E+03  0.23532747351E+03  0.00000000000E+00 0.  1.
          1    1    3    3  501    0 -0.45972026255E+02 -0.17431668674E+03 -0.16304353340E+03  0.24306980121E+03  0.00000000000E+00 0.  1.
         21    1    1    2  502  501  0.17991768310E+02 -0.30122114792E+02  0.17514633743E+02  0.39214894130E+02  0.00000000000E+00 0. -1.
<scales pt_clust_4="550.00000" pt_clust_5="550.00000" pt_clust_6="35.08626"></scales>
<mgrwt>
<rscale>  0 0.30000000E+03</rscale>
<asrwt>  1 0.35086258E+02</asrwt>
<pdfrwt beam="1">  1        1 0.88222607E+00 0.30000000E+03</pdfrwt>
<pdfrwt beam="2">0</pdfrwt>
<totfact> 0.18482817E-04</totfact>
</mgrwt>
<clustering>
<clus scale="   35.086">  1  6  2 -1</clus>
<clus scale="  474.492">  4  5 -1 -1</clus>
<clus scale="  300.000">  1  4  2 -1</clus>
</clustering>
</event>
<event>
 6    1  0.9131597E-012  0.3000000E+03  0.7818608E-02  0.1093470E+00
          1   -1    0    0  502    0  0.00000000000E+00  0.00000000000E+00  0.23854549831E+03  0.23854549831E+03  0.00000000000E+00 0.  1.
         13   -1    0    0    0    0 -0.00000000000E+00 -0.00000000000E+00 -0.27500000000E+03  0.27500000000E+03  0.00000000000E+00 0.  1.
    9000005    2    1    2  501    0 -0.15068197200E+01  0.44716939135E+02 -0.18333619349E+02  0.46527292298E+03  0.46275360194E+03 0.  0.
         13    1    3    3    0    0 -0.20535266440E+01 -0.11626551538E+03 -0.19451272951E+03  0.22662102501E+03  0.00000000000E+00 0.  1.
          3    1    3    3  501    0  0.54670692401E+00  0.16098245451E+03  0.17617911016E+03  0.23865189797E+03  0.00000000000E+00 0.  1.
         21    1    1    2  502  501  0.15068197200E+01 -0.44716939135E+02 -0.18120882346E+02  0.48272575322E+02  0.00000000000E+00 0. -1.
<scales pt_clust_4="550.00000" pt_clust_5="550.00000" pt_clust_6="44.74234"></scales>
<mgrwt>
<rscale>  0 0.30000000E+03</rscale>
<asrwt>  1 0.44742342E+02</asrwt>
<pdfrwt beam="1">  1        1 0.86743818E+00 0.30000000E+03</pdfrwt>
<pdfrwt beam="2">0</pdfrwt>
<totfact> 0.25733338E-04</totfact>
</mgrwt>
<clustering>
<clus scale="   44.742">  1  6  2 -1</clus>
<clus scale="  462.754">  4  5 -1 -1</clus>
<clus scale="  300.000">  1  4  2 -1</clus>
</clustering>
</event>
<event>
 6    1  0.9131597E-012  0.3000000E+03  0.7818608E-02  0.1093470E+00
          1   -1    0    0  502    0  0.00000000000E+00  0.00000000000E+00  0.25499974485E+03  0.25499974485E+03  0.00000000000E+00 0.  1.
         13   -1    0    0    0    0 -0.00000000000E+00 -0.00000000000E+00 -0.27500000000E+03  0.27500000000E+03  0.00000000000E+00 0.  1.
    9000005    2    1    2  501    0 -0.32495460901E+02  0.24097084354E+02  0.71496818062E+00  0.48454927806E+03  0.48285698424E+03 0.  0.
         13    1    3    3    0    0  0.85824933080E+02 -0.97213194034E+02  0.19029097624E+03  0.23027587774E+03  0.00000000000E+00 0.  1.
          1    1    3    3  501    0 -0.11832039398E+03  0.12131027839E+03 -0.18957600806E+03  0.25427340031E+03  0.00000000000E+00 0.  1.
         21    1    1    2  502  501  0.32495460901E+02 -0.24097084354E+02 -0.20715223335E+02  0.45450466789E+02  0.00000000000E+00 0.  1.
<scales pt_clust_4="550.00000" pt_clust_5="550.00000" pt_clust_6="40.45524"></scales>
<mgrwt>
<rscale>  0 0.30000000E+03</rscale>
<asrwt>  1 0.40455236E+02</asrwt>
<pdfrwt beam="1">  1        1 0.92727180E+00 0.30000000E+03</pdfrwt>
<pdfrwt beam="2">0</pdfrwt>
<totfact> 0.28667104E-05</totfact>
</mgrwt>
<clustering>
<clus scale="   40.455">  1  6  2 -1</clus>
<clus scale="  482.857">  4  5 -1 -1</clus>
<clus scale="  300.000">  1  4  2 -1</clus>
</clustering>
</event>
<event>
 6    1  0.9131597E-012  0.3000000E+03  0.7818608E-02  0.1093470E+00
          1   -1    0    0  502    0  0.00000000000E+00  0.00000000000E+00  0.23612599753E+03  0.23612599753E+03  0.00000000000E+00 0.  1.
         13   -1    0    0    0    0 -0.00000000000E+00 -0.00000000000E+00 -0.27500000000E+03  0.27500000000E+03  0.00000000000E+00 0.  1.
    9000005    2    1    2  501    0 -0.10508940757E+02 -0.33712477555E+02 -0.36025232114E+02  0.47569882616E+03  0.47301647633E+03 0.  0.
         13    1    3    3    0    0 -0.22237581745E+03 -0.51071312907E+02 -0.10642916296E+03  0.25176665767E+03  0.00000000000E+00 0.  1.
          1    1    3    3  501    0  0.21186687669E+03  0.17358835352E+02  0.70403930842E+02  0.22393216848E+03  0.00000000000E+00 0.  1.
         21    1    1    2  502  501  0.10508940757E+02  0.33712477555E+02 -0.28487703587E+01  0.35427171370E+02  0.00000000000E+00 0.  1.
<scales pt_clust_4="550.00000" pt_clust_5="550.00000" pt_clust_6="35.31247"></scales>
<mgrwt>
<rscale>  0 0.30000000E+03</rscale>
<asrwt>  1 0.35312466E+02</asrwt>
<pdfrwt beam="1">  1        1 0.85863999E+00 0.30000000E+03</pdfrwt>
<pdfrwt beam="2">0</pdfrwt>
<totfact> 0.33382286E-04</totfact>
</mgrwt>
<clustering>
<clus scale="   35.312">  1  6  2 -1</clus>
<clus scale="  473.016">  4  5 -1 -1</clus>
<clus scale="  300.000">  1  4  2 -1</clus>
</clustering>
</event>
<event>
 6    1  0.9131597E-012  0.3000000E+03  0.7818608E-02  0.1093470E+00
          1   -1    0    0  502    0  0.00000000000E+00  0.00000000000E+00  0.24095044881E+03  0.24095044881E+03  0.00000000000E+00 0.  1.
         13   -1    0    0    0    0 -0.00000000000E+00 -0.00000000000E+00 -0.27500000000E+03  0.27500000000E+03  0.00000000000E+00 0.  1.
    9000005    2    1    2  501    0 -0.63563590999E+01  0.43530416412E+02 -0.54440155469E+02  0.46746254107E+03  0.46219281293E+03 0.  0.
         13    1    3    3    0    0  0.14599438085E+02 -0.18102972165E+03  0.86859910088E+02  0.20131951642E+03  0.00000000000E+00 0.  1.
          1    1    3    3  501    0 -0.20955797185E+02  0.22456013806E+03 -0.14130006556E+03  0.26614302465E+03  0.00000000000E+00 0.  1.
         21    1    1    2  502  501  0.63563590999E+01 -0.43530416412E+02  0.20390604275E+02  0.48487907737E+02  0.00000000000E+00 0.  1.
<scales pt_clust_4="550.00000" pt_clust_5="550.00000" pt_clust_6="43.99205"></scales>
<mgrwt>
<rscale>  0 0.30000000E+03</rscale>
<asrwt>  1 0.43992050E+02</asrwt>
<pdfrwt beam="1">  1        1 0.87618345E+00 0.30000000E+03</pdfrwt>
<pdfrwt beam="2">0</pdfrwt>
<totfact> 0.20949582E-04</totfact>
</mgrwt>
<clustering>
<clus scale="   43.992">  1  6  2 -1</clus>
<clus scale="  462.193">  4  5 -1 -1</clus>
<clus scale="  300.000">  1  4  2 -1</clus>
</clustering>
</event>
<event>
 6    1  0.9131597E-012  0.3000000E+03  0.7818608E-02  0.1093470E+00
          1   -1    0    0  502    0  0.00000000000E+00  0.00000000000E+00  0.23009266353E+03  0.23009266353E+03  0.00000000000E+00 0.  1.
         13   -1    0    0    0    0 -0.00000000000E+00 -0.00000000000E+00 -0.27500000000E+03  0.27500000000E+03  0.00000000000E+00 0.  1.
    9000005    2    1    2  501    0 -0.15424930384E+02 -0.33240455984E+02 -0.29911079213E+02  0.46549791484E+03  0.46308830656E+03 0.  0.
         13    1    3    3    0    0  0.15555466417E+03  0.38173163289E+02  0.14102029231E+03  0.21340376469E+03  0.00000000000E+00 0.  1.
          1    1    3    3  501    0 -0.17097959456E+03 -0.71413619273E+02 -0.17093137152E+03  0.25209415015E+03  0.00000000000E+00 0.  1.
         21    1    1    2  502  501  0.15424930384E+02  0.33240455984E+02 -0.14996257261E+02  0.39594748683E+02  0.00000000000E+00 0.  1.
<scales pt_clust_4="550.00000" pt_clust_5="550.00000" pt_clust_6="36.64502"></scales>
<mgrwt>
<rscale>  0 0.30000000E+03</rscale>
<asrwt>  1 0.36645023E+02</asrwt>
<pdfrwt beam="1">  1        1 0.83670059E+00 0.30000000E+03</pdfrwt>
<pdfrwt beam="2">0</pdfrwt>
<totfact> 0.52133648E-04</totfact>
</mgrwt>
<clustering>
<clus scale="   36.645">  1  6  2 -1</clus>
<clus scale="  463.088">  4  5 -1 -1</clus>
<clus scale="  300.000">  1  4  2 -1</clus>
</clustering>
</event>
<event>
 6    1  0.9131597E-012  0.3000000E+03  0.7818608E-02  0.1093470E+00
          1   -1    0    0  502    0  0.00000000000E+00  0.00000000000E+00  0.23961506441E+03  0.23961506441E+03  0.00000000000E+00 0.  1.
         13   -1    0    0    0    0 -0.00000000000E+00 -0.00000000000E+00 -0.27500000000E+03  0.27500000000E+03  0.00000000000E+00 0.  1.
    9000005    2    1    2  501    0  0.54896270820E+00 -0.45525811396E+02 -0.37664718479E+02  0.46902890123E+03  0.46529192805E+03 0.  0.
         13    1    3    3    0    0  0.16514699076E+03  0.18914316842E+02  0.14079891411E+03  0.21784309526E+03  0.00000000000E+00 0.  1.
          1    1    3    3  501    0 -0.16459802805E+03 -0.64440128238E+02 -0.17846363259E+03  0.25118580597E+03  0.00000000000E+00 0.  1.
         21    1    1    2  502  501 -0.54896270820E+00  0.45525811396E+02  0.22797828866E+01  0.45586163179E+02  0.00000000000E+00 0. -1.
<scales pt_clust_4="550.00000" pt_clust_5="550.00000" pt_clust_6="45.52912"></scales>
<mgrwt>
<rscale>  0 0.30000000E+03</rscale>
<asrwt>  1 0.45529121E+02</asrwt>
<pdfrwt beam="1">  1        1 0.87132751E+00 0.30000000E+03</pdfrwt>
<pdfrwt beam="2">0</pdfrwt>
<totfact> 0.23395959E-04</totfact>
</mgrwt>
<clustering>
<clus scale="   45.529">  1  6  2 -1</clus>
<clus scale="  465.292">  4  5 -1 -1</clus>
<clus scale="  300.000">  1  4  2 -1</clus>
</clustering>
</event>
<event>
 6    1  0.9131597E-012  0.3000000E+03  0.7818608E-02  0.1093470E+00
          1   -1    0    0  502    0  0.00000000000E+00  0.00000000000E+00  0.24118916316E+03  0.24118916316E+03  0.00000000000E+00 0.  1.
         13   -1    0    0    0    0 -0.00000000000E+00 -0.00000000000E+00 -0.27500000000E+03  0.27500000000E+03  0.00000000000E+00 0.  1.
    9000005    2    1    2  501    0 -0.35715486618E+02  0.49905110570E+01 -0.40949477976E+02  0.47942693551E+03  0.47631168950E+03 0.  0.
         13    1    3    3    0    0  0.16613089407E+03 -0.19867767666E+02 -0.17003288840E+03  0.23854849674E+03  0.00000000000E+00 0.  1.
          1    1    3    3  501    0 -0.20184638069E+03  0.24858278723E+02  0.12908341043E+03  0.24087843877E+03  0.00000000000E+00 0.  1.
         21    1    1    2  502  501  0.35715486618E+02 -0.49905110570E+01  0.71386411406E+01  0.36762227657E+02  0.00000000000E+00 0.  1.
<scales pt_clust_4="550.00000" pt_clust_5="550.00000" pt_clust_6="36.06246"></scales>
<mgrwt>
<rscale>  0 0.30000000E+03</rscale>
<asrwt>  1 0.36062462E+02</asrwt>
<pdfrwt beam="1">  1        1 0.87705150E+00 0.30000000E+03</pdfrwt>
<pdfrwt beam="2">0</pdfrwt>
<totfact> 0.21252058E-04</totfact>
</mgrwt>
<clustering>
<clus scale="   36.062">  1  6  2 -1</clus>
<clus scale="  476.312">  4  5 -1 -1</clus>
<clus scale="  300.000">  1  4  2 -1</clus>
</clustering>
</event>
<event>
 6    1  0.9131597E-012  0.3000000E+03  0.7818608E-02  0.1093470E+00
          1   -1    0    0  502    0  0.00000000000E+00  0.00000000000E+00  0.22930358099E+03  0.22930358099E+03  0.00000000000E+00 0.  1.
         13   -1    0    0    0    0 -0.00000000000E+00 -0.00000000000E+00 -0.27500000000E+03  0.27500000000E+03  0.00000000000E+00 0.  1.
    9000005    2    1    2  501    0  0.16542511526E+02 -0.26483481135E+02 -0.67400917376E+02  0.46627576604E+03  0.46032073261E+03 0.  0.
         13    1    3    3    0    0 -0.13378503241E+03  0.16120092745E+03  0.19956154033E+02  0.21043388984E+03  0.00000000000E+00 0.  1.
          3    1    3    3  501    0  0.15032754394E+03 -0.18768440859E+03 -0.87357071409E+02  0.25584187620E+03  0.00000000000E+00 0.  1.
         21    1    1    2  502  501 -0.16542511526E+02  0.26483481135E+02  0.21704498366E+02  0.38027814951E+02  0.00000000000E+00 0. -1.
<scales pt_clust_4="550.00000" pt_clust_5="550.00000" pt_clust_6="31.22546"></scales>
<mgrwt>
<rscale>  0 0.30000000E+03</rscale>
<asrwt>  1 0.31225462E+02</asrwt>
<pdfrwt beam="1">  1        1 0.83383120E+00 0.30000000E+03</pdfrwt>
<pdfrwt beam="2">0</pdfrwt>
<totfact> 0.56383461E-04</totfact>
</mgrwt>
<clustering>
<clus scale="   31.225">  1  6  2 -1</clus>
<clus scale="  460.321">  4  5 -1 -1</clus>
<clus scale="  300.000">  1  4  2 -1</clus>
</clustering>
</event>
<event>
 6    1  0.9131597E-012  0.3000000E+03  0.7818608E-02  0.1093470E+00
          1   -1    0    0  502    0  0.00000000000E+00  0.00000000000E+00  0.23491566489E+03  0.23491566489E+03  0.00000000000E+00 0.  1.
         13   -1    0    0    0    0 -0.00000000000E+00 -0.00000000000E+00 -0.27500000000E+03  0.27500000000E+03  0.00000000000E+00 0.  1.
    9000005    2    1    2  501    0 -0.10991894428E+02 -0.40037450758E+02 -0.58783049791E+02  0.46438039134E+03  0.45876996601E+03 0.  0.
         13    1    3    3    0    0 -0.17823918921E+03 -0.64730669711E+01 -0.18132749931E+03  0.25434380506E+03  0.00000000000E+00 0.  1.
          3    1    3    3  501    0  0.16724729478E+03 -0.33564383787E+02  0.12254444952E+03  0.21003658629E+03  0.00000000000E+00 0.  1.
         21    1    1    2  502  501  0.10991894428E+02  0.40037450758E+02  0.18698714684E+02  0.45535273549E+02  0.00000000000E+00 0.  1.
<scales pt_clust_4="550.00000" pt_clust_5="550.00000" pt_clust_6="41.51890"></scales>
<mgrwt>
<rscale>  0 0.30000000E+03</rscale>
<asrwt>  1 0.41518902E+02</asrwt>
<pdfrwt beam="1">  1        1 0.85423878E+00 0.30000000E+03</pdfrwt>
<pdfrwt beam="2">0</pdfrwt>
<totfact> 0.35919854E-04</totfact>
</mgrwt>
<clustering>
<clus scale="   41.519">  1  6  2 -1</clus>
<clus scale="  458.770">  4  5 -1 -1</clus>
<clus scale="  300.000">  1  4  2 -1</clus>
</clustering>
</event>
<event>
 6    1  0.9131597E-012  0.3000000E+03  0.7818608E-02  0.1093470E+00
          1   -1    0    0  502    0  0.00000000000E+00  0.00000000000E+00  0.23489246205E+03  0.23489246205E+03  0.00000000000E+00 0.  1.
         13   -1    0    0    0    0 -0.00000000000E+00 -0.00000000000E+00 -0.27500000000E+03  0.27500000000E+03  0.00000000000E+00 0.  1.
    9000005    2    1    2  501    0  0.24822416750E+01  0.31807930960E+02 -0.65201186099E+02  0.46930185756E+03  0.46365410905E+03 0.  0.
         13    1    3    3    0    0 -0.46649741993E+02  0.22601068539E+03  0.52897134713E+02  0.23675965703E+03  0.00000000000E+00 0.  1.
          1    1    3    3  501    0  0.49131983668E+02 -0.19420275443E+03 -0.11809832081E+03  0.23254220052E+03  0.00000000000E+00 0.  1.
         21    1    1    2  502  501 -0.24822416750E+01 -0.31807930960E+02  0.25093648147E+02  0.40590604492E+02  0.00000000000E+00 0.  1.
<scales pt_clust_4="550.00000" pt_clust_5="550.00000" pt_clust_6="31.90464"></scales>
<mgrwt>
<rscale>  0 0.30000000E+03</rscale>
<asrwt>  1 0.31904639E+02</asrwt>
<pdfrwt beam="1">  1        1 0.85415441E+00 0.30000000E+03</pdfrwt>
<pdfrwt beam="2">0</pdfrwt>
<totfact> 0.37792048E-04</totfact>
</mgrwt>
<clustering>
<clus scale="   31.905">  1  6  2 -1</clus>
<clus scale="  463.654">  4  5 -1 -1</clus>
<clus scale="  300.000">  1  4  2 -1</clus>
</clustering>
</event>
<event>
 6    1  0.9131597E-012  0.3000000E+03  0.7818608E-02  0.1093470E+00
          1   -1    0    0  502    0  0.00000000000E+00  0.00000000000E+00  0.24183558422E+03  0.24183558422E+03  0.00000000000E+00 0.  1.
         13   -1    0    0    0    0 -0.00000000000E+00 -0.00000000000E+00 -0.27500000000E+03  0.27500000000E+03  0.00000000000E+00 0.  1.
    9000005    2    1    2  501    0 -0.14549802204E+02 -0.26313690151E+02 -0.53461309559E+02  0.48055789231E+03  0.47662739032E+03 0.  0.
         13    1    3    3    0    0  0.58935799542E+02  0.16936500878E+03  0.11419968494E+03  0.21260174672E+03  0.00000000000E+00 0.  1.
          1    1    3    3  501    0 -0.73485601746E+02 -0.19567869893E+03 -0.16766099450E+03  0.26795614559E+03  0.00000000000E+00 0.  1.
         21    1    1    2  502  501  0.14549802204E+02  0.26313690151E+02  0.20296893783E+02  0.36277691916E+02  0.00000000000E+00 0.  1.
<scales pt_clust_4="550.00000" pt_clust_5="550.00000" pt_clust_6="30.06837"></scales>
<mgrwt>
<rscale>  0 0.30000000E+03</rscale>
<asrwt>  1 0.30068373E+02</asrwt>
<pdfrwt beam="1">  1        1 0.87940212E+00 0.30000000E+03</pdfrwt>
<pdfrwt beam="2">0</pdfrwt>
<totfact> 0.20658909E-04</totfact>
</mgrwt>
<clustering>
<clus scale="   30.068">  1  6  2 -1</clus>
<clus scale="  476.627">  4  5 -1 -1</clus>
<clus scale="  300.000">  1  4  2 -1</clus>
</clustering>
</event>
<event>
 6    1  0.9131597E-012  0.3000000E+03  0.7818608E-02  0.1093470E+00
          1   -1    0    0  502    0  0.00000000000E+00  0.00000000000E+00  0.23612012522E+03  0.23612012522E+03  0.00000000000E+00 0.  1.
         13   -1    0    0    0    0 -0.00000000000E+00 -0.00000000000E+00 -0.27500000000E+03  0.27500000000E+03  0.00000000000E+00 0.  1.
    9000005    2    1    2  501    0 -0.19518816578E+02  0.25416150792E+02 -0.54221635303E+02  0.47559077766E+03  0.47140177889E+03 0.  0.
         13    1    3    3    0    0  0.14990601664E+03 -0.13046015835E+03 -0.12495769643E+03  0.23474686928E+03  0.00000000000E+00 0.  1.
          3    1    3    3  501    0 -0.16942483321E+03  0.15587630914E+03  0.70736061131E+02  0.24084390838E+03  0.00000000000E+00 0.  1.
         21    1    1    2  502  501  0.19518816578E+02 -0.25416150792E+02  0.15341760520E+02  0.35529347553E+02  0.00000000000E+00 0.  1.
<scales pt_clust_4="550.00000" pt_clust_5="550.00000" pt_clust_6="32.04629"></scales>
<mgrwt>
<rscale>  0 0.30000000E+03</rscale>
<asrwt>  1 0.32046293E+02</asrwt>
<pdfrwt beam="1">  1        1 0.85861864E+00 0.30000000E+03</pdfrwt>
<pdfrwt beam="2">0</pdfrwt>
<totfact> 0.34015880E-04</totfact>
</mgrwt>
<clustering>
<clus scale="   32.046">  1  6  2 -1</clus>
<clus scale="  471.402">  4  5 -1 -1</clus>
<clus scale="  300.000">  1  4  2 -1</clus>
</clustering>
</event>
<event>
 6    1  0.9131597E-012  0.3000000E+03  0.7818608E-02  0.1093470E+00
          1   -1    0    0  502    0  0.00000000000E+00  0.00000000000E+00  0.22339360257E+03  0.22339360257E+03  0.00000000000E+00 0.  1.
         13   -1    0    0    0    0 -0.00000000000E+00 -0.00000000000E+00 -0.27500000000E+03  0.27500000000E+03  0.00000000000E+00 0.  1.
    9000005    2    1    2  501    0  0.31989479755E+02 -0.95304223909E+01 -0.65428743975E+02  0.46226587042E+03  0.45639309663E+03 0.  0.
         13    1    3    3    0    0  0.14716544749E+03 -0.15645226090E+03 -0.14518609880E+03  0.25925659521E+03  0.00000000000E+00 0.  1.
          1    1    3    3  501    0 -0.11517596773E+03  0.14692183851E+03  0.79757354829E+02  0.20300927521E+03  0.00000000000E+00 0.  1.
         21    1    1    2  502  501 -0.31989479755E+02  0.95304223909E+01  0.13822346543E+02  0.36127732144E+02  0.00000000000E+00 0.  1.
<scales pt_clust_4="550.00000" pt_clust_5="550.00000" pt_clust_6="33.37897"></scales>
<mgrwt>
<rscale>  0 0.30000000E+03</rscale>
<asrwt>  1 0.33378972E+02</asrwt>
<pdfrwt beam="1">  1        1 0.81234037E+00 0.30000000E+03</pdfrwt>
<pdfrwt beam="2">0</pdfrwt>
<totfact> 0.84347813E-04</totfact>
</mgrwt>
<clustering>
<clus scale="   33.379">  1  6  2 -1</clus>
<clus scale="  456.393">  4  5 -1 -1</clus>
<clus scale="  300.000">  1  4  2 -1</clus>
</clustering>
</event>
<event>
 6    1  0.9131597E-012  0.3000000E+03  0.7818608E-02  0.1093470E+00
          1   -1    0    0  502    0  0.00000000000E+00  0.00000000000E+00  0.23673573750E+03  0.23673573750E+03  0.00000000000E+00 0.  1.
         13   -1    0    0    0    0 -0.00000000000E+00 -0.00000000000E+00 -0.27500000000E+03  0.27500000000E+03  0.00000000000E+00 0.  1.
    9000005    2    1    2  501    0 -0.33986432343E+02  0.12667574751E+02 -0.50922802625E+02  0.47331980758E+03  0.46917263709E+03 0.  0.
         13    1    3    3    0    0  0.78386625786E+02 -0.13312872031E+03  0.13972802155E+03  0.20830659922E+03  0.00000000000E+00 0.  1.
          1    1    3    3  501    0 -0.11237305813E+03  0.14579629506E+03 -0.19065082418E+03  0.26501320836E+03  0.00000000000E+00 0.  1.
         21    1    1    2  502  501  0.33986432343E+02 -0.12667574751E+02  0.12658540130E+02  0.38415929921E+02  0.00000000000E+00 0.  1.
<scales pt_clust_4="550.00000" pt_clust_5="550.00000" pt_clust_6="36.27044"></scales>
<mgrwt>
<rscale>  0 0.30000000E+03</rscale>
<asrwt>  1 0.36270443E+02</asrwt>
<pdfrwt beam="1">  1        1 0.86085723E+00 0.30000000E+03</pdfrwt>
<pdfrwt beam="2">0</pdfrwt>
<totfact> 0.31460183E-04</totfact>
</mgrwt>
<clustering>
<clus scale="   36.270">  1  6  2 -1</clus>
<clus scale="  469.173">  4  5 -1 -1</clus>
<clus scale="  300.000">  1  4  2 -1</clus>
</clustering>
</event>
<event>
 6    1  0.9131597E-012  0.3000000E+03  0.7818608E-02  0.1093470E+00
          1   -1    0    0  502    0  0.00000000000E+00  0.00000000000E+00  0.23464508140E+03  0.23464508140E+03  0.00000000000E+00 0.  1.
         13   -1    0    0    0    0 -0.00000000000E+00 -0.00000000000E+00 -0.27500000000E+03  0.27500000000E+03  0.00000000000E+00 0.  1.
    9000005    2    1    2  501    0  0.10196550604E+02  0.42186263851E+02 -0.49304739565E+02  0.46533086475E+03  0.46067147279E+03 0.  0.
         13    1    3    3    0    0  0.14365984332E+03 -0.36166265810E+01 -0.20810284861E+03  0.25289924114E+03  0.00000000000E+00 0.  1.
          1    1    3    3  501    0 -0.13346329272E+03  0.45802890432E+02  0.15879810904E+03  0.21243162361E+03  0.00000000000E+00 0.  1.
         21    1    1    2  502  501 -0.10196550604E+02 -0.42186263851E+02  0.89498209618E+01  0.44314216649E+02  0.00000000000E+00 0.  1.
<scales pt_clust_4="550.00000" pt_clust_5="550.00000" pt_clust_6="43.40104"></scales>
<mgrwt>
<rscale>  0 0.30000000E+03</rscale>
<asrwt>  1 0.43401043E+02</asrwt>
<pdfrwt beam="1">  1        1 0.85325484E+00 0.30000000E+03</pdfrwt>
<pdfrwt beam="2">0</pdfrwt>
<totfact> 0.36425623E-04</totfact>
</mgrwt>
<clustering>
<clus scale="   43.401">  1  6  2 -1</clus>
<clus scale="  460.671">  4  5 -1 -1</clus>
<clus scale="  300.000">  1  4  2 -1</clus>
</clustering>
</event>
<event>
 6    1  0.9131597E-012  0.3000000E+03  0.7818608E-02  0.1093470E+00
          1   -1    0    0  502    0  0.00000000000E+00  0.00000000000E+00  0.24400585872E+03  0.24400585872E+03  0.00000000000E+00 0.  1.
         13   -1    0    0    0    0 -0.00000000000E+00 -0.00000000000E+00 -0.27500000000E+03  0.27500000000E+03  0.00000000000E+00 0.  1.
    9000005    2    1    2  501    0  0.29071559954E+02 -0.43317833457E+02 -0.49770545452E+02  0.46356089820E+03  0.45791921651E+03 0.  0.
         13    1    3    3    0    0  0.18917926919E+02 -0.16146392249E+03 -0.20915410820E+03  0.26490361871E+03  0.00000000000E+00 0.  1.
          1    1    3    3  501    0  0.10153633036E+02  0.11814608904E+03  0.15938356275E+03  0.19865727949E+03  0.00000000000E+00 0.  1.
         21    1    1    2  502  501 -0.29071559954E+02  0.43317833457E+02  0.18776404169E+02  0.55444960520E+02  0.00000000000E+00 0.  1.
<scales pt_clust_4="550.00000" pt_clust_5="550.00000" pt_clust_6="52.16886"></scales>
<mgrwt>
<rscale>  0 0.30000000E+03</rscale>
<asrwt>  1 0.52168863E+02</asrwt>
<pdfrwt beam="1">  1        1 0.88729403E+00 0.30000000E+03</pdfrwt>
<pdfrwt beam="2">0</pdfrwt>
<totfact> 0.14682842E-04</totfact>
</mgrwt>
<clustering>
<clus scale="   52.169">  1  6  2 -1</clus>
<clus scale="  457.919">  4  5 -1 -1</clus>
<clus scale="  300.000">  1  4  2 -1</clus>
</clustering>
</event>
<event>
 6    1  0.9131597E-012  0.3000000E+03  0.7818608E-02  0.1093470E+00
          1   -1    0    0  502    0  0.00000000000E+00  0.00000000000E+00  0.24081735425E+03  0.24081735425E+03  0.00000000000E+00 0.  1.
         13   -1    0    0    0    0 -0.00000000000E+00 -0.00000000000E+00 -0.27500000000E+03  0.27500000000E+03  0.00000000000E+00 0.  1.
    9000005    2    1    2  501    0 -0.43509881102E+02  0.23759600196E+02 -0.27131265329E+02  0.46574390499E+03  0.46230255367E+03 0.  0.
         13    1    3    3    0    0 -0.18028422604E+03  0.16933631933E+03  0.48692401304E+02  0.25208756643E+03  0.00000000000E+00 0.  1.
          1    1    3    3  501    0  0.13677434494E+03 -0.14557671913E+03 -0.75823666632E+02  0.21365633856E+03  0.00000000000E+00 0.  1.
         21    1    1    2  502  501  0.43509881102E+02 -0.23759600196E+02 -0.70513804174E+01  0.50073449260E+02  0.00000000000E+00 0.  1.
<scales pt_clust_4="550.00000" pt_clust_5="550.00000" pt_clust_6="49.57450"></scales>
<mgrwt>
<rscale>  0 0.30000000E+03</rscale>
<asrwt>  1 0.49574498E+02</asrwt>
<pdfrwt beam="1">  1        1 0.87569947E+00 0.30000000E+03</pdfrwt>
<pdfrwt beam="2">0</pdfrwt>
<totfact> 0.20758327E-04</totfact>
</mgrwt>
<clustering>
<clus scale="   49.574">  1  6  2 -1</clus>
<clus scale="  462.303">  4  5 -1 -1</clus>
<clus scale="  300.000">  1  4  2 -1</clus>
</clustering>
</event>
<event>
 6    1  0.9131597E-012  0.3000000E+03  0.7818608E-02  0.1093470E+00
          1   -1    0    0  502    0  0.00000000000E+00  0.00000000000E+00  0.25499627408E+03  0.25499627408E+03  0.00000000000E+00 0.  1.
         13   -1    0    0    0    0 -0.00000000000E+00 -0.00000000000E+00 -0.27500000000E+03  0.27500000000E+03  0.00000000000E+00 0.  1.
    9000005    2    1    2  501    0 -0.21003188751E+02  0.25747146034E+02 -0.34737739715E+02  0.49364877583E+03  0.49130271101E+03 0.  0.
         13    1    3    3    0    0 -0.32304835347E+00 -0.49145350029E+02  0.22098476542E+03  0.22638382525E+03  0.00000000000E+00 0.  1.
          3    1    3    3  501    0 -0.20680140397E+02  0.74892496063E+02 -0.25572250513E+03  0.26726495057E+03  0.00000000000E+00 0.  1.
         21    1    1    2  502  501  0.21003188751E+02 -0.25747146034E+02  0.14734013790E+02  0.36347498250E+02  0.00000000000E+00 0. -1.
<scales pt_clust_4="550.00000" pt_clust_5="550.00000" pt_clust_6="33.22724"></scales>
<mgrwt>
<rscale>  0 0.30000000E+03</rscale>
<asrwt>  1 0.33227240E+02</asrwt>
<pdfrwt beam="1">  1        1 0.92725918E+00 0.30000000E+03</pdfrwt>
<pdfrwt beam="2">0</pdfrwt>
<totfact> 0.29750334E-05</totfact>
</mgrwt>
<clustering>
<clus scale="   33.227">  1  6  2 -1</clus>
<clus scale="  491.303">  4  5 -1 -1</clus>
<clus scale="  300.000">  1  4  2 -1</clus>
</clustering>
</event>
<event>
 6    1  0.9131597E-012  0.3000000E+03  0.7818608E-02  0.1093470E+00
          1   -1    0    0  502    0  0.00000000000E+00  0.00000000000E+00  0.22374208396E+03  0.22374208396E+03  0.00000000000E+00 0.  1.
         13   -1    0    0    0    0 -0.00000000000E+00 -0.00000000000E+00 -0.27500000000E+03  0.27500000000E+03  0.00000000000E+00 0.  1.
    9000005    2    1    2  501    0 -0.29259587361E+02  0.22366330907E+02 -0.43566110440E+02  0.46111842008E+03  0.45757602117E+03 0.  0.
         13    1    3    3    0    0 -0.24157459467E+03  0.27856285000E+02 -0.51562870817E+02  0.24858195238E+03  0.00000000000E+00 0.  1.
          1    1    3    3  501    0  0.21231500731E+03 -0.54899540924E+01  0.79967603773E+01  0.21253646770E+03  0.00000000000E+00 0.  1.
         21    1    1    2  502  501  0.29259587361E+02 -0.22366330907E+02 -0.76918055959E+01  0.37623663885E+02  0.00000000000E+00 0. -1.
<scales pt_clust_4="550.00000" pt_clust_5="550.00000" pt_clust_6="36.82903"></scales>
<mgrwt>
<rscale>  0 0.30000000E+03</rscale>
<asrwt>  1 0.36829032E+02</asrwt>
<pdfrwt beam="1">  1        1 0.81360758E+00 0.30000000E+03</pdfrwt>
<pdfrwt beam="2">0</pdfrwt>
<totfact> 0.80910941E-04</totfact>
</mgrwt>
<clustering>
<clus scale="   36.829">  1  6  2 -1</clus>
<clus scale="  457.576">  4  5 -1 -1</clus>
<clus scale="  300.000">  1  4  2 -1</clus>
</clustering>
</event>
<event>
 6    1  0.9131597E-012  0.3000000E+03  0.7818608E-02  0.1093470E+00
          1   -1    0    0  502    0  0.00000000000E+00  0.00000000000E+00  0.24163751690E+03  0.24163751690E+03  0.00000000000E+00 0.  1.
         13   -1    0    0    0    0 -0.00000000000E+00 -0.00000000000E+00 -0.27500000000E+03  0.27500000000E+03  0.00000000000E+00 0.  1.
    9000005    2    1    2  501    0  0.10123594449E+02  0.38787725517E+02 -0.50223477971E+02  0.47314880614E+03  0.46876478131E+03 0.  0.
         13    1    3    3    0    0  0.58155339005E+02 -0.20891626480E+03 -0.57111129305E+01  0.21693470437E+03  0.00000000000E+00 0.  1.
          1    1    3    3  501    0 -0.48031744556E+02  0.24770399031E+03 -0.44512365041E+02  0.25621410177E+03  0.00000000000E+00 0.  1.
         21    1    1    2  502  501 -0.10123594449E+02 -0.38787725517E+02  0.16860994871E+02  0.43488710759E+02  0.00000000000E+00 0. -1.
<scales pt_clust_4="550.00000" pt_clust_5="550.00000" pt_clust_6="40.08709"></scales>
<mgrwt>
<rscale>  0 0.30000000E+03</rscale>
<asrwt>  1 0.40087090E+02</asrwt>
<pdfrwt beam="1">  1        1 0.87868188E+00 0.30000000E+03</pdfrwt>
<pdfrwt beam="2">0</pdfrwt>
<totfact> 0.19966260E-04</totfact>
</mgrwt>
<clustering>
<clus scale="   40.087">  1  6  2 -1</clus>
<clus scale="  468.765">  4  5 -1 -1</clus>
<clus scale="  300.000">  1  4  2 -1</clus>
</clustering>
</event>
<event>
 6    1  0.9131597E-012  0.3000000E+03  0.7818608E-02  0.1093470E+00
          1   -1    0    0  502    0  0.00000000000E+00  0.00000000000E+00  0.24156962630E+03  0.24156962630E+03  0.00000000000E+00 0.  1.
         13   -1    0    0    0    0 -0.00000000000E+00 -0.00000000000E+00 -0.27500000000E+03  0.27500000000E+03  0.00000000000E+00 0.  1.
    9000005    2    1    2  501    0  0.31864789431E+02  0.33898486605E+02 -0.45838622862E+02  0.46841947732E+03  0.46384389097E+03 0.  0.
         13    1    3    3    0    0 -0.45465542642E+02  0.24091196282E+03 -0.21877558672E+02  0.24613881646E+03  0.00000000000E+00 0.  1.
          3    1    3    3  501    0  0.77330332073E+02 -0.20701347621E+03 -0.23961064190E+02  0.22228066085E+03  0.00000000000E+00 0.  1.
         21    1    1    2  502  501 -0.31864789431E+02 -0.33898486605E+02  0.12408249163E+02  0.48150148981E+02  0.00000000000E+00 0.  1.
<scales pt_clust_4="550.00000" pt_clust_5="550.00000" pt_clust_6="46.52389"></scales>
<mgrwt>
<rscale>  0 0.30000000E+03</rscale>
<asrwt>  1 0.46523888E+02</asrwt>
<pdfrwt beam="1">  1        1 0.87843500E+00 0.30000000E+03</pdfrwt>
<pdfrwt beam="2">0</pdfrwt>
<totfact> 0.19568141E-04</totfact>
</mgrwt>
<clustering>
<clus scale="   46.524">  1  6  2 -1</clus>
<clus scale="  463.844">  4  5 -1 -1</clus>
<clus scale="  300.000">  1  4  2 -1</clus>
</clustering>
</event>
<event>
 6    1  0.9131597E-012  0.3000000E+03  0.7818608E-02  0.1093470E+00
          1   -1    0    0  502    0  0.00000000000E+00  0.00000000000E+00  0.23338714842E+03  0.23338714842E+03  0.00000000000E+00 0.  1.
         13   -1    0    0    0    0 -0.00000000000E+00 -0.00000000000E+00 -0.27500000000E+03  0.27500000000E+03  0.00000000000E+00 0.  1.
    9000005    2    1    2  501    0  0.28711493719E+02 -0.26013327360E+02 -0.47411232062E+02  0.46921235693E+03  0.46520035243E+03 0.  0.
         13    1    3    3    0    0 -0.20205691826E+03 -0.92060413225E+02 -0.56110877287E+02  0.22902084720E+03  0.00000000000E+00 0.  1.
          3    1    3    3  501    0  0.23076841198E+03  0.66047085865E+02  0.86996452250E+01  0.24019150973E+03  0.00000000000E+00 0.  1.
         21    1    1    2  502  501 -0.28711493719E+02  0.26013327360E+02  0.57983804783E+01  0.39174791488E+02  0.00000000000E+00 0. -1.
<scales pt_clust_4="550.00000" pt_clust_5="550.00000" pt_clust_6="38.74330"></scales>
<mgrwt>
<rscale>  0 0.30000000E+03</rscale>
<asrwt>  1 0.38743297E+02</asrwt>
<pdfrwt beam="1">  1        1 0.84868054E+00 0.30000000E+03</pdfrwt>
<pdfrwt beam="2">0</pdfrwt>
<totfact> 0.41085285E-04</totfact>
</mgrwt>
<clustering>
<clus scale="   38.743">  1  6  2 -1</clus>
<clus scale="  465.200">  4  5 -1 -1</clus>
<clus scale="  300.000">  1  4  2 -1</clus>
</clustering>
</event>
<event>
 6    1  0.9131597E-012  0.3000000E+03  0.7818608E-02  0.1093470E+00
          1   -1    0    0  502    0  0.00000000000E+00  0.00000000000E+00  0.24855635915E+03  0.24855635915E+03  0.00000000000E+00 0.  1.
         13   -1    0    0    0    0 -0.00000000000E+00 -0.00000000000E+00 -0.27500000000E+03  0.27500000000E+03  0.00000000000E+00 0.  1.
    9000005    2    1    2  501    0  0.23873145005E+02  0.28984377310E+02 -0.43633594649E+02  0.48225846947E+03  0.47881031694E+03 0.  0.
         13    1    3    3    0    0  0.24609138877E+03  0.33596337585E+02  0.25019777510E+02  0.24963107738E+03  0.00000000000E+00 0.  1.
          3    1    3    3  501    0 -0.22221824377E+03 -0.46119602747E+01 -0.68653372159E+02  0.23262739209E+03  0.00000000000E+00 0.  1.
         21    1    1    2  502  501 -0.23873145005E+02 -0.28984377310E+02  0.17189953796E+02  0.41297889680E+02  0.00000000000E+00 0. -1.
<scales pt_clust_4="550.00000" pt_clust_5="550.00000" pt_clust_6="37.55025"></scales>
<mgrwt>
<rscale>  0 0.30000000E+03</rscale>
<asrwt>  1 0.37550249E+02</asrwt>
<pdfrwt beam="1">  1        1 0.90384131E+00 0.30000000E+03</pdfrwt>
<pdfrwt beam="2">0</pdfrwt>
<totfact> 0.95776114E-05</totfact>
</mgrwt>
<clustering>
<clus scale="   37.550">  1  6  2 -1</clus>
<clus scale="  478.810">  4  5 -1 -1</clus>
<clus scale="  300.000">  1  4  2 -1</clus>
</clustering>
</event>
<event>
 6    1  0.9131597E-012  0.3000000E+03  0.7818608E-02  0.1093470E+00
          1   -1    0    0  502    0  0.00000000000E+00  0.00000000000E+00  0.24644759844E+03  0.24644759844E+03  0.00000000000E+00 0.  1.
         13   -1    0    0    0    0 -0.00000000000E+00 -0.00000000000E+00 -0.27500000000E+03  0.27500000000E+03  0.00000000000E+00 0.  1.
    9000005    2    1    2  501    0 -0.44020046165E+02 -0.29084605653E+02 -0.43529560015E+02  0.46660241610E+03  0.46156181966E+03 0.  0.
         13    1    3    3    0    0  0.14149880440E+03 -0.18776485908E+02  0.14389793333E+03  0.20268468932E+03  0.00000000000E+00 0.  1.
          3    1    3    3  501    0 -0.18551885056E+03 -0.10308119745E+02 -0.18742749334E+03  0.26391772678E+03  0.00000000000E+00 0.  1.
         21    1    1    2  502  501  0.44020046165E+02  0.29084605653E+02  0.14977158452E+02  0.54845182338E+02  0.00000000000E+00 0.  1.
<scales pt_clust_4="550.00000" pt_clust_5="550.00000" pt_clust_6="52.76058"></scales>
<mgrwt>
<rscale>  0 0.30000000E+03</rscale>
<asrwt>  1 0.52760580E+02</asrwt>
<pdfrwt beam="1">  1        1 0.89617309E+00 0.30000000E+03</pdfrwt>
<pdfrwt beam="2">0</pdfrwt>
<totfact> 0.11362478E-04</totfact>
</mgrwt>
<clustering>
<clus scale="   52.761">  1  6  2 -1</clus>
<clus scale="  461.562">  4  5 -1 -1</clus>
<clus scale="  300.000">  1  4  2 -1</clus>
</clustering>
</event>
<event>
 6    1  0.9131597E-012  0.3000000E+03  0.7818608E-02  0.1093470E+00
          1   -1    0    0  502    0  0.00000000000E+00  0.00000000000E+00  0.22889949633E+03  0.22889949633E+03  0.00000000000E+00 0.  1.
         13   -1    0    0    0    0 -0.00000000000E+00 -0.00000000000E+00 -0.27500000000E+03  0.27500000000E+03  0.00000000000E+00 0.  1.
    9000005    2    1    2  501    0  0.17939307874E+02  0.24065744628E+02 -0.54247106215E+02  0.47279731048E+03  0.46871480608E+03 0.  0.
         13    1    3    3    0    0  0.20935095335E+03 -0.70183706251E+02 -0.11768764419E+03  0.25020782539E+03  0.00000000000E+00 0.  1.
          1    1    3    3  501    0 -0.19141164548E+03  0.94249450879E+02  0.63440537971E+02  0.22258948509E+03  0.00000000000E+00 0.  1.
         21    1    1    2  502  501 -0.17939307874E+02 -0.24065744628E+02  0.81466025498E+01  0.31102185850E+02  0.00000000000E+00 0.  1.
<scales pt_clust_4="550.00000" pt_clust_5="550.00000" pt_clust_6="30.01631"></scales>
<mgrwt>
<rscale>  0 0.30000000E+03</rscale>
<asrwt>  1 0.30016309E+02</asrwt>
<pdfrwt beam="1">  1        1 0.83236180E+00 0.30000000E+03</pdfrwt>
<pdfrwt beam="2">0</pdfrwt>
<totfact> 0.58278651E-04</totfact>
</mgrwt>
<clustering>
<clus scale="   30.016">  1  6  2 -1</clus>
<clus scale="  468.715">  4  5 -1 -1</clus>
<clus scale="  300.000">  1  4  2 -1</clus>
</clustering>
</event>
<event>
 6    1  0.9131597E-012  0.3000000E+03  0.7818608E-02  0.1093470E+00
          1   -1    0    0  502    0  0.00000000000E+00  0.00000000000E+00  0.22235453078E+03  0.22235453078E+03  0.00000000000E+00 0.  1.
         13   -1    0    0    0    0 -0.00000000000E+00 -0.00000000000E+00 -0.27500000000E+03  0.27500000000E+03  0.00000000000E+00 0.  1.
    9000005    2    1    2  501    0  0.76254086978E+01  0.35769132790E+02 -0.52204567796E+02  0.46077896363E+03  0.45634894402E+03 0.  0.
         13    1    3    3    0    0 -0.14611994692E+03 -0.27276494787E+02 -0.19256541657E+03  0.24326217485E+03  0.00000000000E+00 0.  1.
          3    1    3    3  501    0  0.15374535562E+03  0.63045627577E+02  0.14036084877E+03  0.21751678878E+03  0.00000000000E+00 0.  1.
         21    1    1    2  502  501 -0.76254086978E+01 -0.35769132790E+02 -0.44090142095E+00  0.36575567151E+02  0.00000000000E+00 0. -1.
<scales pt_clust_4="550.00000" pt_clust_5="550.00000" pt_clust_6="36.57291"></scales>
<mgrwt>
<rscale>  0 0.30000000E+03</rscale>
<asrwt>  1 0.36572910E+02</asrwt>
<pdfrwt beam="1">  1        1 0.80856193E+00 0.30000000E+03</pdfrwt>
<pdfrwt beam="2">0</pdfrwt>
<totfact> 0.88756504E-04</totfact>
</mgrwt>
<clustering>
<clus scale="   36.573">  1  6  2 -1</clus>
<clus scale="  456.349">  4  5 -1 -1</clus>
<clus scale="  300.000">  1  4  2 -1</clus>
</clustering>
</event>
<event>
 6    1  0.9131597E-012  0.3000000E+03  0.7818608E-02  0.1093470E+00
          1   -1    0    0  502    0  0.00000000000E+00  0.00000000000E+00  0.23180037972E+03  0.23180037972E+03  0.00000000000E+00 0.  1.
         13   -1    0    0    0    0 -0.00000000000E+00 -0.00000000000E+00 -0.27500000000E+03  0.27500000000E+03  0.00000000000E+00 0.  1.
    9000005    2    1    2  501    0  0.29949205540E+02 -0.31049306433E+02 -0.45942519079E+02  0.46357379258E+03  0.45926999876E+03 0.  0.
         13    1    3    3    0    0  0.18725339594E+03 -0.14360255611E+03 -0.10926712966E+03  0.26004775337E+03  0.00000000000E+00 0.  1.
          3    1    3    3  501    0 -0.15730419040E+03  0.11255324968E+03  0.63324610578E+02  0.20352603920E+03  0.00000000000E+00 0.  1.
         21    1    1    2  502  501 -0.29949205540E+02  0.31049306433E+02  0.27428988023E+01  0.43226587146E+02  0.00000000000E+00 0. -1.
<scales pt_clust_4="550.00000" pt_clust_5="550.00000" pt_clust_6="43.13948"></scales>
<mgrwt>
<rscale>  0 0.30000000E+03</rscale>
<asrwt>  1 0.43139475E+02</asrwt>
<pdfrwt beam="1">  1        1 0.84291047E+00 0.30000000E+03</pdfrwt>
<pdfrwt beam="2">0</pdfrwt>
<totfact> 0.45314066E-04</totfact>
</mgrwt>
<clustering>
<clus scale="   43.139">  1  6  2 -1</clus>
<clus scale="  459.270">  4  5 -1 -1</clus>
<clus scale="  300.000">  1  4  2 -1</clus>
</clustering>
</event>
<event>
 6    1  0.9131597E-012  0.3000000E+03  0.7818608E-02  0.1093470E+00
          1   -1    0    0  502    0  0.00000000000E+00  0.00000000000E+00  0.23967804550E+03  0.23967804550E+03  0.00000000000E+00 0.  1.
         13   -1    0    0    0    0 -0.00000000000E+00 -0.00000000000E+00 -0.27500000000E+03  0.27500000000E+03  0.00000000000E+00 0.  1.
    9000005    2    1    2  501    0 -0.45024343311E+02  0.15665840273E+02 -0.14788295503E+02  0.46277196499E+03  0.46007237241E+03 0.  0.
         13    1    3    3    0    0 -0.16592383427E+03 -0.71533795183E+02  0.15412344963E+03  0.23749071636E+03  0.00000000000E+00 0.  1.
          3    1    3    3  501    0  0.12089949096E+03  0.87199635455E+02 -0.16891174513E+03  0.22528124862E+03  0.00000000000E+00 0.  1.
         21    1    1    2  502  501  0.45024343311E+02 -0.15665840273E+02 -0.20533659000E+02  0.51906080511E+02  0.00000000000E+00 0. -1.
<scales pt_clust_4="550.00000" pt_clust_5="550.00000" pt_clust_6="47.67192"></scales>
<mgrwt>
<rscale>  0 0.30000000E+03</rscale>
<asrwt>  1 0.47671924E+02</asrwt>
<pdfrwt beam="1">  1        1 0.87155653E+00 0.30000000E+03</pdfrwt>
<pdfrwt beam="2">0</pdfrwt>
<totfact> 0.23081112E-04</totfact>
</mgrwt>
<clustering>
<clus scale="   47.672">  1  6  2 -1</clus>
<clus scale="  460.072">  4  5 -1 -1</clus>
<clus scale="  300.000">  1  4  2 -1</clus>
</clustering>
</event>
<event>
 6    1  0.9131597E-012  0.3000000E+03  0.7818608E-02  0.1093470E+00
          1   -1    0    0  502    0  0.00000000000E+00  0.00000000000E+00  0.24151937090E+03  0.24151937090E+03  0.00000000000E+00 0.  1.
         13   -1    0    0    0    0 -0.00000000000E+00 -0.00000000000E+00 -0.27500000000E+03  0.27500000000E+03  0.00000000000E+00 0.  1.
    9000005    2    1    2  501    0 -0.65077303233E+01 -0.36141623762E+02 -0.19554388443E+02  0.47724459908E+03  0.47542766613E+03 0.  0.
         13    1    3    3    0    0  0.80166290901E+02  0.12740564674E+03 -0.17833900459E+03  0.23337444928E+03  0.00000000000E+00 0.  1.
          1    1    3    3  501    0 -0.86674021224E+02 -0.16354727050E+03  0.15878461614E+03  0.24387014981E+03  0.00000000000E+00 0.  1.
         21    1    1    2  502  501  0.65077303233E+01  0.36141623762E+02 -0.13926240660E+02  0.39274771813E+02  0.00000000000E+00 0. -1.
<scales pt_clust_4="550.00000" pt_clust_5="550.00000" pt_clust_6="36.72287"></scales>
<mgrwt>
<rscale>  0 0.30000000E+03</rscale>
<asrwt>  1 0.36722866E+02</asrwt>
<pdfrwt beam="1">  1        1 0.87825226E+00 0.30000000E+03</pdfrwt>
<pdfrwt beam="2">0</pdfrwt>
<totfact> 0.20526437E-04</totfact>
</mgrwt>
<clustering>
<clus scale="   36.723">  1  6  2 -1</clus>
<clus scale="  475.428">  4  5 -1 -1</clus>
<clus scale="  300.000">  1  4  2 -1</clus>
</clustering>
</event>
<event>
 6    1  0.9131597E-012  0.3000000E+03  0.7818608E-02  0.1093470E+00
          1   -1    0    0  502    0  0.00000000000E+00  0.00000000000E+00  0.23831021505E+03  0.23831021505E+03  0.00000000000E+00 0.  1.
         13   -1    0    0    0    0 -0.00000000000E+00 -0.00000000000E+00 -0.27500000000E+03  0.27500000000E+03  0.00000000000E+00 0.  1.
    9000005    2    1    2  501    0  0.21817688351E+02 -0.30631238621E+02 -0.68273319684E+02  0.46420009419E+03  0.45760921862E+03 0.  0.
         13    1    3    3    0    0 -0.19372954627E+03 -0.11295650903E+03 -0.24780905661E+01  0.22426870259E+03  0.00000000000E+00 0.  1.
          3    1    3    3  501    0  0.21554723462E+03  0.82325270409E+02 -0.65795229118E+02  0.23993139160E+03  0.00000000000E+00 0.  1.
         21    1    1    2  502  501 -0.21817688351E+02  0.30631238621E+02  0.31583534737E+02  0.49110120860E+02  0.00000000000E+00 0.  1.
<scales pt_clust_4="550.00000" pt_clust_5="550.00000" pt_clust_6="37.60697"></scales>
<mgrwt>
<rscale>  0 0.30000000E+03</rscale>
<asrwt>  1 0.37606971E+02</asrwt>
<pdfrwt beam="1">  1        1 0.86658260E+00 0.30000000E+03</pdfrwt>
<pdfrwt beam="2">0</pdfrwt>
<totfact> 0.27114556E-04</totfact>
</mgrwt>
<clustering>
<clus scale="   37.607">  1  6  2 -1</clus>
<clus scale="  457.609">  4  5 -1 -1</clus>
<clus scale="  300.000">  1  4  2 -1</clus>
</clustering>
</event>
<event>
 6    1  0.9131597E-012  0.3000000E+03  0.7818608E-02  0.1093470E+00
          1   -1    0    0  502    0  0.00000000000E+00  0.00000000000E+00  0.23515545574E+03  0.23515545574E+03  0.00000000000E+00 0.  1.
         13   -1    0    0    0    0 -0.00000000000E+00 -0.00000000000E+00 -0.27500000000E+03  0.27500000000E+03  0.00000000000E+00 0.  1.
    9000005    2    1    2  501    0  0.30093402890E+02  0.10600443091E+02 -0.35293790170E+02  0.47792671617E+03  0.47555263864E+03 0.  0.
         13    1    3    3    0    0 -0.61539039995E+02  0.21021808826E+03  0.75800392280E+02  0.23178524014E+03  0.00000000000E+00 0.  1.
          1    1    3    3  501    0  0.91632442884E+02 -0.19961764517E+03 -0.11109418245E+03  0.24614147604E+03  0.00000000000E+00 0.  1.
         21    1    1    2  502  501 -0.30093402890E+02 -0.10600443091E+02 -0.45507540900E+01  0.32228739566E+02  0.00000000000E+00 0.  1.
<scales pt_clust_4="550.00000" pt_clust_5="550.00000" pt_clust_6="31.90585"></scales>
<mgrwt>
<rscale>  0 0.30000000E+03</rscale>
<asrwt>  1 0.31905851E+02</asrwt>
<pdfrwt beam="1">  1        1 0.85511075E+00 0.30000000E+03</pdfrwt>
<pdfrwt beam="2">0</pdfrwt>
<totfact> 0.36981667E-04</totfact>
</mgrwt>
<clustering>
<clus scale="   31.906">  1  6  2 -1</clus>
<clus scale="  475.553">  4  5 -1 -1</clus>
<clus scale="  300.000">  1  4  2 -1</clus>
</clustering>
</event>
<event>
 6    1  0.9131597E-012  0.3000000E+03  0.7818608E-02  0.1093470E+00
          1   -1    0    0  502    0  0.00000000000E+00  0.00000000000E+00  0.23974841967E+03  0.23974841967E+03  0.00000000000E+00 0.  1.
         13   -1    0    0    0    0 -0.00000000000E+00 -0.00000000000E+00 -0.27500000000E+03  0.27500000000E+03  0.00000000000E+00 0.  1.
    9000005    2    1    2  501    0  0.26236540318E+02  0.27201836806E+02 -0.46853285159E+02  0.47521494615E+03  0.47138701588E+03 0.  0.
         13    1    3    3    0    0 -0.12323075867E+03 -0.17937080846E+03 -0.13130640780E+02  0.21801862429E+03  0.00000000000E+00 0.  1.
          3    1    3    3  501    0  0.14946729899E+03  0.20657264526E+03 -0.33722644379E+02  0.25719632187E+03  0.00000000000E+00 0.  1.
         21    1    1    2  502  501 -0.26236540318E+02 -0.27201836806E+02  0.11601704832E+02  0.39533473519E+02  0.00000000000E+00 0.  1.
<scales pt_clust_4="550.00000" pt_clust_5="550.00000" pt_clust_6="37.79280"></scales>
<mgrwt>
<rscale>  0 0.30000000E+03</rscale>
<asrwt>  1 0.37792803E+02</asrwt>
<pdfrwt beam="1">  1        1 0.87181244E+00 0.30000000E+03</pdfrwt>
<pdfrwt beam="2">0</pdfrwt>
<totfact> 0.23925031E-04</totfact>
</mgrwt>
<clustering>
<clus scale="   37.793">  1  6  2 -1</clus>
<clus scale="  471.387">  4  5 -1 -1</clus>
<clus scale="  300.000">  1  4  2 -1</clus>
</clustering>
</event>
<event>
 6    1  0.9131597E-012  0.3000000E+03  0.7818608E-02  0.1093470E+00
          1   -1    0    0  502    0  0.00000000000E+00  0.00000000000E+00  0.24236443426E+03  0.24236443426E+03  0.00000000000E+00 0.  1.
         13   -1    0    0    0    0 -0.00000000000E+00 -0.00000000000E+00 -0.27500000000E+03  0.27500000000E+03  0.00000000000E+00 0.  1.
    9000005    2    1    2  501    0 -0.31878471225E+01 -0.43036189108E+02 -0.52271827912E+02  0.46995284565E+03  0.46503876957E+03 0.  0.
         13    1    3    3    0    0 -0.23028698936E+03 -0.42119667635E+02 -0.63526174476E+02  0.24257316157E+03  0.00000000000E+00 0.  1.
          3    1    3    3  501    0  0.22709914224E+03 -0.91652147333E+00  0.11254346564E+02  0.22737968408E+03  0.00000000000E+00 0.  1.
         21    1    1    2  502  501  0.31878471225E+01  0.43036189108E+02  0.19636262172E+02  0.47411588608E+02  0.00000000000E+00 0.  1.
<scales pt_clust_4="550.00000" pt_clust_5="550.00000" pt_clust_6="43.15410"></scales>
<mgrwt>
<rscale>  0 0.30000000E+03</rscale>
<asrwt>  1 0.43154095E+02</asrwt>
<pdfrwt beam="1">  1        1 0.88132522E+00 0.30000000E+03</pdfrwt>
<pdfrwt beam="2">0</pdfrwt>
<totfact> 0.18278919E-04</totfact>
</mgrwt>
<clustering>
<clus scale="   43.154">  1  6  2 -1</clus>
<clus scale="  465.039">  4  5 -1 -1</clus>
<clus scale="  300.000">  1  4  2 -1</clus>
</clustering>
</event>
<event>
 6    1  0.9131597E-012  0.3000000E+03  0.7818608E-02  0.1093470E+00
          1   -1    0    0  502    0  0.00000000000E+00  0.00000000000E+00  0.24402893665E+03  0.24402893665E+03  0.00000000000E+00 0.  1.
         13   -1    0    0    0    0 -0.00000000000E+00 -0.00000000000E+00 -0.27500000000E+03  0.27500000000E+03  0.00000000000E+00 0.  1.
    9000005    2    1    2  501    0 -0.40264957414E+02  0.10663646309E+02 -0.45167655015E+02  0.47502298975E+03  0.47103263537E+03 0.  0.
         13    1    3    3    0    0 -0.17212139664E+03 -0.14579494622E+03  0.75027893413E+02  0.23772068971E+03  0.00000000000E+00 0.  1.
          1    1    3    3  501    0  0.13185643923E+03  0.15645859253E+03 -0.12019554843E+03  0.23730230004E+03  0.00000000000E+00 0.  1.
         21    1    1    2  502  501  0.40264957414E+02 -0.10663646309E+02  0.14196591668E+02  0.44005946906E+02  0.00000000000E+00 0.  1.
<scales pt_clust_4="550.00000" pt_clust_5="550.00000" pt_clust_6="41.65309"></scales>
<mgrwt>
<rscale>  0 0.30000000E+03</rscale>
<asrwt>  1 0.41653093E+02</asrwt>
<pdfrwt beam="1">  1        1 0.88737795E+00 0.30000000E+03</pdfrwt>
<pdfrwt beam="2">0</pdfrwt>
<totfact> 0.15240859E-04</totfact>
</mgrwt>
<clustering>
<clus scale="   41.653">  1  6  2 -1</clus>
<clus scale="  471.033">  4  5 -1 -1</clus>
<clus scale="  300.000">  1  4  2 -1</clus>
</clustering>
</event>
<event>
 6    1  0.9131597E-012  0.3000000E+03  0.7818608E-02  0.1093470E+00
          1   -1    0    0  502    0  0.00000000000E+00  0.00000000000E+00  0.22845109093E+03  0.22845109093E+03  0.00000000000E+00 0.  1.
         13   -1    0    0    0    0 -0.00000000000E+00 -0.00000000000E+00 -0.27500000000E+03  0.27500000000E+03  0.00000000000E+00 0.  1.
    9000005    2    1    2  501    0 -0.30627758244E+02 -0.85269253263E+01 -0.68113373917E+02  0.46503502431E+03  0.45891979048E+03 0.  0.
         13    1    3    3    0    0 -0.16421948279E+03 -0.17261467942E+03  0.12565414409E+02  0.23858280684E+03  0.00000000000E+00 0.  1.
          3    1    3    3  501    0  0.13359172455E+03  0.16408775409E+03 -0.80678788326E+02  0.22645221747E+03  0.00000000000E+00 0.  1.
         21    1    1    2  502  501  0.30627758244E+02  0.85269253263E+01  0.21564464844E+02  0.38416066620E+02  0.00000000000E+00 0. -1.
<scales pt_clust_4="550.00000" pt_clust_5="550.00000" pt_clust_6="31.79258"></scales>
<mgrwt>
<rscale>  0 0.30000000E+03</rscale>
<asrwt>  1 0.31792578E+02</asrwt>
<pdfrwt beam="1">  1        1 0.83073124E+00 0.30000000E+03</pdfrwt>
<pdfrwt beam="2">0</pdfrwt>
<totfact> 0.59362982E-04</totfact>
</mgrwt>
<clustering>
<clus scale="   31.793">  1  6  2 -1</clus>
<clus scale="  458.920">  4  5 -1 -1</clus>
<clus scale="  300.000">  1  4  2 -1</clus>
</clustering>
</event>
<event>
 6    1  0.9131597E-012  0.3000000E+03  0.7818608E-02  0.1093470E+00
          1   -1    0    0  502    0  0.00000000000E+00  0.00000000000E+00  0.23623441473E+03  0.23623441473E+03  0.00000000000E+00 0.  1.
         13   -1    0    0    0    0 -0.00000000000E+00 -0.00000000000E+00 -0.27500000000E+03  0.27500000000E+03  0.00000000000E+00 0.  1.
    9000005    2    1    2  501    0  0.35061244606E+02  0.22437894905E+02 -0.21307124985E+02  0.46609520964E+03  0.46374346451E+03 0.  0.
         13    1    3    3    0    0 -0.46534673183E+02 -0.17658220346E+03  0.11086935503E+03  0.21363231093E+03  0.00000000000E+00 0.  1.
          1    1    3    3  501    0  0.81595917789E+02  0.19902009837E+03 -0.13217648002E+03  0.25246289871E+03  0.00000000000E+00 0.  1.
         21    1    1    2  502  501 -0.35061244606E+02 -0.22437894905E+02 -0.17458460283E+02  0.45139205094E+02  0.00000000000E+00 0. -1.
<scales pt_clust_4="550.00000" pt_clust_5="550.00000" pt_clust_6="41.62633"></scales>
<mgrwt>
<rscale>  0 0.30000000E+03</rscale>
<asrwt>  1 0.41626335E+02</asrwt>
<pdfrwt beam="1">  1        1 0.85903424E+00 0.30000000E+03</pdfrwt>
<pdfrwt beam="2">0</pdfrwt>
<totfact> 0.32078982E-04</totfact>
</mgrwt>
<clustering>
<clus scale="   41.626">  1  6  2 -1</clus>
<clus scale="  463.743">  4  5 -1 -1</clus>
<clus scale="  300.000">  1  4  2 -1</clus>
</clustering>
</event>
<event>
 6    1  0.9131597E-012  0.3000000E+03  0.7818608E-02  0.1093470E+00
          1   -1    0    0  502    0  0.00000000000E+00  0.00000000000E+00  0.24942718540E+03  0.24942718540E+03  0.00000000000E+00 0.  1.
         13   -1    0    0    0    0 -0.00000000000E+00 -0.00000000000E+00 -0.27500000000E+03  0.27500000000E+03  0.00000000000E+00 0.  1.
    9000005    2    1    2  501    0  0.22304866719E+01 -0.38743821350E+02 -0.46995140479E+02  0.48009914902E+03  0.47621485791E+03 0.  0.
         13    1    3    3    0    0  0.22656097865E+03 -0.84435357582E+02  0.17018529579E+02  0.24238159378E+03  0.00000000000E+00 0.  1.
          3    1    3    3  501    0 -0.22433049197E+03  0.45691536232E+02 -0.64013670059E+02  0.23771755524E+03  0.00000000000E+00 0.  1.
         21    1    1    2  502  501 -0.22304866719E+01  0.38743821350E+02  0.21422325882E+02  0.44328036386E+02  0.00000000000E+00 0.  1.
<scales pt_clust_4="550.00000" pt_clust_5="550.00000" pt_clust_6="38.80797"></scales>
<mgrwt>
<rscale>  0 0.30000000E+03</rscale>
<asrwt>  1 0.38807973E+02</asrwt>
<pdfrwt beam="1">  1        1 0.90700795E+00 0.30000000E+03</pdfrwt>
<pdfrwt beam="2">0</pdfrwt>
<totfact> 0.82614327E-05</totfact>
</mgrwt>
<clustering>
<clus scale="   38.808">  1  6  2 -1</clus>
<clus scale="  476.215">  4  5 -1 -1</clus>
<clus scale="  300.000">  1  4  2 -1</clus>
</clustering>
</event>
<event>
 6    1  0.9131597E-012  0.3000000E+03  0.7818608E-02  0.1093470E+00
          1   -1    0    0  502    0  0.00000000000E+00  0.00000000000E+00  0.22890111398E+03  0.22890111398E+03  0.00000000000E+00 0.  1.
         13   -1    0    0    0    0 -0.00000000000E+00 -0.00000000000E+00 -0.27500000000E+03  0.27500000000E+03  0.00000000000E+00 0.  1.
    9000005    2    1    2  501    0  0.28143008668E+02 -0.15333135526E+02 -0.51941727321E+02  0.47132393214E+03  0.46735550921E+03 0.  0.
         13    1    3    3    0    0  0.11532963227E+03 -0.97351209706E+02  0.16496005614E+03  0.22358444095E+03  0.00000000000E+00 0.  1.
          1    1    3    3  501    0 -0.87186623602E+02  0.82018074180E+02 -0.21690178347E+03  0.24773949120E+03  0.00000000000E+00 0.  1.
         21    1    1    2  502  501 -0.28143008668E+02  0.15333135526E+02  0.58428413019E+01  0.32577181837E+02  0.00000000000E+00 0.  1.
<scales pt_clust_4="550.00000" pt_clust_5="550.00000" pt_clust_6="32.04893"></scales>
<mgrwt>
<rscale>  0 0.30000000E+03</rscale>
<asrwt>  1 0.32048931E+02</asrwt>
<pdfrwt beam="1">  1        1 0.83236769E+00 0.30000000E+03</pdfrwt>
<pdfrwt beam="2">0</pdfrwt>
<totfact> 0.57546348E-04</totfact>
</mgrwt>
<clustering>
<clus scale="   32.049">  1  6  2 -1</clus>
<clus scale="  467.356">  4  5 -1 -1</clus>
<clus scale="  300.000">  1  4  2 -1</clus>
</clustering>
</event>
<event>
 6    1  0.9131597E-012  0.3000000E+03  0.7818608E-02  0.1093470E+00
          1   -1    0    0  502    0  0.00000000000E+00  0.00000000000E+00  0.22246911367E+03  0.22246911367E+03  0.00000000000E+00 0.  1.
         13   -1    0    0    0    0 -0.00000000000E+00 -0.00000000000E+00 -0.27500000000E+03  0.27500000000E+03  0.00000000000E+00 0.  1.
    9000005    2    1    2  501    0 -0.12284394926E+02  0.30792307591E+02 -0.56312767969E+02  0.46410183637E+03  0.45947830648E+03 0.  0.
         13    1    3    3    0    0  0.42008858535E+02  0.16618671791E+03 -0.19720929500E+03  0.26129346612E+03  0.00000000000E+00 0.  1.
          3    1    3    3  501    0 -0.54293253461E+02 -0.13539441032E+03  0.14089652703E+03  0.20280837025E+03  0.00000000000E+00 0.  1.
         21    1    1    2  502  501  0.12284394926E+02 -0.30792307591E+02  0.37818816373E+01  0.33367277296E+02  0.00000000000E+00 0.  1.
<scales pt_clust_4="550.00000" pt_clust_5="550.00000" pt_clust_6="33.15226"></scales>
<mgrwt>
<rscale>  0 0.30000000E+03</rscale>
<asrwt>  1 0.33152263E+02</asrwt>
<pdfrwt beam="1">  1        1 0.80897860E+00 0.30000000E+03</pdfrwt>
<pdfrwt beam="2">0</pdfrwt>
<totfact> 0.89734168E-04</totfact>
</mgrwt>
<clustering>
<clus scale="   33.152">  1  6  2 -1</clus>
<clus scale="  459.478">  4  5 -1 -1</clus>
<clus scale="  300.000">  1  4  2 -1</clus>
</clustering>
</event>
<event>
 6    1  0.9131597E-012  0.3000000E+03  0.7818608E-02  0.1093470E+00
          1   -1    0    0  502    0  0.00000000000E+00  0.00000000000E+00  0.23477484503E+03  0.23477484503E+03  0.00000000000E+00 0.  1.
         13   -1    0    0    0    0 -0.00000000000E+00 -0.00000000000E+00 -0.27500000000E+03  0.27500000000E+03  0.00000000000E+00 0.  1.
    9000005    2    1    2  501    0  0.73348442400E+01  0.40991332412E+02 -0.58101817289E+02  0.46445747167E+03  0.45892355850E+03 0.  0.
         13    1    3    3    0    0  0.31747174297E+02 -0.94751457226E+02  0.17041091976E+03  0.19754898961E+03  0.00000000000E+00 0.  1.
          1    1    3    3  501    0 -0.24412330058E+02  0.13574278964E+03 -0.22851273705E+03  0.26690848205E+03  0.00000000000E+00 0.  1.
         21    1    1    2  502  501 -0.73348442400E+01 -0.40991332412E+02  0.17876662320E+02  0.45317373364E+02  0.00000000000E+00 0.  1.
<scales pt_clust_4="550.00000" pt_clust_5="550.00000" pt_clust_6="41.64240"></scales>
<mgrwt>
<rscale>  0 0.30000000E+03</rscale>
<asrwt>  1 0.41642398E+02</asrwt>
<pdfrwt beam="1">  1        1 0.85372671E+00 0.30000000E+03</pdfrwt>
<pdfrwt beam="2">0</pdfrwt>
<totfact> 0.36314379E-04</totfact>
</mgrwt>
<clustering>
<clus scale="   41.642">  1  6  2 -1</clus>
<clus scale="  458.924">  4  5 -1 -1</clus>
<clus scale="  300.000">  1  4  2 -1</clus>
</clustering>
</event>
<event>
 6    1  0.9131597E-012  0.3000000E+03  0.7818608E-02  0.1093470E+00
          1   -1    0    0  502    0  0.00000000000E+00  0.00000000000E+00  0.23967361742E+03  0.23967361742E+03  0.00000000000E+00 0.  1.
         13   -1    0    0    0    0 -0.00000000000E+00 -0.00000000000E+00 -0.27500000000E+03  0.27500000000E+03  0.00000000000E+00 0.  1.
    9000005    2    1    2  501    0  0.32111244468E+02  0.26618465587E+01 -0.49674746827E+02  0.47940191481E+03  0.47573143474E+03 0.  0.
         13    1    3    3    0    0 -0.73300504878E+01 -0.52090404758E+02  0.20721998223E+03  0.21379256522E+03  0.00000000000E+00 0.  1.
          1    1    3    3  501    0  0.39441294956E+02  0.54752251317E+02 -0.25689472906E+03  0.26560934959E+03  0.00000000000E+00 0.  1.
         21    1    1    2  502  501 -0.32111244468E+02 -0.26618465587E+01  0.14348364242E+02  0.35271702608E+02  0.00000000000E+00 0.  1.
<scales pt_clust_4="550.00000" pt_clust_5="550.00000" pt_clust_6="32.22138"></scales>
<mgrwt>
<rscale>  0 0.30000000E+03</rscale>
<asrwt>  1 0.32221382E+02</asrwt>
<pdfrwt beam="1">  1        1 0.87154043E+00 0.30000000E+03</pdfrwt>
<pdfrwt beam="2">0</pdfrwt>
<totfact> 0.24808127E-04</totfact>
</mgrwt>
<clustering>
<clus scale="   32.221">  1  6  2 -1</clus>
<clus scale="  475.731">  4  5 -1 -1</clus>
<clus scale="  300.000">  1  4  2 -1</clus>
</clustering>
</event>
<event>
 6    1  0.9131597E-012  0.3000000E+03  0.7818608E-02  0.1093470E+00
          1   -1    0    0  502    0  0.00000000000E+00  0.00000000000E+00  0.23638600341E+03  0.23638600341E+03  0.00000000000E+00 0.  1.
         13   -1    0    0    0    0 -0.00000000000E+00 -0.00000000000E+00 -0.27500000000E+03  0.27500000000E+03  0.00000000000E+00 0.  1.
    9000005    2    1    2  501    0  0.12368223392E+01  0.43877319328E+02 -0.59359206206E+02  0.46283589936E+03  0.45691006281E+03 0.  0.
         13    1    3    3    0    0 -0.16089567852E+03  0.78129194982E+02 -0.18314481781E+03  0.25599534130E+03  0.00000000000E+00 0.  1.
          3    1    3    3  501    0  0.16213250086E+03 -0.34251875654E+02  0.12378561160E+03  0.20684055807E+03  0.00000000000E+00 0.  1.
         21    1    1    2  502  501 -0.12368223392E+01 -0.43877319328E+02  0.20745209615E+02  0.48550104046E+02  0.00000000000E+00 0.  1.
<scales pt_clust_4="550.00000" pt_clust_5="550.00000" pt_clust_6="43.89475"></scales>
<mgrwt>
<rscale>  0 0.30000000E+03</rscale>
<asrwt>  1 0.43894748E+02</asrwt>
<pdfrwt beam="1">  1        1 0.85958547E+00 0.30000000E+03</pdfrwt>
<pdfrwt beam="2">0</pdfrwt>
<totfact> 0.31349047E-04</totfact>
</mgrwt>
<clustering>
<clus scale="   43.895">  1  6  2 -1</clus>
<clus scale="  456.910">  4  5 -1 -1</clus>
<clus scale="  300.000">  1  4  2 -1</clus>
</clustering>
</event>
<event>
 6    1  0.9131597E-012  0.3000000E+03  0.7818608E-02  0.1093470E+00
          1   -1    0    0  502    0  0.00000000000E+00  0.00000000000E+00  0.23052669385E+03  0.23052669385E+03  0.00000000000E+00 0.  1.
         13   -1    0    0    0    0 -0.00000000000E+00 -0.00000000000E+00 -0.27500000000E+03  0.27500000000E+03  0.00000000000E+00 0.  1.
    9000005    2    1    2  501    0 -0.44562034366E+01 -0.30856147344E+02 -0.62419743326E+02  0.46955400719E+03  0.46434123415E+03 0.  0.
         13    1    3    3    0    0 -0.21435716244E+03 -0.22687615052E+02 -0.12650695832E+03  0.24993545461E+03  0.00000000000E+00 0.  1.
          1    1    3    3  501    0  0.20990095901E+03 -0.81685322916E+01  0.64087214999E+02  0.21961855258E+03  0.00000000000E+00 0.  1.
         21    1    1    2  502  501  0.44562034366E+01  0.30856147344E+02  0.17946437174E+02  0.35972686656E+02  0.00000000000E+00 0.  1.
<scales pt_clust_4="550.00000" pt_clust_5="550.00000" pt_clust_6="31.17627"></scales>
<mgrwt>
<rscale>  0 0.30000000E+03</rscale>
<asrwt>  1 0.31176266E+02</asrwt>
<pdfrwt beam="1">  1        1 0.83827889E+00 0.30000000E+03</pdfrwt>
<pdfrwt beam="2">0</pdfrwt>
<totfact> 0.52337042E-04</totfact>
</mgrwt>
<clustering>
<clus scale="   31.176">  1  6  2 -1</clus>
<clus scale="  464.341">  4  5 -1 -1</clus>
<clus scale="  300.000">  1  4  2 -1</clus>
</clustering>
</event>
<event>
 6    1  0.9131597E-012  0.3000000E+03  0.7818608E-02  0.1093470E+00
          1   -1    0    0  502    0  0.00000000000E+00  0.00000000000E+00  0.24539279863E+03  0.24539279863E+03  0.00000000000E+00 0.  1.
         13   -1    0    0    0    0 -0.00000000000E+00 -0.00000000000E+00 -0.27500000000E+03  0.27500000000E+03  0.00000000000E+00 0.  1.
    9000005    2    1    2  501    0 -0.11344520236E+02 -0.28339429647E+02 -0.56627508057E+02  0.47962616539E+03  0.47529229159E+03 0.  0.
         13    1    3    3    0    0  0.20050292579E+03 -0.10713203333E+03  0.45105089385E+02  0.23176100816E+03  0.00000000000E+00 0.  1.
          1    1    3    3  501    0 -0.21184744603E+03  0.78792603687E+02 -0.10173259744E+03  0.24786515723E+03  0.00000000000E+00 0.  1.
         21    1    1    2  502  501  0.11344520236E+02  0.28339429647E+02  0.27020306683E+02  0.40766633236E+02  0.00000000000E+00 0.  1.
<scales pt_clust_4="550.00000" pt_clust_5="550.00000" pt_clust_6="30.52575"></scales>
<mgrwt>
<rscale>  0 0.30000000E+03</rscale>
<asrwt>  1 0.30525750E+02</asrwt>
<pdfrwt beam="1">  1        1 0.89233745E+00 0.30000000E+03</pdfrwt>
<pdfrwt beam="2">0</pdfrwt>
<totfact> 0.13892084E-04</totfact>
</mgrwt>
<clustering>
<clus scale="   30.526">  1  6  2 -1</clus>
<clus scale="  475.292">  4  5 -1 -1</clus>
<clus scale="  300.000">  1  4  2 -1</clus>
</clustering>
</event>
<event>
 6    1  0.9131597E-012  0.3000000E+03  0.7818608E-02  0.1093470E+00
          1   -1    0    0  502    0  0.00000000000E+00  0.00000000000E+00  0.22672176183E+03  0.22672176183E+03  0.00000000000E+00 0.  1.
         13   -1    0    0    0    0 -0.00000000000E+00 -0.00000000000E+00 -0.27500000000E+03  0.27500000000E+03  0.00000000000E+00 0.  1.
    9000005    2    1    2  501    0  0.20027479508E+02 -0.26673026793E+02 -0.45825335170E+02  0.46827677676E+03  0.46483397898E+03 0.  0.
         13    1    3    3    0    0 -0.88356985590E+02  0.19366963417E+03 -0.63339441214E+02  0.22209630550E+03  0.00000000000E+00 0.  1.
          1    1    3    3  501    0  0.10838446510E+03 -0.22034266097E+03  0.17514106044E+02  0.24618047125E+03  0.00000000000E+00 0.  1.
         21    1    1    2  502  501 -0.20027479508E+02  0.26673026793E+02 -0.24529029966E+01  0.33444985078E+02  0.00000000000E+00 0.  1.
<scales pt_clust_4="550.00000" pt_clust_5="550.00000" pt_clust_6="33.35491"></scales>
<mgrwt>
<rscale>  0 0.30000000E+03</rscale>
<asrwt>  1 0.33354914E+02</asrwt>
<pdfrwt beam="1">  1        1 0.82444277E+00 0.30000000E+03</pdfrwt>
<pdfrwt beam="2">0</pdfrwt>
<totfact> 0.66670347E-04</totfact>
</mgrwt>
<clustering>
<clus scale="   33.355">  1  6  2 -1</clus>
<clus scale="  464.834">  4  5 -1 -1</clus>
<clus scale="  300.000">  1  4  2 -1</clus>
</clustering>
</event>
<event>
 6    1  0.9131597E-012  0.3000000E+03  0.7818608E-02  0.1093470E+00
          1   -1    0    0  502    0  0.00000000000E+00  0.00000000000E+00  0.24130308386E+03  0.24130308386E+03  0.00000000000E+00 0.  1.
         13   -1    0    0    0    0 -0.00000000000E+00 -0.00000000000E+00 -0.27500000000E+03  0.27500000000E+03  0.00000000000E+00 0.  1.
    9000005    2    1    2  501    0 -0.37002034251E+02 -0.92353457139E+01 -0.70375754745E+02  0.46339014262E+03  0.45642440258E+03 0.  0.
         13    1    3    3    0    0  0.12505948885E+03  0.29115082040E+02 -0.20994714732E+03  0.24610032186E+03  0.00000000000E+00 0.  1.
          1    1    3    3  501    0 -0.16206152311E+03 -0.38350427754E+02  0.13957139257E+03  0.21728982076E+03  0.00000000000E+00 0.  1.
         21    1    1    2  502  501  0.37002034251E+02  0.92353457139E+01  0.36678838604E+02  0.52912941239E+02  0.00000000000E+00 0. -1.
<scales pt_clust_4="550.00000" pt_clust_5="550.00000" pt_clust_6="38.13715"></scales>
<mgrwt>
<rscale>  0 0.30000000E+03</rscale>
<asrwt>  1 0.38137149E+02</asrwt>
<pdfrwt beam="1">  1        1 0.87746576E+00 0.30000000E+03</pdfrwt>
<pdfrwt beam="2">0</pdfrwt>
<totfact> 0.20809681E-04</totfact>
</mgrwt>
<clustering>
<clus scale="   38.137">  1  6  2 -1</clus>
<clus scale="  456.424">  4  5 -1 -1</clus>
<clus scale="  300.000">  1  4  2 -1</clus>
</clustering>
</event>
<event>
 6    1  0.9131597E-012  0.3000000E+03  0.7818608E-02  0.1093470E+00
          1   -1    0    0  502    0  0.00000000000E+00  0.00000000000E+00  0.24474770478E+03  0.24474770478E+03  0.00000000000E+00 0.  1.
         13   -1    0    0    0    0 -0.00000000000E+00 -0.00000000000E+00 -0.27500000000E+03  0.27500000000E+03  0.00000000000E+00 0.  1.
    9000005    2    1    2  501    0  0.45757313211E+02  0.51127675024E+01 -0.60063269876E+02  0.46489730539E+03  0.45869601706E+03 0.  0.
         13    1    3    3    0    0 -0.90133977878E+02 -0.12753106834E+03  0.12477700259E+03  0.19989399124E+03  0.00000000000E+00 0.  1.
          1    1    3    3  501    0  0.13589129109E+03  0.13264383584E+03 -0.18484027247E+03  0.26500331414E+03  0.00000000000E+00 0.  1.
         21    1    1    2  502  501 -0.45757313211E+02 -0.51127675024E+01  0.29810974658E+02  0.54850399396E+02  0.00000000000E+00 0.  1.
<scales pt_clust_4="550.00000" pt_clust_5="550.00000" pt_clust_6="46.04207"></scales>
<mgrwt>
<rscale>  0 0.30000000E+03</rscale>
<asrwt>  1 0.46042069E+02</asrwt>
<pdfrwt beam="1">  1        1 0.88999165E+00 0.30000000E+03</pdfrwt>
<pdfrwt beam="2">0</pdfrwt>
<totfact> 0.13791914E-04</totfact>
</mgrwt>
<clustering>
<clus scale="   46.042">  1  6  2 -1</clus>
<clus scale="  458.696">  4  5 -1 -1</clus>
<clus scale="  300.000">  1  4  2 -1</clus>
</clustering>
</event>
<event>
 6    1  0.9131597E-012  0.3000000E+03  0.7818608E-02  0.1093470E+00
          1   -1    0    0  502    0  0.00000000000E+00  0.00000000000E+00  0.24388216477E+03  0.24388216477E+03  0.00000000000E+00 0.  1.
         13   -1    0    0    0    0 -0.00000000000E+00 -0.00000000000E+00 -0.27500000000E+03  0.27500000000E+03  0.00000000000E+00 0.  1.
    9000005    2    1    2  501    0  0.43461418271E+02 -0.27398766901E+02 -0.42606718835E+02  0.46623635058E+03  0.46143408500E+03 0.  0.
         13    1    3    3    0    0  0.29777974013E+02  0.39336788024E+02 -0.24643499342E+03  0.25132512133E+03  0.00000000000E+00 0.  1.
          1    1    3    3  501    0  0.13683444258E+02 -0.66735554925E+02  0.20382827458E+03  0.21491122925E+03  0.00000000000E+00 0.  1.
         21    1    1    2  502  501 -0.43461418271E+02  0.27398766901E+02  0.11488883606E+02  0.52645814196E+02  0.00000000000E+00 0.  1.
<scales pt_clust_4="550.00000" pt_clust_5="550.00000" pt_clust_6="51.37691"></scales>
<mgrwt>
<rscale>  0 0.30000000E+03</rscale>
<asrwt>  1 0.51376914E+02</asrwt>
<pdfrwt beam="1">  1        1 0.88684424E+00 0.30000000E+03</pdfrwt>
<pdfrwt beam="2">0</pdfrwt>
<totfact> 0.14934112E-04</totfact>
</mgrwt>
<clustering>
<clus scale="   51.377">  1  6  2 -1</clus>
<clus scale="  461.434">  4  5 -1 -1</clus>
<clus scale="  300.000">  1  4  2 -1</clus>
</clustering>
</event>
<event>
 6    1  0.9131597E-012  0.3000000E+03  0.7818608E-02  0.1093470E+00
          1   -1    0    0  502    0  0.00000000000E+00  0.00000000000E+00  0.23709169366E+03  0.23709169366E+03  0.00000000000E+00 0.  1.
         13   -1    0    0    0    0 -0.00000000000E+00 -0.00000000000E+00 -0.27500000000E+03  0.27500000000E+03  0.00000000000E+00 0.  1.
    9000005    2    1    2  501    0  0.40765247760E+02  0.17279561858E+02 -0.54964740135E+02  0.46464371566E+03  0.45925186027E+03 0.  0.
         13    1    3    3    0    0 -0.13595937177E+03 -0.14355319778E+03  0.49551220077E+02  0.20383276178E+03  0.00000000000E+00 0.  1.
          3    1    3    3  501    0  0.17672461953E+03  0.16083275964E+03 -0.10451596021E+03  0.26081095387E+03  0.00000000000E+00 0.  1.
         21    1    1    2  502  501 -0.40765247760E+02 -0.17279561858E+02  0.17056433797E+02  0.47447978006E+02  0.00000000000E+00 0.  1.
<scales pt_clust_4="550.00000" pt_clust_5="550.00000" pt_clust_6="44.27628"></scales>
<mgrwt>
<rscale>  0 0.30000000E+03</rscale>
<asrwt>  1 0.44276277E+02</asrwt>
<pdfrwt beam="1">  1        1 0.86215161E+00 0.30000000E+03</pdfrwt>
<pdfrwt beam="2">0</pdfrwt>
<totfact> 0.29377056E-04</totfact>
</mgrwt>
<clustering>
<clus scale="   44.276">  1  6  2 -1</clus>
<clus scale="  459.252">  4  5 -1 -1</clus>
<clus scale="  300.000">  1  4  2 -1</clus>
</clustering>
</event>
<event>
 6    1  0.9131597E-012  0.3000000E+03  0.7818608E-02  0.1093470E+00
          1   -1    0    0  502    0  0.00000000000E+00  0.00000000000E+00  0.23224078017E+03  0.23224078017E+03  0.00000000000E+00 0.  1.
         13   -1    0    0    0    0 -0.00000000000E+00 -0.00000000000E+00 -0.27500000000E+03  0.27500000000E+03  0.00000000000E+00 0.  1.
    9000005    2    1    2  501    0 -0.18369078821E+02  0.24069054756E+02 -0.63408099031E+02  0.47059219676E+03  0.46531675897E+03 0.  0.
         13    1    3    3    0    0  0.47809090819E+02 -0.20109756880E+03 -0.10563892116E+03  0.23213255481E+03  0.00000000000E+00 0.  1.
          1    1    3    3  501    0 -0.66178169640E+02  0.22516662355E+03  0.42230822128E+02  0.23845964195E+03  0.00000000000E+00 0.  1.
         21    1    1    2  502  501  0.18369078821E+02 -0.24069054756E+02  0.20648879197E+02  0.36648583406E+02  0.00000000000E+00 0.  1.
<scales pt_clust_4="550.00000" pt_clust_5="550.00000" pt_clust_6="30.27776"></scales>
<mgrwt>
<rscale>  0 0.30000000E+03</rscale>
<asrwt>  1 0.30277755E+02</asrwt>
<pdfrwt beam="1">  1        1 0.84451193E+00 0.30000000E+03</pdfrwt>
<pdfrwt beam="2">0</pdfrwt>
<totfact> 0.46897680E-04</totfact>
</mgrwt>
<clustering>
<clus scale="   30.278">  1  6  2 -1</clus>
<clus scale="  465.317">  4  5 -1 -1</clus>
<clus scale="  300.000">  1  4  2 -1</clus>
</clustering>
</event>
<event>
 6    1  0.9131597E-012  0.3000000E+03  0.7818608E-02  0.1093470E+00
          1   -1    0    0  502    0  0.00000000000E+00  0.00000000000E+00  0.23171464709E+03  0.23171464709E+03  0.00000000000E+00 0.  1.
         13   -1    0    0    0    0 -0.00000000000E+00 -0.00000000000E+00 -0.27500000000E+03  0.27500000000E+03  0.00000000000E+00 0.  1.
    9000005    2    1    2  501    0 -0.26871511804E+02  0.21503523533E+02 -0.55689858562E+02  0.47013116131E+03  0.46555071563E+03 0.  0.
         13    1    3    3    0    0  0.75526456618E+02 -0.12996568166E+03  0.13780100658E+03  0.20392263600E+03  0.00000000000E+00 0.  1.
          1    1    3    3  501    0 -0.10239796842E+03  0.15146920519E+03 -0.19349086514E+03  0.26620852532E+03  0.00000000000E+00 0.  1.
         21    1    1    2  502  501  0.26871511804E+02 -0.21503523533E+02  0.12404505650E+02  0.36583485774E+02  0.00000000000E+00 0.  1.
<scales pt_clust_4="550.00000" pt_clust_5="550.00000" pt_clust_6="34.41627"></scales>
<mgrwt>
<rscale>  0 0.30000000E+03</rscale>
<asrwt>  1 0.34416270E+02</asrwt>
<pdfrwt beam="1">  1        1 0.84259872E+00 0.30000000E+03</pdfrwt>
<pdfrwt beam="2">0</pdfrwt>
<totfact> 0.47520042E-04</totfact>
</mgrwt>
<clustering>
<clus scale="   34.416">  1  6  2 -1</clus>
<clus scale="  465.551">  4  5 -1 -1</clus>
<clus scale="  300.000">  1  4  2 -1</clus>
</clustering>
</event>
<event>
 6    1  0.9131597E-012  0.3000000E+03  0.7818608E-02  0.1093470E+00
          1   -1    0    0  502    0  0.00000000000E+00  0.00000000000E+00  0.23190338677E+03  0.23190338677E+03  0.00000000000E+00 0.  1.
         13   -1    0    0    0    0 -0.00000000000E+00 -0.00000000000E+00 -0.27500000000E+03  0.27500000000E+03  0.00000000000E+00 0.  1.
    9000005    2    1    2  501    0 -0.22360343645E+02  0.24045690687E+02 -0.41668296833E+02  0.47403668179E+03  0.47105875272E+03 0.  0.
         13    1    3    3    0    0  0.19292171415E+03  0.16102563407E+00  0.97921773776E+02  0.21635038132E+03  0.00000000000E+00 0.  1.
          1    1    3    3  501    0 -0.21528205780E+03  0.23884665053E+02 -0.13959007061E+03  0.25768630046E+03  0.00000000000E+00 0.  1.
         21    1    1    2  502  501  0.22360343645E+02 -0.24045690687E+02 -0.14283163997E+01  0.32866704981E+02  0.00000000000E+00 0.  1.
<scales pt_clust_4="550.00000" pt_clust_5="550.00000" pt_clust_6="32.83565"></scales>
<mgrwt>
<rscale>  0 0.30000000E+03</rscale>
<asrwt>  1 0.32835655E+02</asrwt>
<pdfrwt beam="1">  1        1 0.84328504E+00 0.30000000E+03</pdfrwt>
<pdfrwt beam="2">0</pdfrwt>
<totfact> 0.47309255E-04</totfact>
</mgrwt>
<clustering>
<clus scale="   32.836">  1  6  2 -1</clus>
<clus scale="  471.059">  4  5 -1 -1</clus>
<clus scale="  300.000">  1  4  2 -1</clus>
</clustering>
</event>
<event>
 6    1  0.9131597E-012  0.3000000E+03  0.7818608E-02  0.1093470E+00
          1   -1    0    0  502    0  0.00000000000E+00  0.00000000000E+00  0.25868738164E+03  0.25868738164E+03  0.00000000000E+00 0.  1.
         13   -1    0    0    0    0 -0.00000000000E+00 -0.00000000000E+00 -0.27500000000E+03  0.27500000000E+03  0.00000000000E+00 0.  1.
    9000005    2    1    2  501    0  0.40071426817E+01  0.34297705451E+02 -0.46950683967E+02  0.48752375033E+03  0.48402753085E+03 0.  0.
         13    1    3    3    0    0 -0.22242226672E+03 -0.67049786344E+02  0.11721083303E+02  0.23260421831E+03  0.00000000000E+00 0.  1.
          1    1    3    3  501    0  0.22642940940E+03  0.10134749180E+03 -0.58671767269E+02  0.25491953202E+03  0.00000000000E+00 0.  1.
         21    1    1    2  502  501 -0.40071426817E+01 -0.34297705451E+02  0.30638065609E+02  0.46163631313E+02  0.00000000000E+00 0. -1.
<scales pt_clust_4="550.00000" pt_clust_5="550.00000" pt_clust_6="34.53100"></scales>
<mgrwt>
<rscale>  0 0.30000000E+03</rscale>
<asrwt>  1 0.34530998E+02</asrwt>
<pdfrwt beam="1">  1        1 0.94068139E+00 0.30000000E+03</pdfrwt>
<pdfrwt beam="2">0</pdfrwt>
<totfact> 0.18699130E-05</totfact>
</mgrwt>
<clustering>
<clus scale="   34.531">  1  6  2 -1</clus>
<clus scale="  484.028">  4  5 -1 -1</clus>
<clus scale="  300.000">  1  4  2 -1</clus>
</clustering>
</event>
<event>
 6    1  0.9131597E-012  0.3000000E+03  0.7818608E-02  0.1093470E+00
          1   -1    0    0  502    0  0.00000000000E+00  0.00000000000E+00  0.22998538719E+03  0.22998538719E+03  0.00000000000E+00 0.  1.
         13   -1    0    0    0    0 -0.00000000000E+00 -0.00000000000E+00 -0.27500000000E+03  0.27500000000E+03  0.00000000000E+00 0.  1.
    9000005    2    1    2  501    0 -0.32506935270E+02  0.35024394723E+01 -0.52753078946E+02  0.47138699763E+03  0.46728347529E+03 0.  0.
         13    1    3    3    0    0  0.13923091789E+03  0.12742568861E+03 -0.14734368540E+03  0.23944251135E+03  0.00000000000E+00 0.  1.
          1    1    3    3  501    0 -0.17173785316E+03 -0.12392324914E+03  0.94590606451E+02  0.23194448628E+03  0.00000000000E+00 0.  1.
         21    1    1    2  502  501  0.32506935270E+02 -0.35024394723E+01  0.77384661386E+01  0.33598389560E+02  0.00000000000E+00 0.  1.
<scales pt_clust_4="550.00000" pt_clust_5="550.00000" pt_clust_6="32.69507"></scales>
<mgrwt>
<rscale>  0 0.30000000E+03</rscale>
<asrwt>  1 0.32695075E+02</asrwt>
<pdfrwt beam="1">  1        1 0.83631050E+00 0.30000000E+03</pdfrwt>
<pdfrwt beam="2">0</pdfrwt>
<totfact> 0.53608293E-04</totfact>
</mgrwt>
<clustering>
<clus scale="   32.695">  1  6  2 -1</clus>
<clus scale="  467.283">  4  5 -1 -1</clus>
<clus scale="  300.000">  1  4  2 -1</clus>
</clustering>
</event>
<event>
 6    1  0.9131597E-012  0.3000000E+03  0.7818608E-02  0.1093470E+00
          1   -1    0    0  502    0  0.00000000000E+00  0.00000000000E+00  0.22825565991E+03  0.22825565991E+03  0.00000000000E+00 0.  1.
         13   -1    0    0    0    0 -0.00000000000E+00 -0.00000000000E+00 -0.27500000000E+03  0.27500000000E+03  0.00000000000E+00 0.  1.
    9000005    2    1    2  501    0  0.33469411881E+02  0.23720037799E+01 -0.66446456153E+02  0.46434549015E+03  0.45834023907E+03 0.  0.
         13    1    3    3    0    0  0.10264134908E+03  0.10108907296E+03  0.15537655519E+03  0.21188704801E+03  0.00000000000E+00 0.  1.
          3    1    3    3  501    0 -0.69171937199E+02 -0.98717069183E+02 -0.22182301134E+03  0.25245844213E+03  0.00000000000E+00 0.  1.
         21    1    1    2  502  501 -0.33469411881E+02 -0.23720037799E+01  0.19702116067E+02  0.38910169765E+02  0.00000000000E+00 0.  1.
<scales pt_clust_4="550.00000" pt_clust_5="550.00000" pt_clust_6="33.55336"></scales>
<mgrwt>
<rscale>  0 0.30000000E+03</rscale>
<asrwt>  1 0.33553359E+02</asrwt>
<pdfrwt beam="1">  1        1 0.83002058E+00 0.30000000E+03</pdfrwt>
<pdfrwt beam="2">0</pdfrwt>
<totfact> 0.59548043E-04</totfact>
</mgrwt>
<clustering>
<clus scale="   33.553">  1  6  2 -1</clus>
<clus scale="  458.340">  4  5 -1 -1</clus>
<clus scale="  300.000">  1  4  2 -1</clus>
</clustering>
</event>
<event>
 6    1  0.9131597E-012  0.3000000E+03  0.7818608E-02  0.1093470E+00
          1   -1    0    0  502    0  0.00000000000E+00  0.00000000000E+00  0.24654648447E+03  0.24654648447E+03  0.00000000000E+00 0.  1.
         13   -1    0    0    0    0 -0.00000000000E+00 -0.00000000000E+00 -0.27500000000E+03  0.27500000000E+03  0.00000000000E+00 0.  1.
    9000005    2    1    2  501    0  0.36655222436E+02  0.75891174382E+01 -0.69138798457E+02  0.46626093227E+03  0.45958446827E+03 0.  0.
         13    1    3    3    0    0 -0.11712683163E+03  0.18945820736E+03 -0.40200042189E+02  0.22633857475E+03  0.00000000000E+00 0.  1.
          1    1    3    3  501    0  0.15378205407E+03 -0.18186908993E+03 -0.28938756269E+02  0.23992235752E+03  0.00000000000E+00 0.  1.
         21    1    1    2  502  501 -0.36655222436E+02 -0.75891174382E+01  0.40685282923E+02  0.55285552198E+02  0.00000000000E+00 0.  1.
<scales pt_clust_4="550.00000" pt_clust_5="550.00000" pt_clust_6="37.43261"></scales>
<mgrwt>
<rscale>  0 0.30000000E+03</rscale>
<asrwt>  1 0.37432607E+02</asrwt>
<pdfrwt beam="1">  1        1 0.89653267E+00 0.30000000E+03</pdfrwt>
<pdfrwt beam="2">0</pdfrwt>
<totfact> 0.11971755E-04</totfact>
</mgrwt>
<clustering>
<clus scale="   37.433">  1  6  2 -1</clus>
<clus scale="  459.584">  4  5 -1 -1</clus>
<clus scale="  300.000">  1  4  2 -1</clus>
</clustering>
</event>
<event>
 6    1  0.9131597E-012  0.3000000E+03  0.7818608E-02  0.1093470E+00
          1   -1    0    0  502    0  0.00000000000E+00  0.00000000000E+00  0.24558562291E+03  0.24558562291E+03  0.00000000000E+00 0.  1.
         13   -1    0    0    0    0 -0.00000000000E+00 -0.00000000000E+00 -0.27500000000E+03  0.27500000000E+03  0.00000000000E+00 0.  1.
    9000005    2    1    2  501    0 -0.19489677609E+02 -0.23901567883E+02 -0.73124343778E+02  0.46709082252E+03  0.46029939643E+03 0.  0.
         13    1    3    3    0    0 -0.49714014706E+02 -0.76766718283E+02  0.18259580409E+03  0.20422007728E+03  0.00000000000E+00 0.  1.
          1    1    3    3  501    0  0.30224337097E+02  0.52865150400E+02 -0.25572014787E+03  0.26287074524E+03  0.00000000000E+00 0.  1.
         21    1    1    2  502  501  0.19489677609E+02  0.23901567883E+02  0.43709966684E+02  0.53494800384E+02  0.00000000000E+00 0.  1.
<scales pt_clust_4="550.00000" pt_clust_5="550.00000" pt_clust_6="30.84044"></scales>
<mgrwt>
<rscale>  0 0.30000000E+03</rscale>
<asrwt>  1 0.30840436E+02</asrwt>
<pdfrwt beam="1">  1        1 0.89303863E+00 0.30000000E+03</pdfrwt>
<pdfrwt beam="2">0</pdfrwt>
<totfact> 0.13600446E-04</totfact>
</mgrwt>
<clustering>
<clus scale="   30.840">  1  6  2 -1</clus>
<clus scale="  460.299">  4  5 -1 -1</clus>
<clus scale="  300.000">  1  4  2 -1</clus>
</clustering>
</event>
<event>
 6    1  0.9131597E-012  0.3000000E+03  0.7818608E-02  0.1093470E+00
          1   -1    0    0  502    0  0.00000000000E+00  0.00000000000E+00  0.23014768719E+03  0.23014768719E+03  0.00000000000E+00 0.  1.
         13   -1    0    0    0    0 -0.00000000000E+00 -0.00000000000E+00 -0.27500000000E+03  0.27500000000E+03  0.00000000000E+00 0.  1.
    9000005    2    1    2  501    0 -0.33484737289E+02  0.23482710677E+01 -0.57801858779E+02  0.46916946115E+03  0.46438366292E+03 0.  0.
         13    1    3    3    0    0  0.17742632625E+03  0.87355897577E+02 -0.12264415692E+03  0.23270741998E+03  0.00000000000E+00 0.  1.
          1    1    3    3  501    0 -0.21091106353E+03 -0.85007626509E+02  0.64842298139E+02  0.23646204117E+03  0.00000000000E+00 0.  1.
         21    1    1    2  502  501  0.33484737289E+02 -0.23482710677E+01  0.12949545967E+02  0.35978226042E+02  0.00000000000E+00 0.  1.
<scales pt_clust_4="550.00000" pt_clust_5="550.00000" pt_clust_6="33.56698"></scales>
<mgrwt>
<rscale>  0 0.30000000E+03</rscale>
<asrwt>  1 0.33566978E+02</asrwt>
<pdfrwt beam="1">  1        1 0.83690068E+00 0.30000000E+03</pdfrwt>
<pdfrwt beam="2">0</pdfrwt>
<totfact> 0.52818934E-04</totfact>
</mgrwt>
<clustering>
<clus scale="   33.567">  1  6  2 -1</clus>
<clus scale="  464.384">  4  5 -1 -1</clus>
<clus scale="  300.000">  1  4  2 -1</clus>
</clustering>
</event>
<event>
 6    1  0.9131597E-012  0.3000000E+03  0.7818608E-02  0.1093470E+00
          1   -1    0    0  502    0  0.00000000000E+00  0.00000000000E+00  0.23863196103E+03  0.23863196103E+03  0.00000000000E+00 0.  1.
         13   -1    0    0    0    0 -0.00000000000E+00 -0.00000000000E+00 -0.27500000000E+03  0.27500000000E+03  0.00000000000E+00 0.  1.
    9000005    2    1    2  501    0 -0.21593381118E+02  0.28577601114E+02 -0.61841512142E+02  0.46967913144E+03  0.46421025462E+03 0.  0.
         13    1    3    3    0    0  0.14062274743E+03 -0.11101461097E+03  0.96465811546E+02  0.20348133512E+03  0.00000000000E+00 0.  1.
          1    1    3    3  501    0 -0.16221612855E+03  0.13959221208E+03 -0.15830732369E+03  0.26619779633E+03  0.00000000000E+00 0.  1.
         21    1    1    2  502  501  0.21593381118E+02 -0.28577601114E+02  0.25473473175E+02  0.43952829592E+02  0.00000000000E+00 0.  1.
<scales pt_clust_4="550.00000" pt_clust_5="550.00000" pt_clust_6="35.81834"></scales>
<mgrwt>
<rscale>  0 0.30000000E+03</rscale>
<asrwt>  1 0.35818339E+02</asrwt>
<pdfrwt beam="1">  1        1 0.86775259E+00 0.30000000E+03</pdfrwt>
<pdfrwt beam="2">0</pdfrwt>
<totfact> 0.26597736E-04</totfact>
</mgrwt>
<clustering>
<clus scale="   35.818">  1  6  2 -1</clus>
<clus scale="  464.210">  4  5 -1 -1</clus>
<clus scale="  300.000">  1  4  2 -1</clus>
</clustering>
</event>
<event>
 6    1  0.9131597E-012  0.3000000E+03  0.7818608E-02  0.1093470E+00
          1   -1    0    0  502    0  0.00000000000E+00  0.00000000000E+00  0.23906946172E+03  0.23906946172E+03  0.00000000000E+00 0.  1.
         13   -1    0    0    0    0 -0.00000000000E+00 -0.00000000000E+00 -0.27500000000E+03  0.27500000000E+03  0.00000000000E+00 0.  1.
    9000005    2    1    2  501    0 -0.51278222103E+01  0.45166962264E+02 -0.59477400758E+02  0.46287567525E+03  0.45678220247E+03 0.  0.
         13    1    3    3    0    0 -0.91184042243E+02  0.23408945993E+03 -0.39655966809E+02  0.25433246060E+03  0.00000000000E+00 0.  1.
          1    1    3    3  501    0  0.86056220033E+02 -0.18892249767E+03 -0.19821433949E+02  0.20854321465E+03  0.00000000000E+00 0.  1.
         21    1    1    2  502  501  0.51278222103E+01 -0.45166962264E+02  0.23546862483E+02  0.51193786474E+02  0.00000000000E+00 0.  1.
<scales pt_clust_4="550.00000" pt_clust_5="550.00000" pt_clust_6="45.45711"></scales>
<mgrwt>
<rscale>  0 0.30000000E+03</rscale>
<asrwt>  1 0.45457112E+02</asrwt>
<pdfrwt beam="1">  1        1 0.86934350E+00 0.30000000E+03</pdfrwt>
<pdfrwt beam="2">0</pdfrwt>
<totfact> 0.24521293E-04</totfact>
</mgrwt>
<clustering>
<clus scale="   45.457">  1  6  2 -1</clus>
<clus scale="  456.782">  4  5 -1 -1</clus>
<clus scale="  300.000">  1  4  2 -1</clus>
</clustering>
</event>
<event>
 6    1  0.9131597E-012  0.3000000E+03  0.7818608E-02  0.1093470E+00
          1   -1    0    0  502    0  0.00000000000E+00  0.00000000000E+00  0.23240742871E+03  0.23240742871E+03  0.00000000000E+00 0.  1.
         13   -1    0    0    0    0 -0.00000000000E+00 -0.00000000000E+00 -0.27500000000E+03  0.27500000000E+03  0.00000000000E+00 0.  1.
    9000005    2    1    2  501    0  0.19728684077E+02  0.25248521855E+02 -0.48172687904E+02  0.47488287594E+03  0.47134533961E+03 0.  0.
         13    1    3    3    0    0 -0.47926068110E+02  0.52707075962E+02  0.20204166276E+03  0.21423299781E+03  0.00000000000E+00 0.  1.
          1    1    3    3  501    0  0.67654752187E+02 -0.27458554106E+02 -0.25021435067E+03  0.26064987812E+03  0.00000000000E+00 0.  1.
         21    1    1    2  502  501 -0.19728684077E+02 -0.25248521855E+02  0.55801166098E+01  0.32524552767E+02  0.00000000000E+00 0. -1.
<scales pt_clust_4="550.00000" pt_clust_5="550.00000" pt_clust_6="32.04230"></scales>
<mgrwt>
<rscale>  0 0.30000000E+03</rscale>
<asrwt>  1 0.32042298E+02</asrwt>
<pdfrwt beam="1">  1        1 0.84511792E+00 0.30000000E+03</pdfrwt>
<pdfrwt beam="2">0</pdfrwt>
<totfact> 0.45831976E-04</totfact>
</mgrwt>
<clustering>
<clus scale="   32.042">  1  6  2 -1</clus>
<clus scale="  471.345">  4  5 -1 -1</clus>
<clus scale="  300.000">  1  4  2 -1</clus>
</clustering>
</event>
<event>
 6    1  0.9131597E-012  0.3000000E+03  0.7818608E-02  0.1093470E+00
          1   -1    0    0  502    0  0.00000000000E+00  0.00000000000E+00  0.25582764107E+03  0.25582764107E+03  0.00000000000E+00 0.  1.
         13   -1    0    0    0    0 -0.00000000000E+00 -0.00000000000E+00 -0.27500000000E+03  0.27500000000E+03  0.00000000000E+00 0.  1.
    9000005    2    1    2  501    0 -0.17354032137E+01 -0.48677403715E+02 -0.56966539140E+02  0.46917619085E+03  0.46315074244E+03 0.  0.
         13    1    3    3    0    0 -0.17789233574E+03  0.12383439189E+03 -0.29560615553E+01  0.21677033476E+03  0.00000000000E+00 0.  1.
          1    1    3    3  501    0  0.17615693253E+03 -0.17251179560E+03 -0.54010477585E+02  0.25240585609E+03  0.00000000000E+00 0.  1.
         21    1    1    2  502  501  0.17354032137E+01  0.48677403715E+02  0.37794180210E+02  0.61651450222E+02  0.00000000000E+00 0. -1.
<scales pt_clust_4="550.00000" pt_clust_5="550.00000" pt_clust_6="48.70833"></scales>
<mgrwt>
<rscale>  0 0.30000000E+03</rscale>
<asrwt>  1 0.48708328E+02</asrwt>
<pdfrwt beam="1">  1        1 0.93028233E+00 0.30000000E+03</pdfrwt>
<pdfrwt beam="2">0</pdfrwt>
<totfact> 0.24509661E-05</totfact>
</mgrwt>
<clustering>
<clus scale="   48.708">  1  6  2 -1</clus>
<clus scale="  463.151">  4  5 -1 -1</clus>
<clus scale="  300.000">  1  4  2 -1</clus>
</clustering>
</event>
<event>
 6    1  0.9131597E-012  0.3000000E+03  0.7818608E-02  0.1093470E+00
          1   -1    0    0  502    0  0.00000000000E+00  0.00000000000E+00  0.23371142319E+03  0.23371142319E+03  0.00000000000E+00 0.  1.
         13   -1    0    0    0    0 -0.00000000000E+00 -0.00000000000E+00 -0.27500000000E+03  0.27500000000E+03  0.00000000000E+00 0.  1.
    9000005    2    1    2  501    0  0.19679306566E+02 -0.30280188124E+02 -0.55657789383E+02  0.46984448133E+03  0.46513641248E+03 0.  0.
         13    1    3    3    0    0  0.63678639500E+02 -0.22829285475E+03 -0.10785423277E+03  0.26039418616E+03  0.00000000000E+00 0.  1.
          1    1    3    3  501    0 -0.43999332934E+02  0.19801266663E+03  0.52196443390E+02  0.20945029517E+03  0.00000000000E+00 0.  1.
         21    1    1    2  502  501 -0.19679306566E+02  0.30280188124E+02  0.14369212570E+02  0.38866941861E+02  0.00000000000E+00 0. -1.
<scales pt_clust_4="550.00000" pt_clust_5="550.00000" pt_clust_6="36.11322"></scales>
<mgrwt>
<rscale>  0 0.30000000E+03</rscale>
<asrwt>  1 0.36113223E+02</asrwt>
<pdfrwt beam="1">  1        1 0.84985972E+00 0.30000000E+03</pdfrwt>
<pdfrwt beam="2">0</pdfrwt>
<totfact> 0.40584431E-04</totfact>
</mgrwt>
<clustering>
<clus scale="   36.113">  1  6  2 -1</clus>
<clus scale="  465.136">  4  5 -1 -1</clus>
<clus scale="  300.000">  1  4  2 -1</clus>
</clustering>
</event>
<event>
 6    1  0.9131597E-012  0.3000000E+03  0.7818608E-02  0.1093470E+00
          1   -1    0    0  502    0  0.00000000000E+00  0.00000000000E+00  0.24201049118E+03  0.24201049118E+03  0.00000000000E+00 0.  1.
         13   -1    0    0    0    0 -0.00000000000E+00 -0.00000000000E+00 -0.27500000000E+03  0.27500000000E+03  0.00000000000E+00 0.  1.
    9000005    2    1    2  501    0  0.35831013353E+02 -0.22778442614E+02 -0.39668991535E+02  0.47402986234E+03  0.47045505900E+03 0.  0.
         13    1    3    3    0    0  0.10551875526E+03  0.19374695737E+03 -0.94573531584E+02  0.24003383945E+03  0.00000000000E+00 0.  1.
          1    1    3    3  501    0 -0.69687741912E+02 -0.21652539999E+03  0.54904540049E+02  0.23399602289E+03  0.00000000000E+00 0.  1.
         21    1    1    2  502  501 -0.35831013353E+02  0.22778442614E+02  0.66794827111E+01  0.42980628836E+02  0.00000000000E+00 0. -1.
<scales pt_clust_4="550.00000" pt_clust_5="550.00000" pt_clust_6="42.45844"></scales>
<mgrwt>
<rscale>  0 0.30000000E+03</rscale>
<asrwt>  1 0.42458438E+02</asrwt>
<pdfrwt beam="1">  1        1 0.88003815E+00 0.30000000E+03</pdfrwt>
<pdfrwt beam="2">0</pdfrwt>
<totfact> 0.19028818E-04</totfact>
</mgrwt>
<clustering>
<clus scale="   42.458">  1  6  2 -1</clus>
<clus scale="  470.455">  4  5 -1 -1</clus>
<clus scale="  300.000">  1  4  2 -1</clus>
</clustering>
</event>
<event>
 6    1  0.9131597E-012  0.3000000E+03  0.7818608E-02  0.1093470E+00
          1   -1    0    0  502    0  0.00000000000E+00  0.00000000000E+00  0.22529800139E+03  0.22529800139E+03  0.00000000000E+00 0.  1.
         13   -1    0    0    0    0 -0.00000000000E+00 -0.00000000000E+00 -0.27500000000E+03  0.27500000000E+03  0.00000000000E+00 0.  1.
    9000005    2    1    2  501    0 -0.13235045560E+02 -0.27615456334E+02 -0.68421704554E+02  0.46440639722E+03  0.45831647610E+03 0.  0.
         13    1    3    3    0    0  0.10907196495E+03 -0.13550078570E+03 -0.19252563755E+03  0.25946729578E+03  0.00000000000E+00 0.  1.
          1    1    3    3  501    0 -0.12230701051E+03  0.10788532937E+03  0.12410393300E+03  0.20493910144E+03  0.00000000000E+00 0.  1.
         21    1    1    2  502  501  0.13235045560E+02  0.27615456334E+02  0.18719705947E+02  0.35891604175E+02  0.00000000000E+00 0.  1.
<scales pt_clust_4="550.00000" pt_clust_5="550.00000" pt_clust_6="30.62319"></scales>
<mgrwt>
<rscale>  0 0.30000000E+03</rscale>
<asrwt>  1 0.30623192E+02</asrwt>
<pdfrwt beam="1">  1        1 0.81926546E+00 0.30000000E+03</pdfrwt>
<pdfrwt beam="2">0</pdfrwt>
<totfact> 0.75270627E-04</totfact>
</mgrwt>
<clustering>
<clus scale="   30.623">  1  6  2 -1</clus>
<clus scale="  458.316">  4  5 -1 -1</clus>
<clus scale="  300.000">  1  4  2 -1</clus>
</clustering>
</event>
<event>
 6    1  0.9131597E-012  0.3000000E+03  0.7818608E-02  0.1093470E+00
          1   -1    0    0  502    0  0.00000000000E+00  0.00000000000E+00  0.24048817057E+03  0.24048817057E+03  0.00000000000E+00 0.  1.
         13   -1    0    0    0    0 -0.00000000000E+00 -0.00000000000E+00 -0.27500000000E+03  0.27500000000E+03  0.00000000000E+00 0.  1.
    9000005    2    1    2  501    0  0.25740480814E+02 -0.17732597265E+02 -0.50461440308E+02  0.48039675502E+03  0.47671549998E+03 0.  0.
         13    1    3    3    0    0 -0.64292076645E+02 -0.23435472191E+03 -0.19889767320E+02  0.24382618737E+03  0.00000000000E+00 0.  1.
          3    1    3    3  501    0  0.90032557458E+02  0.21662212465E+03 -0.30571672988E+02  0.23657056765E+03  0.00000000000E+00 0.  1.
         21    1    1    2  502  501 -0.25740480814E+02  0.17732597265E+02  0.15949610882E+02  0.35091415554E+02  0.00000000000E+00 0. -1.
<scales pt_clust_4="550.00000" pt_clust_5="550.00000" pt_clust_6="31.25728"></scales>
<mgrwt>
<rscale>  0 0.30000000E+03</rscale>
<asrwt>  1 0.31257277E+02</asrwt>
<pdfrwt beam="1">  1        1 0.87450244E+00 0.30000000E+03</pdfrwt>
<pdfrwt beam="2">0</pdfrwt>
<totfact> 0.23257679E-04</totfact>
</mgrwt>
<clustering>
<clus scale="   31.257">  1  6  2 -1</clus>
<clus scale="  476.715">  4  5 -1 -1</clus>
<clus scale="  300.000">  1  4  2 -1</clus>
</clustering>
</event>
<event>
 6    1  0.9131597E-012  0.3000000E+03  0.7818608E-02  0.1093470E+00
          1   -1    0    0  502    0  0.00000000000E+00  0.00000000000E+00  0.23250179520E+03  0.23250179520E+03  0.00000000000E+00 0.  1.
         13   -1    0    0    0    0 -0.00000000000E+00 -0.00000000000E+00 -0.27500000000E+03  0.27500000000E+03  0.00000000000E+00 0.  1.
    9000005    2    1    2  501    0  0.15066708509E+02 -0.29195420391E+02 -0.43665479572E+02  0.47462717266E+03  0.47147099660E+03 0.  0.
         13    1    3    3    0    0  0.21381383614E+03  0.99576709039E+01 -0.13431992498E+03  0.25270012660E+03  0.00000000000E+00 0.  1.
          3    1    3    3  501    0 -0.19874712763E+03 -0.39153091295E+02  0.90654445405E+02  0.22192704606E+03  0.00000000000E+00 0.  1.
         21    1    1    2  502  501 -0.15066708509E+02  0.29195420391E+02  0.11672747727E+01  0.32874622546E+02  0.00000000000E+00 0. -1.
<scales pt_clust_4="550.00000" pt_clust_5="550.00000" pt_clust_6="32.85389"></scales>
<mgrwt>
<rscale>  0 0.30000000E+03</rscale>
<asrwt>  1 0.32853893E+02</asrwt>
<pdfrwt beam="1">  1        1 0.84546107E+00 0.30000000E+03</pdfrwt>
<pdfrwt beam="2">0</pdfrwt>
<totfact> 0.45299661E-04</totfact>
</mgrwt>
<clustering>
<clus scale="   32.854">  1  6  2 -1</clus>
<clus scale="  471.471">  4  5 -1 -1</clus>
<clus scale="  300.000">  1  4  2 -1</clus>
</clustering>
</event>
<event>
 6    1  0.9131597E-012  0.3000000E+03  0.7818608E-02  0.1093470E+00
          1   -1    0    0  502    0  0.00000000000E+00  0.00000000000E+00  0.24840901589E+03  0.24840901589E+03  0.00000000000E+00 0.  1.
         13   -1    0    0    0    0 -0.00000000000E+00 -0.00000000000E+00 -0.27500000000E+03  0.27500000000E+03  0.00000000000E+00 0.  1.
    9000005    2    1    2  501    0 -0.11332708149E+01  0.30448855137E+02 -0.47252360554E+02  0.48659448672E+03  0.48333527891E+03 0.  0.
         13    1    3    3    0    0 -0.11597197133E+03  0.86604802653E+01  0.18962605395E+03  0.22244671809E+03  0.00000000000E+00 0.  1.
          3    1    3    3  501    0  0.11483870051E+03  0.21788374871E+02 -0.23687841450E+03  0.26414776863E+03  0.00000000000E+00 0.  1.
         21    1    1    2  502  501  0.11332708149E+01 -0.30448855137E+02  0.20661376449E+02  0.36814529178E+02  0.00000000000E+00 0.  1.
<scales pt_clust_4="550.00000" pt_clust_5="550.00000" pt_clust_6="30.46994"></scales>
<mgrwt>
<rscale>  0 0.30000000E+03</rscale>
<asrwt>  1 0.30469937E+02</asrwt>
<pdfrwt beam="1">  1        1 0.90330551E+00 0.30000000E+03</pdfrwt>
<pdfrwt beam="2">0</pdfrwt>
<totfact> 0.10171231E-04</totfact>
</mgrwt>
<clustering>
<clus scale="   30.470">  1  6  2 -1</clus>
<clus scale="  483.335">  4  5 -1 -1</clus>
<clus scale="  300.000">  1  4  2 -1</clus>
</clustering>
</event>
<event>
 6    1  0.9131597E-012  0.3000000E+03  0.7818608E-02  0.1093470E+00
          1   -1    0    0  502    0  0.00000000000E+00  0.00000000000E+00  0.23592793073E+03  0.23592793073E+03  0.00000000000E+00 0.  1.
         13   -1    0    0    0    0 -0.00000000000E+00 -0.00000000000E+00 -0.27500000000E+03  0.27500000000E+03  0.00000000000E+00 0.  1.
    9000005    2    1    2  501    0  0.43386151688E+01  0.30527469603E+02 -0.43893395819E+02  0.47971903502E+03  0.47671057507E+03 0.  0.
         13    1    3    3    0    0  0.14378013905E+03 -0.12080724355E+03 -0.15711027917E+03  0.24484843945E+03  0.00000000000E+00 0.  1.
          1    1    3    3  501    0 -0.13944152388E+03  0.15133471315E+03  0.11321688335E+03  0.23487059557E+03  0.00000000000E+00 0.  1.
         21    1    1    2  502  501 -0.43386151688E+01 -0.30527469603E+02  0.48213265530E+01  0.31208895714E+02  0.00000000000E+00 0.  1.
<scales pt_clust_4="550.00000" pt_clust_5="550.00000" pt_clust_6="30.83423"></scales>
<mgrwt>
<rscale>  0 0.30000000E+03</rscale>
<asrwt>  1 0.30834234E+02</asrwt>
<pdfrwt beam="1">  1        1 0.85791975E+00 0.30000000E+03</pdfrwt>
<pdfrwt beam="2">0</pdfrwt>
<totfact> 0.34849279E-04</totfact>
</mgrwt>
<clustering>
<clus scale="   30.834">  1  6  2 -1</clus>
<clus scale="  476.711">  4  5 -1 -1</clus>
<clus scale="  300.000">  1  4  2 -1</clus>
</clustering>
</event>
<event>
 6    1  0.9131597E-012  0.3000000E+03  0.7818608E-02  0.1093470E+00
          1   -1    0    0  502    0  0.00000000000E+00  0.00000000000E+00  0.23802238760E+03  0.23802238760E+03  0.00000000000E+00 0.  1.
         13   -1    0    0    0    0 -0.00000000000E+00 -0.00000000000E+00 -0.27500000000E+03  0.27500000000E+03  0.00000000000E+00 0.  1.
    9000005    2    1    2  501    0  0.85713063034E+01 -0.39897618657E+02 -0.65225396842E+02  0.46339150415E+03  0.45695956764E+03 0.  0.
         13    1    3    3    0    0  0.19868608238E+03  0.68765711224E+02 -0.11382733179E+03  0.23908480469E+03  0.00000000000E+00 0.  1.
          1    1    3    3  501    0 -0.19011477607E+03 -0.10866332988E+03  0.48601934953E+02  0.22430669946E+03  0.00000000000E+00 0.  1.
         21    1    1    2  502  501 -0.85713063034E+01  0.39897618657E+02  0.28247784445E+02  0.49630883452E+02  0.00000000000E+00 0.  1.
<scales pt_clust_4="550.00000" pt_clust_5="550.00000" pt_clust_6="40.80793"></scales>
<mgrwt>
<rscale>  0 0.30000000E+03</rscale>
<asrwt>  1 0.40807931E+02</asrwt>
<pdfrwt beam="1">  1        1 0.86553595E+00 0.30000000E+03</pdfrwt>
<pdfrwt beam="2">0</pdfrwt>
<totfact> 0.27406960E-04</totfact>
</mgrwt>
<clustering>
<clus scale="   40.808">  1  6  2 -1</clus>
<clus scale="  456.960">  4  5 -1 -1</clus>
<clus scale="  300.000">  1  4  2 -1</clus>
</clustering>
</event>
<event>
 6    1  0.9131597E-012  0.3000000E+03  0.7818608E-02  0.1093470E+00
          1   -1    0    0  502    0  0.00000000000E+00  0.00000000000E+00  0.23197142509E+03  0.23197142509E+03  0.00000000000E+00 0.  1.
         13   -1    0    0    0    0 -0.00000000000E+00 -0.00000000000E+00 -0.27500000000E+03  0.27500000000E+03  0.00000000000E+00 0.  1.
    9000005    2    1    2  501    0  0.22024955905E+02  0.20425753478E+02 -0.71168410351E+02  0.46581124498E+03  0.45936136454E+03 0.  0.
         13    1    3    3    0    0  0.11832869163E+02 -0.19888784541E+03  0.62449653848E+02  0.20879739249E+03  0.00000000000E+00 0.  1.
          3    1    3    3  501    0  0.10192086742E+02  0.21931359889E+03 -0.13361806420E+03  0.25701385249E+03  0.00000000000E+00 0.  1.
         21    1    1    2  502  501 -0.22024955905E+02 -0.20425753478E+02  0.28139835442E+02  0.41160180107E+02  0.00000000000E+00 0.  1.
<scales pt_clust_4="550.00000" pt_clust_5="550.00000" pt_clust_6="30.03848"></scales>
<mgrwt>
<rscale>  0 0.30000000E+03</rscale>
<asrwt>  1 0.30038477E+02</asrwt>
<pdfrwt beam="1">  1        1 0.84353245E+00 0.30000000E+03</pdfrwt>
<pdfrwt beam="2">0</pdfrwt>
<totfact> 0.47888093E-04</totfact>
</mgrwt>
<clustering>
<clus scale="   30.038">  1  6  2 -1</clus>
<clus scale="  459.361">  4  5 -1 -1</clus>
<clus scale="  300.000">  1  4  2 -1</clus>
</clustering>
</event>
<event>
 6    1  0.9131597E-012  0.3000000E+03  0.7818608E-02  0.1093470E+00
          1   -1    0    0  502    0  0.00000000000E+00  0.00000000000E+00  0.23639780633E+03  0.23639780633E+03  0.00000000000E+00 0.  1.
         13   -1    0    0    0    0 -0.00000000000E+00 -0.00000000000E+00 -0.27500000000E+03  0.27500000000E+03  0.00000000000E+00 0.  1.
    9000005    2    1    2  501    0  0.35044983740E+02 -0.14998966830E+02 -0.49132528351E+02  0.47185026735E+03  0.46773448618E+03 0.  0.
         13    1    3    3    0    0  0.12848551054E+03  0.19744567403E+02  0.17996411392E+03  0.22200328074E+03  0.00000000000E+00 0.  1.
          3    1    3    3  501    0 -0.93440526796E+02 -0.34743534233E+02 -0.22909664227E+03  0.24984698661E+03  0.00000000000E+00 0.  1.
         21    1    1    2  502  501 -0.35044983740E+02  0.14998966830E+02  0.10530334685E+02  0.39547538986E+02  0.00000000000E+00 0. -1.
<scales pt_clust_4="550.00000" pt_clust_5="550.00000" pt_clust_6="38.11981"></scales>
<mgrwt>
<rscale>  0 0.30000000E+03</rscale>
<asrwt>  1 0.38119810E+02</asrwt>
<pdfrwt beam="1">  1        1 0.85962839E+00 0.30000000E+03</pdfrwt>
<pdfrwt beam="2">0</pdfrwt>
<totfact> 0.32129257E-04</totfact>
</mgrwt>
<clustering>
<clus scale="   38.120">  1  6  2 -1</clus>
<clus scale="  467.734">  4  5 -1 -1</clus>
<clus scale="  300.000">  1  4  2 -1</clus>
</clustering>
</event>
<event>
 6    1  0.9131597E-012  0.3000000E+03  0.7818608E-02  0.1093470E+00
          1   -1    0    0  502    0  0.00000000000E+00  0.00000000000E+00  0.23074764340E+03  0.23074764340E+03  0.00000000000E+00 0.  1.
         13   -1    0    0    0    0 -0.00000000000E+00 -0.00000000000E+00 -0.27500000000E+03  0.27500000000E+03  0.00000000000E+00 0.  1.
    9000005    2    1    2  501    0 -0.11087377601E+02  0.31720124144E+02 -0.65403334792E+02  0.46604298251E+03  0.46020578998E+03 0.  0.
         13    1    3    3    0    0  0.81345290002E+01  0.20985269980E+03  0.90369065835E+02  0.22862828836E+03  0.00000000000E+00 0.  1.
          3    1    3    3  501    0 -0.19221906602E+02 -0.17813257566E+03 -0.15577240063E+03  0.23741469416E+03  0.00000000000E+00 0.  1.
         21    1    1    2  502  501  0.11087377601E+02 -0.31720124144E+02  0.21150978190E+02  0.39704660887E+02  0.00000000000E+00 0. -1.
<scales pt_clust_4="550.00000" pt_clust_5="550.00000" pt_clust_6="33.60203"></scales>
<mgrwt>
<rscale>  0 0.30000000E+03</rscale>
<asrwt>  1 0.33602027E+02</asrwt>
<pdfrwt beam="1">  1        1 0.83908234E+00 0.30000000E+03</pdfrwt>
<pdfrwt beam="2">0</pdfrwt>
<totfact> 0.50894159E-04</totfact>
</mgrwt>
<clustering>
<clus scale="   33.602">  1  6  2 -1</clus>
<clus scale="  460.206">  4  5 -1 -1</clus>
<clus scale="  300.000">  1  4  2 -1</clus>
</clustering>
</event>
<event>
 6    1  0.9131597E-012  0.3000000E+03  0.7818608E-02  0.1093470E+00
          1   -1    0    0  502    0  0.00000000000E+00  0.00000000000E+00  0.25026089041E+03  0.25026089041E+03  0.00000000000E+00 0.  1.
         13   -1    0    0    0    0 -0.00000000000E+00 -0.00000000000E+00 -0.27500000000E+03  0.27500000000E+03  0.00000000000E+00 0.  1.
    9000005    2    1    2  501    0  0.28048141300E+02  0.10939627711E+02 -0.68850064864E+02  0.47185536579E+03  0.46583342635E+03 0.  0.
         13    1    3    3    0    0 -0.45862745730E+01 -0.82631948446E+02  0.18319885102E+03  0.20102460505E+03  0.00000000000E+00 0.  1.
          1    1    3    3  501    0  0.32634415873E+02  0.93571576157E+02 -0.25204891589E+03  0.27083076074E+03  0.00000000000E+00 0.  1.
         21    1    1    2  502  501 -0.28048141300E+02 -0.10939627711E+02  0.44110955276E+02  0.53405524622E+02  0.00000000000E+00 0.  1.
<scales pt_clust_4="550.00000" pt_clust_5="550.00000" pt_clust_6="30.10604"></scales>
<mgrwt>
<rscale>  0 0.30000000E+03</rscale>
<asrwt>  1 0.30106041E+02</asrwt>
<pdfrwt beam="1">  1        1 0.91003960E+00 0.30000000E+03</pdfrwt>
<pdfrwt beam="2">0</pdfrwt>
<totfact> 0.73777576E-05</totfact>
</mgrwt>
<clustering>
<clus scale="   30.106">  1  6  2 -1</clus>
<clus scale="  465.833">  4  5 -1 -1</clus>
<clus scale="  300.000">  1  4  2 -1</clus>
</clustering>
</event>
<event>
 6    1  0.9131597E-012  0.3000000E+03  0.7818608E-02  0.1093470E+00
          1   -1    0    0  502    0  0.00000000000E+00  0.00000000000E+00  0.24617779366E+03  0.24617779366E+03  0.00000000000E+00 0.  1.
         13   -1    0    0    0    0 -0.00000000000E+00 -0.00000000000E+00 -0.27500000000E+03  0.27500000000E+03  0.00000000000E+00 0.  1.
    9000005    2    1    2  501    0  0.87498737098E+01  0.33260235820E+02 -0.68330602616E+02  0.46879729201E+03  0.46251381186E+03 0.  0.
         13    1    3    3    0    0  0.92199416165E+02 -0.14193134617E+03  0.11276153960E+03  0.20337257480E+03  0.00000000000E+00 0.  1.
          3    1    3    3  501    0 -0.83449542455E+02  0.17519158199E+03 -0.18109214221E+03  0.26542471721E+03  0.00000000000E+00 0.  1.
         21    1    1    2  502  501 -0.87498737098E+01 -0.33260235820E+02  0.39508396274E+02  0.52380501648E+02  0.00000000000E+00 0.  1.
<scales pt_clust_4="550.00000" pt_clust_5="550.00000" pt_clust_6="34.39191"></scales>
<mgrwt>
<rscale>  0 0.30000000E+03</rscale>
<asrwt>  1 0.34391912E+02</asrwt>
<pdfrwt beam="1">  1        1 0.89519198E+00 0.30000000E+03</pdfrwt>
<pdfrwt beam="2">0</pdfrwt>
<totfact> 0.12588204E-04</totfact>
</mgrwt>
<clustering>
<clus scale="   34.392">  1  6  2 -1</clus>
<clus scale="  462.514">  4  5 -1 -1</clus>
<clus scale="  300.000">  1  4  2 -1</clus>
</clustering>
</event>
<event>
 6    1  0.9131597E-012  0.3000000E+03  0.7818608E-02  0.1093470E+00
          1   -1    0    0  502    0  0.00000000000E+00  0.00000000000E+00  0.22840230988E+03  0.22840230988E+03  0.00000000000E+00 0.  1.
         13   -1    0    0    0    0 -0.00000000000E+00 -0.00000000000E+00 -0.27500000000E+03  0.27500000000E+03  0.00000000000E+00 0.  1.
    9000005    2    1    2  501    0 -0.16501684858E+02  0.35832860433E+02 -0.54201062174E+02  0.46322631261E+03  0.45834982498E+03 0.  0.
         13    1    3    3    0    0  0.16001771690E+02 -0.14050165590E+03 -0.19103167229E+03  0.23767598075E+03  0.00000000000E+00 0.  1.
          3    1    3    3  501    0 -0.32503456547E+02  0.17633451633E+03  0.13683061012E+03  0.22555033186E+03  0.00000000000E+00 0.  1.
         21    1    1    2  502  501  0.16501684858E+02 -0.35832860433E+02  0.76033720525E+01  0.40175997269E+02  0.00000000000E+00 0. -1.
<scales pt_clust_4="550.00000" pt_clust_5="550.00000" pt_clust_6="39.44996"></scales>
<mgrwt>
<rscale>  0 0.30000000E+03</rscale>
<asrwt>  1 0.39449962E+02</asrwt>
<pdfrwt beam="1">  1        1 0.83055385E+00 0.30000000E+03</pdfrwt>
<pdfrwt beam="2">0</pdfrwt>
<totfact> 0.57207626E-04</totfact>
</mgrwt>
<clustering>
<clus scale="   39.450">  1  6  2 -1</clus>
<clus scale="  458.350">  4  5 -1 -1</clus>
<clus scale="  300.000">  1  4  2 -1</clus>
</clustering>
</event>
<event>
 6    1  0.9131597E-012  0.3000000E+03  0.7818608E-02  0.1093470E+00
          1   -1    0    0  502    0  0.00000000000E+00  0.00000000000E+00  0.24465925699E+03  0.24465925699E+03  0.00000000000E+00 0.  1.
         13   -1    0    0    0    0 -0.00000000000E+00 -0.00000000000E+00 -0.27500000000E+03  0.27500000000E+03  0.00000000000E+00 0.  1.
    9000005    2    1    2  501    0 -0.12126362304E+02 -0.27536302665E+02 -0.69905418151E+02  0.46995352144E+03  0.46375020022E+03 0.  0.
         13    1    3    3    0    0 -0.19302076576E+03 -0.16794225418E+02 -0.17447733492E+03  0.26073243455E+03  0.00000000000E+00 0.  1.
          1    1    3    3  501    0  0.18089440346E+03 -0.10742077248E+02  0.10457191677E+03  0.20922108690E+03  0.00000000000E+00 0.  1.
         21    1    1    2  502  501  0.12126362304E+02  0.27536302665E+02  0.39564675138E+02  0.49705735544E+02  0.00000000000E+00 0.  1.
<scales pt_clust_4="550.00000" pt_clust_5="550.00000" pt_clust_6="30.08815"></scales>
<mgrwt>
<rscale>  0 0.30000000E+03</rscale>
<asrwt>  1 0.30088148E+02</asrwt>
<pdfrwt beam="1">  1        1 0.88967003E+00 0.30000000E+03</pdfrwt>
<pdfrwt beam="2">0</pdfrwt>
<totfact> 0.15069639E-04</totfact>
</mgrwt>
<clustering>
<clus scale="   30.088">  1  6  2 -1</clus>
<clus scale="  463.750">  4  5 -1 -1</clus>
<clus scale="  300.000">  1  4  2 -1</clus>
</clustering>
</event>
<event>
 6    1  0.9131597E-012  0.3000000E+03  0.7818608E-02  0.1093470E+00
          1   -1    0    0  502    0  0.00000000000E+00  0.00000000000E+00  0.23185142702E+03  0.23185142702E+03  0.00000000000E+00 0.  1.
         13   -1    0    0    0    0 -0.00000000000E+00 -0.00000000000E+00 -0.27500000000E+03  0.27500000000E+03  0.00000000000E+00 0.  1.
    9000005    2    1    2  501    0  0.42476728223E+02 -0.13216815713E+02 -0.37884162590E+02  0.46205554915E+03  0.45834611819E+03 0.  0.
         13    1    3    3    0    0 -0.83598595077E+01 -0.95589253429E+02 -0.22874324750E+03  0.24805375607E+03  0.00000000000E+00 0.  1.
          3    1    3    3  501    0  0.50836587731E+02  0.82372437716E+02  0.19085908491E+03  0.21400179308E+03  0.00000000000E+00 0.  1.
         21    1    1    2  502  501 -0.42476728223E+02  0.13216815713E+02 -0.52644103854E+01  0.44795877878E+02  0.00000000000E+00 0. -1.
<scales pt_clust_4="550.00000" pt_clust_5="550.00000" pt_clust_6="44.48549"></scales>
<mgrwt>
<rscale>  0 0.30000000E+03</rscale>
<asrwt>  1 0.44485488E+02</asrwt>
<pdfrwt beam="1">  1        1 0.84309610E+00 0.30000000E+03</pdfrwt>
<pdfrwt beam="2">0</pdfrwt>
<totfact> 0.44902727E-04</totfact>
</mgrwt>
<clustering>
<clus scale="   44.485">  1  6  2 -1</clus>
<clus scale="  458.346">  4  5 -1 -1</clus>
<clus scale="  300.000">  1  4  2 -1</clus>
</clustering>
</event>
<event>
 6    1  0.9131597E-012  0.3000000E+03  0.7818608E-02  0.1093470E+00
          1   -1    0    0  502    0  0.00000000000E+00  0.00000000000E+00  0.23007080800E+03  0.23007080800E+03  0.00000000000E+00 0.  1.
         13   -1    0    0    0    0 -0.00000000000E+00 -0.00000000000E+00 -0.27500000000E+03  0.27500000000E+03  0.00000000000E+00 0.  1.
    9000005    2    1    2  501    0 -0.30357449704E+02 -0.83620126890E+01 -0.57547335267E+02  0.47114860954E+03  0.46655955511E+03 0.  0.
         13    1    3    3    0    0  0.26344167044E+02  0.13263929460E+03 -0.21392809550E+03  0.25308581085E+03  0.00000000000E+00 0.  1.
          3    1    3    3  501    0 -0.56701616748E+02 -0.14100130729E+03  0.15638076023E+03  0.21806279869E+03  0.00000000000E+00 0.  1.
         21    1    1    2  502  501  0.30357449704E+02  0.83620126890E+01  0.12618143264E+02  0.33922198458E+02  0.00000000000E+00 0. -1.
<scales pt_clust_4="550.00000" pt_clust_5="550.00000" pt_clust_6="31.48806"></scales>
<mgrwt>
<rscale>  0 0.30000000E+03</rscale>
<asrwt>  1 0.31488061E+02</asrwt>
<pdfrwt beam="1">  1        1 0.83662112E+00 0.30000000E+03</pdfrwt>
<pdfrwt beam="2">0</pdfrwt>
<totfact> 0.53713587E-04</totfact>
</mgrwt>
<clustering>
<clus scale="   31.488">  1  6  2 -1</clus>
<clus scale="  466.560">  4  5 -1 -1</clus>
<clus scale="  300.000">  1  4  2 -1</clus>
</clustering>
</event>
<event>
 6    1  0.9131597E-012  0.3000000E+03  0.7818608E-02  0.1093470E+00
          1   -1    0    0  502    0  0.00000000000E+00  0.00000000000E+00  0.24813064655E+03  0.24813064655E+03  0.00000000000E+00 0.  1.
         13   -1    0    0    0    0 -0.00000000000E+00 -0.00000000000E+00 -0.27500000000E+03  0.27500000000E+03  0.00000000000E+00 0.  1.
    9000005    2    1    2  501    0  0.15383722525E+02 -0.29810454282E+02 -0.67058251799E+02  0.47078115129E+03  0.46477173018E+03 0.  0.
         13    1    3    3    0    0  0.78801149976E+02  0.13671620963E+03 -0.19541384220E+03  0.25117227741E+03  0.00000000000E+00 0.  1.
          1    1    3    3  501    0 -0.63417427451E+02 -0.16652666392E+03  0.12835559041E+03  0.21960887388E+03  0.00000000000E+00 0.  1.
         21    1    1    2  502  501 -0.15383722525E+02  0.29810454282E+02  0.40188898350E+02  0.52349495259E+02  0.00000000000E+00 0.  1.
<scales pt_clust_4="550.00000" pt_clust_5="550.00000" pt_clust_6="33.54582"></scales>
<mgrwt>
<rscale>  0 0.30000000E+03</rscale>
<asrwt>  1 0.33545821E+02</asrwt>
<pdfrwt beam="1">  1        1 0.90229326E+00 0.30000000E+03</pdfrwt>
<pdfrwt beam="2">0</pdfrwt>
<totfact> 0.10358920E-04</totfact>
</mgrwt>
<clustering>
<clus scale="   33.546">  1  6  2 -1</clus>
<clus scale="  464.772">  4  5 -1 -1</clus>
<clus scale="  300.000">  1  4  2 -1</clus>
</clustering>
</event>
<event>
 6    1  0.9131597E-012  0.3000000E+03  0.7818608E-02  0.1093470E+00
          1   -1    0    0  502    0  0.00000000000E+00  0.00000000000E+00  0.22726097369E+03  0.22726097369E+03  0.00000000000E+00 0.  1.
         13   -1    0    0    0    0 -0.00000000000E+00 -0.00000000000E+00 -0.27500000000E+03  0.27500000000E+03  0.00000000000E+00 0.  1.
    9000005    2    1    2  501    0 -0.32754060849E+02  0.11642278062E+01 -0.54635258651E+02  0.46876855740E+03  0.46441873884E+03 0.  0.
         13    1    3    3    0    0  0.38156270721E+02  0.19355588767E+03  0.91010761840E+02  0.21726191893E+03  0.00000000000E+00 0.  1.
          1    1    3    3  501    0 -0.70910331570E+02 -0.19239165986E+03 -0.14564602049E+03  0.25150663847E+03  0.00000000000E+00 0.  1.
         21    1    1    2  502  501  0.32754060849E+02 -0.11642278062E+01  0.68962323416E+01  0.33492416291E+02  0.00000000000E+00 0. -1.
<scales pt_clust_4="550.00000" pt_clust_5="550.00000" pt_clust_6="32.77475"></scales>
<mgrwt>
<rscale>  0 0.30000000E+03</rscale>
<asrwt>  1 0.32774745E+02</asrwt>
<pdfrwt beam="1">  1        1 0.82640354E+00 0.30000000E+03</pdfrwt>
<pdfrwt beam="2">0</pdfrwt>
<totfact> 0.64255972E-04</totfact>
</mgrwt>
<clustering>
<clus scale="   32.775">  1  6  2 -1</clus>
<clus scale="  464.419">  4  5 -1 -1</clus>
<clus scale="  300.000">  1  4  2 -1</clus>
</clustering>
</event>
<event>
 6    1  0.9131597E-012  0.3000000E+03  0.7818608E-02  0.1093470E+00
          1   -1    0    0  502    0  0.00000000000E+00  0.00000000000E+00  0.23928058268E+03  0.23928058268E+03  0.00000000000E+00 0.  1.
         13   -1    0    0    0    0 -0.00000000000E+00 -0.00000000000E+00 -0.27500000000E+03  0.27500000000E+03  0.00000000000E+00 0.  1.
    9000005    2    1    2  501    0 -0.19563116466E+01 -0.34505620522E+02 -0.38400408720E+02  0.47961571981E+03  0.47682510662E+03 0.  0.
         13    1    3    3    0    0  0.11186212079E+02  0.15402199366E+03 -0.18460357243E+03  0.24067900786E+03  0.00000000000E+00 0.  1.
          1    1    3    3  501    0 -0.13142523726E+02 -0.18852761418E+03  0.14620316371E+03  0.23893671195E+03  0.00000000000E+00 0.  1.
         21    1    1    2  502  501  0.19563116466E+01  0.34505620522E+02  0.26809914039E+01  0.34664862870E+02  0.00000000000E+00 0.  1.
<scales pt_clust_4="550.00000" pt_clust_5="550.00000" pt_clust_6="34.56103"></scales>
<mgrwt>
<rscale>  0 0.30000000E+03</rscale>
<asrwt>  1 0.34561033E+02</asrwt>
<pdfrwt beam="1">  1        1 0.87011121E+00 0.30000000E+03</pdfrwt>
<pdfrwt beam="2">0</pdfrwt>
<totfact> 0.25318666E-04</totfact>
</mgrwt>
<clustering>
<clus scale="   34.561">  1  6  2 -1</clus>
<clus scale="  476.825">  4  5 -1 -1</clus>
<clus scale="  300.000">  1  4  2 -1</clus>
</clustering>
</event>
<event>
 6    1  0.9131597E-012  0.3000000E+03  0.7818608E-02  0.1093470E+00
          1   -1    0    0  502    0  0.00000000000E+00  0.00000000000E+00  0.23880542054E+03  0.23880542054E+03  0.00000000000E+00 0.  1.
         13   -1    0    0    0    0 -0.00000000000E+00 -0.00000000000E+00 -0.27500000000E+03  0.27500000000E+03  0.00000000000E+00 0.  1.
    9000005    2    1    2  501    0 -0.21470667612E+02  0.24859183233E+02 -0.62803121746E+02  0.47153269788E+03  0.46617580858E+03 0.  0.
         13    1    3    3    0    0 -0.84175673716E+02  0.52216917535E+02  0.18749514421E+03  0.21205324714E+03  0.00000000000E+00 0.  1.
          3    1    3    3  501    0  0.62705006104E+02 -0.27357734303E+02 -0.25029826595E+03  0.25947945074E+03  0.00000000000E+00 0.  1.
         21    1    1    2  502  501  0.21470667612E+02 -0.24859183233E+02  0.26608542287E+02  0.42272722663E+02  0.00000000000E+00 0. -1.
<scales pt_clust_4="550.00000" pt_clust_5="550.00000" pt_clust_6="32.84766"></scales>
<mgrwt>
<rscale>  0 0.30000000E+03</rscale>
<asrwt>  1 0.32847657E+02</asrwt>
<pdfrwt beam="1">  1        1 0.86838335E+00 0.30000000E+03</pdfrwt>
<pdfrwt beam="2">0</pdfrwt>
<totfact> 0.26628991E-04</totfact>
</mgrwt>
<clustering>
<clus scale="   32.848">  1  6  2 -1</clus>
<clus scale="  466.176">  4  5 -1 -1</clus>
<clus scale="  300.000">  1  4  2 -1</clus>
</clustering>
</event>
<event>
 6    1  0.9131597E-012  0.3000000E+03  0.7818608E-02  0.1093470E+00
          1   -1    0    0  502    0  0.00000000000E+00  0.00000000000E+00  0.24968374152E+03  0.24968374152E+03  0.00000000000E+00 0.  1.
         13   -1    0    0    0    0 -0.00000000000E+00 -0.00000000000E+00 -0.27500000000E+03  0.27500000000E+03  0.00000000000E+00 0.  1.
    9000005    2    1    2  501    0 -0.33154476108E+02  0.57026904411E+01 -0.35333533726E+02  0.48958266222E+03  0.48714575291E+03 0.  0.
         13    1    3    3    0    0 -0.73493434675E+02  0.19709650880E+03 -0.15409228582E+03  0.26075419703E+03  0.00000000000E+00 0.  1.
          3    1    3    3  501    0  0.40338958567E+02 -0.19139381835E+03  0.11875875209E+03  0.22882846519E+03  0.00000000000E+00 0.  1.
         21    1    1    2  502  501  0.33154476108E+02 -0.57026904411E+01  0.10017275241E+02  0.35101079293E+02  0.00000000000E+00 0.  1.
<scales pt_clust_4="550.00000" pt_clust_5="550.00000" pt_clust_6="33.64134"></scales>
<mgrwt>
<rscale>  0 0.30000000E+03</rscale>
<asrwt>  1 0.33641343E+02</asrwt>
<pdfrwt beam="1">  1        1 0.90794088E+00 0.30000000E+03</pdfrwt>
<pdfrwt beam="2">0</pdfrwt>
<totfact> 0.80920664E-05</totfact>
</mgrwt>
<clustering>
<clus scale="   33.641">  1  6  2 -1</clus>
<clus scale="  487.146">  4  5 -1 -1</clus>
<clus scale="  300.000">  1  4  2 -1</clus>
</clustering>
</event>
<event>
 6    1  0.9131597E-012  0.3000000E+03  0.7818608E-02  0.1093470E+00
          1   -1    0    0  502    0  0.00000000000E+00  0.00000000000E+00  0.22433814311E+03  0.22433814311E+03  0.00000000000E+00 0.  1.
         13   -1    0    0    0    0 -0.00000000000E+00 -0.00000000000E+00 -0.27500000000E+03  0.27500000000E+03  0.00000000000E+00 0.  1.
    9000005    2    1    2  501    0  0.28368497984E+02 -0.17017088218E+02 -0.60619141414E+02  0.46479106676E+03  0.45963213820E+03 0.  0.
         13    1    3    3    0    0  0.20097201237E+03 -0.92488024728E+02 -0.13842903235E+03  0.26097199365E+03  0.00000000000E+00 0.  1.
          3    1    3    3  501    0 -0.17260351438E+03  0.75470936510E+02  0.77809890934E+02  0.20381907311E+03  0.00000000000E+00 0.  1.
         21    1    1    2  502  501 -0.28368497984E+02  0.17017088218E+02  0.99572845212E+01  0.34547076350E+02  0.00000000000E+00 0. -1.
<scales pt_clust_4="550.00000" pt_clust_5="550.00000" pt_clust_6="33.08101"></scales>
<mgrwt>
<rscale>  0 0.30000000E+03</rscale>
<asrwt>  1 0.33081006E+02</asrwt>
<pdfrwt beam="1">  1        1 0.81577507E+00 0.30000000E+03</pdfrwt>
<pdfrwt beam="2">0</pdfrwt>
<totfact> 0.79296550E-04</totfact>
</mgrwt>
<clustering>
<clus scale="   33.081">  1  6  2 -1</clus>
<clus scale="  459.632">  4  5 -1 -1</clus>
<clus scale="  300.000">  1  4  2 -1</clus>
</clustering>
</event>
<event>
 6    1  0.9131597E-012  0.3000000E+03  0.7818608E-02  0.1093470E+00
          1   -1    0    0  502    0  0.00000000000E+00  0.00000000000E+00  0.23666212609E+03  0.23666212609E+03  0.00000000000E+00 0.  1.
         13   -1    0    0    0    0 -0.00000000000E+00 -0.00000000000E+00 -0.27500000000E+03  0.27500000000E+03  0.00000000000E+00 0.  1.
    9000005    2    1    2  501    0  0.35452555652E+02  0.18990428147E+02 -0.37168067006E+02  0.47142671243E+03  0.46823515452E+03 0.  0.
         13    1    3    3    0    0  0.12625782712E+03  0.96739996619E+02  0.16964535181E+03  0.23254937378E+03  0.00000000000E+00 0.  1.
          3    1    3    3  501    0 -0.90805271463E+02 -0.77749568472E+02 -0.20681341881E+03  0.23887733866E+03  0.00000000000E+00 0.  1.
         21    1    1    2  502  501 -0.35452555652E+02 -0.18990428147E+02 -0.11698069083E+01  0.40235413651E+02  0.00000000000E+00 0. -1.
<scales pt_clust_4="550.00000" pt_clust_5="550.00000" pt_clust_6="40.21840"></scales>
<mgrwt>
<rscale>  0 0.30000000E+03</rscale>
<asrwt>  1 0.40218405E+02</asrwt>
<pdfrwt beam="1">  1        1 0.86058955E+00 0.30000000E+03</pdfrwt>
<pdfrwt beam="2">0</pdfrwt>
<totfact> 0.31072384E-04</totfact>
</mgrwt>
<clustering>
<clus scale="   40.218">  1  6  2 -1</clus>
<clus scale="  468.235">  4  5 -1 -1</clus>
<clus scale="  300.000">  1  4  2 -1</clus>
</clustering>
</event>
<event>
 6    1  0.9131597E-012  0.3000000E+03  0.7818608E-02  0.1093470E+00
          1   -1    0    0  502    0  0.00000000000E+00  0.00000000000E+00  0.22953727092E+03  0.22953727092E+03  0.00000000000E+00 0.  1.
         13   -1    0    0    0    0 -0.00000000000E+00 -0.00000000000E+00 -0.27500000000E+03  0.27500000000E+03  0.00000000000E+00 0.  1.
    9000005    2    1    2  501    0  0.24140386315E+02  0.22925997832E+02 -0.66076609001E+02  0.46538000246E+03  0.45946062813E+03 0.  0.
         13    1    3    3    0    0  0.20008384606E+03 -0.97892044581E+02  0.41167032384E+02  0.22651958503E+03  0.00000000000E+00 0.  1.
          1    1    3    3  501    0 -0.17594345974E+03  0.12081804241E+03 -0.10724364138E+03  0.23886041743E+03  0.00000000000E+00 0.  1.
         21    1    1    2  502  501 -0.24140386315E+02 -0.22925997832E+02  0.20613879925E+02  0.39157268465E+02  0.00000000000E+00 0. -1.
<scales pt_clust_4="550.00000" pt_clust_5="550.00000" pt_clust_6="33.29204"></scales>
<mgrwt>
<rscale>  0 0.30000000E+03</rscale>
<asrwt>  1 0.33292036E+02</asrwt>
<pdfrwt beam="1">  1        1 0.83468099E+00 0.30000000E+03</pdfrwt>
<pdfrwt beam="2">0</pdfrwt>
<totfact> 0.54904051E-04</totfact>
</mgrwt>
<clustering>
<clus scale="   33.292">  1  6  2 -1</clus>
<clus scale="  459.461">  4  5 -1 -1</clus>
<clus scale="  300.000">  1  4  2 -1</clus>
</clustering>
</event>
<event>
 6    1  0.9131597E-012  0.3000000E+03  0.7818608E-02  0.1093470E+00
          1   -1    0    0  502    0  0.00000000000E+00  0.00000000000E+00  0.24416895958E+03  0.24416895958E+03  0.00000000000E+00 0.  1.
         13   -1    0    0    0    0 -0.00000000000E+00 -0.00000000000E+00 -0.27500000000E+03  0.27500000000E+03  0.00000000000E+00 0.  1.
    9000005    2    1    2  501    0  0.31928482059E+02  0.12363090191E+01 -0.57828358597E+02  0.47733820994E+03  0.47274379021E+03 0.  0.
         13    1    3    3    0    0 -0.84403515503E+02 -0.61166693484E+02  0.17846082412E+03  0.20667264832E+03  0.00000000000E+00 0.  1.
          1    1    3    3  501    0  0.11633199756E+03  0.62403002504E+02 -0.23628918271E+03  0.27066556162E+03  0.00000000000E+00 0.  1.
         21    1    1    2  502  501 -0.31928482059E+02 -0.12363090191E+01  0.26997318173E+02  0.41830749637E+02  0.00000000000E+00 0. -1.
<scales pt_clust_4="550.00000" pt_clust_5="550.00000" pt_clust_6="31.95241"></scales>
<mgrwt>
<rscale>  0 0.30000000E+03</rscale>
<asrwt>  1 0.31952409E+02</asrwt>
<pdfrwt beam="1">  1        1 0.88788713E+00 0.30000000E+03</pdfrwt>
<pdfrwt beam="2">0</pdfrwt>
<totfact> 0.15753144E-04</totfact>
</mgrwt>
<clustering>
<clus scale="   31.952">  1  6  2 -1</clus>
<clus scale="  472.744">  4  5 -1 -1</clus>
<clus scale="  300.000">  1  4  2 -1</clus>
</clustering>
</event>
<event>
 6    1  0.9131597E-012  0.3000000E+03  0.7818608E-02  0.1093470E+00
          1   -1    0    0  502    0  0.00000000000E+00  0.00000000000E+00  0.26071835721E+03  0.26071835721E+03  0.00000000000E+00 0.  1.
         13   -1    0    0    0    0 -0.00000000000E+00 -0.00000000000E+00 -0.27500000000E+03  0.27500000000E+03  0.00000000000E+00 0.  1.
    9000005    2    1    2  501    0 -0.16287245557E+02  0.43297528389E+02 -0.67339195185E+02  0.46532621135E+03  0.45809820501E+03 0.  0.
         13    1    3    3    0    0  0.37440551922E+02 -0.91229424894E+02 -0.22835523946E+03  0.24873825255E+03  0.00000000000E+00 0.  1.
          1    1    3    3  501    0 -0.53727797479E+02  0.13452695328E+03  0.16101604428E+03  0.21658795880E+03  0.00000000000E+00 0.  1.
         21    1    1    2  502  501  0.16287245557E+02 -0.43297528389E+02  0.53057552394E+02  0.70392145858E+02  0.00000000000E+00 0. -1.
<scales pt_clust_4="550.00000" pt_clust_5="550.00000" pt_clust_6="46.25960"></scales>
<mgrwt>
<rscale>  0 0.30000000E+03</rscale>
<asrwt>  1 0.46259597E+02</asrwt>
<pdfrwt beam="1">  1        1 0.94806675E+00 0.30000000E+03</pdfrwt>
<pdfrwt beam="2">0</pdfrwt>
<totfact> 0.12844038E-05</totfact>
</mgrwt>
<clustering>
<clus scale="   46.260">  1  6  2 -1</clus>
<clus scale="  458.098">  4  5 -1 -1</clus>
<clus scale="  300.000">  1  4  2 -1</clus>
</clustering>
</event>
<event>
 6    1  0.9131597E-012  0.3000000E+03  0.7818608E-02  0.1093470E+00
          1   -1    0    0  502    0  0.00000000000E+00  0.00000000000E+00  0.24558475606E+03  0.24558475606E+03  0.00000000000E+00 0.  1.
         13   -1    0    0    0    0 -0.00000000000E+00 -0.00000000000E+00 -0.27500000000E+03  0.27500000000E+03  0.00000000000E+00 0.  1.
    9000005    2    1    2  501    0 -0.69783935350E+01  0.37712892626E+02 -0.29393273564E+02  0.48223165020E+03  0.47980458488E+03 0.  0.
         13    1    3    3    0    0  0.17735164890E+03  0.42231696901E+02 -0.17083592589E+03  0.24984402567E+03  0.00000000000E+00 0.  1.
          1    1    3    3  501    0 -0.18433004243E+03 -0.45188042747E+01  0.14144265233E+03  0.23238762452E+03  0.00000000000E+00 0.  1.
         21    1    1    2  502  501  0.69783935350E+01 -0.37712892626E+02 -0.21970375023E-01  0.38353105862E+02  0.00000000000E+00 0. -1.
<scales pt_clust_4="550.00000" pt_clust_5="550.00000" pt_clust_6="38.35310"></scales>
<mgrwt>
<rscale>  0 0.30000000E+03</rscale>
<asrwt>  1 0.38353100E+02</asrwt>
<pdfrwt beam="1">  1        1 0.89303548E+00 0.30000000E+03</pdfrwt>
<pdfrwt beam="2">0</pdfrwt>
<totfact> 0.13056313E-04</totfact>
</mgrwt>
<clustering>
<clus scale="   38.353">  1  6  2 -1</clus>
<clus scale="  479.805">  4  5 -1 -1</clus>
<clus scale="  300.000">  1  4  2 -1</clus>
</clustering>
</event>
<event>
 6    1  0.9131597E-012  0.3000000E+03  0.7818608E-02  0.1093470E+00
          1   -1    0    0  502    0  0.00000000000E+00  0.00000000000E+00  0.23196761580E+03  0.23196761580E+03  0.00000000000E+00 0.  1.
         13   -1    0    0    0    0 -0.00000000000E+00 -0.00000000000E+00 -0.27500000000E+03  0.27500000000E+03  0.00000000000E+00 0.  1.
    9000005    2    1    2  501    0  0.34039918287E+02  0.17403158975E+02 -0.64751613428E+02  0.46299818440E+03  0.45685113696E+03 0.  0.
         13    1    3    3    0    0  0.70395998447E+02  0.17816607624E+03 -0.17921415767E+03  0.26232891878E+03  0.00000000000E+00 0.  1.
          1    1    3    3  501    0 -0.36356080160E+02 -0.16076291726E+03  0.11446254424E+03  0.20066926562E+03  0.00000000000E+00 0.  1.
         21    1    1    2  502  501 -0.34039918287E+02 -0.17403158975E+02  0.21719229230E+02  0.43969431400E+02  0.00000000000E+00 0.  1.
<scales pt_clust_4="550.00000" pt_clust_5="550.00000" pt_clust_6="38.23069"></scales>
<mgrwt>
<rscale>  0 0.30000000E+03</rscale>
<asrwt>  1 0.38230694E+02</asrwt>
<pdfrwt beam="1">  1        1 0.84351860E+00 0.30000000E+03</pdfrwt>
<pdfrwt beam="2">0</pdfrwt>
<totfact> 0.45775436E-04</totfact>
</mgrwt>
<clustering>
<clus scale="   38.231">  1  6  2 -1</clus>
<clus scale="  456.851">  4  5 -1 -1</clus>
<clus scale="  300.000">  1  4  2 -1</clus>
</clustering>
</event>
<event>
 6    1  0.9131597E-012  0.3000000E+03  0.7818608E-02  0.1093470E+00
          1   -1    0    0  502    0  0.00000000000E+00  0.00000000000E+00  0.23378202376E+03  0.23378202376E+03  0.00000000000E+00 0.  1.
         13   -1    0    0    0    0 -0.00000000000E+00 -0.00000000000E+00 -0.27500000000E+03  0.27500000000E+03  0.00000000000E+00 0.  1.
    9000005    2    1    2  501    0 -0.21090005581E+02  0.22390720608E+02 -0.56173876392E+02  0.47457951429E+03  0.47023832074E+03 0.  0.
         13    1    3    3    0    0  0.46891630970E+01  0.77607166181E+02 -0.25501844761E+03  0.26660695624E+03  0.00000000000E+00 0.  1.
          3    1    3    3  501    0 -0.25779168678E+02 -0.55216445573E+02  0.19884457122E+03  0.20797255805E+03  0.00000000000E+00 0.  1.
         21    1    1    2  502  501  0.21090005581E+02 -0.22390720608E+02  0.14955900157E+02  0.34202509473E+02  0.00000000000E+00 0. -1.
<scales pt_clust_4="550.00000" pt_clust_5="550.00000" pt_clust_6="30.75927"></scales>
<mgrwt>
<rscale>  0 0.30000000E+03</rscale>
<asrwt>  1 0.30759270E+02</asrwt>
<pdfrwt beam="1">  1        1 0.85011645E+00 0.30000000E+03</pdfrwt>
<pdfrwt beam="2">0</pdfrwt>
<totfact> 0.41601196E-04</totfact>
</mgrwt>
<clustering>
<clus scale="   30.759">  1  6  2 -1</clus>
<clus scale="  470.238">  4  5 -1 -1</clus>
<clus scale="  300.000">  1  4  2 -1</clus>
</clustering>
</event>
<event>
 6    1  0.9131597E-012  0.3000000E+03  0.7818608E-02  0.1093470E+00
          1   -1    0    0  502    0  0.00000000000E+00  0.00000000000E+00  0.23748063877E+03  0.23748063877E+03  0.00000000000E+00 0.  1.
         13   -1    0    0    0    0 -0.00000000000E+00 -0.00000000000E+00 -0.27500000000E+03  0.27500000000E+03  0.00000000000E+00 0.  1.
    9000005    2    1    2  501    0 -0.31154457903E+01  0.42678493409E+02 -0.62058017703E+02  0.46315209264E+03  0.45697648030E+03 0.  0.
         13    1    3    3    0    0  0.14790194259E+02  0.24463054939E+03 -0.84348186627E+02  0.25918617271E+03  0.00000000000E+00 0.  1.
          3    1    3    3  501    0 -0.17905640049E+02 -0.20195205598E+03  0.22290168924E+02  0.20396591992E+03  0.00000000000E+00 0.  1.
         21    1    1    2  502  501  0.31154457903E+01 -0.42678493409E+02  0.24538656470E+02  0.49328546132E+02  0.00000000000E+00 0. -1.
<scales pt_clust_4="550.00000" pt_clust_5="550.00000" pt_clust_6="42.79205"></scales>
<mgrwt>
<rscale>  0 0.30000000E+03</rscale>
<asrwt>  1 0.42792053E+02</asrwt>
<pdfrwt beam="1">  1        1 0.86356596E+00 0.30000000E+03</pdfrwt>
<pdfrwt beam="2">0</pdfrwt>
<totfact> 0.28534329E-04</totfact>
</mgrwt>
<clustering>
<clus scale="   42.792">  1  6  2 -1</clus>
<clus scale="  456.976">  4  5 -1 -1</clus>
<clus scale="  300.000">  1  4  2 -1</clus>
</clustering>
</event>
<event>
 6    1  0.9131597E-012  0.3000000E+03  0.7818608E-02  0.1093470E+00
          1   -1    0    0  502    0  0.00000000000E+00  0.00000000000E+00  0.23223288734E+03  0.23223288734E+03  0.00000000000E+00 0.  1.
         13   -1    0    0    0    0 -0.00000000000E+00 -0.00000000000E+00 -0.27500000000E+03  0.27500000000E+03  0.00000000000E+00 0.  1.
    9000005    2    1    2  501    0 -0.23476639408E+01 -0.32437068387E+02 -0.54122652458E+02  0.47278548954E+03  0.46855008556E+03 0.  0.
         13    1    3    3    0    0  0.12279005725E+03  0.13847972735E+03  0.10042611292E+03  0.21056931686E+03  0.00000000000E+00 0.  1.
          3    1    3    3  501    0 -0.12513772119E+03 -0.17091679574E+03 -0.15454876538E+03  0.26221617267E+03  0.00000000000E+00 0.  1.
         21    1    1    2  502  501  0.23476639408E+01  0.32437068387E+02  0.11355539801E+02  0.34447397807E+02  0.00000000000E+00 0. -1.
<scales pt_clust_4="550.00000" pt_clust_5="550.00000" pt_clust_6="32.52191"></scales>
<mgrwt>
<rscale>  0 0.30000000E+03</rscale>
<asrwt>  1 0.32521915E+02</asrwt>
<pdfrwt beam="1">  1        1 0.84448323E+00 0.30000000E+03</pdfrwt>
<pdfrwt beam="2">0</pdfrwt>
<totfact> 0.46288210E-04</totfact>
</mgrwt>
<clustering>
<clus scale="   32.522">  1  6  2 -1</clus>
<clus scale="  468.550">  4  5 -1 -1</clus>
<clus scale="  300.000">  1  4  2 -1</clus>
</clustering>
</event>
<event>
 6    1  0.9131597E-012  0.3000000E+03  0.7818608E-02  0.1093470E+00
          1   -1    0    0  502    0  0.00000000000E+00  0.00000000000E+00  0.23017974089E+03  0.23017974089E+03  0.00000000000E+00 0.  1.
         13   -1    0    0    0    0 -0.00000000000E+00 -0.00000000000E+00 -0.27500000000E+03  0.27500000000E+03  0.00000000000E+00 0.  1.
    9000005    2    1    2  501    0 -0.18533002780E+02  0.31196125165E+02 -0.37803024184E+02  0.46822149413E+03  0.46528016131E+03 0.  0.
         13    1    3    3    0    0  0.15080627581E+03 -0.11458683821E+03 -0.12655800262E+03  0.22779289791E+03  0.00000000000E+00 0.  1.
          1    1    3    3  501    0 -0.16933927859E+03  0.14578296337E+03  0.88754978439E+02  0.24042859622E+03  0.00000000000E+00 0.  1.
         21    1    1    2  502  501  0.18533002780E+02 -0.31196125165E+02 -0.70172349266E+01  0.36958246758E+02  0.00000000000E+00 0.  1.
<scales pt_clust_4="550.00000" pt_clust_5="550.00000" pt_clust_6="36.28597"></scales>
<mgrwt>
<rscale>  0 0.30000000E+03</rscale>
<asrwt>  1 0.36285972E+02</asrwt>
<pdfrwt beam="1">  1        1 0.83701724E+00 0.30000000E+03</pdfrwt>
<pdfrwt beam="2">0</pdfrwt>
<totfact> 0.51953229E-04</totfact>
</mgrwt>
<clustering>
<clus scale="   36.286">  1  6  2 -1</clus>
<clus scale="  465.280">  4  5 -1 -1</clus>
<clus scale="  300.000">  1  4  2 -1</clus>
</clustering>
</event>
<event>
 6    1  0.9131597E-012  0.3000000E+03  0.7818608E-02  0.1093470E+00
          1   -1    0    0  502    0  0.00000000000E+00  0.00000000000E+00  0.22864499380E+03  0.22864499380E+03  0.00000000000E+00 0.  1.
         13   -1    0    0    0    0 -0.00000000000E+00 -0.00000000000E+00 -0.27500000000E+03  0.27500000000E+03  0.00000000000E+00 0.  1.
    9000005    2    1    2  501    0 -0.24591944110E+02  0.19724046607E+02 -0.63372575730E+02  0.46782042957E+03  0.46243493514E+03 0.  0.
         13    1    3    3    0    0  0.62016222574E+02  0.15399465050E+03 -0.19835195381E+03  0.25865780836E+03  0.00000000000E+00 0.  1.
          3    1    3    3  501    0 -0.86608166684E+02 -0.13427060389E+03  0.13497937808E+03  0.20916262121E+03  0.00000000000E+00 0.  1.
         21    1    1    2  502  501  0.24591944110E+02 -0.19724046607E+02  0.17017569533E+02  0.35824564232E+02  0.00000000000E+00 0.  1.
<scales pt_clust_4="550.00000" pt_clust_5="550.00000" pt_clust_6="31.52462"></scales>
<mgrwt>
<rscale>  0 0.30000000E+03</rscale>
<asrwt>  1 0.31524621E+02</asrwt>
<pdfrwt beam="1">  1        1 0.83143634E+00 0.30000000E+03</pdfrwt>
<pdfrwt beam="2">0</pdfrwt>
<totfact> 0.58696038E-04</totfact>
</mgrwt>
<clustering>
<clus scale="   31.525">  1  6  2 -1</clus>
<clus scale="  462.435">  4  5 -1 -1</clus>
<clus scale="  300.000">  1  4  2 -1</clus>
</clustering>
</event>
<event>
 6    1  0.9131597E-012  0.3000000E+03  0.7818608E-02  0.1093470E+00
          1   -1    0    0  502    0  0.00000000000E+00  0.00000000000E+00  0.22052575515E+03  0.22052575515E+03  0.00000000000E+00 0.  1.
         13   -1    0    0    0    0 -0.00000000000E+00 -0.00000000000E+00 -0.27500000000E+03  0.27500000000E+03  0.00000000000E+00 0.  1.
    9000005    2    1    2  501    0  0.25551388997E+02  0.22205037036E+02 -0.47805903157E+02  0.46102352435E+03  0.45728694326E+03 0.  0.
         13    1    3    3    0    0 -0.10097927798E+03 -0.16373708363E+03  0.72959346924E+02  0.20574186118E+03  0.00000000000E+00 0.  1.
          1    1    3    3  501    0  0.12653066698E+03  0.18594212067E+03 -0.12076525008E+03  0.25528166317E+03  0.00000000000E+00 0.  1.
         21    1    1    2  502  501 -0.25551388997E+02 -0.22205037036E+02 -0.66683416890E+01  0.34502230802E+02  0.00000000000E+00 0. -1.
<scales pt_clust_4="550.00000" pt_clust_5="550.00000" pt_clust_6="33.85171"></scales>
<mgrwt>
<rscale>  0 0.30000000E+03</rscale>
<asrwt>  1 0.33851710E+02</asrwt>
<pdfrwt beam="1">  1        1 0.80191184E+00 0.30000000E+03</pdfrwt>
<pdfrwt beam="2">0</pdfrwt>
<totfact> 0.10107582E-03</totfact>
</mgrwt>
<clustering>
<clus scale="   33.852">  1  6  2 -1</clus>
<clus scale="  457.287">  4  5 -1 -1</clus>
<clus scale="  300.000">  1  4  2 -1</clus>
</clustering>
</event>
<event>
 6    1  0.9131597E-012  0.3000000E+03  0.7818608E-02  0.1093470E+00
          1   -1    0    0  502    0  0.00000000000E+00  0.00000000000E+00  0.23171777604E+03  0.23171777604E+03  0.00000000000E+00 0.  1.
         13   -1    0    0    0    0 -0.00000000000E+00 -0.00000000000E+00 -0.27500000000E+03  0.27500000000E+03  0.00000000000E+00 0.  1.
    9000005    2    1    2  501    0  0.13951292216E+02 -0.29628290802E+02 -0.10393360471E+02  0.46030493824E+03  0.45902084926E+03 0.  0.
         13    1    3    3    0    0 -0.11325572342E+02  0.15216145206E+03 -0.16178394728E+03  0.22238574972E+03  0.00000000000E+00 0.  1.
          1    1    3    3  501    0  0.25276864558E+02 -0.18178974286E+03  0.15139058681E+03  0.23791918852E+03  0.00000000000E+00 0.  1.
         21    1    1    2  502  501 -0.13951292216E+02  0.29628290802E+02 -0.32888863492E+02  0.46412837794E+02  0.00000000000E+00 0. -1.
<scales pt_clust_4="550.00000" pt_clust_5="550.00000" pt_clust_6="32.74867"></scales>
<mgrwt>
<rscale>  0 0.30000000E+03</rscale>
<asrwt>  1 0.32748668E+02</asrwt>
<pdfrwt beam="1">  1        1 0.84261009E+00 0.30000000E+03</pdfrwt>
<pdfrwt beam="2">0</pdfrwt>
<totfact> 0.47956411E-04</totfact>
</mgrwt>
<clustering>
<clus scale="   32.749">  1  6  2 -1</clus>
<clus scale="  459.021">  4  5 -1 -1</clus>
<clus scale="  300.000">  1  4  2 -1</clus>
</clustering>
</event>
<event>
 6    1  0.9131597E-012  0.3000000E+03  0.7818608E-02  0.1093470E+00
          1   -1    0    0  502    0  0.00000000000E+00  0.00000000000E+00  0.23388599524E+03  0.23388599524E+03  0.00000000000E+00 0.  1.
         13   -1    0    0    0    0 -0.00000000000E+00 -0.00000000000E+00 -0.27500000000E+03  0.27500000000E+03  0.00000000000E+00 0.  1.
    9000005    2    1    2  501    0 -0.14788394030E+02 -0.35212292837E+02 -0.40152330700E+02  0.47068223912E+03  0.46740877013E+03 0.  0.
         13    1    3    3    0    0 -0.14770198220E+03 -0.19209697455E+03  0.47897762601E+02  0.24700469396E+03  0.00000000000E+00 0.  1.
          3    1    3    3  501    0  0.13291358817E+03  0.15688468171E+03 -0.88050093301E+02  0.22367754516E+03  0.00000000000E+00 0.  1.
         21    1    1    2  502  501  0.14788394030E+02  0.35212292837E+02 -0.96167405707E+00  0.38203756122E+02  0.00000000000E+00 0.  1.
<scales pt_clust_4="550.00000" pt_clust_5="550.00000" pt_clust_6="38.19165"></scales>
<mgrwt>
<rscale>  0 0.30000000E+03</rscale>
<asrwt>  1 0.38191650E+02</asrwt>
<pdfrwt beam="1">  1        1 0.85049453E+00 0.30000000E+03</pdfrwt>
<pdfrwt beam="2">0</pdfrwt>
<totfact> 0.39618152E-04</totfact>
</mgrwt>
<clustering>
<clus scale="   38.192">  1  6  2 -1</clus>
<clus scale="  467.409">  4  5 -1 -1</clus>
<clus scale="  300.000">  1  4  2 -1</clus>
</clustering>
</event>
<event>
 6    1  0.9131597E-012  0.3000000E+03  0.7818608E-02  0.1093470E+00
          1   -1    0    0  502    0  0.00000000000E+00  0.00000000000E+00  0.22748892468E+03  0.22748892468E+03  0.00000000000E+00 0.  1.
         13   -1    0    0    0    0 -0.00000000000E+00 -0.00000000000E+00 -0.27500000000E+03  0.27500000000E+03  0.00000000000E+00 0.  1.
    9000005    2    1    2  501    0  0.16159446862E+02 -0.28916090810E+02 -0.44133909303E+02  0.46919217888E+03  0.46593586548E+03 0.  0.
         13    1    3    3    0    0  0.11545589507E+03 -0.21154410543E+03  0.41174067890E+02  0.24449187331E+03  0.00000000000E+00 0.  1.
          1    1    3    3  501    0 -0.99296448205E+02  0.18262801462E+03 -0.85307977193E+02  0.22470030557E+03  0.00000000000E+00 0.  1.
         21    1    1    2  502  501 -0.16159446862E+02  0.28916090810E+02 -0.33771660191E+01  0.33296745801E+02  0.00000000000E+00 0. -1.
<scales pt_clust_4="550.00000" pt_clust_5="550.00000" pt_clust_6="33.12505"></scales>
<mgrwt>
<rscale>  0 0.30000000E+03</rscale>
<asrwt>  1 0.33125053E+02</asrwt>
<pdfrwt beam="1">  1        1 0.82723245E+00 0.30000000E+03</pdfrwt>
<pdfrwt beam="2">0</pdfrwt>
<totfact> 0.63057755E-04</totfact>
</mgrwt>
<clustering>
<clus scale="   33.125">  1  6  2 -1</clus>
<clus scale="  465.936">  4  5 -1 -1</clus>
<clus scale="  300.000">  1  4  2 -1</clus>
</clustering>
</event>
<event>
 6    1  0.9131597E-012  0.3000000E+03  0.7818608E-02  0.1093470E+00
          1   -1    0    0  502    0  0.00000000000E+00  0.00000000000E+00  0.24023485036E+03  0.24023485036E+03  0.00000000000E+00 0.  1.
         13   -1    0    0    0    0 -0.00000000000E+00 -0.00000000000E+00 -0.27500000000E+03  0.27500000000E+03  0.00000000000E+00 0.  1.
    9000005    2    1    2  501    0 -0.40869595019E+02 -0.68819529555E+01 -0.51523726374E+02  0.47052987337E+03  0.46586047512E+03 0.  0.
         13    1    3    3    0    0  0.20994321363E+03 -0.25699700288E+02 -0.56630259342E+02  0.21896030192E+03  0.00000000000E+00 0.  1.
          1    1    3    3  501    0 -0.25081280865E+03  0.18817747333E+02  0.51065329685E+01  0.25156957145E+03  0.00000000000E+00 0.  1.
         21    1    1    2  502  501  0.40869595019E+02  0.68819529555E+01  0.16758576731E+02  0.44704976989E+02  0.00000000000E+00 0. -1.
<scales pt_clust_4="550.00000" pt_clust_5="550.00000" pt_clust_6="41.44496"></scales>
<mgrwt>
<rscale>  0 0.30000000E+03</rscale>
<asrwt>  1 0.41444964E+02</asrwt>
<pdfrwt beam="1">  1        1 0.87358127E+00 0.30000000E+03</pdfrwt>
<pdfrwt beam="2">0</pdfrwt>
<totfact> 0.22561099E-04</totfact>
</mgrwt>
<clustering>
<clus scale="   41.445">  1  6  2 -1</clus>
<clus scale="  465.860">  4  5 -1 -1</clus>
<clus scale="  300.000">  1  4  2 -1</clus>
</clustering>
</event>
<event>
 6    1  0.9131597E-012  0.3000000E+03  0.7818608E-02  0.1093470E+00
          1   -1    0    0  502    0  0.00000000000E+00  0.00000000000E+00  0.24254208908E+03  0.24254208908E+03  0.00000000000E+00 0.  1.
         13   -1    0    0    0    0 -0.00000000000E+00 -0.00000000000E+00 -0.27500000000E+03  0.27500000000E+03  0.00000000000E+00 0.  1.
    9000005    2    1    2  501    0  0.32373031646E+01 -0.36037367245E+02 -0.66901603242E+02  0.46758670988E+03  0.46135922530E+03 0.  0.
         13    1    3    3    0    0  0.21559266118E+03  0.40049648219E+02 -0.97437010389E+02  0.23995445582E+03  0.00000000000E+00 0.  1.
          3    1    3    3  501    0 -0.21235535801E+03 -0.76087015464E+02  0.30535407147E+02  0.22763225406E+03  0.00000000000E+00 0.  1.
         21    1    1    2  502  501 -0.32373031646E+01  0.36037367245E+02  0.34443692318E+02  0.49955379192E+02  0.00000000000E+00 0. -1.
<scales pt_clust_4="550.00000" pt_clust_5="550.00000" pt_clust_6="36.18248"></scales>
<mgrwt>
<rscale>  0 0.30000000E+03</rscale>
<asrwt>  1 0.36182482E+02</asrwt>
<pdfrwt beam="1">  1        1 0.88197123E+00 0.30000000E+03</pdfrwt>
<pdfrwt beam="2">0</pdfrwt>
<totfact> 0.18518421E-04</totfact>
</mgrwt>
<clustering>
<clus scale="   36.182">  1  6  2 -1</clus>
<clus scale="  461.359">  4  5 -1 -1</clus>
<clus scale="  300.000">  1  4  2 -1</clus>
</clustering>
</event>
<event>
 6    1  0.9131597E-012  0.3000000E+03  0.7818608E-02  0.1093470E+00
          1   -1    0    0  502    0  0.00000000000E+00  0.00000000000E+00  0.22352796517E+03  0.22352796517E+03  0.00000000000E+00 0.  1.
         13   -1    0    0    0    0 -0.00000000000E+00 -0.00000000000E+00 -0.27500000000E+03  0.27500000000E+03  0.00000000000E+00 0.  1.
    9000005    2    1    2  501    0  0.27570961097E+02 -0.17236597909E+02 -0.58709953971E+02  0.46521662060E+03  0.46035028748E+03 0.  0.
         13    1    3    3    0    0  0.47560744016E+02 -0.98051799874E+02  0.18110357830E+03  0.21136387086E+03  0.00000000000E+00 0.  1.
          1    1    3    3  501    0 -0.19989782919E+02  0.80815201965E+02 -0.23981353228E+03  0.25385274974E+03  0.00000000000E+00 0.  1.
         21    1    1    2  502  501 -0.27570961097E+02  0.17236597909E+02  0.72379191397E+01  0.33311344566E+02  0.00000000000E+00 0. -1.
<scales pt_clust_4="550.00000" pt_clust_5="550.00000" pt_clust_6="32.51551"></scales>
<mgrwt>
<rscale>  0 0.30000000E+03</rscale>
<asrwt>  1 0.32515507E+02</asrwt>
<pdfrwt beam="1">  1        1 0.81282896E+00 0.30000000E+03</pdfrwt>
<pdfrwt beam="2">0</pdfrwt>
<totfact> 0.84013995E-04</totfact>
</mgrwt>
<clustering>
<clus scale="   32.516">  1  6  2 -1</clus>
<clus scale="  460.350">  4  5 -1 -1</clus>
<clus scale="  300.000">  1  4  2 -1</clus>
</clustering>
</event>
<event>
 6    1  0.9131597E-012  0.3000000E+03  0.7818608E-02  0.1093470E+00
          1   -1    0    0  502    0  0.00000000000E+00  0.00000000000E+00  0.23981285625E+03  0.23981285625E+03  0.00000000000E+00 0.  1.
         13   -1    0    0    0    0 -0.00000000000E+00 -0.00000000000E+00 -0.27500000000E+03  0.27500000000E+03  0.00000000000E+00 0.  1.
    9000005    2    1    2  501    0  0.32939928460E+01 -0.32659160926E+02 -0.43255287494E+02  0.48101099055E+03  0.47793627394E+03 0.  0.
         13    1    3    3    0    0  0.23080691770E+03 -0.51746519125E+02 -0.80129120827E+02  0.24974028811E+03  0.00000000000E+00 0.  1.
          3    1    3    3  501    0 -0.22751292486E+03  0.19087358199E+02  0.36873833332E+02  0.23127070244E+03  0.00000000000E+00 0.  1.
         21    1    1    2  502  501 -0.32939928460E+01  0.32659160926E+02  0.80681437404E+01  0.33801865698E+02  0.00000000000E+00 0.  1.
<scales pt_clust_4="550.00000" pt_clust_5="550.00000" pt_clust_6="32.82486"></scales>
<mgrwt>
<rscale>  0 0.30000000E+03</rscale>
<asrwt>  1 0.32824856E+02</asrwt>
<pdfrwt beam="1">  1        1 0.87204675E+00 0.30000000E+03</pdfrwt>
<pdfrwt beam="2">0</pdfrwt>
<totfact> 0.24428298E-04</totfact>
</mgrwt>
<clustering>
<clus scale="   32.825">  1  6  2 -1</clus>
<clus scale="  477.936">  4  5 -1 -1</clus>
<clus scale="  300.000">  1  4  2 -1</clus>
</clustering>
</event>
<event>
 6    1  0.9131597E-012  0.3000000E+03  0.7818608E-02  0.1093470E+00
          1   -1    0    0  502    0  0.00000000000E+00  0.00000000000E+00  0.24076435023E+03  0.24076435023E+03  0.00000000000E+00 0.  1.
         13   -1    0    0    0    0 -0.00000000000E+00 -0.00000000000E+00 -0.27500000000E+03  0.27500000000E+03  0.00000000000E+00 0.  1.
    9000005    2    1    2  501    0  0.47154851168E+02 -0.45794304436E+00 -0.53067304986E+02  0.46498619608E+03  0.45953480172E+03 0.  0.
         13    1    3    3    0    0  0.48341706533E+02  0.16338250635E+03 -0.18727998811E+03  0.25318877921E+03  0.00000000000E+00 0.  1.
          1    1    3    3  501    0 -0.11868553646E+01 -0.16384044939E+03  0.13421268312E+03  0.21179741687E+03  0.00000000000E+00 0.  1.
         21    1    1    2  502  501 -0.47154851168E+02  0.45794304436E+00  0.18831655220E+02  0.50778154150E+02  0.00000000000E+00 0. -1.
<scales pt_clust_4="550.00000" pt_clust_5="550.00000" pt_clust_6="47.15707"></scales>
<mgrwt>
<rscale>  0 0.30000000E+03</rscale>
<asrwt>  1 0.47157075E+02</asrwt>
<pdfrwt beam="1">  1        1 0.87550673E+00 0.30000000E+03</pdfrwt>
<pdfrwt beam="2">0</pdfrwt>
<totfact> 0.21041939E-04</totfact>
</mgrwt>
<clustering>
<clus scale="   47.157">  1  6  2 -1</clus>
<clus scale="  459.535">  4  5 -1 -1</clus>
<clus scale="  300.000">  1  4  2 -1</clus>
</clustering>
</event>
<event>
 6    1  0.9131597E-012  0.3000000E+03  0.7818608E-02  0.1093470E+00
          1   -1    0    0  502    0  0.00000000000E+00  0.00000000000E+00  0.22642441122E+03  0.22642441122E+03  0.00000000000E+00 0.  1.
         13   -1    0    0    0    0 -0.00000000000E+00 -0.00000000000E+00 -0.27500000000E+03  0.27500000000E+03  0.00000000000E+00 0.  1.
    9000005    2    1    2  501    0 -0.18501314463E+02  0.23770581045E+02 -0.67975123708E+02  0.46559591536E+03  0.45962114812E+03 0.  0.
         13    1    3    3    0    0 -0.16291337854E+02 -0.19989624115E+03 -0.12297046098E+03  0.23525656035E+03  0.00000000000E+00 0.  1.
          3    1    3    3  501    0 -0.22099766087E+01  0.22366682219E+03  0.54995337271E+02  0.23033935501E+03  0.00000000000E+00 0.  1.
         21    1    1    2  502  501  0.18501314463E+02 -0.23770581045E+02  0.19399534926E+02  0.35828495858E+02  0.00000000000E+00 0.  1.
<scales pt_clust_4="550.00000" pt_clust_5="550.00000" pt_clust_6="30.12207"></scales>
<mgrwt>
<rscale>  0 0.30000000E+03</rscale>
<asrwt>  1 0.30122071E+02</asrwt>
<pdfrwt beam="1">  1        1 0.82336150E+00 0.30000000E+03</pdfrwt>
<pdfrwt beam="2">0</pdfrwt>
<totfact> 0.69507416E-04</totfact>
</mgrwt>
<clustering>
<clus scale="   30.122">  1  6  2 -1</clus>
<clus scale="  459.621">  4  5 -1 -1</clus>
<clus scale="  300.000">  1  4  2 -1</clus>
</clustering>
</event>
<event>
 6    1  0.9131597E-012  0.3000000E+03  0.7818608E-02  0.1093470E+00
          1   -1    0    0  502    0  0.00000000000E+00  0.00000000000E+00  0.24141089371E+03  0.24141089371E+03  0.00000000000E+00 0.  1.
         13   -1    0    0    0    0 -0.00000000000E+00 -0.00000000000E+00 -0.27500000000E+03  0.27500000000E+03  0.00000000000E+00 0.  1.
    9000005    2    1    2  501    0  0.31102980913E+02  0.11811286353E+02 -0.26809610030E+02  0.48245705039E+03  0.48056128472E+03 0.  0.
         13    1    3    3    0    0 -0.17355211359E+03  0.12851757065E+03  0.71056197846E+02  0.22734573968E+03  0.00000000000E+00 0.  1.
          3    1    3    3  501    0  0.20465509451E+03 -0.11670628430E+03 -0.97865807876E+02  0.25511131071E+03  0.00000000000E+00 0.  1.
         21    1    1    2  502  501 -0.31102980913E+02 -0.11811286353E+02 -0.67794962566E+01  0.33953843324E+02  0.00000000000E+00 0.  1.
<scales pt_clust_4="550.00000" pt_clust_5="550.00000" pt_clust_6="33.27015"></scales>
<mgrwt>
<rscale>  0 0.30000000E+03</rscale>
<asrwt>  1 0.33270152E+02</asrwt>
<pdfrwt beam="1">  1        1 0.87785780E+00 0.30000000E+03</pdfrwt>
<pdfrwt beam="2">0</pdfrwt>
<totfact> 0.21128711E-04</totfact>
</mgrwt>
<clustering>
<clus scale="   33.270">  1  6  2 -1</clus>
<clus scale="  480.561">  4  5 -1 -1</clus>
<clus scale="  300.000">  1  4  2 -1</clus>
</clustering>
</event>
<event>
 6    1  0.9131597E-012  0.3000000E+03  0.7818608E-02  0.1093470E+00
          1   -1    0    0  502    0  0.00000000000E+00  0.00000000000E+00  0.23517329480E+03  0.23517329480E+03  0.00000000000E+00 0.  1.
         13   -1    0    0    0    0 -0.00000000000E+00 -0.00000000000E+00 -0.27500000000E+03  0.27500000000E+03  0.00000000000E+00 0.  1.
    9000005    2    1    2  501    0  0.31047224345E+02  0.99038629504E+01 -0.45672036955E+02  0.47706461702E+03  0.47375383610E+03 0.  0.
         13    1    3    3    0    0  0.14555760584E+03  0.36416531614E+02  0.17287902798E+03  0.22891120267E+03  0.00000000000E+00 0.  1.
          3    1    3    3  501    0 -0.11451038150E+03 -0.26512668664E+02 -0.21855106494E+03  0.24815341435E+03  0.00000000000E+00 0.  1.
         21    1    1    2  502  501 -0.31047224345E+02 -0.99038629504E+01  0.58453317571E+01  0.33108677778E+02  0.00000000000E+00 0.  1.
<scales pt_clust_4="550.00000" pt_clust_5="550.00000" pt_clust_6="32.58860"></scales>
<mgrwt>
<rscale>  0 0.30000000E+03</rscale>
<asrwt>  1 0.32588597E+02</asrwt>
<pdfrwt beam="1">  1        1 0.85517562E+00 0.30000000E+03</pdfrwt>
<pdfrwt beam="2">0</pdfrwt>
<totfact> 0.36778595E-04</totfact>
</mgrwt>
<clustering>
<clus scale="   32.589">  1  6  2 -1</clus>
<clus scale="  473.754">  4  5 -1 -1</clus>
<clus scale="  300.000">  1  4  2 -1</clus>
</clustering>
</event>
<event>
 6    1  0.9131597E-012  0.3000000E+03  0.7818608E-02  0.1093470E+00
          1   -1    0    0  502    0  0.00000000000E+00  0.00000000000E+00  0.25422071616E+03  0.25422071616E+03  0.00000000000E+00 0.  1.
         13   -1    0    0    0    0 -0.00000000000E+00 -0.00000000000E+00 -0.27500000000E+03  0.27500000000E+03  0.00000000000E+00 0.  1.
    9000005    2    1    2  501    0  0.25883889044E+02 -0.25089335262E+02 -0.69021921564E+02  0.46899777576E+03  0.46248831072E+03 0.  0.
         13    1    3    3    0    0 -0.14602259424E+01 -0.11732995397E+03 -0.24319328407E+03  0.27002115431E+03  0.00000000000E+00 0.  1.
          3    1    3    3  501    0  0.27344114986E+02  0.92240618711E+02  0.17417136251E+03  0.19897662145E+03  0.00000000000E+00 0.  1.
         21    1    1    2  502  501 -0.25883889044E+02  0.25089335262E+02  0.48242637726E+02  0.60222940402E+02  0.00000000000E+00 0.  1.
<scales pt_clust_4="550.00000" pt_clust_5="550.00000" pt_clust_6="36.04789"></scales>
<mgrwt>
<rscale>  0 0.30000000E+03</rscale>
<asrwt>  1 0.36047891E+02</asrwt>
<pdfrwt beam="1">  1        1 0.92443897E+00 0.30000000E+03</pdfrwt>
<pdfrwt beam="2">0</pdfrwt>
<totfact> 0.33496325E-05</totfact>
</mgrwt>
<clustering>
<clus scale="   36.048">  1  6  2 -1</clus>
<clus scale="  462.488">  4  5 -1 -1</clus>
<clus scale="  300.000">  1  4  2 -1</clus>
</clustering>
</event>
<event>
 6    1  0.9131597E-012  0.3000000E+03  0.7818608E-02  0.1093470E+00
          1   -1    0    0  502    0  0.00000000000E+00  0.00000000000E+00  0.22839946201E+03  0.22839946201E+03  0.00000000000E+00 0.  1.
         13   -1    0    0    0    0 -0.00000000000E+00 -0.00000000000E+00 -0.27500000000E+03  0.27500000000E+03  0.00000000000E+00 0.  1.
    9000005    2    1    2  501    0  0.34983424122E+02  0.15753796066E+02 -0.58997868830E+02  0.46307929502E+03  0.45770040736E+03 0.  0.
         13    1    3    3    0    0 -0.53762664851E+02 -0.20811132345E+03  0.82752128874E+00  0.21494518341E+03  0.00000000000E+00 0.  1.
          1    1    3    3  501    0  0.88746088973E+02  0.22386511951E+03 -0.59825390119E+02  0.24813411161E+03  0.00000000000E+00 0.  1.
         21    1    1    2  502  501 -0.34983424122E+02 -0.15753796066E+02  0.12397330837E+02  0.40320166984E+02  0.00000000000E+00 0.  1.
<scales pt_clust_4="550.00000" pt_clust_5="550.00000" pt_clust_6="38.36694"></scales>
<mgrwt>
<rscale>  0 0.30000000E+03</rscale>
<asrwt>  1 0.38366940E+02</asrwt>
<pdfrwt beam="1">  1        1 0.83054350E+00 0.30000000E+03</pdfrwt>
<pdfrwt beam="2">0</pdfrwt>
<totfact> 0.57511508E-04</totfact>
</mgrwt>
<clustering>
<clus scale="   38.367">  1  6  2 -1</clus>
<clus scale="  457.700">  4  5 -1 -1</clus>
<clus scale="  300.000">  1  4  2 -1</clus>
</clustering>
</event>
<event>
 6    1  0.9131597E-012  0.3000000E+03  0.7818608E-02  0.1093470E+00
          1   -1    0    0  502    0  0.00000000000E+00  0.00000000000E+00  0.22753372006E+03  0.22753372006E+03  0.00000000000E+00 0.  1.
         13   -1    0    0    0    0 -0.00000000000E+00 -0.00000000000E+00 -0.27500000000E+03  0.27500000000E+03  0.00000000000E+00 0.  1.
    9000005    2    1    2  501    0 -0.32519786178E+02  0.20609067409E+01 -0.50804101768E+02  0.46977818794E+03  0.46588486269E+03 0.  0.
         13    1    3    3    0    0 -0.36423459900E+02  0.22509261025E+03 -0.86496248088E+02  0.24387487069E+03  0.00000000000E+00 0.  1.
          1    1    3    3  501    0  0.39036737219E+01 -0.22303170351E+03  0.35692146321E+02  0.22590331725E+03  0.00000000000E+00 0.  1.
         21    1    1    2  502  501  0.32519786178E+02 -0.20609067409E+01  0.33378218254E+01  0.32755532116E+02  0.00000000000E+00 0. -1.
<scales pt_clust_4="550.00000" pt_clust_5="550.00000" pt_clust_6="32.58502"></scales>
<mgrwt>
<rscale>  0 0.30000000E+03</rscale>
<asrwt>  1 0.32585025E+02</asrwt>
<pdfrwt beam="1">  1        1 0.82739535E+00 0.30000000E+03</pdfrwt>
<pdfrwt beam="2">0</pdfrwt>
<totfact> 0.63046812E-04</totfact>
</mgrwt>
<clustering>
<clus scale="   32.585">  1  6  2 -1</clus>
<clus scale="  465.885">  4  5 -1 -1</clus>
<clus scale="  300.000">  1  4  2 -1</clus>
</clustering>
</event>
<event>
 6    1  0.9131597E-012  0.3000000E+03  0.7818608E-02  0.1093470E+00
          1   -1    0    0  502    0  0.00000000000E+00  0.00000000000E+00  0.21948655984E+03  0.21948655984E+03  0.00000000000E+00 0.  1.
         13   -1    0    0    0    0 -0.00000000000E+00 -0.00000000000E+00 -0.27500000000E+03  0.27500000000E+03  0.00000000000E+00 0.  1.
    9000005    2    1    2  501    0 -0.16092043542E+02 -0.28788514803E+02 -0.57696670092E+02  0.46143358807E+03  0.45662273050E+03 0.  0.
         13    1    3    3    0    0  0.72157796965E+02 -0.11070372185E+03 -0.22162826644E+03  0.25803323464E+03  0.00000000000E+00 0.  1.
          3    1    3    3  501    0 -0.88249840508E+02  0.81915207043E+02  0.16393159635E+03  0.20340035343E+03  0.00000000000E+00 0.  1.
         21    1    1    2  502  501  0.16092043542E+02  0.28788514803E+02  0.21832299324E+01  0.33052971771E+02  0.00000000000E+00 0. -1.
<scales pt_clust_4="550.00000" pt_clust_5="550.00000" pt_clust_6="32.98079"></scales>
<mgrwt>
<rscale>  0 0.30000000E+03</rscale>
<asrwt>  1 0.32980789E+02</asrwt>
<pdfrwt beam="1">  1        1 0.79813294E+00 0.30000000E+03</pdfrwt>
<pdfrwt beam="2">0</pdfrwt>
<totfact> 0.10818370E-03</totfact>
</mgrwt>
<clustering>
<clus scale="   32.981">  1  6  2 -1</clus>
<clus scale="  456.623">  4  5 -1 -1</clus>
<clus scale="  300.000">  1  4  2 -1</clus>
</clustering>
</event>
<event>
 6    1  0.9131597E-012  0.3000000E+03  0.7818608E-02  0.1093470E+00
          1   -1    0    0  502    0  0.00000000000E+00  0.00000000000E+00  0.23812082097E+03  0.23812082097E+03  0.00000000000E+00 0.  1.
         13   -1    0    0    0    0 -0.00000000000E+00 -0.00000000000E+00 -0.27500000000E+03  0.27500000000E+03  0.00000000000E+00 0.  1.
    9000005    2    1    2  501    0 -0.28750258397E+02  0.17735499346E+02 -0.60852721536E+02  0.47169792832E+03  0.46653483961E+03 0.  0.
         13    1    3    3    0    0  0.79268727878E+01 -0.53801204669E+02 -0.25543665538E+03  0.26116142488E+03  0.00000000000E+00 0.  1.
          1    1    3    3  501    0 -0.36677131184E+02  0.71536704015E+02  0.19458393384E+03  0.21053650344E+03  0.00000000000E+00 0.  1.
         21    1    1    2  502  501  0.28750258397E+02 -0.17735499346E+02  0.23973542507E+02  0.41422892647E+02  0.00000000000E+00 0. -1.
<scales pt_clust_4="550.00000" pt_clust_5="550.00000" pt_clust_6="33.78055"></scales>
<mgrwt>
<rscale>  0 0.30000000E+03</rscale>
<asrwt>  1 0.33780546E+02</asrwt>
<pdfrwt beam="1">  1        1 0.86589389E+00 0.30000000E+03</pdfrwt>
<pdfrwt beam="2">0</pdfrwt>
<totfact> 0.28133051E-04</totfact>
</mgrwt>
<clustering>
<clus scale="   33.781">  1  6  2 -1</clus>
<clus scale="  466.535">  4  5 -1 -1</clus>
<clus scale="  300.000">  1  4  2 -1</clus>
</clustering>
</event>
<event>
 6    1  0.9131597E-012  0.3000000E+03  0.7818608E-02  0.1093470E+00
          1   -1    0    0  502    0  0.00000000000E+00  0.00000000000E+00  0.24546875654E+03  0.24546875654E+03  0.00000000000E+00 0.  1.
         13   -1    0    0    0    0 -0.00000000000E+00 -0.00000000000E+00 -0.27500000000E+03  0.27500000000E+03  0.00000000000E+00 0.  1.
    9000005    2    1    2  501    0  0.30045945433E+02  0.25815974997E+02 -0.55000005311E+02  0.47337437012E+03  0.46849660650E+03 0.  0.
         13    1    3    3    0    0 -0.17794669653E+03 -0.12132056460E+03 -0.22763473596E+02  0.21656842320E+03  0.00000000000E+00 0.  1.
          1    1    3    3  501    0  0.20799264196E+03  0.14713653960E+03 -0.32236531715E+02  0.25680594691E+03  0.00000000000E+00 0.  1.
         21    1    1    2  502  501 -0.30045945433E+02 -0.25815974997E+02  0.25468761847E+02  0.47094386417E+02  0.00000000000E+00 0.  1.
<scales pt_clust_4="550.00000" pt_clust_5="550.00000" pt_clust_6="39.61342"></scales>
<mgrwt>
<rscale>  0 0.30000000E+03</rscale>
<asrwt>  1 0.39613425E+02</asrwt>
<pdfrwt beam="1">  1        1 0.89261366E+00 0.30000000E+03</pdfrwt>
<pdfrwt beam="2">0</pdfrwt>
<totfact> 0.13129549E-04</totfact>
</mgrwt>
<clustering>
<clus scale="   39.613">  1  6  2 -1</clus>
<clus scale="  468.497">  4  5 -1 -1</clus>
<clus scale="  300.000">  1  4  2 -1</clus>
</clustering>
</event>
<event>
 6    1  0.9131597E-012  0.3000000E+03  0.7818608E-02  0.1093470E+00
          1   -1    0    0  502    0  0.00000000000E+00  0.00000000000E+00  0.25017918999E+03  0.25017918999E+03  0.00000000000E+00 0.  1.
         13   -1    0    0    0    0 -0.00000000000E+00 -0.00000000000E+00 -0.27500000000E+03  0.27500000000E+03  0.00000000000E+00 0.  1.
    9000005    2    1    2  501    0 -0.15201281263E+02  0.26540801067E+02 -0.25902720043E+02  0.49457422957E+03  0.49294748663E+03 0.  0.
         13    1    3    3    0    0 -0.74617159563E+02  0.10918539603E+03  0.20401795224E+03  0.24313061519E+03  0.00000000000E+00 0.  1.
          3    1    3    3  501    0  0.59415878299E+02 -0.82644594961E+02 -0.22992067228E+03  0.25144361438E+03  0.00000000000E+00 0.  1.
         21    1    1    2  502  501  0.15201281263E+02 -0.26540801067E+02  0.10819100340E+01  0.30604960426E+02  0.00000000000E+00 0.  1.
<scales pt_clust_4="550.00000" pt_clust_5="550.00000" pt_clust_6="30.58583"></scales>
<mgrwt>
<rscale>  0 0.30000000E+03</rscale>
<asrwt>  1 0.30585831E+02</asrwt>
<pdfrwt beam="1">  1        1 0.90974251E+00 0.30000000E+03</pdfrwt>
<pdfrwt beam="2">0</pdfrwt>
<totfact> 0.74783261E-05</totfact>
</mgrwt>
<clustering>
<clus scale="   30.586">  1  6  2 -1</clus>
<clus scale="  492.947">  4  5 -1 -1</clus>
<clus scale="  300.000">  1  4  2 -1</clus>
</clustering>
</event>
<event>
 6    1  0.9131597E-012  0.3000000E+03  0.7818608E-02  0.1093470E+00
          1   -1    0    0  502    0  0.00000000000E+00  0.00000000000E+00  0.22282907098E+03  0.22282907098E+03  0.00000000000E+00 0.  1.
         13   -1    0    0    0    0 -0.00000000000E+00 -0.00000000000E+00 -0.27500000000E+03  0.27500000000E+03  0.00000000000E+00 0.  1.
    9000005    2    1    2  501    0  0.11073808705E+02 -0.28489797140E+02 -0.63856363600E+02  0.46510526983E+03  0.45968573947E+03 0.  0.
         13    1    3    3    0    0 -0.90396081331E+02 -0.18335375121E+03 -0.15708720426E+03  0.25781085963E+03  0.00000000000E+00 0.  1.
          3    1    3    3  501    0  0.10146989004E+03  0.15486395407E+03  0.93230840655E+02  0.20729441021E+03  0.00000000000E+00 0.  1.
         21    1    1    2  502  501 -0.11073808705E+02  0.28489797140E+02  0.11685434584E+02  0.32723801150E+02  0.00000000000E+00 0.  1.
<scales pt_clust_4="550.00000" pt_clust_5="550.00000" pt_clust_6="30.56629"></scales>
<mgrwt>
<rscale>  0 0.30000000E+03</rscale>
<asrwt>  1 0.30566285E+02</asrwt>
<pdfrwt beam="1">  1        1 0.81028753E+00 0.30000000E+03</pdfrwt>
<pdfrwt beam="2">0</pdfrwt>
<totfact> 0.89020221E-04</totfact>
</mgrwt>
<clustering>
<clus scale="   30.566">  1  6  2 -1</clus>
<clus scale="  459.686">  4  5 -1 -1</clus>
<clus scale="  300.000">  1  4  2 -1</clus>
</clustering>
</event>
<event>
 6    1  0.9131597E-012  0.3000000E+03  0.7818608E-02  0.1093470E+00
          1   -1    0    0  502    0  0.00000000000E+00  0.00000000000E+00  0.23205193599E+03  0.23205193599E+03  0.00000000000E+00 0.  1.
         13   -1    0    0    0    0 -0.00000000000E+00 -0.00000000000E+00 -0.27500000000E+03  0.27500000000E+03  0.00000000000E+00 0.  1.
    9000005    2    1    2  501    0 -0.66835884219E+01  0.37630338953E+02 -0.28595722360E+02  0.46622666838E+03  0.46377675471E+03 0.  0.
         13    1    3    3    0    0  0.19290486715E+02 -0.19384458612E+03 -0.10473258375E+03  0.22117133753E+03  0.00000000000E+00 0.  1.
          3    1    3    3  501    0 -0.25974075137E+02  0.23147492507E+03  0.76136861392E+02  0.24505533085E+03  0.00000000000E+00 0.  1.
         21    1    1    2  502  501  0.66835884219E+01 -0.37630338953E+02 -0.14352341655E+02  0.40825267603E+02  0.00000000000E+00 0.  1.
<scales pt_clust_4="550.00000" pt_clust_5="550.00000" pt_clust_6="38.21929"></scales>
<mgrwt>
<rscale>  0 0.30000000E+03</rscale>
<asrwt>  1 0.38219291E+02</asrwt>
<pdfrwt beam="1">  1        1 0.84382522E+00 0.30000000E+03</pdfrwt>
<pdfrwt beam="2">0</pdfrwt>
<totfact> 0.45502937E-04</totfact>
</mgrwt>
<clustering>
<clus scale="   38.219">  1  6  2 -1</clus>
<clus scale="  463.777">  4  5 -1 -1</clus>
<clus scale="  300.000">  1  4  2 -1</clus>
</clustering>
</event>
<event>
 6    1  0.9131597E-012  0.3000000E+03  0.7818608E-02  0.1093470E+00
          1   -1    0    0  502    0  0.00000000000E+00  0.00000000000E+00  0.23809534591E+03  0.23809534591E+03  0.00000000000E+00 0.  1.
         13   -1    0    0    0    0 -0.00000000000E+00 -0.00000000000E+00 -0.27500000000E+03  0.27500000000E+03  0.00000000000E+00 0.  1.
    9000005    2    1    2  501    0  0.31261245973E+01  0.50410520403E+02 -0.46145255968E+02  0.46174963581E+03  0.45665342252E+03 0.  0.
         13    1    3    3    0    0  0.96217143204E+02  0.22749982891E+03 -0.78283983082E+02  0.25911829887E+03  0.00000000000E+00 0.  1.
          3    1    3    3  501    0 -0.93091018607E+02 -0.17708930851E+03  0.32138727114E+02  0.20263133695E+03  0.00000000000E+00 0.  1.
         21    1    1    2  502  501 -0.31261245973E+01 -0.50410520403E+02  0.92406018766E+01  0.51345710097E+02  0.00000000000E+00 0.  1.
<scales pt_clust_4="550.00000" pt_clust_5="550.00000" pt_clust_6="50.50736"></scales>
<mgrwt>
<rscale>  0 0.30000000E+03</rscale>
<asrwt>  1 0.50507358E+02</asrwt>
<pdfrwt beam="1">  1        1 0.86580126E+00 0.30000000E+03</pdfrwt>
<pdfrwt beam="2">0</pdfrwt>
<totfact> 0.26212065E-04</totfact>
</mgrwt>
<clustering>
<clus scale="   50.507">  1  6  2 -1</clus>
<clus scale="  456.653">  4  5 -1 -1</clus>
<clus scale="  300.000">  1  4  2 -1</clus>
</clustering>
</event>
<event>
 6    1  0.9131597E-012  0.3000000E+03  0.7818608E-02  0.1093470E+00
          1   -1    0    0  502    0  0.00000000000E+00  0.00000000000E+00  0.25672509860E+03  0.25672509860E+03  0.00000000000E+00 0.  1.
         13   -1    0    0    0    0 -0.00000000000E+00 -0.00000000000E+00 -0.27500000000E+03  0.27500000000E+03  0.00000000000E+00 0.  1.
    9000005    2    1    2  501    0  0.31287331624E+02 -0.87656810451E+01 -0.19955692429E+02  0.49918958964E+03  0.49773113471E+03 0.  0.
         13    1    3    3    0    0 -0.11601816121E+03  0.12063775355E+03 -0.18021987265E+03  0.24595301139E+03  0.00000000000E+00 0.  1.
          3    1    3    3  501    0  0.14730549284E+03 -0.12940343460E+03  0.16026418022E+03  0.25323657826E+03  0.00000000000E+00 0.  1.
         21    1    1    2  502  501 -0.31287331624E+02  0.87656810451E+01  0.16807910245E+01  0.32535508953E+02  0.00000000000E+00 0.  1.
<scales pt_clust_4="550.00000" pt_clust_5="550.00000" pt_clust_6="32.49206"></scales>
<mgrwt>
<rscale>  0 0.30000000E+03</rscale>
<asrwt>  1 0.32492065E+02</asrwt>
<pdfrwt beam="1">  1        1 0.93354581E+00 0.30000000E+03</pdfrwt>
<pdfrwt beam="2">0</pdfrwt>
<totfact> 0.23798856E-05</totfact>
</mgrwt>
<clustering>
<clus scale="   32.492">  1  6  2 -1</clus>
<clus scale="  497.731">  4  5 -1 -1</clus>
<clus scale="  300.000">  1  4  2 -1</clus>
</clustering>
</event>
<event>
 6    1  0.9131597E-012  0.3000000E+03  0.7818608E-02  0.1093470E+00
          1   -1    0    0  502    0  0.00000000000E+00  0.00000000000E+00  0.22449027073E+03  0.22449027073E+03  0.00000000000E+00 0.  1.
         13   -1    0    0    0    0 -0.00000000000E+00 -0.00000000000E+00 -0.27500000000E+03  0.27500000000E+03  0.00000000000E+00 0.  1.
    9000005    2    1    2  501    0  0.26187895435E+02  0.21289520625E+02 -0.46738544428E+02  0.46553042104E+03  0.46194700110E+03 0.  0.
         13    1    3    3    0    0 -0.10538856630E+03 -0.16595257283E+03  0.69932697206E+02  0.20865662816E+03  0.00000000000E+00 0.  1.
          3    1    3    3  501    0  0.13157646174E+03  0.18724209346E+03 -0.11667124163E+03  0.25687379288E+03  0.00000000000E+00 0.  1.
         21    1    1    2  502  501 -0.26187895435E+02 -0.21289520625E+02 -0.37711848401E+01  0.33959849688E+02  0.00000000000E+00 0.  1.
<scales pt_clust_4="550.00000" pt_clust_5="550.00000" pt_clust_6="33.74983"></scales>
<mgrwt>
<rscale>  0 0.30000000E+03</rscale>
<asrwt>  1 0.33749825E+02</asrwt>
<pdfrwt beam="1">  1        1 0.81632826E+00 0.30000000E+03</pdfrwt>
<pdfrwt beam="2">0</pdfrwt>
<totfact> 0.78181054E-04</totfact>
</mgrwt>
<clustering>
<clus scale="   33.750">  1  6  2 -1</clus>
<clus scale="  461.947">  4  5 -1 -1</clus>
<clus scale="  300.000">  1  4  2 -1</clus>
</clustering>
</event>
<event>
 6    1  0.9131597E-012  0.3000000E+03  0.7818608E-02  0.1093470E+00
          1   -1    0    0  502    0  0.00000000000E+00  0.00000000000E+00  0.23860510529E+03  0.23860510529E+03  0.00000000000E+00 0.  1.
         13   -1    0    0    0    0 -0.00000000000E+00 -0.00000000000E+00 -0.27500000000E+03  0.27500000000E+03  0.00000000000E+00 0.  1.
    9000005    2    1    2  501    0 -0.34815754995E+02  0.43260181724E+01 -0.55440586827E+02  0.47368531550E+03  0.46911967367E+03 0.  0.
         13    1    3    3    0    0 -0.44610578928E+02  0.15701994467E+03 -0.20342637230E+03  0.26082111825E+03  0.00000000000E+00 0.  1.
          1    1    3    3  501    0  0.97948239333E+01 -0.15269392650E+03  0.14798578547E+03  0.21286419725E+03  0.00000000000E+00 0.  1.
         21    1    1    2  502  501  0.34815754995E+02 -0.43260181724E+01  0.19045692121E+02  0.39919789797E+02  0.00000000000E+00 0.  1.
<scales pt_clust_4="550.00000" pt_clust_5="550.00000" pt_clust_6="35.08349"></scales>
<mgrwt>
<rscale>  0 0.30000000E+03</rscale>
<asrwt>  1 0.35083489E+02</asrwt>
<pdfrwt beam="1">  1        1 0.86765493E+00 0.30000000E+03</pdfrwt>
<pdfrwt beam="2">0</pdfrwt>
<totfact> 0.26763489E-04</totfact>
</mgrwt>
<clustering>
<clus scale="   35.083">  1  6  2 -1</clus>
<clus scale="  469.120">  4  5 -1 -1</clus>
<clus scale="  300.000">  1  4  2 -1</clus>
</clustering>
</event>
<event>
 6    1  0.9131597E-012  0.3000000E+03  0.7818608E-02  0.1093470E+00
          1   -1    0    0  502    0  0.00000000000E+00  0.00000000000E+00  0.24232441679E+03  0.24232441679E+03  0.00000000000E+00 0.  1.
         13   -1    0    0    0    0 -0.00000000000E+00 -0.00000000000E+00 -0.27500000000E+03  0.27500000000E+03  0.00000000000E+00 0.  1.
    9000005    2    1    2  501    0 -0.23707185828E+02 -0.20069359277E+02 -0.57303813776E+02  0.47768403861E+03  0.47321612803E+03 0.  0.
         13    1    3    3    0    0  0.20851203207E+01  0.16782896839E+03  0.12910564663E+03  0.21175263481E+03  0.00000000000E+00 0.  1.
          1    1    3    3  501    0 -0.25792306149E+02 -0.18789832767E+03 -0.18640946040E+03  0.26593140380E+03  0.00000000000E+00 0.  1.
         21    1    1    2  502  501  0.23707185828E+02  0.20069359277E+02  0.24628230570E+02  0.39640378186E+02  0.00000000000E+00 0.  1.
<scales pt_clust_4="550.00000" pt_clust_5="550.00000" pt_clust_6="31.06139"></scales>
<mgrwt>
<rscale>  0 0.30000000E+03</rscale>
<asrwt>  1 0.31061388E+02</asrwt>
<pdfrwt beam="1">  1        1 0.88117970E+00 0.30000000E+03</pdfrwt>
<pdfrwt beam="2">0</pdfrwt>
<totfact> 0.19512071E-04</totfact>
</mgrwt>
<clustering>
<clus scale="   31.061">  1  6  2 -1</clus>
<clus scale="  473.216">  4  5 -1 -1</clus>
<clus scale="  300.000">  1  4  2 -1</clus>
</clustering>
</event>
<event>
 6    1  0.9131597E-012  0.3000000E+03  0.7818608E-02  0.1093470E+00
          1   -1    0    0  502    0  0.00000000000E+00  0.00000000000E+00  0.22955875615E+03  0.22955875615E+03  0.00000000000E+00 0.  1.
         13   -1    0    0    0    0 -0.00000000000E+00 -0.00000000000E+00 -0.27500000000E+03  0.27500000000E+03  0.00000000000E+00 0.  1.
    9000005    2    1    2  501    0  0.25275151258E+02 -0.27513633469E+02 -0.59606449159E+02  0.46460270105E+03  0.45924602093E+03 0.  0.
         13    1    3    3    0    0 -0.25388911728E+02 -0.23985241159E+03 -0.48504297561E+02  0.24602122483E+03  0.00000000000E+00 0.  1.
          1    1    3    3  501    0  0.50664062986E+02  0.21233877813E+03 -0.11102151598E+02  0.21858147622E+03  0.00000000000E+00 0.  1.
         21    1    1    2  502  501 -0.25275151258E+02  0.27513633469E+02  0.14165205308E+02  0.39956055101E+02  0.00000000000E+00 0.  1.
<scales pt_clust_4="550.00000" pt_clust_5="550.00000" pt_clust_6="37.36085"></scales>
<mgrwt>
<rscale>  0 0.30000000E+03</rscale>
<asrwt>  1 0.37360852E+02</asrwt>
<pdfrwt beam="1">  1        1 0.83475911E+00 0.30000000E+03</pdfrwt>
<pdfrwt beam="2">0</pdfrwt>
<totfact> 0.53663430E-04</totfact>
</mgrwt>
<clustering>
<clus scale="   37.361">  1  6  2 -1</clus>
<clus scale="  459.246">  4  5 -1 -1</clus>
<clus scale="  300.000">  1  4  2 -1</clus>
</clustering>
</event>
<event>
 6    1  0.9131597E-012  0.3000000E+03  0.7818608E-02  0.1093470E+00
          1   -1    0    0  502    0  0.00000000000E+00  0.00000000000E+00  0.23156525625E+03  0.23156525625E+03  0.00000000000E+00 0.  1.
         13   -1    0    0    0    0 -0.00000000000E+00 -0.00000000000E+00 -0.27500000000E+03  0.27500000000E+03  0.00000000000E+00 0.  1.
    9000005    2    1    2  501    0 -0.30617448177E+02  0.81313138786E+01 -0.63083759099E+02  0.46928751219E+03  0.46394790875E+03 0.  0.
         13    1    3    3    0    0 -0.23824722309E+03  0.14938650046E+02  0.31944735416E+02  0.24084303747E+03  0.00000000000E+00 0.  1.
          1    1    3    3  501    0  0.20762977492E+03 -0.68073361672E+01 -0.95028494514E+02  0.22844447471E+03  0.00000000000E+00 0.  1.
         21    1    1    2  502  501  0.30617448177E+02 -0.81313138786E+01  0.19649015346E+02  0.37277744062E+02  0.00000000000E+00 0.  1.
<scales pt_clust_4="550.00000" pt_clust_5="550.00000" pt_clust_6="31.67880"></scales>
<mgrwt>
<rscale>  0 0.30000000E+03</rscale>
<asrwt>  1 0.31678800E+02</asrwt>
<pdfrwt beam="1">  1        1 0.84205548E+00 0.30000000E+03</pdfrwt>
<pdfrwt beam="2">0</pdfrwt>
<totfact> 0.48775364E-04</totfact>
</mgrwt>
<clustering>
<clus scale="   31.679">  1  6  2 -1</clus>
<clus scale="  463.948">  4  5 -1 -1</clus>
<clus scale="  300.000">  1  4  2 -1</clus>
</clustering>
</event>
<event>
 6    1  0.9131597E-012  0.3000000E+03  0.7818608E-02  0.1093470E+00
          1   -1    0    0  502    0  0.00000000000E+00  0.00000000000E+00  0.24300428895E+03  0.24300428895E+03  0.00000000000E+00 0.  1.
         13   -1    0    0    0    0 -0.00000000000E+00 -0.00000000000E+00 -0.27500000000E+03  0.27500000000E+03  0.00000000000E+00 0.  1.
    9000005    2    1    2  501    0 -0.21302835819E+01 -0.45903610850E+02 -0.74450018719E+01  0.46590422255E+03  0.46357268787E+03 0.  0.
         13    1    3    3    0    0  0.20052746974E+03  0.73542378399E+02 -0.65877414952E+02  0.22351640061E+03  0.00000000000E+00 0.  1.
          1    1    3    3  501    0 -0.20265775332E+03 -0.11944598925E+03  0.58432413081E+02  0.24238782194E+03  0.00000000000E+00 0.  1.
         21    1    1    2  502  501  0.21302835819E+01  0.45903610850E+02 -0.24550709183E+02  0.52100066397E+02  0.00000000000E+00 0.  1.
<scales pt_clust_4="550.00000" pt_clust_5="550.00000" pt_clust_6="45.95304"></scales>
<mgrwt>
<rscale>  0 0.30000000E+03</rscale>
<asrwt>  1 0.45953038E+02</asrwt>
<pdfrwt beam="1">  1        1 0.88365196E+00 0.30000000E+03</pdfrwt>
<pdfrwt beam="2">0</pdfrwt>
<totfact> 0.16844144E-04</totfact>
</mgrwt>
<clustering>
<clus scale="   45.953">  1  6  2 -1</clus>
<clus scale="  463.573">  4  5 -1 -1</clus>
<clus scale="  300.000">  1  4  2 -1</clus>
</clustering>
</event>
<event>
 6    1  0.9131597E-012  0.3000000E+03  0.7818608E-02  0.1093470E+00
          1   -1    0    0  502    0  0.00000000000E+00  0.00000000000E+00  0.22868923694E+03  0.22868923694E+03  0.00000000000E+00 0.  1.
         13   -1    0    0    0    0 -0.00000000000E+00 -0.00000000000E+00 -0.27500000000E+03  0.27500000000E+03  0.00000000000E+00 0.  1.
    9000005    2    1    2  501    0  0.30083345118E+02  0.36069725777E+01 -0.69932973715E+02  0.46527014350E+03  0.45898547658E+03 0.  0.
         13    1    3    3    0    0  0.12784934868E+03 -0.19646814282E+03 -0.97950646931E+01  0.23460846190E+03  0.00000000000E+00 0.  1.
          3    1    3    3  501    0 -0.97766003567E+02  0.20007511540E+03 -0.60137909022E+02  0.23066168160E+03  0.00000000000E+00 0.  1.
         21    1    1    2  502  501 -0.30083345118E+02 -0.36069725777E+01  0.23622210651E+02  0.38419093439E+02  0.00000000000E+00 0.  1.
<scales pt_clust_4="550.00000" pt_clust_5="550.00000" pt_clust_6="30.29881"></scales>
<mgrwt>
<rscale>  0 0.30000000E+03</rscale>
<asrwt>  1 0.30298810E+02</asrwt>
<pdfrwt beam="1">  1        1 0.83159723E+00 0.30000000E+03</pdfrwt>
<pdfrwt beam="2">0</pdfrwt>
<totfact> 0.58971974E-04</totfact>
</mgrwt>
<clustering>
<clus scale="   30.299">  1  6  2 -1</clus>
<clus scale="  458.985">  4  5 -1 -1</clus>
<clus scale="  300.000">  1  4  2 -1</clus>
</clustering>
</event>
<event>
 6    1  0.9131597E-012  0.3000000E+03  0.7818608E-02  0.1093470E+00
          1   -1    0    0  502    0  0.00000000000E+00  0.00000000000E+00  0.23163845828E+03  0.23163845828E+03  0.00000000000E+00 0.  1.
         13   -1    0    0    0    0 -0.00000000000E+00 -0.00000000000E+00 -0.27500000000E+03  0.27500000000E+03  0.00000000000E+00 0.  1.
    9000005    2    1    2  501    0 -0.29931878923E+02 -0.19161447698E+02 -0.45099378702E+02  0.47105617995E+03  0.46754346563E+03 0.  0.
         13    1    3    3    0    0 -0.11609434924E+03  0.17224982039E+03 -0.12953519212E+03  0.24480045863E+03  0.00000000000E+00 0.  1.
          3    1    3    3  501    0  0.86162470317E+02 -0.19141126808E+03  0.84435813419E+02  0.22625572132E+03  0.00000000000E+00 0.  1.
         21    1    1    2  502  501  0.29931878923E+02  0.19161447698E+02  0.17378369823E+01  0.35582278330E+02  0.00000000000E+00 0.  1.
<scales pt_clust_4="550.00000" pt_clust_5="550.00000" pt_clust_6="35.53982"></scales>
<mgrwt>
<rscale>  0 0.30000000E+03</rscale>
<asrwt>  1 0.35539815E+02</asrwt>
<pdfrwt beam="1">  1        1 0.84232167E+00 0.30000000E+03</pdfrwt>
<pdfrwt beam="2">0</pdfrwt>
<totfact> 0.47487324E-04</totfact>
</mgrwt>
<clustering>
<clus scale="   35.540">  1  6  2 -1</clus>
<clus scale="  467.543">  4  5 -1 -1</clus>
<clus scale="  300.000">  1  4  2 -1</clus>
</clustering>
</event>
<event>
 6    1  0.9131597E-012  0.3000000E+03  0.7818608E-02  0.1093470E+00
          1   -1    0    0  502    0  0.00000000000E+00  0.00000000000E+00  0.23069323592E+03  0.23069323592E+03  0.00000000000E+00 0.  1.
         13   -1    0    0    0    0 -0.00000000000E+00 -0.00000000000E+00 -0.27500000000E+03  0.27500000000E+03  0.00000000000E+00 0.  1.
    9000005    2    1    2  501    0 -0.98838930990E+01 -0.28752255513E+02 -0.56923365126E+02  0.47277573052E+03  0.46835055069E+03 0.  0.
         13    1    3    3    0    0 -0.19070815181E+03 -0.81607664067E+02  0.97477219658E+02  0.22919689866E+03  0.00000000000E+00 0.  1.
          3    1    3    3  501    0  0.18082425871E+03  0.52855408554E+02 -0.15440058478E+03  0.24357883187E+03  0.00000000000E+00 0.  1.
         21    1    1    2  502  501  0.98838930990E+01  0.28752255513E+02  0.12616601051E+02  0.32917505403E+02  0.00000000000E+00 0.  1.
<scales pt_clust_4="550.00000" pt_clust_5="550.00000" pt_clust_6="30.40368"></scales>
<mgrwt>
<rscale>  0 0.30000000E+03</rscale>
<asrwt>  1 0.30403676E+02</asrwt>
<pdfrwt beam="1">  1        1 0.83888449E+00 0.30000000E+03</pdfrwt>
<pdfrwt beam="2">0</pdfrwt>
<totfact> 0.52048800E-04</totfact>
</mgrwt>
<clustering>
<clus scale="   30.404">  1  6  2 -1</clus>
<clus scale="  468.351">  4  5 -1 -1</clus>
<clus scale="  300.000">  1  4  2 -1</clus>
</clustering>
</event>
<event>
 6    1  0.9131597E-012  0.3000000E+03  0.7818608E-02  0.1093470E+00
          1   -1    0    0  502    0  0.00000000000E+00  0.00000000000E+00  0.23608916763E+03  0.23608916763E+03  0.00000000000E+00 0.  1.
         13   -1    0    0    0    0 -0.00000000000E+00 -0.00000000000E+00 -0.27500000000E+03  0.27500000000E+03  0.00000000000E+00 0.  1.
    9000005    2    1    2  501    0 -0.24943633141E+02 -0.31837477831E+02 -0.42226674377E+02  0.47050832687E+03  0.46686098979E+03 0.  0.
         13    1    3    3    0    0  0.12193080995E+03 -0.20296585927E+03 -0.60109083322E+02  0.24428541574E+03  0.00000000000E+00 0.  1.
          3    1    3    3  501    0 -0.14687444309E+03  0.17112838144E+03  0.17882408945E+02  0.22622291113E+03  0.00000000000E+00 0.  1.
         21    1    1    2  502  501  0.24943633141E+02  0.31837477831E+02  0.33158420073E+01  0.40580840764E+02  0.00000000000E+00 0. -1.
<scales pt_clust_4="550.00000" pt_clust_5="550.00000" pt_clust_6="40.44515"></scales>
<mgrwt>
<rscale>  0 0.30000000E+03</rscale>
<asrwt>  1 0.40445146E+02</asrwt>
<pdfrwt beam="1">  1        1 0.85850606E+00 0.30000000E+03</pdfrwt>
<pdfrwt beam="2">0</pdfrwt>
<totfact> 0.32662854E-04</totfact>
</mgrwt>
<clustering>
<clus scale="   40.445">  1  6  2 -1</clus>
<clus scale="  466.861">  4  5 -1 -1</clus>
<clus scale="  300.000">  1  4  2 -1</clus>
</clustering>
</event>
<event>
 6    1  0.9131597E-012  0.3000000E+03  0.7818608E-02  0.1093470E+00
          1   -1    0    0  502    0  0.00000000000E+00  0.00000000000E+00  0.24714779464E+03  0.24714779464E+03  0.00000000000E+00 0.  1.
         13   -1    0    0    0    0 -0.00000000000E+00 -0.00000000000E+00 -0.27500000000E+03  0.27500000000E+03  0.00000000000E+00 0.  1.
    9000005    2    1    2  501    0 -0.25096088318E+02  0.34805158678E+02 -0.46856796631E+02  0.47521819621E+03  0.47095176175E+03 0.  0.
         13    1    3    3    0    0 -0.22584865915E+03  0.51975214283E+02 -0.11986278256E+03  0.26091402106E+03  0.00000000000E+00 0.  1.
          1    1    3    3  501    0  0.20075257083E+03 -0.17170055605E+02  0.73005985932E+02  0.21430417515E+03  0.00000000000E+00 0.  1.
         21    1    1    2  502  501  0.25096088318E+02 -0.34805158678E+02  0.19004591272E+02  0.46929598431E+02  0.00000000000E+00 0.  1.
<scales pt_clust_4="550.00000" pt_clust_5="550.00000" pt_clust_6="42.90935"></scales>
<mgrwt>
<rscale>  0 0.30000000E+03</rscale>
<asrwt>  1 0.42909355E+02</asrwt>
<pdfrwt beam="1">  1        1 0.89871925E+00 0.30000000E+03</pdfrwt>
<pdfrwt beam="2">0</pdfrwt>
<totfact> 0.11026343E-04</totfact>
</mgrwt>
<clustering>
<clus scale="   42.909">  1  6  2 -1</clus>
<clus scale="  470.952">  4  5 -1 -1</clus>
<clus scale="  300.000">  1  4  2 -1</clus>
</clustering>
</event>
<event>
 6    1  0.9131597E-012  0.3000000E+03  0.7818608E-02  0.1093470E+00
          1   -1    0    0  502    0  0.00000000000E+00  0.00000000000E+00  0.23582184888E+03  0.23582184888E+03  0.00000000000E+00 0.  1.
         13   -1    0    0    0    0 -0.00000000000E+00 -0.00000000000E+00 -0.27500000000E+03  0.27500000000E+03  0.00000000000E+00 0.  1.
    9000005    2    1    2  501    0  0.20012772308E+00 -0.44007279372E+02 -0.15031972928E+02  0.46062505008E+03  0.45827153071E+03 0.  0.
         13    1    3    3    0    0  0.27313750961E+02 -0.23456552753E+03 -0.91850822928E+02  0.25338429583E+03  0.00000000000E+00 0.  1.
          3    1    3    3  501    0 -0.27113623238E+02  0.19055824816E+03  0.76818849999E+02  0.20724075425E+03  0.00000000000E+00 0.  1.
         21    1    1    2  502  501 -0.20012772308E+00  0.44007279372E+02 -0.24146178191E+02  0.50196798803E+02  0.00000000000E+00 0. -1.
<scales pt_clust_4="550.00000" pt_clust_5="550.00000" pt_clust_6="44.00776"></scales>
<mgrwt>
<rscale>  0 0.30000000E+03</rscale>
<asrwt>  1 0.44007756E+02</asrwt>
<pdfrwt beam="1">  1        1 0.85753400E+00 0.30000000E+03</pdfrwt>
<pdfrwt beam="2">0</pdfrwt>
<totfact> 0.32928379E-04</totfact>
</mgrwt>
<clustering>
<clus scale="   44.008">  1  6  2 -1</clus>
<clus scale="  458.272">  4  5 -1 -1</clus>
<clus scale="  300.000">  1  4  2 -1</clus>
</clustering>
</event>
<event>
 6    1  0.9131597E-012  0.3000000E+03  0.7818608E-02  0.1093470E+00
          1   -1    0    0  502    0  0.00000000000E+00  0.00000000000E+00  0.22106702079E+03  0.22106702079E+03  0.00000000000E+00 0.  1.
         13   -1    0    0    0    0 -0.00000000000E+00 -0.00000000000E+00 -0.27500000000E+03  0.27500000000E+03  0.00000000000E+00 0.  1.
    9000005    2    1    2  501    0  0.66099904554E+01 -0.32180981712E+02 -0.45112321512E+02  0.46205067824E+03  0.45866807187E+03 0.  0.
         13    1    3    3    0    0  0.11832834004E+03  0.92455401676E+02 -0.18895406993E+03  0.24135707551E+03  0.00000000000E+00 0.  1.
          1    1    3    3  501    0 -0.11171834959E+03 -0.12463638339E+03  0.14384174842E+03  0.22069360273E+03  0.00000000000E+00 0.  1.
         21    1    1    2  502  501 -0.66099904554E+01  0.32180981712E+02 -0.88206577024E+01  0.34016342544E+02  0.00000000000E+00 0. -1.
<scales pt_clust_4="550.00000" pt_clust_5="550.00000" pt_clust_6="32.85283"></scales>
<mgrwt>
<rscale>  0 0.30000000E+03</rscale>
<asrwt>  1 0.32852833E+02</asrwt>
<pdfrwt beam="1">  1        1 0.80388008E+00 0.30000000E+03</pdfrwt>
<pdfrwt beam="2">0</pdfrwt>
<totfact> 0.98318918E-04</totfact>
</mgrwt>
<clustering>
<clus scale="   32.853">  1  6  2 -1</clus>
<clus scale="  458.668">  4  5 -1 -1</clus>
<clus scale="  300.000">  1  4  2 -1</clus>
</clustering>
</event>
<event>
 6    1  0.9131597E-012  0.3000000E+03  0.7818608E-02  0.1093470E+00
          1   -1    0    0  502    0  0.00000000000E+00  0.00000000000E+00  0.24260591919E+03  0.24260591919E+03  0.00000000000E+00 0.  1.
         13   -1    0    0    0    0 -0.00000000000E+00 -0.00000000000E+00 -0.27500000000E+03  0.27500000000E+03  0.00000000000E+00 0.  1.
    9000005    2    1    2  501    0 -0.21688754099E+02 -0.22099469769E+02 -0.64417115963E+02  0.47306084765E+03  0.46763042259E+03 0.  0.
         13    1    3    3    0    0 -0.87688376193E+01 -0.11208051461E+03  0.18003514882E+03  0.21225359615E+03  0.00000000000E+00 0.  1.
          1    1    3    3  501    0 -0.12919916480E+02  0.89981044837E+02 -0.24445226479E+03  0.26080725149E+03  0.00000000000E+00 0.  1.
         21    1    1    2  502  501  0.21688754099E+02  0.22099469769E+02  0.32023035157E+02  0.44545071547E+02  0.00000000000E+00 0. -1.
<scales pt_clust_4="550.00000" pt_clust_5="550.00000" pt_clust_6="30.96431"></scales>
<mgrwt>
<rscale>  0 0.30000000E+03</rscale>
<asrwt>  1 0.30964312E+02</asrwt>
<pdfrwt beam="1">  1        1 0.88220334E+00 0.30000000E+03</pdfrwt>
<pdfrwt beam="2">0</pdfrwt>
<totfact> 0.18937877E-04</totfact>
</mgrwt>
<clustering>
<clus scale="   30.964">  1  6  2 -1</clus>
<clus scale="  467.630">  4  5 -1 -1</clus>
<clus scale="  300.000">  1  4  2 -1</clus>
</clustering>
</event>
<event>
 6    1  0.9131597E-012  0.3000000E+03  0.7818608E-02  0.1093470E+00
          1   -1    0    0  502    0  0.00000000000E+00  0.00000000000E+00  0.23363232846E+03  0.23363232846E+03  0.00000000000E+00 0.  1.
         13   -1    0    0    0    0 -0.00000000000E+00 -0.00000000000E+00 -0.27500000000E+03  0.27500000000E+03  0.00000000000E+00 0.  1.
    9000005    2    1    2  501    0  0.18113809355E+02  0.28053683765E+02 -0.51174985869E+02  0.47382855458E+03  0.46987179176E+03 0.  0.
         13    1    3    3    0    0  0.15984316982E+03 -0.68658072008E+02  0.13532920494E+03  0.22040363767E+03  0.00000000000E+00 0.  1.
          1    1    3    3  501    0 -0.14172936046E+03  0.96711755773E+02 -0.18650419081E+03  0.25342491691E+03  0.00000000000E+00 0.  1.
         21    1    1    2  502  501 -0.18113809355E+02 -0.28053683765E+02  0.98073143326E+01  0.34803773884E+02  0.00000000000E+00 0.  1.
<scales pt_clust_4="550.00000" pt_clust_5="550.00000" pt_clust_6="33.39340"></scales>
<mgrwt>
<rscale>  0 0.30000000E+03</rscale>
<asrwt>  1 0.33393401E+02</asrwt>
<pdfrwt beam="1">  1        1 0.84957210E+00 0.30000000E+03</pdfrwt>
<pdfrwt beam="2">0</pdfrwt>
<totfact> 0.41439892E-04</totfact>
</mgrwt>
<clustering>
<clus scale="   33.393">  1  6  2 -1</clus>
<clus scale="  469.872">  4  5 -1 -1</clus>
<clus scale="  300.000">  1  4  2 -1</clus>
</clustering>
</event>
<event>
 6    1  0.9131597E-012  0.3000000E+03  0.7818608E-02  0.1093470E+00
          1   -1    0    0  502    0  0.00000000000E+00  0.00000000000E+00  0.22334632863E+03  0.22334632863E+03  0.00000000000E+00 0.  1.
         13   -1    0    0    0    0 -0.00000000000E+00 -0.00000000000E+00 -0.27500000000E+03  0.27500000000E+03  0.00000000000E+00 0.  1.
    9000005    2    1    2  501    0  0.31642310967E+02  0.62820381404E+01 -0.44196672891E+02  0.46523580655E+03  0.46200682890E+03 0.  0.
         13    1    3    3    0    0 -0.37878336989E+02 -0.21400697694E+03 -0.79777715610E+02  0.23151293377E+03  0.00000000000E+00 0.  1.
          1    1    3    3  501    0  0.69520647956E+02  0.22028901508E+03  0.35581042720E+02  0.23372287278E+03  0.00000000000E+00 0.  1.
         21    1    1    2  502  501 -0.31642310967E+02 -0.62820381404E+01 -0.74569984776E+01  0.33110522086E+02  0.00000000000E+00 0. -1.
<scales pt_clust_4="550.00000" pt_clust_5="550.00000" pt_clust_6="32.25990"></scales>
<mgrwt>
<rscale>  0 0.30000000E+03</rscale>
<asrwt>  1 0.32259896E+02</asrwt>
<pdfrwt beam="1">  1        1 0.81216847E+00 0.30000000E+03</pdfrwt>
<pdfrwt beam="2">0</pdfrwt>
<totfact> 0.85160272E-04</totfact>
</mgrwt>
<clustering>
<clus scale="   32.260">  1  6  2 -1</clus>
<clus scale="  462.007">  4  5 -1 -1</clus>
<clus scale="  300.000">  1  4  2 -1</clus>
</clustering>
</event>
<event>
 6    1  0.9131597E-012  0.3000000E+03  0.7818608E-02  0.1093470E+00
          1   -1    0    0  502    0  0.00000000000E+00  0.00000000000E+00  0.23876942630E+03  0.23876942630E+03  0.00000000000E+00 0.  1.
         13   -1    0    0    0    0 -0.00000000000E+00 -0.00000000000E+00 -0.27500000000E+03  0.27500000000E+03  0.00000000000E+00 0.  1.
    9000005    2    1    2  501    0  0.32393955014E+02  0.15204622638E+02 -0.58891671547E+02  0.47141291291E+03  0.46634896441E+03 0.  0.
         13    1    3    3    0    0 -0.53921034778E+02 -0.20216159357E+03  0.47375619431E+02  0.21452560971E+03  0.00000000000E+00 0.  1.
          3    1    3    3  501    0  0.86314989792E+02  0.21736621621E+03 -0.10626729098E+03  0.25688730320E+03  0.00000000000E+00 0.  1.
         21    1    1    2  502  501 -0.32393955014E+02 -0.15204622638E+02  0.22661097844E+02  0.42356513389E+02  0.00000000000E+00 0.  1.
<scales pt_clust_4="550.00000" pt_clust_5="550.00000" pt_clust_6="35.78476"></scales>
<mgrwt>
<rscale>  0 0.30000000E+03</rscale>
<asrwt>  1 0.35784758E+02</asrwt>
<pdfrwt beam="1">  1        1 0.86825246E+00 0.30000000E+03</pdfrwt>
<pdfrwt beam="2">0</pdfrwt>
<totfact> 0.26286168E-04</totfact>
</mgrwt>
<clustering>
<clus scale="   35.785">  1  6  2 -1</clus>
<clus scale="  466.349">  4  5 -1 -1</clus>
<clus scale="  300.000">  1  4  2 -1</clus>
</clustering>
</event>
<event>
 6    1  0.9131597E-012  0.3000000E+03  0.7818608E-02  0.1093470E+00
          1   -1    0    0  502    0  0.00000000000E+00  0.00000000000E+00  0.23079802200E+03  0.23079802200E+03  0.00000000000E+00 0.  1.
         13   -1    0    0    0    0 -0.00000000000E+00 -0.00000000000E+00 -0.27500000000E+03  0.27500000000E+03  0.00000000000E+00 0.  1.
    9000005    2    1    2  501    0  0.25558709093E+02 -0.28620484992E+02 -0.41212586732E+02  0.46731015077E+03  0.46390507643E+03 0.  0.
         13    1    3    3    0    0  0.11548454785E+03 -0.13587950216E+02  0.18776122147E+03  0.22085196280E+03  0.00000000000E+00 0.  1.
          3    1    3    3  501    0 -0.89925838755E+02 -0.15032534777E+02 -0.22897380820E+03  0.24645818798E+03  0.00000000000E+00 0.  1.
         21    1    1    2  502  501 -0.25558709093E+02  0.28620484992E+02 -0.29893912669E+01  0.38487871230E+02  0.00000000000E+00 0.  1.
<scales pt_clust_4="550.00000" pt_clust_5="550.00000" pt_clust_6="38.37160"></scales>
<mgrwt>
<rscale>  0 0.30000000E+03</rscale>
<asrwt>  1 0.38371601E+02</asrwt>
<pdfrwt beam="1">  1        1 0.83926553E+00 0.30000000E+03</pdfrwt>
<pdfrwt beam="2">0</pdfrwt>
<totfact> 0.49495011E-04</totfact>
</mgrwt>
<clustering>
<clus scale="   38.372">  1  6  2 -1</clus>
<clus scale="  463.905">  4  5 -1 -1</clus>
<clus scale="  300.000">  1  4  2 -1</clus>
</clustering>
</event>
<event>
 6    1  0.9131597E-012  0.3000000E+03  0.7818608E-02  0.1093470E+00
          1   -1    0    0  502    0  0.00000000000E+00  0.00000000000E+00  0.23845270860E+03  0.23845270860E+03  0.00000000000E+00 0.  1.
         13   -1    0    0    0    0 -0.00000000000E+00 -0.00000000000E+00 -0.27500000000E+03  0.27500000000E+03  0.00000000000E+00 0.  1.
    9000005    2    1    2  501    0  0.13518179957E+02 -0.27499388336E+02 -0.29981528188E+02  0.48211476364E+03  0.48020495180E+03 0.  0.
         13    1    3    3    0    0  0.57627396963E+02  0.17087184671E+03 -0.15982346219E+03  0.24095983886E+03  0.00000000000E+00 0.  1.
          1    1    3    3  501    0 -0.44109217006E+02 -0.19837123505E+03  0.12984193400E+03  0.24115492477E+03  0.00000000000E+00 0.  1.
         21    1    1    2  502  501 -0.13518179957E+02  0.27499388336E+02 -0.65657632091E+01  0.31337944967E+02  0.00000000000E+00 0.  1.
<scales pt_clust_4="550.00000" pt_clust_5="550.00000" pt_clust_6="30.64243"></scales>
<mgrwt>
<rscale>  0 0.30000000E+03</rscale>
<asrwt>  1 0.30642430E+02</asrwt>
<pdfrwt beam="1">  1        1 0.86710076E+00 0.30000000E+03</pdfrwt>
<pdfrwt beam="2">0</pdfrwt>
<totfact> 0.27827407E-04</totfact>
</mgrwt>
<clustering>
<clus scale="   30.642">  1  6  2 -1</clus>
<clus scale="  480.205">  4  5 -1 -1</clus>
<clus scale="  300.000">  1  4  2 -1</clus>
</clustering>
</event>
<event>
 6    1  0.9131597E-012  0.3000000E+03  0.7818608E-02  0.1093470E+00
          1   -1    0    0  502    0  0.00000000000E+00  0.00000000000E+00  0.25346070759E+03  0.25346070759E+03  0.00000000000E+00 0.  1.
         13   -1    0    0    0    0 -0.00000000000E+00 -0.00000000000E+00 -0.27500000000E+03  0.27500000000E+03  0.00000000000E+00 0.  1.
    9000005    2    1    2  501    0 -0.31318119092E+02  0.15038759235E+02 -0.54944166795E+02  0.48026449928E+03  0.47584465841E+03 0.  0.
         13    1    3    3    0    0 -0.17081368645E+03  0.55441363602E+02 -0.20425307223E+03  0.27197495803E+03  0.00000000000E+00 0.  1.
          3    1    3    3  501    0  0.13949556736E+03 -0.40402604367E+02  0.14930890544E+03  0.20828954125E+03  0.00000000000E+00 0.  1.
         21    1    1    2  502  501  0.31318119092E+02 -0.15038759235E+02  0.33404874383E+02  0.48196208309E+02  0.00000000000E+00 0. -1.
<scales pt_clust_4="550.00000" pt_clust_5="550.00000" pt_clust_6="34.74175"></scales>
<mgrwt>
<rscale>  0 0.30000000E+03</rscale>
<asrwt>  1 0.34741745E+02</asrwt>
<pdfrwt beam="1">  1        1 0.92167530E+00 0.30000000E+03</pdfrwt>
<pdfrwt beam="2">0</pdfrwt>
<totfact> 0.38532047E-05</totfact>
</mgrwt>
<clustering>
<clus scale="   34.742">  1  6  2 -1</clus>
<clus scale="  475.845">  4  5 -1 -1</clus>
<clus scale="  300.000">  1  4  2 -1</clus>
</clustering>
</event>
<event>
 6    1  0.9131597E-012  0.3000000E+03  0.7818608E-02  0.1093470E+00
          1   -1    0    0  502    0  0.00000000000E+00  0.00000000000E+00  0.23412719690E+03  0.23412719690E+03  0.00000000000E+00 0.  1.
         13   -1    0    0    0    0 -0.00000000000E+00 -0.00000000000E+00 -0.27500000000E+03  0.27500000000E+03  0.00000000000E+00 0.  1.
    9000005    2    1    2  501    0 -0.33338121495E+02 -0.70512446954E+01 -0.32218132470E+02  0.47396964123E+03  0.47164399959E+03 0.  0.
         13    1    3    3    0    0  0.28596910464E+02  0.15481296835E+03 -0.18500903416E+03  0.24292628754E+03  0.00000000000E+00 0.  1.
          3    1    3    3  501    0 -0.61935031958E+02 -0.16186421304E+03  0.15279090169E+03  0.23104335369E+03  0.00000000000E+00 0.  1.
         21    1    1    2  502  501  0.33338121495E+02  0.70512446954E+01 -0.86546706328E+01  0.35157555665E+02  0.00000000000E+00 0. -1.
<scales pt_clust_4="550.00000" pt_clust_5="550.00000" pt_clust_6="34.07567"></scales>
<mgrwt>
<rscale>  0 0.30000000E+03</rscale>
<asrwt>  1 0.34075674E+02</asrwt>
<pdfrwt beam="1">  1        1 0.85137163E+00 0.30000000E+03</pdfrwt>
<pdfrwt beam="2">0</pdfrwt>
<totfact> 0.39700347E-04</totfact>
</mgrwt>
<clustering>
<clus scale="   34.076">  1  6  2 -1</clus>
<clus scale="  471.644">  4  5 -1 -1</clus>
<clus scale="  300.000">  1  4  2 -1</clus>
</clustering>
</event>
<event>
 6    1  0.9131597E-012  0.3000000E+03  0.7818608E-02  0.1093470E+00
          1   -1    0    0  502    0  0.00000000000E+00  0.00000000000E+00  0.22207126617E+03  0.22207126617E+03  0.00000000000E+00 0.  1.
         13   -1    0    0    0    0 -0.00000000000E+00 -0.00000000000E+00 -0.27500000000E+03  0.27500000000E+03  0.00000000000E+00 0.  1.
    9000005    2    1    2  501    0  0.12311310536E+02  0.29742708389E+02 -0.46625937948E+02  0.46427001154E+03  0.46079981387E+03 0.  0.
         13    1    3    3    0    0  0.19508278460E+03  0.12834678614E+03  0.44098731255E+02  0.23764445808E+03  0.00000000000E+00 0.  1.
          3    1    3    3  501    0 -0.18277147406E+03 -0.98604077754E+02 -0.90724669203E+02  0.22662555346E+03  0.00000000000E+00 0.  1.
         21    1    1    2  502  501 -0.12311310536E+02 -0.29742708389E+02 -0.63027958789E+01  0.32801254630E+02  0.00000000000E+00 0.  1.
<scales pt_clust_4="550.00000" pt_clust_5="550.00000" pt_clust_6="32.19003"></scales>
<mgrwt>
<rscale>  0 0.30000000E+03</rscale>
<asrwt>  1 0.32190031E+02</asrwt>
<pdfrwt beam="1">  1        1 0.80753188E+00 0.30000000E+03</pdfrwt>
<pdfrwt beam="2">0</pdfrwt>
<totfact> 0.92587935E-04</totfact>
</mgrwt>
<clustering>
<clus scale="   32.190">  1  6  2 -1</clus>
<clus scale="  460.800">  4  5 -1 -1</clus>
<clus scale="  300.000">  1  4  2 -1</clus>
</clustering>
</event>
<event>
 6    1  0.9131597E-012  0.3000000E+03  0.7818608E-02  0.1093470E+00
          1   -1    0    0  502    0  0.00000000000E+00  0.00000000000E+00  0.23423824875E+03  0.23423824875E+03  0.00000000000E+00 0.  1.
         13   -1    0    0    0    0 -0.00000000000E+00 -0.00000000000E+00 -0.27500000000E+03  0.27500000000E+03  0.00000000000E+00 0.  1.
    9000005    2    1    2  501    0  0.36210665575E+02 -0.20384617467E+02 -0.54326636306E+02  0.46552611042E+03  0.46047413732E+03 0.  0.
         13    1    3    3    0    0  0.22639246805E+03 -0.91720011420E+02  0.28992959176E+02  0.24598110042E+03  0.00000000000E+00 0.  1.
          3    1    3    3  501    0 -0.19018180247E+03  0.71335393953E+02 -0.83319595482E+02  0.21954501000E+03  0.00000000000E+00 0.  1.
         21    1    1    2  502  501 -0.36210665575E+02  0.20384617467E+02  0.13564885052E+02  0.43712138327E+02  0.00000000000E+00 0.  1.
<scales pt_clust_4="550.00000" pt_clust_5="550.00000" pt_clust_6="41.55412"></scales>
<mgrwt>
<rscale>  0 0.30000000E+03</rscale>
<asrwt>  1 0.41554121E+02</asrwt>
<pdfrwt beam="1">  1        1 0.85177545E+00 0.30000000E+03</pdfrwt>
<pdfrwt beam="2">0</pdfrwt>
<totfact> 0.37934960E-04</totfact>
</mgrwt>
<clustering>
<clus scale="   41.554">  1  6  2 -1</clus>
<clus scale="  460.474">  4  5 -1 -1</clus>
<clus scale="  300.000">  1  4  2 -1</clus>
</clustering>
</event>
<event>
 6    1  0.9131597E-012  0.3000000E+03  0.7818608E-02  0.1093470E+00
          1   -1    0    0  502    0  0.00000000000E+00  0.00000000000E+00  0.22491775368E+03  0.22491775368E+03  0.00000000000E+00 0.  1.
         13   -1    0    0    0    0 -0.00000000000E+00 -0.00000000000E+00 -0.27500000000E+03  0.27500000000E+03  0.00000000000E+00 0.  1.
    9000005    2    1    2  501    0  0.19478843867E+02 -0.26533681642E+02 -0.52672071074E+02  0.46690004916E+03  0.46275030763E+03 0.  0.
         13    1    3    3    0    0  0.19672495134E+03  0.96964426844E+02 -0.10716594251E+03  0.24410519410E+03  0.00000000000E+00 0.  1.
          1    1    3    3  501    0 -0.17724610748E+03 -0.12349810849E+03  0.54493871435E+02  0.22279485506E+03  0.00000000000E+00 0.  1.
         21    1    1    2  502  501 -0.19478843867E+02  0.26533681642E+02  0.25898247580E+01  0.33017704526E+02  0.00000000000E+00 0.  1.
<scales pt_clust_4="550.00000" pt_clust_5="550.00000" pt_clust_6="32.91598"></scales>
<mgrwt>
<rscale>  0 0.30000000E+03</rscale>
<asrwt>  1 0.32915978E+02</asrwt>
<pdfrwt beam="1">  1        1 0.81788274E+00 0.30000000E+03</pdfrwt>
<pdfrwt beam="2">0</pdfrwt>
<totfact> 0.76267038E-04</totfact>
</mgrwt>
<clustering>
<clus scale="   32.916">  1  6  2 -1</clus>
<clus scale="  462.750">  4  5 -1 -1</clus>
<clus scale="  300.000">  1  4  2 -1</clus>
</clustering>
</event>
<event>
 6    1  0.9131597E-012  0.3000000E+03  0.7818608E-02  0.1093470E+00
          1   -1    0    0  502    0  0.00000000000E+00  0.00000000000E+00  0.23081029057E+03  0.23081029057E+03  0.00000000000E+00 0.  1.
         13   -1    0    0    0    0 -0.00000000000E+00 -0.00000000000E+00 -0.27500000000E+03  0.27500000000E+03  0.00000000000E+00 0.  1.
    9000005    2    1    2  501    0  0.19034783880E+02 -0.24732537186E+02 -0.51792607891E+02  0.47368825050E+03  0.46981279574E+03 0.  0.
         13    1    3    3    0    0  0.21437769239E+03 -0.11917562244E+03 -0.72393362176E+02  0.25573701895E+03  0.00000000000E+00 0.  1.
          1    1    3    3  501    0 -0.19534290851E+03  0.94443085250E+02  0.20600754284E+02  0.21795123155E+03  0.00000000000E+00 0.  1.
         21    1    1    2  502  501 -0.19034783880E+02  0.24732537186E+02  0.76028984591E+01  0.32122040066E+02  0.00000000000E+00 0.  1.
<scales pt_clust_4="550.00000" pt_clust_5="550.00000" pt_clust_6="31.20932"></scales>
<mgrwt>
<rscale>  0 0.30000000E+03</rscale>
<asrwt>  1 0.31209316E+02</asrwt>
<pdfrwt beam="1">  1        1 0.83931015E+00 0.30000000E+03</pdfrwt>
<pdfrwt beam="2">0</pdfrwt>
<totfact> 0.51409780E-04</totfact>
</mgrwt>
<clustering>
<clus scale="   31.209">  1  6  2 -1</clus>
<clus scale="  469.813">  4  5 -1 -1</clus>
<clus scale="  300.000">  1  4  2 -1</clus>
</clustering>
</event>
<event>
 6    1  0.9131597E-012  0.3000000E+03  0.7818608E-02  0.1093470E+00
          1   -1    0    0  502    0  0.00000000000E+00  0.00000000000E+00  0.23210908088E+03  0.23210908088E+03  0.00000000000E+00 0.  1.
         13   -1    0    0    0    0 -0.00000000000E+00 -0.00000000000E+00 -0.27500000000E+03  0.27500000000E+03  0.00000000000E+00 0.  1.
    9000005    2    1    2  501    0 -0.13174933438E+02 -0.32678333107E+02 -0.69849520233E+02  0.46274447224E+03  0.45608336824E+03 0.  0.
         13    1    3    3    0    0  0.12887903437E+03 -0.92258601585E+02 -0.20409702508E+03  0.25841255912E+03  0.00000000000E+00 0.  1.
          3    1    3    3  501    0 -0.14205396781E+03  0.59580268478E+02  0.13424750484E+03  0.20433191312E+03  0.00000000000E+00 0.  1.
         21    1    1    2  502  501  0.13174933438E+02  0.32678333107E+02  0.26958601117E+02  0.44364608642E+02  0.00000000000E+00 0. -1.
<scales pt_clust_4="550.00000" pt_clust_5="550.00000" pt_clust_6="35.23425"></scales>
<mgrwt>
<rscale>  0 0.30000000E+03</rscale>
<asrwt>  1 0.35234249E+02</asrwt>
<pdfrwt beam="1">  1        1 0.84403302E+00 0.30000000E+03</pdfrwt>
<pdfrwt beam="2">0</pdfrwt>
<totfact> 0.46005247E-04</totfact>
</mgrwt>
<clustering>
<clus scale="   35.234">  1  6  2 -1</clus>
<clus scale="  456.083">  4  5 -1 -1</clus>
<clus scale="  300.000">  1  4  2 -1</clus>
</clustering>
</event>
<event>
 6    1  0.9131597E-012  0.3000000E+03  0.7818608E-02  0.1093470E+00
          1   -1    0    0  502    0  0.00000000000E+00  0.00000000000E+00  0.24941693929E+03  0.24941693929E+03  0.00000000000E+00 0.  1.
         13   -1    0    0    0    0 -0.00000000000E+00 -0.00000000000E+00 -0.27500000000E+03  0.27500000000E+03  0.00000000000E+00 0.  1.
    9000005    2    1    2  501    0  0.17880921154E+02 -0.32047503183E+02 -0.73425166249E+02  0.46412069675E+03  0.45680411153E+03 0.  0.
         13    1    3    3    0    0 -0.54305542056E+02 -0.18676696640E+03  0.10174949629E+03  0.21950843180E+03  0.00000000000E+00 0.  1.
          3    1    3    3  501    0  0.72186463210E+02  0.15471946322E+03 -0.17517466254E+03  0.24461226495E+03  0.00000000000E+00 0.  1.
         21    1    1    2  502  501 -0.17880921154E+02  0.32047503183E+02  0.47842105542E+02  0.60296242539E+02  0.00000000000E+00 0.  1.
<scales pt_clust_4="550.00000" pt_clust_5="550.00000" pt_clust_6="36.69836"></scales>
<mgrwt>
<rscale>  0 0.30000000E+03</rscale>
<asrwt>  1 0.36698362E+02</asrwt>
<pdfrwt beam="1">  1        1 0.90697069E+00 0.30000000E+03</pdfrwt>
<pdfrwt beam="2">0</pdfrwt>
<totfact> 0.83624369E-05</totfact>
</mgrwt>
<clustering>
<clus scale="   36.698">  1  6  2 -1</clus>
<clus scale="  456.804">  4  5 -1 -1</clus>
<clus scale="  300.000">  1  4  2 -1</clus>
</clustering>
</event>
<event>
 6    1  0.9131597E-012  0.3000000E+03  0.7818608E-02  0.1093470E+00
          1   -1    0    0  502    0  0.00000000000E+00  0.00000000000E+00  0.22985354080E+03  0.22985354080E+03  0.00000000000E+00 0.  1.
         13   -1    0    0    0    0 -0.00000000000E+00 -0.00000000000E+00 -0.27500000000E+03  0.27500000000E+03  0.00000000000E+00 0.  1.
    9000005    2    1    2  501    0  0.30050225402E+02 -0.17932962438E+02 -0.36219866590E+02  0.46873856822E+03  0.46602506307E+03 0.  0.
         13    1    3    3    0    0 -0.16877548954E+03  0.13051977379E+03 -0.53639946030E+02  0.21999504774E+03  0.00000000000E+00 0.  1.
          1    1    3    3  501    0  0.19882571494E+03 -0.14845273622E+03  0.17420079440E+02  0.24874352048E+03  0.00000000000E+00 0.  1.
         21    1    1    2  502  501 -0.30050225402E+02  0.17932962438E+02 -0.89265926126E+01  0.36114972577E+02  0.00000000000E+00 0.  1.
<scales pt_clust_4="550.00000" pt_clust_5="550.00000" pt_clust_6="34.99441"></scales>
<mgrwt>
<rscale>  0 0.30000000E+03</rscale>
<asrwt>  1 0.34994405E+02</asrwt>
<pdfrwt beam="1">  1        1 0.83583106E+00 0.30000000E+03</pdfrwt>
<pdfrwt beam="2">0</pdfrwt>
<totfact> 0.53352598E-04</totfact>
</mgrwt>
<clustering>
<clus scale="   34.994">  1  6  2 -1</clus>
<clus scale="  466.025">  4  5 -1 -1</clus>
<clus scale="  300.000">  1  4  2 -1</clus>
</clustering>
</event>
<event>
 6    1  0.9131597E-012  0.3000000E+03  0.7818608E-02  0.1093470E+00
          1   -1    0    0  502    0  0.00000000000E+00  0.00000000000E+00  0.22934838162E+03  0.22934838162E+03  0.00000000000E+00 0.  1.
         13   -1    0    0    0    0 -0.00000000000E+00 -0.00000000000E+00 -0.27500000000E+03  0.27500000000E+03  0.00000000000E+00 0.  1.
    9000005    2    1    2  501    0 -0.29100721421E+02 -0.12318220312E+02 -0.35047652943E+02  0.47101619565E+03  0.46864627177E+03 0.  0.
         13    1    3    3    0    0 -0.22407533611E+03  0.96784559018E+02 -0.41045973589E+02  0.24751116957E+03  0.00000000000E+00 0.  1.
          3    1    3    3  501    0  0.19497461469E+03 -0.10910277933E+03  0.59983206462E+01  0.22350502607E+03  0.00000000000E+00 0.  1.
         21    1    1    2  502  501  0.29100721421E+02  0.12318220312E+02 -0.10603965433E+02  0.33332185974E+02  0.00000000000E+00 0.  1.
<scales pt_clust_4="550.00000" pt_clust_5="550.00000" pt_clust_6="31.60050"></scales>
<mgrwt>
<rscale>  0 0.30000000E+03</rscale>
<asrwt>  1 0.31600499E+02</asrwt>
<pdfrwt beam="1">  1        1 0.83399412E+00 0.30000000E+03</pdfrwt>
<pdfrwt beam="2">0</pdfrwt>
<totfact> 0.56099001E-04</totfact>
</mgrwt>
<clustering>
<clus scale="   31.600">  1  6  2 -1</clus>
<clus scale="  468.646">  4  5 -1 -1</clus>
<clus scale="  300.000">  1  4  2 -1</clus>
</clustering>
</event>
<event>
 6    1  0.9131597E-012  0.3000000E+03  0.7818608E-02  0.1093470E+00
          1   -1    0    0  502    0  0.00000000000E+00  0.00000000000E+00  0.23263492775E+03  0.23263492775E+03  0.00000000000E+00 0.  1.
         13   -1    0    0    0    0 -0.00000000000E+00 -0.00000000000E+00 -0.27500000000E+03  0.27500000000E+03  0.00000000000E+00 0.  1.
    9000005    2    1    2  501    0  0.15470915981E+02 -0.26357566305E+02 -0.60325416746E+02  0.47218574557E+03  0.46731804146E+03 0.  0.
         13    1    3    3    0    0 -0.13171608675E+03  0.67324228802E+02 -0.19995248016E+03  0.24872208108E+03  0.00000000000E+00 0.  1.
          3    1    3    3  501    0  0.14718700274E+03 -0.93681795107E+02  0.13962706342E+03  0.22346366449E+03  0.00000000000E+00 0.  1.
         21    1    1    2  502  501 -0.15470915981E+02  0.26357566305E+02  0.17960344493E+02  0.35449182178E+02  0.00000000000E+00 0. -1.
<scales pt_clust_4="550.00000" pt_clust_5="550.00000" pt_clust_6="30.56257"></scales>
<mgrwt>
<rscale>  0 0.30000000E+03</rscale>
<asrwt>  1 0.30562568E+02</asrwt>
<pdfrwt beam="1">  1        1 0.84594519E+00 0.30000000E+03</pdfrwt>
<pdfrwt beam="2">0</pdfrwt>
<totfact> 0.45477723E-04</totfact>
</mgrwt>
<clustering>
<clus scale="   30.563">  1  6  2 -1</clus>
<clus scale="  467.318">  4  5 -1 -1</clus>
<clus scale="  300.000">  1  4  2 -1</clus>
</clustering>
</event>
<event>
 6    1  0.9131597E-012  0.3000000E+03  0.7818608E-02  0.1093470E+00
          1   -1    0    0  502    0  0.00000000000E+00  0.00000000000E+00  0.22225192394E+03  0.22225192394E+03  0.00000000000E+00 0.  1.
         13   -1    0    0    0    0 -0.00000000000E+00 -0.00000000000E+00 -0.27500000000E+03  0.27500000000E+03  0.00000000000E+00 0.  1.
    9000005    2    1    2  501    0  0.29914118120E+02 -0.47871906530E+01 -0.65624109076E+02  0.46433439239E+03  0.45867432085E+03 0.  0.
         13    1    3    3    0    0  0.15684911375E+03  0.12528832986E+03  0.94716441800E+02  0.22196849873E+03  0.00000000000E+00 0.  1.
          3    1    3    3  501    0 -0.12693499563E+03 -0.13007552051E+03 -0.16034055088E+03  0.24236589366E+03  0.00000000000E+00 0.  1.
         21    1    1    2  502  501 -0.29914118120E+02  0.47871906530E+01  0.12876033020E+02  0.32917531554E+02  0.00000000000E+00 0.  1.
<scales pt_clust_4="550.00000" pt_clust_5="550.00000" pt_clust_6="30.29475"></scales>
<mgrwt>
<rscale>  0 0.30000000E+03</rscale>
<asrwt>  1 0.30294746E+02</asrwt>
<pdfrwt beam="1">  1        1 0.80818881E+00 0.30000000E+03</pdfrwt>
<pdfrwt beam="2">0</pdfrwt>
<totfact> 0.92582354E-04</totfact>
</mgrwt>
<clustering>
<clus scale="   30.295">  1  6  2 -1</clus>
<clus scale="  458.674">  4  5 -1 -1</clus>
<clus scale="  300.000">  1  4  2 -1</clus>
</clustering>
</event>
<event>
 6    1  0.9131597E-012  0.3000000E+03  0.7818608E-02  0.1093470E+00
          1   -1    0    0  502    0  0.00000000000E+00  0.00000000000E+00  0.26038850750E+03  0.26038850750E+03  0.00000000000E+00 0.  1.
         13   -1    0    0    0    0 -0.00000000000E+00 -0.00000000000E+00 -0.27500000000E+03  0.27500000000E+03  0.00000000000E+00 0.  1.
    9000005    2    1    2  501    0  0.28622237195E+02 -0.96011729834E+01 -0.21751274326E+02  0.50436607256E+03  0.50299165225E+03 0.  0.
         13    1    3    3    0    0 -0.17092279271E+03 -0.43675817161E+01 -0.18101819363E+03  0.24900052864E+03  0.00000000000E+00 0.  1.
          1    1    3    3  501    0  0.19954502991E+03 -0.52335912673E+01  0.15926691930E+03  0.25536554392E+03  0.00000000000E+00 0.  1.
         21    1    1    2  502  501 -0.28622237195E+02  0.96011729834E+01  0.71397818227E+01  0.31022434933E+02  0.00000000000E+00 0. -1.
<scales pt_clust_4="550.00000" pt_clust_5="550.00000" pt_clust_6="30.18965"></scales>
<mgrwt>
<rscale>  0 0.30000000E+03</rscale>
<asrwt>  1 0.30189650E+02</asrwt>
<pdfrwt beam="1">  1        1 0.94686730E+00 0.30000000E+03</pdfrwt>
<pdfrwt beam="2">0</pdfrwt>
<totfact> 0.14694153E-05</totfact>
</mgrwt>
<clustering>
<clus scale="   30.190">  1  6  2 -1</clus>
<clus scale="  502.992">  4  5 -1 -1</clus>
<clus scale="  300.000">  1  4  2 -1</clus>
</clustering>
</event>
<event>
 6    1  0.9131597E-012  0.3000000E+03  0.7818608E-02  0.1093470E+00
          1   -1    0    0  502    0  0.00000000000E+00  0.00000000000E+00  0.23115271847E+03  0.23115271847E+03  0.00000000000E+00 0.  1.
         13   -1    0    0    0    0 -0.00000000000E+00 -0.00000000000E+00 -0.27500000000E+03  0.27500000000E+03  0.00000000000E+00 0.  1.
    9000005    2    1    2  501    0 -0.17721500508E+02 -0.24615955775E+02 -0.69529403216E+02  0.46640893615E+03  0.46019882762E+03 0.  0.
         13    1    3    3    0    0  0.13000467044E+02 -0.18854385161E+03 -0.18428023196E+03  0.26396401272E+03  0.00000000000E+00 0.  1.
          3    1    3    3  501    0 -0.30721967551E+02  0.16392789583E+03  0.11475082875E+03  0.20244492342E+03  0.00000000000E+00 0.  1.
         21    1    1    2  502  501  0.17721500508E+02  0.24615955775E+02  0.25682121681E+02  0.39743782319E+02  0.00000000000E+00 0.  1.
<scales pt_clust_4="550.00000" pt_clust_5="550.00000" pt_clust_6="30.33145"></scales>
<mgrwt>
<rscale>  0 0.30000000E+03</rscale>
<asrwt>  1 0.30331450E+02</asrwt>
<pdfrwt beam="1">  1        1 0.84055534E+00 0.30000000E+03</pdfrwt>
<pdfrwt beam="2">0</pdfrwt>
<totfact> 0.50568670E-04</totfact>
</mgrwt>
<clustering>
<clus scale="   30.331">  1  6  2 -1</clus>
<clus scale="  460.199">  4  5 -1 -1</clus>
<clus scale="  300.000">  1  4  2 -1</clus>
</clustering>
</event>
<event>
 6    1  0.9131597E-012  0.3000000E+03  0.7818608E-02  0.1093470E+00
          1   -1    0    0  502    0  0.00000000000E+00  0.00000000000E+00  0.26798216078E+03  0.26798216078E+03  0.00000000000E+00 0.  1.
         13   -1    0    0    0    0 -0.00000000000E+00 -0.00000000000E+00 -0.27500000000E+03  0.27500000000E+03  0.00000000000E+00 0.  1.
    9000005    2    1    2  501    0 -0.50628126901E+02 -0.14799211025E+02 -0.58666187118E+02  0.46915956450E+03  0.46247892014E+03 0.  0.
         13    1    3    3    0    0 -0.10856568866E+03 -0.13544136884E+03  0.14451202289E+03  0.22586411381E+03  0.00000000000E+00 0.  1.
          3    1    3    3  501    0  0.57937561756E+02  0.12064215782E+03 -0.20317821001E+03  0.24329545069E+03  0.00000000000E+00 0.  1.
         21    1    1    2  502  501  0.50628126901E+02  0.14799211025E+02  0.51648347903E+02  0.73822596280E+02  0.00000000000E+00 0.  1.
<scales pt_clust_4="550.00000" pt_clust_5="550.00000" pt_clust_6="52.74679"></scales>
<mgrwt>
<rscale>  0 0.30000000E+03</rscale>
<asrwt>  1 0.52746790E+02</asrwt>
<pdfrwt beam="1">  1        1 0.97448058E+00 0.30000000E+03</pdfrwt>
<pdfrwt beam="2">0</pdfrwt>
<totfact> 0.38863402E-06</totfact>
</mgrwt>
<clustering>
<clus scale="   52.747">  1  6  2 -1</clus>
<clus scale="  462.479">  4  5 -1 -1</clus>
<clus scale="  300.000">  1  4  2 -1</clus>
</clustering>
</event>
<event>
 6    1  0.9131597E-012  0.3000000E+03  0.7818608E-02  0.1093470E+00
          1   -1    0    0  502    0  0.00000000000E+00  0.00000000000E+00  0.23244446508E+03  0.23244446508E+03  0.00000000000E+00 0.  1.
         13   -1    0    0    0    0 -0.00000000000E+00 -0.00000000000E+00 -0.27500000000E+03  0.27500000000E+03  0.00000000000E+00 0.  1.
    9000005    2    1    2  501    0 -0.30457649542E+02 -0.24175528725E+02 -0.47984212141E+02  0.46818131262E+03  0.46408957354E+03 0.  0.
         13    1    3    3    0    0 -0.14451327588E+03 -0.17422578560E+03 -0.13176983632E+03  0.26191983705E+03  0.00000000000E+00 0.  1.
          1    1    3    3  501    0  0.11405562634E+03  0.15005025687E+03  0.83785624181E+02  0.20626147558E+03  0.00000000000E+00 0.  1.
         21    1    1    2  502  501  0.30457649542E+02  0.24175528725E+02  0.54286772238E+01  0.39263152461E+02  0.00000000000E+00 0.  1.
<scales pt_clust_4="550.00000" pt_clust_5="550.00000" pt_clust_6="38.88605"></scales>
<mgrwt>
<rscale>  0 0.30000000E+03</rscale>
<asrwt>  1 0.38886046E+02</asrwt>
<pdfrwt beam="1">  1        1 0.84525260E+00 0.30000000E+03</pdfrwt>
<pdfrwt beam="2">0</pdfrwt>
<totfact> 0.44084603E-04</totfact>
</mgrwt>
<clustering>
<clus scale="   38.886">  1  6  2 -1</clus>
<clus scale="  464.090">  4  5 -1 -1</clus>
<clus scale="  300.000">  1  4  2 -1</clus>
</clustering>
</event>
<event>
 6    1  0.9131597E-012  0.3000000E+03  0.7818608E-02  0.1093470E+00
          1   -1    0    0  502    0  0.00000000000E+00  0.00000000000E+00  0.23689666902E+03  0.23689666902E+03  0.00000000000E+00 0.  1.
         13   -1    0    0    0    0 -0.00000000000E+00 -0.00000000000E+00 -0.27500000000E+03  0.27500000000E+03  0.00000000000E+00 0.  1.
    9000005    2    1    2  501    0  0.33490385438E+02  0.23637861932E+02 -0.34921868457E+02  0.47078126878E+03  0.46769125681E+03 0.  0.
         13    1    3    3    0    0  0.58746439346E+02 -0.78805119639E+02 -0.22937454444E+03  0.24954773622E+03  0.00000000000E+00 0.  1.
          1    1    3    3  501    0 -0.25256053908E+02  0.10244298157E+03  0.19445267598E+03  0.22123353256E+03  0.00000000000E+00 0.  1.
         21    1    1    2  502  501 -0.33490385438E+02 -0.23637861932E+02 -0.31814625221E+01  0.41115400245E+02  0.00000000000E+00 0.  1.
<scales pt_clust_4="550.00000" pt_clust_5="550.00000" pt_clust_6="40.99215"></scales>
<mgrwt>
<rscale>  0 0.30000000E+03</rscale>
<asrwt>  1 0.40992147E+02</asrwt>
<pdfrwt beam="1">  1        1 0.86144243E+00 0.30000000E+03</pdfrwt>
<pdfrwt beam="2">0</pdfrwt>
<totfact> 0.30318006E-04</totfact>
</mgrwt>
<clustering>
<clus scale="   40.992">  1  6  2 -1</clus>
<clus scale="  467.691">  4  5 -1 -1</clus>
<clus scale="  300.000">  1  4  2 -1</clus>
</clustering>
</event>
<event>
 6    1  0.9131597E-012  0.3000000E+03  0.7818608E-02  0.1093470E+00
          1   -1    0    0  502    0  0.00000000000E+00  0.00000000000E+00  0.22473410187E+03  0.22473410187E+03  0.00000000000E+00 0.  1.
         13   -1    0    0    0    0 -0.00000000000E+00 -0.00000000000E+00 -0.27500000000E+03  0.27500000000E+03  0.00000000000E+00 0.  1.
    9000005    2    1    2  501    0 -0.19673641184E+02  0.25800170988E+02 -0.47751403478E+02  0.46719145810E+03  0.46361078612E+03 0.  0.
         13    1    3    3    0    0  0.56506743217E+02 -0.19627657117E+03  0.54067992218E+02  0.21128381907E+03  0.00000000000E+00 0.  1.
          3    1    3    3  501    0 -0.76180384401E+02  0.22207674215E+03 -0.10181939570E+03  0.25590763903E+03  0.00000000000E+00 0.  1.
         21    1    1    2  502  501  0.19673641184E+02 -0.25800170988E+02 -0.25144946502E+01  0.32542643774E+02  0.00000000000E+00 0.  1.
<scales pt_clust_4="550.00000" pt_clust_5="550.00000" pt_clust_6="32.44535"></scales>
<mgrwt>
<rscale>  0 0.30000000E+03</rscale>
<asrwt>  1 0.32445354E+02</asrwt>
<pdfrwt beam="1">  1        1 0.81721492E+00 0.30000000E+03</pdfrwt>
<pdfrwt beam="2">0</pdfrwt>
<totfact> 0.77455760E-04</totfact>
</mgrwt>
<clustering>
<clus scale="   32.445">  1  6  2 -1</clus>
<clus scale="  463.611">  4  5 -1 -1</clus>
<clus scale="  300.000">  1  4  2 -1</clus>
</clustering>
</event>
<event>
 6    1  0.9131597E-012  0.3000000E+03  0.7818608E-02  0.1093470E+00
          1   -1    0    0  502    0  0.00000000000E+00  0.00000000000E+00  0.24671862645E+03  0.24671862645E+03  0.00000000000E+00 0.  1.
         13   -1    0    0    0    0 -0.00000000000E+00 -0.00000000000E+00 -0.27500000000E+03  0.27500000000E+03  0.00000000000E+00 0.  1.
    9000005    2    1    2  501    0  0.39628900604E+02 -0.15779675644E+02 -0.40463881770E+02  0.47735804223E+03  0.47372347084E+03 0.  0.
         13    1    3    3    0    0 -0.17605362418E+02 -0.24081116385E+03 -0.42431449146E+02  0.24515381559E+03  0.00000000000E+00 0.  1.
          3    1    3    3  501    0  0.57234263022E+02  0.22503148820E+03  0.19675673760E+01  0.23220422664E+03  0.00000000000E+00 0.  1.
         21    1    1    2  502  501 -0.39628900604E+02  0.15779675644E+02  0.12182508224E+02  0.44360584229E+02  0.00000000000E+00 0. -1.
<scales pt_clust_4="550.00000" pt_clust_5="550.00000" pt_clust_6="42.65499"></scales>
<mgrwt>
<rscale>  0 0.30000000E+03</rscale>
<asrwt>  1 0.42654987E+02</asrwt>
<pdfrwt beam="1">  1        1 0.89715864E+00 0.30000000E+03</pdfrwt>
<pdfrwt beam="2">0</pdfrwt>
<totfact> 0.11502601E-04</totfact>
</mgrwt>
<clustering>
<clus scale="   42.655">  1  6  2 -1</clus>
<clus scale="  473.723">  4  5 -1 -1</clus>
<clus scale="  300.000">  1  4  2 -1</clus>
</clustering>
</event>
<event>
 6    1  0.9131597E-012  0.3000000E+03  0.7818608E-02  0.1093470E+00
          1   -1    0    0  502    0  0.00000000000E+00  0.00000000000E+00  0.25053698792E+03  0.25053698792E+03  0.00000000000E+00 0.  1.
         13   -1    0    0    0    0 -0.00000000000E+00 -0.00000000000E+00 -0.27500000000E+03  0.27500000000E+03  0.00000000000E+00 0.  1.
    9000005    2    1    2  501    0 -0.58175665677E+01  0.29759151599E+02 -0.64456529305E+02  0.47534801897E+03  0.46998047170E+03 0.  0.
         13    1    3    3    0    0 -0.19463978961E+03 -0.68121484912E+02 -0.14044222152E+03  0.24949789977E+03  0.00000000000E+00 0.  1.
          1    1    3    3  501    0  0.18882222304E+03  0.97880636511E+02  0.75985692212E+02  0.22585011919E+03  0.00000000000E+00 0.  1.
         21    1    1    2  502  501  0.58175665677E+01 -0.29759151599E+02  0.39993517224E+02  0.50188968953E+02  0.00000000000E+00 0.  1.
<scales pt_clust_4="550.00000" pt_clust_5="550.00000" pt_clust_6="30.32245"></scales>
<mgrwt>
<rscale>  0 0.30000000E+03</rscale>
<asrwt>  1 0.30322453E+02</asrwt>
<pdfrwt beam="1">  1        1 0.91104359E+00 0.30000000E+03</pdfrwt>
<pdfrwt beam="2">0</pdfrwt>
<totfact> 0.69600542E-05</totfact>
</mgrwt>
<clustering>
<clus scale="   30.322">  1  6  2 -1</clus>
<clus scale="  469.980">  4  5 -1 -1</clus>
<clus scale="  300.000">  1  4  2 -1</clus>
</clustering>
</event>
<event>
 6    1  0.9131597E-012  0.3000000E+03  0.7818608E-02  0.1093470E+00
          1   -1    0    0  502    0  0.00000000000E+00  0.00000000000E+00  0.23160262988E+03  0.23160262988E+03  0.00000000000E+00 0.  1.
         13   -1    0    0    0    0 -0.00000000000E+00 -0.00000000000E+00 -0.27500000000E+03  0.27500000000E+03  0.00000000000E+00 0.  1.
    9000005    2    1    2  501    0 -0.50730063559E+01  0.33567246513E+02 -0.70667031477E+02  0.46305805660E+03  0.45637313572E+03 0.  0.
         13    1    3    3    0    0 -0.22145234255E+03 -0.13318102652E+00 -0.98383479583E+02  0.24232306290E+03  0.00000000000E+00 0.  1.
          3    1    3    3  501    0  0.21637933619E+03  0.33700427540E+02  0.27716448106E+02  0.22073499370E+03  0.00000000000E+00 0.  1.
         21    1    1    2  502  501  0.50730063559E+01 -0.33567246513E+02  0.27269661356E+02  0.43544573284E+02  0.00000000000E+00 0. -1.
<scales pt_clust_4="550.00000" pt_clust_5="550.00000" pt_clust_6="33.94842"></scales>
<mgrwt>
<rscale>  0 0.30000000E+03</rscale>
<asrwt>  1 0.33948423E+02</asrwt>
<pdfrwt beam="1">  1        1 0.84219138E+00 0.30000000E+03</pdfrwt>
<pdfrwt beam="2">0</pdfrwt>
<totfact> 0.48016004E-04</totfact>
</mgrwt>
<clustering>
<clus scale="   33.948">  1  6  2 -1</clus>
<clus scale="  456.373">  4  5 -1 -1</clus>
<clus scale="  300.000">  1  4  2 -1</clus>
</clustering>
</event>
<event>
 6    1  0.9131597E-012  0.3000000E+03  0.7818608E-02  0.1093470E+00
          1   -1    0    0  502    0  0.00000000000E+00  0.00000000000E+00  0.22480793450E+03  0.22480793450E+03  0.00000000000E+00 0.  1.
         13   -1    0    0    0    0 -0.00000000000E+00 -0.00000000000E+00 -0.27500000000E+03  0.27500000000E+03  0.00000000000E+00 0.  1.
    9000005    2    1    2  501    0  0.66539158410E+01  0.29381353877E+02 -0.71036384107E+02  0.46317428645E+03  0.45670199606E+03 0.  0.
         13    1    3    3    0    0  0.14599786500E+03 -0.44556514101E+02 -0.20543565744E+03  0.25593840837E+03  0.00000000000E+00 0.  1.
          3    1    3    3  501    0 -0.13934394916E+03  0.73937867978E+02  0.13439927333E+03  0.20723587807E+03  0.00000000000E+00 0.  1.
         21    1    1    2  502  501 -0.66539158410E+01 -0.29381353877E+02  0.20844318610E+02  0.36633648057E+02  0.00000000000E+00 0.  1.
<scales pt_clust_4="550.00000" pt_clust_5="550.00000" pt_clust_6="30.12538"></scales>
<mgrwt>
<rscale>  0 0.30000000E+03</rscale>
<asrwt>  1 0.30125381E+02</asrwt>
<pdfrwt beam="1">  1        1 0.81748340E+00 0.30000000E+03</pdfrwt>
<pdfrwt beam="2">0</pdfrwt>
<totfact> 0.78161565E-04</totfact>
</mgrwt>
<clustering>
<clus scale="   30.125">  1  6  2 -1</clus>
<clus scale="  456.702">  4  5 -1 -1</clus>
<clus scale="  300.000">  1  4  2 -1</clus>
</clustering>
</event>
<event>
 6    1  0.9131597E-012  0.3000000E+03  0.7818608E-02  0.1093470E+00
          1   -1    0    0  502    0  0.00000000000E+00  0.00000000000E+00  0.22580169375E+03  0.22580169375E+03  0.00000000000E+00 0.  1.
         13   -1    0    0    0    0 -0.00000000000E+00 -0.00000000000E+00 -0.27500000000E+03  0.27500000000E+03  0.00000000000E+00 0.  1.
    9000005    2    1    2  501    0 -0.41261609098E+00 -0.35789995263E+02 -0.52623651769E+02  0.46484579014E+03  0.46046852864E+03 0.  0.
         13    1    3    3    0    0  0.57911770730E+02  0.94226638852E+02  0.16863592920E+03  0.20166930673E+03  0.00000000000E+00 0.  1.
          1    1    3    3  501    0 -0.58324386821E+02 -0.13001663411E+03 -0.22125958097E+03  0.26317648341E+03  0.00000000000E+00 0.  1.
         21    1    1    2  502  501  0.41261609098E+00  0.35789995263E+02  0.34253455219E+01  0.35955903616E+02  0.00000000000E+00 0. -1.
<scales pt_clust_4="550.00000" pt_clust_5="550.00000" pt_clust_6="35.79237"></scales>
<mgrwt>
<rscale>  0 0.30000000E+03</rscale>
<asrwt>  1 0.35792374E+02</asrwt>
<pdfrwt beam="1">  1        1 0.82109707E+00 0.30000000E+03</pdfrwt>
<pdfrwt beam="2">0</pdfrwt>
<totfact> 0.70457769E-04</totfact>
</mgrwt>
<clustering>
<clus scale="   35.792">  1  6  2 -1</clus>
<clus scale="  460.469">  4  5 -1 -1</clus>
<clus scale="  300.000">  1  4  2 -1</clus>
</clustering>
</event>
<event>
 6    1  0.9131597E-012  0.3000000E+03  0.7818608E-02  0.1093470E+00
          1   -1    0    0  502    0  0.00000000000E+00  0.00000000000E+00  0.22335568752E+03  0.22335568752E+03  0.00000000000E+00 0.  1.
         13   -1    0    0    0    0 -0.00000000000E+00 -0.00000000000E+00 -0.27500000000E+03  0.27500000000E+03  0.00000000000E+00 0.  1.
    9000005    2    1    2  501    0  0.26169141677E+02 -0.15776423364E+02 -0.69636788162E+02  0.46289516452E+03  0.45660588209E+03 0.  0.
         13    1    3    3    0    0  0.14649194584E+03 -0.19364987054E+03 -0.40769720596E+02  0.24621602846E+03  0.00000000000E+00 0.  1.
          1    1    3    3  501    0 -0.12032280417E+03  0.17787344717E+03 -0.28867067566E+02  0.21667913605E+03  0.00000000000E+00 0.  1.
         21    1    1    2  502  501 -0.26169141677E+02  0.15776423364E+02  0.17992475678E+02  0.35460522998E+02  0.00000000000E+00 0.  1.
<scales pt_clust_4="550.00000" pt_clust_5="550.00000" pt_clust_6="30.55682"></scales>
<mgrwt>
<rscale>  0 0.30000000E+03</rscale>
<asrwt>  1 0.30556824E+02</asrwt>
<pdfrwt beam="1">  1        1 0.81220250E+00 0.30000000E+03</pdfrwt>
<pdfrwt beam="2">0</pdfrwt>
<totfact> 0.85993414E-04</totfact>
</mgrwt>
<clustering>
<clus scale="   30.557">  1  6  2 -1</clus>
<clus scale="  456.606">  4  5 -1 -1</clus>
<clus scale="  300.000">  1  4  2 -1</clus>
</clustering>
</event>
<event>
 6    1  0.9131597E-012  0.3000000E+03  0.7818608E-02  0.1093470E+00
          1   -1    0    0  502    0  0.00000000000E+00  0.00000000000E+00  0.22682628376E+03  0.22682628376E+03  0.00000000000E+00 0.  1.
         13   -1    0    0    0    0 -0.00000000000E+00 -0.00000000000E+00 -0.27500000000E+03  0.27500000000E+03  0.00000000000E+00 0.  1.
    9000005    2    1    2  501    0 -0.22844326708E+02  0.34106783294E+02 -0.46249214534E+02  0.46073078965E+03  0.45656186302E+03 0.  0.
         13    1    3    3    0    0  0.10936973725E+03  0.34473143049E+02 -0.21660535887E+03  0.24508777715E+03  0.00000000000E+00 0.  1.
          1    1    3    3  501    0 -0.13221406395E+03 -0.36635975523E+00  0.17035614434E+03  0.21564301250E+03  0.00000000000E+00 0.  1.
         21    1    1    2  502  501  0.22844326708E+02 -0.34106783294E+02 -0.19245017022E+01  0.41095494111E+02  0.00000000000E+00 0. -1.
<scales pt_clust_4="550.00000" pt_clust_5="550.00000" pt_clust_6="41.05041"></scales>
<mgrwt>
<rscale>  0 0.30000000E+03</rscale>
<asrwt>  1 0.41050407E+02</asrwt>
<pdfrwt beam="1">  1        1 0.82482285E+00 0.30000000E+03</pdfrwt>
<pdfrwt beam="2">0</pdfrwt>
<totfact> 0.63656985E-04</totfact>
</mgrwt>
<clustering>
<clus scale="   41.050">  1  6  2 -1</clus>
<clus scale="  456.562">  4  5 -1 -1</clus>
<clus scale="  300.000">  1  4  2 -1</clus>
</clustering>
</event>
<event>
 6    1  0.9131597E-012  0.3000000E+03  0.7818608E-02  0.1093470E+00
          1   -1    0    0  502    0  0.00000000000E+00  0.00000000000E+00  0.22622689904E+03  0.22622689904E+03  0.00000000000E+00 0.  1.
         13   -1    0    0    0    0 -0.00000000000E+00 -0.00000000000E+00 -0.27500000000E+03  0.27500000000E+03  0.00000000000E+00 0.  1.
    9000005    2    1    2  501    0 -0.19074738737E+02 -0.29197071929E+02 -0.54191315513E+02  0.46593282424E+03  0.46145463847E+03 0.  0.
         13    1    3    3    0    0 -0.15696205965E+03 -0.18949785049E+03 -0.64036464409E+02  0.25425812138E+03  0.00000000000E+00 0.  1.
          3    1    3    3  501    0  0.13788732092E+03  0.16030077856E+03  0.98451488962E+01  0.21167470287E+03  0.00000000000E+00 0.  1.
         21    1    1    2  502  501  0.19074738737E+02  0.29197071929E+02  0.54182145563E+01  0.35294074801E+02  0.00000000000E+00 0.  1.
<scales pt_clust_4="550.00000" pt_clust_5="550.00000" pt_clust_6="34.87570"></scales>
<mgrwt>
<rscale>  0 0.30000000E+03</rscale>
<asrwt>  1 0.34875703E+02</asrwt>
<pdfrwt beam="1">  1        1 0.82264327E+00 0.30000000E+03</pdfrwt>
<pdfrwt beam="2">0</pdfrwt>
<totfact> 0.68605069E-04</totfact>
</mgrwt>
<clustering>
<clus scale="   34.876">  1  6  2 -1</clus>
<clus scale="  461.455">  4  5 -1 -1</clus>
<clus scale="  300.000">  1  4  2 -1</clus>
</clustering>
</event>
<event>
 6    1  0.9131597E-012  0.3000000E+03  0.7818608E-02  0.1093470E+00
          1   -1    0    0  502    0  0.00000000000E+00  0.00000000000E+00  0.22302750271E+03  0.22302750271E+03  0.00000000000E+00 0.  1.
         13   -1    0    0    0    0 -0.00000000000E+00 -0.00000000000E+00 -0.27500000000E+03  0.27500000000E+03  0.00000000000E+00 0.  1.
    9000005    2    1    2  501    0  0.10832271862E+02 -0.32269965990E+02 -0.48340250910E+02  0.46379474016E+03  0.46001096978E+03 0.  0.
         13    1    3    3    0    0 -0.19342325753E+03 -0.11009730308E+03  0.43379793793E+02  0.22675047786E+03  0.00000000000E+00 0.  1.
          1    1    3    3  501    0  0.20425552939E+03  0.77827337094E+02 -0.91720044703E+02  0.23704426230E+03  0.00000000000E+00 0.  1.
         21    1    1    2  502  501 -0.10832271862E+02  0.32269965990E+02 -0.36322463753E+01  0.34232762559E+02  0.00000000000E+00 0. -1.
<scales pt_clust_4="550.00000" pt_clust_5="550.00000" pt_clust_6="34.03954"></scales>
<mgrwt>
<rscale>  0 0.30000000E+03</rscale>
<asrwt>  1 0.34039536E+02</asrwt>
<pdfrwt beam="1">  1        1 0.81100910E+00 0.30000000E+03</pdfrwt>
<pdfrwt beam="2">0</pdfrwt>
<totfact> 0.86091991E-04</totfact>
</mgrwt>
<clustering>
<clus scale="   34.040">  1  6  2 -1</clus>
<clus scale="  460.011">  4  5 -1 -1</clus>
<clus scale="  300.000">  1  4  2 -1</clus>
</clustering>
</event>
<event>
 6    1  0.9131597E-012  0.3000000E+03  0.7818608E-02  0.1093470E+00
          1   -1    0    0  502    0  0.00000000000E+00  0.00000000000E+00  0.24054752651E+03  0.24054752651E+03  0.00000000000E+00 0.  1.
         13   -1    0    0    0    0 -0.00000000000E+00 -0.00000000000E+00 -0.27500000000E+03  0.27500000000E+03  0.00000000000E+00 0.  1.
    9000005    2    1    2  501    0  0.28704420563E+02  0.89744578100E+01 -0.75665628822E+02  0.46452783595E+03  0.45733613276E+03 0.  0.
         13    1    3    3    0    0  0.94139234145E+02  0.21406410612E+03  0.69276393302E+01  0.23395219409E+03  0.00000000000E+00 0.  1.
          1    1    3    3  501    0 -0.65434813582E+02 -0.20508964831E+03 -0.82593268152E+02  0.23057564185E+03  0.00000000000E+00 0.  1.
         21    1    1    2  502  501 -0.28704420563E+02 -0.89744578100E+01  0.41213155332E+02  0.51019690564E+02  0.00000000000E+00 0. -1.
<scales pt_clust_4="550.00000" pt_clust_5="550.00000" pt_clust_6="30.07465"></scales>
<mgrwt>
<rscale>  0 0.30000000E+03</rscale>
<asrwt>  1 0.30074651E+02</asrwt>
<pdfrwt beam="1">  1        1 0.87471828E+00 0.30000000E+03</pdfrwt>
<pdfrwt beam="2">0</pdfrwt>
<totfact> 0.23308396E-04</totfact>
</mgrwt>
<clustering>
<clus scale="   30.075">  1  6  2 -1</clus>
<clus scale="  457.336">  4  5 -1 -1</clus>
<clus scale="  300.000">  1  4  2 -1</clus>
</clustering>
</event>
<event>
 6    1  0.9131597E-012  0.3000000E+03  0.7818608E-02  0.1093470E+00
          1   -1    0    0  502    0  0.00000000000E+00  0.00000000000E+00  0.24888402010E+03  0.24888402010E+03  0.00000000000E+00 0.  1.
         13   -1    0    0    0    0 -0.00000000000E+00 -0.00000000000E+00 -0.27500000000E+03  0.27500000000E+03  0.00000000000E+00 0.  1.
    9000005    2    1    2  501    0 -0.15555062720E+02  0.26058681748E+02 -0.27686939510E+02  0.49349516055E+03  0.49178236243E+03 0.  0.
         13    1    3    3    0    0 -0.18166614712E+03 -0.10515543950E+02  0.15849444625E+03  0.24131650413E+03  0.00000000000E+00 0.  1.
          3    1    3    3  501    0  0.16611108440E+03  0.36574225698E+02 -0.18618138576E+03  0.25217865641E+03  0.00000000000E+00 0.  1.
         21    1    1    2  502  501  0.15555062720E+02 -0.26058681748E+02  0.15709596089E+01  0.30388859550E+02  0.00000000000E+00 0. -1.
<scales pt_clust_4="550.00000" pt_clust_5="550.00000" pt_clust_6="30.34823"></scales>
<mgrwt>
<rscale>  0 0.30000000E+03</rscale>
<asrwt>  1 0.30348227E+02</asrwt>
<pdfrwt beam="1">  1        1 0.90503280E+00 0.30000000E+03</pdfrwt>
<pdfrwt beam="2">0</pdfrwt>
<totfact> 0.94862975E-05</totfact>
</mgrwt>
<clustering>
<clus scale="   30.348">  1  6  2 -1</clus>
<clus scale="  491.782">  4  5 -1 -1</clus>
<clus scale="  300.000">  1  4  2 -1</clus>
</clustering>
</event>
<event>
 6    1  0.9131597E-012  0.3000000E+03  0.7818608E-02  0.1093470E+00
          1   -1    0    0  502    0  0.00000000000E+00  0.00000000000E+00  0.23097832582E+03  0.23097832582E+03  0.00000000000E+00 0.  1.
         13   -1    0    0    0    0 -0.00000000000E+00 -0.00000000000E+00 -0.27500000000E+03  0.27500000000E+03  0.00000000000E+00 0.  1.
    9000005    2    1    2  501    0  0.29539593089E+02  0.84406263002E+01 -0.42737211624E+02  0.47522964169E+03  0.47230595100E+03 0.  0.
         13    1    3    3    0    0 -0.12514464368E+03  0.15001526503E+02 -0.21149956716E+03  0.24620782796E+03  0.00000000000E+00 0.  1.
          1    1    3    3  501    0  0.15468423677E+03 -0.65609002024E+01  0.16876235554E+03  0.22902181373E+03  0.00000000000E+00 0.  1.
         21    1    1    2  502  501 -0.29539593089E+02 -0.84406263002E+01 -0.12844625516E+01  0.30748684138E+02  0.00000000000E+00 0.  1.
<scales pt_clust_4="550.00000" pt_clust_5="550.00000" pt_clust_6="30.72184"></scales>
<mgrwt>
<rscale>  0 0.30000000E+03</rscale>
<asrwt>  1 0.30721845E+02</asrwt>
<pdfrwt beam="1">  1        1 0.83992118E+00 0.30000000E+03</pdfrwt>
<pdfrwt beam="2">0</pdfrwt>
<totfact> 0.51017344E-04</totfact>
</mgrwt>
<clustering>
<clus scale="   30.722">  1  6  2 -1</clus>
<clus scale="  472.306">  4  5 -1 -1</clus>
<clus scale="  300.000">  1  4  2 -1</clus>
</clustering>
</event>
<event>
 6    1  0.9131597E-012  0.3000000E+03  0.7818608E-02  0.1093470E+00
          1   -1    0    0  502    0  0.00000000000E+00  0.00000000000E+00  0.23972442515E+03  0.23972442515E+03  0.00000000000E+00 0.  1.
         13   -1    0    0    0    0 -0.00000000000E+00 -0.00000000000E+00 -0.27500000000E+03  0.27500000000E+03  0.00000000000E+00 0.  1.
    9000005    2    1    2  501    0  0.33650957974E+02  0.24592423672E+02 -0.49072560154E+02  0.47082076838E+03  0.46639779749E+03 0.  0.
         13    1    3    3    0    0  0.30511791745E+02  0.56222994758E+02 -0.25477198168E+03  0.26267995208E+03  0.00000000000E+00 0.  1.
          1    1    3    3  501    0  0.31391662292E+01 -0.31630571086E+02  0.20569942153E+03  0.20814081630E+03  0.00000000000E+00 0.  1.
         21    1    1    2  502  501 -0.33650957974E+02 -0.24592423672E+02  0.13796985306E+02  0.43903656774E+02  0.00000000000E+00 0.  1.
<scales pt_clust_4="550.00000" pt_clust_5="550.00000" pt_clust_6="41.67942"></scales>
<mgrwt>
<rscale>  0 0.30000000E+03</rscale>
<asrwt>  1 0.41679423E+02</asrwt>
<pdfrwt beam="1">  1        1 0.87172518E+00 0.30000000E+03</pdfrwt>
<pdfrwt beam="2">0</pdfrwt>
<totfact> 0.23549207E-04</totfact>
</mgrwt>
<clustering>
<clus scale="   41.679">  1  6  2 -1</clus>
<clus scale="  466.398">  4  5 -1 -1</clus>
<clus scale="  300.000">  1  4  2 -1</clus>
</clustering>
</event>
<event>
 6    1  0.9131597E-012  0.3000000E+03  0.7818608E-02  0.1093470E+00
          1   -1    0    0  502    0  0.00000000000E+00  0.00000000000E+00  0.24486672802E+03  0.24486672802E+03  0.00000000000E+00 0.  1.
         13   -1    0    0    0    0 -0.00000000000E+00 -0.00000000000E+00 -0.27500000000E+03  0.27500000000E+03  0.00000000000E+00 0.  1.
    9000005    2    1    2  501    0  0.44734400036E+02  0.13737908986E+02 -0.20102372038E+02  0.47200739618E+03  0.46925151039E+03 0.  0.
         13    1    3    3    0    0  0.86928986816E+02  0.15716736681E+02 -0.23601298116E+03  0.25200355521E+03  0.00000000000E+00 0.  1.
          3    1    3    3  501    0 -0.42194586779E+02 -0.19788276951E+01  0.21591060912E+03  0.22000384098E+03  0.00000000000E+00 0.  1.
         21    1    1    2  502  501 -0.44734400036E+02 -0.13737908986E+02 -0.10030899944E+02  0.47859331834E+02  0.00000000000E+00 0.  1.
<scales pt_clust_4="550.00000" pt_clust_5="550.00000" pt_clust_6="46.79636"></scales>
<mgrwt>
<rscale>  0 0.30000000E+03</rscale>
<asrwt>  1 0.46796355E+02</asrwt>
<pdfrwt beam="1">  1        1 0.89042447E+00 0.30000000E+03</pdfrwt>
<pdfrwt beam="2">0</pdfrwt>
<totfact> 0.13572036E-04</totfact>
</mgrwt>
<clustering>
<clus scale="   46.796">  1  6  2 -1</clus>
<clus scale="  469.252">  4  5 -1 -1</clus>
<clus scale="  300.000">  1  4  2 -1</clus>
</clustering>
</event>
<event>
 6    1  0.9131597E-012  0.3000000E+03  0.7818608E-02  0.1093470E+00
          1   -1    0    0  502    0  0.00000000000E+00  0.00000000000E+00  0.23462186143E+03  0.23462186143E+03  0.00000000000E+00 0.  1.
         13   -1    0    0    0    0 -0.00000000000E+00 -0.00000000000E+00 -0.27500000000E+03  0.27500000000E+03  0.00000000000E+00 0.  1.
    9000005    2    1    2  501    0 -0.29396809638E+02 -0.23379016124E+02 -0.62035876117E+02  0.46626510409E+03  0.46059086677E+03 0.  0.
         13    1    3    3    0    0  0.43425852475E+02  0.13674169091E+03  0.13856809335E+03  0.19946230518E+03  0.00000000000E+00 0.  1.
          3    1    3    3  501    0 -0.72822662112E+02 -0.16012070703E+03 -0.20060396947E+03  0.26680279890E+03  0.00000000000E+00 0.  1.
         21    1    1    2  502  501  0.29396809638E+02  0.23379016124E+02  0.21657737551E+02  0.43356757347E+02  0.00000000000E+00 0. -1.
<scales pt_clust_4="550.00000" pt_clust_5="550.00000" pt_clust_6="37.55996"></scales>
<mgrwt>
<rscale>  0 0.30000000E+03</rscale>
<asrwt>  1 0.37559963E+02</asrwt>
<pdfrwt beam="1">  1        1 0.85317041E+00 0.30000000E+03</pdfrwt>
<pdfrwt beam="2">0</pdfrwt>
<totfact> 0.37467779E-04</totfact>
</mgrwt>
<clustering>
<clus scale="   37.560">  1  6  2 -1</clus>
<clus scale="  460.591">  4  5 -1 -1</clus>
<clus scale="  300.000">  1  4  2 -1</clus>
</clustering>
</event>
<event>
 6    1  0.9131597E-012  0.3000000E+03  0.7818608E-02  0.1093470E+00
          1   -1    0    0  502    0  0.00000000000E+00  0.00000000000E+00  0.24808149468E+03  0.24808149468E+03  0.00000000000E+00 0.  1.
         13   -1    0    0    0    0 -0.00000000000E+00 -0.00000000000E+00 -0.27500000000E+03  0.27500000000E+03  0.00000000000E+00 0.  1.
    9000005    2    1    2  501    0  0.32108847880E+02  0.52039314570E+02 -0.16504620236E+02  0.46105313524E+03  0.45668208050E+03 0.  0.
         13    1    3    3    0    0  0.54811373257E+01  0.19530250920E+03 -0.16298702704E+03  0.25443640453E+03  0.00000000000E+00 0.  1.
          1    1    3    3  501    0  0.26627710554E+02 -0.14326319463E+03  0.14648240680E+03  0.20661673071E+03  0.00000000000E+00 0.  1.
         21    1    1    2  502  501 -0.32108847880E+02 -0.52039314570E+02 -0.10413885082E+02  0.62028359446E+02  0.00000000000E+00 0. -1.
<scales pt_clust_4="550.00000" pt_clust_5="550.00000" pt_clust_6="61.14795"></scales>
<mgrwt>
<rscale>  0 0.30000000E+03</rscale>
<asrwt>  1 0.61147953E+02</asrwt>
<pdfrwt beam="1">  1        1 0.90211453E+00 0.30000000E+03</pdfrwt>
<pdfrwt beam="2">0</pdfrwt>
<totfact> 0.93625694E-05</totfact>
</mgrwt>
<clustering>
<clus scale="   61.148">  1  6  2 -1</clus>
<clus scale="  456.682">  4  5 -1 -1</clus>
<clus scale="  300.000">  1  4  2 -1</clus>
</clustering>
</event>
<event>
 6    1  0.9131597E-012  0.3000000E+03  0.7818608E-02  0.1093470E+00
          1   -1    0    0  502    0  0.00000000000E+00  0.00000000000E+00  0.23734704729E+03  0.23734704729E+03  0.00000000000E+00 0.  1.
         13   -1    0    0    0    0 -0.00000000000E+00 -0.00000000000E+00 -0.27500000000E+03  0.27500000000E+03  0.00000000000E+00 0.  1.
    9000005    2    1    2  501    0  0.25046388306E+02 -0.23794894282E+02 -0.42680916264E+02  0.47743574570E+03  0.47426755328E+03 0.  0.
         13    1    3    3    0    0  0.19880216950E+03  0.59240999097E+02  0.10711000124E+03  0.23346166910E+03  0.00000000000E+00 0.  1.
          1    1    3    3  501    0 -0.17375578119E+03 -0.83035893380E+02 -0.14979091750E+03  0.24397407660E+03  0.00000000000E+00 0.  1.
         21    1    1    2  502  501 -0.25046388306E+02  0.23794894282E+02  0.50279635520E+01  0.34911301588E+02  0.00000000000E+00 0.  1.
<scales pt_clust_4="550.00000" pt_clust_5="550.00000" pt_clust_6="34.54734"></scales>
<mgrwt>
<rscale>  0 0.30000000E+03</rscale>
<asrwt>  1 0.34547338E+02</asrwt>
<pdfrwt beam="1">  1        1 0.86308017E+00 0.30000000E+03</pdfrwt>
<pdfrwt beam="2">0</pdfrwt>
<totfact> 0.30040814E-04</totfact>
</mgrwt>
<clustering>
<clus scale="   34.547">  1  6  2 -1</clus>
<clus scale="  474.268">  4  5 -1 -1</clus>
<clus scale="  300.000">  1  4  2 -1</clus>
</clustering>
</event>
<event>
 6    1  0.9131597E-012  0.3000000E+03  0.7818608E-02  0.1093470E+00
          1   -1    0    0  502    0  0.00000000000E+00  0.00000000000E+00  0.23012466302E+03  0.23012466302E+03  0.00000000000E+00 0.  1.
         13   -1    0    0    0    0 -0.00000000000E+00 -0.00000000000E+00 -0.27500000000E+03  0.27500000000E+03  0.00000000000E+00 0.  1.
    9000005    2    1    2  501    0  0.34480922909E+02 -0.20165128899E+02 -0.57655895853E+02  0.46318531213E+03  0.45784371196E+03 0.  0.
         13    1    3    3    0    0 -0.10841026877E+03  0.50126186192E+02  0.15615059132E+03  0.19659203465E+03  0.00000000000E+00 0.  1.
          3    1    3    3  501    0  0.14289119168E+03 -0.70291315091E+02 -0.21380648718E+03  0.26659327748E+03  0.00000000000E+00 0.  1.
         21    1    1    2  502  501 -0.34480922909E+02  0.20165128899E+02  0.12780558876E+02  0.41939350893E+02  0.00000000000E+00 0. -1.
<scales pt_clust_4="550.00000" pt_clust_5="550.00000" pt_clust_6="39.94454"></scales>
<mgrwt>
<rscale>  0 0.30000000E+03</rscale>
<asrwt>  1 0.39944542E+02</asrwt>
<pdfrwt beam="1">  1        1 0.83681696E+00 0.30000000E+03</pdfrwt>
<pdfrwt beam="2">0</pdfrwt>
<totfact> 0.51213494E-04</totfact>
</mgrwt>
<clustering>
<clus scale="   39.945">  1  6  2 -1</clus>
<clus scale="  457.844">  4  5 -1 -1</clus>
<clus scale="  300.000">  1  4  2 -1</clus>
</clustering>
</event>
<event>
 6    1  0.9131597E-012  0.3000000E+03  0.7818608E-02  0.1093470E+00
          1   -1    0    0  502    0  0.00000000000E+00  0.00000000000E+00  0.22195143766E+03  0.22195143766E+03  0.00000000000E+00 0.  1.
         13   -1    0    0    0    0 -0.00000000000E+00 -0.00000000000E+00 -0.27500000000E+03  0.27500000000E+03  0.00000000000E+00 0.  1.
    9000005    2    1    2  501    0 -0.34180934542E+02  0.54231668425E+01 -0.57699542498E+02  0.46203183513E+03  0.45710658762E+03 0.  0.
         13    1    3    3    0    0 -0.19895078490E+03 -0.13360266895E+03 -0.32227883122E+01  0.23966951064E+03  0.00000000000E+00 0.  1.
          1    1    3    3  501    0  0.16476985036E+03  0.13902583580E+03 -0.54476754186E+02  0.22236232449E+03  0.00000000000E+00 0.  1.
         21    1    1    2  502  501  0.34180934542E+02 -0.54231668425E+01  0.46509801622E+01  0.34919602535E+02  0.00000000000E+00 0.  1.
<scales pt_clust_4="550.00000" pt_clust_5="550.00000" pt_clust_6="34.60848"></scales>
<mgrwt>
<rscale>  0 0.30000000E+03</rscale>
<asrwt>  1 0.34608482E+02</asrwt>
<pdfrwt beam="1">  1        1 0.80709614E+00 0.30000000E+03</pdfrwt>
<pdfrwt beam="2">0</pdfrwt>
<totfact> 0.92038263E-04</totfact>
</mgrwt>
<clustering>
<clus scale="   34.608">  1  6  2 -1</clus>
<clus scale="  457.107">  4  5 -1 -1</clus>
<clus scale="  300.000">  1  4  2 -1</clus>
</clustering>
</event>
<event>
 6    1  0.9131597E-012  0.3000000E+03  0.7818608E-02  0.1093470E+00
          1   -1    0    0  502    0  0.00000000000E+00  0.00000000000E+00  0.24264683662E+03  0.24264683662E+03  0.00000000000E+00 0.  1.
         13   -1    0    0    0    0 -0.00000000000E+00 -0.00000000000E+00 -0.27500000000E+03  0.27500000000E+03  0.00000000000E+00 0.  1.
    9000005    2    1    2  501    0  0.93932748455E+01 -0.29456847982E+02 -0.50941823960E+02  0.48157083619E+03  0.47786971167E+03 0.  0.
         13    1    3    3    0    0 -0.19426928056E+03  0.15960790830E+02 -0.15439996356E+03  0.24866573741E+03  0.00000000000E+00 0.  1.
          3    1    3    3  501    0  0.20366255540E+03 -0.45417638811E+02  0.10345813960E+03  0.23290509878E+03  0.00000000000E+00 0.  1.
         21    1    1    2  502  501 -0.93932748455E+01  0.29456847982E+02  0.18588660584E+02  0.36076000439E+02  0.00000000000E+00 0. -1.
<scales pt_clust_4="550.00000" pt_clust_5="550.00000" pt_clust_6="30.91827"></scales>
<mgrwt>
<rscale>  0 0.30000000E+03</rscale>
<asrwt>  1 0.30918271E+02</asrwt>
<pdfrwt beam="1">  1        1 0.88235213E+00 0.30000000E+03</pdfrwt>
<pdfrwt beam="2">0</pdfrwt>
<totfact> 0.18858388E-04</totfact>
</mgrwt>
<clustering>
<clus scale="   30.918">  1  6  2 -1</clus>
<clus scale="  477.870">  4  5 -1 -1</clus>
<clus scale="  300.000">  1  4  2 -1</clus>
</clustering>
</event>
<event>
 6    1  0.9131597E-012  0.3000000E+03  0.7818608E-02  0.1093470E+00
          1   -1    0    0  502    0  0.00000000000E+00  0.00000000000E+00  0.24375532708E+03  0.24375532708E+03  0.00000000000E+00 0.  1.
         13   -1    0    0    0    0 -0.00000000000E+00 -0.00000000000E+00 -0.27500000000E+03  0.27500000000E+03  0.00000000000E+00 0.  1.
    9000005    2    1    2  501    0  0.37138752782E+01  0.35789017402E+02 -0.32417848268E+02  0.48275500796E+03  0.48031951260E+03 0.  0.
         13    1    3    3    0    0  0.21944658470E+03 -0.45181048630E+02  0.63936071444E+02  0.23299345897E+03  0.00000000000E+00 0.  1.
          1    1    3    3  501    0 -0.21573270942E+03  0.80970066032E+02 -0.96353919712E+02  0.24976154899E+03  0.00000000000E+00 0.  1.
         21    1    1    2  502  501 -0.37138752782E+01 -0.35789017402E+02  0.11731753456E+01  0.36000319117E+02  0.00000000000E+00 0.  1.
<scales pt_clust_4="550.00000" pt_clust_5="550.00000" pt_clust_6="35.98120"></scales>
<mgrwt>
<rscale>  0 0.30000000E+03</rscale>
<asrwt>  1 0.35981198E+02</asrwt>
<pdfrwt beam="1">  1        1 0.88638301E+00 0.30000000E+03</pdfrwt>
<pdfrwt beam="2">0</pdfrwt>
<totfact> 0.16159282E-04</totfact>
</mgrwt>
<clustering>
<clus scale="   35.981">  1  6  2 -1</clus>
<clus scale="  480.320">  4  5 -1 -1</clus>
<clus scale="  300.000">  1  4  2 -1</clus>
</clustering>
</event>
<event>
 6    1  0.9131597E-012  0.3000000E+03  0.7818608E-02  0.1093470E+00
          1   -1    0    0  502    0  0.00000000000E+00  0.00000000000E+00  0.23758761854E+03  0.23758761854E+03  0.00000000000E+00 0.  1.
         13   -1    0    0    0    0 -0.00000000000E+00 -0.00000000000E+00 -0.27500000000E+03  0.27500000000E+03  0.00000000000E+00 0.  1.
    9000005    2    1    2  501    0  0.22427828491E+02 -0.21710660211E+02 -0.34296300998E+02  0.48121772509E+03  0.47897797697E+03 0.  0.
         13    1    3    3    0    0  0.14028460952E+03  0.16968860116E+03 -0.10724830113E+03  0.24490036980E+03  0.00000000000E+00 0.  1.
          1    1    3    3  501    0 -0.11785678103E+03 -0.19139926137E+03  0.72952000129E+02  0.23631735529E+03  0.00000000000E+00 0.  1.
         21    1    1    2  502  501 -0.22427828491E+02  0.21710660211E+02 -0.31160804621E+01  0.31369893451E+02  0.00000000000E+00 0.  1.
<scales pt_clust_4="550.00000" pt_clust_5="550.00000" pt_clust_6="31.21476"></scales>
<mgrwt>
<rscale>  0 0.30000000E+03</rscale>
<asrwt>  1 0.31214760E+02</asrwt>
<pdfrwt beam="1">  1        1 0.86395498E+00 0.30000000E+03</pdfrwt>
<pdfrwt beam="2">0</pdfrwt>
<totfact> 0.29962945E-04</totfact>
</mgrwt>
<clustering>
<clus scale="   31.215">  1  6  2 -1</clus>
<clus scale="  478.978">  4  5 -1 -1</clus>
<clus scale="  300.000">  1  4  2 -1</clus>
</clustering>
</event>
<event>
 6    1  0.9131597E-012  0.3000000E+03  0.7818608E-02  0.1093470E+00
          1   -1    0    0  502    0  0.00000000000E+00  0.00000000000E+00  0.26240163146E+03  0.26240163146E+03  0.00000000000E+00 0.  1.
         13   -1    0    0    0    0 -0.00000000000E+00 -0.00000000000E+00 -0.27500000000E+03  0.27500000000E+03  0.00000000000E+00 0.  1.
    9000005    2    1    2  501    0  0.30615638448E+02 -0.35492852198E-02 -0.22564317220E+02  0.50520477659E+03  0.50377117876E+03 0.  0.
         13    1    3    3    0    0 -0.12202456535E+03 -0.51397561203E+02 -0.21608772636E+03  0.25342772013E+03  0.00000000000E+00 0.  1.
          3    1    3    3  501    0  0.15264020380E+03  0.51394011918E+02  0.19352340914E+03  0.25177705646E+03  0.00000000000E+00 0.  1.
         21    1    1    2  502  501 -0.30615638448E+02  0.35492852198E-02  0.99659486822E+01  0.32196854867E+02  0.00000000000E+00 0.  1.
<scales pt_clust_4="550.00000" pt_clust_5="550.00000" pt_clust_6="30.61564"></scales>
<mgrwt>
<rscale>  0 0.30000000E+03</rscale>
<asrwt>  1 0.30615639E+02</asrwt>
<pdfrwt beam="1">  1        1 0.95418775E+00 0.30000000E+03</pdfrwt>
<pdfrwt beam="2">0</pdfrwt>
<totfact> 0.10357991E-05</totfact>
</mgrwt>
<clustering>
<clus scale="   30.616">  1  6  2 -1</clus>
<clus scale="  503.771">  4  5 -1 -1</clus>
<clus scale="  300.000">  1  4  2 -1</clus>
</clustering>
</event>
<event>
 6    1  0.9131597E-012  0.3000000E+03  0.7818608E-02  0.1093470E+00
          1   -1    0    0  502    0  0.00000000000E+00  0.00000000000E+00  0.24050561774E+03  0.24050561774E+03  0.00000000000E+00 0.  1.
         13   -1    0    0    0    0 -0.00000000000E+00 -0.00000000000E+00 -0.27500000000E+03  0.27500000000E+03  0.00000000000E+00 0.  1.
    9000005    2    1    2  501    0  0.34396996827E+02 -0.19178156516E+02 -0.26709160654E+02  0.47536131860E+03  0.47297362387E+03 0.  0.
         13    1    3    3    0    0 -0.19574169540E+03 -0.50566453680E+02 -0.10808812302E+03  0.22924838035E+03  0.00000000000E+00 0.  1.
          3    1    3    3  501    0  0.23013869223E+03  0.31388297165E+02  0.81378962362E+02  0.24611293825E+03  0.00000000000E+00 0.  1.
         21    1    1    2  502  501 -0.34396996827E+02  0.19178156516E+02 -0.77852216090E+01  0.40144299142E+02  0.00000000000E+00 0. -1.
<scales pt_clust_4="550.00000" pt_clust_5="550.00000" pt_clust_6="39.38219"></scales>
<mgrwt>
<rscale>  0 0.30000000E+03</rscale>
<asrwt>  1 0.39382187E+02</asrwt>
<pdfrwt beam="1">  1        1 0.87456588E+00 0.30000000E+03</pdfrwt>
<pdfrwt beam="2">0</pdfrwt>
<totfact> 0.22240138E-04</totfact>
</mgrwt>
<clustering>
<clus scale="   39.382">  1  6  2 -1</clus>
<clus scale="  472.974">  4  5 -1 -1</clus>
<clus scale="  300.000">  1  4  2 -1</clus>
</clustering>
</event>
<event>
 6    1  0.9131597E-012  0.3000000E+03  0.7818608E-02  0.1093470E+00
          1   -1    0    0  502    0  0.00000000000E+00  0.00000000000E+00  0.24271884519E+03  0.24271884519E+03  0.00000000000E+00 0.  1.
         13   -1    0    0    0    0 -0.00000000000E+00 -0.00000000000E+00 -0.27500000000E+03  0.27500000000E+03  0.00000000000E+00 0.  1.
    9000005    2    1    2  501    0 -0.21134603883E+02  0.26578457289E+02 -0.31171747181E+02  0.48374360923E+03  0.48154243403E+03 0.  0.
         13    1    3    3    0    0 -0.89361158409E+02 -0.22555922909E+02  0.20946341557E+03  0.22884297837E+03  0.00000000000E+00 0.  1.
          3    1    3    3  501    0  0.68226554526E+02  0.49134380198E+02 -0.24063516275E+03  0.25490063085E+03  0.00000000000E+00 0.  1.
         21    1    1    2  502  501  0.21134603883E+02 -0.26578457289E+02 -0.11094076330E+01  0.33975235958E+02  0.00000000000E+00 0.  1.
<scales pt_clust_4="550.00000" pt_clust_5="550.00000" pt_clust_6="33.95712"></scales>
<mgrwt>
<rscale>  0 0.30000000E+03</rscale>
<asrwt>  1 0.33957118E+02</asrwt>
<pdfrwt beam="1">  1        1 0.88261398E+00 0.30000000E+03</pdfrwt>
<pdfrwt beam="2">0</pdfrwt>
<totfact> 0.18379377E-04</totfact>
</mgrwt>
<clustering>
<clus scale="   33.957">  1  6  2 -1</clus>
<clus scale="  481.542">  4  5 -1 -1</clus>
<clus scale="  300.000">  1  4  2 -1</clus>
</clustering>
</event>
<event>
 6    1  0.9131597E-012  0.3000000E+03  0.7818608E-02  0.1093470E+00
          1   -1    0    0  502    0  0.00000000000E+00  0.00000000000E+00  0.22542228482E+03  0.22542228482E+03  0.00000000000E+00 0.  1.
         13   -1    0    0    0    0 -0.00000000000E+00 -0.00000000000E+00 -0.27500000000E+03  0.27500000000E+03  0.00000000000E+00 0.  1.
    9000005    2    1    2  501    0  0.13380752164E+02 -0.32382037940E+02 -0.40710584417E+02  0.46427997005E+03  0.46116255051E+03 0.  0.
         13    1    3    3    0    0 -0.58013330280E+02  0.66697226154E+02 -0.22582608697E+03  0.24251079981E+03  0.00000000000E+00 0.  1.
          1    1    3    3  501    0  0.71394082444E+02 -0.99079264094E+02  0.18511550256E+03  0.22176917024E+03  0.00000000000E+00 0.  1.
         21    1    1    2  502  501 -0.13380752164E+02  0.32382037940E+02 -0.88671307577E+01  0.36142314778E+02  0.00000000000E+00 0.  1.
<scales pt_clust_4="550.00000" pt_clust_5="550.00000" pt_clust_6="35.03772"></scales>
<mgrwt>
<rscale>  0 0.30000000E+03</rscale>
<asrwt>  1 0.35037724E+02</asrwt>
<pdfrwt beam="1">  1        1 0.81971740E+00 0.30000000E+03</pdfrwt>
<pdfrwt beam="2">0</pdfrwt>
<totfact> 0.72722302E-04</totfact>
</mgrwt>
<clustering>
<clus scale="   35.038">  1  6  2 -1</clus>
<clus scale="  461.163">  4  5 -1 -1</clus>
<clus scale="  300.000">  1  4  2 -1</clus>
</clustering>
</event>
<event>
 6    1  0.9131597E-012  0.3000000E+03  0.7818608E-02  0.1093470E+00
          1   -1    0    0  502    0  0.00000000000E+00  0.00000000000E+00  0.23506000528E+03  0.23506000528E+03  0.00000000000E+00 0.  1.
         13   -1    0    0    0    0 -0.00000000000E+00 -0.00000000000E+00 -0.27500000000E+03  0.27500000000E+03  0.00000000000E+00 0.  1.
    9000005    2    1    2  501    0  0.31072863654E+02 -0.12747020165E+02 -0.41308922073E+02  0.47644626790E+03  0.47346236363E+03 0.  0.
         13    1    3    3    0    0 -0.19101820673E+02 -0.16271510658E+03  0.15420077965E+03  0.22498659050E+03  0.00000000000E+00 0.  1.
          1    1    3    3  501    0  0.50174684327E+02  0.14996808641E+03 -0.19550970172E+03  0.25145967740E+03  0.00000000000E+00 0.  1.
         21    1    1    2  502  501 -0.31072863654E+02  0.12747020165E+02  0.13689273539E+01  0.33613737383E+02  0.00000000000E+00 0. -1.
<scales pt_clust_4="550.00000" pt_clust_5="550.00000" pt_clust_6="33.58585"></scales>
<mgrwt>
<rscale>  0 0.30000000E+03</rscale>
<asrwt>  1 0.33585851E+02</asrwt>
<pdfrwt beam="1">  1        1 0.85476366E+00 0.30000000E+03</pdfrwt>
<pdfrwt beam="2">0</pdfrwt>
<totfact> 0.36915054E-04</totfact>
</mgrwt>
<clustering>
<clus scale="   33.586">  1  6  2 -1</clus>
<clus scale="  473.462">  4  5 -1 -1</clus>
<clus scale="  300.000">  1  4  2 -1</clus>
</clustering>
</event>
<event>
 6    1  0.9131597E-012  0.3000000E+03  0.7818608E-02  0.1093470E+00
          1   -1    0    0  502    0  0.00000000000E+00  0.00000000000E+00  0.24232092433E+03  0.24232092433E+03  0.00000000000E+00 0.  1.
         13   -1    0    0    0    0 -0.00000000000E+00 -0.00000000000E+00 -0.27500000000E+03  0.27500000000E+03  0.00000000000E+00 0.  1.
    9000005    2    1    2  501    0 -0.39927627167E+02 -0.28114021184E+02 -0.24072062181E+02  0.46773570194E+03  0.46455635729E+03 0.  0.
         13    1    3    3    0    0 -0.12018443583E+03 -0.22467296707E+03 -0.14206021860E+02  0.25519414531E+03  0.00000000000E+00 0.  1.
          1    1    3    3  501    0  0.80256808661E+02  0.19655894588E+03 -0.98660403206E+01  0.21254155663E+03  0.00000000000E+00 0.  1.
         21    1    1    2  502  501  0.39927627167E+02  0.28114021184E+02 -0.86070134848E+01  0.49585222390E+02  0.00000000000E+00 0.  1.
<scales pt_clust_4="550.00000" pt_clust_5="550.00000" pt_clust_6="48.83253"></scales>
<mgrwt>
<rscale>  0 0.30000000E+03</rscale>
<asrwt>  1 0.48832530E+02</asrwt>
<pdfrwt beam="1">  1        1 0.88116700E+00 0.30000000E+03</pdfrwt>
<pdfrwt beam="2">0</pdfrwt>
<totfact> 0.17964459E-04</totfact>
</mgrwt>
<clustering>
<clus scale="   48.833">  1  6  2 -1</clus>
<clus scale="  464.556">  4  5 -1 -1</clus>
<clus scale="  300.000">  1  4  2 -1</clus>
</clustering>
</event>
<event>
 6    1  0.9131597E-012  0.3000000E+03  0.7818608E-02  0.1093470E+00
          1   -1    0    0  502    0  0.00000000000E+00  0.00000000000E+00  0.22432487041E+03  0.22432487041E+03  0.00000000000E+00 0.  1.
         13   -1    0    0    0    0 -0.00000000000E+00 -0.00000000000E+00 -0.27500000000E+03  0.27500000000E+03  0.00000000000E+00 0.  1.
    9000005    2    1    2  501    0  0.27709811900E+02 -0.14192496950E+02 -0.47990605683E+02  0.46807639342E+03  0.46456770357E+03 0.  0.
         13    1    3    3    0    0 -0.35795067816E+02  0.19112240578E+03  0.88338660181E+02  0.21357148628E+03  0.00000000000E+00 0.  1.
          3    1    3    3  501    0  0.63504879716E+02 -0.20531490273E+03 -0.13632926586E+03  0.25450490714E+03  0.00000000000E+00 0.  1.
         21    1    1    2  502  501 -0.27709811900E+02  0.14192496950E+02 -0.26845239104E+01  0.31248476984E+02  0.00000000000E+00 0.  1.
<scales pt_clust_4="550.00000" pt_clust_5="550.00000" pt_clust_6="31.13295"></scales>
<mgrwt>
<rscale>  0 0.30000000E+03</rscale>
<asrwt>  1 0.31132951E+02</asrwt>
<pdfrwt beam="1">  1        1 0.81572680E+00 0.30000000E+03</pdfrwt>
<pdfrwt beam="2">0</pdfrwt>
<totfact> 0.80289297E-04</totfact>
</mgrwt>
<clustering>
<clus scale="   31.133">  1  6  2 -1</clus>
<clus scale="  464.568">  4  5 -1 -1</clus>
<clus scale="  300.000">  1  4  2 -1</clus>
</clustering>
</event>
<event>
 6    1  0.9131597E-012  0.3000000E+03  0.7818608E-02  0.1093470E+00
          1   -1    0    0  502    0  0.00000000000E+00  0.00000000000E+00  0.24446359286E+03  0.24446359286E+03  0.00000000000E+00 0.  1.
         13   -1    0    0    0    0 -0.00000000000E+00 -0.00000000000E+00 -0.27500000000E+03  0.27500000000E+03  0.00000000000E+00 0.  1.
    9000005    2    1    2  501    0  0.20708020249E+01 -0.30587788282E+02 -0.15537905262E+02  0.48533360500E+03  0.48411504896E+03 0.  0.
         13    1    3    3    0    0  0.22341029833E+03 -0.78771195127E+01  0.87587504808E+02  0.24009535899E+03  0.00000000000E+00 0.  1.
          1    1    3    3  501    0 -0.22133949631E+03 -0.22710668770E+02 -0.10312541007E+03  0.24523824600E+03  0.00000000000E+00 0.  1.
         21    1    1    2  502  501 -0.20708020249E+01  0.30587788282E+02 -0.14998501876E+02  0.34129987864E+02  0.00000000000E+00 0.  1.
<scales pt_clust_4="550.00000" pt_clust_5="550.00000" pt_clust_6="30.65782"></scales>
<mgrwt>
<rscale>  0 0.30000000E+03</rscale>
<asrwt>  1 0.30657820E+02</asrwt>
<pdfrwt beam="1">  1        1 0.88895852E+00 0.30000000E+03</pdfrwt>
<pdfrwt beam="2">0</pdfrwt>
<totfact> 0.15351191E-04</totfact>
</mgrwt>
<clustering>
<clus scale="   30.658">  1  6  2 -1</clus>
<clus scale="  484.115">  4  5 -1 -1</clus>
<clus scale="  300.000">  1  4  2 -1</clus>
</clustering>
</event>
<event>
 6    1  0.9131597E-012  0.3000000E+03  0.7818608E-02  0.1093470E+00
          1   -1    0    0  502    0  0.00000000000E+00  0.00000000000E+00  0.22178544789E+03  0.22178544789E+03  0.00000000000E+00 0.  1.
         13   -1    0    0    0    0 -0.00000000000E+00 -0.00000000000E+00 -0.27500000000E+03  0.27500000000E+03  0.00000000000E+00 0.  1.
    9000005    2    1    2  501    0  0.26500741970E+02  0.19321105070E+02 -0.53013116359E+02  0.46398857300E+03  0.45978191672E+03 0.  0.
         13    1    3    3    0    0  0.23604034889E+03  0.31035195328E+02 -0.82712118418E+02  0.25203080008E+03  0.00000000000E+00 0.  1.
          1    1    3    3  501    0 -0.20953960692E+03 -0.11714090258E+02  0.29699002059E+02  0.21195777293E+03  0.00000000000E+00 0.  1.
         21    1    1    2  502  501 -0.26500741970E+02 -0.19321105070E+02 -0.20143574922E+00  0.32796874888E+02  0.00000000000E+00 0.  1.
<scales pt_clust_4="550.00000" pt_clust_5="550.00000" pt_clust_6="32.79626"></scales>
<mgrwt>
<rscale>  0 0.30000000E+03</rscale>
<asrwt>  1 0.32796256E+02</asrwt>
<pdfrwt beam="1">  1        1 0.80649254E+00 0.30000000E+03</pdfrwt>
<pdfrwt beam="2">0</pdfrwt>
<totfact> 0.93971599E-04</totfact>
</mgrwt>
<clustering>
<clus scale="   32.796">  1  6  2 -1</clus>
<clus scale="  459.782">  4  5 -1 -1</clus>
<clus scale="  300.000">  1  4  2 -1</clus>
</clustering>
</event>
<event>
 6    1  0.9131597E-012  0.3000000E+03  0.7818608E-02  0.1093470E+00
          1   -1    0    0  502    0  0.00000000000E+00  0.00000000000E+00  0.23502362222E+03  0.23502362222E+03  0.00000000000E+00 0.  1.
         13   -1    0    0    0    0 -0.00000000000E+00 -0.00000000000E+00 -0.27500000000E+03  0.27500000000E+03  0.00000000000E+00 0.  1.
    9000005    2    1    2  501    0  0.75470835664E+01  0.29925795588E+02 -0.64469348319E+02  0.47062289484E+03  0.46516352025E+03 0.  0.
         13    1    3    3    0    0 -0.66620244066E+02  0.23338096901E+03  0.63452415429E+01  0.24278631697E+03  0.00000000000E+00 0.  1.
          1    1    3    3  501    0  0.74167327633E+02 -0.20345517342E+03 -0.70814589862E+02  0.22783657788E+03  0.00000000000E+00 0.  1.
         21    1    1    2  502  501 -0.75470835664E+01 -0.29925795588E+02  0.24492970541E+02  0.39400727378E+02  0.00000000000E+00 0. -1.
<scales pt_clust_4="550.00000" pt_clust_5="550.00000" pt_clust_6="30.86279"></scales>
<mgrwt>
<rscale>  0 0.30000000E+03</rscale>
<asrwt>  1 0.30862788E+02</asrwt>
<pdfrwt beam="1">  1        1 0.85463135E+00 0.30000000E+03</pdfrwt>
<pdfrwt beam="2">0</pdfrwt>
<totfact> 0.37625625E-04</totfact>
</mgrwt>
<clustering>
<clus scale="   30.863">  1  6  2 -1</clus>
<clus scale="  465.164">  4  5 -1 -1</clus>
<clus scale="  300.000">  1  4  2 -1</clus>
</clustering>
</event>
<event>
 6    1  0.9131597E-012  0.3000000E+03  0.7818608E-02  0.1093470E+00
          1   -1    0    0  502    0  0.00000000000E+00  0.00000000000E+00  0.22590525035E+03  0.22590525035E+03  0.00000000000E+00 0.  1.
         13   -1    0    0    0    0 -0.00000000000E+00 -0.00000000000E+00 -0.27500000000E+03  0.27500000000E+03  0.00000000000E+00 0.  1.
    9000005    2    1    2  501    0 -0.26365412562E+02 -0.26303907177E+02 -0.61209689362E+02  0.46174146253E+03  0.45614857408E+03 0.  0.
         13    1    3    3    0    0 -0.17482644891E+03 -0.17363904069E+03 -0.11057086872E+02  0.24665170354E+03  0.00000000000E+00 0.  1.
          3    1    3    3  501    0  0.14846103635E+03  0.14733513351E+03 -0.50152602490E+02  0.21508975898E+03  0.00000000000E+00 0.  1.
         21    1    1    2  502  501  0.26365412562E+02  0.26303907177E+02  0.12114939709E+02  0.39163787821E+02  0.00000000000E+00 0. -1.
<scales pt_clust_4="550.00000" pt_clust_5="550.00000" pt_clust_6="37.24286"></scales>
<mgrwt>
<rscale>  0 0.30000000E+03</rscale>
<asrwt>  1 0.37242859E+02</asrwt>
<pdfrwt beam="1">  1        1 0.82147364E+00 0.30000000E+03</pdfrwt>
<pdfrwt beam="2">0</pdfrwt>
<totfact> 0.69408449E-04</totfact>
</mgrwt>
<clustering>
<clus scale="   37.243">  1  6  2 -1</clus>
<clus scale="  456.149">  4  5 -1 -1</clus>
<clus scale="  300.000">  1  4  2 -1</clus>
</clustering>
</event>
<event>
 6    1  0.9131597E-012  0.3000000E+03  0.7818608E-02  0.1093470E+00
          1   -1    0    0  502    0  0.00000000000E+00  0.00000000000E+00  0.23651276123E+03  0.23651276123E+03  0.00000000000E+00 0.  1.
         13   -1    0    0    0    0 -0.00000000000E+00 -0.00000000000E+00 -0.27500000000E+03  0.27500000000E+03  0.00000000000E+00 0.  1.
    9000005    2    1    2  501    0 -0.25973058439E+02  0.20455351136E+02 -0.55397840140E+02  0.47437801209E+03  0.46997080389E+03 0.  0.
         13    1    3    3    0    0  0.20806429769E+03 -0.64696248778E+01 -0.10573502955E+03  0.23347913074E+03  0.00000000000E+00 0.  1.
          1    1    3    3  501    0 -0.23403735613E+03  0.26924976014E+02  0.50337189405E+02  0.24089888135E+03  0.00000000000E+00 0.  1.
         21    1    1    2  502  501  0.25973058439E+02 -0.20455351136E+02  0.16910601369E+02  0.37134749137E+02  0.00000000000E+00 0.  1.
<scales pt_clust_4="550.00000" pt_clust_5="550.00000" pt_clust_6="33.06087"></scales>
<mgrwt>
<rscale>  0 0.30000000E+03</rscale>
<asrwt>  1 0.33060870E+02</asrwt>
<pdfrwt beam="1">  1        1 0.86004640E+00 0.30000000E+03</pdfrwt>
<pdfrwt beam="2">0</pdfrwt>
<totfact> 0.32657598E-04</totfact>
</mgrwt>
<clustering>
<clus scale="   33.061">  1  6  2 -1</clus>
<clus scale="  469.971">  4  5 -1 -1</clus>
<clus scale="  300.000">  1  4  2 -1</clus>
</clustering>
</event>
<event>
 6    1  0.9131597E-012  0.3000000E+03  0.7818608E-02  0.1093470E+00
          1   -1    0    0  502    0  0.00000000000E+00  0.00000000000E+00  0.24502625144E+03  0.24502625144E+03  0.00000000000E+00 0.  1.
         13   -1    0    0    0    0 -0.00000000000E+00 -0.00000000000E+00 -0.27500000000E+03  0.27500000000E+03  0.00000000000E+00 0.  1.
    9000005    2    1    2  501    0 -0.29123033795E+02 -0.20290336415E+02 -0.65554442385E+02  0.46976856922E+03  0.46381599246E+03 0.  0.
         13    1    3    3    0    0 -0.17739048887E+03  0.30367084471E+01  0.13238066691E+03  0.22136225539E+03  0.00000000000E+00 0.  1.
          1    1    3    3  501    0  0.14826745507E+03 -0.23327044862E+02 -0.19793510930E+03  0.24840631383E+03  0.00000000000E+00 0.  1.
         21    1    1    2  502  501  0.29123033795E+02  0.20290336415E+02  0.35580693821E+02  0.50257682219E+02  0.00000000000E+00 0. -1.
<scales pt_clust_4="550.00000" pt_clust_5="550.00000" pt_clust_6="35.49435"></scales>
<mgrwt>
<rscale>  0 0.30000000E+03</rscale>
<asrwt>  1 0.35494350E+02</asrwt>
<pdfrwt beam="1">  1        1 0.89100455E+00 0.30000000E+03</pdfrwt>
<pdfrwt beam="2">0</pdfrwt>
<totfact> 0.14026468E-04</totfact>
</mgrwt>
<clustering>
<clus scale="   35.494">  1  6  2 -1</clus>
<clus scale="  463.816">  4  5 -1 -1</clus>
<clus scale="  300.000">  1  4  2 -1</clus>
</clustering>
</event>
<event>
 6    1  0.9131597E-012  0.3000000E+03  0.7818608E-02  0.1093470E+00
          1   -1    0    0  502    0  0.00000000000E+00  0.00000000000E+00  0.23856589151E+03  0.23856589151E+03  0.00000000000E+00 0.  1.
         13   -1    0    0    0    0 -0.00000000000E+00 -0.00000000000E+00 -0.27500000000E+03  0.27500000000E+03  0.00000000000E+00 0.  1.
    9000005    2    1    2  501    0  0.44283416888E+02  0.99549948987E+01 -0.50106893368E+02  0.46616264287E+03  0.46123398174E+03 0.  0.
         13    1    3    3    0    0  0.10115876753E+03 -0.25490789247E+02 -0.24166491659E+03  0.26322007616E+03  0.00000000000E+00 0.  1.
          3    1    3    3  501    0 -0.56875350638E+02  0.35445784145E+02  0.19155802322E+03  0.20294256671E+03  0.00000000000E+00 0.  1.
         21    1    1    2  502  501 -0.44283416888E+02 -0.99549948987E+01  0.13672784874E+02  0.47403248632E+02  0.00000000000E+00 0. -1.
<scales pt_clust_4="550.00000" pt_clust_5="550.00000" pt_clust_6="45.38858"></scales>
<mgrwt>
<rscale>  0 0.30000000E+03</rscale>
<asrwt>  1 0.45388577E+02</asrwt>
<pdfrwt beam="1">  1        1 0.86751233E+00 0.30000000E+03</pdfrwt>
<pdfrwt beam="2">0</pdfrwt>
<totfact> 0.25621705E-04</totfact>
</mgrwt>
<clustering>
<clus scale="   45.389">  1  6  2 -1</clus>
<clus scale="  461.234">  4  5 -1 -1</clus>
<clus scale="  300.000">  1  4  2 -1</clus>
</clustering>
</event>
<event>
 6    1  0.9131597E-012  0.3000000E+03  0.7818608E-02  0.1093470E+00
          1   -1    0    0  502    0  0.00000000000E+00  0.00000000000E+00  0.25547998356E+03  0.25547998356E+03  0.00000000000E+00 0.  1.
         13   -1    0    0    0    0 -0.00000000000E+00 -0.00000000000E+00 -0.27500000000E+03  0.27500000000E+03  0.00000000000E+00 0.  1.
    9000005    2    1    2  501    0 -0.25143892860E+02  0.27668258809E+02 -0.23753455011E+02  0.49285459458E+03  0.49086013983E+03 0.  0.
         13    1    3    3    0    0 -0.16138049046E+03 -0.16462858363E+03 -0.90901442809E+02  0.24780901024E+03  0.00000000000E+00 0.  1.
          3    1    3    3  501    0  0.13623659760E+03  0.19229684244E+03  0.67147987798E+02  0.24504558434E+03  0.00000000000E+00 0.  1.
         21    1    1    2  502  501  0.25143892860E+02 -0.27668258809E+02  0.42334385678E+01  0.37625388978E+02  0.00000000000E+00 0. -1.
<scales pt_clust_4="550.00000" pt_clust_5="550.00000" pt_clust_6="37.38647"></scales>
<mgrwt>
<rscale>  0 0.30000000E+03</rscale>
<asrwt>  1 0.37386467E+02</asrwt>
<pdfrwt beam="1">  1        1 0.92901812E+00 0.30000000E+03</pdfrwt>
<pdfrwt beam="2">0</pdfrwt>
<totfact> 0.26967743E-05</totfact>
</mgrwt>
<clustering>
<clus scale="   37.386">  1  6  2 -1</clus>
<clus scale="  490.860">  4  5 -1 -1</clus>
<clus scale="  300.000">  1  4  2 -1</clus>
</clustering>
</event>
<event>
 6    1  0.9131597E-012  0.3000000E+03  0.7818608E-02  0.1093470E+00
          1   -1    0    0  502    0  0.00000000000E+00  0.00000000000E+00  0.24559292087E+03  0.24559292087E+03  0.00000000000E+00 0.  1.
         13   -1    0    0    0    0 -0.00000000000E+00 -0.00000000000E+00 -0.27500000000E+03  0.27500000000E+03  0.00000000000E+00 0.  1.
    9000005    2    1    2  501    0  0.31517843156E+02 -0.27345098658E+02 -0.15700429333E+02  0.47667252577E+03  0.47458304277E+03 0.  0.
         13    1    3    3    0    0  0.57896826930E+02 -0.54388531504E+02 -0.23814425689E+03  0.25104350622E+03  0.00000000000E+00 0.  1.
          3    1    3    3  501    0 -0.26378983774E+02  0.27043432846E+02  0.22244382755E+03  0.22562901955E+03  0.00000000000E+00 0.  1.
         21    1    1    2  502  501 -0.31517843156E+02  0.27345098658E+02 -0.13706649794E+02  0.43920395107E+02  0.00000000000E+00 0. -1.
<scales pt_clust_4="550.00000" pt_clust_5="550.00000" pt_clust_6="41.72686"></scales>
<mgrwt>
<rscale>  0 0.30000000E+03</rscale>
<asrwt>  1 0.41726857E+02</asrwt>
<pdfrwt beam="1">  1        1 0.89306517E+00 0.30000000E+03</pdfrwt>
<pdfrwt beam="2">0</pdfrwt>
<totfact> 0.12846689E-04</totfact>
</mgrwt>
<clustering>
<clus scale="   41.727">  1  6  2 -1</clus>
<clus scale="  474.583">  4  5 -1 -1</clus>
<clus scale="  300.000">  1  4  2 -1</clus>
</clustering>
</event>
<event>
 6    1  0.9131597E-012  0.3000000E+03  0.7818608E-02  0.1093470E+00
          1   -1    0    0  502    0  0.00000000000E+00  0.00000000000E+00  0.23423292305E+03  0.23423292305E+03  0.00000000000E+00 0.  1.
         13   -1    0    0    0    0 -0.00000000000E+00 -0.00000000000E+00 -0.27500000000E+03  0.27500000000E+03  0.00000000000E+00 0.  1.
    9000005    2    1    2  501    0  0.24054689822E+01  0.40488966633E+02 -0.63331790268E+02  0.46281838883E+03  0.45666705889E+03 0.  0.
         13    1    3    3    0    0  0.15924245397E+03  0.11180151149E+03  0.10572532480E+03  0.22143979187E+03  0.00000000000E+00 0.  1.
          1    1    3    3  501    0 -0.15683698499E+03 -0.71312544859E+02 -0.16905711507E+03  0.24137859696E+03  0.00000000000E+00 0.  1.
         21    1    1    2  502  501 -0.24054689822E+01 -0.40488966633E+02  0.22564713319E+02  0.46414534224E+02  0.00000000000E+00 0. -1.
<scales pt_clust_4="550.00000" pt_clust_5="550.00000" pt_clust_6="40.56036"></scales>
<mgrwt>
<rscale>  0 0.30000000E+03</rscale>
<asrwt>  1 0.40560359E+02</asrwt>
<pdfrwt beam="1">  1        1 0.85175608E+00 0.30000000E+03</pdfrwt>
<pdfrwt beam="2">0</pdfrwt>
<totfact> 0.38118283E-04</totfact>
</mgrwt>
<clustering>
<clus scale="   40.560">  1  6  2 -1</clus>
<clus scale="  456.667">  4  5 -1 -1</clus>
<clus scale="  300.000">  1  4  2 -1</clus>
</clustering>
</event>
<event>
 6    1  0.9131597E-012  0.3000000E+03  0.7818608E-02  0.1093470E+00
          1   -1    0    0  502    0  0.00000000000E+00  0.00000000000E+00  0.24680619931E+03  0.24680619931E+03  0.00000000000E+00 0.  1.
         13   -1    0    0    0    0 -0.00000000000E+00 -0.00000000000E+00 -0.27500000000E+03  0.27500000000E+03  0.00000000000E+00 0.  1.
    9000005    2    1    2  501    0 -0.31876705138E+02 -0.26825113658E+02 -0.35935385267E+02  0.47943116910E+03  0.47626377454E+03 0.  0.
         13    1    3    3    0    0  0.21511007798E+03  0.44791377044E+02 -0.33474075124E+02  0.22225914337E+03  0.00000000000E+00 0.  1.
          1    1    3    3  501    0 -0.24698678311E+03 -0.71616490702E+02 -0.24613101434E+01  0.25717202574E+03  0.00000000000E+00 0.  1.
         21    1    1    2  502  501  0.31876705138E+02  0.26825113658E+02  0.77415845768E+01  0.42375030206E+02  0.00000000000E+00 0.  1.
<scales pt_clust_4="550.00000" pt_clust_5="550.00000" pt_clust_6="41.66187"></scales>
<mgrwt>
<rscale>  0 0.30000000E+03</rscale>
<asrwt>  1 0.41661866E+02</asrwt>
<pdfrwt beam="1">  1        1 0.89747709E+00 0.30000000E+03</pdfrwt>
<pdfrwt beam="2">0</pdfrwt>
<totfact> 0.11456516E-04</totfact>
</mgrwt>
<clustering>
<clus scale="   41.662">  1  6  2 -1</clus>
<clus scale="  476.264">  4  5 -1 -1</clus>
<clus scale="  300.000">  1  4  2 -1</clus>
</clustering>
</event>
<event>
 6    1  0.9131597E-012  0.3000000E+03  0.7818608E-02  0.1093470E+00
          1   -1    0    0  502    0  0.00000000000E+00  0.00000000000E+00  0.24197296511E+03  0.24197296511E+03  0.00000000000E+00 0.  1.
         13   -1    0    0    0    0 -0.00000000000E+00 -0.00000000000E+00 -0.27500000000E+03  0.27500000000E+03  0.00000000000E+00 0.  1.
    9000005    2    1    2  501    0  0.81437516669E+01 -0.42161899101E+02 -0.11639059604E+02  0.46900014036E+03  0.46688512240E+03 0.  0.
         13    1    3    3    0    0 -0.17550702949E+03 -0.13291472953E+03  0.92973964854E+02  0.23898368326E+03  0.00000000000E+00 0.  1.
          3    1    3    3  501    0  0.18365078116E+03  0.90752830425E+02 -0.10461302446E+03  0.23001645710E+03  0.00000000000E+00 0.  1.
         21    1    1    2  502  501 -0.81437516669E+01  0.42161899101E+02 -0.21387975290E+02  0.47972824745E+02  0.00000000000E+00 0.  1.
<scales pt_clust_4="550.00000" pt_clust_5="550.00000" pt_clust_6="42.94122"></scales>
<mgrwt>
<rscale>  0 0.30000000E+03</rscale>
<asrwt>  1 0.42941219E+02</asrwt>
<pdfrwt beam="1">  1        1 0.87990169E+00 0.30000000E+03</pdfrwt>
<pdfrwt beam="2">0</pdfrwt>
<totfact> 0.19063658E-04</totfact>
</mgrwt>
<clustering>
<clus scale="   42.941">  1  6  2 -1</clus>
<clus scale="  466.885">  4  5 -1 -1</clus>
<clus scale="  300.000">  1  4  2 -1</clus>
</clustering>
</event>
<event>
 6    1  0.9131597E-012  0.3000000E+03  0.7818608E-02  0.1093470E+00
          1   -1    0    0  502    0  0.00000000000E+00  0.00000000000E+00  0.22779354486E+03  0.22779354486E+03  0.00000000000E+00 0.  1.
         13   -1    0    0    0    0 -0.00000000000E+00 -0.00000000000E+00 -0.27500000000E+03  0.27500000000E+03  0.00000000000E+00 0.  1.
    9000005    2    1    2  501    0  0.14198953149E+02 -0.35107808242E+02 -0.54029962632E+02  0.46431330676E+03  0.45960139414E+03 0.  0.
         13    1    3    3    0    0  0.18524223643E+03 -0.10043140782E+03  0.92188580161E+02  0.22999975684E+03  0.00000000000E+00 0.  1.
          1    1    3    3  501    0 -0.17104328328E+03  0.65323599579E+02 -0.14621854279E+03  0.23431354992E+03  0.00000000000E+00 0.  1.
         21    1    1    2  502  501 -0.14198953149E+02  0.35107808242E+02  0.68235074929E+01  0.38480238105E+02  0.00000000000E+00 0. -1.
<scales pt_clust_4="550.00000" pt_clust_5="550.00000" pt_clust_6="37.87042"></scales>
<mgrwt>
<rscale>  0 0.30000000E+03</rscale>
<asrwt>  1 0.37870417E+02</asrwt>
<pdfrwt beam="1">  1        1 0.82834016E+00 0.30000000E+03</pdfrwt>
<pdfrwt beam="2">0</pdfrwt>
<totfact> 0.60153242E-04</totfact>
</mgrwt>
<clustering>
<clus scale="   37.870">  1  6  2 -1</clus>
<clus scale="  459.601">  4  5 -1 -1</clus>
<clus scale="  300.000">  1  4  2 -1</clus>
</clustering>
</event>
<event>
 6    1  0.9131597E-012  0.3000000E+03  0.7818608E-02  0.1093470E+00
          1   -1    0    0  502    0  0.00000000000E+00  0.00000000000E+00  0.25363053750E+03  0.25363053750E+03  0.00000000000E+00 0.  1.
         13   -1    0    0    0    0 -0.00000000000E+00 -0.00000000000E+00 -0.27500000000E+03  0.27500000000E+03  0.00000000000E+00 0.  1.
    9000005    2    1    2  501    0  0.17076960591E+02  0.37322593559E+02 -0.38523388815E+02  0.48414620586E+03  0.48086266084E+03 0.  0.
         13    1    3    3    0    0 -0.19322494450E+03  0.88060122008E+02  0.92073170396E+02  0.23144747346E+03  0.00000000000E+00 0.  1.
          3    1    3    3  501    0  0.21030190509E+03 -0.50737528449E+02 -0.13059655921E+03  0.25269873240E+03  0.00000000000E+00 0.  1.
         21    1    1    2  502  501 -0.17076960591E+02 -0.37322593559E+02  0.17153926310E+02  0.44484331633E+02  0.00000000000E+00 0.  1.
<scales pt_clust_4="550.00000" pt_clust_5="550.00000" pt_clust_6="41.04386"></scales>
<mgrwt>
<rscale>  0 0.30000000E+03</rscale>
<asrwt>  1 0.41043862E+02</asrwt>
<pdfrwt beam="1">  1        1 0.92229286E+00 0.30000000E+03</pdfrwt>
<pdfrwt beam="2">0</pdfrwt>
<totfact> 0.36258110E-05</totfact>
</mgrwt>
<clustering>
<clus scale="   41.044">  1  6  2 -1</clus>
<clus scale="  480.863">  4  5 -1 -1</clus>
<clus scale="  300.000">  1  4  2 -1</clus>
</clustering>
</event>
<event>
 6    1  0.9131597E-012  0.3000000E+03  0.7818608E-02  0.1093470E+00
          1   -1    0    0  502    0  0.00000000000E+00  0.00000000000E+00  0.23653946441E+03  0.23653946441E+03  0.00000000000E+00 0.  1.
         13   -1    0    0    0    0 -0.00000000000E+00 -0.00000000000E+00 -0.27500000000E+03  0.27500000000E+03  0.00000000000E+00 0.  1.
    9000005    2    1    2  501    0  0.33821190013E+02  0.59706546524E+01 -0.69037778405E+02  0.46555588703E+03  0.45912585147E+03 0.  0.
         13    1    3    3    0    0 -0.28798759229E+02  0.22585307612E+03 -0.65450583426E+02  0.23690242590E+03  0.00000000000E+00 0.  1.
          1    1    3    3  501    0  0.62619949242E+02 -0.21988242147E+03 -0.35871949790E+01  0.22865346112E+03  0.00000000000E+00 0.  1.
         21    1    1    2  502  501 -0.33821190013E+02 -0.59706546524E+01  0.30577242814E+02  0.45983577384E+02  0.00000000000E+00 0. -1.
<scales pt_clust_4="550.00000" pt_clust_5="550.00000" pt_clust_6="34.34416"></scales>
<mgrwt>
<rscale>  0 0.30000000E+03</rscale>
<asrwt>  1 0.34344164E+02</asrwt>
<pdfrwt beam="1">  1        1 0.86014351E+00 0.30000000E+03</pdfrwt>
<pdfrwt beam="2">0</pdfrwt>
<totfact> 0.32346910E-04</totfact>
</mgrwt>
<clustering>
<clus scale="   34.344">  1  6  2 -1</clus>
<clus scale="  459.126">  4  5 -1 -1</clus>
<clus scale="  300.000">  1  4  2 -1</clus>
</clustering>
</event>
<event>
 6    1  0.9131597E-012  0.3000000E+03  0.7818608E-02  0.1093470E+00
          1   -1    0    0  502    0  0.00000000000E+00  0.00000000000E+00  0.22943281683E+03  0.22943281683E+03  0.00000000000E+00 0.  1.
         13   -1    0    0    0    0 -0.00000000000E+00 -0.00000000000E+00 -0.27500000000E+03  0.27500000000E+03  0.00000000000E+00 0.  1.
    9000005    2    1    2  501    0 -0.22856581610E+02 -0.21507954045E+02 -0.48160814972E+02  0.47294087602E+03  0.46943433269E+03 0.  0.
         13    1    3    3    0    0 -0.12090890799E+03 -0.21889556324E+03 -0.27415266393E+02  0.25156674755E+03  0.00000000000E+00 0.  1.
          3    1    3    3  501    0  0.98052326383E+02  0.19738760920E+03 -0.20745548579E+02  0.22137412848E+03  0.00000000000E+00 0.  1.
         21    1    1    2  502  501  0.22856581610E+02  0.21507954045E+02  0.25936318073E+01  0.31491940812E+02  0.00000000000E+00 0. -1.
<scales pt_clust_4="550.00000" pt_clust_5="550.00000" pt_clust_6="31.38496"></scales>
<mgrwt>
<rscale>  0 0.30000000E+03</rscale>
<asrwt>  1 0.31384955E+02</asrwt>
<pdfrwt beam="1">  1        1 0.83430115E+00 0.30000000E+03</pdfrwt>
<pdfrwt beam="2">0</pdfrwt>
<totfact> 0.55880028E-04</totfact>
</mgrwt>
<clustering>
<clus scale="   31.385">  1  6  2 -1</clus>
<clus scale="  469.434">  4  5 -1 -1</clus>
<clus scale="  300.000">  1  4  2 -1</clus>
</clustering>
</event>
<event>
 6    1  0.9131597E-012  0.3000000E+03  0.7818608E-02  0.1093470E+00
          1   -1    0    0  502    0  0.00000000000E+00  0.00000000000E+00  0.25368651753E+03  0.25368651753E+03  0.00000000000E+00 0.  1.
         13   -1    0    0    0    0 -0.00000000000E+00 -0.00000000000E+00 -0.27500000000E+03  0.27500000000E+03  0.00000000000E+00 0.  1.
    9000005    2    1    2  501    0  0.16725383329E+02 -0.26373310553E+02 -0.69318081186E+02  0.47141757783E+03  0.46524643615E+03 0.  0.
         13    1    3    3    0    0 -0.14007420500E+03  0.98823648759E+02 -0.17471563715E+03  0.24477019901E+03  0.00000000000E+00 0.  1.
          1    1    3    3  501    0  0.15679958833E+03 -0.12519695931E+03  0.10539755596E+03  0.22664737881E+03  0.00000000000E+00 0.  1.
         21    1    1    2  502  501 -0.16725383329E+02  0.26373310553E+02  0.48004598719E+02  0.57268939707E+02  0.00000000000E+00 0.  1.
<scales pt_clust_4="550.00000" pt_clust_5="550.00000" pt_clust_6="31.22963"></scales>
<mgrwt>
<rscale>  0 0.30000000E+03</rscale>
<asrwt>  1 0.31229633E+02</asrwt>
<pdfrwt beam="1">  1        1 0.92249643E+00 0.30000000E+03</pdfrwt>
<pdfrwt beam="2">0</pdfrwt>
<totfact> 0.37776973E-05</totfact>
</mgrwt>
<clustering>
<clus scale="   31.230">  1  6  2 -1</clus>
<clus scale="  465.246">  4  5 -1 -1</clus>
<clus scale="  300.000">  1  4  2 -1</clus>
</clustering>
</event>
<event>
 6    1  0.9131597E-012  0.3000000E+03  0.7818608E-02  0.1093470E+00
          1   -1    0    0  502    0  0.00000000000E+00  0.00000000000E+00  0.23292607867E+03  0.23292607867E+03  0.00000000000E+00 0.  1.
         13   -1    0    0    0    0 -0.00000000000E+00 -0.00000000000E+00 -0.27500000000E+03  0.27500000000E+03  0.00000000000E+00 0.  1.
    9000005    2    1    2  501    0  0.35179762512E+02  0.15600511276E+02 -0.59601228099E+02  0.46563898696E+03  0.46020252949E+03 0.  0.
         13    1    3    3    0    0  0.11007383892E+03 -0.17083218637E+03 -0.14259311390E+03  0.24825930405E+03  0.00000000000E+00 0.  1.
          3    1    3    3  501    0 -0.74894076411E+02  0.18643269765E+03  0.82991885799E+02  0.21737968291E+03  0.00000000000E+00 0.  1.
         21    1    1    2  502  501 -0.35179762512E+02 -0.15600511276E+02  0.17527306765E+02  0.42287091706E+02  0.00000000000E+00 0.  1.
<scales pt_clust_4="550.00000" pt_clust_5="550.00000" pt_clust_6="38.48365"></scales>
<mgrwt>
<rscale>  0 0.30000000E+03</rscale>
<asrwt>  1 0.38483654E+02</asrwt>
<pdfrwt beam="1">  1        1 0.84700392E+00 0.30000000E+03</pdfrwt>
<pdfrwt beam="2">0</pdfrwt>
<totfact> 0.42611741E-04</totfact>
</mgrwt>
<clustering>
<clus scale="   38.484">  1  6  2 -1</clus>
<clus scale="  460.203">  4  5 -1 -1</clus>
<clus scale="  300.000">  1  4  2 -1</clus>
</clustering>
</event>
<event>
 6    1  0.9131597E-012  0.3000000E+03  0.7818608E-02  0.1093470E+00
          1   -1    0    0  502    0  0.00000000000E+00  0.00000000000E+00  0.24440918232E+03  0.24440918232E+03  0.00000000000E+00 0.  1.
         13   -1    0    0    0    0 -0.00000000000E+00 -0.00000000000E+00 -0.27500000000E+03  0.27500000000E+03  0.00000000000E+00 0.  1.
    9000005    2    1    2  501    0  0.26822734522E+02 -0.34788160039E+02 -0.38701860870E+02  0.47473856348E+03  0.47111484211E+03 0.  0.
         13    1    3    3    0    0 -0.20665753573E+03  0.53957618969E+02  0.30006986426E+02  0.21568305671E+03  0.00000000000E+00 0.  1.
          1    1    3    3  501    0  0.23348027025E+03 -0.88745779009E+02 -0.68708847296E+02  0.25905550677E+03  0.00000000000E+00 0.  1.
         21    1    1    2  502  501 -0.26822734522E+02  0.34788160039E+02  0.81110431910E+01  0.44670618843E+02  0.00000000000E+00 0.  1.
<scales pt_clust_4="550.00000" pt_clust_5="550.00000" pt_clust_6="43.92807"></scales>
<mgrwt>
<rscale>  0 0.30000000E+03</rscale>
<asrwt>  1 0.43928068E+02</asrwt>
<pdfrwt beam="1">  1        1 0.88876066E+00 0.30000000E+03</pdfrwt>
<pdfrwt beam="2">0</pdfrwt>
<totfact> 0.14449927E-04</totfact>
</mgrwt>
<clustering>
<clus scale="   43.928">  1  6  2 -1</clus>
<clus scale="  471.115">  4  5 -1 -1</clus>
<clus scale="  300.000">  1  4  2 -1</clus>
</clustering>
</event>
<event>
 6    1  0.9131597E-012  0.3000000E+03  0.7818608E-02  0.1093470E+00
          1   -1    0    0  502    0  0.00000000000E+00  0.00000000000E+00  0.23981595535E+03  0.23981595535E+03  0.00000000000E+00 0.  1.
         13   -1    0    0    0    0 -0.00000000000E+00 -0.00000000000E+00 -0.27500000000E+03  0.27500000000E+03  0.00000000000E+00 0.  1.
    9000005    2    1    2  501    0  0.56305686456E+00  0.32780185193E+02 -0.64922003586E+02  0.47055306146E+03  0.46489833246E+03 0.  0.
         13    1    3    3    0    0  0.15929453917E+03  0.17381458486E+03  0.30555432045E+02  0.23773913129E+03  0.00000000000E+00 0.  1.
          3    1    3    3  501    0 -0.15873148231E+03 -0.14103439966E+03 -0.95477435630E+02  0.23281393017E+03  0.00000000000E+00 0.  1.
         21    1    1    2  502  501 -0.56305686456E+00 -0.32780185193E+02  0.29737958940E+02  0.44262893898E+02  0.00000000000E+00 0. -1.
<scales pt_clust_4="550.00000" pt_clust_5="550.00000" pt_clust_6="32.78502"></scales>
<mgrwt>
<rscale>  0 0.30000000E+03</rscale>
<asrwt>  1 0.32785021E+02</asrwt>
<pdfrwt beam="1">  1        1 0.87205802E+00 0.30000000E+03</pdfrwt>
<pdfrwt beam="2">0</pdfrwt>
<totfact> 0.24427430E-04</totfact>
</mgrwt>
<clustering>
<clus scale="   32.785">  1  6  2 -1</clus>
<clus scale="  464.898">  4  5 -1 -1</clus>
<clus scale="  300.000">  1  4  2 -1</clus>
</clustering>
</event>
<event>
 6    1  0.9131597E-012  0.3000000E+03  0.7818608E-02  0.1093470E+00
          1   -1    0    0  502    0  0.00000000000E+00  0.00000000000E+00  0.23496743943E+03  0.23496743943E+03  0.00000000000E+00 0.  1.
         13   -1    0    0    0    0 -0.00000000000E+00 -0.00000000000E+00 -0.27500000000E+03  0.27500000000E+03  0.00000000000E+00 0.  1.
    9000005    2    1    2  501    0 -0.26556150449E+02  0.26526137387E+02 -0.50431815830E+02  0.47101863199E+03  0.46680436860E+03 0.  0.
         13    1    3    3    0    0 -0.52428296877E+02 -0.21397349272E+03 -0.61980750963E+02  0.22885583975E+03  0.00000000000E+00 0.  1.
          3    1    3    3  501    0  0.25872146428E+02  0.24049963010E+03  0.11548935133E+02  0.24216279224E+03  0.00000000000E+00 0.  1.
         21    1    1    2  502  501  0.26556150449E+02 -0.26526137387E+02  0.10399255262E+02  0.38948807445E+02  0.00000000000E+00 0.  1.
<scales pt_clust_4="550.00000" pt_clust_5="550.00000" pt_clust_6="37.53485"></scales>
<mgrwt>
<rscale>  0 0.30000000E+03</rscale>
<asrwt>  1 0.37534852E+02</asrwt>
<pdfrwt beam="1">  1        1 0.85442705E+00 0.30000000E+03</pdfrwt>
<pdfrwt beam="2">0</pdfrwt>
<totfact> 0.36433958E-04</totfact>
</mgrwt>
<clustering>
<clus scale="   37.535">  1  6  2 -1</clus>
<clus scale="  466.804">  4  5 -1 -1</clus>
<clus scale="  300.000">  1  4  2 -1</clus>
</clustering>
</event>
<event>
 6    1  0.9131597E-012  0.3000000E+03  0.7818608E-02  0.1093470E+00
          1   -1    0    0  502    0  0.00000000000E+00  0.00000000000E+00  0.22990868325E+03  0.22990868325E+03  0.00000000000E+00 0.  1.
         13   -1    0    0    0    0 -0.00000000000E+00 -0.00000000000E+00 -0.27500000000E+03  0.27500000000E+03  0.00000000000E+00 0.  1.
    9000005    2    1    2  501    0  0.13035601001E+02  0.28484252856E+02 -0.59572873608E+02  0.47039788721E+03  0.46555769295E+03 0.  0.
         13    1    3    3    0    0  0.15451886948E+03 -0.15819053782E+03  0.22329781240E+02  0.22225873753E+03  0.00000000000E+00 0.  1.
          1    1    3    3  501    0 -0.14148326848E+03  0.18667479067E+03 -0.81902654848E+02  0.24813914968E+03  0.00000000000E+00 0.  1.
         21    1    1    2  502  501 -0.13035601001E+02 -0.28484252856E+02  0.14481556859E+02  0.34510796040E+02  0.00000000000E+00 0.  1.
<scales pt_clust_4="550.00000" pt_clust_5="550.00000" pt_clust_6="31.32538"></scales>
<mgrwt>
<rscale>  0 0.30000000E+03</rscale>
<asrwt>  1 0.31325382E+02</asrwt>
<pdfrwt beam="1">  1        1 0.83603158E+00 0.30000000E+03</pdfrwt>
<pdfrwt beam="2">0</pdfrwt>
<totfact> 0.54298808E-04</totfact>
</mgrwt>
<clustering>
<clus scale="   31.325">  1  6  2 -1</clus>
<clus scale="  465.558">  4  5 -1 -1</clus>
<clus scale="  300.000">  1  4  2 -1</clus>
</clustering>
</event>
<event>
 6    1  0.9131597E-012  0.3000000E+03  0.7818608E-02  0.1093470E+00
          1   -1    0    0  502    0  0.00000000000E+00  0.00000000000E+00  0.22908266640E+03  0.22908266640E+03  0.00000000000E+00 0.  1.
         13   -1    0    0    0    0 -0.00000000000E+00 -0.00000000000E+00 -0.27500000000E+03  0.27500000000E+03  0.00000000000E+00 0.  1.
    9000005    2    1    2  501    0 -0.29034673486E+02 -0.21992002915E+02 -0.45739260388E+02  0.46765888067E+03  0.46398931914E+03 0.  0.
         13    1    3    3    0    0 -0.18396579609E+03  0.14544597947E+03 -0.48696315001E+02  0.23951884721E+03  0.00000000000E+00 0.  1.
          3    1    3    3  501    0  0.15493112260E+03 -0.16743798238E+03  0.29570546131E+01  0.22814003346E+03  0.00000000000E+00 0.  1.
         21    1    1    2  502  501  0.29034673486E+02  0.21992002915E+02 -0.17807321282E+00  0.36423785728E+02  0.00000000000E+00 0.  1.
<scales pt_clust_4="550.00000" pt_clust_5="550.00000" pt_clust_6="36.42335"></scales>
<mgrwt>
<rscale>  0 0.30000000E+03</rscale>
<asrwt>  1 0.36423350E+02</asrwt>
<pdfrwt beam="1">  1        1 0.83302788E+00 0.30000000E+03</pdfrwt>
<pdfrwt beam="2">0</pdfrwt>
<totfact> 0.55534436E-04</totfact>
</mgrwt>
<clustering>
<clus scale="   36.423">  1  6  2 -1</clus>
<clus scale="  463.989">  4  5 -1 -1</clus>
<clus scale="  300.000">  1  4  2 -1</clus>
</clustering>
</event>
<event>
 6    1  0.9131597E-012  0.3000000E+03  0.7818608E-02  0.1093470E+00
          1   -1    0    0  502    0  0.00000000000E+00  0.00000000000E+00  0.24067801685E+03  0.24067801685E+03  0.00000000000E+00 0.  1.
         13   -1    0    0    0    0 -0.00000000000E+00 -0.00000000000E+00 -0.27500000000E+03  0.27500000000E+03  0.00000000000E+00 0.  1.
    9000005    2    1    2  501    0 -0.61271773474E+01 -0.32086763554E+02 -0.57808408993E+02  0.47544476075E+03  0.47078530741E+03 0.  0.
         13    1    3    3    0    0 -0.14174150878E+03  0.14013241738E+02  0.16034531275E+03  0.21447061704E+03  0.00000000000E+00 0.  1.
          3    1    3    3  501    0  0.13561433143E+03 -0.46100005291E+02 -0.21815372174E+03  0.26097414371E+03  0.00000000000E+00 0.  1.
         21    1    1    2  502  501  0.61271773474E+01  0.32086763554E+02  0.23486425846E+02  0.40233256103E+02  0.00000000000E+00 0. -1.
<scales pt_clust_4="550.00000" pt_clust_5="550.00000" pt_clust_6="32.66654"></scales>
<mgrwt>
<rscale>  0 0.30000000E+03</rscale>
<asrwt>  1 0.32666538E+02</asrwt>
<pdfrwt beam="1">  1        1 0.87519279E+00 0.30000000E+03</pdfrwt>
<pdfrwt beam="2">0</pdfrwt>
<totfact> 0.22679766E-04</totfact>
</mgrwt>
<clustering>
<clus scale="   32.667">  1  6  2 -1</clus>
<clus scale="  470.785">  4  5 -1 -1</clus>
<clus scale="  300.000">  1  4  2 -1</clus>
</clustering>
</event>
<event>
 6    1  0.9131597E-012  0.3000000E+03  0.7818608E-02  0.1093470E+00
          1   -1    0    0  502    0  0.00000000000E+00  0.00000000000E+00  0.24594048792E+03  0.24594048792E+03  0.00000000000E+00 0.  1.
         13   -1    0    0    0    0 -0.00000000000E+00 -0.00000000000E+00 -0.27500000000E+03  0.27500000000E+03  0.00000000000E+00 0.  1.
    9000005    2    1    2  501    0 -0.10297040506E+02  0.31839267943E+02 -0.40492674950E+02  0.48557828721E+03  0.48272854510E+03 0.  0.
         13    1    3    3    0    0 -0.13177393823E+03  0.27256996507E+02  0.18538047152E+03  0.22907036883E+03  0.00000000000E+00 0.  1.
          1    1    3    3  501    0  0.12147689772E+03  0.45822714365E+01 -0.22587314647E+03  0.25650791837E+03  0.00000000000E+00 0.  1.
         21    1    1    2  502  501  0.10297040506E+02 -0.31839267943E+02  0.11433162874E+02  0.35362200719E+02  0.00000000000E+00 0. -1.
<scales pt_clust_4="550.00000" pt_clust_5="550.00000" pt_clust_6="33.46294"></scales>
<mgrwt>
<rscale>  0 0.30000000E+03</rscale>
<asrwt>  1 0.33462935E+02</asrwt>
<pdfrwt beam="1">  1        1 0.89432905E+00 0.30000000E+03</pdfrwt>
<pdfrwt beam="2">0</pdfrwt>
<totfact> 0.12939567E-04</totfact>
</mgrwt>
<clustering>
<clus scale="   33.463">  1  6  2 -1</clus>
<clus scale="  482.729">  4  5 -1 -1</clus>
<clus scale="  300.000">  1  4  2 -1</clus>
</clustering>
</event>
<event>
 6    1  0.9131597E-012  0.3000000E+03  0.7818608E-02  0.1093470E+00
          1   -1    0    0  502    0  0.00000000000E+00  0.00000000000E+00  0.24803947627E+03  0.24803947627E+03  0.00000000000E+00 0.  1.
         13   -1    0    0    0    0 -0.00000000000E+00 -0.00000000000E+00 -0.27500000000E+03  0.27500000000E+03  0.00000000000E+00 0.  1.
    9000005    2    1    2  501    0 -0.97733749509E+01  0.34837156397E+02 -0.28201469241E+02  0.48683607492E+03  0.48466988214E+03 0.  0.
         13    1    3    3    0    0  0.19070755631E+03  0.16041021979E+03 -0.22379935257E+02  0.25020326167E+03  0.00000000000E+00 0.  1.
          3    1    3    3  501    0 -0.20048093126E+03 -0.12557306340E+03 -0.58215339837E+01  0.23663281325E+03  0.00000000000E+00 0.  1.
         21    1    1    2  502  501  0.97733749509E+01 -0.34837156397E+02  0.12409455122E+01  0.36203401353E+02  0.00000000000E+00 0.  1.
<scales pt_clust_4="550.00000" pt_clust_5="550.00000" pt_clust_6="36.18213"></scales>
<mgrwt>
<rscale>  0 0.30000000E+03</rscale>
<asrwt>  1 0.36182127E+02</asrwt>
<pdfrwt beam="1">  1        1 0.90196173E+00 0.30000000E+03</pdfrwt>
<pdfrwt beam="2">0</pdfrwt>
<totfact> 0.10328785E-04</totfact>
</mgrwt>
<clustering>
<clus scale="   36.182">  1  6  2 -1</clus>
<clus scale="  484.670">  4  5 -1 -1</clus>
<clus scale="  300.000">  1  4  2 -1</clus>
</clustering>
</event>
<event>
 6    1  0.9131597E-012  0.3000000E+03  0.7818608E-02  0.1093470E+00
          1   -1    0    0  502    0  0.00000000000E+00  0.00000000000E+00  0.24220283205E+03  0.24220283205E+03  0.00000000000E+00 0.  1.
         13   -1    0    0    0    0 -0.00000000000E+00 -0.00000000000E+00 -0.27500000000E+03  0.27500000000E+03  0.00000000000E+00 0.  1.
    9000005    2    1    2  501    0  0.46567841855E+02 -0.83925986463E+01 -0.46730188137E+02  0.46787607806E+03  0.46312559240E+03 0.  0.
         13    1    3    3    0    0 -0.20373948298E+03 -0.23976019522E+02  0.25912411154E+02  0.20677543251E+03  0.00000000000E+00 0.  1.
          1    1    3    3  501    0  0.25030732484E+03  0.15583420876E+02 -0.72642599291E+02  0.26110064555E+03  0.00000000000E+00 0.  1.
         21    1    1    2  502  501 -0.46567841855E+02  0.83925986463E+01  0.13933020183E+02  0.49326753983E+02  0.00000000000E+00 0. -1.
<scales pt_clust_4="550.00000" pt_clust_5="550.00000" pt_clust_6="47.31807"></scales>
<mgrwt>
<rscale>  0 0.30000000E+03</rscale>
<asrwt>  1 0.47318069E+02</asrwt>
<pdfrwt beam="1">  1        1 0.88073757E+00 0.30000000E+03</pdfrwt>
<pdfrwt beam="2">0</pdfrwt>
<totfact> 0.18292532E-04</totfact>
</mgrwt>
<clustering>
<clus scale="   47.318">  1  6  2 -1</clus>
<clus scale="  463.126">  4  5 -1 -1</clus>
<clus scale="  300.000">  1  4  2 -1</clus>
</clustering>
</event>
<event>
 6    1  0.9131597E-012  0.3000000E+03  0.7818608E-02  0.1093470E+00
          1   -1    0    0  502    0  0.00000000000E+00  0.00000000000E+00  0.22372190166E+03  0.22372190166E+03  0.00000000000E+00 0.  1.
         13   -1    0    0    0    0 -0.00000000000E+00 -0.00000000000E+00 -0.27500000000E+03  0.27500000000E+03  0.00000000000E+00 0.  1.
    9000005    2    1    2  501    0  0.37130533438E+02  0.44768076023E+01 -0.42080004488E+02  0.46020796587E+03  0.45675149344E+03 0.  0.
         13    1    3    3    0    0 -0.11113413871E+03 -0.16870781499E+03 -0.99369998666E+02  0.22513889104E+03  0.00000000000E+00 0.  1.
          3    1    3    3  501    0  0.14826467215E+03  0.17318462259E+03  0.57289994179E+02  0.23506907483E+03  0.00000000000E+00 0.  1.
         21    1    1    2  502  501 -0.37130533438E+02 -0.44768076023E+01 -0.91980938475E+01  0.38513935792E+02  0.00000000000E+00 0.  1.
<scales pt_clust_4="550.00000" pt_clust_5="550.00000" pt_clust_6="37.39946"></scales>
<mgrwt>
<rscale>  0 0.30000000E+03</rscale>
<asrwt>  1 0.37399461E+02</asrwt>
<pdfrwt beam="1">  1        1 0.81353419E+00 0.30000000E+03</pdfrwt>
<pdfrwt beam="2">0</pdfrwt>
<totfact> 0.80790103E-04</totfact>
</mgrwt>
<clustering>
<clus scale="   37.399">  1  6  2 -1</clus>
<clus scale="  456.751">  4  5 -1 -1</clus>
<clus scale="  300.000">  1  4  2 -1</clus>
</clustering>
</event>
<event>
 6    1  0.9131597E-012  0.3000000E+03  0.7818608E-02  0.1093470E+00
          1   -1    0    0  502    0  0.00000000000E+00  0.00000000000E+00  0.22265896986E+03  0.22265896986E+03  0.00000000000E+00 0.  1.
         13   -1    0    0    0    0 -0.00000000000E+00 -0.00000000000E+00 -0.27500000000E+03  0.27500000000E+03  0.00000000000E+00 0.  1.
    9000005    2    1    2  501    0  0.11956686835E+02 -0.27775068831E+02 -0.57323689940E+02  0.46701188668E+03  0.46249289731E+03 0.  0.
         13    1    3    3    0    0 -0.20367863252E+03  0.30173823451E+02 -0.11575242186E+03  0.23620768009E+03  0.00000000000E+00 0.  1.
          1    1    3    3  501    0  0.21563531935E+03 -0.57948892282E+02  0.58428731919E+02  0.23080420660E+03  0.00000000000E+00 0.  1.
         21    1    1    2  502  501 -0.11956686835E+02  0.27775068831E+02  0.49826597995E+01  0.30647083178E+02  0.00000000000E+00 0.  1.
<scales pt_clust_4="550.00000" pt_clust_5="550.00000" pt_clust_6="30.23933"></scales>
<mgrwt>
<rscale>  0 0.30000000E+03</rscale>
<asrwt>  1 0.30239326E+02</asrwt>
<pdfrwt beam="1">  1        1 0.80966898E+00 0.30000000E+03</pdfrwt>
<pdfrwt beam="2">0</pdfrwt>
<totfact> 0.90200483E-04</totfact>
</mgrwt>
<clustering>
<clus scale="   30.239">  1  6  2 -1</clus>
<clus scale="  462.493">  4  5 -1 -1</clus>
<clus scale="  300.000">  1  4  2 -1</clus>
</clustering>
</event>
<event>
 6    1  0.9131597E-012  0.3000000E+03  0.7818608E-02  0.1093470E+00
          1   -1    0    0  502    0  0.00000000000E+00  0.00000000000E+00  0.23823773817E+03  0.23823773817E+03  0.00000000000E+00 0.  1.
         13   -1    0    0    0    0 -0.00000000000E+00 -0.00000000000E+00 -0.27500000000E+03  0.27500000000E+03  0.00000000000E+00 0.  1.
    9000005    2    1    2  501    0 -0.26457037620E+02 -0.29154243845E+02 -0.63886767339E+02  0.46542891500E+03  0.45933932022E+03 0.  0.
         13    1    3    3    0    0 -0.40421308633E+02 -0.24310040688E+03 -0.27604454246E+02  0.24797922476E+03  0.00000000000E+00 0.  1.
          1    1    3    3  501    0  0.13964271013E+02  0.21394616304E+03 -0.36282313093E+02  0.21744969024E+03  0.00000000000E+00 0.  1.
         21    1    1    2  502  501  0.26457037620E+02  0.29154243845E+02  0.27124505512E+02  0.47808823172E+02  0.00000000000E+00 0.  1.
<scales pt_clust_4="550.00000" pt_clust_5="550.00000" pt_clust_6="39.36934"></scales>
<mgrwt>
<rscale>  0 0.30000000E+03</rscale>
<asrwt>  1 0.39369338E+02</asrwt>
<pdfrwt beam="1">  1        1 0.86631905E+00 0.30000000E+03</pdfrwt>
<pdfrwt beam="2">0</pdfrwt>
<totfact> 0.27060916E-04</totfact>
</mgrwt>
<clustering>
<clus scale="   39.369">  1  6  2 -1</clus>
<clus scale="  459.339">  4  5 -1 -1</clus>
<clus scale="  300.000">  1  4  2 -1</clus>
</clustering>
</event>
<event>
 6    1  0.9131597E-012  0.3000000E+03  0.7818608E-02  0.1093470E+00
          1   -1    0    0  502    0  0.00000000000E+00  0.00000000000E+00  0.26001791951E+03  0.26001791951E+03  0.00000000000E+00 0.  1.
         13   -1    0    0    0    0 -0.00000000000E+00 -0.00000000000E+00 -0.27500000000E+03  0.27500000000E+03  0.00000000000E+00 0.  1.
    9000005    2    1    2  501    0  0.38785466510E+02  0.10859848224E+01 -0.48797551074E+02  0.48354969799E+03  0.47951393896E+03 0.  0.
         13    1    3    3    0    0 -0.13674362544E+03  0.14082422266E+03 -0.14027061843E+03  0.24125946029E+03  0.00000000000E+00 0.  1.
          1    1    3    3  501    0  0.17552909195E+03 -0.13973823783E+03  0.91473067357E+02  0.24229023770E+03  0.00000000000E+00 0.  1.
         21    1    1    2  502  501 -0.38785466510E+02 -0.10859848224E+01  0.33815470583E+02  0.51468221518E+02  0.00000000000E+00 0. -1.
<scales pt_clust_4="550.00000" pt_clust_5="550.00000" pt_clust_6="38.80067"></scales>
<mgrwt>
<rscale>  0 0.30000000E+03</rscale>
<asrwt>  1 0.38800667E+02</asrwt>
<pdfrwt beam="1">  1        1 0.94551971E+00 0.30000000E+03</pdfrwt>
<pdfrwt beam="2">0</pdfrwt>
<totfact> 0.14903555E-05</totfact>
</mgrwt>
<clustering>
<clus scale="   38.801">  1  6  2 -1</clus>
<clus scale="  479.514">  4  5 -1 -1</clus>
<clus scale="  300.000">  1  4  2 -1</clus>
</clustering>
</event>
<event>
 6    1  0.9131597E-012  0.3000000E+03  0.7818608E-02  0.1093470E+00
          1   -1    0    0  502    0  0.00000000000E+00  0.00000000000E+00  0.24464643472E+03  0.24464643472E+03  0.00000000000E+00 0.  1.
         13   -1    0    0    0    0 -0.00000000000E+00 -0.00000000000E+00 -0.27500000000E+03  0.27500000000E+03  0.00000000000E+00 0.  1.
    9000005    2    1    2  501    0 -0.32376571501E+02 -0.26697677009E+02 -0.62019932334E+02  0.46707489164E+03  0.46103305093E+03 0.  0.
         13    1    3    3    0    0 -0.18519254885E+03 -0.12524383725E+03 -0.14575746239E+03  0.26688487548E+03  0.00000000000E+00 0.  1.
          1    1    3    3  501    0  0.15281597735E+03  0.98546160237E+02  0.83737530053E+02  0.20019001616E+03  0.00000000000E+00 0.  1.
         21    1    1    2  502  501  0.32376571501E+02  0.26697677009E+02  0.31666367054E+02  0.52571543084E+02  0.00000000000E+00 0. -1.
<scales pt_clust_4="550.00000" pt_clust_5="550.00000" pt_clust_6="41.96437"></scales>
<mgrwt>
<rscale>  0 0.30000000E+03</rscale>
<asrwt>  1 0.41964370E+02</asrwt>
<pdfrwt beam="1">  1        1 0.88962340E+00 0.30000000E+03</pdfrwt>
<pdfrwt beam="2">0</pdfrwt>
<totfact> 0.14183128E-04</totfact>
</mgrwt>
<clustering>
<clus scale="   41.964">  1  6  2 -1</clus>
<clus scale="  461.033">  4  5 -1 -1</clus>
<clus scale="  300.000">  1  4  2 -1</clus>
</clustering>
</event>
<event>
 6    1  0.9131597E-012  0.3000000E+03  0.7818608E-02  0.1093470E+00
          1   -1    0    0  502    0  0.00000000000E+00  0.00000000000E+00  0.22062267479E+03  0.22062267479E+03  0.00000000000E+00 0.  1.
         13   -1    0    0    0    0 -0.00000000000E+00 -0.00000000000E+00 -0.27500000000E+03  0.27500000000E+03  0.00000000000E+00 0.  1.
    9000005    2    1    2  501    0  0.12747007885E+02  0.27519419387E+02 -0.62471194277E+02  0.46423294128E+03  0.45900955219E+03 0.  0.
         13    1    3    3    0    0 -0.22116848576E+03 -0.17082909337E+02 -0.26597139462E+02  0.22341605295E+03  0.00000000000E+00 0.  1.
          1    1    3    3  501    0  0.23391549365E+03  0.44602328724E+02 -0.35874054815E+02  0.24081688833E+03  0.00000000000E+00 0.  1.
         21    1    1    2  502  501 -0.12747007885E+02 -0.27519419387E+02  0.80938690671E+01  0.31389733511E+02  0.00000000000E+00 0. -1.
<scales pt_clust_4="550.00000" pt_clust_5="550.00000" pt_clust_6="30.32828"></scales>
<mgrwt>
<rscale>  0 0.30000000E+03</rscale>
<asrwt>  1 0.30328281E+02</asrwt>
<pdfrwt beam="1">  1        1 0.80226427E+00 0.30000000E+03</pdfrwt>
<pdfrwt beam="2">0</pdfrwt>
<totfact> 0.10260177E-03</totfact>
</mgrwt>
<clustering>
<clus scale="   30.328">  1  6  2 -1</clus>
<clus scale="  459.010">  4  5 -1 -1</clus>
<clus scale="  300.000">  1  4  2 -1</clus>
</clustering>
</event>
<event>
 6    1  0.9131597E-012  0.3000000E+03  0.7818608E-02  0.1093470E+00
          1   -1    0    0  502    0  0.00000000000E+00  0.00000000000E+00  0.23568571194E+03  0.23568571194E+03  0.00000000000E+00 0.  1.
         13   -1    0    0    0    0 -0.00000000000E+00 -0.00000000000E+00 -0.27500000000E+03  0.27500000000E+03  0.00000000000E+00 0.  1.
    9000005    2    1    2  501    0  0.39885710283E+02 -0.80856937986E+01 -0.58629577566E+02  0.46563764053E+03  0.46013556327E+03 0.  0.
         13    1    3    3    0    0  0.12147647254E+03  0.20164238649E+03 -0.11318388063E+02  0.23567836413E+03  0.00000000000E+00 0.  1.
          1    1    3    3  501    0 -0.81590762261E+02 -0.20972808029E+03 -0.47311189503E+02  0.22995927640E+03  0.00000000000E+00 0.  1.
         21    1    1    2  502  501 -0.39885710283E+02  0.80856937986E+01  0.19315289510E+02  0.45048071411E+02  0.00000000000E+00 0.  1.
<scales pt_clust_4="550.00000" pt_clust_5="550.00000" pt_clust_6="40.69703"></scales>
<mgrwt>
<rscale>  0 0.30000000E+03</rscale>
<asrwt>  1 0.40697031E+02</asrwt>
<pdfrwt beam="1">  1        1 0.85703895E+00 0.30000000E+03</pdfrwt>
<pdfrwt beam="2">0</pdfrwt>
<totfact> 0.33792144E-04</totfact>
</mgrwt>
<clustering>
<clus scale="   40.697">  1  6  2 -1</clus>
<clus scale="  460.136">  4  5 -1 -1</clus>
<clus scale="  300.000">  1  4  2 -1</clus>
</clustering>
</event>
<event>
 6    1  0.9131597E-012  0.3000000E+03  0.7818608E-02  0.1093470E+00
          1   -1    0    0  502    0  0.00000000000E+00  0.00000000000E+00  0.23198944248E+03  0.23198944248E+03  0.00000000000E+00 0.  1.
         13   -1    0    0    0    0 -0.00000000000E+00 -0.00000000000E+00 -0.27500000000E+03  0.27500000000E+03  0.00000000000E+00 0.  1.
    9000005    2    1    2  501    0  0.10336926995E+02 -0.40833992436E+02 -0.51769887315E+02  0.46396627597E+03  0.45914084659E+03 0.  0.
         13    1    3    3    0    0 -0.12649056064E+02  0.13979647713E+03 -0.18938047076E+03  0.23572869224E+03  0.00000000000E+00 0.  1.
          3    1    3    3  501    0  0.22985983059E+02 -0.18063046957E+03  0.13761058345E+03  0.22823758374E+03  0.00000000000E+00 0.  1.
         21    1    1    2  502  501 -0.10336926995E+02  0.40833992436E+02  0.87593297982E+01  0.43023166510E+02  0.00000000000E+00 0.  1.
<scales pt_clust_4="550.00000" pt_clust_5="550.00000" pt_clust_6="42.12205"></scales>
<mgrwt>
<rscale>  0 0.30000000E+03</rscale>
<asrwt>  1 0.42122049E+02</asrwt>
<pdfrwt beam="1">  1        1 0.84359797E+00 0.30000000E+03</pdfrwt>
<pdfrwt beam="2">0</pdfrwt>
<totfact> 0.44903545E-04</totfact>
</mgrwt>
<clustering>
<clus scale="   42.122">  1  6  2 -1</clus>
<clus scale="  459.141">  4  5 -1 -1</clus>
<clus scale="  300.000">  1  4  2 -1</clus>
</clustering>
</event>
<event>
 6    1  0.9131597E-012  0.3000000E+03  0.7818608E-02  0.1093470E+00
          1   -1    0    0  502    0  0.00000000000E+00  0.00000000000E+00  0.23124085548E+03  0.23124085548E+03  0.00000000000E+00 0.  1.
         13   -1    0    0    0    0 -0.00000000000E+00 -0.00000000000E+00 -0.27500000000E+03  0.27500000000E+03  0.00000000000E+00 0.  1.
    9000005    2    1    2  501    0  0.27944902268E+02  0.21251502528E+02 -0.37919165991E+02  0.47065083902E+03  0.46780530693E+03 0.  0.
         13    1    3    3    0    0 -0.20397515591E+03 -0.44245995677E+02  0.49123775252E+02  0.21442182178E+03  0.00000000000E+00 0.  1.
          1    1    3    3  501    0  0.23192005817E+03  0.65497498205E+02 -0.87042941243E+02  0.25622901724E+03  0.00000000000E+00 0.  1.
         21    1    1    2  502  501 -0.27944902268E+02 -0.21251502528E+02 -0.58399785320E+01  0.35590016462E+02  0.00000000000E+00 0. -1.
<scales pt_clust_4="550.00000" pt_clust_5="550.00000" pt_clust_6="35.10762"></scales>
<mgrwt>
<rscale>  0 0.30000000E+03</rscale>
<asrwt>  1 0.35107622E+02</asrwt>
<pdfrwt beam="1">  1        1 0.84087584E+00 0.30000000E+03</pdfrwt>
<pdfrwt beam="2">0</pdfrwt>
<totfact> 0.48902058E-04</totfact>
</mgrwt>
<clustering>
<clus scale="   35.108">  1  6  2 -1</clus>
<clus scale="  467.805">  4  5 -1 -1</clus>
<clus scale="  300.000">  1  4  2 -1</clus>
</clustering>
</event>
<event>
 6    1  0.9131597E-012  0.3000000E+03  0.7818608E-02  0.1093470E+00
          1   -1    0    0  502    0  0.00000000000E+00  0.00000000000E+00  0.22722663532E+03  0.22722663532E+03  0.00000000000E+00 0.  1.
         13   -1    0    0    0    0 -0.00000000000E+00 -0.00000000000E+00 -0.27500000000E+03  0.27500000000E+03  0.00000000000E+00 0.  1.
    9000005    2    1    2  501    0 -0.16232133569E+02 -0.25859736326E+02 -0.34464096912E+02  0.46891980822E+03  0.46665383791E+03 0.  0.
         13    1    3    3    0    0  0.12752931127E+03  0.17435695185E+03  0.18502552320E+02  0.21680963155E+03  0.00000000000E+00 0.  1.
          1    1    3    3  501    0 -0.14376144484E+03 -0.20021668818E+03 -0.52966649232E+02  0.25211017666E+03  0.00000000000E+00 0.  1.
         21    1    1    2  502  501  0.16232133569E+02  0.25859736326E+02 -0.13309267770E+02  0.33306827102E+02  0.00000000000E+00 0. -1.
<scales pt_clust_4="550.00000" pt_clust_5="550.00000" pt_clust_6="30.53210"></scales>
<mgrwt>
<rscale>  0 0.30000000E+03</rscale>
<asrwt>  1 0.30532099E+02</asrwt>
<pdfrwt beam="1">  1        1 0.82627867E+00 0.30000000E+03</pdfrwt>
<pdfrwt beam="2">0</pdfrwt>
<totfact> 0.65296141E-04</totfact>
</mgrwt>
<clustering>
<clus scale="   30.532">  1  6  2 -1</clus>
<clus scale="  466.654">  4  5 -1 -1</clus>
<clus scale="  300.000">  1  4  2 -1</clus>
</clustering>
</event>
<event>
 6    1  0.9131597E-012  0.3000000E+03  0.7818608E-02  0.1093470E+00
          1   -1    0    0  502    0  0.00000000000E+00  0.00000000000E+00  0.24154129900E+03  0.24154129900E+03  0.00000000000E+00 0.  1.
         13   -1    0    0    0    0 -0.00000000000E+00 -0.00000000000E+00 -0.27500000000E+03  0.27500000000E+03  0.00000000000E+00 0.  1.
    9000005    2    1    2  501    0 -0.30343356338E+01  0.37308523579E+02 -0.25667703757E+02  0.47830737738E+03  0.47614911857E+03 0.  0.
         13    1    3    3    0    0 -0.18581716166E+03  0.15611126819E+03 -0.76496195557E+02  0.25446102562E+03  0.00000000000E+00 0.  1.
          1    1    3    3  501    0  0.18278282603E+03 -0.11880274461E+03  0.50828491800E+02  0.22384635176E+03  0.00000000000E+00 0.  1.
         21    1    1    2  502  501  0.30343356338E+01 -0.37308523579E+02 -0.77909972421E+01  0.38233921620E+02  0.00000000000E+00 0. -1.
<scales pt_clust_4="550.00000" pt_clust_5="550.00000" pt_clust_6="37.43173"></scales>
<mgrwt>
<rscale>  0 0.30000000E+03</rscale>
<asrwt>  1 0.37431732E+02</asrwt>
<pdfrwt beam="1">  1        1 0.87833200E+00 0.30000000E+03</pdfrwt>
<pdfrwt beam="2">0</pdfrwt>
<totfact> 0.20410400E-04</totfact>
</mgrwt>
<clustering>
<clus scale="   37.432">  1  6  2 -1</clus>
<clus scale="  476.149">  4  5 -1 -1</clus>
<clus scale="  300.000">  1  4  2 -1</clus>
</clustering>
</event>
<event>
 6    1  0.9131597E-012  0.3000000E+03  0.7818608E-02  0.1093470E+00
          1   -1    0    0  502    0  0.00000000000E+00  0.00000000000E+00  0.24237649965E+03  0.24237649965E+03  0.00000000000E+00 0.  1.
         13   -1    0    0    0    0 -0.00000000000E+00 -0.00000000000E+00 -0.27500000000E+03  0.27500000000E+03  0.00000000000E+00 0.  1.
    9000005    2    1    2  501    0  0.14426865363E+02 -0.35293733407E+02 -0.22765164409E+02  0.47799415779E+03  0.47592686425E+03 0.  0.
         13    1    3    3    0    0  0.11772791505E+03 -0.13030880325E+03 -0.19062572758E+03  0.25918799008E+03  0.00000000000E+00 0.  1.
          3    1    3    3  501    0 -0.10330104969E+03  0.95015069839E+02  0.16786056317E+03  0.21880616772E+03  0.00000000000E+00 0.  1.
         21    1    1    2  502  501 -0.14426865363E+02  0.35293733407E+02 -0.98583359454E+01  0.39382341851E+02  0.00000000000E+00 0.  1.
<scales pt_clust_4="550.00000" pt_clust_5="550.00000" pt_clust_6="38.12851"></scales>
<mgrwt>
<rscale>  0 0.30000000E+03</rscale>
<asrwt>  1 0.38128513E+02</asrwt>
<pdfrwt beam="1">  1        1 0.88136909E+00 0.30000000E+03</pdfrwt>
<pdfrwt beam="2">0</pdfrwt>
<totfact> 0.18671283E-04</totfact>
</mgrwt>
<clustering>
<clus scale="   38.129">  1  6  2 -1</clus>
<clus scale="  475.927">  4  5 -1 -1</clus>
<clus scale="  300.000">  1  4  2 -1</clus>
</clustering>
</event>
<event>
 6    1  0.9131597E-012  0.3000000E+03  0.7818608E-02  0.1093470E+00
          1   -1    0    0  502    0  0.00000000000E+00  0.00000000000E+00  0.23905311454E+03  0.23905311454E+03  0.00000000000E+00 0.  1.
         13   -1    0    0    0    0 -0.00000000000E+00 -0.00000000000E+00 -0.27500000000E+03  0.27500000000E+03  0.00000000000E+00 0.  1.
    9000005    2    1    2  501    0  0.10597980848E+02  0.29838600158E+02 -0.51087039747E+02  0.47895491616E+03  0.47516867198E+03 0.  0.
         13    1    3    3    0    0  0.13326989599E+03 -0.18548533216E+03 -0.23076599628E+02  0.22956089187E+03  0.00000000000E+00 0.  1.
          3    1    3    3  501    0 -0.12267191515E+03  0.21532393232E+03 -0.28010440120E+02  0.24939402429E+03  0.00000000000E+00 0.  1.
         21    1    1    2  502  501 -0.10597980848E+02 -0.29838600158E+02  0.15140154288E+02  0.35098198377E+02  0.00000000000E+00 0.  1.
<scales pt_clust_4="550.00000" pt_clust_5="550.00000" pt_clust_6="31.66480"></scales>
<mgrwt>
<rscale>  0 0.30000000E+03</rscale>
<asrwt>  1 0.31664795E+02</asrwt>
<pdfrwt beam="1">  1        1 0.86928405E+00 0.30000000E+03</pdfrwt>
<pdfrwt beam="2">0</pdfrwt>
<totfact> 0.26248068E-04</totfact>
</mgrwt>
<clustering>
<clus scale="   31.665">  1  6  2 -1</clus>
<clus scale="  475.169">  4  5 -1 -1</clus>
<clus scale="  300.000">  1  4  2 -1</clus>
</clustering>
</event>
<event>
 6    1  0.9131597E-012  0.3000000E+03  0.7818608E-02  0.1093470E+00
          1   -1    0    0  502    0  0.00000000000E+00  0.00000000000E+00  0.24599528235E+03  0.24599528235E+03  0.00000000000E+00 0.  1.
         13   -1    0    0    0    0 -0.00000000000E+00 -0.00000000000E+00 -0.27500000000E+03  0.27500000000E+03  0.00000000000E+00 0.  1.
    9000005    2    1    2  501    0 -0.10884065023E+02  0.36815512877E+02 -0.48253326795E+02  0.47804934175E+03  0.47405584559E+03 0.  0.
         13    1    3    3    0    0 -0.22041028544E+03 -0.81474939616E+02 -0.22336358810E+02  0.23604612396E+03  0.00000000000E+00 0.  1.
          3    1    3    3  501    0  0.20952622041E+03  0.11829045249E+03 -0.25916967985E+02  0.24200321779E+03  0.00000000000E+00 0.  1.
         21    1    1    2  502  501  0.10884065023E+02 -0.36815512877E+02  0.19248609141E+02  0.42945940596E+02  0.00000000000E+00 0.  1.
<scales pt_clust_4="550.00000" pt_clust_5="550.00000" pt_clust_6="38.39069"></scales>
<mgrwt>
<rscale>  0 0.30000000E+03</rscale>
<asrwt>  1 0.38390687E+02</asrwt>
<pdfrwt beam="1">  1        1 0.89452830E+00 0.30000000E+03</pdfrwt>
<pdfrwt beam="2">0</pdfrwt>
<totfact> 0.12547330E-04</totfact>
</mgrwt>
<clustering>
<clus scale="   38.391">  1  6  2 -1</clus>
<clus scale="  474.056">  4  5 -1 -1</clus>
<clus scale="  300.000">  1  4  2 -1</clus>
</clustering>
</event>
<event>
 6    1  0.9131597E-012  0.3000000E+03  0.7818608E-02  0.1093470E+00
          1   -1    0    0  502    0  0.00000000000E+00  0.00000000000E+00  0.23416443214E+03  0.23416443214E+03  0.00000000000E+00 0.  1.
         13   -1    0    0    0    0 -0.00000000000E+00 -0.00000000000E+00 -0.27500000000E+03  0.27500000000E+03  0.00000000000E+00 0.  1.
    9000005    2    1    2  501    0 -0.10136077623E+02  0.28725487832E+02 -0.57006591617E+02  0.47467681508E+03  0.47025571083E+03 0.  0.
         13    1    3    3    0    0  0.18623021430E+02 -0.55663457946E+02  0.19695782203E+03  0.20551793385E+03  0.00000000000E+00 0.  1.
          3    1    3    3  501    0 -0.28759099053E+02  0.84388945778E+02 -0.25396441364E+03  0.26915888123E+03  0.00000000000E+00 0.  1.
         21    1    1    2  502  501  0.10136077623E+02 -0.28725487832E+02  0.16171023754E+02  0.34487617054E+02  0.00000000000E+00 0. -1.
<scales pt_clust_4="550.00000" pt_clust_5="550.00000" pt_clust_6="30.46135"></scales>
<mgrwt>
<rscale>  0 0.30000000E+03</rscale>
<asrwt>  1 0.30461348E+02</asrwt>
<pdfrwt beam="1">  1        1 0.85150703E+00 0.30000000E+03</pdfrwt>
<pdfrwt beam="2">0</pdfrwt>
<totfact> 0.40434794E-04</totfact>
</mgrwt>
<clustering>
<clus scale="   30.461">  1  6  2 -1</clus>
<clus scale="  470.256">  4  5 -1 -1</clus>
<clus scale="  300.000">  1  4  2 -1</clus>
</clustering>
</event>
<event>
 6    1  0.9131597E-012  0.3000000E+03  0.7818608E-02  0.1093470E+00
          1   -1    0    0  502    0  0.00000000000E+00  0.00000000000E+00  0.22439368209E+03  0.22439368209E+03  0.00000000000E+00 0.  1.
         13   -1    0    0    0    0 -0.00000000000E+00 -0.00000000000E+00 -0.27500000000E+03  0.27500000000E+03  0.00000000000E+00 0.  1.
    9000005    2    1    2  501    0 -0.32598862229E+02 -0.38939153572E+01 -0.39590964386E+02  0.46476441112E+03  0.46190980178E+03 0.  0.
         13    1    3    3    0    0  0.11002452600E+03 -0.19040749667E+03 -0.63130654698E+02  0.22879224347E+03  0.00000000000E+00 0.  1.
          1    1    3    3  501    0 -0.14262338822E+03  0.18651358131E+03  0.23539690313E+02  0.23597216765E+03  0.00000000000E+00 0.  1.
         21    1    1    2  502  501  0.32598862229E+02  0.38939153572E+01 -0.11015353520E+02  0.34629270979E+02  0.00000000000E+00 0.  1.
<scales pt_clust_4="550.00000" pt_clust_5="550.00000" pt_clust_6="32.83062"></scales>
<mgrwt>
<rscale>  0 0.30000000E+03</rscale>
<asrwt>  1 0.32830618E+02</asrwt>
<pdfrwt beam="1">  1        1 0.81597703E+00 0.30000000E+03</pdfrwt>
<pdfrwt beam="2">0</pdfrwt>
<totfact> 0.79110345E-04</totfact>
</mgrwt>
<clustering>
<clus scale="   32.831">  1  6  2 -1</clus>
<clus scale="  461.910">  4  5 -1 -1</clus>
<clus scale="  300.000">  1  4  2 -1</clus>
</clustering>
</event>
<event>
 6    1  0.9131597E-012  0.3000000E+03  0.7818608E-02  0.1093470E+00
          1   -1    0    0  502    0  0.00000000000E+00  0.00000000000E+00  0.23626202185E+03  0.23626202185E+03  0.00000000000E+00 0.  1.
         13   -1    0    0    0    0 -0.00000000000E+00 -0.00000000000E+00 -0.27500000000E+03  0.27500000000E+03  0.00000000000E+00 0.  1.
    9000005    2    1    2  501    0 -0.17533839636E+02  0.25324617761E+02 -0.72596769075E+02  0.46548878163E+03  0.45876000605E+03 0.  0.
         13    1    3    3    0    0 -0.21041240128E+03  0.10014707188E+03 -0.10586225645E+03  0.25594849474E+03  0.00000000000E+00 0.  1.
          1    1    3    3  501    0  0.19287856164E+03 -0.74822454118E+02  0.33265487375E+02  0.20954028689E+03  0.00000000000E+00 0.  1.
         21    1    1    2  502  501  0.17533839636E+02 -0.25324617761E+02  0.33858790921E+02  0.45773240215E+02  0.00000000000E+00 0.  1.
<scales pt_clust_4="550.00000" pt_clust_5="550.00000" pt_clust_6="30.80214"></scales>
<mgrwt>
<rscale>  0 0.30000000E+03</rscale>
<asrwt>  1 0.30802139E+02</asrwt>
<pdfrwt beam="1">  1        1 0.85913462E+00 0.30000000E+03</pdfrwt>
<pdfrwt beam="2">0</pdfrwt>
<totfact> 0.33847198E-04</totfact>
</mgrwt>
<clustering>
<clus scale="   30.802">  1  6  2 -1</clus>
<clus scale="  458.760">  4  5 -1 -1</clus>
<clus scale="  300.000">  1  4  2 -1</clus>
</clustering>
</event>
<event>
 6    1  0.9131597E-012  0.3000000E+03  0.7818608E-02  0.1093470E+00
          1   -1    0    0  502    0  0.00000000000E+00  0.00000000000E+00  0.22435544994E+03  0.22435544994E+03  0.00000000000E+00 0.  1.
         13   -1    0    0    0    0 -0.00000000000E+00 -0.00000000000E+00 -0.27500000000E+03  0.27500000000E+03  0.00000000000E+00 0.  1.
    9000005    2    1    2  501    0 -0.29561668941E+02  0.10686152096E+02 -0.57789496615E+02  0.46711981161E+03  0.46246427577E+03 0.  0.
         13    1    3    3    0    0  0.13452999354E+03  0.18029915081E+03 -0.52793507841E+02  0.23106981069E+03  0.00000000000E+00 0.  1.
          1    1    3    3  501    0 -0.16409166248E+03 -0.16961299871E+03 -0.49959887748E+01  0.23605000091E+03  0.00000000000E+00 0.  1.
         21    1    1    2  502  501  0.29561668941E+02 -0.10686152096E+02  0.71449465518E+01  0.32235638328E+02  0.00000000000E+00 0. -1.
<scales pt_clust_4="550.00000" pt_clust_5="550.00000" pt_clust_6="31.43384"></scales>
<mgrwt>
<rscale>  0 0.30000000E+03</rscale>
<asrwt>  1 0.31433837E+02</asrwt>
<pdfrwt beam="1">  1        1 0.81583800E+00 0.30000000E+03</pdfrwt>
<pdfrwt beam="2">0</pdfrwt>
<totfact> 0.79975062E-04</totfact>
</mgrwt>
<clustering>
<clus scale="   31.434">  1  6  2 -1</clus>
<clus scale="  462.464">  4  5 -1 -1</clus>
<clus scale="  300.000">  1  4  2 -1</clus>
</clustering>
</event>
<event>
 6    1  0.9131597E-012  0.3000000E+03  0.7818608E-02  0.1093470E+00
          1   -1    0    0  502    0  0.00000000000E+00  0.00000000000E+00  0.22506469471E+03  0.22506469471E+03  0.00000000000E+00 0.  1.
         13   -1    0    0    0    0 -0.00000000000E+00 -0.00000000000E+00 -0.27500000000E+03  0.27500000000E+03  0.00000000000E+00 0.  1.
    9000005    2    1    2  501    0  0.13061098752E+02 -0.27021517529E+02 -0.60483398366E+02  0.46825248043E+03  0.46335881263E+03 0.  0.
         13    1    3    3    0    0  0.14857871626E+03  0.12568736271E+03  0.90202527054E+02  0.21449812110E+03  0.00000000000E+00 0.  1.
          1    1    3    3  501    0 -0.13551761751E+03 -0.15270888024E+03 -0.15068592542E+03  0.25375435933E+03  0.00000000000E+00 0.  1.
         21    1    1    2  502  501 -0.13061098752E+02  0.27021517529E+02  0.10548093080E+02  0.31812214286E+02  0.00000000000E+00 0.  1.
<scales pt_clust_4="550.00000" pt_clust_5="550.00000" pt_clust_6="30.01258"></scales>
<mgrwt>
<rscale>  0 0.30000000E+03</rscale>
<asrwt>  1 0.30012576E+02</asrwt>
<pdfrwt beam="1">  1        1 0.81841707E+00 0.30000000E+03</pdfrwt>
<pdfrwt beam="2">0</pdfrwt>
<totfact> 0.76827028E-04</totfact>
</mgrwt>
<clustering>
<clus scale="   30.013">  1  6  2 -1</clus>
<clus scale="  463.359">  4  5 -1 -1</clus>
<clus scale="  300.000">  1  4  2 -1</clus>
</clustering>
</event>
<event>
 6    1  0.9131597E-012  0.3000000E+03  0.7818608E-02  0.1093470E+00
          1   -1    0    0  502    0  0.00000000000E+00  0.00000000000E+00  0.23049080905E+03  0.23049080905E+03  0.00000000000E+00 0.  1.
         13   -1    0    0    0    0 -0.00000000000E+00 -0.00000000000E+00 -0.27500000000E+03  0.27500000000E+03  0.00000000000E+00 0.  1.
    9000005    2    1    2  501    0  0.95162555268E+01 -0.30581349955E+02 -0.48551828323E+02  0.47320891008E+03  0.46962071341E+03 0.  0.
         13    1    3    3    0    0 -0.24564433542E+02  0.19325581942E+03 -0.12817997710E+03  0.23319804816E+03  0.00000000000E+00 0.  1.
          3    1    3    3  501    0  0.34080689069E+02 -0.22383716938E+03  0.79628148780E+02  0.24001086192E+03  0.00000000000E+00 0.  1.
         21    1    1    2  502  501 -0.95162555268E+01  0.30581349955E+02  0.40426373741E+01  0.32281898972E+02  0.00000000000E+00 0.  1.
<scales pt_clust_4="550.00000" pt_clust_5="550.00000" pt_clust_6="32.02777"></scales>
<mgrwt>
<rscale>  0 0.30000000E+03</rscale>
<asrwt>  1 0.32027771E+02</asrwt>
<pdfrwt beam="1">  1        1 0.83814840E+00 0.30000000E+03</pdfrwt>
<pdfrwt beam="2">0</pdfrwt>
<totfact> 0.52184129E-04</totfact>
</mgrwt>
<clustering>
<clus scale="   32.028">  1  6  2 -1</clus>
<clus scale="  469.621">  4  5 -1 -1</clus>
<clus scale="  300.000">  1  4  2 -1</clus>
</clustering>
</event>
<event>
 6    1  0.9131597E-012  0.3000000E+03  0.7818608E-02  0.1093470E+00
          1   -1    0    0  502    0  0.00000000000E+00  0.00000000000E+00  0.24752009231E+03  0.24752009231E+03  0.00000000000E+00 0.  1.
         13   -1    0    0    0    0 -0.00000000000E+00 -0.00000000000E+00 -0.27500000000E+03  0.27500000000E+03  0.00000000000E+00 0.  1.
    9000005    2    1    2  501    0 -0.20016324677E+02  0.24703387408E+02 -0.36811686006E+02  0.48938411957E+03  0.48696078452E+03 0.  0.
         13    1    3    3    0    0  0.81695024333E+02  0.13904464529E+03  0.16855004092E+03  0.23327367336E+03  0.00000000000E+00 0.  1.
          3    1    3    3  501    0 -0.10171134901E+03 -0.11434125789E+03 -0.20536172693E+03  0.25611044621E+03  0.00000000000E+00 0.  1.
         21    1    1    2  502  501  0.20016324677E+02 -0.24703387408E+02  0.93317783183E+01  0.33135972743E+02  0.00000000000E+00 0.  1.
<scales pt_clust_4="550.00000" pt_clust_5="550.00000" pt_clust_6="31.79482"></scales>
<mgrwt>
<rscale>  0 0.30000000E+03</rscale>
<asrwt>  1 0.31794820E+02</asrwt>
<pdfrwt beam="1">  1        1 0.90007306E+00 0.30000000E+03</pdfrwt>
<pdfrwt beam="2">0</pdfrwt>
<totfact> 0.11222431E-04</totfact>
</mgrwt>
<clustering>
<clus scale="   31.795">  1  6  2 -1</clus>
<clus scale="  486.961">  4  5 -1 -1</clus>
<clus scale="  300.000">  1  4  2 -1</clus>
</clustering>
</event>
<event>
 6    1  0.9131597E-012  0.3000000E+03  0.7818608E-02  0.1093470E+00
          1   -1    0    0  502    0  0.00000000000E+00  0.00000000000E+00  0.22101782344E+03  0.22101782344E+03  0.00000000000E+00 0.  1.
         13   -1    0    0    0    0 -0.00000000000E+00 -0.00000000000E+00 -0.27500000000E+03  0.27500000000E+03  0.00000000000E+00 0.  1.
    9000005    2    1    2  501    0 -0.26407517749E+02 -0.15216870946E+02 -0.53562300376E+02  0.46553690398E+03  0.46143989726E+03 0.  0.
         13    1    3    3    0    0  0.62263804353E+00 -0.15901107173E+03  0.14748914345E+03  0.21688235532E+03  0.00000000000E+00 0.  1.
          3    1    3    3  501    0 -0.27030155793E+02  0.14379420079E+03 -0.20105144383E+03  0.24865454866E+03  0.00000000000E+00 0.  1.
         21    1    1    2  502  501  0.26407517749E+02  0.15216870946E+02 -0.41987618868E+00  0.30480919459E+02  0.00000000000E+00 0.  1.
<scales pt_clust_4="550.00000" pt_clust_5="550.00000" pt_clust_6="30.47803"></scales>
<mgrwt>
<rscale>  0 0.30000000E+03</rscale>
<asrwt>  1 0.30478027E+02</asrwt>
<pdfrwt beam="1">  1        1 0.80370118E+00 0.30000000E+03</pdfrwt>
<pdfrwt beam="2">0</pdfrwt>
<totfact> 0.10004081E-03</totfact>
</mgrwt>
<clustering>
<clus scale="   30.478">  1  6  2 -1</clus>
<clus scale="  461.440">  4  5 -1 -1</clus>
<clus scale="  300.000">  1  4  2 -1</clus>
</clustering>
</event>
<event>
 6    1  0.9131597E-012  0.3000000E+03  0.7818608E-02  0.1093470E+00
          1   -1    0    0  502    0  0.00000000000E+00  0.00000000000E+00  0.21980474556E+03  0.21980474556E+03  0.00000000000E+00 0.  1.
         13   -1    0    0    0    0 -0.00000000000E+00 -0.00000000000E+00 -0.27500000000E+03  0.27500000000E+03  0.00000000000E+00 0.  1.
    9000005    2    1    2  501    0  0.18127268345E+02  0.26005280834E+02 -0.61003808548E+02  0.46257724504E+03  0.45744001845E+03 0.  0.
         13    1    3    3    0    0 -0.47598968478E+02  0.23417834153E+03 -0.49042242843E+02  0.24394732838E+03  0.00000000000E+00 0.  1.
          3    1    3    3  501    0  0.65726236823E+02 -0.20817306069E+03 -0.11961565705E+02  0.21862991666E+03  0.00000000000E+00 0.  1.
         21    1    1    2  502  501 -0.18127268345E+02 -0.26005280834E+02  0.58085541063E+01  0.32227500519E+02  0.00000000000E+00 0.  1.
<scales pt_clust_4="550.00000" pt_clust_5="550.00000" pt_clust_6="31.69972"></scales>
<mgrwt>
<rscale>  0 0.30000000E+03</rscale>
<asrwt>  1 0.31699724E+02</asrwt>
<pdfrwt beam="1">  1        1 0.79928998E+00 0.30000000E+03</pdfrwt>
<pdfrwt beam="2">0</pdfrwt>
<totfact> 0.10691614E-03</totfact>
</mgrwt>
<clustering>
<clus scale="   31.700">  1  6  2 -1</clus>
<clus scale="  457.440">  4  5 -1 -1</clus>
<clus scale="  300.000">  1  4  2 -1</clus>
</clustering>
</event>
<event>
 6    1  0.9131597E-012  0.3000000E+03  0.7818608E-02  0.1093470E+00
          1   -1    0    0  502    0  0.00000000000E+00  0.00000000000E+00  0.26320487830E+03  0.26320487830E+03  0.00000000000E+00 0.  1.
         13   -1    0    0    0    0 -0.00000000000E+00 -0.00000000000E+00 -0.27500000000E+03  0.27500000000E+03  0.00000000000E+00 0.  1.
    9000005    2    1    2  501    0  0.60263387077E+02 -0.21555178696E+02  0.12072700258E+02  0.46989693970E+03  0.46536123850E+03 0.  0.
         13    1    3    3    0    0  0.25882304332E+03  0.32159948061E+02  0.34060787977E+02  0.26302807320E+03  0.00000000000E+00 0.  1.
          3    1    3    3  501    0 -0.19855965624E+03 -0.53715126757E+02 -0.21988087718E+02  0.20686886651E+03  0.00000000000E+00 0.  1.
         21    1    1    2  502  501 -0.60263387077E+02  0.21555178696E+02 -0.23867821956E+02  0.68307938598E+02  0.00000000000E+00 0. -1.
<scales pt_clust_4="550.00000" pt_clust_5="550.00000" pt_clust_6="64.00239"></scales>
<mgrwt>
<rscale>  0 0.30000000E+03</rscale>
<asrwt>  1 0.64002388E+02</asrwt>
<pdfrwt beam="1">  1        1 0.95710865E+00 0.30000000E+03</pdfrwt>
<pdfrwt beam="2">0</pdfrwt>
<totfact> 0.78650731E-06</totfact>
</mgrwt>
<clustering>
<clus scale="   64.002">  1  6  2 -1</clus>
<clus scale="  465.361">  4  5 -1 -1</clus>
<clus scale="  300.000">  1  4  2 -1</clus>
</clustering>
</event>
<event>
 6    1  0.9131597E-012  0.3000000E+03  0.7818608E-02  0.1093470E+00
          1   -1    0    0  502    0  0.00000000000E+00  0.00000000000E+00  0.22570126367E+03  0.22570126367E+03  0.00000000000E+00 0.  1.
         13   -1    0    0    0    0 -0.00000000000E+00 -0.00000000000E+00 -0.27500000000E+03  0.27500000000E+03  0.00000000000E+00 0.  1.
    9000005    2    1    2  501    0  0.19374758228E+02 -0.25840734198E+02 -0.63318109255E+02  0.46549234978E+03  0.46003349872E+03 0.  0.
         13    1    3    3    0    0 -0.46302660163E+02  0.16012456268E+03  0.11264852936E+03  0.20118027507E+03  0.00000000000E+00 0.  1.
          1    1    3    3  501    0  0.65677418391E+02 -0.18596529688E+03 -0.17596663861E+03  0.26431207470E+03  0.00000000000E+00 0.  1.
         21    1    1    2  502  501 -0.19374758228E+02  0.25840734198E+02  0.14019372926E+02  0.35208913893E+02  0.00000000000E+00 0.  1.
<scales pt_clust_4="550.00000" pt_clust_5="550.00000" pt_clust_6="32.29744"></scales>
<mgrwt>
<rscale>  0 0.30000000E+03</rscale>
<asrwt>  1 0.32297443E+02</asrwt>
<pdfrwt beam="1">  1        1 0.82073187E+00 0.30000000E+03</pdfrwt>
<pdfrwt beam="2">0</pdfrwt>
<totfact> 0.72363511E-04</totfact>
</mgrwt>
<clustering>
<clus scale="   32.297">  1  6  2 -1</clus>
<clus scale="  460.033">  4  5 -1 -1</clus>
<clus scale="  300.000">  1  4  2 -1</clus>
</clustering>
</event>
<event>
 6    1  0.9131597E-012  0.3000000E+03  0.7818608E-02  0.1093470E+00
          1   -1    0    0  502    0  0.00000000000E+00  0.00000000000E+00  0.23631751310E+03  0.23631751310E+03  0.00000000000E+00 0.  1.
         13   -1    0    0    0    0 -0.00000000000E+00 -0.00000000000E+00 -0.27500000000E+03  0.27500000000E+03  0.00000000000E+00 0.  1.
    9000005    2    1    2  501    0  0.35007111132E+02 -0.50282029958E+01 -0.42250830251E+02  0.47577157481E+03  0.47257028904E+03 0.  0.
         13    1    3    3    0    0 -0.76943046801E+01  0.76507273013E+02 -0.24302839791E+03  0.25490266248E+03  0.00000000000E+00 0.  1.
          3    1    3    3  501    0  0.42701415812E+02 -0.81535476009E+02  0.20077756766E+03  0.22086891233E+03  0.00000000000E+00 0.  1.
         21    1    1    2  502  501 -0.35007111132E+02  0.50282029958E+01  0.35683433545E+01  0.35545938297E+02  0.00000000000E+00 0. -1.
<scales pt_clust_4="550.00000" pt_clust_5="550.00000" pt_clust_6="35.36638"></scales>
<mgrwt>
<rscale>  0 0.30000000E+03</rscale>
<asrwt>  1 0.35366377E+02</asrwt>
<pdfrwt beam="1">  1        1 0.85933641E+00 0.30000000E+03</pdfrwt>
<pdfrwt beam="2">0</pdfrwt>
<totfact> 0.32812423E-04</totfact>
</mgrwt>
<clustering>
<clus scale="   35.366">  1  6  2 -1</clus>
<clus scale="  472.570">  4  5 -1 -1</clus>
<clus scale="  300.000">  1  4  2 -1</clus>
</clustering>
</event>
<event>
 6    1  0.9131597E-012  0.3000000E+03  0.7818608E-02  0.1093470E+00
          1   -1    0    0  502    0  0.00000000000E+00  0.00000000000E+00  0.24620003640E+03  0.24620003640E+03  0.00000000000E+00 0.  1.
         13   -1    0    0    0    0 -0.00000000000E+00 -0.00000000000E+00 -0.27500000000E+03  0.27500000000E+03  0.00000000000E+00 0.  1.
    9000005    2    1    2  501    0 -0.85953545757E+01  0.29572843690E+02 -0.57625866052E+02  0.47901750617E+03  0.47454040669E+03 0.  0.
         13    1    3    3    0    0 -0.16995990714E+03 -0.32433304671E+02 -0.19318061797E+03  0.25933962375E+03  0.00000000000E+00 0.  1.
          3    1    3    3  501    0  0.16136455256E+03  0.62006148361E+02  0.13555475192E+03  0.21967788242E+03  0.00000000000E+00 0.  1.
         21    1    1    2  502  501  0.85953545757E+01 -0.29572843690E+02  0.28825902450E+02  0.42182530226E+02  0.00000000000E+00 0. -1.
<scales pt_clust_4="550.00000" pt_clust_5="550.00000" pt_clust_6="30.79664"></scales>
<mgrwt>
<rscale>  0 0.30000000E+03</rscale>
<asrwt>  1 0.30796643E+02</asrwt>
<pdfrwt beam="1">  1        1 0.89527286E+00 0.30000000E+03</pdfrwt>
<pdfrwt beam="2">0</pdfrwt>
<totfact> 0.12827752E-04</totfact>
</mgrwt>
<clustering>
<clus scale="   30.797">  1  6  2 -1</clus>
<clus scale="  474.540">  4  5 -1 -1</clus>
<clus scale="  300.000">  1  4  2 -1</clus>
</clustering>
</event>
<event>
 6    1  0.9131597E-012  0.3000000E+03  0.7818608E-02  0.1093470E+00
          1   -1    0    0  502    0  0.00000000000E+00  0.00000000000E+00  0.24131972892E+03  0.24131972892E+03  0.00000000000E+00 0.  1.
         13   -1    0    0    0    0 -0.00000000000E+00 -0.00000000000E+00 -0.27500000000E+03  0.27500000000E+03  0.00000000000E+00 0.  1.
    9000005    2    1    2  501    0  0.29927681262E+02  0.10333603024E+02 -0.18097410698E+02  0.48103127479E+03  0.47964687177E+03 0.  0.
         13    1    3    3    0    0 -0.49729356582E+02 -0.88994456536E+02 -0.21992137828E+03  0.24240139196E+03  0.00000000000E+00 0.  1.
          3    1    3    3  501    0  0.79657037844E+02  0.99328059560E+02  0.20182396758E+03  0.23862988284E+03  0.00000000000E+00 0.  1.
         21    1    1    2  502  501 -0.29927681262E+02 -0.10333603024E+02 -0.15582860379E+02  0.35288454128E+02  0.00000000000E+00 0.  1.
<scales pt_clust_4="550.00000" pt_clust_5="550.00000" pt_clust_6="31.66150"></scales>
<mgrwt>
<rscale>  0 0.30000000E+03</rscale>
<asrwt>  1 0.31661498E+02</asrwt>
<pdfrwt beam="1">  1        1 0.87752629E+00 0.30000000E+03</pdfrwt>
<pdfrwt beam="2">0</pdfrwt>
<totfact> 0.21513957E-04</totfact>
</mgrwt>
<clustering>
<clus scale="   31.661">  1  6  2 -1</clus>
<clus scale="  479.647">  4  5 -1 -1</clus>
<clus scale="  300.000">  1  4  2 -1</clus>
</clustering>
</event>
<event>
 6    1  0.9131597E-012  0.3000000E+03  0.7818608E-02  0.1093470E+00
          1   -1    0    0  502    0  0.00000000000E+00  0.00000000000E+00  0.24447864608E+03  0.24447864608E+03  0.00000000000E+00 0.  1.
         13   -1    0    0    0    0 -0.00000000000E+00 -0.00000000000E+00 -0.27500000000E+03  0.27500000000E+03  0.00000000000E+00 0.  1.
    9000005    2    1    2  501    0 -0.29358957778E+02  0.13657160065E+02 -0.54687846679E+02  0.47907461416E+03  0.47484024570E+03 0.  0.
         13    1    3    3    0    0 -0.25169958180E+03 -0.89293246794E+01 -0.40976187302E+02  0.25516947357E+03  0.00000000000E+00 0.  1.
          1    1    3    3  501    0  0.22234062402E+03  0.22586484745E+02 -0.13711659377E+02  0.22390514059E+03  0.00000000000E+00 0.  1.
         21    1    1    2  502  501  0.29358957778E+02 -0.13657160065E+02  0.24166492757E+02  0.40404031916E+02  0.00000000000E+00 0. -1.
<scales pt_clust_4="550.00000" pt_clust_5="550.00000" pt_clust_6="32.38003"></scales>
<mgrwt>
<rscale>  0 0.30000000E+03</rscale>
<asrwt>  1 0.32380031E+02</asrwt>
<pdfrwt beam="1">  1        1 0.88901326E+00 0.30000000E+03</pdfrwt>
<pdfrwt beam="2">0</pdfrwt>
<totfact> 0.15165965E-04</totfact>
</mgrwt>
<clustering>
<clus scale="   32.380">  1  6  2 -1</clus>
<clus scale="  474.840">  4  5 -1 -1</clus>
<clus scale="  300.000">  1  4  2 -1</clus>
</clustering>
</event>
<event>
 6    1  0.9131597E-012  0.3000000E+03  0.7818608E-02  0.1093470E+00
          1   -1    0    0  502    0  0.00000000000E+00  0.00000000000E+00  0.23855300025E+03  0.23855300025E+03  0.00000000000E+00 0.  1.
         13   -1    0    0    0    0 -0.00000000000E+00 -0.00000000000E+00 -0.27500000000E+03  0.27500000000E+03  0.00000000000E+00 0.  1.
    9000005    2    1    2  501    0  0.23136118122E+02 -0.28430987116E+02 -0.54929872428E+02  0.47250159866E+03  0.46786415642E+03 0.  0.
         13    1    3    3    0    0 -0.18317820849E+03  0.11553390807E+03 -0.89355946568E+01  0.21675374237E+03  0.00000000000E+00 0.  1.
          1    1    3    3  501    0  0.20631432661E+03 -0.14396489518E+03 -0.45994277772E+02  0.25574785629E+03  0.00000000000E+00 0.  1.
         21    1    1    2  502  501 -0.23136118122E+02  0.28430987116E+02  0.18482872675E+02  0.41051401589E+02  0.00000000000E+00 0.  1.
<scales pt_clust_4="550.00000" pt_clust_5="550.00000" pt_clust_6="36.65516"></scales>
<mgrwt>
<rscale>  0 0.30000000E+03</rscale>
<asrwt>  1 0.36655163E+02</asrwt>
<pdfrwt beam="1">  1        1 0.86746546E+00 0.30000000E+03</pdfrwt>
<pdfrwt beam="2">0</pdfrwt>
<totfact> 0.26667161E-04</totfact>
</mgrwt>
<clustering>
<clus scale="   36.655">  1  6  2 -1</clus>
<clus scale="  467.864">  4  5 -1 -1</clus>
<clus scale="  300.000">  1  4  2 -1</clus>
</clustering>
</event>
<event>
 6    1  0.9131597E-012  0.3000000E+03  0.7818608E-02  0.1093470E+00
          1   -1    0    0  502    0  0.00000000000E+00  0.00000000000E+00  0.23331606371E+03  0.23331606371E+03  0.00000000000E+00 0.  1.
         13   -1    0    0    0    0 -0.00000000000E+00 -0.00000000000E+00 -0.27500000000E+03  0.27500000000E+03  0.00000000000E+00 0.  1.
    9000005    2    1    2  501    0  0.25631144960E+02  0.25580406829E+02 -0.50746575143E+02  0.47098719782E+03  0.46684302803E+03 0.  0.
         13    1    3    3    0    0 -0.20593301272E+03 -0.40951251515E+02  0.39610066591E+02  0.21366882811E+03  0.00000000000E+00 0.  1.
          3    1    3    3  501    0  0.23156415768E+03  0.66531658343E+02 -0.90356641734E+02  0.25731836971E+03  0.00000000000E+00 0.  1.
         21    1    1    2  502  501 -0.25631144960E+02 -0.25580406829E+02  0.90626388524E+01  0.37328865888E+02  0.00000000000E+00 0. -1.
<scales pt_clust_4="550.00000" pt_clust_5="550.00000" pt_clust_6="36.21205"></scales>
<mgrwt>
<rscale>  0 0.30000000E+03</rscale>
<asrwt>  1 0.36212053E+02</asrwt>
<pdfrwt beam="1">  1        1 0.84842205E+00 0.30000000E+03</pdfrwt>
<pdfrwt beam="2">0</pdfrwt>
<totfact> 0.41830222E-04</totfact>
</mgrwt>
<clustering>
<clus scale="   36.212">  1  6  2 -1</clus>
<clus scale="  466.843">  4  5 -1 -1</clus>
<clus scale="  300.000">  1  4  2 -1</clus>
</clustering>
</event>
<event>
 6    1  0.9131597E-012  0.3000000E+03  0.7818608E-02  0.1093470E+00
          1   -1    0    0  502    0  0.00000000000E+00  0.00000000000E+00  0.24416467520E+03  0.24416467520E+03  0.00000000000E+00 0.  1.
         13   -1    0    0    0    0 -0.00000000000E+00 -0.00000000000E+00 -0.27500000000E+03  0.27500000000E+03  0.00000000000E+00 0.  1.
    9000005    2    1    2  501    0 -0.43426551664E+02  0.11143418708E+02 -0.18027468223E+02  0.47253761910E+03  0.47006039047E+03 0.  0.
         13    1    3    3    0    0  0.11531951960E+03 -0.17471253479E+03  0.56815309299E+02  0.21691251873E+03  0.00000000000E+00 0.  1.
          1    1    3    3  501    0 -0.15874607126E+03  0.18585595350E+03 -0.74842777522E+02  0.25562510037E+03  0.00000000000E+00 0.  1.
         21    1    1    2  502  501  0.43426551664E+02 -0.11143418708E+02 -0.12807856578E+02  0.46627056094E+02  0.00000000000E+00 0.  1.
<scales pt_clust_4="550.00000" pt_clust_5="550.00000" pt_clust_6="44.83351"></scales>
<mgrwt>
<rscale>  0 0.30000000E+03</rscale>
<asrwt>  1 0.44833505E+02</asrwt>
<pdfrwt beam="1">  1        1 0.88787155E+00 0.30000000E+03</pdfrwt>
<pdfrwt beam="2">0</pdfrwt>
<totfact> 0.14806666E-04</totfact>
</mgrwt>
<clustering>
<clus scale="   44.834">  1  6  2 -1</clus>
<clus scale="  470.060">  4  5 -1 -1</clus>
<clus scale="  300.000">  1  4  2 -1</clus>
</clustering>
</event>
<event>
 6    1  0.9131597E-012  0.3000000E+03  0.7818608E-02  0.1093470E+00
          1   -1    0    0  502    0  0.00000000000E+00  0.00000000000E+00  0.23565049226E+03  0.23565049226E+03  0.00000000000E+00 0.  1.
         13   -1    0    0    0    0 -0.00000000000E+00 -0.00000000000E+00 -0.27500000000E+03  0.27500000000E+03  0.00000000000E+00 0.  1.
    9000005    2    1    2  501    0  0.67447049884E+01  0.44570013833E+02 -0.46078082269E+02  0.46507362429E+03  0.46058474700E+03 0.  0.
         13    1    3    3    0    0  0.69229607642E+02  0.15977633103E+03  0.14959459118E+03  0.22956427476E+03  0.00000000000E+00 0.  1.
          3    1    3    3  501    0 -0.62484902653E+02 -0.11520631720E+03 -0.19567267345E+03  0.23550934954E+03  0.00000000000E+00 0.  1.
         21    1    1    2  502  501 -0.67447049884E+01 -0.44570013833E+02  0.67285745244E+01  0.45576867966E+02  0.00000000000E+00 0.  1.
<scales pt_clust_4="550.00000" pt_clust_5="550.00000" pt_clust_6="45.07746"></scales>
<mgrwt>
<rscale>  0 0.30000000E+03</rscale>
<asrwt>  1 0.45077458E+02</asrwt>
<pdfrwt beam="1">  1        1 0.85691088E+00 0.30000000E+03</pdfrwt>
<pdfrwt beam="2">0</pdfrwt>
<totfact> 0.33275864E-04</totfact>
</mgrwt>
<clustering>
<clus scale="   45.077">  1  6  2 -1</clus>
<clus scale="  460.585">  4  5 -1 -1</clus>
<clus scale="  300.000">  1  4  2 -1</clus>
</clustering>
</event>
<event>
 6    1  0.9131597E-012  0.3000000E+03  0.7818608E-02  0.1093470E+00
          1   -1    0    0  502    0  0.00000000000E+00  0.00000000000E+00  0.23958605918E+03  0.23958605918E+03  0.00000000000E+00 0.  1.
         13   -1    0    0    0    0 -0.00000000000E+00 -0.00000000000E+00 -0.27500000000E+03  0.27500000000E+03  0.00000000000E+00 0.  1.
    9000005    2    1    2  501    0  0.30405004478E+02  0.11039969595E+02 -0.62628696120E+02  0.47231327678E+03  0.46702369599E+03 0.  0.
         13    1    3    3    0    0 -0.57220738374E+02 -0.21485221210E+03 -0.11559202719E+01  0.22234437725E+03  0.00000000000E+00 0.  1.
          1    1    3    3  501    0  0.87625742852E+02  0.22589218169E+03 -0.61472775848E+02  0.24996889953E+03  0.00000000000E+00 0.  1.
         21    1    1    2  502  501 -0.30405004478E+02 -0.11039969595E+02  0.27214755300E+02  0.42272782402E+02  0.00000000000E+00 0. -1.
<scales pt_clust_4="550.00000" pt_clust_5="550.00000" pt_clust_6="32.34726"></scales>
<mgrwt>
<rscale>  0 0.30000000E+03</rscale>
<asrwt>  1 0.32347260E+02</asrwt>
<pdfrwt beam="1">  1        1 0.87122203E+00 0.30000000E+03</pdfrwt>
<pdfrwt beam="2">0</pdfrwt>
<totfact> 0.24975958E-04</totfact>
</mgrwt>
<clustering>
<clus scale="   32.347">  1  6  2 -1</clus>
<clus scale="  467.024">  4  5 -1 -1</clus>
<clus scale="  300.000">  1  4  2 -1</clus>
</clustering>
</event>
<event>
 6    1  0.9131597E-012  0.3000000E+03  0.7818608E-02  0.1093470E+00
          1   -1    0    0  502    0  0.00000000000E+00  0.00000000000E+00  0.24348964209E+03  0.24348964209E+03  0.00000000000E+00 0.  1.
         13   -1    0    0    0    0 -0.00000000000E+00 -0.00000000000E+00 -0.27500000000E+03  0.27500000000E+03  0.00000000000E+00 0.  1.
    9000005    2    1    2  501    0  0.36641231503E+02 -0.36085459965E+02 -0.53946503458E+02  0.46238152419E+03  0.45633508348E+03 0.  0.
         13    1    3    3    0    0  0.12550301569E+03  0.14906988770E+03  0.86885090837E+02  0.21335851841E+03  0.00000000000E+00 0.  1.
          3    1    3    3  501    0 -0.88861784188E+02 -0.18515534767E+03 -0.14083159429E+03  0.24902300579E+03  0.00000000000E+00 0.  1.
         21    1    1    2  502  501 -0.36641231503E+02  0.36085459965E+02  0.22436145551E+02  0.56108117898E+02  0.00000000000E+00 0. -1.
<scales pt_clust_4="550.00000" pt_clust_5="550.00000" pt_clust_6="51.42704"></scales>
<mgrwt>
<rscale>  0 0.30000000E+03</rscale>
<asrwt>  1 0.51427038E+02</asrwt>
<pdfrwt beam="1">  1        1 0.88541688E+00 0.30000000E+03</pdfrwt>
<pdfrwt beam="2">0</pdfrwt>
<totfact> 0.15624138E-04</totfact>
</mgrwt>
<clustering>
<clus scale="   51.427">  1  6  2 -1</clus>
<clus scale="  456.335">  4  5 -1 -1</clus>
<clus scale="  300.000">  1  4  2 -1</clus>
</clustering>
</event>
<event>
 6    1  0.9131597E-012  0.3000000E+03  0.7818608E-02  0.1093470E+00
          1   -1    0    0  502    0  0.00000000000E+00  0.00000000000E+00  0.24174006226E+03  0.24174006226E+03  0.00000000000E+00 0.  1.
         13   -1    0    0    0    0 -0.00000000000E+00 -0.00000000000E+00 -0.27500000000E+03  0.27500000000E+03  0.00000000000E+00 0.  1.
    9000005    2    1    2  501    0  0.36109002632E+02 -0.19355824327E+02 -0.33354306729E+02  0.47577035501E+03  0.47282810082E+03 0.  0.
         13    1    3    3    0    0 -0.10485560649E+03  0.18260747525E+03 -0.79710052328E+02  0.22515301613E+03  0.00000000000E+00 0.  1.
          1    1    3    3  501    0  0.14096460912E+03 -0.20196329957E+03  0.46355745600E+02  0.25061733889E+03  0.00000000000E+00 0.  1.
         21    1    1    2  502  501 -0.36109002632E+02  0.19355824327E+02  0.94368988793E-01  0.40969707247E+02  0.00000000000E+00 0.  1.
<scales pt_clust_4="550.00000" pt_clust_5="550.00000" pt_clust_6="40.96960"></scales>
<mgrwt>
<rscale>  0 0.30000000E+03</rscale>
<asrwt>  1 0.40969599E+02</asrwt>
<pdfrwt beam="1">  1        1 0.87905477E+00 0.30000000E+03</pdfrwt>
<pdfrwt beam="2">0</pdfrwt>
<totfact> 0.19685911E-04</totfact>
</mgrwt>
<clustering>
<clus scale="   40.970">  1  6  2 -1</clus>
<clus scale="  472.828">  4  5 -1 -1</clus>
<clus scale="  300.000">  1  4  2 -1</clus>
</clustering>
</event>
<event>
 6    1  0.9131597E-012  0.3000000E+03  0.7818608E-02  0.1093470E+00
          1   -1    0    0  502    0  0.00000000000E+00  0.00000000000E+00  0.24770749957E+03  0.24770749957E+03  0.00000000000E+00 0.  1.
         13   -1    0    0    0    0 -0.00000000000E+00 -0.00000000000E+00 -0.27500000000E+03  0.27500000000E+03  0.00000000000E+00 0.  1.
    9000005    2    1    2  501    0 -0.23241097151E+02  0.21223211936E+02 -0.33215897142E+02  0.49068157335E+03  0.48854328087E+03 0.  0.
         13    1    3    3    0    0  0.21908680168E+03 -0.51672944644E+02  0.36877321907E+02  0.22809878726E+03  0.00000000000E+00 0.  1.
          1    1    3    3  501    0 -0.24232789883E+03  0.72896156580E+02 -0.70093219048E+02  0.26258278609E+03  0.00000000000E+00 0.  1.
         21    1    1    2  502  501  0.23241097151E+02 -0.21223211936E+02  0.59233967156E+01  0.32025926221E+02  0.00000000000E+00 0. -1.
<scales pt_clust_4="550.00000" pt_clust_5="550.00000" pt_clust_6="31.47337"></scales>
<mgrwt>
<rscale>  0 0.30000000E+03</rscale>
<asrwt>  1 0.31473375E+02</asrwt>
<pdfrwt beam="1">  1        1 0.90075454E+00 0.30000000E+03</pdfrwt>
<pdfrwt beam="2">0</pdfrwt>
<totfact> 0.11018965E-04</totfact>
</mgrwt>
<clustering>
<clus scale="   31.473">  1  6  2 -1</clus>
<clus scale="  488.543">  4  5 -1 -1</clus>
<clus scale="  300.000">  1  4  2 -1</clus>
</clustering>
</event>
<event>
 6    1  0.9131597E-012  0.3000000E+03  0.7818608E-02  0.1093470E+00
          1   -1    0    0  502    0  0.00000000000E+00  0.00000000000E+00  0.24887013075E+03  0.24887013075E+03  0.00000000000E+00 0.  1.
         13   -1    0    0    0    0 -0.00000000000E+00 -0.00000000000E+00 -0.27500000000E+03  0.27500000000E+03  0.00000000000E+00 0.  1.
    9000005    2    1    2  501    0  0.32668593298E+02 -0.14067575716E+02 -0.37192413381E+02  0.48662078771E+03  0.48389191122E+03 0.  0.
         13    1    3    3    0    0  0.98531670298E+02  0.20807219800E+03  0.55913849657E+02  0.23691536087E+03  0.00000000000E+00 0.  1.
          3    1    3    3  501    0 -0.65863076999E+02 -0.22213977371E+03 -0.93106263037E+02  0.24970542684E+03  0.00000000000E+00 0.  1.
         21    1    1    2  502  501 -0.32668593298E+02  0.14067575716E+02  0.11062544132E+02  0.37249343045E+02  0.00000000000E+00 0.  1.
<scales pt_clust_4="550.00000" pt_clust_5="550.00000" pt_clust_6="35.56872"></scales>
<mgrwt>
<rscale>  0 0.30000000E+03</rscale>
<asrwt>  1 0.35568718E+02</asrwt>
<pdfrwt beam="1">  1        1 0.90498229E+00 0.30000000E+03</pdfrwt>
<pdfrwt beam="2">0</pdfrwt>
<totfact> 0.92258057E-05</totfact>
</mgrwt>
<clustering>
<clus scale="   35.569">  1  6  2 -1</clus>
<clus scale="  483.892">  4  5 -1 -1</clus>
<clus scale="  300.000">  1  4  2 -1</clus>
</clustering>
</event>
<event>
 6    1  0.9131597E-012  0.3000000E+03  0.7818608E-02  0.1093470E+00
          1   -1    0    0  502    0  0.00000000000E+00  0.00000000000E+00  0.25497074059E+03  0.25497074059E+03  0.00000000000E+00 0.  1.
         13   -1    0    0    0    0 -0.00000000000E+00 -0.00000000000E+00 -0.27500000000E+03  0.27500000000E+03  0.00000000000E+00 0.  1.
    9000005    2    1    2  501    0  0.22354667300E+02 -0.48138956168E+02 -0.26966874002E+02  0.47644298380E+03  0.47270880494E+03 0.  0.
         13    1    3    3    0    0 -0.94425499871E+02 -0.18824573828E+02 -0.22496865098E+03  0.24470683180E+03  0.00000000000E+00 0.  1.
          1    1    3    3  501    0  0.11678016717E+03 -0.29314382340E+02  0.19800177698E+03  0.23173615200E+03  0.00000000000E+00 0.  1.
         21    1    1    2  502  501 -0.22354667300E+02  0.48138956168E+02  0.69376145916E+01  0.53527756793E+02  0.00000000000E+00 0.  1.
<scales pt_clust_4="550.00000" pt_clust_5="550.00000" pt_clust_6="53.07627"></scales>
<mgrwt>
<rscale>  0 0.30000000E+03</rscale>
<asrwt>  1 0.53076268E+02</asrwt>
<pdfrwt beam="1">  1        1 0.92716633E+00 0.30000000E+03</pdfrwt>
<pdfrwt beam="2">0</pdfrwt>
<totfact> 0.27451738E-05</totfact>
</mgrwt>
<clustering>
<clus scale="   53.076">  1  6  2 -1</clus>
<clus scale="  472.709">  4  5 -1 -1</clus>
<clus scale="  300.000">  1  4  2 -1</clus>
</clustering>
</event>
<event>
 6    1  0.9131597E-012  0.3000000E+03  0.7818608E-02  0.1093470E+00
          1   -1    0    0  502    0  0.00000000000E+00  0.00000000000E+00  0.24557049029E+03  0.24557049029E+03  0.00000000000E+00 0.  1.
         13   -1    0    0    0    0 -0.00000000000E+00 -0.00000000000E+00 -0.27500000000E+03  0.27500000000E+03  0.00000000000E+00 0.  1.
    9000005    2    1    2  501    0  0.12532376920E+02 -0.32777125184E+02 -0.64745573039E+02  0.47078470180E+03  0.46498908139E+03 0.  0.
         13    1    3    3    0    0  0.11388215677E+03  0.17173273939E+03  0.54666638663E+02  0.21318940121E+03  0.00000000000E+00 0.  1.
          1    1    3    3  501    0 -0.10134977985E+03 -0.20450986457E+03 -0.11941221170E+03  0.25759530059E+03  0.00000000000E+00 0.  1.
         21    1    1    2  502  501 -0.12532376920E+02  0.32777125184E+02  0.35316063332E+02  0.49785788493E+02  0.00000000000E+00 0. -1.
<scales pt_clust_4="550.00000" pt_clust_5="550.00000" pt_clust_6="35.09132"></scales>
<mgrwt>
<rscale>  0 0.30000000E+03</rscale>
<asrwt>  1 0.35091315E+02</asrwt>
<pdfrwt beam="1">  1        1 0.89298360E+00 0.30000000E+03</pdfrwt>
<pdfrwt beam="2">0</pdfrwt>
<totfact> 0.13292012E-04</totfact>
</mgrwt>
<clustering>
<clus scale="   35.091">  1  6  2 -1</clus>
<clus scale="  464.989">  4  5 -1 -1</clus>
<clus scale="  300.000">  1  4  2 -1</clus>
</clustering>
</event>
<event>
 6    1  0.9131597E-012  0.3000000E+03  0.7818608E-02  0.1093470E+00
          1   -1    0    0  502    0  0.00000000000E+00  0.00000000000E+00  0.24743517055E+03  0.24743517055E+03  0.00000000000E+00 0.  1.
         13   -1    0    0    0    0 -0.00000000000E+00 -0.00000000000E+00 -0.27500000000E+03  0.27500000000E+03  0.00000000000E+00 0.  1.
    9000005    2    1    2  501    0  0.39505375275E+02 -0.12343793539E+01 -0.11953543227E+02  0.47993916337E+03  0.47815950788E+03 0.  0.
         13    1    3    3    0    0 -0.96019790276E+02  0.19528494947E+03  0.68316158384E+02  0.22808574947E+03  0.00000000000E+00 0.  1.
          1    1    3    3  501    0  0.13552516555E+03 -0.19651932882E+03 -0.80269701611E+02  0.25185341391E+03  0.00000000000E+00 0.  1.
         21    1    1    2  502  501 -0.39505375275E+02  0.12343793539E+01 -0.15611286226E+02  0.42496007173E+02  0.00000000000E+00 0.  1.
<scales pt_clust_4="550.00000" pt_clust_5="550.00000" pt_clust_6="39.52467"></scales>
<mgrwt>
<rscale>  0 0.30000000E+03</rscale>
<asrwt>  1 0.39524675E+02</asrwt>
<pdfrwt beam="1">  1        1 0.89976426E+00 0.30000000E+03</pdfrwt>
<pdfrwt beam="2">0</pdfrwt>
<totfact> 0.10871978E-04</totfact>
</mgrwt>
<clustering>
<clus scale="   39.525">  1  6  2 -1</clus>
<clus scale="  478.160">  4  5 -1 -1</clus>
<clus scale="  300.000">  1  4  2 -1</clus>
</clustering>
</event>
<event>
 6    1  0.9131597E-012  0.3000000E+03  0.7818608E-02  0.1093470E+00
          1   -1    0    0  502    0  0.00000000000E+00  0.00000000000E+00  0.22955219597E+03  0.22955219597E+03  0.00000000000E+00 0.  1.
         13   -1    0    0    0    0 -0.00000000000E+00 -0.00000000000E+00 -0.27500000000E+03  0.27500000000E+03  0.00000000000E+00 0.  1.
    9000005    2    1    2  501    0  0.30326152292E+02  0.75019530811E+01 -0.49913270339E+02  0.47299438866E+03  0.46931482220E+03 0.  0.
         13    1    3    3    0    0  0.22250291410E+03  0.15828484390E+02 -0.13706965227E+03  0.26181324885E+03  0.00000000000E+00 0.  1.
          3    1    3    3  501    0 -0.19217676180E+03 -0.83265313087E+01  0.87156381933E+02  0.21118113981E+03  0.00000000000E+00 0.  1.
         21    1    1    2  502  501 -0.30326152292E+02 -0.75019530811E+01  0.44654663126E+01  0.31557807310E+02  0.00000000000E+00 0.  1.
<scales pt_clust_4="550.00000" pt_clust_5="550.00000" pt_clust_6="31.24028"></scales>
<mgrwt>
<rscale>  0 0.30000000E+03</rscale>
<asrwt>  1 0.31240275E+02</asrwt>
<pdfrwt beam="1">  1        1 0.83473526E+00 0.30000000E+03</pdfrwt>
<pdfrwt beam="2">0</pdfrwt>
<totfact> 0.55520514E-04</totfact>
</mgrwt>
<clustering>
<clus scale="   31.240">  1  6  2 -1</clus>
<clus scale="  469.315">  4  5 -1 -1</clus>
<clus scale="  300.000">  1  4  2 -1</clus>
</clustering>
</event>
<event>
 6    1  0.9131597E-012  0.3000000E+03  0.7818608E-02  0.1093470E+00
          1   -1    0    0  502    0  0.00000000000E+00  0.00000000000E+00  0.23745384601E+03  0.23745384601E+03  0.00000000000E+00 0.  1.
         13   -1    0    0    0    0 -0.00000000000E+00 -0.00000000000E+00 -0.27500000000E+03  0.27500000000E+03  0.00000000000E+00 0.  1.
    9000005    2    1    2  501    0 -0.28994830620E+02 -0.35514068442E+02 -0.44404968874E+02  0.46609661786E+03  0.46170586596E+03 0.  0.
         13    1    3    3    0    0  0.27744868577E+02  0.20482821656E+03 -0.69034791164E+02  0.21792241377E+03  0.00000000000E+00 0.  1.
          3    1    3    3  501    0 -0.56739699197E+02 -0.24034228501E+03  0.24629822290E+02  0.24817420409E+03  0.00000000000E+00 0.  1.
         21    1    1    2  502  501  0.28994830620E+02  0.35514068442E+02  0.68588148797E+01  0.46357228148E+02  0.00000000000E+00 0.  1.
<scales pt_clust_4="550.00000" pt_clust_5="550.00000" pt_clust_6="45.84702"></scales>
<mgrwt>
<rscale>  0 0.30000000E+03</rscale>
<asrwt>  1 0.45847020E+02</asrwt>
<pdfrwt beam="1">  1        1 0.86346853E+00 0.30000000E+03</pdfrwt>
<pdfrwt beam="2">0</pdfrwt>
<totfact> 0.28252380E-04</totfact>
</mgrwt>
<clustering>
<clus scale="   45.847">  1  6  2 -1</clus>
<clus scale="  461.706">  4  5 -1 -1</clus>
<clus scale="  300.000">  1  4  2 -1</clus>
</clustering>
</event>
<event>
 6    1  0.9131597E-012  0.3000000E+03  0.7818608E-02  0.1093470E+00
          1   -1    0    0  502    0  0.00000000000E+00  0.00000000000E+00  0.23647041224E+03  0.23647041224E+03  0.00000000000E+00 0.  1.
         13   -1    0    0    0    0 -0.00000000000E+00 -0.00000000000E+00 -0.27500000000E+03  0.27500000000E+03  0.00000000000E+00 0.  1.
    9000005    2    1    2  501    0 -0.21379105907E+02 -0.22631362091E+02 -0.48164545205E+02  0.47888088747E+03  0.47543436587E+03 0.  0.
         13    1    3    3    0    0 -0.15385914315E+03 -0.18817149416E+03  0.45160498324E+02  0.24722584362E+03  0.00000000000E+00 0.  1.
          1    1    3    3  501    0  0.13248003724E+03  0.16554013207E+03 -0.93325043529E+02  0.23165504385E+03  0.00000000000E+00 0.  1.
         21    1    1    2  502  501  0.21379105907E+02  0.22631362091E+02  0.96349574410E+01  0.32589524764E+02  0.00000000000E+00 0.  1.
<scales pt_clust_4="550.00000" pt_clust_5="550.00000" pt_clust_6="31.13270"></scales>
<mgrwt>
<rscale>  0 0.30000000E+03</rscale>
<asrwt>  1 0.31132695E+02</asrwt>
<pdfrwt beam="1">  1        1 0.85989241E+00 0.30000000E+03</pdfrwt>
<pdfrwt beam="2">0</pdfrwt>
<totfact> 0.33157984E-04</totfact>
</mgrwt>
<clustering>
<clus scale="   31.133">  1  6  2 -1</clus>
<clus scale="  475.434">  4  5 -1 -1</clus>
<clus scale="  300.000">  1  4  2 -1</clus>
</clustering>
</event>
<event>
 6    1  0.9131597E-012  0.3000000E+03  0.7818608E-02  0.1093470E+00
          1   -1    0    0  502    0  0.00000000000E+00  0.00000000000E+00  0.24363166484E+03  0.24363166484E+03  0.00000000000E+00 0.  1.
         13   -1    0    0    0    0 -0.00000000000E+00 -0.00000000000E+00 -0.27500000000E+03  0.27500000000E+03  0.00000000000E+00 0.  1.
    9000005    2    1    2  501    0 -0.39281533265E+02 -0.36128769046E+00 -0.71760053488E+01  0.47249666504E+03  0.47080615336E+03 0.  0.
         13    1    3    3    0    0  0.12737295735E+03  0.28518175626E+02  0.17862971507E+03  0.22123682268E+03  0.00000000000E+00 0.  1.
          1    1    3    3  501    0 -0.16665449061E+03 -0.28879463316E+02 -0.18580572042E+03  0.25125984236E+03  0.00000000000E+00 0.  1.
         21    1    1    2  502  501  0.39281533265E+02  0.36128769046E+00 -0.24192329811E+02  0.46134999795E+02  0.00000000000E+00 0.  1.
<scales pt_clust_4="550.00000" pt_clust_5="550.00000" pt_clust_6="39.28321"></scales>
<mgrwt>
<rscale>  0 0.30000000E+03</rscale>
<asrwt>  1 0.39283214E+02</asrwt>
<pdfrwt beam="1">  1        1 0.88593333E+00 0.30000000E+03</pdfrwt>
<pdfrwt beam="2">0</pdfrwt>
<totfact> 0.16128329E-04</totfact>
</mgrwt>
<clustering>
<clus scale="   39.283">  1  6  2 -1</clus>
<clus scale="  470.806">  4  5 -1 -1</clus>
<clus scale="  300.000">  1  4  2 -1</clus>
</clustering>
</event>
<event>
 6    1  0.9131597E-012  0.3000000E+03  0.7818608E-02  0.1093470E+00
          1   -1    0    0  502    0  0.00000000000E+00  0.00000000000E+00  0.24548474275E+03  0.24548474275E+03  0.00000000000E+00 0.  1.
         13   -1    0    0    0    0 -0.00000000000E+00 -0.00000000000E+00 -0.27500000000E+03  0.27500000000E+03  0.00000000000E+00 0.  1.
    9000005    2    1    2  501    0  0.29102051661E+01 -0.32193171138E+02 -0.45496686925E+02  0.48442540753E+03  0.48119970633E+03 0.  0.
         13    1    3    3    0    0 -0.19699136937E+03 -0.12638699468E+03  0.56907910705E+02  0.24086880730E+03  0.00000000000E+00 0.  1.
          1    1    3    3  501    0  0.19990157454E+03  0.94193823546E+02 -0.10240459763E+03  0.24355660022E+03  0.00000000000E+00 0.  1.
         21    1    1    2  502  501 -0.29102051661E+01  0.32193171138E+02  0.15981429670E+02  0.36059335217E+02  0.00000000000E+00 0. -1.
<scales pt_clust_4="550.00000" pt_clust_5="550.00000" pt_clust_6="32.32444"></scales>
<mgrwt>
<rscale>  0 0.30000000E+03</rscale>
<asrwt>  1 0.32324442E+02</asrwt>
<pdfrwt beam="1">  1        1 0.89267179E+00 0.30000000E+03</pdfrwt>
<pdfrwt beam="2">0</pdfrwt>
<totfact> 0.13614667E-04</totfact>
</mgrwt>
<clustering>
<clus scale="   32.324">  1  6  2 -1</clus>
<clus scale="  481.200">  4  5 -1 -1</clus>
<clus scale="  300.000">  1  4  2 -1</clus>
</clustering>
</event>
<event>
 6    1  0.9131597E-012  0.3000000E+03  0.7818608E-02  0.1093470E+00
          1   -1    0    0  502    0  0.00000000000E+00  0.00000000000E+00  0.23333689908E+03  0.23333689908E+03  0.00000000000E+00 0.  1.
         13   -1    0    0    0    0 -0.00000000000E+00 -0.00000000000E+00 -0.27500000000E+03  0.27500000000E+03  0.00000000000E+00 0.  1.
    9000005    2    1    2  501    0 -0.49323338277E+01 -0.29817502668E+02 -0.65640138191E+02  0.46975828196E+03  0.46416678506E+03 0.  0.
         13    1    3    3    0    0  0.22006769197E+03 -0.40413102978E+00 -0.97350474654E+02  0.24063887318E+03  0.00000000000E+00 0.  1.
          3    1    3    3  501    0 -0.22500002580E+03 -0.29413371638E+02  0.31710336462E+02  0.22911940878E+03  0.00000000000E+00 0.  1.
         21    1    1    2  502  501  0.49323338277E+01  0.29817502668E+02  0.23977037271E+02  0.38578617117E+02  0.00000000000E+00 0. -1.
<scales pt_clust_4="550.00000" pt_clust_5="550.00000" pt_clust_6="30.22270"></scales>
<mgrwt>
<rscale>  0 0.30000000E+03</rscale>
<asrwt>  1 0.30222696E+02</asrwt>
<pdfrwt beam="1">  1        1 0.84849781E+00 0.30000000E+03</pdfrwt>
<pdfrwt beam="2">0</pdfrwt>
<totfact> 0.43215167E-04</totfact>
</mgrwt>
<clustering>
<clus scale="   30.223">  1  6  2 -1</clus>
<clus scale="  464.167">  4  5 -1 -1</clus>
<clus scale="  300.000">  1  4  2 -1</clus>
</clustering>
</event>
<event>
 6    1  0.9131597E-012  0.3000000E+03  0.7818608E-02  0.1093470E+00
          1   -1    0    0  502    0  0.00000000000E+00  0.00000000000E+00  0.23100059422E+03  0.23100059422E+03  0.00000000000E+00 0.  1.
         13   -1    0    0    0    0 -0.00000000000E+00 -0.00000000000E+00 -0.27500000000E+03  0.27500000000E+03  0.00000000000E+00 0.  1.
    9000005    2    1    2  501    0  0.30077319403E+02  0.56913425930E+01 -0.58344855707E+02  0.47219484831E+03  0.46757546563E+03 0.  0.
         13    1    3    3    0    0  0.13715283852E+03  0.63559844007E+02  0.16131225207E+03  0.22107102378E+03  0.00000000000E+00 0.  1.
          1    1    3    3  501    0 -0.10707551912E+03 -0.57868501414E+02 -0.21965710778E+03  0.25112382453E+03  0.00000000000E+00 0.  1.
         21    1    1    2  502  501 -0.30077319403E+02 -0.56913425930E+01  0.14345449930E+02  0.33805745912E+02  0.00000000000E+00 0.  1.
<scales pt_clust_4="550.00000" pt_clust_5="550.00000" pt_clust_6="30.61105"></scales>
<mgrwt>
<rscale>  0 0.30000000E+03</rscale>
<asrwt>  1 0.30611052E+02</asrwt>
<pdfrwt beam="1">  1        1 0.84000216E+00 0.30000000E+03</pdfrwt>
<pdfrwt beam="2">0</pdfrwt>
<totfact> 0.50979820E-04</totfact>
</mgrwt>
<clustering>
<clus scale="   30.611">  1  6  2 -1</clus>
<clus scale="  467.575">  4  5 -1 -1</clus>
<clus scale="  300.000">  1  4  2 -1</clus>
</clustering>
</event>
<event>
 6    1  0.9131597E-012  0.3000000E+03  0.7818608E-02  0.1093470E+00
          1   -1    0    0  502    0  0.00000000000E+00  0.00000000000E+00  0.26589822201E+03  0.26589822201E+03  0.00000000000E+00 0.  1.
         13   -1    0    0    0    0 -0.00000000000E+00 -0.00000000000E+00 -0.27500000000E+03  0.27500000000E+03  0.00000000000E+00 0.  1.
    9000005    2    1    2  501    0 -0.37947807615E+02 -0.85710581662E+01 -0.64486328779E+02  0.47321552402E+03  0.46718406055E+03 0.  0.
         13    1    3    3    0    0 -0.65617397504E+02 -0.16847526442E+03 -0.19429452804E+03  0.26540520191E+03  0.00000000000E+00 0.  1.
          3    1    3    3  501    0  0.27669589888E+02  0.15990420625E+03  0.12980819926E+03  0.20781032211E+03  0.00000000000E+00 0.  1.
         21    1    1    2  502  501  0.37947807615E+02  0.85710581662E+01  0.55384550787E+02  0.67682697987E+02  0.00000000000E+00 0.  1.
<scales pt_clust_4="550.00000" pt_clust_5="550.00000" pt_clust_6="38.90372"></scales>
<mgrwt>
<rscale>  0 0.30000000E+03</rscale>
<asrwt>  1 0.38903716E+02</asrwt>
<pdfrwt beam="1">  1        1 0.96690263E+00 0.30000000E+03</pdfrwt>
<pdfrwt beam="2">0</pdfrwt>
<totfact> 0.54089005E-06</totfact>
</mgrwt>
<clustering>
<clus scale="   38.904">  1  6  2 -1</clus>
<clus scale="  467.184">  4  5 -1 -1</clus>
<clus scale="  300.000">  1  4  2 -1</clus>
</clustering>
</event>
<event>
 6    1  0.9131597E-012  0.3000000E+03  0.7818608E-02  0.1093470E+00
          1   -1    0    0  502    0  0.00000000000E+00  0.00000000000E+00  0.22427446690E+03  0.22427446690E+03  0.00000000000E+00 0.  1.
         13   -1    0    0    0    0 -0.00000000000E+00 -0.00000000000E+00 -0.27500000000E+03  0.27500000000E+03  0.00000000000E+00 0.  1.
    9000005    2    1    2  501    0  0.73330200701E+01 -0.33960931424E+02 -0.51794902286E+02  0.46451440940E+03  0.46030838206E+03 0.  0.
         13    1    3    3    0    0  0.95594610817E+02  0.47411034164E+02  0.17669058463E+03  0.20641147855E+03  0.00000000000E+00 0.  1.
          3    1    3    3  501    0 -0.88261590747E+02 -0.81371965588E+02 -0.22848548692E+03  0.25810293086E+03  0.00000000000E+00 0.  1.
         21    1    1    2  502  501 -0.73330200701E+01  0.33960931424E+02  0.10693691843E+01  0.34760057494E+02  0.00000000000E+00 0.  1.
<scales pt_clust_4="550.00000" pt_clust_5="550.00000" pt_clust_6="34.74360"></scales>
<mgrwt>
<rscale>  0 0.30000000E+03</rscale>
<asrwt>  1 0.34743604E+02</asrwt>
<pdfrwt beam="1">  1        1 0.81554352E+00 0.30000000E+03</pdfrwt>
<pdfrwt beam="2">0</pdfrwt>
<totfact> 0.78909734E-04</totfact>
</mgrwt>
<clustering>
<clus scale="   34.744">  1  6  2 -1</clus>
<clus scale="  460.308">  4  5 -1 -1</clus>
<clus scale="  300.000">  1  4  2 -1</clus>
</clustering>
</event>
<event>
 6    1  0.9131597E-012  0.3000000E+03  0.7818608E-02  0.1093470E+00
          1   -1    0    0  502    0  0.00000000000E+00  0.00000000000E+00  0.23154536143E+03  0.23154536143E+03  0.00000000000E+00 0.  1.
         13   -1    0    0    0    0 -0.00000000000E+00 -0.00000000000E+00 -0.27500000000E+03  0.27500000000E+03  0.00000000000E+00 0.  1.
    9000005    2    1    2  501    0  0.10954729582E+02  0.28953046638E+02 -0.59677261883E+02  0.47159599066E+03  0.46677951734E+03 0.  0.
         13    1    3    3    0    0 -0.15666912051E+03 -0.14435900822E+03  0.28356179358E+02  0.21491581953E+03  0.00000000000E+00 0.  1.
          1    1    3    3  501    0  0.16762385009E+03  0.17331205485E+03 -0.88033441241E+02  0.25668017114E+03  0.00000000000E+00 0.  1.
         21    1    1    2  502  501 -0.10954729582E+02 -0.28953046638E+02  0.16222623311E+02  0.34949370765E+02  0.00000000000E+00 0. -1.
<scales pt_clust_4="550.00000" pt_clust_5="550.00000" pt_clust_6="30.95618"></scales>
<mgrwt>
<rscale>  0 0.30000000E+03</rscale>
<asrwt>  1 0.30956179E+02</asrwt>
<pdfrwt beam="1">  1        1 0.84198313E+00 0.30000000E+03</pdfrwt>
<pdfrwt beam="2">0</pdfrwt>
<totfact> 0.49058348E-04</totfact>
</mgrwt>
<clustering>
<clus scale="   30.956">  1  6  2 -1</clus>
<clus scale="  466.780">  4  5 -1 -1</clus>
<clus scale="  300.000">  1  4  2 -1</clus>
</clustering>
</event>
<event>
 6    1  0.9131597E-012  0.3000000E+03  0.7818608E-02  0.1093470E+00
          1   -1    0    0  502    0  0.00000000000E+00  0.00000000000E+00  0.25048946765E+03  0.25048946765E+03  0.00000000000E+00 0.  1.
         13   -1    0    0    0    0 -0.00000000000E+00 -0.00000000000E+00 -0.27500000000E+03  0.27500000000E+03  0.00000000000E+00 0.  1.
    9000005    2    1    2  501    0 -0.29040228586E+02 -0.47181969274E+02 -0.34767954645E+02  0.46914509958E+03  0.46456306428E+03 0.  0.
         13    1    3    3    0    0  0.72091409813E+02  0.18571185735E+03  0.42595710965E+02  0.20371661671E+03  0.00000000000E+00 0.  1.
          3    1    3    3  501    0 -0.10113163840E+03 -0.23289382663E+03 -0.77363665610E+02  0.26542848288E+03  0.00000000000E+00 0.  1.
         21    1    1    2  502  501  0.29040228586E+02  0.47181969274E+02  0.10257422297E+02  0.56344368069E+02  0.00000000000E+00 0.  1.
<scales pt_clust_4="550.00000" pt_clust_5="550.00000" pt_clust_6="55.40283"></scales>
<mgrwt>
<rscale>  0 0.30000000E+03</rscale>
<asrwt>  1 0.55402826E+02</asrwt>
<pdfrwt beam="1">  1        1 0.91087079E+00 0.30000000E+03</pdfrwt>
<pdfrwt beam="2">0</pdfrwt>
<totfact> 0.62993714E-05</totfact>
</mgrwt>
<clustering>
<clus scale="   55.403">  1  6  2 -1</clus>
<clus scale="  464.563">  4  5 -1 -1</clus>
<clus scale="  300.000">  1  4  2 -1</clus>
</clustering>
</event>
<event>
 6    1  0.9131597E-012  0.3000000E+03  0.7818608E-02  0.1093470E+00
          1   -1    0    0  502    0  0.00000000000E+00  0.00000000000E+00  0.24108963874E+03  0.24108963874E+03  0.00000000000E+00 0.  1.
         13   -1    0    0    0    0 -0.00000000000E+00 -0.00000000000E+00 -0.27500000000E+03  0.27500000000E+03  0.00000000000E+00 0.  1.
    9000005    2    1    2  501    0  0.14741971908E+02  0.36107431314E+02 -0.33944135527E+02  0.47708869680E+03  0.47427876607E+03 0.  0.
         13    1    3    3    0    0 -0.12720817878E+03  0.74085382441E+02  0.17053735829E+03  0.22528549712E+03  0.00000000000E+00 0.  1.
          1    1    3    3  501    0  0.14195015069E+03 -0.37977951127E+02 -0.20448149382E+03  0.25180319967E+03  0.00000000000E+00 0.  1.
         21    1    1    2  502  501 -0.14741971908E+02 -0.36107431314E+02  0.33774266786E-01  0.39000941944E+02  0.00000000000E+00 0. -1.
<scales pt_clust_4="550.00000" pt_clust_5="550.00000" pt_clust_6="39.00093"></scales>
<mgrwt>
<rscale>  0 0.30000000E+03</rscale>
<asrwt>  1 0.39000927E+02</asrwt>
<pdfrwt beam="1">  1        1 0.87668960E+00 0.30000000E+03</pdfrwt>
<pdfrwt beam="2">0</pdfrwt>
<totfact> 0.21140879E-04</totfact>
</mgrwt>
<clustering>
<clus scale="   39.001">  1  6  2 -1</clus>
<clus scale="  474.279">  4  5 -1 -1</clus>
<clus scale="  300.000">  1  4  2 -1</clus>
</clustering>
</event>
<event>
 6    1  0.9131597E-012  0.3000000E+03  0.7818608E-02  0.1093470E+00
          1   -1    0    0  502    0  0.00000000000E+00  0.00000000000E+00  0.24104138243E+03  0.24104138243E+03  0.00000000000E+00 0.  1.
         13   -1    0    0    0    0 -0.00000000000E+00 -0.00000000000E+00 -0.27500000000E+03  0.27500000000E+03  0.00000000000E+00 0.  1.
    9000005    2    1    2  501    0 -0.17751667612E+02  0.31875202828E+02 -0.23905081029E+02  0.47819664891E+03  0.47620314140E+03 0.  0.
         13    1    3    3    0    0 -0.14997963234E+03 -0.14992189493E+03  0.84930672732E+02  0.22843748350E+03  0.00000000000E+00 0.  1.
          3    1    3    3  501    0  0.13222796473E+03  0.18179709776E+03 -0.10883575376E+03  0.24975916541E+03  0.00000000000E+00 0.  1.
         21    1    1    2  502  501  0.17751667612E+02 -0.31875202828E+02 -0.10053536537E+02  0.37844733520E+02  0.00000000000E+00 0. -1.
<scales pt_clust_4="550.00000" pt_clust_5="550.00000" pt_clust_6="36.48495"></scales>
<mgrwt>
<rscale>  0 0.30000000E+03</rscale>
<asrwt>  1 0.36484950E+02</asrwt>
<pdfrwt beam="1">  1        1 0.87651412E+00 0.30000000E+03</pdfrwt>
<pdfrwt beam="2">0</pdfrwt>
<totfact> 0.21497771E-04</totfact>
</mgrwt>
<clustering>
<clus scale="   36.485">  1  6  2 -1</clus>
<clus scale="  476.203">  4  5 -1 -1</clus>
<clus scale="  300.000">  1  4  2 -1</clus>
</clustering>
</event>
