<event>
 6    1  0.9964252E-012  0.3000000E+03  0.7818608E-02  0.1093470E+00
          1   -1    0    0  502    0  0.00000000000E+00  0.00000000000E+00  0.25467192991E+03  0.25467192991E+03  0.00000000000E+00 0.  1.
         13   -1    0    0    0    0 -0.00000000000E+00 -0.00000000000E+00 -0.27500000000E+03  0.27500000000E+03  0.00000000000E+00 0.  1.
    9000005    2    1    2  501    0 -0.56304308883E+02 -0.43177520918E+01 -0.45861920283E+02  0.46769777653E+03  0.46200549375E+03 0.  0.
         13    1    3    3    0    0  0.29455328292E+02  0.12183103512E+03  0.16514773837E+03  0.20732629590E+03  0.00000000000E+00 0.  1.
          1    1    3    3  501    0 -0.85759637174E+02 -0.12614878721E+03 -0.21100965865E+03  0.26037148063E+03  0.00000000000E+00 0.  1.
         21    1    1    2  502  501  0.56304308883E+02  0.43177520918E+01  0.25533850198E+02  0.61974153385E+02  0.00000000000E+00 0. -1.
<scales pt_clust_4="550.00000" pt_clust_5="550.00000" pt_clust_6="56.46962"></scales>
<mgrwt>
<rscale>  0 0.30000000E+03</rscale>
<asrwt>  1 0.56469622E+02</asrwt>
<pdfrwt beam="1">  1        1 0.92607975E+00 0.30000000E+03</pdfrwt>
<pdfrwt beam="2">0</pdfrwt>
<totfact> 0.28597553E-05</totfact>
</mgrwt>
<clustering>
<clus scale="   56.470">  1  6  2 -1</clus>
<clus scale="  462.005">  4  5 -1 -1</clus>
<clus scale="  300.000">  1  4  2 -1</clus>
</clustering>
</event>
<event>
 6    1  0.9964252E-012  0.3000000E+03  0.7818608E-02  0.1093470E+00
          1   -1    0    0  502    0  0.00000000000E+00  0.00000000000E+00  0.25219522979E+03  0.25219522979E+03  0.00000000000E+00 0.  1.
         13   -1    0    0    0    0 -0.00000000000E+00 -0.00000000000E+00 -0.27500000000E+03  0.27500000000E+03  0.00000000000E+00 0.  1.
    9000005    2    1    2  501    0 -0.27480322728E+02  0.37930408186E+02 -0.28159753534E+02  0.48005119677E+03  0.47693007433E+03 0.  0.
         13    1    3    3    0    0 -0.12347738281E+03  0.34598627617E+02 -0.22615820677E+03  0.25998319867E+03  0.00000000000E+00 0.  1.
          3    1    3    3  501    0  0.95997060080E+02  0.33317805697E+01  0.19799845324E+03  0.22006799811E+03  0.00000000000E+00 0.  1.
         21    1    1    2  502  501  0.27480322728E+02 -0.37930408186E+02  0.53549833229E+01  0.47144033014E+02  0.00000000000E+00 0.  1.
<scales pt_clust_4="550.00000" pt_clust_5="550.00000" pt_clust_6="46.83892"></scales>
<mgrwt>
<rscale>  0 0.30000000E+03</rscale>
<asrwt>  1 0.46838915E+02</asrwt>
<pdfrwt beam="1">  1        1 0.91707356E+00 0.30000000E+03</pdfrwt>
<pdfrwt beam="2">0</pdfrwt>
<totfact> 0.46023388E-05</totfact>
</mgrwt>
<clustering>
<clus scale="   46.839">  1  6  2 -1</clus>
<clus scale="  476.930">  4  5 -1 -1</clus>
<clus scale="  300.000">  1  4  2 -1</clus>
</clustering>
</event>
<event>
 6    1  0.9964252E-012  0.3000000E+03  0.7818608E-02  0.1093470E+00
          1   -1    0    0  502    0  0.00000000000E+00  0.00000000000E+00  0.22553073755E+03  0.22553073755E+03  0.00000000000E+00 0.  1.
         13   -1    0    0    0    0 -0.00000000000E+00 -0.00000000000E+00 -0.27500000000E+03  0.27500000000E+03  0.00000000000E+00 0.  1.
    9000005    2    1    2  501    0 -0.75459531120E+00 -0.32579098879E+02 -0.54542545134E+02  0.46755036013E+03  0.46321321541E+03 0.  0.
         13    1    3    3    0    0 -0.20272733808E+03 -0.11153676482E+03  0.32928838288E+02  0.23371592137E+03  0.00000000000E+00 0.  1.
          3    1    3    3  501    0  0.20197274277E+03  0.78957665939E+02 -0.87471383422E+02  0.23383443876E+03  0.00000000000E+00 0.  1.
         21    1    1    2  502  501  0.75459531120E+00  0.32579098879E+02  0.50732826844E+01  0.32980377424E+02  0.00000000000E+00 0.  1.
<scales pt_clust_4="550.00000" pt_clust_5="550.00000" pt_clust_6="32.58784"></scales>
<mgrwt>
<rscale>  0 0.30000000E+03</rscale>
<asrwt>  1 0.32587837E+02</asrwt>
<pdfrwt beam="1">  1        1 0.82011177E+00 0.30000000E+03</pdfrwt>
<pdfrwt beam="2">0</pdfrwt>
<totfact> 0.73144705E-04</totfact>
</mgrwt>
<clustering>
<clus scale="   32.588">  1  6  2 -1</clus>
<clus scale="  463.213">  4  5 -1 -1</clus>
<clus scale="  300.000">  1  4  2 -1</clus>
</clustering>
</event>
<event>
 6    1  0.9964252E-012  0.3000000E+03  0.7818608E-02  0.1093470E+00
          1   -1    0    0  502    0  0.00000000000E+00  0.00000000000E+00  0.22838184452E+03  0.22838184452E+03  0.00000000000E+00 0.  1.
         13   -1    0    0    0    0 -0.00000000000E+00 -0.00000000000E+00 -0.27500000000E+03  0.27500000000E+03  0.00000000000E+00 0.  1.
    9000005    2    1    2  501    0 -0.16489225608E+02  0.38201511081E+02 -0.39262699810E+02  0.46112840989E+03  0.45756595241E+03 0.  0.
         13    1    3    3    0    0 -0.77470920414E+02 -0.81654164503E+02  0.17505228385E+03  0.20811642936E+03  0.00000000000E+00 0.  1.
          3    1    3    3  501    0  0.60981694806E+02  0.11985567558E+03 -0.21431498366E+03  0.25301198053E+03  0.00000000000E+00 0.  1.
         21    1    1    2  502  501  0.16489225608E+02 -0.38201511081E+02 -0.73554556684E+01  0.42253434631E+02  0.00000000000E+00 0. -1.
<scales pt_clust_4="550.00000" pt_clust_5="550.00000" pt_clust_6="41.60831"></scales>
<mgrwt>
<rscale>  0 0.30000000E+03</rscale>
<asrwt>  1 0.41608313E+02</asrwt>
<pdfrwt beam="1">  1        1 0.83047943E+00 0.30000000E+03</pdfrwt>
<pdfrwt beam="2">0</pdfrwt>
<totfact> 0.56734405E-04</totfact>
</mgrwt>
<clustering>
<clus scale="   41.608">  1  6  2 -1</clus>
<clus scale="  457.566">  4  5 -1 -1</clus>
<clus scale="  300.000">  1  4  2 -1</clus>
</clustering>
</event>
<event>
 6    1  0.9964252E-012  0.3000000E+03  0.7818608E-02  0.1093470E+00
          1   -1    0    0  502    0  0.00000000000E+00  0.00000000000E+00  0.23481036259E+03  0.23481036259E+03  0.00000000000E+00 0.  1.
         13   -1    0    0    0    0 -0.00000000000E+00 -0.00000000000E+00 -0.27500000000E+03  0.27500000000E+03  0.00000000000E+00 0.  1.
    9000005    2    1    2  501    0 -0.16802248385E+02  0.44035446063E+02 -0.51088481696E+02  0.46143453322E+03  0.45616922235E+03 0.  0.
         13    1    3    3    0    0  0.53926398326E+02 -0.17392691750E+03  0.78369758432E+02  0.19824340621E+03  0.00000000000E+00 0.  1.
          1    1    3    3  501    0 -0.70728646711E+02  0.21796236357E+03 -0.12945824013E+03  0.26319112701E+03  0.00000000000E+00 0.  1.
         21    1    1    2  502  501  0.16802248385E+02 -0.44035446063E+02  0.10898844283E+02  0.48375829372E+02  0.00000000000E+00 0. -1.
<scales pt_clust_4="550.00000" pt_clust_5="550.00000" pt_clust_6="47.13211"></scales>
<mgrwt>
<rscale>  0 0.30000000E+03</rscale>
<asrwt>  1 0.47132113E+02</asrwt>
<pdfrwt beam="1">  1        1 0.85385586E+00 0.30000000E+03</pdfrwt>
<pdfrwt beam="2">0</pdfrwt>
<totfact> 0.35415134E-04</totfact>
</mgrwt>
<clustering>
<clus scale="   47.132">  1  6  2 -1</clus>
<clus scale="  456.169">  4  5 -1 -1</clus>
<clus scale="  300.000">  1  4  2 -1</clus>
</clustering>
</event>
<event>
 6    1  0.9964252E-012  0.3000000E+03  0.7818608E-02  0.1093470E+00
          1   -1    0    0  502    0  0.00000000000E+00  0.00000000000E+00  0.24972827034E+03  0.24972827034E+03  0.00000000000E+00 0.  1.
         13   -1    0    0    0    0 -0.00000000000E+00 -0.00000000000E+00 -0.27500000000E+03  0.27500000000E+03  0.00000000000E+00 0.  1.
    9000005    2    1    2  501    0  0.22743460603E+02 -0.19875388196E+02 -0.65845990067E+02  0.47414599416E+03  0.46857916440E+03 0.  0.
         13    1    3    3    0    0  0.57580635573E+02  0.19621994051E+03  0.70456206403E+02  0.21629117335E+03  0.00000000000E+00 0.  1.
          3    1    3    3  501    0 -0.34837174970E+02 -0.21609532871E+03 -0.13630219647E+03  0.25785482081E+03  0.00000000000E+00 0.  1.
         21    1    1    2  502  501 -0.22743460603E+02  0.19875388196E+02  0.40574260403E+02  0.50582276179E+02  0.00000000000E+00 0.  1.
<scales pt_clust_4="550.00000" pt_clust_5="550.00000" pt_clust_6="30.20424"></scales>
<mgrwt>
<rscale>  0 0.30000000E+03</rscale>
<asrwt>  1 0.30204239E+02</asrwt>
<pdfrwt beam="1">  1        1 0.90810280E+00 0.30000000E+03</pdfrwt>
<pdfrwt beam="2">0</pdfrwt>
<totfact> 0.81904789E-05</totfact>
</mgrwt>
<clustering>
<clus scale="   30.204">  1  6  2 -1</clus>
<clus scale="  468.579">  4  5 -1 -1</clus>
<clus scale="  300.000">  1  4  2 -1</clus>
</clustering>
</event>
<event>
 6    1  0.9964252E-012  0.3000000E+03  0.7818608E-02  0.1093470E+00
          1   -1    0    0  502    0  0.00000000000E+00  0.00000000000E+00  0.24178362567E+03  0.24178362567E+03  0.00000000000E+00 0.  1.
         13   -1    0    0    0    0 -0.00000000000E+00 -0.00000000000E+00 -0.27500000000E+03  0.27500000000E+03  0.00000000000E+00 0.  1.
    9000005    2    1    2  501    0  0.33289965838E+02  0.25445679454E+02 -0.56432478422E+02  0.46888068299E+03  0.46358253400E+03 0.  0.
         13    1    3    3    0    0  0.10204414487E+03 -0.92965906104E+02  0.16090637911E+03  0.21200596699E+03  0.00000000000E+00 0.  1.
          3    1    3    3  501    0 -0.68754179036E+02  0.11841158556E+03 -0.21733885753E+03  0.25687471600E+03  0.00000000000E+00 0.  1.
         21    1    1    2  502  501 -0.33289965838E+02 -0.25445679454E+02  0.23216104093E+02  0.47902942683E+02  0.00000000000E+00 0. -1.
<scales pt_clust_4="550.00000" pt_clust_5="550.00000" pt_clust_6="41.90113"></scales>
<mgrwt>
<rscale>  0 0.30000000E+03</rscale>
<asrwt>  1 0.41901127E+02</asrwt>
<pdfrwt beam="1">  1        1 0.87921318E+00 0.30000000E+03</pdfrwt>
<pdfrwt beam="2">0</pdfrwt>
<totfact> 0.19520447E-04</totfact>
</mgrwt>
<clustering>
<clus scale="   41.901">  1  6  2 -1</clus>
<clus scale="  463.583">  4  5 -1 -1</clus>
<clus scale="  300.000">  1  4  2 -1</clus>
</clustering>
</event>
<event>
 6    1  0.9964252E-012  0.3000000E+03  0.7818608E-02  0.1093470E+00
          1   -1    0    0  502    0  0.00000000000E+00  0.00000000000E+00  0.27337590832E+03  0.27337590832E+03  0.00000000000E+00 0.  1.
         13   -1    0    0    0    0 -0.00000000000E+00 -0.00000000000E+00 -0.27500000000E+03  0.27500000000E+03  0.00000000000E+00 0.  1.
    9000005    2    1    2  501    0  0.18681474335E+02 -0.23677607475E+02 -0.36904529897E+02  0.50196108418E+03  0.49969326504E+03 0.  0.
         13    1    3    3    0    0 -0.13720588066E+03 -0.11193503763E+03 -0.19474096700E+03  0.26320894848E+03  0.00000000000E+00 0.  1.
          1    1    3    3  501    0  0.15588735499E+03  0.88257430152E+02  0.15783643710E+03  0.23875213570E+03  0.00000000000E+00 0.  1.
         21    1    1    2  502  501 -0.18681474335E+02  0.23677607475E+02  0.35280438221E+02  0.46414824142E+02  0.00000000000E+00 0.  1.
<scales pt_clust_4="550.00000" pt_clust_5="550.00000" pt_clust_6="30.16002"></scales>
<mgrwt>
<rscale>  0 0.30000000E+03</rscale>
<asrwt>  1 0.30160016E+02</asrwt>
<pdfrwt beam="1">  1        1 0.99409421E+00 0.30000000E+03</pdfrwt>
<pdfrwt beam="2">0</pdfrwt>
<totfact> 0.40763041E-07</totfact>
</mgrwt>
<clustering>
<clus scale="   30.160">  1  6  2 -1</clus>
<clus scale="  499.693">  4  5 -1 -1</clus>
<clus scale="  300.000">  1  4  2 -1</clus>
</clustering>
</event>
<event>
 6    1  0.9964252E-012  0.3000000E+03  0.7818608E-02  0.1093470E+00
          1   -1    0    0  502    0  0.00000000000E+00  0.00000000000E+00  0.23775304693E+03  0.23775304693E+03  0.00000000000E+00 0.  1.
         13   -1    0    0    0    0 -0.00000000000E+00 -0.00000000000E+00 -0.27500000000E+03  0.27500000000E+03  0.00000000000E+00 0.  1.
    9000005    2    1    2  501    0 -0.82086811978E+01  0.30549850594E+02 -0.66147604206E+02  0.46990536958E+03  0.46414962566E+03 0.  0.
         13    1    3    3    0    0 -0.20431100844E+03 -0.96008790960E+02 -0.70413458582E+02  0.23647141743E+03  0.00000000000E+00 0.  1.
          3    1    3    3  501    0  0.19610232724E+03  0.12655864155E+03  0.42658543767E+01  0.23343395215E+03  0.00000000000E+00 0.  1.
         21    1    1    2  502  501  0.82086811978E+01 -0.30549850594E+02  0.28900651140E+02  0.42847677355E+02  0.00000000000E+00 0.  1.
<scales pt_clust_4="550.00000" pt_clust_5="550.00000" pt_clust_6="31.63346"></scales>
<mgrwt>
<rscale>  0 0.30000000E+03</rscale>
<asrwt>  1 0.31633460E+02</asrwt>
<pdfrwt beam="1">  1        1 0.86455653E+00 0.30000000E+03</pdfrwt>
<pdfrwt beam="2">0</pdfrwt>
<totfact> 0.29443050E-04</totfact>
</mgrwt>
<clustering>
<clus scale="   31.633">  1  6  2 -1</clus>
<clus scale="  464.150">  4  5 -1 -1</clus>
<clus scale="  300.000">  1  4  2 -1</clus>
</clustering>
</event>
<event>
 6    1  0.9964252E-012  0.3000000E+03  0.7818608E-02  0.1093470E+00
          1   -1    0    0  502    0  0.00000000000E+00  0.00000000000E+00  0.24464497392E+03  0.24464497392E+03  0.00000000000E+00 0.  1.
         13   -1    0    0    0    0 -0.00000000000E+00 -0.00000000000E+00 -0.27500000000E+03  0.27500000000E+03  0.00000000000E+00 0.  1.
    9000005    2    1    2  501    0  0.19612538495E+02  0.25211635704E+02 -0.55814509827E+02  0.47879814352E+03  0.47445982389E+03 0.  0.
         13    1    3    3    0    0  0.64877691754E+02  0.20843876687E+03 -0.15293252768E+03  0.26654116463E+03  0.00000000000E+00 0.  1.
          3    1    3    3  501    0 -0.45265153259E+02 -0.18322713116E+03  0.97118017856E+02  0.21225697889E+03  0.00000000000E+00 0.  1.
         21    1    1    2  502  501 -0.19612538495E+02 -0.25211635704E+02  0.25459483746E+02  0.40846830400E+02  0.00000000000E+00 0. -1.
<scales pt_clust_4="550.00000" pt_clust_5="550.00000" pt_clust_6="31.94179"></scales>
<mgrwt>
<rscale>  0 0.30000000E+03</rscale>
<asrwt>  1 0.31941795E+02</asrwt>
<pdfrwt beam="1">  1        1 0.88961809E+00 0.30000000E+03</pdfrwt>
<pdfrwt beam="2">0</pdfrwt>
<totfact> 0.14922081E-04</totfact>
</mgrwt>
<clustering>
<clus scale="   31.942">  1  6  2 -1</clus>
<clus scale="  474.460">  4  5 -1 -1</clus>
<clus scale="  300.000">  1  4  2 -1</clus>
</clustering>
</event>
<event>
 6    1  0.9964252E-012  0.3000000E+03  0.7818608E-02  0.1093470E+00
          1   -1    0    0  502    0  0.00000000000E+00  0.00000000000E+00  0.22991114101E+03  0.22991114101E+03  0.00000000000E+00 0.  1.
         13   -1    0    0    0    0 -0.00000000000E+00 -0.00000000000E+00 -0.27500000000E+03  0.27500000000E+03  0.00000000000E+00 0.  1.
    9000005    2    1    2  501    0 -0.26517716124E+02 -0.16717623631E+02 -0.49193273811E+02  0.47329604289E+03  0.46968765985E+03 0.  0.
         13    1    3    3    0    0 -0.21736708978E+03  0.70934683860E+02  0.60279924545E+02  0.23646109701E+03  0.00000000000E+00 0.  1.
          3    1    3    3  501    0  0.19084937366E+03 -0.87652307491E+02 -0.10947319836E+03  0.23683494588E+03  0.00000000000E+00 0.  1.
         21    1    1    2  502  501  0.26517716124E+02  0.16717623631E+02  0.41044148252E+01  0.31615098123E+02  0.00000000000E+00 0. -1.
<scales pt_clust_4="550.00000" pt_clust_5="550.00000" pt_clust_6="31.34754"></scales>
<mgrwt>
<rscale>  0 0.30000000E+03</rscale>
<asrwt>  1 0.31347539E+02</asrwt>
<pdfrwt beam="1">  1        1 0.83604051E+00 0.30000000E+03</pdfrwt>
<pdfrwt beam="2">0</pdfrwt>
<totfact> 0.54283370E-04</totfact>
</mgrwt>
<clustering>
<clus scale="   31.348">  1  6  2 -1</clus>
<clus scale="  469.688">  4  5 -1 -1</clus>
<clus scale="  300.000">  1  4  2 -1</clus>
</clustering>
</event>
<event>
 6    1  0.9964252E-012  0.3000000E+03  0.7818608E-02  0.1093470E+00
          1   -1    0    0  502    0  0.00000000000E+00  0.00000000000E+00  0.24622316007E+03  0.24622316007E+03  0.00000000000E+00 0.  1.
         13   -1    0    0    0    0 -0.00000000000E+00 -0.00000000000E+00 -0.27500000000E+03  0.27500000000E+03  0.00000000000E+00 0.  1.
    9000005    2    1    2  501    0  0.30339265520E+02 -0.12559045647E+02 -0.68737522860E+02  0.46950220841E+03  0.46328099033E+03 0.  0.
         13    1    3    3    0    0  0.63094528429E+02  0.21734087663E+03 -0.71257372533E+02  0.23726691576E+03  0.00000000000E+00 0.  1.
          3    1    3    3  501    0 -0.32755262909E+02 -0.22989992228E+03  0.25198496724E+01  0.23223529266E+03  0.00000000000E+00 0.  1.
         21    1    1    2  502  501 -0.30339265520E+02  0.12559045647E+02  0.39960682927E+02  0.51720951652E+02  0.00000000000E+00 0. -1.
<scales pt_clust_4="550.00000" pt_clust_5="550.00000" pt_clust_6="32.83597"></scales>
<mgrwt>
<rscale>  0 0.30000000E+03</rscale>
<asrwt>  1 0.32835966E+02</asrwt>
<pdfrwt beam="1">  1        1 0.89535695E+00 0.30000000E+03</pdfrwt>
<pdfrwt beam="2">0</pdfrwt>
<totfact> 0.12644669E-04</totfact>
</mgrwt>
<clustering>
<clus scale="   32.836">  1  6  2 -1</clus>
<clus scale="  463.281">  4  5 -1 -1</clus>
<clus scale="  300.000">  1  4  2 -1</clus>
</clustering>
</event>
<event>
 6    1  0.9964252E-012  0.3000000E+03  0.7818608E-02  0.1093470E+00
          1   -1    0    0  502    0  0.00000000000E+00  0.00000000000E+00  0.22559861426E+03  0.22559861426E+03  0.00000000000E+00 0.  1.
         13   -1    0    0    0    0 -0.00000000000E+00 -0.00000000000E+00 -0.27500000000E+03  0.27500000000E+03  0.00000000000E+00 0.  1.
    9000005    2    1    2  501    0 -0.17737513124E+01 -0.37567958057E+02 -0.34104605437E+02  0.45999702373E+03  0.45718665779E+03 0.  0.
         13    1    3    3    0    0 -0.78508006237E+02  0.19591433937E+03  0.51033138405E+01  0.21112076929E+03  0.00000000000E+00 0.  1.
          1    1    3    3  501    0  0.76734254925E+02 -0.23348229742E+03 -0.39207919278E+02  0.24887625444E+03  0.00000000000E+00 0.  1.
         21    1    1    2  502  501  0.17737513124E+01  0.37567958057E+02 -0.15296780301E+02  0.40601590534E+02  0.00000000000E+00 0. -1.
<scales pt_clust_4="550.00000" pt_clust_5="550.00000" pt_clust_6="37.60983"></scales>
<mgrwt>
<rscale>  0 0.30000000E+03</rscale>
<asrwt>  1 0.37609827E+02</asrwt>
<pdfrwt beam="1">  1        1 0.82035860E+00 0.30000000E+03</pdfrwt>
<pdfrwt beam="2">0</pdfrwt>
<totfact> 0.70859118E-04</totfact>
</mgrwt>
<clustering>
<clus scale="   37.610">  1  6  2 -1</clus>
<clus scale="  457.187">  4  5 -1 -1</clus>
<clus scale="  300.000">  1  4  2 -1</clus>
</clustering>
</event>
<event>
 6    1  0.9964252E-012  0.3000000E+03  0.7818608E-02  0.1093470E+00
          1   -1    0    0  502    0  0.00000000000E+00  0.00000000000E+00  0.22929773214E+03  0.22929773214E+03  0.00000000000E+00 0.  1.
         13   -1    0    0    0    0 -0.00000000000E+00 -0.00000000000E+00 -0.27500000000E+03  0.27500000000E+03  0.00000000000E+00 0.  1.
    9000005    2    1    2  501    0 -0.23343832068E+02 -0.24884556884E+02 -0.62748788383E+02  0.46615642214E+03  0.46065195516E+03 0.  0.
         13    1    3    3    0    0 -0.14089752039E+03 -0.31751514353E+02  0.15917025888E+03  0.21493124768E+03  0.00000000000E+00 0.  1.
          3    1    3    3  501    0  0.11755368832E+03  0.68669574690E+01 -0.22191904726E+03  0.25122517446E+03  0.00000000000E+00 0.  1.
         21    1    1    2  502  501  0.23343832068E+02  0.24884556884E+02  0.17046520525E+02  0.38141310006E+02  0.00000000000E+00 0.  1.
<scales pt_clust_4="550.00000" pt_clust_5="550.00000" pt_clust_6="34.12002"></scales>
<mgrwt>
<rscale>  0 0.30000000E+03</rscale>
<asrwt>  1 0.34120019E+02</asrwt>
<pdfrwt beam="1">  1        1 0.83380994E+00 0.30000000E+03</pdfrwt>
<pdfrwt beam="2">0</pdfrwt>
<totfact> 0.55464428E-04</totfact>
</mgrwt>
<clustering>
<clus scale="   34.120">  1  6  2 -1</clus>
<clus scale="  460.652">  4  5 -1 -1</clus>
<clus scale="  300.000">  1  4  2 -1</clus>
</clustering>
</event>
<event>
 6    1  0.9964252E-012  0.3000000E+03  0.7818608E-02  0.1093470E+00
          1   -1    0    0  502    0  0.00000000000E+00  0.00000000000E+00  0.23637741247E+03  0.23637741247E+03  0.00000000000E+00 0.  1.
         13   -1    0    0    0    0 -0.00000000000E+00 -0.00000000000E+00 -0.27500000000E+03  0.27500000000E+03  0.00000000000E+00 0.  1.
    9000005    2    1    2  501    0 -0.15581312254E+01 -0.33779263349E+02 -0.57601804477E+02  0.47260013715E+03  0.46785623363E+03 0.  0.
         13    1    3    3    0    0  0.10440843044E+03  0.88551440021E+02  0.15409433017E+03  0.20612506026E+03  0.00000000000E+00 0.  1.
          1    1    3    3  501    0 -0.10596656167E+03 -0.12233070337E+03 -0.21169613465E+03  0.26647507689E+03  0.00000000000E+00 0.  1.
         21    1    1    2  502  501  0.15581312254E+01  0.33779263349E+02  0.18979216949E+02  0.38777275321E+02  0.00000000000E+00 0. -1.
<scales pt_clust_4="550.00000" pt_clust_5="550.00000" pt_clust_6="33.81518"></scales>
<mgrwt>
<rscale>  0 0.30000000E+03</rscale>
<asrwt>  1 0.33815180E+02</asrwt>
<pdfrwt beam="1">  1        1 0.85955423E+00 0.30000000E+03</pdfrwt>
<pdfrwt beam="2">0</pdfrwt>
<totfact> 0.32913778E-04</totfact>
</mgrwt>
<clustering>
<clus scale="   33.815">  1  6  2 -1</clus>
<clus scale="  467.856">  4  5 -1 -1</clus>
<clus scale="  300.000">  1  4  2 -1</clus>
</clustering>
</event>
<event>
 6    1  0.9964252E-012  0.3000000E+03  0.7818608E-02  0.1093470E+00
          1   -1    0    0  502    0  0.00000000000E+00  0.00000000000E+00  0.24399210451E+03  0.24399210451E+03  0.00000000000E+00 0.  1.
         13   -1    0    0    0    0 -0.00000000000E+00 -0.00000000000E+00 -0.27500000000E+03  0.27500000000E+03  0.00000000000E+00 0.  1.
    9000005    2    1    2  501    0 -0.90452951483E+01  0.43958997768E+02 -0.42230207591E+02  0.47273033695E+03  0.46869645848E+03 0.  0.
         13    1    3    3    0    0 -0.66727843015E+02 -0.20484299748E+03 -0.19983372199E+02  0.21636218204E+03  0.00000000000E+00 0.  1.
          1    1    3    3  501    0  0.57682547867E+02  0.24880199525E+03 -0.22246835392E+02  0.25636815491E+03  0.00000000000E+00 0.  1.
         21    1    1    2  502  501  0.90452951483E+01 -0.43958997768E+02  0.11222312105E+02  0.46261767563E+02  0.00000000000E+00 0.  1.
<scales pt_clust_4="550.00000" pt_clust_5="550.00000" pt_clust_6="44.87996"></scales>
<mgrwt>
<rscale>  0 0.30000000E+03</rscale>
<asrwt>  1 0.44879960E+02</asrwt>
<pdfrwt beam="1">  1        1 0.88724402E+00 0.30000000E+03</pdfrwt>
<pdfrwt beam="2">0</pdfrwt>
<totfact> 0.15101725E-04</totfact>
</mgrwt>
<clustering>
<clus scale="   44.880">  1  6  2 -1</clus>
<clus scale="  468.696">  4  5 -1 -1</clus>
<clus scale="  300.000">  1  4  2 -1</clus>
</clustering>
</event>
<event>
 6    1  0.9964252E-012  0.3000000E+03  0.7818608E-02  0.1093470E+00
          1   -1    0    0  502    0  0.00000000000E+00  0.00000000000E+00  0.24657170601E+03  0.24657170601E+03  0.00000000000E+00 0.  1.
         13   -1    0    0    0    0 -0.00000000000E+00 -0.00000000000E+00 -0.27500000000E+03  0.27500000000E+03  0.00000000000E+00 0.  1.
    9000005    2    1    2  501    0  0.40311517376E+02 -0.41855496959E+01 -0.21340556904E+02  0.48042837999E+03  0.47823997289E+03 0.  0.
         13    1    3    3    0    0 -0.68757096284E+02 -0.76406316954E+02  0.19911676199E+03  0.22408245908E+03  0.00000000000E+00 0.  1.
          1    1    3    3  501    0  0.10906861366E+03  0.72220767258E+02 -0.22045731890E+03  0.25634592091E+03  0.00000000000E+00 0.  1.
         21    1    1    2  502  501 -0.40311517376E+02  0.41855496959E+01 -0.70877370842E+01  0.41143326025E+02  0.00000000000E+00 0. -1.
<scales pt_clust_4="550.00000" pt_clust_5="550.00000" pt_clust_6="40.52825"></scales>
<mgrwt>
<rscale>  0 0.30000000E+03</rscale>
<asrwt>  1 0.40528248E+02</asrwt>
<pdfrwt beam="1">  1        1 0.89662439E+00 0.30000000E+03</pdfrwt>
<pdfrwt beam="2">0</pdfrwt>
<totfact> 0.11770815E-04</totfact>
</mgrwt>
<clustering>
<clus scale="   40.528">  1  6  2 -1</clus>
<clus scale="  478.240">  4  5 -1 -1</clus>
<clus scale="  300.000">  1  4  2 -1</clus>
</clustering>
</event>
<event>
 6    1  0.9964252E-012  0.3000000E+03  0.7818608E-02  0.1093470E+00
          1   -1    0    0  502    0  0.00000000000E+00  0.00000000000E+00  0.23523963775E+03  0.23523963775E+03  0.00000000000E+00 0.  1.
         13   -1    0    0    0    0 -0.00000000000E+00 -0.00000000000E+00 -0.27500000000E+03  0.27500000000E+03  0.00000000000E+00 0.  1.
    9000005    2    1    2  501    0  0.20106019907E+02 -0.23861881545E+02 -0.45204469903E+02  0.47856504642E+03  0.47540237498E+03 0.  0.
         13    1    3    3    0    0 -0.14766913283E+03  0.15165545458E+03  0.50440236044E+02  0.21760001633E+03  0.00000000000E+00 0.  1.
          1    1    3    3  501    0  0.16777515274E+03 -0.17551733613E+03 -0.95644705947E+02  0.26096503009E+03  0.00000000000E+00 0.  1.
         21    1    1    2  502  501 -0.20106019907E+02  0.23861881545E+02  0.54441076496E+01  0.31674591323E+02  0.00000000000E+00 0. -1.
<scales pt_clust_4="550.00000" pt_clust_5="550.00000" pt_clust_6="31.20323"></scales>
<mgrwt>
<rscale>  0 0.30000000E+03</rscale>
<asrwt>  1 0.31203228E+02</asrwt>
<pdfrwt beam="1">  1        1 0.85541686E+00 0.30000000E+03</pdfrwt>
<pdfrwt beam="2">0</pdfrwt>
<totfact> 0.36879066E-04</totfact>
</mgrwt>
<clustering>
<clus scale="   31.203">  1  6  2 -1</clus>
<clus scale="  475.402">  4  5 -1 -1</clus>
<clus scale="  300.000">  1  4  2 -1</clus>
</clustering>
</event>
<event>
 6    1  0.9964252E-012  0.3000000E+03  0.7818608E-02  0.1093470E+00
          1   -1    0    0  502    0  0.00000000000E+00  0.00000000000E+00  0.23041142991E+03  0.23041142991E+03  0.00000000000E+00 0.  1.
         13   -1    0    0    0    0 -0.00000000000E+00 -0.00000000000E+00 -0.27500000000E+03  0.27500000000E+03  0.00000000000E+00 0.  1.
    9000005    2    1    2  501    0  0.19794972307E+02  0.28816893952E+02 -0.49075385447E+02  0.47016393613E+03  0.46628690639E+03 0.  0.
         13    1    3    3    0    0 -0.12000780173E+03 -0.83960030679E+02  0.14473980515E+03  0.20591447356E+03  0.00000000000E+00 0.  1.
          3    1    3    3  501    0  0.13980277404E+03  0.11277692463E+03 -0.19381519060E+03  0.26424946256E+03  0.00000000000E+00 0.  1.
         21    1    1    2  502  501 -0.19794972307E+02 -0.28816893952E+02  0.44868153518E+01  0.35247493779E+02  0.00000000000E+00 0. -1.
<scales pt_clust_4="550.00000" pt_clust_5="550.00000" pt_clust_6="34.96075"></scales>
<mgrwt>
<rscale>  0 0.30000000E+03</rscale>
<asrwt>  1 0.34960754E+02</asrwt>
<pdfrwt beam="1">  1        1 0.83785975E+00 0.30000000E+03</pdfrwt>
<pdfrwt beam="2">0</pdfrwt>
<totfact> 0.51579924E-04</totfact>
</mgrwt>
<clustering>
<clus scale="   34.961">  1  6  2 -1</clus>
<clus scale="  466.287">  4  5 -1 -1</clus>
<clus scale="  300.000">  1  4  2 -1</clus>
</clustering>
</event>
<event>
 6    1  0.9964252E-012  0.3000000E+03  0.7818608E-02  0.1093470E+00
          1   -1    0    0  502    0  0.00000000000E+00  0.00000000000E+00  0.23091113676E+03  0.23091113676E+03  0.00000000000E+00 0.  1.
         13   -1    0    0    0    0 -0.00000000000E+00 -0.00000000000E+00 -0.27500000000E+03  0.27500000000E+03  0.00000000000E+00 0.  1.
    9000005    2    1    2  501    0 -0.21251183756E+01 -0.36200965621E+02 -0.58974881903E+02  0.46671139707E+03  0.46154790154E+03 0.  0.
         13    1    3    3    0    0  0.22930455191E+03 -0.13686578587E+02 -0.16161337190E+02  0.23028045679E+03  0.00000000000E+00 0.  1.
          3    1    3    3  501    0 -0.23142967028E+03 -0.22514387034E+02 -0.42813544712E+02  0.23643094028E+03  0.00000000000E+00 0.  1.
         21    1    1    2  502  501  0.21251183756E+01  0.36200965621E+02  0.14886018661E+02  0.39199739688E+02  0.00000000000E+00 0. -1.
<scales pt_clust_4="550.00000" pt_clust_5="550.00000" pt_clust_6="36.26329"></scales>
<mgrwt>
<rscale>  0 0.30000000E+03</rscale>
<asrwt>  1 0.36263288E+02</asrwt>
<pdfrwt beam="1">  1        1 0.83967686E+00 0.30000000E+03</pdfrwt>
<pdfrwt beam="2">0</pdfrwt>
<totfact> 0.49658103E-04</totfact>
</mgrwt>
<clustering>
<clus scale="   36.263">  1  6  2 -1</clus>
<clus scale="  461.548">  4  5 -1 -1</clus>
<clus scale="  300.000">  1  4  2 -1</clus>
</clustering>
</event>
<event>
 6    1  0.9964252E-012  0.3000000E+03  0.7818608E-02  0.1093470E+00
          1   -1    0    0  502    0  0.00000000000E+00  0.00000000000E+00  0.22655906376E+03  0.22655906376E+03  0.00000000000E+00 0.  1.
         13   -1    0    0    0    0 -0.00000000000E+00 -0.00000000000E+00 -0.27500000000E+03  0.27500000000E+03  0.00000000000E+00 0.  1.
    9000005    2    1    2  501    0 -0.23958494706E+02  0.20668181430E+02 -0.41152878743E+02  0.46908909342E+03  0.46620793102E+03 0.  0.
         13    1    3    3    0    0 -0.33746751984E+02  0.11635675401E+03  0.18624626335E+03  0.22218327589E+03  0.00000000000E+00 0.  1.
          1    1    3    3  501    0  0.97882572781E+01 -0.95688572584E+02 -0.22739914209E+03  0.24690581753E+03  0.00000000000E+00 0.  1.
         21    1    1    2  502  501  0.23958494706E+02 -0.20668181430E+02 -0.72880574943E+01  0.32469970345E+02  0.00000000000E+00 0. -1.
<scales pt_clust_4="550.00000" pt_clust_5="550.00000" pt_clust_6="31.64149"></scales>
<mgrwt>
<rscale>  0 0.30000000E+03</rscale>
<asrwt>  1 0.31641495E+02</asrwt>
<pdfrwt beam="1">  1        1 0.82385114E+00 0.30000000E+03</pdfrwt>
<pdfrwt beam="2">0</pdfrwt>
<totfact> 0.68165312E-04</totfact>
</mgrwt>
<clustering>
<clus scale="   31.641">  1  6  2 -1</clus>
<clus scale="  466.208">  4  5 -1 -1</clus>
<clus scale="  300.000">  1  4  2 -1</clus>
</clustering>
</event>
<event>
 6    1  0.9964252E-012  0.3000000E+03  0.7818608E-02  0.1093470E+00
          1   -1    0    0  502    0  0.00000000000E+00  0.00000000000E+00  0.23489069379E+03  0.23489069379E+03  0.00000000000E+00 0.  1.
         13   -1    0    0    0    0 -0.00000000000E+00 -0.00000000000E+00 -0.27500000000E+03  0.27500000000E+03  0.00000000000E+00 0.  1.
    9000005    2    1    2  501    0  0.38801799458E+02  0.39566305992E+00 -0.38939469362E+02  0.47106924729E+03  0.46785063565E+03 0.  0.
         13    1    3    3    0    0 -0.28536593408E+02  0.15122039577E+03 -0.19187627417E+03  0.24596432638E+03  0.00000000000E+00 0.  1.
          1    1    3    3  501    0  0.67338392866E+02 -0.15082473271E+03  0.15293680481E+03  0.22510492091E+03  0.00000000000E+00 0.  1.
         21    1    1    2  502  501 -0.38801799458E+02 -0.39566305992E+00 -0.11698368454E+01  0.38821446504E+02  0.00000000000E+00 0. -1.
<scales pt_clust_4="550.00000" pt_clust_5="550.00000" pt_clust_6="38.80382"></scales>
<mgrwt>
<rscale>  0 0.30000000E+03</rscale>
<asrwt>  1 0.38803817E+02</asrwt>
<pdfrwt beam="1">  1        1 0.85414798E+00 0.30000000E+03</pdfrwt>
<pdfrwt beam="2">0</pdfrwt>
<totfact> 0.36439705E-04</totfact>
</mgrwt>
<clustering>
<clus scale="   38.804">  1  6  2 -1</clus>
<clus scale="  467.851">  4  5 -1 -1</clus>
<clus scale="  300.000">  1  4  2 -1</clus>
</clustering>
</event>
<event>
 6    1  0.9964252E-012  0.3000000E+03  0.7818608E-02  0.1093470E+00
          1   -1    0    0  502    0  0.00000000000E+00  0.00000000000E+00  0.24231609888E+03  0.24231609888E+03  0.00000000000E+00 0.  1.
         13   -1    0    0    0    0 -0.00000000000E+00 -0.00000000000E+00 -0.27500000000E+03  0.27500000000E+03  0.00000000000E+00 0.  1.
    9000005    2    1    2  501    0  0.26790475734E+02  0.24754540561E+02 -0.60411976703E+02  0.47149729222E+03  0.46618619968E+03 0.  0.
         13    1    3    3    0    0 -0.93965900008E+02 -0.17137498749E+03 -0.12535709391E+03  0.23219254445E+03  0.00000000000E+00 0.  1.
          3    1    3    3  501    0  0.12075637574E+03  0.19612952806E+03  0.64945117204E+02  0.23930474777E+03  0.00000000000E+00 0.  1.
         21    1    1    2  502  501 -0.26790475734E+02 -0.24754540561E+02  0.27728075582E+02  0.45818806662E+02  0.00000000000E+00 0.  1.
<scales pt_clust_4="550.00000" pt_clust_5="550.00000" pt_clust_6="36.47625"></scales>
<mgrwt>
<rscale>  0 0.30000000E+03</rscale>
<asrwt>  1 0.36476251E+02</asrwt>
<pdfrwt beam="1">  1        1 0.88114945E+00 0.30000000E+03</pdfrwt>
<pdfrwt beam="2">0</pdfrwt>
<totfact> 0.18946974E-04</totfact>
</mgrwt>
<clustering>
<clus scale="   36.476">  1  6  2 -1</clus>
<clus scale="  466.186">  4  5 -1 -1</clus>
<clus scale="  300.000">  1  4  2 -1</clus>
</clustering>
</event>
<event>
 6    1  0.9964252E-012  0.3000000E+03  0.7818608E-02  0.1093470E+00
          1   -1    0    0  502    0  0.00000000000E+00  0.00000000000E+00  0.23523265806E+03  0.23523265806E+03  0.00000000000E+00 0.  1.
         13   -1    0    0    0    0 -0.00000000000E+00 -0.00000000000E+00 -0.27500000000E+03  0.27500000000E+03  0.00000000000E+00 0.  1.
    9000005    2    1    2  501    0 -0.30248845531E+01  0.32938292033E+02 -0.54680869510E+02  0.47394913131E+03  0.46962080509E+03 0.  0.
         13    1    3    3    0    0 -0.98761821164E+02 -0.36913860110E+02 -0.23534503800E+03  0.25788334048E+03  0.00000000000E+00 0.  1.
          3    1    3    3  501    0  0.95736936611E+02  0.69852152143E+02  0.18066416849E+03  0.21606579083E+03  0.00000000000E+00 0.  1.
         21    1    1    2  502  501  0.30248845531E+01 -0.32938292033E+02  0.14913527567E+02  0.36283526746E+02  0.00000000000E+00 0. -1.
<scales pt_clust_4="550.00000" pt_clust_5="550.00000" pt_clust_6="33.07690"></scales>
<mgrwt>
<rscale>  0 0.30000000E+03</rscale>
<asrwt>  1 0.33076895E+02</asrwt>
<pdfrwt beam="1">  1        1 0.85539148E+00 0.30000000E+03</pdfrwt>
<pdfrwt beam="2">0</pdfrwt>
<totfact> 0.36493905E-04</totfact>
</mgrwt>
<clustering>
<clus scale="   33.077">  1  6  2 -1</clus>
<clus scale="  469.621">  4  5 -1 -1</clus>
<clus scale="  300.000">  1  4  2 -1</clus>
</clustering>
</event>
<event>
 6    1  0.9964252E-012  0.3000000E+03  0.7818608E-02  0.1093470E+00
          1   -1    0    0  502    0  0.00000000000E+00  0.00000000000E+00  0.24373138303E+03  0.24373138303E+03  0.00000000000E+00 0.  1.
         13   -1    0    0    0    0 -0.00000000000E+00 -0.00000000000E+00 -0.27500000000E+03  0.27500000000E+03  0.00000000000E+00 0.  1.
    9000005    2    1    2  501    0 -0.31434169331E+02 -0.51706211099E+01 -0.48652357032E+02  0.48244038218E+03  0.47892257014E+03 0.  0.
         13    1    3    3    0    0  0.81428691088E+02  0.58211038483E+02 -0.23506743368E+03  0.25549139929E+03  0.00000000000E+00 0.  1.
          1    1    3    3  501    0 -0.11286286042E+03 -0.63381659593E+02  0.18641507665E+03  0.22694898289E+03  0.00000000000E+00 0.  1.
         21    1    1    2  502  501  0.31434169331E+02  0.51706211099E+01  0.17383740066E+02  0.36291000853E+02  0.00000000000E+00 0.  1.
<scales pt_clust_4="550.00000" pt_clust_5="550.00000" pt_clust_6="31.85659"></scales>
<mgrwt>
<rscale>  0 0.30000000E+03</rscale>
<asrwt>  1 0.31856590E+02</asrwt>
<pdfrwt beam="1">  1        1 0.88629594E+00 0.30000000E+03</pdfrwt>
<pdfrwt beam="2">0</pdfrwt>
<totfact> 0.16579641E-04</totfact>
</mgrwt>
<clustering>
<clus scale="   31.857">  1  6  2 -1</clus>
<clus scale="  478.923">  4  5 -1 -1</clus>
<clus scale="  300.000">  1  4  2 -1</clus>
</clustering>
</event>
<event>
 6    1  0.9964252E-012  0.3000000E+03  0.7818608E-02  0.1093470E+00
          1   -1    0    0  502    0  0.00000000000E+00  0.00000000000E+00  0.23034695015E+03  0.23034695015E+03  0.00000000000E+00 0.  1.
         13   -1    0    0    0    0 -0.00000000000E+00 -0.00000000000E+00 -0.27500000000E+03  0.27500000000E+03  0.00000000000E+00 0.  1.
    9000005    2    1    2  501    0  0.29312076696E+02  0.88824094864E+01 -0.71173353330E+02  0.46483248934E+03  0.45832903233E+03 0.  0.
         13    1    3    3    0    0  0.14351565017E+03  0.19429126796E+03 -0.40628568566E+02  0.24494186909E+03  0.00000000000E+00 0.  1.
          3    1    3    3  501    0 -0.11420357347E+03 -0.18540885848E+03 -0.30544784764E+02  0.21989062024E+03  0.00000000000E+00 0.  1.
         21    1    1    2  502  501 -0.29312076696E+02 -0.88824094864E+01  0.26520303482E+02  0.40514460817E+02  0.00000000000E+00 0.  1.
<scales pt_clust_4="550.00000" pt_clust_5="550.00000" pt_clust_6="30.62834"></scales>
<mgrwt>
<rscale>  0 0.30000000E+03</rscale>
<asrwt>  1 0.30628337E+02</asrwt>
<pdfrwt beam="1">  1        1 0.83762527E+00 0.30000000E+03</pdfrwt>
<pdfrwt beam="2">0</pdfrwt>
<totfact> 0.53098057E-04</totfact>
</mgrwt>
<clustering>
<clus scale="   30.628">  1  6  2 -1</clus>
<clus scale="  458.329">  4  5 -1 -1</clus>
<clus scale="  300.000">  1  4  2 -1</clus>
</clustering>
</event>
<event>
 6    1  0.9964252E-012  0.3000000E+03  0.7818608E-02  0.1093470E+00
          1   -1    0    0  502    0  0.00000000000E+00  0.00000000000E+00  0.24778288921E+03  0.24778288921E+03  0.00000000000E+00 0.  1.
         13   -1    0    0    0    0 -0.00000000000E+00 -0.00000000000E+00 -0.27500000000E+03  0.27500000000E+03  0.00000000000E+00 0.  1.
    9000005    2    1    2  501    0 -0.30336477406E+02  0.14675158004E+02 -0.63427051017E+02  0.47331752865E+03  0.46783632822E+03 0.  0.
         13    1    3    3    0    0 -0.17647215108E+03  0.17214745275E+03 -0.76389346137E+02  0.25809397087E+03  0.00000000000E+00 0.  1.
          1    1    3    3  501    0  0.14613567367E+03 -0.15747229474E+03  0.12962295120E+02  0.21522355779E+03  0.00000000000E+00 0.  1.
         21    1    1    2  502  501  0.30336477406E+02 -0.14675158004E+02  0.36209940232E+02  0.49465360561E+02  0.00000000000E+00 0.  1.
<scales pt_clust_4="550.00000" pt_clust_5="550.00000" pt_clust_6="33.69959"></scales>
<mgrwt>
<rscale>  0 0.30000000E+03</rscale>
<asrwt>  1 0.33699586E+02</asrwt>
<pdfrwt beam="1">  1        1 0.90102869E+00 0.30000000E+03</pdfrwt>
<pdfrwt beam="2">0</pdfrwt>
<totfact> 0.10786016E-04</totfact>
</mgrwt>
<clustering>
<clus scale="   33.700">  1  6  2 -1</clus>
<clus scale="  467.836">  4  5 -1 -1</clus>
<clus scale="  300.000">  1  4  2 -1</clus>
</clustering>
</event>
<event>
 6    1  0.9964252E-012  0.3000000E+03  0.7818608E-02  0.1093470E+00
          1   -1    0    0  502    0  0.00000000000E+00  0.00000000000E+00  0.23998803590E+03  0.23998803590E+03  0.00000000000E+00 0.  1.
         13   -1    0    0    0    0 -0.00000000000E+00 -0.00000000000E+00 -0.27500000000E+03  0.27500000000E+03  0.00000000000E+00 0.  1.
    9000005    2    1    2  501    0 -0.35903097575E+02 -0.51752482770E+01 -0.64642369525E+02  0.46815026764E+03  0.46224476367E+03 0.  0.
         13    1    3    3    0    0  0.63547970018E+02 -0.21643107810E+03 -0.64673904902E+02  0.23465606755E+03  0.00000000000E+00 0.  1.
          1    1    3    3  501    0 -0.99451067593E+02  0.21125582983E+03  0.31535376864E-01  0.23349420009E+03  0.00000000000E+00 0.  1.
         21    1    1    2  502  501  0.35903097575E+02  0.51752482770E+01  0.29630405424E+02  0.46837768263E+02  0.00000000000E+00 0.  1.
<scales pt_clust_4="550.00000" pt_clust_5="550.00000" pt_clust_6="36.27417"></scales>
<mgrwt>
<rscale>  0 0.30000000E+03</rscale>
<asrwt>  1 0.36274173E+02</asrwt>
<pdfrwt beam="1">  1        1 0.87268377E+00 0.30000000E+03</pdfrwt>
<pdfrwt beam="2">0</pdfrwt>
<totfact> 0.23617313E-04</totfact>
</mgrwt>
<clustering>
<clus scale="   36.274">  1  6  2 -1</clus>
<clus scale="  462.245">  4  5 -1 -1</clus>
<clus scale="  300.000">  1  4  2 -1</clus>
</clustering>
</event>
<event>
 6    1  0.9964252E-012  0.3000000E+03  0.7818608E-02  0.1093470E+00
          1   -1    0    0  502    0  0.00000000000E+00  0.00000000000E+00  0.23113366609E+03  0.23113366609E+03  0.00000000000E+00 0.  1.
         13   -1    0    0    0    0 -0.00000000000E+00 -0.00000000000E+00 -0.27500000000E+03  0.27500000000E+03  0.00000000000E+00 0.  1.
    9000005    2    1    2  501    0  0.35176296996E+02  0.18962430662E+02 -0.54064296749E+02  0.46489116261E+03  0.46000423829E+03 0.  0.
         13    1    3    3    0    0 -0.11353731124E+03 -0.44450231901E+02 -0.20835746458E+03  0.24141122014E+03  0.00000000000E+00 0.  1.
          1    1    3    3  501    0  0.14871360824E+03  0.63412662562E+02  0.15429316783E+03  0.22347994247E+03  0.00000000000E+00 0.  1.
         21    1    1    2  502  501 -0.35176296996E+02 -0.18962430662E+02  0.10197962836E+02  0.41242503476E+02  0.00000000000E+00 0.  1.
<scales pt_clust_4="550.00000" pt_clust_5="550.00000" pt_clust_6="39.96180"></scales>
<mgrwt>
<rscale>  0 0.30000000E+03</rscale>
<asrwt>  1 0.39961802E+02</asrwt>
<pdfrwt beam="1">  1        1 0.84048606E+00 0.30000000E+03</pdfrwt>
<pdfrwt beam="2">0</pdfrwt>
<totfact> 0.48083563E-04</totfact>
</mgrwt>
<clustering>
<clus scale="   39.962">  1  6  2 -1</clus>
<clus scale="  460.004">  4  5 -1 -1</clus>
<clus scale="  300.000">  1  4  2 -1</clus>
</clustering>
</event>
<event>
 6    1  0.9964252E-012  0.3000000E+03  0.7818608E-02  0.1093470E+00
          1   -1    0    0  502    0  0.00000000000E+00  0.00000000000E+00  0.22592737272E+03  0.22592737272E+03  0.00000000000E+00 0.  1.
         13   -1    0    0    0    0 -0.00000000000E+00 -0.00000000000E+00 -0.27500000000E+03  0.27500000000E+03  0.00000000000E+00 0.  1.
    9000005    2    1    2  501    0 -0.16000670002E+01 -0.31399364704E+02 -0.58593274944E+02  0.46807736435E+03  0.46333008410E+03 0.  0.
         13    1    3    3    0    0  0.22955083005E+03  0.63024239877E+01 -0.40424808923E+02  0.23316832826E+03  0.00000000000E+00 0.  1.
          3    1    3    3  501    0 -0.23115089705E+03 -0.37701788691E+02 -0.18168466020E+02  0.23490903609E+03  0.00000000000E+00 0.  1.
         21    1    1    2  502  501  0.16000670002E+01  0.31399364704E+02  0.95206476678E+01  0.32850008375E+02  0.00000000000E+00 0.  1.
<scales pt_clust_4="550.00000" pt_clust_5="550.00000" pt_clust_6="31.44011"></scales>
<mgrwt>
<rscale>  0 0.30000000E+03</rscale>
<asrwt>  1 0.31440107E+02</asrwt>
<pdfrwt beam="1">  1        1 0.82155408E+00 0.30000000E+03</pdfrwt>
<pdfrwt beam="2">0</pdfrwt>
<totfact> 0.71535298E-04</totfact>
</mgrwt>
<clustering>
<clus scale="   31.440">  1  6  2 -1</clus>
<clus scale="  463.330">  4  5 -1 -1</clus>
<clus scale="  300.000">  1  4  2 -1</clus>
</clustering>
</event>
<event>
 6    1  0.9964252E-012  0.3000000E+03  0.7818608E-02  0.1093470E+00
          1   -1    0    0  502    0  0.00000000000E+00  0.00000000000E+00  0.22856165551E+03  0.22856165551E+03  0.00000000000E+00 0.  1.
         13   -1    0    0    0    0 -0.00000000000E+00 -0.00000000000E+00 -0.27500000000E+03  0.27500000000E+03  0.00000000000E+00 0.  1.
    9000005    2    1    2  501    0  0.27234224638E+02  0.24173437520E+02 -0.57990733877E+02  0.46535804608E+03  0.46029243722E+03 0.  0.
         13    1    3    3    0    0 -0.24806777752E+02 -0.19621908851E+03 -0.11901206901E+03  0.23082716367E+03  0.00000000000E+00 0.  1.
          1    1    3    3  501    0  0.52041002390E+02  0.22039252603E+03  0.61021335132E+02  0.23453088240E+03  0.00000000000E+00 0.  1.
         21    1    1    2  502  501 -0.27234224638E+02 -0.24173437520E+02  0.11552389386E+02  0.38203609433E+02  0.00000000000E+00 0. -1.
<scales pt_clust_4="550.00000" pt_clust_5="550.00000" pt_clust_6="36.41508"></scales>
<mgrwt>
<rscale>  0 0.30000000E+03</rscale>
<asrwt>  1 0.36415080E+02</asrwt>
<pdfrwt beam="1">  1        1 0.83113329E+00 0.30000000E+03</pdfrwt>
<pdfrwt beam="2">0</pdfrwt>
<totfact> 0.57440453E-04</totfact>
</mgrwt>
<clustering>
<clus scale="   36.415">  1  6  2 -1</clus>
<clus scale="  460.292">  4  5 -1 -1</clus>
<clus scale="  300.000">  1  4  2 -1</clus>
</clustering>
</event>
<event>
 6    1  0.9964252E-012  0.3000000E+03  0.7818608E-02  0.1093470E+00
          1   -1    0    0  502    0  0.00000000000E+00  0.00000000000E+00  0.23931580649E+03  0.23931580649E+03  0.00000000000E+00 0.  1.
         13   -1    0    0    0    0 -0.00000000000E+00 -0.00000000000E+00 -0.27500000000E+03  0.27500000000E+03  0.00000000000E+00 0.  1.
    9000005    2    1    2  501    0  0.15013822756E+02  0.28622563959E+02 -0.72015656671E+02  0.46568822937E+03  0.45894945923E+03 0.  0.
         13    1    3    3    0    0 -0.15136241570E+03 -0.43021903721E+02 -0.19212392693E+03  0.24834062976E+03  0.00000000000E+00 0.  1.
          3    1    3    3  501    0  0.16637623846E+03  0.71644467679E+02  0.12010827026E+03  0.21734759961E+03  0.00000000000E+00 0.  1.
         21    1    1    2  502  501 -0.15013822756E+02 -0.28622563959E+02  0.36331463164E+02  0.48627577124E+02  0.00000000000E+00 0. -1.
<scales pt_clust_4="550.00000" pt_clust_5="550.00000" pt_clust_6="32.32129"></scales>
<mgrwt>
<rscale>  0 0.30000000E+03</rscale>
<asrwt>  1 0.32321294E+02</asrwt>
<pdfrwt beam="1">  1        1 0.87023930E+00 0.30000000E+03</pdfrwt>
<pdfrwt beam="2">0</pdfrwt>
<totfact> 0.25563488E-04</totfact>
</mgrwt>
<clustering>
<clus scale="   32.321">  1  6  2 -1</clus>
<clus scale="  458.949">  4  5 -1 -1</clus>
<clus scale="  300.000">  1  4  2 -1</clus>
</clustering>
</event>
<event>
 6    1  0.9964252E-012  0.3000000E+03  0.7818608E-02  0.1093470E+00
          1   -1    0    0  502    0  0.00000000000E+00  0.00000000000E+00  0.25330011215E+03  0.25330011215E+03  0.00000000000E+00 0.  1.
         13   -1    0    0    0    0 -0.00000000000E+00 -0.00000000000E+00 -0.27500000000E+03  0.27500000000E+03  0.00000000000E+00 0.  1.
    9000005    2    1    2  501    0 -0.22444181230E+02  0.27845131924E+02 -0.66214082461E+02  0.47119839445E+03  0.46515000760E+03 0.  0.
         13    1    3    3    0    0 -0.21599260884E+03  0.70885088758E+02  0.61314674138E+02  0.23545061509E+03  0.00000000000E+00 0.  1.
          1    1    3    3  501    0  0.19354842761E+03 -0.43039956834E+02 -0.12752875660E+03  0.23574777936E+03  0.00000000000E+00 0.  1.
         21    1    1    2  502  501  0.22444181230E+02 -0.27845131924E+02  0.44514194609E+02  0.57101717703E+02  0.00000000000E+00 0.  1.
<scales pt_clust_4="550.00000" pt_clust_5="550.00000" pt_clust_6="35.76440"></scales>
<mgrwt>
<rscale>  0 0.30000000E+03</rscale>
<asrwt>  1 0.35764405E+02</asrwt>
<pdfrwt beam="1">  1        1 0.92109132E+00 0.30000000E+03</pdfrwt>
<pdfrwt beam="2">0</pdfrwt>
<totfact> 0.39437857E-05</totfact>
</mgrwt>
<clustering>
<clus scale="   35.764">  1  6  2 -1</clus>
<clus scale="  465.150">  4  5 -1 -1</clus>
<clus scale="  300.000">  1  4  2 -1</clus>
</clustering>
</event>
<event>
 6    1  0.9964252E-012  0.3000000E+03  0.7818608E-02  0.1093470E+00
          1   -1    0    0  502    0  0.00000000000E+00  0.00000000000E+00  0.22793826077E+03  0.22793826077E+03  0.00000000000E+00 0.  1.
         13   -1    0    0    0    0 -0.00000000000E+00 -0.00000000000E+00 -0.27500000000E+03  0.27500000000E+03  0.00000000000E+00 0.  1.
    9000005    2    1    2  501    0 -0.33853143161E+01  0.29812552908E+02 -0.60636863669E+02  0.47000601719E+03  0.46511136117E+03 0.  0.
         13    1    3    3    0    0  0.24164020005E+02  0.10305979884E+03 -0.24653930587E+03  0.26830365510E+03  0.00000000000E+00 0.  1.
          1    1    3    3  501    0 -0.27549334321E+02 -0.73247245932E+02  0.18590244220E+03  0.20170236209E+03  0.00000000000E+00 0.  1.
         21    1    1    2  502  501  0.33853143161E+01 -0.29812552908E+02  0.13575124442E+02  0.32932243585E+02  0.00000000000E+00 0.  1.
<scales pt_clust_4="550.00000" pt_clust_5="550.00000" pt_clust_6="30.00414"></scales>
<mgrwt>
<rscale>  0 0.30000000E+03</rscale>
<asrwt>  1 0.30004144E+02</asrwt>
<pdfrwt beam="1">  1        1 0.82886640E+00 0.30000000E+03</pdfrwt>
<pdfrwt beam="2">0</pdfrwt>
<totfact> 0.62202027E-04</totfact>
</mgrwt>
<clustering>
<clus scale="   30.004">  1  6  2 -1</clus>
<clus scale="  465.111">  4  5 -1 -1</clus>
<clus scale="  300.000">  1  4  2 -1</clus>
</clustering>
</event>
<event>
 6    1  0.9964252E-012  0.3000000E+03  0.7818608E-02  0.1093470E+00
          1   -1    0    0  502    0  0.00000000000E+00  0.00000000000E+00  0.21907295262E+03  0.21907295262E+03  0.00000000000E+00 0.  1.
         13   -1    0    0    0    0 -0.00000000000E+00 -0.00000000000E+00 -0.27500000000E+03  0.27500000000E+03  0.00000000000E+00 0.  1.
    9000005    2    1    2  501    0 -0.31896454244E+02  0.56748302553E+01 -0.57448687481E+02  0.46163990034E+03  0.45690421141E+03 0.  0.
         13    1    3    3    0    0  0.15025080941E+03 -0.79535475785E+02  0.10785064469E+03  0.20132798911E+03  0.00000000000E+00 0.  1.
          1    1    3    3  501    0 -0.18214726366E+03  0.85210306040E+02 -0.16529933217E+03  0.26031191123E+03  0.00000000000E+00 0.  1.
         21    1    1    2  502  501  0.31896454244E+02 -0.56748302553E+01  0.15216401020E+01  0.32433052283E+02  0.00000000000E+00 0. -1.
<scales pt_clust_4="550.00000" pt_clust_5="550.00000" pt_clust_6="32.39734"></scales>
<mgrwt>
<rscale>  0 0.30000000E+03</rscale>
<asrwt>  1 0.32397338E+02</asrwt>
<pdfrwt beam="1">  1        1 0.79662892E+00 0.30000000E+03</pdfrwt>
<pdfrwt beam="2">0</pdfrwt>
<totfact> 0.11132877E-03</totfact>
</mgrwt>
<clustering>
<clus scale="   32.397">  1  6  2 -1</clus>
<clus scale="  456.904">  4  5 -1 -1</clus>
<clus scale="  300.000">  1  4  2 -1</clus>
</clustering>
</event>
<event>
 6    1  0.9964252E-012  0.3000000E+03  0.7818608E-02  0.1093470E+00
          1   -1    0    0  502    0  0.00000000000E+00  0.00000000000E+00  0.24040154931E+03  0.24040154931E+03  0.00000000000E+00 0.  1.
         13   -1    0    0    0    0 -0.00000000000E+00 -0.00000000000E+00 -0.27500000000E+03  0.27500000000E+03  0.00000000000E+00 0.  1.
    9000005    2    1    2  501    0  0.24978953078E+02  0.17431123144E+02 -0.58790243963E+02  0.47650379857E+03  0.47188111333E+03 0.  0.
         13    1    3    3    0    0 -0.16623756176E+03  0.32671767301E+02  0.12523620552E+03  0.21068098749E+03  0.00000000000E+00 0.  1.
          1    1    3    3  501    0  0.19121651484E+03 -0.15240644157E+02 -0.18402644948E+03  0.26582281108E+03  0.00000000000E+00 0.  1.
         21    1    1    2  502  501 -0.24978953078E+02 -0.17431123144E+02  0.24191793276E+02  0.38897750742E+02  0.00000000000E+00 0.  1.
<scales pt_clust_4="550.00000" pt_clust_5="550.00000" pt_clust_6="30.45968"></scales>
<mgrwt>
<rscale>  0 0.30000000E+03</rscale>
<asrwt>  1 0.30459681E+02</asrwt>
<pdfrwt beam="1">  1        1 0.87418745E+00 0.30000000E+03</pdfrwt>
<pdfrwt beam="2">0</pdfrwt>
<totfact> 0.23551160E-04</totfact>
</mgrwt>
<clustering>
<clus scale="   30.460">  1  6  2 -1</clus>
<clus scale="  471.881">  4  5 -1 -1</clus>
<clus scale="  300.000">  1  4  2 -1</clus>
</clustering>
</event>
<event>
 6    1  0.9964252E-012  0.3000000E+03  0.7818608E-02  0.1093470E+00
          1   -1    0    0  502    0  0.00000000000E+00  0.00000000000E+00  0.22594789434E+03  0.22594789434E+03  0.00000000000E+00 0.  1.
         13   -1    0    0    0    0 -0.00000000000E+00 -0.00000000000E+00 -0.27500000000E+03  0.27500000000E+03  0.00000000000E+00 0.  1.
    9000005    2    1    2  501    0 -0.37255796059E+02  0.23315830398E+01 -0.59410442207E+02  0.46220869255E+03  0.45685210320E+03 0.  0.
         13    1    3    3    0    0 -0.19312665296E+03 -0.11801679341E+03 -0.11999726799E+03  0.25617418281E+03  0.00000000000E+00 0.  1.
          1    1    3    3  501    0  0.15587085690E+03  0.12034837645E+03  0.60586825781E+02  0.20603450974E+03  0.00000000000E+00 0.  1.
         21    1    1    2  502  501  0.37255796059E+02 -0.23315830398E+01  0.10358336545E+02  0.38739201791E+02  0.00000000000E+00 0.  1.
<scales pt_clust_4="550.00000" pt_clust_5="550.00000" pt_clust_6="37.32868"></scales>
<mgrwt>
<rscale>  0 0.30000000E+03</rscale>
<asrwt>  1 0.37328684E+02</asrwt>
<pdfrwt beam="1">  1        1 0.82162871E+00 0.30000000E+03</pdfrwt>
<pdfrwt beam="2">0</pdfrwt>
<totfact> 0.69160695E-04</totfact>
</mgrwt>
<clustering>
<clus scale="   37.329">  1  6  2 -1</clus>
<clus scale="  456.852">  4  5 -1 -1</clus>
<clus scale="  300.000">  1  4  2 -1</clus>
</clustering>
</event>
<event>
 6    1  0.9964252E-012  0.3000000E+03  0.7818608E-02  0.1093470E+00
          1   -1    0    0  502    0  0.00000000000E+00  0.00000000000E+00  0.22341511783E+03  0.22341511783E+03  0.00000000000E+00 0.  1.
         13   -1    0    0    0    0 -0.00000000000E+00 -0.00000000000E+00 -0.27500000000E+03  0.27500000000E+03  0.00000000000E+00 0.  1.
    9000005    2    1    2  501    0 -0.31305596565E+02  0.16155036701E+02 -0.46479094282E+02  0.46281884475E+03  0.45912955826E+03 0.  0.
         13    1    3    3    0    0 -0.10810067603E+03 -0.91607523391E+02  0.16241647670E+03  0.21553841051E+03  0.00000000000E+00 0.  1.
          1    1    3    3  501    0  0.76795079469E+02  0.10776256009E+03 -0.20889557098E+03  0.24728043425E+03  0.00000000000E+00 0.  1.
         21    1    1    2  502  501  0.31305596565E+02 -0.16155036701E+02 -0.51057878869E+01  0.35596273078E+02  0.00000000000E+00 0.  1.
<scales pt_clust_4="550.00000" pt_clust_5="550.00000" pt_clust_6="35.22821"></scales>
<mgrwt>
<rscale>  0 0.30000000E+03</rscale>
<asrwt>  1 0.35228211E+02</asrwt>
<pdfrwt beam="1">  1        1 0.81241861E+00 0.30000000E+03</pdfrwt>
<pdfrwt beam="2">0</pdfrwt>
<totfact> 0.83379305E-04</totfact>
</mgrwt>
<clustering>
<clus scale="   35.228">  1  6  2 -1</clus>
<clus scale="  459.130">  4  5 -1 -1</clus>
<clus scale="  300.000">  1  4  2 -1</clus>
</clustering>
</event>
<event>
 6    1  0.9964252E-012  0.3000000E+03  0.7818608E-02  0.1093470E+00
          1   -1    0    0  502    0  0.00000000000E+00  0.00000000000E+00  0.22531230738E+03  0.22531230738E+03  0.00000000000E+00 0.  1.
         13   -1    0    0    0    0 -0.00000000000E+00 -0.00000000000E+00 -0.27500000000E+03  0.27500000000E+03  0.00000000000E+00 0.  1.
    9000005    2    1    2  501    0 -0.36357086248E+02  0.14659351408E+02 -0.42978394101E+02  0.46054109931E+03  0.45685252270E+03 0.  0.
         13    1    3    3    0    0  0.17740127085E+03  0.12591624008E+03 -0.19123472848E+02  0.21838456363E+03  0.00000000000E+00 0.  1.
          3    1    3    3  501    0 -0.21375835710E+03 -0.11125688867E+03 -0.23854921253E+02  0.24215653569E+03  0.00000000000E+00 0.  1.
         21    1    1    2  502  501  0.36357086248E+02 -0.14659351408E+02 -0.67092985221E+01  0.39771208064E+02  0.00000000000E+00 0. -1.
<scales pt_clust_4="550.00000" pt_clust_5="550.00000" pt_clust_6="39.20122"></scales>
<mgrwt>
<rscale>  0 0.30000000E+03</rscale>
<asrwt>  1 0.39201222E+02</asrwt>
<pdfrwt beam="1">  1        1 0.81931748E+00 0.30000000E+03</pdfrwt>
<pdfrwt beam="2">0</pdfrwt>
<totfact> 0.71792416E-04</totfact>
</mgrwt>
<clustering>
<clus scale="   39.201">  1  6  2 -1</clus>
<clus scale="  456.853">  4  5 -1 -1</clus>
<clus scale="  300.000">  1  4  2 -1</clus>
</clustering>
</event>
<event>
 6    1  0.9964252E-012  0.3000000E+03  0.7818608E-02  0.1093470E+00
          1   -1    0    0  502    0  0.00000000000E+00  0.00000000000E+00  0.24613613246E+03  0.24613613246E+03  0.00000000000E+00 0.  1.
         13   -1    0    0    0    0 -0.00000000000E+00 -0.00000000000E+00 -0.27500000000E+03  0.27500000000E+03  0.00000000000E+00 0.  1.
    9000005    2    1    2  501    0 -0.41161665735E+02 -0.56095312082E+01 -0.47218488646E+02  0.47571981730E+03  0.47154428142E+03 0.  0.
         13    1    3    3    0    0  0.69451261491E+02  0.89394970008E+02 -0.22134005297E+03  0.24860884424E+03  0.00000000000E+00 0.  1.
          3    1    3    3  501    0 -0.11061292723E+03 -0.95004501217E+02  0.17412156433E+03  0.22711097306E+03  0.00000000000E+00 0.  1.
         21    1    1    2  502  501  0.41161665735E+02  0.56095312082E+01  0.18354621106E+02  0.45416315157E+02  0.00000000000E+00 0.  1.
<scales pt_clust_4="550.00000" pt_clust_5="550.00000" pt_clust_6="41.54214"></scales>
<mgrwt>
<rscale>  0 0.30000000E+03</rscale>
<asrwt>  1 0.41542142E+02</asrwt>
<pdfrwt beam="1">  1        1 0.89504048E+00 0.30000000E+03</pdfrwt>
<pdfrwt beam="2">0</pdfrwt>
<totfact> 0.12204879E-04</totfact>
</mgrwt>
<clustering>
<clus scale="   41.542">  1  6  2 -1</clus>
<clus scale="  471.544">  4  5 -1 -1</clus>
<clus scale="  300.000">  1  4  2 -1</clus>
</clustering>
</event>
<event>
 6    1  0.9964252E-012  0.3000000E+03  0.7818608E-02  0.1093470E+00
          1   -1    0    0  502    0  0.00000000000E+00  0.00000000000E+00  0.23775737236E+03  0.23775737236E+03  0.00000000000E+00 0.  1.
         13   -1    0    0    0    0 -0.00000000000E+00 -0.00000000000E+00 -0.27500000000E+03  0.27500000000E+03  0.00000000000E+00 0.  1.
    9000005    2    1    2  501    0  0.47375284997E+02 -0.18275238136E+02 -0.43324362272E+02  0.46161649386E+03  0.45676513120E+03 0.  0.
         13    1    3    3    0    0 -0.13507673260E+03 -0.16866584381E+03 -0.60940687752E+02  0.22451649824E+03  0.00000000000E+00 0.  1.
          1    1    3    3  501    0  0.18245201760E+03  0.15039060568E+03  0.17616325481E+02  0.23709999562E+03  0.00000000000E+00 0.  1.
         21    1    1    2  502  501 -0.47375284997E+02  0.18275238136E+02  0.60817346338E+01  0.51140878499E+02  0.00000000000E+00 0. -1.
<scales pt_clust_4="550.00000" pt_clust_5="550.00000" pt_clust_6="50.77797"></scales>
<mgrwt>
<rscale>  0 0.30000000E+03</rscale>
<asrwt>  1 0.50777967E+02</asrwt>
<pdfrwt beam="1">  1        1 0.86457226E+00 0.30000000E+03</pdfrwt>
<pdfrwt beam="2">0</pdfrwt>
<totfact> 0.26996008E-04</totfact>
</mgrwt>
<clustering>
<clus scale="   50.778">  1  6  2 -1</clus>
<clus scale="  456.765">  4  5 -1 -1</clus>
<clus scale="  300.000">  1  4  2 -1</clus>
</clustering>
</event>
<event>
 6    1  0.9964252E-012  0.3000000E+03  0.7818608E-02  0.1093470E+00
          1   -1    0    0  502    0  0.00000000000E+00  0.00000000000E+00  0.23199788797E+03  0.23199788797E+03  0.00000000000E+00 0.  1.
         13   -1    0    0    0    0 -0.00000000000E+00 -0.00000000000E+00 -0.27500000000E+03  0.27500000000E+03  0.00000000000E+00 0.  1.
    9000005    2    1    2  501    0  0.10223892552E+01  0.31264758777E+02 -0.68930527167E+02  0.46636768821E+03  0.46018352057E+03 0.  0.
         13    1    3    3    0    0 -0.47213000277E+02 -0.19988864327E+03  0.35044984317E+02  0.20835711658E+03  0.00000000000E+00 0.  1.
          1    1    3    3  501    0  0.48235389532E+02  0.23115340205E+03 -0.10397551148E+03  0.25801057163E+03  0.00000000000E+00 0.  1.
         21    1    1    2  502  501 -0.10223892552E+01 -0.31264758777E+02  0.25928415137E+02  0.40630199761E+02  0.00000000000E+00 0. -1.
<scales pt_clust_4="550.00000" pt_clust_5="550.00000" pt_clust_6="31.28147"></scales>
<mgrwt>
<rscale>  0 0.30000000E+03</rscale>
<asrwt>  1 0.31281471E+02</asrwt>
<pdfrwt beam="1">  1        1 0.84362868E+00 0.30000000E+03</pdfrwt>
<pdfrwt beam="2">0</pdfrwt>
<totfact> 0.47427375E-04</totfact>
</mgrwt>
<clustering>
<clus scale="   31.281">  1  6  2 -1</clus>
<clus scale="  460.184">  4  5 -1 -1</clus>
<clus scale="  300.000">  1  4  2 -1</clus>
</clustering>
</event>
<event>
 6    1  0.9964252E-012  0.3000000E+03  0.7818608E-02  0.1093470E+00
          1   -1    0    0  502    0  0.00000000000E+00  0.00000000000E+00  0.23096456853E+03  0.23096456853E+03  0.00000000000E+00 0.  1.
         13   -1    0    0    0    0 -0.00000000000E+00 -0.00000000000E+00 -0.27500000000E+03  0.27500000000E+03  0.00000000000E+00 0.  1.
    9000005    2    1    2  501    0 -0.36553517706E+02 -0.25637849195E+01 -0.26880540499E+02  0.46550442846E+03  0.46328077535E+03 0.  0.
         13    1    3    3    0    0  0.11521795053E+02  0.14296185741E+03  0.16584990622E+03  0.21926476194E+03  0.00000000000E+00 0.  1.
          3    1    3    3  501    0 -0.48075312759E+02 -0.14552564233E+03 -0.19273044672E+03  0.24623966652E+03  0.00000000000E+00 0.  1.
         21    1    1    2  502  501  0.36553517706E+02  0.25637849195E+01 -0.17154890973E+02  0.40460140065E+02  0.00000000000E+00 0. -1.
<scales pt_clust_4="550.00000" pt_clust_5="550.00000" pt_clust_6="36.64333"></scales>
<mgrwt>
<rscale>  0 0.30000000E+03</rscale>
<asrwt>  1 0.36643335E+02</asrwt>
<pdfrwt beam="1">  1        1 0.83987116E+00 0.30000000E+03</pdfrwt>
<pdfrwt beam="2">0</pdfrwt>
<totfact> 0.49393338E-04</totfact>
</mgrwt>
<clustering>
<clus scale="   36.643">  1  6  2 -1</clus>
<clus scale="  463.281">  4  5 -1 -1</clus>
<clus scale="  300.000">  1  4  2 -1</clus>
</clustering>
</event>
<event>
 6    1  0.9964252E-012  0.3000000E+03  0.7818608E-02  0.1093470E+00
          1   -1    0    0  502    0  0.00000000000E+00  0.00000000000E+00  0.22746835725E+03  0.22746835725E+03  0.00000000000E+00 0.  1.
         13   -1    0    0    0    0 -0.00000000000E+00 -0.00000000000E+00 -0.27500000000E+03  0.27500000000E+03  0.00000000000E+00 0.  1.
    9000005    2    1    2  501    0 -0.33555799227E+02  0.18138397986E+01 -0.63910872115E+02  0.46508439236E+03  0.45944489415E+03 0.  0.
         13    1    3    3    0    0  0.23833946053E+01 -0.21427126921E+03  0.47262004330E+02  0.21943462450E+03  0.00000000000E+00 0.  1.
          3    1    3    3  501    0 -0.35939193832E+02  0.21608510901E+03 -0.11117287644E+03  0.24564976785E+03  0.00000000000E+00 0.  1.
         21    1    1    2  502  501  0.33555799227E+02 -0.18138397986E+01  0.16379229363E+02  0.37383964893E+02  0.00000000000E+00 0. -1.
<scales pt_clust_4="550.00000" pt_clust_5="550.00000" pt_clust_6="33.60479"></scales>
<mgrwt>
<rscale>  0 0.30000000E+03</rscale>
<asrwt>  1 0.33604787E+02</asrwt>
<pdfrwt beam="1">  1        1 0.82715766E+00 0.30000000E+03</pdfrwt>
<pdfrwt beam="2">0</pdfrwt>
<totfact> 0.62981965E-04</totfact>
</mgrwt>
<clustering>
<clus scale="   33.605">  1  6  2 -1</clus>
<clus scale="  459.445">  4  5 -1 -1</clus>
<clus scale="  300.000">  1  4  2 -1</clus>
</clustering>
</event>
<event>
 6    1  0.9964252E-012  0.3000000E+03  0.7818608E-02  0.1093470E+00
          1   -1    0    0  502    0  0.00000000000E+00  0.00000000000E+00  0.22323280197E+03  0.22323280197E+03  0.00000000000E+00 0.  1.
         13   -1    0    0    0    0 -0.00000000000E+00 -0.00000000000E+00 -0.27500000000E+03  0.27500000000E+03  0.00000000000E+00 0.  1.
    9000005    2    1    2  501    0 -0.98228992398E+01  0.29113817645E+02 -0.62892552620E+02  0.46555441091E+03  0.46026224331E+03 0.  0.
         13    1    3    3    0    0 -0.19608677925E+03 -0.11140728534E+03 -0.70256859802E+01  0.22563459062E+03  0.00000000000E+00 0.  1.
          1    1    3    3  501    0  0.18626388001E+03  0.14052110298E+03 -0.55866866640E+02  0.23991982029E+03  0.00000000000E+00 0.  1.
         21    1    1    2  502  501  0.98228992398E+01 -0.29113817645E+02  0.11125354586E+02  0.32678391056E+02  0.00000000000E+00 0.  1.
<scales pt_clust_4="550.00000" pt_clust_5="550.00000" pt_clust_6="30.72627"></scales>
<mgrwt>
<rscale>  0 0.30000000E+03</rscale>
<asrwt>  1 0.30726271E+02</asrwt>
<pdfrwt beam="1">  1        1 0.81175564E+00 0.30000000E+03</pdfrwt>
<pdfrwt beam="2">0</pdfrwt>
<totfact> 0.86603048E-04</totfact>
</mgrwt>
<clustering>
<clus scale="   30.726">  1  6  2 -1</clus>
<clus scale="  460.262">  4  5 -1 -1</clus>
<clus scale="  300.000">  1  4  2 -1</clus>
</clustering>
</event>
<event>
 6    1  0.9964252E-012  0.3000000E+03  0.7818608E-02  0.1093470E+00
          1   -1    0    0  502    0  0.00000000000E+00  0.00000000000E+00  0.24100765612E+03  0.24100765612E+03  0.00000000000E+00 0.  1.
         13   -1    0    0    0    0 -0.00000000000E+00 -0.00000000000E+00 -0.27500000000E+03  0.27500000000E+03  0.00000000000E+00 0.  1.
    9000005    2    1    2  501    0  0.36189615231E+02  0.22160604600E+02 -0.62625212218E+02  0.46481564702E+03  0.45861845565E+03 0.  0.
         13    1    3    3    0    0  0.77790899424E+02 -0.16621771643E+03  0.10309244693E+03  0.21049419446E+03  0.00000000000E+00 0.  1.
          1    1    3    3  501    0 -0.41601284193E+02  0.18837832103E+03 -0.16571765914E+03  0.25432145256E+03  0.00000000000E+00 0.  1.
         21    1    1    2  502  501 -0.36189615231E+02 -0.22160604600E+02  0.28632868338E+02  0.51192009104E+02  0.00000000000E+00 0. -1.
<scales pt_clust_4="550.00000" pt_clust_5="550.00000" pt_clust_6="42.43561"></scales>
<mgrwt>
<rscale>  0 0.30000000E+03</rscale>
<asrwt>  1 0.42435606E+02</asrwt>
<pdfrwt beam="1">  1        1 0.87639148E+00 0.30000000E+03</pdfrwt>
<pdfrwt beam="2">0</pdfrwt>
<totfact> 0.20976115E-04</totfact>
</mgrwt>
<clustering>
<clus scale="   42.436">  1  6  2 -1</clus>
<clus scale="  458.618">  4  5 -1 -1</clus>
<clus scale="  300.000">  1  4  2 -1</clus>
</clustering>
</event>
<event>
 6    1  0.9964252E-012  0.3000000E+03  0.7818608E-02  0.1093470E+00
          1   -1    0    0  502    0  0.00000000000E+00  0.00000000000E+00  0.23046402764E+03  0.23046402764E+03  0.00000000000E+00 0.  1.
         13   -1    0    0    0    0 -0.00000000000E+00 -0.00000000000E+00 -0.27500000000E+03  0.27500000000E+03  0.00000000000E+00 0.  1.
    9000005    2    1    2  501    0 -0.41056845391E+02  0.11086244973E+02 -0.45725753293E+02  0.46292010963E+03  0.45868901666E+03 0.  0.
         13    1    3    3    0    0  0.86874792037E+02  0.16730297228E+00  0.18189887917E+03  0.20157990903E+03  0.00000000000E+00 0.  1.
          1    1    3    3  501    0 -0.12793163743E+03  0.10918942001E+02 -0.22762463246E+03  0.26134020060E+03  0.00000000000E+00 0.  1.
         21    1    1    2  502  501  0.41056845391E+02 -0.11086244973E+02  0.11897809356E+01  0.42543918011E+02  0.00000000000E+00 0.  1.
<scales pt_clust_4="550.00000" pt_clust_5="550.00000" pt_clust_6="42.52728"></scales>
<mgrwt>
<rscale>  0 0.30000000E+03</rscale>
<asrwt>  1 0.42527278E+02</asrwt>
<pdfrwt beam="1">  1        1 0.83805101E+00 0.30000000E+03</pdfrwt>
<pdfrwt beam="2">0</pdfrwt>
<totfact> 0.49595785E-04</totfact>
</mgrwt>
<clustering>
<clus scale="   42.527">  1  6  2 -1</clus>
<clus scale="  458.689">  4  5 -1 -1</clus>
<clus scale="  300.000">  1  4  2 -1</clus>
</clustering>
</event>
<event>
 6    1  0.9964252E-012  0.3000000E+03  0.7818608E-02  0.1093470E+00
          1   -1    0    0  502    0  0.00000000000E+00  0.00000000000E+00  0.22655940795E+03  0.22655940795E+03  0.00000000000E+00 0.  1.
         13   -1    0    0    0    0 -0.00000000000E+00 -0.00000000000E+00 -0.27500000000E+03  0.27500000000E+03  0.00000000000E+00 0.  1.
    9000005    2    1    2  501    0  0.21984650484E+02  0.22288956550E+02 -0.46495339938E+02  0.47019212489E+03  0.46683904638E+03 0.  0.
         13    1    3    3    0    0  0.11926013692E+03  0.20609276059E+03 -0.95482546605E+02  0.25654263376E+03  0.00000000000E+00 0.  1.
          3    1    3    3  501    0 -0.97275486441E+02 -0.18380380404E+03  0.48987206666E+02  0.21364949113E+03  0.00000000000E+00 0.  1.
         21    1    1    2  502  501 -0.21984650484E+02 -0.22288956550E+02 -0.19452521127E+01  0.31367283063E+02  0.00000000000E+00 0.  1.
<scales pt_clust_4="550.00000" pt_clust_5="550.00000" pt_clust_6="31.30691"></scales>
<mgrwt>
<rscale>  0 0.30000000E+03</rscale>
<asrwt>  1 0.31306907E+02</asrwt>
<pdfrwt beam="1">  1        1 0.82385239E+00 0.30000000E+03</pdfrwt>
<pdfrwt beam="2">0</pdfrwt>
<totfact> 0.68301976E-04</totfact>
</mgrwt>
<clustering>
<clus scale="   31.307">  1  6  2 -1</clus>
<clus scale="  466.839">  4  5 -1 -1</clus>
<clus scale="  300.000">  1  4  2 -1</clus>
</clustering>
</event>
<event>
 6    1  0.9964252E-012  0.3000000E+03  0.7818608E-02  0.1093470E+00
          1   -1    0    0  502    0  0.00000000000E+00  0.00000000000E+00  0.23107640856E+03  0.23107640856E+03  0.00000000000E+00 0.  1.
         13   -1    0    0    0    0 -0.00000000000E+00 -0.00000000000E+00 -0.27500000000E+03  0.27500000000E+03  0.00000000000E+00 0.  1.
    9000005    2    1    2  501    0  0.32655332869E+02  0.60380560013E+01 -0.56607615883E+02  0.47052766229E+03  0.46592813815E+03 0.  0.
         13    1    3    3    0    0  0.20211522389E+03 -0.55105121404E+02  0.99709491782E+02  0.23201103613E+03  0.00000000000E+00 0.  1.
          3    1    3    3  501    0 -0.16945989102E+03  0.61143177405E+02 -0.15631710767E+03  0.23851662617E+03  0.00000000000E+00 0.  1.
         21    1    1    2  502  501 -0.32655332869E+02 -0.60380560013E+01  0.12684024440E+02  0.35548746265E+02  0.00000000000E+00 0.  1.
<scales pt_clust_4="550.00000" pt_clust_5="550.00000" pt_clust_6="33.20887"></scales>
<mgrwt>
<rscale>  0 0.30000000E+03</rscale>
<asrwt>  1 0.33208868E+02</asrwt>
<pdfrwt beam="1">  1        1 0.84027785E+00 0.30000000E+03</pdfrwt>
<pdfrwt beam="2">0</pdfrwt>
<totfact> 0.49950527E-04</totfact>
</mgrwt>
<clustering>
<clus scale="   33.209">  1  6  2 -1</clus>
<clus scale="  465.928">  4  5 -1 -1</clus>
<clus scale="  300.000">  1  4  2 -1</clus>
</clustering>
</event>
<event>
 6    1  0.9964252E-012  0.3000000E+03  0.7818608E-02  0.1093470E+00
          1   -1    0    0  502    0  0.00000000000E+00  0.00000000000E+00  0.23068341791E+03  0.23068341791E+03  0.00000000000E+00 0.  1.
         13   -1    0    0    0    0 -0.00000000000E+00 -0.00000000000E+00 -0.27500000000E+03  0.27500000000E+03  0.00000000000E+00 0.  1.
    9000005    2    1    2  501    0 -0.18283028858E+02 -0.33990536082E+02 -0.57471167542E+02  0.46490758185E+03  0.45972437273E+03 0.  0.
         13    1    3    3    0    0 -0.10393556212E+03  0.15974424251E+03  0.85982599200E+02  0.20907852939E+03  0.00000000000E+00 0.  1.
          3    1    3    3  501    0  0.85652533262E+02 -0.19373477859E+03 -0.14345376674E+03  0.25582905246E+03  0.00000000000E+00 0.  1.
         21    1    1    2  502  501  0.18283028858E+02  0.33990536082E+02  0.13154585447E+02  0.40775836051E+02  0.00000000000E+00 0.  1.
<scales pt_clust_4="550.00000" pt_clust_5="550.00000" pt_clust_6="38.59567"></scales>
<mgrwt>
<rscale>  0 0.30000000E+03</rscale>
<asrwt>  1 0.38595669E+02</asrwt>
<pdfrwt beam="1">  1        1 0.83884879E+00 0.30000000E+03</pdfrwt>
<pdfrwt beam="2">0</pdfrwt>
<totfact> 0.49798368E-04</totfact>
</mgrwt>
<clustering>
<clus scale="   38.596">  1  6  2 -1</clus>
<clus scale="  459.724">  4  5 -1 -1</clus>
<clus scale="  300.000">  1  4  2 -1</clus>
</clustering>
</event>
<event>
 6    1  0.9964252E-012  0.3000000E+03  0.7818608E-02  0.1093470E+00
          1   -1    0    0  502    0  0.00000000000E+00  0.00000000000E+00  0.23181482597E+03  0.23181482597E+03  0.00000000000E+00 0.  1.
         13   -1    0    0    0    0 -0.00000000000E+00 -0.00000000000E+00 -0.27500000000E+03  0.27500000000E+03  0.00000000000E+00 0.  1.
    9000005    2    1    2  501    0  0.34232990447E+02 -0.16387853270E+02 -0.62353717320E+02  0.46429550776E+03  0.45852139873E+03 0.  0.
         13    1    3    3    0    0 -0.15483937640E+03 -0.15144778542E+03 -0.80884748835E+02  0.23120122575E+03  0.00000000000E+00 0.  1.
          3    1    3    3  501    0  0.18907236684E+03  0.13505993215E+03  0.18531031516E+02  0.23309428201E+03  0.00000000000E+00 0.  1.
         21    1    1    2  502  501 -0.34232990447E+02  0.16387853270E+02  0.19168543294E+02  0.42519318218E+02  0.00000000000E+00 0. -1.
<scales pt_clust_4="550.00000" pt_clust_5="550.00000" pt_clust_6="37.95338"></scales>
<mgrwt>
<rscale>  0 0.30000000E+03</rscale>
<asrwt>  1 0.37953384E+02</asrwt>
<pdfrwt beam="1">  1        1 0.84296300E+00 0.30000000E+03</pdfrwt>
<pdfrwt beam="2">0</pdfrwt>
<totfact> 0.46335999E-04</totfact>
</mgrwt>
<clustering>
<clus scale="   37.953">  1  6  2 -1</clus>
<clus scale="  458.521">  4  5 -1 -1</clus>
<clus scale="  300.000">  1  4  2 -1</clus>
</clustering>
</event>
<event>
 6    1  0.9964252E-012  0.3000000E+03  0.7818608E-02  0.1093470E+00
          1   -1    0    0  502    0  0.00000000000E+00  0.00000000000E+00  0.24186601053E+03  0.24186601053E+03  0.00000000000E+00 0.  1.
         13   -1    0    0    0    0 -0.00000000000E+00 -0.00000000000E+00 -0.27500000000E+03  0.27500000000E+03  0.00000000000E+00 0.  1.
    9000005    2    1    2  501    0 -0.39660183155E+02 -0.22043243753E+02 -0.46640462219E+02  0.46952406793E+03  0.46499320740E+03 0.  0.
         13    1    3    3    0    0 -0.23742240332E+03 -0.19124023544E+02  0.58867859873E+02  0.24535800538E+03  0.00000000000E+00 0.  1.
          1    1    3    3  501    0  0.19776222017E+03 -0.29192202088E+01 -0.10550832209E+03  0.22416606256E+03  0.00000000000E+00 0.  1.
         21    1    1    2  502  501  0.39660183155E+02  0.22043243753E+02  0.13506472754E+02  0.47341942602E+02  0.00000000000E+00 0. -1.
<scales pt_clust_4="550.00000" pt_clust_5="550.00000" pt_clust_6="45.37438"></scales>
<mgrwt>
<rscale>  0 0.30000000E+03</rscale>
<asrwt>  1 0.45374384E+02</asrwt>
<pdfrwt beam="1">  1        1 0.87951277E+00 0.30000000E+03</pdfrwt>
<pdfrwt beam="2">0</pdfrwt>
<totfact> 0.19083629E-04</totfact>
</mgrwt>
<clustering>
<clus scale="   45.374">  1  6  2 -1</clus>
<clus scale="  464.993">  4  5 -1 -1</clus>
<clus scale="  300.000">  1  4  2 -1</clus>
</clustering>
</event>
<event>
 6    1  0.9964252E-012  0.3000000E+03  0.7818608E-02  0.1093470E+00
          1   -1    0    0  502    0  0.00000000000E+00  0.00000000000E+00  0.23668729750E+03  0.23668729750E+03  0.00000000000E+00 0.  1.
         13   -1    0    0    0    0 -0.00000000000E+00 -0.00000000000E+00 -0.27500000000E+03  0.27500000000E+03  0.00000000000E+00 0.  1.
    9000005    2    1    2  501    0  0.34682439765E+02  0.98484964387E+01 -0.51950033639E+02  0.47314068532E+03  0.46889597737E+03 0.  0.
         13    1    3    3    0    0  0.20396535415E+03  0.13297609160E+03 -0.91504962239E+02  0.26011087010E+03  0.00000000000E+00 0.  1.
          3    1    3    3  501    0 -0.16928291439E+03 -0.12312759516E+03  0.39554928600E+02  0.21302981521E+03  0.00000000000E+00 0.  1.
         21    1    1    2  502  501 -0.34682439765E+02 -0.98484964387E+01  0.13637331138E+02  0.38546612182E+02  0.00000000000E+00 0.  1.
<scales pt_clust_4="550.00000" pt_clust_5="550.00000" pt_clust_6="36.05363"></scales>
<mgrwt>
<rscale>  0 0.30000000E+03</rscale>
<asrwt>  1 0.36053634E+02</asrwt>
<pdfrwt beam="1">  1        1 0.86068108E+00 0.30000000E+03</pdfrwt>
<pdfrwt beam="2">0</pdfrwt>
<totfact> 0.31632690E-04</totfact>
</mgrwt>
<clustering>
<clus scale="   36.054">  1  6  2 -1</clus>
<clus scale="  468.896">  4  5 -1 -1</clus>
<clus scale="  300.000">  1  4  2 -1</clus>
</clustering>
</event>
<event>
 6    1  0.9964252E-012  0.3000000E+03  0.7818608E-02  0.1093470E+00
          1   -1    0    0  502    0  0.00000000000E+00  0.00000000000E+00  0.24185212401E+03  0.24185212401E+03  0.00000000000E+00 0.  1.
         13   -1    0    0    0    0 -0.00000000000E+00 -0.00000000000E+00 -0.27500000000E+03  0.27500000000E+03  0.00000000000E+00 0.  1.
    9000005    2    1    2  501    0 -0.64021263997E+01 -0.31469773812E+02 -0.47136692278E+02  0.48182326637E+03  0.47843542759E+03 0.  0.
         13    1    3    3    0    0 -0.22048205496E+03 -0.11371293495E+03 -0.46986805636E+02  0.25248906519E+03  0.00000000000E+00 0.  1.
          3    1    3    3  501    0  0.21407992856E+03  0.82243161137E+02 -0.14988664115E+00  0.22933420119E+03  0.00000000000E+00 0.  1.
         21    1    1    2  502  501  0.64021263997E+01  0.31469773812E+02  0.13988816285E+02  0.35028857635E+02  0.00000000000E+00 0.  1.
<scales pt_clust_4="550.00000" pt_clust_5="550.00000" pt_clust_6="32.11439"></scales>
<mgrwt>
<rscale>  0 0.30000000E+03</rscale>
<asrwt>  1 0.32114388E+02</asrwt>
<pdfrwt beam="1">  1        1 0.87946227E+00 0.30000000E+03</pdfrwt>
<pdfrwt beam="2">0</pdfrwt>
<totfact> 0.20366196E-04</totfact>
</mgrwt>
<clustering>
<clus scale="   32.114">  1  6  2 -1</clus>
<clus scale="  478.435">  4  5 -1 -1</clus>
<clus scale="  300.000">  1  4  2 -1</clus>
</clustering>
</event>
<event>
 6    1  0.9964252E-012  0.3000000E+03  0.7818608E-02  0.1093470E+00
          1   -1    0    0  502    0  0.00000000000E+00  0.00000000000E+00  0.22283568091E+03  0.22283568091E+03  0.00000000000E+00 0.  1.
         13   -1    0    0    0    0 -0.00000000000E+00 -0.00000000000E+00 -0.27500000000E+03  0.27500000000E+03  0.00000000000E+00 0.  1.
    9000005    2    1    2  501    0 -0.28089891427E+02 -0.13225365932E+02 -0.66794845557E+02  0.46351360916E+03  0.45762360317E+03 0.  0.
         13    1    3    3    0    0  0.69299505434E+02 -0.77049738954E+02  0.17030994672E+03  0.19936038141E+03  0.00000000000E+00 0.  1.
          3    1    3    3  501    0 -0.97389396861E+02  0.63824373021E+02 -0.23710479227E+03  0.26415322775E+03  0.00000000000E+00 0.  1.
         21    1    1    2  502  501  0.28089891427E+02  0.13225365932E+02  0.14630526469E+02  0.34322071749E+02  0.00000000000E+00 0.  1.
<scales pt_clust_4="550.00000" pt_clust_5="550.00000" pt_clust_6="31.04758"></scales>
<mgrwt>
<rscale>  0 0.30000000E+03</rscale>
<asrwt>  1 0.31047581E+02</asrwt>
<pdfrwt beam="1">  1        1 0.81031157E+00 0.30000000E+03</pdfrwt>
<pdfrwt beam="2">0</pdfrwt>
<totfact> 0.88715691E-04</totfact>
</mgrwt>
<clustering>
<clus scale="   31.048">  1  6  2 -1</clus>
<clus scale="  457.624">  4  5 -1 -1</clus>
<clus scale="  300.000">  1  4  2 -1</clus>
</clustering>
</event>
<event>
 6    1  0.9964252E-012  0.3000000E+03  0.7818608E-02  0.1093470E+00
          1   -1    0    0  502    0  0.00000000000E+00  0.00000000000E+00  0.22996784344E+03  0.22996784344E+03  0.00000000000E+00 0.  1.
         13   -1    0    0    0    0 -0.00000000000E+00 -0.00000000000E+00 -0.27500000000E+03  0.27500000000E+03  0.00000000000E+00 0.  1.
    9000005    2    1    2  501    0  0.25696866621E+02 -0.22696482939E+02 -0.21078225400E+02  0.46314380598E+03  0.46139184446E+03 0.  0.
         13    1    3    3    0    0  0.24114670376E+02  0.13064260810E+03  0.17152130048E+03  0.21695290940E+03  0.00000000000E+00 0.  1.
          3    1    3    3  501    0  0.15821962457E+01 -0.15333909104E+03 -0.19259952589E+03  0.24619089657E+03  0.00000000000E+00 0.  1.
         21    1    1    2  502  501 -0.25696866621E+02  0.22696482939E+02 -0.23953931159E+02  0.41824037465E+02  0.00000000000E+00 0.  1.
<scales pt_clust_4="550.00000" pt_clust_5="550.00000" pt_clust_6="34.28499"></scales>
<mgrwt>
<rscale>  0 0.30000000E+03</rscale>
<asrwt>  1 0.34284989E+02</asrwt>
<pdfrwt beam="1">  1        1 0.83624670E+00 0.30000000E+03</pdfrwt>
<pdfrwt beam="2">0</pdfrwt>
<totfact> 0.53187118E-04</totfact>
</mgrwt>
<clustering>
<clus scale="   34.285">  1  6  2 -1</clus>
<clus scale="  461.392">  4  5 -1 -1</clus>
<clus scale="  300.000">  1  4  2 -1</clus>
</clustering>
</event>
<event>
 6    1  0.9964252E-012  0.3000000E+03  0.7818608E-02  0.1093470E+00
          1   -1    0    0  502    0  0.00000000000E+00  0.00000000000E+00  0.23887705517E+03  0.23887705517E+03  0.00000000000E+00 0.  1.
         13   -1    0    0    0    0 -0.00000000000E+00 -0.00000000000E+00 -0.27500000000E+03  0.27500000000E+03  0.00000000000E+00 0.  1.
    9000005    2    1    2  501    0  0.20049373014E+02  0.34208055552E+02 -0.34019681703E+02  0.47417073151E+03  0.47128375259E+03 0.  0.
         13    1    3    3    0    0 -0.44667701078E+02 -0.11043799504E+03  0.17510685490E+03  0.21178801878E+03  0.00000000000E+00 0.  1.
          1    1    3    3  501    0  0.64717074092E+02  0.14464605059E+03 -0.20912653660E+03  0.26238271273E+03  0.00000000000E+00 0.  1.
         21    1    1    2  502  501 -0.20049373014E+02 -0.34208055552E+02 -0.21032631245E+01  0.39706323661E+02  0.00000000000E+00 0.  1.
<scales pt_clust_4="550.00000" pt_clust_5="550.00000" pt_clust_6="39.65058"></scales>
<mgrwt>
<rscale>  0 0.30000000E+03</rscale>
<asrwt>  1 0.39650579E+02</asrwt>
<pdfrwt beam="1">  1        1 0.86864384E+00 0.30000000E+03</pdfrwt>
<pdfrwt beam="2">0</pdfrwt>
<totfact> 0.25553987E-04</totfact>
</mgrwt>
<clustering>
<clus scale="   39.651">  1  6  2 -1</clus>
<clus scale="  471.284">  4  5 -1 -1</clus>
<clus scale="  300.000">  1  4  2 -1</clus>
</clustering>
</event>
<event>
 6    1  0.9964252E-012  0.3000000E+03  0.7818608E-02  0.1093470E+00
          1   -1    0    0  502    0  0.00000000000E+00  0.00000000000E+00  0.23261538968E+03  0.23261538968E+03  0.00000000000E+00 0.  1.
         13   -1    0    0    0    0 -0.00000000000E+00 -0.00000000000E+00 -0.27500000000E+03  0.27500000000E+03  0.00000000000E+00 0.  1.
    9000005    2    1    2  501    0 -0.34224668504E+02 -0.51786813591E+01 -0.52616534168E+02  0.47152052937E+03  0.46729537048E+03 0.  0.
         13    1    3    3    0    0  0.71282131259E+02 -0.18042656035E+03  0.98143797024E+02  0.21740996024E+03  0.00000000000E+00 0.  1.
          1    1    3    3  501    0 -0.10550679976E+03  0.17524787899E+03 -0.15076033119E+03  0.25411056914E+03  0.00000000000E+00 0.  1.
         21    1    1    2  502  501  0.34224668504E+02  0.51786813591E+01  0.10231923843E+02  0.36094860304E+02  0.00000000000E+00 0.  1.
<scales pt_clust_4="550.00000" pt_clust_5="550.00000" pt_clust_6="34.61426"></scales>
<mgrwt>
<rscale>  0 0.30000000E+03</rscale>
<asrwt>  1 0.34614255E+02</asrwt>
<pdfrwt beam="1">  1        1 0.84587414E+00 0.30000000E+03</pdfrwt>
<pdfrwt beam="2">0</pdfrwt>
<totfact> 0.44481238E-04</totfact>
</mgrwt>
<clustering>
<clus scale="   34.614">  1  6  2 -1</clus>
<clus scale="  467.295">  4  5 -1 -1</clus>
<clus scale="  300.000">  1  4  2 -1</clus>
</clustering>
</event>
<event>
 6    1  0.9964252E-012  0.3000000E+03  0.7818608E-02  0.1093470E+00
          1   -1    0    0  502    0  0.00000000000E+00  0.00000000000E+00  0.24282388309E+03  0.24282388309E+03  0.00000000000E+00 0.  1.
         13   -1    0    0    0    0 -0.00000000000E+00 -0.00000000000E+00 -0.27500000000E+03  0.27500000000E+03  0.00000000000E+00 0.  1.
    9000005    2    1    2  501    0  0.88541841153E+01  0.37177062337E+02 -0.77579363546E+01  0.47247216778E+03  0.47086009940E+03 0.  0.
         13    1    3    3    0    0  0.19641420946E+03  0.62643311564E+02  0.12516323205E+03  0.24118159303E+03  0.00000000000E+00 0.  1.
          3    1    3    3  501    0 -0.18756002534E+03 -0.25466249226E+02 -0.13292116840E+03  0.23129057474E+03  0.00000000000E+00 0.  1.
         21    1    1    2  502  501 -0.88541841153E+01 -0.37177062337E+02 -0.24418180555E+02  0.45351715315E+02  0.00000000000E+00 0.  1.
<scales pt_clust_4="550.00000" pt_clust_5="550.00000" pt_clust_6="38.21691"></scales>
<mgrwt>
<rscale>  0 0.30000000E+03</rscale>
<asrwt>  1 0.38216907E+02</asrwt>
<pdfrwt beam="1">  1        1 0.88299594E+00 0.30000000E+03</pdfrwt>
<pdfrwt beam="2">0</pdfrwt>
<totfact> 0.17771235E-04</totfact>
</mgrwt>
<clustering>
<clus scale="   38.217">  1  6  2 -1</clus>
<clus scale="  470.860">  4  5 -1 -1</clus>
<clus scale="  300.000">  1  4  2 -1</clus>
</clustering>
</event>
<event>
 6    1  0.9964252E-012  0.3000000E+03  0.7818608E-02  0.1093470E+00
          1   -1    0    0  502    0  0.00000000000E+00  0.00000000000E+00  0.24994796459E+03  0.24994796459E+03  0.00000000000E+00 0.  1.
         13   -1    0    0    0    0 -0.00000000000E+00 -0.00000000000E+00 -0.27500000000E+03  0.27500000000E+03  0.00000000000E+00 0.  1.
    9000005    2    1    2  501    0  0.32948600960E+02 -0.19694021060E+02 -0.55586017219E+02  0.47589912346E+03  0.47108036006E+03 0.  0.
         13    1    3    3    0    0  0.14366891057E+03  0.47820050119E+02 -0.21964265424E+03  0.26677782632E+03  0.00000000000E+00 0.  1.
          3    1    3    3  501    0 -0.11072030961E+03 -0.67514071179E+02  0.16405663702E+03  0.20912129714E+03  0.00000000000E+00 0.  1.
         21    1    1    2  502  501 -0.32948600960E+02  0.19694021060E+02  0.30533981808E+02  0.49048841126E+02  0.00000000000E+00 0.  1.
<scales pt_clust_4="550.00000" pt_clust_5="550.00000" pt_clust_6="38.38574"></scales>
<mgrwt>
<rscale>  0 0.30000000E+03</rscale>
<asrwt>  1 0.38385737E+02</asrwt>
<pdfrwt beam="1">  1        1 0.90890169E+00 0.30000000E+03</pdfrwt>
<pdfrwt beam="2">0</pdfrwt>
<totfact> 0.75040106E-05</totfact>
</mgrwt>
<clustering>
<clus scale="   38.386">  1  6  2 -1</clus>
<clus scale="  471.080">  4  5 -1 -1</clus>
<clus scale="  300.000">  1  4  2 -1</clus>
</clustering>
</event>
<event>
 6    1  0.9964252E-012  0.3000000E+03  0.7818608E-02  0.1093470E+00
          1   -1    0    0  502    0  0.00000000000E+00  0.00000000000E+00  0.22961924099E+03  0.22961924099E+03  0.00000000000E+00 0.  1.
         13   -1    0    0    0    0 -0.00000000000E+00 -0.00000000000E+00 -0.27500000000E+03  0.27500000000E+03  0.00000000000E+00 0.  1.
    9000005    2    1    2  501    0 -0.26160460506E+02 -0.16570409468E+02 -0.57631293929E+02  0.47131723250E+03  0.46675434593E+03 0.  0.
         13    1    3    3    0    0  0.17999775605E+03  0.20781598816E+02  0.10198973563E+03  0.20792540298E+03  0.00000000000E+00 0.  1.
          1    1    3    3  501    0 -0.20615821655E+03 -0.37352008285E+02 -0.15962102956E+03  0.26339182951E+03  0.00000000000E+00 0.  1.
         21    1    1    2  502  501  0.26160460506E+02  0.16570409468E+02  0.12250534917E+02  0.33302008492E+02  0.00000000000E+00 0.  1.
<scales pt_clust_4="550.00000" pt_clust_5="550.00000" pt_clust_6="30.96689"></scales>
<mgrwt>
<rscale>  0 0.30000000E+03</rscale>
<asrwt>  1 0.30966888E+02</asrwt>
<pdfrwt beam="1">  1        1 0.83497906E+00 0.30000000E+03</pdfrwt>
<pdfrwt beam="2">0</pdfrwt>
<totfact> 0.55386177E-04</totfact>
</mgrwt>
<clustering>
<clus scale="   30.967">  1  6  2 -1</clus>
<clus scale="  466.754">  4  5 -1 -1</clus>
<clus scale="  300.000">  1  4  2 -1</clus>
</clustering>
</event>
<event>
 6    1  0.9964252E-012  0.3000000E+03  0.7818608E-02  0.1093470E+00
          1   -1    0    0  502    0  0.00000000000E+00  0.00000000000E+00  0.24090162848E+03  0.24090162848E+03  0.00000000000E+00 0.  1.
         13   -1    0    0    0    0 -0.00000000000E+00 -0.00000000000E+00 -0.27500000000E+03  0.27500000000E+03  0.00000000000E+00 0.  1.
    9000005    2    1    2  501    0 -0.12173591528E+02 -0.28574183620E+02 -0.36810128160E+02  0.48472416989E+03  0.48232546588E+03 0.  0.
         13    1    3    3    0    0  0.11476409770E+03 -0.57016066090E+02 -0.22323405952E+03  0.25740061236E+03  0.00000000000E+00 0.  1.
          1    1    3    3  501    0 -0.12693768923E+03  0.28441882471E+02  0.18642393136E+03  0.22732355753E+03  0.00000000000E+00 0.  1.
         21    1    1    2  502  501  0.12173591528E+02  0.28574183620E+02  0.27117566437E+01  0.31177458593E+02  0.00000000000E+00 0. -1.
<scales pt_clust_4="550.00000" pt_clust_5="550.00000" pt_clust_6="31.05930"></scales>
<mgrwt>
<rscale>  0 0.30000000E+03</rscale>
<asrwt>  1 0.31059303E+02</asrwt>
<pdfrwt beam="1">  1        1 0.87600592E+00 0.30000000E+03</pdfrwt>
<pdfrwt beam="2">0</pdfrwt>
<totfact> 0.22443913E-04</totfact>
</mgrwt>
<clustering>
<clus scale="   31.059">  1  6  2 -1</clus>
<clus scale="  482.325">  4  5 -1 -1</clus>
<clus scale="  300.000">  1  4  2 -1</clus>
</clustering>
</event>
<event>
 6    1  0.9964252E-012  0.3000000E+03  0.7818608E-02  0.1093470E+00
          1   -1    0    0  502    0  0.00000000000E+00  0.00000000000E+00  0.23972412734E+03  0.23972412734E+03  0.00000000000E+00 0.  1.
         13   -1    0    0    0    0 -0.00000000000E+00 -0.00000000000E+00 -0.27500000000E+03  0.27500000000E+03  0.00000000000E+00 0.  1.
    9000005    2    1    2  501    0  0.15358725386E+02 -0.31496776283E+02 -0.55206521849E+02  0.47441075315E+03  0.46988282080E+03 0.  0.
         13    1    3    3    0    0 -0.47977918430E+01 -0.17651339107E+03  0.14353833807E+03  0.22755933408E+03  0.00000000000E+00 0.  1.
          3    1    3    3  501    0  0.20156517229E+02  0.14501661478E+03 -0.19874485992E+03  0.24685141907E+03  0.00000000000E+00 0.  1.
         21    1    1    2  502  501 -0.15358725386E+02  0.31496776283E+02  0.19930649193E+02  0.40313374195E+02  0.00000000000E+00 0.  1.
<scales pt_clust_4="550.00000" pt_clust_5="550.00000" pt_clust_6="35.04194"></scales>
<mgrwt>
<rscale>  0 0.30000000E+03</rscale>
<asrwt>  1 0.35041937E+02</asrwt>
<pdfrwt beam="1">  1        1 0.87172410E+00 0.30000000E+03</pdfrwt>
<pdfrwt beam="2">0</pdfrwt>
<totfact> 0.24313705E-04</totfact>
</mgrwt>
<clustering>
<clus scale="   35.042">  1  6  2 -1</clus>
<clus scale="  469.883">  4  5 -1 -1</clus>
<clus scale="  300.000">  1  4  2 -1</clus>
</clustering>
</event>
<event>
 6    1  0.9964252E-012  0.3000000E+03  0.7818608E-02  0.1093470E+00
          1   -1    0    0  502    0  0.00000000000E+00  0.00000000000E+00  0.24492377415E+03  0.24492377415E+03  0.00000000000E+00 0.  1.
         13   -1    0    0    0    0 -0.00000000000E+00 -0.00000000000E+00 -0.27500000000E+03  0.27500000000E+03  0.00000000000E+00 0.  1.
    9000005    2    1    2  501    0 -0.25284900030E+01  0.30449862807E+02 -0.46600128403E+02  0.48518724061E+03  0.48197665823E+03 0.  0.
         13    1    3    3    0    0 -0.17549672714E+03  0.17555762538E+03 -0.70765840583E+02  0.25812281042E+03  0.00000000000E+00 0.  1.
          1    1    3    3  501    0  0.17296823713E+03 -0.14510776257E+03  0.24165712180E+02  0.22706443020E+03  0.00000000000E+00 0.  1.
         21    1    1    2  502  501  0.25284900030E+01 -0.30449862807E+02  0.16523902552E+02  0.34736533538E+02  0.00000000000E+00 0.  1.
<scales pt_clust_4="550.00000" pt_clust_5="550.00000" pt_clust_6="30.55466"></scales>
<mgrwt>
<rscale>  0 0.30000000E+03</rscale>
<asrwt>  1 0.30554663E+02</asrwt>
<pdfrwt beam="1">  1        1 0.89063191E+00 0.30000000E+03</pdfrwt>
<pdfrwt beam="2">0</pdfrwt>
<totfact> 0.14590776E-04</totfact>
</mgrwt>
<clustering>
<clus scale="   30.555">  1  6  2 -1</clus>
<clus scale="  481.977">  4  5 -1 -1</clus>
<clus scale="  300.000">  1  4  2 -1</clus>
</clustering>
</event>
<event>
 6    1  0.9964252E-012  0.3000000E+03  0.7818608E-02  0.1093470E+00
          1   -1    0    0  502    0  0.00000000000E+00  0.00000000000E+00  0.23345167797E+03  0.23345167797E+03  0.00000000000E+00 0.  1.
         13   -1    0    0    0    0 -0.00000000000E+00 -0.00000000000E+00 -0.27500000000E+03  0.27500000000E+03  0.00000000000E+00 0.  1.
    9000005    2    1    2  501    0 -0.23900065560E+02  0.26280605624E+02 -0.52217429894E+02  0.47136106961E+03  0.46711103027E+03 0.  0.
         13    1    3    3    0    0  0.42593070349E+02 -0.21345693612E+03 -0.46125796182E+02  0.22249858942E+03  0.00000000000E+00 0.  1.
          3    1    3    3  501    0 -0.66493135909E+02  0.23973754175E+03 -0.60916337125E+01  0.24886248019E+03  0.00000000000E+00 0.  1.
         21    1    1    2  502  501  0.23900065560E+02 -0.26280605624E+02  0.10669107865E+02  0.37090608358E+02  0.00000000000E+00 0.  1.
<scales pt_clust_4="550.00000" pt_clust_5="550.00000" pt_clust_6="35.52300"></scales>
<mgrwt>
<rscale>  0 0.30000000E+03</rscale>
<asrwt>  1 0.35522998E+02</asrwt>
<pdfrwt beam="1">  1        1 0.84891519E+00 0.30000000E+03</pdfrwt>
<pdfrwt beam="2">0</pdfrwt>
<totfact> 0.41542368E-04</totfact>
</mgrwt>
<clustering>
<clus scale="   35.523">  1  6  2 -1</clus>
<clus scale="  467.111">  4  5 -1 -1</clus>
<clus scale="  300.000">  1  4  2 -1</clus>
</clustering>
</event>
<event>
 6    1  0.9964252E-012  0.3000000E+03  0.7818608E-02  0.1093470E+00
          1   -1    0    0  502    0  0.00000000000E+00  0.00000000000E+00  0.23984887163E+03  0.23984887163E+03  0.00000000000E+00 0.  1.
         13   -1    0    0    0    0 -0.00000000000E+00 -0.00000000000E+00 -0.27500000000E+03  0.27500000000E+03  0.00000000000E+00 0.  1.
    9000005    2    1    2  501    0  0.24160272519E+02 -0.21076542813E+02 -0.62074122358E+02  0.47298257217E+03  0.46779416145E+03 0.  0.
         13    1    3    3    0    0 -0.11957568035E+03  0.41760235716E+02 -0.21779438082E+03  0.25194573411E+03  0.00000000000E+00 0.  1.
          1    1    3    3  501    0  0.14373595287E+03 -0.62836778528E+02  0.15572025847E+03  0.22103683806E+03  0.00000000000E+00 0.  1.
         21    1    1    2  502  501 -0.24160272519E+02  0.21076542813E+02  0.26922993983E+02  0.41866299456E+02  0.00000000000E+00 0.  1.
<scales pt_clust_4="550.00000" pt_clust_5="550.00000" pt_clust_6="32.06149"></scales>
<mgrwt>
<rscale>  0 0.30000000E+03</rscale>
<asrwt>  1 0.32061494E+02</asrwt>
<pdfrwt beam="1">  1        1 0.87217772E+00 0.30000000E+03</pdfrwt>
<pdfrwt beam="2">0</pdfrwt>
<totfact> 0.24462003E-04</totfact>
</mgrwt>
<clustering>
<clus scale="   32.061">  1  6  2 -1</clus>
<clus scale="  467.794">  4  5 -1 -1</clus>
<clus scale="  300.000">  1  4  2 -1</clus>
</clustering>
</event>
<event>
 6    1  0.9964252E-012  0.3000000E+03  0.7818608E-02  0.1093470E+00
          1   -1    0    0  502    0  0.00000000000E+00  0.00000000000E+00  0.22653009373E+03  0.22653009373E+03  0.00000000000E+00 0.  1.
         13   -1    0    0    0    0 -0.00000000000E+00 -0.00000000000E+00 -0.27500000000E+03  0.27500000000E+03  0.00000000000E+00 0.  1.
    9000005    2    1    2  501    0 -0.26584046959E+02 -0.20511862565E+02 -0.50385091536E+02  0.46789802580E+03  0.46396385316E+03 0.  0.
         13    1    3    3    0    0  0.96900125907E+02 -0.16991882831E+03 -0.15322401585E+03  0.24847462979E+03  0.00000000000E+00 0.  1.
          3    1    3    3  501    0 -0.12348417287E+03  0.14940696575E+03  0.10283892432E+03  0.21942339601E+03  0.00000000000E+00 0.  1.
         21    1    1    2  502  501  0.26584046959E+02  0.20511862565E+02  0.19151852678E+01  0.33632067930E+02  0.00000000000E+00 0.  1.
<scales pt_clust_4="550.00000" pt_clust_5="550.00000" pt_clust_6="33.57749"></scales>
<mgrwt>
<rscale>  0 0.30000000E+03</rscale>
<asrwt>  1 0.33577493E+02</asrwt>
<pdfrwt beam="1">  1        1 0.82374580E+00 0.30000000E+03</pdfrwt>
<pdfrwt beam="2">0</pdfrwt>
<totfact> 0.67548654E-04</totfact>
</mgrwt>
<clustering>
<clus scale="   33.577">  1  6  2 -1</clus>
<clus scale="  463.964">  4  5 -1 -1</clus>
<clus scale="  300.000">  1  4  2 -1</clus>
</clustering>
</event>
<event>
 6    1  0.9964252E-012  0.3000000E+03  0.7818608E-02  0.1093470E+00
          1   -1    0    0  502    0  0.00000000000E+00  0.00000000000E+00  0.22998292721E+03  0.22998292721E+03  0.00000000000E+00 0.  1.
         13   -1    0    0    0    0 -0.00000000000E+00 -0.00000000000E+00 -0.27500000000E+03  0.27500000000E+03  0.00000000000E+00 0.  1.
    9000005    2    1    2  501    0 -0.16183057032E+02 -0.30159196622E+02 -0.55493902094E+02  0.46918862001E+03  0.46463633037E+03 0.  0.
         13    1    3    3    0    0 -0.83600105373E+02  0.12618050506E+03  0.14261945748E+03  0.20796828395E+03  0.00000000000E+00 0.  1.
          3    1    3    3  501    0  0.67417048342E+02 -0.15633970168E+03 -0.19811335958E+03  0.26122033606E+03  0.00000000000E+00 0.  1.
         21    1    1    2  502  501  0.16183057032E+02  0.30159196622E+02  0.10476829301E+02  0.35794307200E+02  0.00000000000E+00 0. -1.
<scales pt_clust_4="550.00000" pt_clust_5="550.00000" pt_clust_6="34.22672"></scales>
<mgrwt>
<rscale>  0 0.30000000E+03</rscale>
<asrwt>  1 0.34226722E+02</asrwt>
<pdfrwt beam="1">  1        1 0.83630155E+00 0.30000000E+03</pdfrwt>
<pdfrwt beam="2">0</pdfrwt>
<totfact> 0.53155390E-04</totfact>
</mgrwt>
<clustering>
<clus scale="   34.227">  1  6  2 -1</clus>
<clus scale="  464.636">  4  5 -1 -1</clus>
<clus scale="  300.000">  1  4  2 -1</clus>
</clustering>
</event>
<event>
 6    1  0.9964252E-012  0.3000000E+03  0.7818608E-02  0.1093470E+00
          1   -1    0    0  502    0  0.00000000000E+00  0.00000000000E+00  0.22375318823E+03  0.22375318823E+03  0.00000000000E+00 0.  1.
         13   -1    0    0    0    0 -0.00000000000E+00 -0.00000000000E+00 -0.27500000000E+03  0.27500000000E+03  0.00000000000E+00 0.  1.
    9000005    2    1    2  501    0  0.24957124917E+02 -0.23735241272E+02 -0.61696512718E+02  0.46276130009E+03  0.45733504284E+03 0.  0.
         13    1    3    3    0    0  0.20320386142E+03 -0.13273414914E+03  0.70297564194E+01  0.24281594083E+03  0.00000000000E+00 0.  1.
          1    1    3    3  501    0 -0.17824673650E+03  0.10899890787E+03 -0.68726269137E+02  0.21994535926E+03  0.00000000000E+00 0.  1.
         21    1    1    2  502  501 -0.24957124917E+02  0.23735241272E+02  0.10449700949E+02  0.35991888146E+02  0.00000000000E+00 0. -1.
<scales pt_clust_4="550.00000" pt_clust_5="550.00000" pt_clust_6="34.44154"></scales>
<mgrwt>
<rscale>  0 0.30000000E+03</rscale>
<asrwt>  1 0.34441541E+02</asrwt>
<pdfrwt beam="1">  1        1 0.81364796E+00 0.30000000E+03</pdfrwt>
<pdfrwt beam="2">0</pdfrwt>
<totfact> 0.81867614E-04</totfact>
</mgrwt>
<clustering>
<clus scale="   34.442">  1  6  2 -1</clus>
<clus scale="  457.335">  4  5 -1 -1</clus>
<clus scale="  300.000">  1  4  2 -1</clus>
</clustering>
</event>
<event>
 6    1  0.9964252E-012  0.3000000E+03  0.7818608E-02  0.1093470E+00
          1   -1    0    0  502    0  0.00000000000E+00  0.00000000000E+00  0.25229561138E+03  0.25229561138E+03  0.00000000000E+00 0.  1.
         13   -1    0    0    0    0 -0.00000000000E+00 -0.00000000000E+00 -0.27500000000E+03  0.27500000000E+03  0.00000000000E+00 0.  1.
    9000005    2    1    2  501    0  0.22008684461E+02 -0.34436085517E+02 -0.57559772276E+02  0.47358226158E+03  0.46829136755E+03 0.  0.
         13    1    3    3    0    0 -0.22287374511E+03 -0.31781947926E+02 -0.24256898679E+02  0.22643143688E+03  0.00000000000E+00 0.  1.
          1    1    3    3  501    0  0.24488242957E+03 -0.26541375907E+01 -0.33302873597E+02  0.24715082470E+03  0.00000000000E+00 0.  1.
         21    1    1    2  502  501 -0.22008684461E+02  0.34436085517E+02  0.34855383654E+02  0.53713349803E+02  0.00000000000E+00 0.  1.
<scales pt_clust_4="550.00000" pt_clust_5="550.00000" pt_clust_6="40.86840"></scales>
<mgrwt>
<rscale>  0 0.30000000E+03</rscale>
<asrwt>  1 0.40868401E+02</asrwt>
<pdfrwt beam="1">  1        1 0.91743859E+00 0.30000000E+03</pdfrwt>
<pdfrwt beam="2">0</pdfrwt>
<totfact> 0.46278372E-05</totfact>
</mgrwt>
<clustering>
<clus scale="   40.868">  1  6  2 -1</clus>
<clus scale="  468.291">  4  5 -1 -1</clus>
<clus scale="  300.000">  1  4  2 -1</clus>
</clustering>
</event>
<event>
 6    1  0.9964252E-012  0.3000000E+03  0.7818608E-02  0.1093470E+00
          1   -1    0    0  502    0  0.00000000000E+00  0.00000000000E+00  0.22387752167E+03  0.22387752167E+03  0.00000000000E+00 0.  1.
         13   -1    0    0    0    0 -0.00000000000E+00 -0.00000000000E+00 -0.27500000000E+03  0.27500000000E+03  0.00000000000E+00 0.  1.
    9000005    2    1    2  501    0  0.12577304334E+02 -0.28273076475E+02 -0.69270690082E+02  0.46300395163E+03  0.45674574468E+03 0.  0.
         13    1    3    3    0    0 -0.12599516594E+03 -0.17855119036E+03  0.52927532665E+02  0.22484802230E+03  0.00000000000E+00 0.  1.
          1    1    3    3  501    0  0.13857247027E+03  0.15027811389E+03 -0.12219822275E+03  0.23815592933E+03  0.00000000000E+00 0.  1.
         21    1    1    2  502  501 -0.12577304334E+02  0.28273076475E+02  0.18148211750E+02  0.35873570040E+02  0.00000000000E+00 0.  1.
<scales pt_clust_4="550.00000" pt_clust_5="550.00000" pt_clust_6="30.94439"></scales>
<mgrwt>
<rscale>  0 0.30000000E+03</rscale>
<asrwt>  1 0.30944393E+02</asrwt>
<pdfrwt beam="1">  1        1 0.81410008E+00 0.30000000E+03</pdfrwt>
<pdfrwt beam="2">0</pdfrwt>
<totfact> 0.82851863E-04</totfact>
</mgrwt>
<clustering>
<clus scale="   30.944">  1  6  2 -1</clus>
<clus scale="  456.746">  4  5 -1 -1</clus>
<clus scale="  300.000">  1  4  2 -1</clus>
</clustering>
</event>
<event>
 6    1  0.9964252E-012  0.3000000E+03  0.7818608E-02  0.1093470E+00
          1   -1    0    0  502    0  0.00000000000E+00  0.00000000000E+00  0.23663903501E+03  0.23663903501E+03  0.00000000000E+00 0.  1.
         13   -1    0    0    0    0 -0.00000000000E+00 -0.00000000000E+00 -0.27500000000E+03  0.27500000000E+03  0.00000000000E+00 0.  1.
    9000005    2    1    2  501    0  0.32045235004E+02  0.97083539966E+01 -0.53432298318E+02  0.47491990768E+03  0.47071515695E+03 0.  0.
         13    1    3    3    0    0 -0.78791288165E+02  0.10706900696E+03 -0.21710646966E+03  0.25457230507E+03  0.00000000000E+00 0.  1.
          3    1    3    3  501    0  0.11083652317E+03 -0.97360652959E+02  0.16367417134E+03  0.22034760261E+03  0.00000000000E+00 0.  1.
         21    1    1    2  502  501 -0.32045235004E+02 -0.97083539966E+01  0.15071333328E+02  0.36719127332E+02  0.00000000000E+00 0. -1.
<scales pt_clust_4="550.00000" pt_clust_5="550.00000" pt_clust_6="33.48357"></scales>
<mgrwt>
<rscale>  0 0.30000000E+03</rscale>
<asrwt>  1 0.33483566E+02</asrwt>
<pdfrwt beam="1">  1        1 0.86050558E+00 0.30000000E+03</pdfrwt>
<pdfrwt beam="2">0</pdfrwt>
<totfact> 0.32213098E-04</totfact>
</mgrwt>
<clustering>
<clus scale="   33.484">  1  6  2 -1</clus>
<clus scale="  470.715">  4  5 -1 -1</clus>
<clus scale="  300.000">  1  4  2 -1</clus>
</clustering>
</event>
<event>
 6    1  0.9964252E-012  0.3000000E+03  0.7818608E-02  0.1093470E+00
          1   -1    0    0  502    0  0.00000000000E+00  0.00000000000E+00  0.24754265259E+03  0.24754265259E+03  0.00000000000E+00 0.  1.
         13   -1    0    0    0    0 -0.00000000000E+00 -0.00000000000E+00 -0.27500000000E+03  0.27500000000E+03  0.00000000000E+00 0.  1.
    9000005    2    1    2  501    0  0.18417701647E+02  0.31604304858E+02 -0.62268417216E+02  0.47204656957E+03  0.46648961858E+03 0.  0.
         13    1    3    3    0    0  0.11929758880E+03  0.12091969345E+03 -0.21131750113E+03  0.27112464521E+03  0.00000000000E+00 0.  1.
          1    1    3    3  501    0 -0.10087988716E+03 -0.89315388590E+02  0.14904908391E+03  0.20092192436E+03  0.00000000000E+00 0.  1.
         21    1    1    2  502  501 -0.18417701647E+02 -0.31604304858E+02  0.34811069807E+02  0.50496083022E+02  0.00000000000E+00 0.  1.
<scales pt_clust_4="550.00000" pt_clust_5="550.00000" pt_clust_6="36.57928"></scales>
<mgrwt>
<rscale>  0 0.30000000E+03</rscale>
<asrwt>  1 0.36579281E+02</asrwt>
<pdfrwt beam="1">  1        1 0.90015510E+00 0.30000000E+03</pdfrwt>
<pdfrwt beam="2">0</pdfrwt>
<totfact> 0.10904549E-04</totfact>
</mgrwt>
<clustering>
<clus scale="   36.579">  1  6  2 -1</clus>
<clus scale="  466.490">  4  5 -1 -1</clus>
<clus scale="  300.000">  1  4  2 -1</clus>
</clustering>
</event>
<event>
 6    1  0.9964252E-012  0.3000000E+03  0.7818608E-02  0.1093470E+00
          1   -1    0    0  502    0  0.00000000000E+00  0.00000000000E+00  0.23956601179E+03  0.23956601179E+03  0.00000000000E+00 0.  1.
         13   -1    0    0    0    0 -0.00000000000E+00 -0.00000000000E+00 -0.27500000000E+03  0.27500000000E+03  0.00000000000E+00 0.  1.
    9000005    2    1    2  501    0 -0.13676771992E+02 -0.27729384925E+02 -0.50402854246E+02  0.48021430396E+03  0.47655991977E+03 0.  0.
         13    1    3    3    0    0  0.79962054955E+02 -0.23543914810E+03 -0.10223070108E+02  0.24885745690E+03  0.00000000000E+00 0.  1.
          1    1    3    3  501    0 -0.93638826947E+02  0.20770976317E+03 -0.40179784138E+02  0.23135684706E+03  0.00000000000E+00 0.  1.
         21    1    1    2  502  501  0.13676771992E+02  0.27729384925E+02  0.14968866038E+02  0.34351707831E+02  0.00000000000E+00 0. -1.
<scales pt_clust_4="550.00000" pt_clust_5="550.00000" pt_clust_6="30.91881"></scales>
<mgrwt>
<rscale>  0 0.30000000E+03</rscale>
<asrwt>  1 0.30918811E+02</asrwt>
<pdfrwt beam="1">  1        1 0.87114913E+00 0.30000000E+03</pdfrwt>
<pdfrwt beam="2">0</pdfrwt>
<totfact> 0.25235132E-04</totfact>
</mgrwt>
<clustering>
<clus scale="   30.919">  1  6  2 -1</clus>
<clus scale="  476.560">  4  5 -1 -1</clus>
<clus scale="  300.000">  1  4  2 -1</clus>
</clustering>
</event>
<event>
 6    1  0.9964252E-012  0.3000000E+03  0.7818608E-02  0.1093470E+00
          1   -1    0    0  502    0  0.00000000000E+00  0.00000000000E+00  0.23568075646E+03  0.23568075646E+03  0.00000000000E+00 0.  1.
         13   -1    0    0    0    0 -0.00000000000E+00 -0.00000000000E+00 -0.27500000000E+03  0.27500000000E+03  0.00000000000E+00 0.  1.
    9000005    2    1    2  501    0  0.14387130029E+02 -0.30727209759E+02 -0.60931855072E+02  0.47045320486E+03  0.46525517308E+03 0.  0.
         13    1    3    3    0    0 -0.81678845998E+02  0.13417663880E+03 -0.18510065934E+03  0.24276955817E+03  0.00000000000E+00 0.  1.
          3    1    3    3  501    0  0.96065976027E+02 -0.16490384856E+03  0.12416880427E+03  0.22768364670E+03  0.00000000000E+00 0.  1.
         21    1    1    2  502  501 -0.14387130029E+02  0.30727209759E+02  0.21612611530E+02  0.40227551593E+02  0.00000000000E+00 0. -1.
<scales pt_clust_4="550.00000" pt_clust_5="550.00000" pt_clust_6="33.92862"></scales>
<mgrwt>
<rscale>  0 0.30000000E+03</rscale>
<asrwt>  1 0.33928615E+02</asrwt>
<pdfrwt beam="1">  1        1 0.85702093E+00 0.30000000E+03</pdfrwt>
<pdfrwt beam="2">0</pdfrwt>
<totfact> 0.34963478E-04</totfact>
</mgrwt>
<clustering>
<clus scale="   33.929">  1  6  2 -1</clus>
<clus scale="  465.255">  4  5 -1 -1</clus>
<clus scale="  300.000">  1  4  2 -1</clus>
</clustering>
</event>
<event>
 6    1  0.9964252E-012  0.3000000E+03  0.7818608E-02  0.1093470E+00
          1   -1    0    0  502    0  0.00000000000E+00  0.00000000000E+00  0.26264837470E+03  0.26264837470E+03  0.00000000000E+00 0.  1.
         13   -1    0    0    0    0 -0.00000000000E+00 -0.00000000000E+00 -0.27500000000E+03  0.27500000000E+03  0.00000000000E+00 0.  1.
    9000005    2    1    2  501    0 -0.29394843271E+02 -0.10377246450E+02 -0.43573106695E+02  0.49352893505E+03  0.49061232154E+03 0.  0.
         13    1    3    3    0    0 -0.12086828022E+03 -0.18539952211E+03  0.10638653855E+03  0.24556103018E+03  0.00000000000E+00 0.  1.
          3    1    3    3  501    0  0.91473436945E+02  0.17502227566E+03 -0.14995964524E+03  0.24796790487E+03  0.00000000000E+00 0.  1.
         21    1    1    2  502  501  0.29394843271E+02  0.10377246450E+02  0.31221481399E+02  0.44119439656E+02  0.00000000000E+00 0.  1.
<scales pt_clust_4="550.00000" pt_clust_5="550.00000" pt_clust_6="31.17281"></scales>
<mgrwt>
<rscale>  0 0.30000000E+03</rscale>
<asrwt>  1 0.31172810E+02</asrwt>
<pdfrwt beam="1">  1        1 0.95508500E+00 0.30000000E+03</pdfrwt>
<pdfrwt beam="2">0</pdfrwt>
<totfact> 0.98812864E-06</totfact>
</mgrwt>
<clustering>
<clus scale="   31.173">  1  6  2 -1</clus>
<clus scale="  490.612">  4  5 -1 -1</clus>
<clus scale="  300.000">  1  4  2 -1</clus>
</clustering>
</event>
<event>
 6    1  0.9964252E-012  0.3000000E+03  0.7818608E-02  0.1093470E+00
          1   -1    0    0  502    0  0.00000000000E+00  0.00000000000E+00  0.23915376008E+03  0.23915376008E+03  0.00000000000E+00 0.  1.
         13   -1    0    0    0    0 -0.00000000000E+00 -0.00000000000E+00 -0.27500000000E+03  0.27500000000E+03  0.00000000000E+00 0.  1.
    9000005    2    1    2  501    0  0.96382324512E+00 -0.39442487020E+02 -0.37739131003E+02  0.47465411737E+03  0.47150360592E+03 0.  0.
         13    1    3    3    0    0  0.12032299546E+03 -0.20308966431E+03  0.68684025828E+02  0.24584655863E+03  0.00000000000E+00 0.  1.
          1    1    3    3  501    0 -0.11935917221E+03  0.16364717729E+03 -0.10642315683E+03  0.22880755874E+03  0.00000000000E+00 0.  1.
         21    1    1    2  502  501 -0.96382324512E+00  0.39442487020E+02  0.18928910849E+01  0.39499642710E+02  0.00000000000E+00 0. -1.
<scales pt_clust_4="550.00000" pt_clust_5="550.00000" pt_clust_6="39.45426"></scales>
<mgrwt>
<rscale>  0 0.30000000E+03</rscale>
<asrwt>  1 0.39454261E+02</asrwt>
<pdfrwt beam="1">  1        1 0.86965004E+00 0.30000000E+03</pdfrwt>
<pdfrwt beam="2">0</pdfrwt>
<totfact> 0.24975191E-04</totfact>
</mgrwt>
<clustering>
<clus scale="   39.454">  1  6  2 -1</clus>
<clus scale="  471.504">  4  5 -1 -1</clus>
<clus scale="  300.000">  1  4  2 -1</clus>
</clustering>
</event>
<event>
 6    1  0.9964252E-012  0.3000000E+03  0.7818608E-02  0.1093470E+00
          1   -1    0    0  502    0  0.00000000000E+00  0.00000000000E+00  0.24440586952E+03  0.24440586952E+03  0.00000000000E+00 0.  1.
         13   -1    0    0    0    0 -0.00000000000E+00 -0.00000000000E+00 -0.27500000000E+03  0.27500000000E+03  0.00000000000E+00 0.  1.
    9000005    2    1    2  501    0  0.27922120965E+02  0.12056147131E+02 -0.42496332512E+02  0.48674613994E+03  0.48393271325E+03 0.  0.
         13    1    3    3    0    0 -0.18286303925E+03  0.14694037911E+03 -0.24185381035E+02  0.23582896088E+03  0.00000000000E+00 0.  1.
          1    1    3    3  501    0  0.21078516021E+03 -0.13488423198E+03 -0.18310951477E+02  0.25091717906E+03  0.00000000000E+00 0.  1.
         21    1    1    2  502  501 -0.27922120965E+02 -0.12056147131E+02  0.11902202031E+02  0.32659729576E+02  0.00000000000E+00 0. -1.
<scales pt_clust_4="550.00000" pt_clust_5="550.00000" pt_clust_6="30.41374"></scales>
<mgrwt>
<rscale>  0 0.30000000E+03</rscale>
<asrwt>  1 0.30413739E+02</asrwt>
<pdfrwt beam="1">  1        1 0.88874862E+00 0.30000000E+03</pdfrwt>
<pdfrwt beam="2">0</pdfrwt>
<totfact> 0.15476216E-04</totfact>
</mgrwt>
<clustering>
<clus scale="   30.414">  1  6  2 -1</clus>
<clus scale="  483.933">  4  5 -1 -1</clus>
<clus scale="  300.000">  1  4  2 -1</clus>
</clustering>
</event>
<event>
 6    1  0.9964252E-012  0.3000000E+03  0.7818608E-02  0.1093470E+00
          1   -1    0    0  502    0  0.00000000000E+00  0.00000000000E+00  0.23014551978E+03  0.23014551978E+03  0.00000000000E+00 0.  1.
         13   -1    0    0    0    0 -0.00000000000E+00 -0.00000000000E+00 -0.27500000000E+03  0.27500000000E+03  0.00000000000E+00 0.  1.
    9000005    2    1    2  501    0  0.33490228186E+02 -0.89514539278E-01 -0.34125761094E+02  0.46997864885E+03  0.46754011529E+03 0.  0.
         13    1    3    3    0    0  0.90844053847E+02 -0.21955178607E+03 -0.49204182972E+02  0.24264517409E+03  0.00000000000E+00 0.  1.
          1    1    3    3  501    0 -0.57353825661E+02  0.21946227153E+03  0.15078421878E+02  0.22733347477E+03  0.00000000000E+00 0.  1.
         21    1    1    2  502  501 -0.33490228186E+02  0.89514539278E-01 -0.10728719126E+02  0.35166870928E+02  0.00000000000E+00 0.  1.
<scales pt_clust_4="550.00000" pt_clust_5="550.00000" pt_clust_6="33.49036"></scales>
<mgrwt>
<rscale>  0 0.30000000E+03</rscale>
<asrwt>  1 0.33490365E+02</asrwt>
<pdfrwt beam="1">  1        1 0.83689280E+00 0.30000000E+03</pdfrwt>
<pdfrwt beam="2">0</pdfrwt>
<totfact> 0.52848655E-04</totfact>
</mgrwt>
<clustering>
<clus scale="   33.490">  1  6  2 -1</clus>
<clus scale="  467.540">  4  5 -1 -1</clus>
<clus scale="  300.000">  1  4  2 -1</clus>
</clustering>
</event>
<event>
 6    1  0.9964252E-012  0.3000000E+03  0.7818608E-02  0.1093470E+00
          1   -1    0    0  502    0  0.00000000000E+00  0.00000000000E+00  0.22621209402E+03  0.22621209402E+03  0.00000000000E+00 0.  1.
         13   -1    0    0    0    0 -0.00000000000E+00 -0.00000000000E+00 -0.27500000000E+03  0.27500000000E+03  0.00000000000E+00 0.  1.
    9000005    2    1    2  501    0  0.13337153179E+02 -0.30624608271E+02 -0.59442211195E+02  0.46615128247E+03  0.46113761004E+03 0.  0.
         13    1    3    3    0    0 -0.15424328644E+03  0.13921958050E+03  0.32774371264E+02  0.21035028505E+03  0.00000000000E+00 0.  1.
          1    1    3    3  501    0  0.16758043962E+03 -0.16984418877E+03 -0.92216582458E+02  0.25580099743E+03  0.00000000000E+00 0.  1.
         21    1    1    2  502  501 -0.13337153179E+02  0.30624608271E+02  0.10654305212E+02  0.35060811545E+02  0.00000000000E+00 0.  1.
<scales pt_clust_4="550.00000" pt_clust_5="550.00000" pt_clust_6="33.40279"></scales>
<mgrwt>
<rscale>  0 0.30000000E+03</rscale>
<asrwt>  1 0.33402789E+02</asrwt>
<pdfrwt beam="1">  1        1 0.82258943E+00 0.30000000E+03</pdfrwt>
<pdfrwt beam="2">0</pdfrwt>
<totfact> 0.69239834E-04</totfact>
</mgrwt>
<clustering>
<clus scale="   33.403">  1  6  2 -1</clus>
<clus scale="  461.138">  4  5 -1 -1</clus>
<clus scale="  300.000">  1  4  2 -1</clus>
</clustering>
</event>
<event>
 6    1  0.9964252E-012  0.3000000E+03  0.7818608E-02  0.1093470E+00
          1   -1    0    0  502    0  0.00000000000E+00  0.00000000000E+00  0.23993144990E+03  0.23993144990E+03  0.00000000000E+00 0.  1.
         13   -1    0    0    0    0 -0.00000000000E+00 -0.00000000000E+00 -0.27500000000E+03  0.27500000000E+03  0.00000000000E+00 0.  1.
    9000005    2    1    2  501    0  0.12261445577E+02 -0.32550771215E+02 -0.67113531560E+02  0.46763687737E+03  0.46148686569E+03 0.  0.
         13    1    3    3    0    0  0.97663722191E+02  0.16461565243E+03  0.79768232054E+02  0.20736317538E+03  0.00000000000E+00 0.  1.
          1    1    3    3  501    0 -0.85402276614E+02 -0.19716642365E+03 -0.14688176361E+03  0.26027370199E+03  0.00000000000E+00 0.  1.
         21    1    1    2  502  501 -0.12261445577E+02  0.32550771215E+02  0.32044981457E+02  0.47294572531E+02  0.00000000000E+00 0.  1.
<scales pt_clust_4="550.00000" pt_clust_5="550.00000" pt_clust_6="34.78356"></scales>
<mgrwt>
<rscale>  0 0.30000000E+03</rscale>
<asrwt>  1 0.34783556E+02</asrwt>
<pdfrwt beam="1">  1        1 0.87247800E+00 0.30000000E+03</pdfrwt>
<pdfrwt beam="2">0</pdfrwt>
<totfact> 0.23918863E-04</totfact>
</mgrwt>
<clustering>
<clus scale="   34.784">  1  6  2 -1</clus>
<clus scale="  461.487">  4  5 -1 -1</clus>
<clus scale="  300.000">  1  4  2 -1</clus>
</clustering>
</event>
<event>
 6    1  0.9964252E-012  0.3000000E+03  0.7818608E-02  0.1093470E+00
          1   -1    0    0  502    0  0.00000000000E+00  0.00000000000E+00  0.22157499163E+03  0.22157499163E+03  0.00000000000E+00 0.  1.
         13   -1    0    0    0    0 -0.00000000000E+00 -0.00000000000E+00 -0.27500000000E+03  0.27500000000E+03  0.00000000000E+00 0.  1.
    9000005    2    1    2  501    0  0.39494959418E+01 -0.32397677959E+02 -0.63348597478E+02  0.46246215422E+03  0.45693871715E+03 0.  0.
         13    1    3    3    0    0 -0.16463793022E+03 -0.50140951080E+02  0.12224641493E+03  0.21110175036E+03  0.00000000000E+00 0.  1.
          3    1    3    3  501    0  0.16858742616E+03  0.17743273121E+02 -0.18559501241E+03  0.25136040386E+03  0.00000000000E+00 0.  1.
         21    1    1    2  502  501 -0.39494959418E+01  0.32397677959E+02  0.99235891086E+01  0.34112837409E+02  0.00000000000E+00 0. -1.
<scales pt_clust_4="550.00000" pt_clust_5="550.00000" pt_clust_6="32.63753"></scales>
<mgrwt>
<rscale>  0 0.30000000E+03</rscale>
<asrwt>  1 0.32637525E+02</asrwt>
<pdfrwt beam="1">  1        1 0.80572724E+00 0.30000000E+03</pdfrwt>
<pdfrwt beam="2">0</pdfrwt>
<totfact> 0.95333910E-04</totfact>
</mgrwt>
<clustering>
<clus scale="   32.638">  1  6  2 -1</clus>
<clus scale="  456.939">  4  5 -1 -1</clus>
<clus scale="  300.000">  1  4  2 -1</clus>
</clustering>
</event>
<event>
 6    1  0.9964252E-012  0.3000000E+03  0.7818608E-02  0.1093470E+00
          1   -1    0    0  502    0  0.00000000000E+00  0.00000000000E+00  0.23612548538E+03  0.23612548538E+03  0.00000000000E+00 0.  1.
         13   -1    0    0    0    0 -0.00000000000E+00 -0.00000000000E+00 -0.27500000000E+03  0.27500000000E+03  0.00000000000E+00 0.  1.
    9000005    2    1    2  501    0 -0.22327973555E+02  0.20309622910E+02 -0.44706347419E+02  0.48038415392E+03  0.47734605755E+03 0.  0.
         13    1    3    3    0    0  0.14940938176E+03  0.16176275814E+03  0.68678538308E+02  0.23066663153E+03  0.00000000000E+00 0.  1.
          3    1    3    3  501    0 -0.17173735531E+03 -0.14145313523E+03 -0.11338488573E+03  0.24971752239E+03  0.00000000000E+00 0.  1.
         21    1    1    2  502  501  0.22327973555E+02 -0.20309622910E+02  0.58318327944E+01  0.30741331454E+02  0.00000000000E+00 0.  1.
<scales pt_clust_4="550.00000" pt_clust_5="550.00000" pt_clust_6="30.18309"></scales>
<mgrwt>
<rscale>  0 0.30000000E+03</rscale>
<asrwt>  1 0.30183094E+02</asrwt>
<pdfrwt beam="1">  1        1 0.85863813E+00 0.30000000E+03</pdfrwt>
<pdfrwt beam="2">0</pdfrwt>
<totfact> 0.34391662E-04</totfact>
</mgrwt>
<clustering>
<clus scale="   30.183">  1  6  2 -1</clus>
<clus scale="  477.346">  4  5 -1 -1</clus>
<clus scale="  300.000">  1  4  2 -1</clus>
</clustering>
</event>
<event>
 6    1  0.9964252E-012  0.3000000E+03  0.7818608E-02  0.1093470E+00
          1   -1    0    0  502    0  0.00000000000E+00  0.00000000000E+00  0.24178043451E+03  0.24178043451E+03  0.00000000000E+00 0.  1.
         13   -1    0    0    0    0 -0.00000000000E+00 -0.00000000000E+00 -0.27500000000E+03  0.27500000000E+03  0.00000000000E+00 0.  1.
    9000005    2    1    2  501    0 -0.25759976840E+02 -0.23004808019E+02 -0.70250551730E+02  0.46614357500E+03  0.45952355206E+03 0.  0.
         13    1    3    3    0    0 -0.82669784518E+02 -0.23027167228E+03 -0.54298568010E+02  0.25061458620E+03  0.00000000000E+00 0.  1.
          3    1    3    3  501    0  0.56909807678E+02  0.20726686426E+03 -0.15951983720E+02  0.21552898881E+03  0.00000000000E+00 0.  1.
         21    1    1    2  502  501  0.25759976840E+02  0.23004808019E+02  0.37030986241E+02  0.50636859508E+02  0.00000000000E+00 0.  1.
<scales pt_clust_4="550.00000" pt_clust_5="550.00000" pt_clust_6="34.53690"></scales>
<mgrwt>
<rscale>  0 0.30000000E+03</rscale>
<asrwt>  1 0.34536902E+02</asrwt>
<pdfrwt beam="1">  1        1 0.87920158E+00 0.30000000E+03</pdfrwt>
<pdfrwt beam="2">0</pdfrwt>
<totfact> 0.20234395E-04</totfact>
</mgrwt>
<clustering>
<clus scale="   34.537">  1  6  2 -1</clus>
<clus scale="  459.524">  4  5 -1 -1</clus>
<clus scale="  300.000">  1  4  2 -1</clus>
</clustering>
</event>
<event>
 6    1  0.9964252E-012  0.3000000E+03  0.7818608E-02  0.1093470E+00
          1   -1    0    0  502    0  0.00000000000E+00  0.00000000000E+00  0.22788895540E+03  0.22788895540E+03  0.00000000000E+00 0.  1.
         13   -1    0    0    0    0 -0.00000000000E+00 -0.00000000000E+00 -0.27500000000E+03  0.27500000000E+03  0.00000000000E+00 0.  1.
    9000005    2    1    2  501    0  0.30249567676E+02  0.17081074615E+02 -0.58011715100E+02  0.46647983467E+03  0.46155311462E+03 0.  0.
         13    1    3    3    0    0  0.33195684068E+00 -0.16917505471E+03  0.11975718035E+03  0.20727298805E+03  0.00000000000E+00 0.  1.
          3    1    3    3  501    0  0.29917610835E+02  0.18625612932E+03 -0.17776889544E+03  0.25920684662E+03  0.00000000000E+00 0.  1.
         21    1    1    2  502  501 -0.30249567676E+02 -0.17081074615E+02  0.10900670499E+02  0.36409120724E+02  0.00000000000E+00 0. -1.
<scales pt_clust_4="550.00000" pt_clust_5="550.00000" pt_clust_6="34.73902"></scales>
<mgrwt>
<rscale>  0 0.30000000E+03</rscale>
<asrwt>  1 0.34739019E+02</asrwt>
<pdfrwt beam="1">  1        1 0.82868711E+00 0.30000000E+03</pdfrwt>
<pdfrwt beam="2">0</pdfrwt>
<totfact> 0.60708420E-04</totfact>
</mgrwt>
<clustering>
<clus scale="   34.739">  1  6  2 -1</clus>
<clus scale="  461.553">  4  5 -1 -1</clus>
<clus scale="  300.000">  1  4  2 -1</clus>
</clustering>
</event>
<event>
 6    1  0.9964252E-012  0.3000000E+03  0.7818608E-02  0.1093470E+00
          1   -1    0    0  502    0  0.00000000000E+00  0.00000000000E+00  0.25005701098E+03  0.25005701098E+03  0.00000000000E+00 0.  1.
         13   -1    0    0    0    0 -0.00000000000E+00 -0.00000000000E+00 -0.27500000000E+03  0.27500000000E+03  0.00000000000E+00 0.  1.
    9000005    2    1    2  501    0 -0.85339820907E+01 -0.40456311470E+02  0.24491238975E+01  0.47545993608E+03  0.47365241541E+03 0.  0.
         13    1    3    3    0    0 -0.19956251909E+03  0.70012156634E+02 -0.97896234224E+02  0.23304629106E+03  0.00000000000E+00 0.  1.
          3    1    3    3  501    0  0.19102853700E+03 -0.11046846810E+03  0.10034535812E+03  0.24241364502E+03  0.00000000000E+00 0.  1.
         21    1    1    2  502  501  0.85339820907E+01  0.40456311470E+02 -0.27392112920E+02  0.49597074896E+02  0.00000000000E+00 0.  1.
<scales pt_clust_4="550.00000" pt_clust_5="550.00000" pt_clust_6="41.34663"></scales>
<mgrwt>
<rscale>  0 0.30000000E+03</rscale>
<asrwt>  1 0.41346629E+02</asrwt>
<pdfrwt beam="1">  1        1 0.90929822E+00 0.30000000E+03</pdfrwt>
<pdfrwt beam="2">0</pdfrwt>
<totfact> 0.72449048E-05</totfact>
</mgrwt>
<clustering>
<clus scale="   41.347">  1  6  2 -1</clus>
<clus scale="  473.652">  4  5 -1 -1</clus>
<clus scale="  300.000">  1  4  2 -1</clus>
</clustering>
</event>
<event>
 6    1  0.9964252E-012  0.3000000E+03  0.7818608E-02  0.1093470E+00
          1   -1    0    0  502    0  0.00000000000E+00  0.00000000000E+00  0.22539468559E+03  0.22539468559E+03  0.00000000000E+00 0.  1.
         13   -1    0    0    0    0 -0.00000000000E+00 -0.00000000000E+00 -0.27500000000E+03  0.27500000000E+03  0.00000000000E+00 0.  1.
    9000005    2    1    2  501    0 -0.25199512242E+02  0.18895765033E+02 -0.54426119768E+02  0.46853082648E+03  0.46429179133E+03 0.  0.
         13    1    3    3    0    0  0.18476763911E+03  0.12320680567E+03 -0.71905721201E+02  0.23342971140E+03  0.00000000000E+00 0.  1.
          1    1    3    3  501    0 -0.20996715135E+03 -0.10431104063E+03  0.17479601433E+02  0.23510111508E+03  0.00000000000E+00 0.  1.
         21    1    1    2  502  501  0.25199512242E+02 -0.18895765033E+02  0.48208053629E+01  0.31863859116E+02  0.00000000000E+00 0. -1.
<scales pt_clust_4="550.00000" pt_clust_5="550.00000" pt_clust_6="31.49707"></scales>
<mgrwt>
<rscale>  0 0.30000000E+03</rscale>
<asrwt>  1 0.31497069E+02</asrwt>
<pdfrwt beam="1">  1        1 0.81961704E+00 0.30000000E+03</pdfrwt>
<pdfrwt beam="2">0</pdfrwt>
<totfact> 0.74348027E-04</totfact>
</mgrwt>
<clustering>
<clus scale="   31.497">  1  6  2 -1</clus>
<clus scale="  464.292">  4  5 -1 -1</clus>
<clus scale="  300.000">  1  4  2 -1</clus>
</clustering>
</event>
<event>
 6    1  0.9964252E-012  0.3000000E+03  0.7818608E-02  0.1093470E+00
          1   -1    0    0  502    0  0.00000000000E+00  0.00000000000E+00  0.24090825366E+03  0.24090825366E+03  0.00000000000E+00 0.  1.
         13   -1    0    0    0    0 -0.00000000000E+00 -0.00000000000E+00 -0.27500000000E+03  0.27500000000E+03  0.00000000000E+00 0.  1.
    9000005    2    1    2  501    0 -0.83723453481E+01 -0.32249688043E+02 -0.35667835345E+02  0.48255225567E+03  0.48007743795E+03 0.  0.
         13    1    3    3    0    0  0.12670879058E+03  0.17537931678E+03  0.47018176545E+02  0.22141303324E+03  0.00000000000E+00 0.  1.
          1    1    3    3  501    0 -0.13508113593E+03 -0.20762900482E+03 -0.82686011890E+02  0.26113922243E+03  0.00000000000E+00 0.  1.
         21    1    1    2  502  501  0.83723453481E+01  0.32249688043E+02  0.15760890098E+01  0.33355997992E+02  0.00000000000E+00 0.  1.
<scales pt_clust_4="550.00000" pt_clust_5="550.00000" pt_clust_6="33.31874"></scales>
<mgrwt>
<rscale>  0 0.30000000E+03</rscale>
<asrwt>  1 0.33318742E+02</asrwt>
<pdfrwt beam="1">  1        1 0.87603001E+00 0.30000000E+03</pdfrwt>
<pdfrwt beam="2">0</pdfrwt>
<totfact> 0.22133151E-04</totfact>
</mgrwt>
<clustering>
<clus scale="   33.319">  1  6  2 -1</clus>
<clus scale="  480.077">  4  5 -1 -1</clus>
<clus scale="  300.000">  1  4  2 -1</clus>
</clustering>
</event>
<event>
 6    1  0.9964252E-012  0.3000000E+03  0.7818608E-02  0.1093470E+00
          1   -1    0    0  502    0  0.00000000000E+00  0.00000000000E+00  0.23779959229E+03  0.23779959229E+03  0.00000000000E+00 0.  1.
         13   -1    0    0    0    0 -0.00000000000E+00 -0.00000000000E+00 -0.27500000000E+03  0.27500000000E+03  0.00000000000E+00 0.  1.
    9000005    2    1    2  501    0 -0.10787168547E+02 -0.40343621369E+02 -0.20931306004E+02  0.46798157738E+03  0.46564435614E+03 0.  0.
         13    1    3    3    0    0  0.13462246450E+03  0.28752667025E+02  0.16966867956E+03  0.21848886616E+03  0.00000000000E+00 0.  1.
          1    1    3    3  501    0 -0.14540963305E+03 -0.69096288394E+02 -0.19059998557E+03  0.24949271122E+03  0.00000000000E+00 0.  1.
         21    1    1    2  502  501  0.10787168547E+02  0.40343621369E+02 -0.16269101707E+02  0.44818014913E+02  0.00000000000E+00 0. -1.
<scales pt_clust_4="550.00000" pt_clust_5="550.00000" pt_clust_6="41.76090"></scales>
<mgrwt>
<rscale>  0 0.30000000E+03</rscale>
<asrwt>  1 0.41760897E+02</asrwt>
<pdfrwt beam="1">  1        1 0.86472579E+00 0.30000000E+03</pdfrwt>
<pdfrwt beam="2">0</pdfrwt>
<totfact> 0.27845266E-04</totfact>
</mgrwt>
<clustering>
<clus scale="   41.761">  1  6  2 -1</clus>
<clus scale="  465.644">  4  5 -1 -1</clus>
<clus scale="  300.000">  1  4  2 -1</clus>
</clustering>
</event>
<event>
 6    1  0.9964252E-012  0.3000000E+03  0.7818608E-02  0.1093470E+00
          1   -1    0    0  502    0  0.00000000000E+00  0.00000000000E+00  0.26932666861E+03  0.26932666861E+03  0.00000000000E+00 0.  1.
         13   -1    0    0    0    0 -0.00000000000E+00 -0.00000000000E+00 -0.27500000000E+03  0.27500000000E+03  0.00000000000E+00 0.  1.
    9000005    2    1    2  501    0  0.33128650285E+02 -0.32305081648E+02 -0.13088371885E+01  0.49784899032E+03  0.49569222138E+03 0.  0.
         13    1    3    3    0    0  0.10288856507E+03 -0.15305448124E+03 -0.18896899631E+03  0.26404736813E+03  0.00000000000E+00 0.  1.
          3    1    3    3  501    0 -0.69759914786E+02  0.12074939960E+03  0.18766015912E+03  0.23380162218E+03  0.00000000000E+00 0.  1.
         21    1    1    2  502  501 -0.33128650285E+02  0.32305081648E+02 -0.43644942022E+01  0.46477678294E+02  0.00000000000E+00 0. -1.
<scales pt_clust_4="550.00000" pt_clust_5="550.00000" pt_clust_6="46.27232"></scales>
<mgrwt>
<rscale>  0 0.30000000E+03</rscale>
<asrwt>  1 0.46272323E+02</asrwt>
<pdfrwt beam="1">  1        1 0.97936970E+00 0.30000000E+03</pdfrwt>
<pdfrwt beam="2">0</pdfrwt>
<totfact> 0.28792546E-06</totfact>
</mgrwt>
<clustering>
<clus scale="   46.272">  1  6  2 -1</clus>
<clus scale="  495.692">  4  5 -1 -1</clus>
<clus scale="  300.000">  1  4  2 -1</clus>
</clustering>
</event>
<event>
 6    1  0.9964252E-012  0.3000000E+03  0.7818608E-02  0.1093470E+00
          1   -1    0    0  502    0  0.00000000000E+00  0.00000000000E+00  0.23876908155E+03  0.23876908155E+03  0.00000000000E+00 0.  1.
         13   -1    0    0    0    0 -0.00000000000E+00 -0.00000000000E+00 -0.27500000000E+03  0.27500000000E+03  0.00000000000E+00 0.  1.
    9000005    2    1    2  501    0 -0.23416962971E+02 -0.20876334192E+02 -0.41296441716E+02  0.48199118027E+03  0.47919299481E+03 0.  0.
         13    1    3    3    0    0  0.13619792358E+00 -0.14896307625E+03  0.17481337014E+03  0.22967309598E+03  0.00000000000E+00 0.  1.
          3    1    3    3  501    0 -0.23553160894E+02  0.12808674206E+03 -0.21610981185E+03  0.25231808429E+03  0.00000000000E+00 0.  1.
         21    1    1    2  502  501  0.23416962971E+02  0.20876334192E+02  0.50655232656E+01  0.31777901284E+02  0.00000000000E+00 0.  1.
<scales pt_clust_4="550.00000" pt_clust_5="550.00000" pt_clust_6="31.37157"></scales>
<mgrwt>
<rscale>  0 0.30000000E+03</rscale>
<asrwt>  1 0.31371571E+02</asrwt>
<pdfrwt beam="1">  1        1 0.86825121E+00 0.30000000E+03</pdfrwt>
<pdfrwt beam="2">0</pdfrwt>
<totfact> 0.26947503E-04</totfact>
</mgrwt>
<clustering>
<clus scale="   31.372">  1  6  2 -1</clus>
<clus scale="  479.193">  4  5 -1 -1</clus>
<clus scale="  300.000">  1  4  2 -1</clus>
</clustering>
</event>
<event>
 6    1  0.9964252E-012  0.3000000E+03  0.7818608E-02  0.1093470E+00
          1   -1    0    0  502    0  0.00000000000E+00  0.00000000000E+00  0.23850136220E+03  0.23850136220E+03  0.00000000000E+00 0.  1.
         13   -1    0    0    0    0 -0.00000000000E+00 -0.00000000000E+00 -0.27500000000E+03  0.27500000000E+03  0.00000000000E+00 0.  1.
    9000005    2    1    2  501    0  0.12323153395E+01 -0.34839759525E+02 -0.39338804135E+02  0.47852431273E+03  0.47562868808E+03 0.  0.
         13    1    3    3    0    0  0.84254881543E+02  0.83029744964E+02  0.18039172461E+03  0.21571740291E+03  0.00000000000E+00 0.  1.
          3    1    3    3  501    0 -0.83022566203E+02 -0.11786950449E+03 -0.21973052874E+03  0.26280690982E+03  0.00000000000E+00 0.  1.
         21    1    1    2  502  501 -0.12323153395E+01  0.34839759525E+02  0.28401663395E+01  0.34977049471E+02  0.00000000000E+00 0.  1.
<scales pt_clust_4="550.00000" pt_clust_5="550.00000" pt_clust_6="34.86155"></scales>
<mgrwt>
<rscale>  0 0.30000000E+03</rscale>
<asrwt>  1 0.34861547E+02</asrwt>
<pdfrwt beam="1">  1        1 0.86727768E+00 0.30000000E+03</pdfrwt>
<pdfrwt beam="2">0</pdfrwt>
<totfact> 0.27039750E-04</totfact>
</mgrwt>
<clustering>
<clus scale="   34.862">  1  6  2 -1</clus>
<clus scale="  475.629">  4  5 -1 -1</clus>
<clus scale="  300.000">  1  4  2 -1</clus>
</clustering>
</event>
<event>
 6    1  0.9964252E-012  0.3000000E+03  0.7818608E-02  0.1093470E+00
          1   -1    0    0  502    0  0.00000000000E+00  0.00000000000E+00  0.23746461333E+03  0.23746461333E+03  0.00000000000E+00 0.  1.
         13   -1    0    0    0    0 -0.00000000000E+00 -0.00000000000E+00 -0.27500000000E+03  0.27500000000E+03  0.00000000000E+00 0.  1.
    9000005    2    1    2  501    0 -0.94831896234E+01  0.35725105458E+02 -0.65397262360E+02  0.46617748594E+03  0.46008524474E+03 0.  0.
         13    1    3    3    0    0  0.61249202832E+02 -0.18008743831E+03  0.68924745410E+02  0.20232046564E+03  0.00000000000E+00 0.  1.
          1    1    3    3  501    0 -0.70732392455E+02  0.21581254377E+03 -0.13432200777E+03  0.26385702030E+03  0.00000000000E+00 0.  1.
         21    1    1    2  502  501  0.94831896234E+01 -0.35725105458E+02  0.27861875686E+02  0.46287127391E+02  0.00000000000E+00 0. -1.
<scales pt_clust_4="550.00000" pt_clust_5="550.00000" pt_clust_6="36.96233"></scales>
<mgrwt>
<rscale>  0 0.30000000E+03</rscale>
<asrwt>  1 0.36962333E+02</asrwt>
<pdfrwt beam="1">  1        1 0.86350768E+00 0.30000000E+03</pdfrwt>
<pdfrwt beam="2">0</pdfrwt>
<totfact> 0.29350552E-04</totfact>
</mgrwt>
<clustering>
<clus scale="   36.962">  1  6  2 -1</clus>
<clus scale="  460.085">  4  5 -1 -1</clus>
<clus scale="  300.000">  1  4  2 -1</clus>
</clustering>
</event>
<event>
 6    1  0.9964252E-012  0.3000000E+03  0.7818608E-02  0.1093470E+00
          1   -1    0    0  502    0  0.00000000000E+00  0.00000000000E+00  0.22604725578E+03  0.22604725578E+03  0.00000000000E+00 0.  1.
         13   -1    0    0    0    0 -0.00000000000E+00 -0.00000000000E+00 -0.27500000000E+03  0.27500000000E+03  0.00000000000E+00 0.  1.
    9000005    2    1    2  501    0  0.11719239842E+02 -0.31628629184E+02 -0.52269590319E+02  0.46715459825E+03  0.46299416608E+03 0.  0.
         13    1    3    3    0    0 -0.21110631773E+03  0.98265381106E+00 -0.10512620274E+03  0.23583545429E+03  0.00000000000E+00 0.  1.
          1    1    3    3  501    0  0.22282555758E+03 -0.32611282996E+02  0.52856612419E+02  0.23131914396E+03  0.00000000000E+00 0.  1.
         21    1    1    2  502  501 -0.11719239842E+02  0.31628629184E+02  0.33168461021E+01  0.33892657533E+02  0.00000000000E+00 0.  1.
<scales pt_clust_4="550.00000" pt_clust_5="550.00000" pt_clust_6="33.72997"></scales>
<mgrwt>
<rscale>  0 0.30000000E+03</rscale>
<asrwt>  1 0.33729968E+02</asrwt>
<pdfrwt beam="1">  1        1 0.82199002E+00 0.30000000E+03</pdfrwt>
<pdfrwt beam="2">0</pdfrwt>
<totfact> 0.69964692E-04</totfact>
</mgrwt>
<clustering>
<clus scale="   33.730">  1  6  2 -1</clus>
<clus scale="  462.994">  4  5 -1 -1</clus>
<clus scale="  300.000">  1  4  2 -1</clus>
</clustering>
</event>
<event>
 6    1  0.9964252E-012  0.3000000E+03  0.7818608E-02  0.1093470E+00
          1   -1    0    0  502    0  0.00000000000E+00  0.00000000000E+00  0.24582455514E+03  0.24582455514E+03  0.00000000000E+00 0.  1.
         13   -1    0    0    0    0 -0.00000000000E+00 -0.00000000000E+00 -0.27500000000E+03  0.27500000000E+03  0.00000000000E+00 0.  1.
    9000005    2    1    2  501    0  0.52112451524E+01 -0.31657761179E+02 -0.61511263203E+01  0.48133417450E+03  0.48022430204E+03 0.  0.
         13    1    3    3    0    0  0.85120612679E+02 -0.17072670672E+03 -0.16747005646E+03  0.25384906322E+03  0.00000000000E+00 0.  1.
          1    1    3    3  501    0 -0.79909367526E+02  0.13906894554E+03  0.16131893014E+03  0.22748511128E+03  0.00000000000E+00 0.  1.
         21    1    1    2  502  501 -0.52112451524E+01  0.31657761179E+02 -0.23024318540E+02  0.39490380641E+02  0.00000000000E+00 0.  1.
<scales pt_clust_4="550.00000" pt_clust_5="550.00000" pt_clust_6="32.08383"></scales>
<mgrwt>
<rscale>  0 0.30000000E+03</rscale>
<asrwt>  1 0.32083827E+02</asrwt>
<pdfrwt beam="1">  1        1 0.89390747E+00 0.30000000E+03</pdfrwt>
<pdfrwt beam="2">0</pdfrwt>
<totfact> 0.13188302E-04</totfact>
</mgrwt>
<clustering>
<clus scale="   32.084">  1  6  2 -1</clus>
<clus scale="  480.224">  4  5 -1 -1</clus>
<clus scale="  300.000">  1  4  2 -1</clus>
</clustering>
</event>
<event>
 6    1  0.9964252E-012  0.3000000E+03  0.7818608E-02  0.1093470E+00
          1   -1    0    0  502    0  0.00000000000E+00  0.00000000000E+00  0.23483453796E+03  0.23483453796E+03  0.00000000000E+00 0.  1.
         13   -1    0    0    0    0 -0.00000000000E+00 -0.00000000000E+00 -0.27500000000E+03  0.27500000000E+03  0.00000000000E+00 0.  1.
    9000005    2    1    2  501    0  0.17707141301E+02 -0.37513625421E+02 -0.28541408264E+02  0.46675399048E+03  0.46403002133E+03 0.  0.
         13    1    3    3    0    0 -0.77714289811E+01  0.46889299569E+02 -0.23631576008E+03  0.24104800349E+03  0.00000000000E+00 0.  1.
          3    1    3    3  501    0  0.25478570282E+02 -0.84402924990E+02  0.20777435182E+03  0.22570598699E+03  0.00000000000E+00 0.  1.
         21    1    1    2  502  501 -0.17707141301E+02  0.37513625421E+02 -0.11624053776E+02  0.43080547483E+02  0.00000000000E+00 0.  1.
<scales pt_clust_4="550.00000" pt_clust_5="550.00000" pt_clust_6="41.48273"></scales>
<mgrwt>
<rscale>  0 0.30000000E+03</rscale>
<asrwt>  1 0.41482727E+02</asrwt>
<pdfrwt beam="1">  1        1 0.85394377E+00 0.30000000E+03</pdfrwt>
<pdfrwt beam="2">0</pdfrwt>
<totfact> 0.36163783E-04</totfact>
</mgrwt>
<clustering>
<clus scale="   41.483">  1  6  2 -1</clus>
<clus scale="  464.030">  4  5 -1 -1</clus>
<clus scale="  300.000">  1  4  2 -1</clus>
</clustering>
</event>
<event>
 6    1  0.9964252E-012  0.3000000E+03  0.7818608E-02  0.1093470E+00
          1   -1    0    0  502    0  0.00000000000E+00  0.00000000000E+00  0.23965386902E+03  0.23965386902E+03  0.00000000000E+00 0.  1.
         13   -1    0    0    0    0 -0.00000000000E+00 -0.00000000000E+00 -0.27500000000E+03  0.27500000000E+03  0.00000000000E+00 0.  1.
    9000005    2    1    2  501    0 -0.21061963951E+02  0.35908936860E+02 -0.42907555408E+02  0.47234272142E+03  0.46854405353E+03 0.  0.
         13    1    3    3    0    0  0.29984939615E+02 -0.18555978814E+03 -0.13044104754E+03  0.22879335319E+03  0.00000000000E+00 0.  1.
          3    1    3    3  501    0 -0.51046903566E+02  0.22146872500E+03  0.87533492136E+02  0.24354936823E+03  0.00000000000E+00 0.  1.
         21    1    1    2  502  501  0.21061963951E+02 -0.35908936860E+02  0.75614244270E+01  0.42311147600E+02  0.00000000000E+00 0.  1.
<scales pt_clust_4="550.00000" pt_clust_5="550.00000" pt_clust_6="41.63001"></scales>
<mgrwt>
<rscale>  0 0.30000000E+03</rscale>
<asrwt>  1 0.41630014E+02</asrwt>
<pdfrwt beam="1">  1        1 0.87146861E+00 0.30000000E+03</pdfrwt>
<pdfrwt beam="2">0</pdfrwt>
<totfact> 0.23696777E-04</totfact>
</mgrwt>
<clustering>
<clus scale="   41.630">  1  6  2 -1</clus>
<clus scale="  468.544">  4  5 -1 -1</clus>
<clus scale="  300.000">  1  4  2 -1</clus>
</clustering>
</event>
<event>
 6    1  0.9964252E-012  0.3000000E+03  0.7818608E-02  0.1093470E+00
          1   -1    0    0  502    0  0.00000000000E+00  0.00000000000E+00  0.25351080848E+03  0.25351080848E+03  0.00000000000E+00 0.  1.
         13   -1    0    0    0    0 -0.00000000000E+00 -0.00000000000E+00 -0.27500000000E+03  0.27500000000E+03  0.00000000000E+00 0.  1.
    9000005    2    1    2  501    0 -0.14063975603E+02 -0.31722699458E+02 -0.52372400976E+02  0.48205763101E+03  0.47794619589E+03 0.  0.
         13    1    3    3    0    0  0.10786514207E+03  0.90461934523E+01  0.18371617474E+03  0.21323310097E+03  0.00000000000E+00 0.  1.
          3    1    3    3  501    0 -0.12192911768E+03 -0.40768892910E+02 -0.23608857571E+03  0.26882453004E+03  0.00000000000E+00 0.  1.
         21    1    1    2  502  501  0.14063975603E+02  0.31722699458E+02  0.30883209454E+02  0.46453177468E+02  0.00000000000E+00 0. -1.
<scales pt_clust_4="550.00000" pt_clust_5="550.00000" pt_clust_6="34.70051"></scales>
<mgrwt>
<rscale>  0 0.30000000E+03</rscale>
<asrwt>  1 0.34700505E+02</asrwt>
<pdfrwt beam="1">  1        1 0.92185749E+00 0.30000000E+03</pdfrwt>
<pdfrwt beam="2">0</pdfrwt>
<totfact> 0.38199246E-05</totfact>
</mgrwt>
<clustering>
<clus scale="   34.701">  1  6  2 -1</clus>
<clus scale="  477.946">  4  5 -1 -1</clus>
<clus scale="  300.000">  1  4  2 -1</clus>
</clustering>
</event>
<event>
 6    1  0.9964252E-012  0.3000000E+03  0.7818608E-02  0.1093470E+00
          1   -1    0    0  502    0  0.00000000000E+00  0.00000000000E+00  0.22644684870E+03  0.22644684870E+03  0.00000000000E+00 0.  1.
         13   -1    0    0    0    0 -0.00000000000E+00 -0.00000000000E+00 -0.27500000000E+03  0.27500000000E+03  0.00000000000E+00 0.  1.
    9000005    2    1    2  501    0 -0.20956949650E+02 -0.24059145343E+02 -0.58321549132E+02  0.46807833346E+03  0.46333345114E+03 0.  0.
         13    1    3    3    0    0  0.14002841492E+03 -0.40241759746E+02  0.14679872855E+03  0.20682655274E+03  0.00000000000E+00 0.  1.
          3    1    3    3  501    0 -0.16098536457E+03  0.16182614403E+02 -0.20512027768E+03  0.26125178072E+03  0.00000000000E+00 0.  1.
         21    1    1    2  502  501  0.20956949650E+02  0.24059145343E+02  0.97683978335E+01  0.33368515243E+02  0.00000000000E+00 0.  1.
<scales pt_clust_4="550.00000" pt_clust_5="550.00000" pt_clust_6="31.90668"></scales>
<mgrwt>
<rscale>  0 0.30000000E+03</rscale>
<asrwt>  1 0.31906680E+02</asrwt>
<pdfrwt beam="1">  1        1 0.82344309E+00 0.30000000E+03</pdfrwt>
<pdfrwt beam="2">0</pdfrwt>
<totfact> 0.68630611E-04</totfact>
</mgrwt>
<clustering>
<clus scale="   31.907">  1  6  2 -1</clus>
<clus scale="  463.333">  4  5 -1 -1</clus>
<clus scale="  300.000">  1  4  2 -1</clus>
</clustering>
</event>
<event>
 6    1  0.9964252E-012  0.3000000E+03  0.7818608E-02  0.1093470E+00
          1   -1    0    0  502    0  0.00000000000E+00  0.00000000000E+00  0.21962773238E+03  0.21962773238E+03  0.00000000000E+00 0.  1.
         13   -1    0    0    0    0 -0.00000000000E+00 -0.00000000000E+00 -0.27500000000E+03  0.27500000000E+03  0.00000000000E+00 0.  1.
    9000005    2    1    2  501    0 -0.29577726221E+01 -0.31005814449E+02 -0.57324884322E+02  0.46342001442E+03  0.45880481520E+03 0.  0.
         13    1    3    3    0    0  0.16595068935E+03 -0.15699323885E+03  0.38963654374E+02  0.23174269072E+03  0.00000000000E+00 0.  1.
          3    1    3    3  501    0 -0.16890846197E+03  0.12598742440E+03 -0.96288538695E+02  0.23167732370E+03  0.00000000000E+00 0.  1.
         21    1    1    2  502  501  0.29577726221E+01  0.31005814449E+02  0.19526167023E+01  0.31207717964E+02  0.00000000000E+00 0.  1.
<scales pt_clust_4="550.00000" pt_clust_5="550.00000" pt_clust_6="31.14657"></scales>
<mgrwt>
<rscale>  0 0.30000000E+03</rscale>
<asrwt>  1 0.31146572E+02</asrwt>
<pdfrwt beam="1">  1        1 0.79864630E+00 0.30000000E+03</pdfrwt>
<pdfrwt beam="2">0</pdfrwt>
<totfact> 0.10843337E-03</totfact>
</mgrwt>
<clustering>
<clus scale="   31.147">  1  6  2 -1</clus>
<clus scale="  458.805">  4  5 -1 -1</clus>
<clus scale="  300.000">  1  4  2 -1</clus>
</clustering>
</event>
<event>
 6    1  0.9964252E-012  0.3000000E+03  0.7818608E-02  0.1093470E+00
          1   -1    0    0  502    0  0.00000000000E+00  0.00000000000E+00  0.22581201513E+03  0.22581201513E+03  0.00000000000E+00 0.  1.
         13   -1    0    0    0    0 -0.00000000000E+00 -0.00000000000E+00 -0.27500000000E+03  0.27500000000E+03  0.00000000000E+00 0.  1.
    9000005    2    1    2  501    0  0.65195736227E+01  0.37579828494E+02 -0.34259087950E+02  0.45985325156E+03  0.45698641064E+03 0.  0.
         13    1    3    3    0    0  0.16173044904E+03 -0.14507268130E+03 -0.35587126725E+02  0.22015736325E+03  0.00000000000E+00 0.  1.
          1    1    3    3  501    0 -0.15521087542E+03  0.18265250980E+03  0.13280387743E+01  0.23969588830E+03  0.00000000000E+00 0.  1.
         21    1    1    2  502  501 -0.65195736227E+01 -0.37579828494E+02 -0.14928896922E+02  0.40958763570E+02  0.00000000000E+00 0. -1.
<scales pt_clust_4="550.00000" pt_clust_5="550.00000" pt_clust_6="38.14118"></scales>
<mgrwt>
<rscale>  0 0.30000000E+03</rscale>
<asrwt>  1 0.38141183E+02</asrwt>
<pdfrwt beam="1">  1        1 0.82113460E+00 0.30000000E+03</pdfrwt>
<pdfrwt beam="2">0</pdfrwt>
<totfact> 0.69580293E-04</totfact>
</mgrwt>
<clustering>
<clus scale="   38.141">  1  6  2 -1</clus>
<clus scale="  456.986">  4  5 -1 -1</clus>
<clus scale="  300.000">  1  4  2 -1</clus>
</clustering>
</event>
<event>
 6    1  0.9964252E-012  0.3000000E+03  0.7818608E-02  0.1093470E+00
          1   -1    0    0  502    0  0.00000000000E+00  0.00000000000E+00  0.24440218223E+03  0.24440218223E+03  0.00000000000E+00 0.  1.
         13   -1    0    0    0    0 -0.00000000000E+00 -0.00000000000E+00 -0.27500000000E+03  0.27500000000E+03  0.00000000000E+00 0.  1.
    9000005    2    1    2  501    0  0.25763582490E+02  0.17825343668E+02 -0.32325018702E+02  0.48802562597E+03  0.48594505833E+03 0.  0.
         13    1    3    3    0    0  0.25414948165E+03  0.39837866971E+02 -0.24995990366E+02  0.25846433835E+03  0.00000000000E+00 0.  1.
          1    1    3    3  501    0 -0.22838589916E+03 -0.22012523304E+02 -0.73290283364E+01  0.22956128762E+03  0.00000000000E+00 0.  1.
         21    1    1    2  502  501 -0.25763582490E+02 -0.17825343668E+02  0.17272009330E+01  0.31376556259E+02  0.00000000000E+00 0. -1.
<scales pt_clust_4="550.00000" pt_clust_5="550.00000" pt_clust_6="31.32898"></scales>
<mgrwt>
<rscale>  0 0.30000000E+03</rscale>
<asrwt>  1 0.31328981E+02</asrwt>
<pdfrwt beam="1">  1        1 0.88873521E+00 0.30000000E+03</pdfrwt>
<pdfrwt beam="2">0</pdfrwt>
<totfact> 0.15395031E-04</totfact>
</mgrwt>
<clustering>
<clus scale="   31.329">  1  6  2 -1</clus>
<clus scale="  485.945">  4  5 -1 -1</clus>
<clus scale="  300.000">  1  4  2 -1</clus>
</clustering>
</event>
<event>
 6    1  0.9964252E-012  0.3000000E+03  0.7818608E-02  0.1093470E+00
          1   -1    0    0  502    0  0.00000000000E+00  0.00000000000E+00  0.22847698705E+03  0.22847698705E+03  0.00000000000E+00 0.  1.
         13   -1    0    0    0    0 -0.00000000000E+00 -0.00000000000E+00 -0.27500000000E+03  0.27500000000E+03  0.00000000000E+00 0.  1.
    9000005    2    1    2  501    0 -0.10605625349E+02 -0.35232074399E+02 -0.36529486708E+02  0.46535023893E+03  0.46245287664E+03 0.  0.
         13    1    3    3    0    0  0.20149390263E+03 -0.12068593119E+03 -0.91530492350E+01  0.23505034588E+03  0.00000000000E+00 0.  1.
          1    1    3    3  501    0 -0.21209952798E+03  0.85453856794E+02 -0.27376437473E+02  0.23029989305E+03  0.00000000000E+00 0.  1.
         21    1    1    2  502  501  0.10605625349E+02  0.35232074399E+02 -0.99935262447E+01  0.38126748121E+02  0.00000000000E+00 0. -1.
<scales pt_clust_4="550.00000" pt_clust_5="550.00000" pt_clust_6="36.79375"></scales>
<mgrwt>
<rscale>  0 0.30000000E+03</rscale>
<asrwt>  1 0.36793746E+02</asrwt>
<pdfrwt beam="1">  1        1 0.83082541E+00 0.30000000E+03</pdfrwt>
<pdfrwt beam="2">0</pdfrwt>
<totfact> 0.57655488E-04</totfact>
</mgrwt>
<clustering>
<clus scale="   36.794">  1  6  2 -1</clus>
<clus scale="  462.453">  4  5 -1 -1</clus>
<clus scale="  300.000">  1  4  2 -1</clus>
</clustering>
</event>
<event>
 6    1  0.9964252E-012  0.3000000E+03  0.7818608E-02  0.1093470E+00
          1   -1    0    0  502    0  0.00000000000E+00  0.00000000000E+00  0.22246283761E+03  0.22246283761E+03  0.00000000000E+00 0.  1.
         13   -1    0    0    0    0 -0.00000000000E+00 -0.00000000000E+00 -0.27500000000E+03  0.27500000000E+03  0.00000000000E+00 0.  1.
    9000005    2    1    2  501    0 -0.26973380289E+02  0.14574113309E+02 -0.69048590218E+02  0.46264049892E+03  0.45643023060E+03 0.  0.
         13    1    3    3    0    0  0.23080498733E+02  0.21277872590E+03  0.58257822718E+02  0.22181404267E+03  0.00000000000E+00 0.  1.
          1    1    3    3  501    0 -0.50053879022E+02 -0.19820461259E+03 -0.12730641294E+03  0.24082645625E+03  0.00000000000E+00 0.  1.
         21    1    1    2  502  501  0.26973380289E+02 -0.14574113309E+02  0.16511427833E+02  0.34822338693E+02  0.00000000000E+00 0.  1.
<scales pt_clust_4="550.00000" pt_clust_5="550.00000" pt_clust_6="30.65890"></scales>
<mgrwt>
<rscale>  0 0.30000000E+03</rscale>
<asrwt>  1 0.30658898E+02</asrwt>
<pdfrwt beam="1">  1        1 0.80895577E+00 0.30000000E+03</pdfrwt>
<pdfrwt beam="2">0</pdfrwt>
<totfact> 0.91116795E-04</totfact>
</mgrwt>
<clustering>
<clus scale="   30.659">  1  6  2 -1</clus>
<clus scale="  456.430">  4  5 -1 -1</clus>
<clus scale="  300.000">  1  4  2 -1</clus>
</clustering>
</event>
<event>
 6    1  0.9964252E-012  0.3000000E+03  0.7818608E-02  0.1093470E+00
          1   -1    0    0  502    0  0.00000000000E+00  0.00000000000E+00  0.25349361849E+03  0.25349361849E+03  0.00000000000E+00 0.  1.
         13   -1    0    0    0    0 -0.00000000000E+00 -0.00000000000E+00 -0.27500000000E+03  0.27500000000E+03  0.00000000000E+00 0.  1.
    9000005    2    1    2  501    0 -0.37043743604E+02  0.46777448109E+01 -0.33894984391E+02  0.48915409996E+03  0.48654778111E+03 0.  0.
         13    1    3    3    0    0  0.72760791137E+02  0.12714358334E+02  0.20943331976E+03  0.22207679541E+03  0.00000000000E+00 0.  1.
          3    1    3    3  501    0 -0.10980453474E+03 -0.80366135231E+01 -0.24332830415E+03  0.26707730455E+03  0.00000000000E+00 0.  1.
         21    1    1    2  502  501  0.37043743604E+02 -0.46777448109E+01  0.12388602884E+02  0.39339518530E+02  0.00000000000E+00 0.  1.
<scales pt_clust_4="550.00000" pt_clust_5="550.00000" pt_clust_6="37.33792"></scales>
<mgrwt>
<rscale>  0 0.30000000E+03</rscale>
<asrwt>  1 0.37337920E+02</asrwt>
<pdfrwt beam="1">  1        1 0.92179498E+00 0.30000000E+03</pdfrwt>
<pdfrwt beam="2">0</pdfrwt>
<totfact> 0.37797100E-05</totfact>
</mgrwt>
<clustering>
<clus scale="   37.338">  1  6  2 -1</clus>
<clus scale="  486.548">  4  5 -1 -1</clus>
<clus scale="  300.000">  1  4  2 -1</clus>
</clustering>
</event>
<event>
 6    1  0.9964252E-012  0.3000000E+03  0.7818608E-02  0.1093470E+00
          1   -1    0    0  502    0  0.00000000000E+00  0.00000000000E+00  0.22546992375E+03  0.22546992375E+03  0.00000000000E+00 0.  1.
         13   -1    0    0    0    0 -0.00000000000E+00 -0.00000000000E+00 -0.27500000000E+03  0.27500000000E+03  0.00000000000E+00 0.  1.
    9000005    2    1    2  501    0 -0.18320534396E+02  0.25759102912E+02 -0.40995932397E+02  0.46772843670E+03  0.46485487053E+03 0.  0.
         13    1    3    3    0    0 -0.26581242582E+02  0.19243575599E+03 -0.16893882678E+03  0.25744593575E+03  0.00000000000E+00 0.  1.
          1    1    3    3  501    0  0.82607081857E+01 -0.16667665308E+03  0.12794289438E+03  0.21028250095E+03  0.00000000000E+00 0.  1.
         21    1    1    2  502  501  0.18320534396E+02 -0.25759102912E+02 -0.85341438495E+01  0.32741487056E+02  0.00000000000E+00 0. -1.
<scales pt_clust_4="550.00000" pt_clust_5="550.00000" pt_clust_6="31.60972"></scales>
<mgrwt>
<rscale>  0 0.30000000E+03</rscale>
<asrwt>  1 0.31609719E+02</asrwt>
<pdfrwt beam="1">  1        1 0.81989063E+00 0.30000000E+03</pdfrwt>
<pdfrwt beam="2">0</pdfrwt>
<totfact> 0.73894739E-04</totfact>
</mgrwt>
<clustering>
<clus scale="   31.610">  1  6  2 -1</clus>
<clus scale="  464.855">  4  5 -1 -1</clus>
<clus scale="  300.000">  1  4  2 -1</clus>
</clustering>
</event>
<event>
 6    1  0.9964252E-012  0.3000000E+03  0.7818608E-02  0.1093470E+00
          1   -1    0    0  502    0  0.00000000000E+00  0.00000000000E+00  0.23733042001E+03  0.23733042001E+03  0.00000000000E+00 0.  1.
         13   -1    0    0    0    0 -0.00000000000E+00 -0.00000000000E+00 -0.27500000000E+03  0.27500000000E+03  0.00000000000E+00 0.  1.
    9000005    2    1    2  501    0  0.30629512932E+02  0.17105585824E+02 -0.54738699165E+02  0.47331602577E+03  0.46882935801E+03 0.  0.
         13    1    3    3    0    0  0.14643338081E+03 -0.10352945831E+03  0.13197791173E+03  0.22266399112E+03  0.00000000000E+00 0.  1.
          3    1    3    3  501    0 -0.11580386788E+03  0.12063504413E+03 -0.18671661090E+03  0.25065203465E+03  0.00000000000E+00 0.  1.
         21    1    1    2  502  501 -0.30629512932E+02 -0.17105585824E+02  0.17069119174E+02  0.39014394244E+02  0.00000000000E+00 0.  1.
<scales pt_clust_4="550.00000" pt_clust_5="550.00000" pt_clust_6="35.08231"></scales>
<mgrwt>
<rscale>  0 0.30000000E+03</rscale>
<asrwt>  1 0.35082305E+02</asrwt>
<pdfrwt beam="1">  1        1 0.86301971E+00 0.30000000E+03</pdfrwt>
<pdfrwt beam="2">0</pdfrwt>
<totfact> 0.29999691E-04</totfact>
</mgrwt>
<clustering>
<clus scale="   35.082">  1  6  2 -1</clus>
<clus scale="  468.829">  4  5 -1 -1</clus>
<clus scale="  300.000">  1  4  2 -1</clus>
</clustering>
</event>
<event>
 6    1  0.9964252E-012  0.3000000E+03  0.7818608E-02  0.1093470E+00
          1   -1    0    0  502    0  0.00000000000E+00  0.00000000000E+00  0.25938766798E+03  0.25938766798E+03  0.00000000000E+00 0.  1.
         13   -1    0    0    0    0 -0.00000000000E+00 -0.00000000000E+00 -0.27500000000E+03  0.27500000000E+03  0.00000000000E+00 0.  1.
    9000005    2    1    2  501    0  0.25036045610E+02 -0.27953307802E+02 -0.26688614588E+02  0.49526126983E+03  0.49311586088E+03 0.  0.
         13    1    3    3    0    0 -0.11020979473E+03 -0.90390016322E+02 -0.21326576069E+03  0.25651284293E+03  0.00000000000E+00 0.  1.
          1    1    3    3  501    0  0.13524584034E+03  0.62436708520E+02  0.18657714610E+03  0.23874842690E+03  0.00000000000E+00 0.  1.
         21    1    1    2  502  501 -0.25036045610E+02  0.27953307802E+02  0.11076282572E+02  0.39126398154E+02  0.00000000000E+00 0. -1.
<scales pt_clust_4="550.00000" pt_clust_5="550.00000" pt_clust_6="37.52587"></scales>
<mgrwt>
<rscale>  0 0.30000000E+03</rscale>
<asrwt>  1 0.37525871E+02</asrwt>
<pdfrwt beam="1">  1        1 0.94322788E+00 0.30000000E+03</pdfrwt>
<pdfrwt beam="2">0</pdfrwt>
<totfact> 0.16579176E-05</totfact>
</mgrwt>
<clustering>
<clus scale="   37.526">  1  6  2 -1</clus>
<clus scale="  493.116">  4  5 -1 -1</clus>
<clus scale="  300.000">  1  4  2 -1</clus>
</clustering>
</event>
<event>
 6    1  0.9964252E-012  0.3000000E+03  0.7818608E-02  0.1093470E+00
          1   -1    0    0  502    0  0.00000000000E+00  0.00000000000E+00  0.22523431261E+03  0.22523431261E+03  0.00000000000E+00 0.  1.
         13   -1    0    0    0    0 -0.00000000000E+00 -0.00000000000E+00 -0.27500000000E+03  0.27500000000E+03  0.00000000000E+00 0.  1.
    9000005    2    1    2  501    0 -0.36270822777E+02 -0.10662539430E+01 -0.62159702919E+02  0.46188954630E+03  0.45624709844E+03 0.  0.
         13    1    3    3    0    0 -0.11572330212E+03 -0.16639396246E+03 -0.15608220511E+03  0.25581338540E+03  0.00000000000E+00 0.  1.
          3    1    3    3  501    0  0.79452479341E+02  0.16532770852E+03  0.93922502190E+02  0.20607616091E+03  0.00000000000E+00 0.  1.
         21    1    1    2  502  501  0.36270822777E+02  0.10662539430E+01  0.12394015533E+02  0.38344766310E+02  0.00000000000E+00 0.  1.
<scales pt_clust_4="550.00000" pt_clust_5="550.00000" pt_clust_6="36.28649"></scales>
<mgrwt>
<rscale>  0 0.30000000E+03</rscale>
<asrwt>  1 0.36286492E+02</asrwt>
<pdfrwt beam="1">  1        1 0.81903386E+00 0.30000000E+03</pdfrwt>
<pdfrwt beam="2">0</pdfrwt>
<totfact> 0.73230670E-04</totfact>
</mgrwt>
<clustering>
<clus scale="   36.286">  1  6  2 -1</clus>
<clus scale="  456.247">  4  5 -1 -1</clus>
<clus scale="  300.000">  1  4  2 -1</clus>
</clustering>
</event>
<event>
 6    1  0.9964252E-012  0.3000000E+03  0.7818608E-02  0.1093470E+00
          1   -1    0    0  502    0  0.00000000000E+00  0.00000000000E+00  0.24549539576E+03  0.24549539576E+03  0.00000000000E+00 0.  1.
         13   -1    0    0    0    0 -0.00000000000E+00 -0.00000000000E+00 -0.27500000000E+03  0.27500000000E+03  0.00000000000E+00 0.  1.
    9000005    2    1    2  501    0 -0.46818307363E+02 -0.18625278567E+02 -0.33231840153E+02  0.46997067712E+03  0.46607856339E+03 0.  0.
         13    1    3    3    0    0 -0.23462203538E+03  0.13719813403E+02 -0.11613414029E+03  0.26215047455E+03  0.00000000000E+00 0.  1.
          1    1    3    3  501    0  0.18780372801E+03 -0.32345091970E+02  0.82902300138E+02  0.20782020258E+03  0.00000000000E+00 0.  1.
         21    1    1    2  502  501  0.46818307363E+02  0.18625278567E+02  0.37272359143E+01  0.50524718639E+02  0.00000000000E+00 0.  1.
<scales pt_clust_4="550.00000" pt_clust_5="550.00000" pt_clust_6="50.38705"></scales>
<mgrwt>
<rscale>  0 0.30000000E+03</rscale>
<asrwt>  1 0.50387051E+02</asrwt>
<pdfrwt beam="1">  1        1 0.89271053E+00 0.30000000E+03</pdfrwt>
<pdfrwt beam="2">0</pdfrwt>
<totfact> 0.12543074E-04</totfact>
</mgrwt>
<clustering>
<clus scale="   50.387">  1  6  2 -1</clus>
<clus scale="  466.079">  4  5 -1 -1</clus>
<clus scale="  300.000">  1  4  2 -1</clus>
</clustering>
</event>
<event>
 6    1  0.9964252E-012  0.3000000E+03  0.7818608E-02  0.1093470E+00
          1   -1    0    0  502    0  0.00000000000E+00  0.00000000000E+00  0.23398965618E+03  0.23398965618E+03  0.00000000000E+00 0.  1.
         13   -1    0    0    0    0 -0.00000000000E+00 -0.00000000000E+00 -0.27500000000E+03  0.27500000000E+03  0.00000000000E+00 0.  1.
    9000005    2    1    2  501    0  0.34749645047E+02 -0.46447063050E+01 -0.57673634142E+02  0.47017243872E+03  0.46530287225E+03 0.  0.
         13    1    3    3    0    0 -0.12086027597E+03  0.17333526050E+03 -0.93476859111E+02  0.23106328577E+03  0.00000000000E+00 0.  1.
          1    1    3    3  501    0  0.15560992102E+03 -0.17797996681E+03  0.35803224970E+02  0.23910915295E+03  0.00000000000E+00 0.  1.
         21    1    1    2  502  501 -0.34749645047E+02  0.46447063050E+01  0.16663290326E+02  0.38817217469E+02  0.00000000000E+00 0.  1.
<scales pt_clust_4="550.00000" pt_clust_5="550.00000" pt_clust_6="35.05868"></scales>
<mgrwt>
<rscale>  0 0.30000000E+03</rscale>
<asrwt>  1 0.35058681E+02</asrwt>
<pdfrwt beam="1">  1        1 0.85087148E+00 0.30000000E+03</pdfrwt>
<pdfrwt beam="2">0</pdfrwt>
<totfact> 0.39923471E-04</totfact>
</mgrwt>
<clustering>
<clus scale="   35.059">  1  6  2 -1</clus>
<clus scale="  465.303">  4  5 -1 -1</clus>
<clus scale="  300.000">  1  4  2 -1</clus>
</clustering>
</event>
<event>
 6    1  0.9964252E-012  0.3000000E+03  0.7818608E-02  0.1093470E+00
          1   -1    0    0  502    0  0.00000000000E+00  0.00000000000E+00  0.24909168490E+03  0.24909168490E+03  0.00000000000E+00 0.  1.
         13   -1    0    0    0    0 -0.00000000000E+00 -0.00000000000E+00 -0.27500000000E+03  0.27500000000E+03  0.00000000000E+00 0.  1.
    9000005    2    1    2  501    0 -0.39993016093E+01  0.52329857701E+02 -0.36835297564E+02  0.47048378095E+03  0.46609413274E+03 0.  0.
         13    1    3    3    0    0 -0.19778359595E+03  0.12991028133E+03 -0.93113317821E+02  0.25429337777E+03  0.00000000000E+00 0.  1.
          3    1    3    3  501    0  0.19378429434E+03 -0.77580423626E+02  0.56278020257E+02  0.21619040318E+03  0.00000000000E+00 0.  1.
         21    1    1    2  502  501  0.39993016093E+01 -0.52329857701E+02  0.10926982469E+02  0.53607903953E+02  0.00000000000E+00 0. -1.
<scales pt_clust_4="550.00000" pt_clust_5="550.00000" pt_clust_6="52.48246"></scales>
<mgrwt>
<rscale>  0 0.30000000E+03</rscale>
<asrwt>  1 0.52482458E+02</asrwt>
<pdfrwt beam="1">  1        1 0.90578795E+00 0.30000000E+03</pdfrwt>
<pdfrwt beam="2">0</pdfrwt>
<totfact> 0.82973730E-05</totfact>
</mgrwt>
<clustering>
<clus scale="   52.482">  1  6  2 -1</clus>
<clus scale="  466.094">  4  5 -1 -1</clus>
<clus scale="  300.000">  1  4  2 -1</clus>
</clustering>
</event>
<event>
 6    1  0.9964252E-012  0.3000000E+03  0.7818608E-02  0.1093470E+00
          1   -1    0    0  502    0  0.00000000000E+00  0.00000000000E+00  0.23770785774E+03  0.23770785774E+03  0.00000000000E+00 0.  1.
         13   -1    0    0    0    0 -0.00000000000E+00 -0.00000000000E+00 -0.27500000000E+03  0.27500000000E+03  0.00000000000E+00 0.  1.
    9000005    2    1    2  501    0  0.14122067211E+02  0.33502506613E+02 -0.55800883547E+02  0.47191050200E+03  0.46718725642E+03 0.  0.
         13    1    3    3    0    0 -0.91849700810E+02  0.22169728700E+03 -0.83671855330E+02  0.25413979219E+03  0.00000000000E+00 0.  1.
          3    1    3    3  501    0  0.10597176802E+03 -0.18819478038E+03  0.27870971782E+02  0.21777070981E+03  0.00000000000E+00 0.  1.
         21    1    1    2  502  501 -0.14122067211E+02 -0.33502506613E+02  0.18508741292E+02  0.40797355746E+02  0.00000000000E+00 0.  1.
<scales pt_clust_4="550.00000" pt_clust_5="550.00000" pt_clust_6="36.35727"></scales>
<mgrwt>
<rscale>  0 0.30000000E+03</rscale>
<asrwt>  1 0.36357265E+02</asrwt>
<pdfrwt beam="1">  1        1 0.86439221E+00 0.30000000E+03</pdfrwt>
<pdfrwt beam="2">0</pdfrwt>
<totfact> 0.28799445E-04</totfact>
</mgrwt>
<clustering>
<clus scale="   36.357">  1  6  2 -1</clus>
<clus scale="  467.187">  4  5 -1 -1</clus>
<clus scale="  300.000">  1  4  2 -1</clus>
</clustering>
</event>
<event>
 6    1  0.9964252E-012  0.3000000E+03  0.7818608E-02  0.1093470E+00
          1   -1    0    0  502    0  0.00000000000E+00  0.00000000000E+00  0.22144854324E+03  0.22144854324E+03  0.00000000000E+00 0.  1.
         13   -1    0    0    0    0 -0.00000000000E+00 -0.00000000000E+00 -0.27500000000E+03  0.27500000000E+03  0.00000000000E+00 0.  1.
    9000005    2    1    2  501    0 -0.29634292263E+02 -0.89953234296E+01 -0.49605394294E+02  0.46522870130E+03  0.46153866821E+03 0.  0.
         13    1    3    3    0    0  0.25100082905E+02  0.12662180053E+02 -0.25245276684E+03  0.25401327613E+03  0.00000000000E+00 0.  1.
          1    1    3    3  501    0 -0.54734375168E+02 -0.21657503483E+02  0.20284737255E+03  0.21121542517E+03  0.00000000000E+00 0.  1.
         21    1    1    2  502  501  0.29634292263E+02  0.89953234296E+01 -0.39460624652E+01  0.31219841936E+02  0.00000000000E+00 0. -1.
<scales pt_clust_4="550.00000" pt_clust_5="550.00000" pt_clust_6="30.96947"></scales>
<mgrwt>
<rscale>  0 0.30000000E+03</rscale>
<asrwt>  1 0.30969470E+02</asrwt>
<pdfrwt beam="1">  1        1 0.80526743E+00 0.30000000E+03</pdfrwt>
<pdfrwt beam="2">0</pdfrwt>
<totfact> 0.97071673E-04</totfact>
</mgrwt>
<clustering>
<clus scale="   30.969">  1  6  2 -1</clus>
<clus scale="  461.539">  4  5 -1 -1</clus>
<clus scale="  300.000">  1  4  2 -1</clus>
</clustering>
</event>
<event>
 6    1  0.9964252E-012  0.3000000E+03  0.7818608E-02  0.1093470E+00
          1   -1    0    0  502    0  0.00000000000E+00  0.00000000000E+00  0.23919417988E+03  0.23919417988E+03  0.00000000000E+00 0.  1.
         13   -1    0    0    0    0 -0.00000000000E+00 -0.00000000000E+00 -0.27500000000E+03  0.27500000000E+03  0.00000000000E+00 0.  1.
    9000005    2    1    2  501    0  0.19622676784E+02  0.47342402143E+02 -0.16069687210E+02  0.45927726602E+03  0.45612610071E+03 0.  0.
         13    1    3    3    0    0  0.26371206365E+02 -0.19363285070E+03  0.63398403722E+02  0.20544702234E+03  0.00000000000E+00 0.  1.
          3    1    3    3  501    0 -0.67485295810E+01  0.24097525284E+03 -0.79468090932E+02  0.25383024368E+03  0.00000000000E+00 0.  1.
         21    1    1    2  502  501 -0.19622676784E+02 -0.47342402143E+02 -0.19736132913E+02  0.54916913854E+02  0.00000000000E+00 0.  1.
<scales pt_clust_4="550.00000" pt_clust_5="550.00000" pt_clust_6="51.24798"></scales>
<mgrwt>
<rscale>  0 0.30000000E+03</rscale>
<asrwt>  1 0.51247977E+02</asrwt>
<pdfrwt beam="1">  1        1 0.86979702E+00 0.30000000E+03</pdfrwt>
<pdfrwt beam="2">0</pdfrwt>
<totfact> 0.23752418E-04</totfact>
</mgrwt>
<clustering>
<clus scale="   51.248">  1  6  2 -1</clus>
<clus scale="  456.126">  4  5 -1 -1</clus>
<clus scale="  300.000">  1  4  2 -1</clus>
</clustering>
</event>
<event>
 6    1  0.9964252E-012  0.3000000E+03  0.7818608E-02  0.1093470E+00
          1   -1    0    0  502    0  0.00000000000E+00  0.00000000000E+00  0.23187804081E+03  0.23187804081E+03  0.00000000000E+00 0.  1.
         13   -1    0    0    0    0 -0.00000000000E+00 -0.00000000000E+00 -0.27500000000E+03  0.27500000000E+03  0.00000000000E+00 0.  1.
    9000005    2    1    2  501    0 -0.31159050351E+02  0.16352658915E+02 -0.96618921191E+01  0.45832011704E+03  0.45686505847E+03 0.  0.
         13    1    3    3    0    0  0.33251966472E+02 -0.11750607332E+03  0.17993298295E+03  0.21746091349E+03  0.00000000000E+00 0.  1.
          3    1    3    3  501    0 -0.64411016823E+02  0.13385873223E+03 -0.18959487507E+03  0.24085920355E+03  0.00000000000E+00 0.  1.
         21    1    1    2  502  501  0.31159050351E+02 -0.16352658915E+02 -0.33460067072E+02  0.48557923769E+02  0.00000000000E+00 0. -1.
<scales pt_clust_4="550.00000" pt_clust_5="550.00000" pt_clust_6="35.18945"></scales>
<mgrwt>
<rscale>  0 0.30000000E+03</rscale>
<asrwt>  1 0.35189446E+02</asrwt>
<pdfrwt beam="1">  1        1 0.84319288E+00 0.30000000E+03</pdfrwt>
<pdfrwt beam="2">0</pdfrwt>
<totfact> 0.46781384E-04</totfact>
</mgrwt>
<clustering>
<clus scale="   35.189">  1  6  2 -1</clus>
<clus scale="  456.865">  4  5 -1 -1</clus>
<clus scale="  300.000">  1  4  2 -1</clus>
</clustering>
</event>
<event>
 6    1  0.9964252E-012  0.3000000E+03  0.7818608E-02  0.1093470E+00
          1   -1    0    0  502    0  0.00000000000E+00  0.00000000000E+00  0.22000230436E+03  0.22000230436E+03  0.00000000000E+00 0.  1.
         13   -1    0    0    0    0 -0.00000000000E+00 -0.00000000000E+00 -0.27500000000E+03  0.27500000000E+03  0.00000000000E+00 0.  1.
    9000005    2    1    2  501    0  0.64897622567E+01  0.32915723983E+02 -0.58770783186E+02  0.46124140851E+03  0.45625000829E+03 0.  0.
         13    1    3    3    0    0  0.26560594357E+02 -0.18926681533E+03  0.70141638486E+02  0.20358595730E+03  0.00000000000E+00 0.  1.
          3    1    3    3  501    0 -0.20070832100E+02  0.22218253931E+03 -0.12891242167E+03  0.25765545121E+03  0.00000000000E+00 0.  1.
         21    1    1    2  502  501 -0.64897622567E+01 -0.32915723983E+02  0.37730875505E+01  0.33760895858E+02  0.00000000000E+00 0. -1.
<scales pt_clust_4="550.00000" pt_clust_5="550.00000" pt_clust_6="33.54939"></scales>
<mgrwt>
<rscale>  0 0.30000000E+03</rscale>
<asrwt>  1 0.33549395E+02</asrwt>
<pdfrwt beam="1">  1        1 0.80000838E+00 0.30000000E+03</pdfrwt>
<pdfrwt beam="2">0</pdfrwt>
<totfact> 0.10451545E-03</totfact>
</mgrwt>
<clustering>
<clus scale="   33.549">  1  6  2 -1</clus>
<clus scale="  456.250">  4  5 -1 -1</clus>
<clus scale="  300.000">  1  4  2 -1</clus>
</clustering>
</event>
<event>
 6    1  0.9964252E-012  0.3000000E+03  0.7818608E-02  0.1093470E+00
          1   -1    0    0  502    0  0.00000000000E+00  0.00000000000E+00  0.22892328007E+03  0.22892328007E+03  0.00000000000E+00 0.  1.
         13   -1    0    0    0    0 -0.00000000000E+00 -0.00000000000E+00 -0.27500000000E+03  0.27500000000E+03  0.00000000000E+00 0.  1.
    9000005    2    1    2  501    0  0.18037595349E+02 -0.25892202307E+02 -0.46492417757E+02  0.47236486137E+03  0.46901093416E+03 0.  0.
         13    1    3    3    0    0 -0.11716315049E+03 -0.20570863261E+03 -0.68156396436E+02  0.24635044091E+03  0.00000000000E+00 0.  1.
          1    1    3    3  501    0  0.13520074584E+03  0.17981643030E+03  0.21663978678E+02  0.22601442046E+03  0.00000000000E+00 0.  1.
         21    1    1    2  502  501 -0.18037595349E+02  0.25892202307E+02  0.41569783052E+00  0.31558418702E+02  0.00000000000E+00 0.  1.
<scales pt_clust_4="550.00000" pt_clust_5="550.00000" pt_clust_6="31.55568"></scales>
<mgrwt>
<rscale>  0 0.30000000E+03</rscale>
<asrwt>  1 0.31555681E+02</asrwt>
<pdfrwt beam="1">  1        1 0.83244829E+00 0.30000000E+03</pdfrwt>
<pdfrwt beam="2">0</pdfrwt>
<totfact> 0.57634661E-04</totfact>
</mgrwt>
<clustering>
<clus scale="   31.556">  1  6  2 -1</clus>
<clus scale="  469.011">  4  5 -1 -1</clus>
<clus scale="  300.000">  1  4  2 -1</clus>
</clustering>
</event>
<event>
 6    1  0.9964252E-012  0.3000000E+03  0.7818608E-02  0.1093470E+00
          1   -1    0    0  502    0  0.00000000000E+00  0.00000000000E+00  0.22878909792E+03  0.22878909792E+03  0.00000000000E+00 0.  1.
         13   -1    0    0    0    0 -0.00000000000E+00 -0.00000000000E+00 -0.27500000000E+03  0.27500000000E+03  0.00000000000E+00 0.  1.
    9000005    2    1    2  501    0 -0.26916936292E+02 -0.15235440691E+02 -0.72657973792E+02  0.46309404030E+03  0.45631159189E+03 0.  0.
         13    1    3    3    0    0  0.18759974773E+02  0.21124592893E+03 -0.92148710319E+02  0.23123184028E+03  0.00000000000E+00 0.  1.
          1    1    3    3  501    0 -0.45676911065E+02 -0.22648136962E+03  0.19490736527E+02  0.23186220003E+03  0.00000000000E+00 0.  1.
         21    1    1    2  502  501  0.26916936292E+02  0.15235440691E+02  0.26447071710E+02  0.40695057616E+02  0.00000000000E+00 0. -1.
<scales pt_clust_4="550.00000" pt_clust_5="550.00000" pt_clust_6="30.92960"></scales>
<mgrwt>
<rscale>  0 0.30000000E+03</rscale>
<asrwt>  1 0.30929599E+02</asrwt>
<pdfrwt beam="1">  1        1 0.83196036E+00 0.30000000E+03</pdfrwt>
<pdfrwt beam="2">0</pdfrwt>
<totfact> 0.58358098E-04</totfact>
</mgrwt>
<clustering>
<clus scale="   30.930">  1  6  2 -1</clus>
<clus scale="  456.312">  4  5 -1 -1</clus>
<clus scale="  300.000">  1  4  2 -1</clus>
</clustering>
</event>
<event>
 6    1  0.9964252E-012  0.3000000E+03  0.7818608E-02  0.1093470E+00
          1   -1    0    0  502    0  0.00000000000E+00  0.00000000000E+00  0.25986033289E+03  0.25986033289E+03  0.00000000000E+00 0.  1.
         13   -1    0    0    0    0 -0.00000000000E+00 -0.00000000000E+00 -0.27500000000E+03  0.27500000000E+03  0.00000000000E+00 0.  1.
    9000005    2    1    2  501    0 -0.43379527061E+02  0.20643249609E+02 -0.57879807605E+02  0.47055911415E+03  0.46450821376E+03 0.  0.
         13    1    3    3    0    0 -0.14991516178E+03 -0.15349045048E+03 -0.13369072704E+03  0.25279850596E+03  0.00000000000E+00 0.  1.
          1    1    3    3  501    0  0.10653563472E+03  0.17413370009E+03  0.75810919433E+02  0.21776060818E+03  0.00000000000E+00 0.  1.
         21    1    1    2  502  501  0.43379527061E+02 -0.20643249609E+02  0.42740140497E+02  0.64301218746E+02  0.00000000000E+00 0.  1.
<scales pt_clust_4="550.00000" pt_clust_5="550.00000" pt_clust_6="48.04089"></scales>
<mgrwt>
<rscale>  0 0.30000000E+03</rscale>
<asrwt>  1 0.48040890E+02</asrwt>
<pdfrwt beam="1">  1        1 0.94494667E+00 0.30000000E+03</pdfrwt>
<pdfrwt beam="2">0</pdfrwt>
<totfact> 0.14713112E-05</totfact>
</mgrwt>
<clustering>
<clus scale="   48.041">  1  6  2 -1</clus>
<clus scale="  464.508">  4  5 -1 -1</clus>
<clus scale="  300.000">  1  4  2 -1</clus>
</clustering>
</event>
<event>
 6    1  0.9964252E-012  0.3000000E+03  0.7818608E-02  0.1093470E+00
          1   -1    0    0  502    0  0.00000000000E+00  0.00000000000E+00  0.22848715835E+03  0.22848715835E+03  0.00000000000E+00 0.  1.
         13   -1    0    0    0    0 -0.00000000000E+00 -0.00000000000E+00 -0.27500000000E+03  0.27500000000E+03  0.00000000000E+00 0.  1.
    9000005    2    1    2  501    0  0.39486406074E+01 -0.37160811718E+02 -0.51585216946E+02  0.46577447240E+03  0.46139820854E+03 0.  0.
         13    1    3    3    0    0  0.33396779211E+02 -0.16314921550E+03 -0.20562743010E+03  0.26460470780E+03  0.00000000000E+00 0.  1.
          1    1    3    3  501    0 -0.29448138604E+02  0.12598840378E+03  0.15404221316E+03  0.20116976460E+03  0.00000000000E+00 0.  1.
         21    1    1    2  502  501 -0.39486406074E+01  0.37160811718E+02  0.50723752922E+01  0.37712685946E+02  0.00000000000E+00 0.  1.
<scales pt_clust_4="550.00000" pt_clust_5="550.00000" pt_clust_6="37.37001"></scales>
<mgrwt>
<rscale>  0 0.30000000E+03</rscale>
<asrwt>  1 0.37370011E+02</asrwt>
<pdfrwt beam="1">  1        1 0.83086239E+00 0.30000000E+03</pdfrwt>
<pdfrwt beam="2">0</pdfrwt>
<totfact> 0.57450638E-04</totfact>
</mgrwt>
<clustering>
<clus scale="   37.370">  1  6  2 -1</clus>
<clus scale="  461.398">  4  5 -1 -1</clus>
<clus scale="  300.000">  1  4  2 -1</clus>
</clustering>
</event>
<event>
 6    1  0.9964252E-012  0.3000000E+03  0.7818608E-02  0.1093470E+00
          1   -1    0    0  502    0  0.00000000000E+00  0.00000000000E+00  0.26090986602E+03  0.26090986602E+03  0.00000000000E+00 0.  1.
         13   -1    0    0    0    0 -0.00000000000E+00 -0.00000000000E+00 -0.27500000000E+03  0.27500000000E+03  0.00000000000E+00 0.  1.
    9000005    2    1    2  501    0  0.12514235280E+01 -0.30512946624E+02 -0.13782007588E+02  0.50536971352E+03  0.50425786820E+03 0.  0.
         13    1    3    3    0    0  0.11809708539E+03  0.17812220111E+03 -0.11844262636E+03  0.24434216960E+03  0.00000000000E+00 0.  1.
          1    1    3    3  501    0 -0.11684566186E+03 -0.20863514773E+03  0.10466061877E+03  0.26102754392E+03  0.00000000000E+00 0.  1.
         21    1    1    2  502  501 -0.12514235280E+01  0.30512946624E+02 -0.30812639553E+00  0.30540152495E+02  0.00000000000E+00 0. -1.
<scales pt_clust_4="550.00000" pt_clust_5="550.00000" pt_clust_6="30.53860"></scales>
<mgrwt>
<rscale>  0 0.30000000E+03</rscale>
<asrwt>  1 0.30538598E+02</asrwt>
<pdfrwt beam="1">  1        1 0.94876315E+00 0.30000000E+03</pdfrwt>
<pdfrwt beam="2">0</pdfrwt>
<totfact> 0.13421728E-05</totfact>
</mgrwt>
<clustering>
<clus scale="   30.539">  1  6  2 -1</clus>
<clus scale="  504.258">  4  5 -1 -1</clus>
<clus scale="  300.000">  1  4  2 -1</clus>
</clustering>
</event>
<event>
 6    1  0.9964252E-012  0.3000000E+03  0.7818608E-02  0.1093470E+00
          1   -1    0    0  502    0  0.00000000000E+00  0.00000000000E+00  0.23261833559E+03  0.23261833559E+03  0.00000000000E+00 0.  1.
         13   -1    0    0    0    0 -0.00000000000E+00 -0.00000000000E+00 -0.27500000000E+03  0.27500000000E+03  0.00000000000E+00 0.  1.
    9000005    2    1    2  501    0  0.31188037237E+02  0.11705539324E+02 -0.54734789516E+02  0.47208929088E+03  0.46772073726E+03 0.  0.
         13    1    3    3    0    0 -0.21603998529E+03  0.36096174759E+02 -0.71923617657E+01  0.21915277581E+03  0.00000000000E+00 0.  1.
          1    1    3    3  501    0  0.24722802253E+03 -0.24390635435E+02 -0.47542427750E+02  0.25293651507E+03  0.00000000000E+00 0.  1.
         21    1    1    2  502  501 -0.31188037237E+02 -0.11705539324E+02  0.12353125101E+02  0.35529044701E+02  0.00000000000E+00 0.  1.
<scales pt_clust_4="550.00000" pt_clust_5="550.00000" pt_clust_6="33.31236"></scales>
<mgrwt>
<rscale>  0 0.30000000E+03</rscale>
<asrwt>  1 0.33312360E+02</asrwt>
<pdfrwt beam="1">  1        1 0.84588486E+00 0.30000000E+03</pdfrwt>
<pdfrwt beam="2">0</pdfrwt>
<totfact> 0.44793287E-04</totfact>
</mgrwt>
<clustering>
<clus scale="   33.312">  1  6  2 -1</clus>
<clus scale="  467.721">  4  5 -1 -1</clus>
<clus scale="  300.000">  1  4  2 -1</clus>
</clustering>
</event>
<event>
 6    1  0.9964252E-012  0.3000000E+03  0.7818608E-02  0.1093470E+00
          1   -1    0    0  502    0  0.00000000000E+00  0.00000000000E+00  0.24494951419E+03  0.24494951419E+03  0.00000000000E+00 0.  1.
         13   -1    0    0    0    0 -0.00000000000E+00 -0.00000000000E+00 -0.27500000000E+03  0.27500000000E+03  0.00000000000E+00 0.  1.
    9000005    2    1    2  501    0 -0.19557434742E+02  0.23505878572E+02 -0.44925118235E+02  0.48594548103E+03  0.48289721961E+03 0.  0.
         13    1    3    3    0    0  0.20758466462E+02 -0.19868243345E+03 -0.13684158163E+03  0.24213888939E+03  0.00000000000E+00 0.  1.
          1    1    3    3  501    0 -0.40315901204E+02  0.22218831202E+03  0.91916463392E+02  0.24380659165E+03  0.00000000000E+00 0.  1.
         21    1    1    2  502  501  0.19557434742E+02 -0.23505878572E+02  0.14874632421E+02  0.34004033154E+02  0.00000000000E+00 0. -1.
<scales pt_clust_4="550.00000" pt_clust_5="550.00000" pt_clust_6="30.57809"></scales>
<mgrwt>
<rscale>  0 0.30000000E+03</rscale>
<asrwt>  1 0.30578090E+02</asrwt>
<pdfrwt beam="1">  1        1 0.89072551E+00 0.30000000E+03</pdfrwt>
<pdfrwt beam="2">0</pdfrwt>
<totfact> 0.14547763E-04</totfact>
</mgrwt>
<clustering>
<clus scale="   30.578">  1  6  2 -1</clus>
<clus scale="  482.897">  4  5 -1 -1</clus>
<clus scale="  300.000">  1  4  2 -1</clus>
</clustering>
</event>
<event>
 6    1  0.9964252E-012  0.3000000E+03  0.7818608E-02  0.1093470E+00
          1   -1    0    0  502    0  0.00000000000E+00  0.00000000000E+00  0.23831451715E+03  0.23831451715E+03  0.00000000000E+00 0.  1.
         13   -1    0    0    0    0 -0.00000000000E+00 -0.00000000000E+00 -0.27500000000E+03  0.27500000000E+03  0.00000000000E+00 0.  1.
    9000005    2    1    2  501    0 -0.29418172094E+02 -0.16006601532E+02 -0.71867378785E+02  0.46474080056E+03  0.45792734296E+03 0.  0.
         13    1    3    3    0    0 -0.22029389937E+03 -0.43787141272E+02  0.58294066546E+02  0.23204506897E+03  0.00000000000E+00 0.  1.
          1    1    3    3  501    0  0.19087572727E+03  0.27780539740E+02 -0.13016144533E+03  0.23269573159E+03  0.00000000000E+00 0.  1.
         21    1    1    2  502  501  0.29418172094E+02  0.16006601532E+02  0.35181895939E+02  0.48573716595E+02  0.00000000000E+00 0.  1.
<scales pt_clust_4="550.00000" pt_clust_5="550.00000" pt_clust_6="33.49090"></scales>
<mgrwt>
<rscale>  0 0.30000000E+03</rscale>
<asrwt>  1 0.33490896E+02</asrwt>
<pdfrwt beam="1">  1        1 0.86659824E+00 0.30000000E+03</pdfrwt>
<pdfrwt beam="2">0</pdfrwt>
<totfact> 0.27696806E-04</totfact>
</mgrwt>
<clustering>
<clus scale="   33.491">  1  6  2 -1</clus>
<clus scale="  457.927">  4  5 -1 -1</clus>
<clus scale="  300.000">  1  4  2 -1</clus>
</clustering>
</event>
<event>
 6    1  0.9964252E-012  0.3000000E+03  0.7818608E-02  0.1093470E+00
          1   -1    0    0  502    0  0.00000000000E+00  0.00000000000E+00  0.22427768236E+03  0.22427768236E+03  0.00000000000E+00 0.  1.
         13   -1    0    0    0    0 -0.00000000000E+00 -0.00000000000E+00 -0.27500000000E+03  0.27500000000E+03  0.00000000000E+00 0.  1.
    9000005    2    1    2  501    0 -0.17842551297E+02  0.24968330766E+02 -0.51563808063E+02  0.46857780803E+03  0.46471987444E+03 0.  0.
         13    1    3    3    0    0 -0.50152401355E+02 -0.30222691458E+02 -0.25172629553E+03  0.25844690422E+03  0.00000000000E+00 0.  1.
          1    1    3    3  501    0  0.32309850058E+02  0.55191022224E+02  0.20016248747E+03  0.21013090380E+03  0.00000000000E+00 0.  1.
         21    1    1    2  502  501  0.17842551297E+02 -0.24968330766E+02  0.84149042444E+00  0.30699874334E+02  0.00000000000E+00 0. -1.
<scales pt_clust_4="550.00000" pt_clust_5="550.00000" pt_clust_6="30.68834"></scales>
<mgrwt>
<rscale>  0 0.30000000E+03</rscale>
<asrwt>  1 0.30688339E+02</asrwt>
<pdfrwt beam="1">  1        1 0.81555521E+00 0.30000000E+03</pdfrwt>
<pdfrwt beam="2">0</pdfrwt>
<totfact> 0.80769774E-04</totfact>
</mgrwt>
<clustering>
<clus scale="   30.688">  1  6  2 -1</clus>
<clus scale="  464.720">  4  5 -1 -1</clus>
<clus scale="  300.000">  1  4  2 -1</clus>
</clustering>
</event>
<event>
 6    1  0.9964252E-012  0.3000000E+03  0.7818608E-02  0.1093470E+00
          1   -1    0    0  502    0  0.00000000000E+00  0.00000000000E+00  0.22630707627E+03  0.22630707627E+03  0.00000000000E+00 0.  1.
         13   -1    0    0    0    0 -0.00000000000E+00 -0.00000000000E+00 -0.27500000000E+03  0.27500000000E+03  0.00000000000E+00 0.  1.
    9000005    2    1    2  501    0  0.30204916189E+02 -0.23870004597E+01 -0.37398427625E+02  0.46897133173E+03  0.46649483691E+03 0.  0.
         13    1    3    3    0    0 -0.50539597583E+02  0.12102653090E+03  0.16985637535E+03  0.21459930185E+03  0.00000000000E+00 0.  1.
          1    1    3    3  501    0  0.80744513772E+02 -0.12341353136E+03 -0.20725480297E+03  0.25437202988E+03  0.00000000000E+00 0.  1.
         21    1    1    2  502  501 -0.30204916189E+02  0.23870004597E+01 -0.11294496102E+02  0.32335744547E+02  0.00000000000E+00 0.  1.
<scales pt_clust_4="550.00000" pt_clust_5="550.00000" pt_clust_6="30.29910"></scales>
<mgrwt>
<rscale>  0 0.30000000E+03</rscale>
<asrwt>  1 0.30299103E+02</asrwt>
<pdfrwt beam="1">  1        1 0.82293482E+00 0.30000000E+03</pdfrwt>
<pdfrwt beam="2">0</pdfrwt>
<totfact> 0.70040096E-04</totfact>
</mgrwt>
<clustering>
<clus scale="   30.299">  1  6  2 -1</clus>
<clus scale="  466.495">  4  5 -1 -1</clus>
<clus scale="  300.000">  1  4  2 -1</clus>
</clustering>
</event>
<event>
 6    1  0.9964252E-012  0.3000000E+03  0.7818608E-02  0.1093470E+00
          1   -1    0    0  502    0  0.00000000000E+00  0.00000000000E+00  0.22012536711E+03  0.22012536711E+03  0.00000000000E+00 0.  1.
         13   -1    0    0    0    0 -0.00000000000E+00 -0.00000000000E+00 -0.27500000000E+03  0.27500000000E+03  0.00000000000E+00 0.  1.
    9000005    2    1    2  501    0  0.22400419964E+02 -0.23821461733E+02 -0.44513298978E+02  0.46082379144E+03  0.45750179466E+03 0.  0.
         13    1    3    3    0    0 -0.10030254080E+02  0.21178104375E+01 -0.25049137643E+03  0.25070105861E+03  0.00000000000E+00 0.  1.
          3    1    3    3  501    0  0.32430674044E+02 -0.25939272171E+02  0.20597807746E+03  0.21012273283E+03  0.00000000000E+00 0.  1.
         21    1    1    2  502  501 -0.22400419964E+02  0.23821461733E+02 -0.10361333907E+02  0.34301575678E+02  0.00000000000E+00 0. -1.
<scales pt_clust_4="550.00000" pt_clust_5="550.00000" pt_clust_6="32.69926"></scales>
<mgrwt>
<rscale>  0 0.30000000E+03</rscale>
<asrwt>  1 0.32699265E+02</asrwt>
<pdfrwt beam="1">  1        1 0.80045588E+00 0.30000000E+03</pdfrwt>
<pdfrwt beam="2">0</pdfrwt>
<totfact> 0.10424365E-03</totfact>
</mgrwt>
<clustering>
<clus scale="   32.699">  1  6  2 -1</clus>
<clus scale="  457.502">  4  5 -1 -1</clus>
<clus scale="  300.000">  1  4  2 -1</clus>
</clustering>
</event>
<event>
 6    1  0.9964252E-012  0.3000000E+03  0.7818608E-02  0.1093470E+00
          1   -1    0    0  502    0  0.00000000000E+00  0.00000000000E+00  0.24941746941E+03  0.24941746941E+03  0.00000000000E+00 0.  1.
         13   -1    0    0    0    0 -0.00000000000E+00 -0.00000000000E+00 -0.27500000000E+03  0.27500000000E+03  0.00000000000E+00 0.  1.
    9000005    2    1    2  501    0 -0.45402927736E+02  0.61113881620E+01 -0.43659715790E+02  0.47516749949E+03  0.47093439764E+03 0.  0.
         13    1    3    3    0    0 -0.13592877249E+03 -0.18323342535E+03  0.67169033113E+02  0.23782934715E+03  0.00000000000E+00 0.  1.
          3    1    3    3  501    0  0.90525844758E+02  0.18934481351E+03 -0.11082874890E+03  0.23733815234E+03  0.00000000000E+00 0.  1.
         21    1    1    2  502  501  0.45402927736E+02 -0.61113881620E+01  0.18077185203E+02  0.49249969920E+02  0.00000000000E+00 0.  1.
<scales pt_clust_4="550.00000" pt_clust_5="550.00000" pt_clust_6="45.81239"></scales>
<mgrwt>
<rscale>  0 0.30000000E+03</rscale>
<asrwt>  1 0.45812388E+02</asrwt>
<pdfrwt beam="1">  1        1 0.90697262E+00 0.30000000E+03</pdfrwt>
<pdfrwt beam="2">0</pdfrwt>
<totfact> 0.80313410E-05</totfact>
</mgrwt>
<clustering>
<clus scale="   45.812">  1  6  2 -1</clus>
<clus scale="  470.934">  4  5 -1 -1</clus>
<clus scale="  300.000">  1  4  2 -1</clus>
</clustering>
</event>
<event>
 6    1  0.9964252E-012  0.3000000E+03  0.7818608E-02  0.1093470E+00
          1   -1    0    0  502    0  0.00000000000E+00  0.00000000000E+00  0.23647182150E+03  0.23647182150E+03  0.00000000000E+00 0.  1.
         13   -1    0    0    0    0 -0.00000000000E+00 -0.00000000000E+00 -0.27500000000E+03  0.27500000000E+03  0.00000000000E+00 0.  1.
    9000005    2    1    2  501    0 -0.11346699179E+02  0.34420108333E+02 -0.64605716837E+02  0.46682286355E+03  0.46090801235E+03 0.  0.
         13    1    3    3    0    0 -0.63805888702E+02 -0.18112569966E+03 -0.13425084695E+03  0.23430962510E+03  0.00000000000E+00 0.  1.
          3    1    3    3  501    0  0.52459189522E+02  0.21554580799E+03  0.69645130109E+02  0.23251323845E+03  0.00000000000E+00 0.  1.
         21    1    1    2  502  501  0.11346699179E+02 -0.34420108333E+02  0.26077538338E+02  0.44648957946E+02  0.00000000000E+00 0.  1.
<scales pt_clust_4="550.00000" pt_clust_5="550.00000" pt_clust_6="36.24212"></scales>
<mgrwt>
<rscale>  0 0.30000000E+03</rscale>
<asrwt>  1 0.36242122E+02</asrwt>
<pdfrwt beam="1">  1        1 0.85989753E+00 0.30000000E+03</pdfrwt>
<pdfrwt beam="2">0</pdfrwt>
<totfact> 0.32217688E-04</totfact>
</mgrwt>
<clustering>
<clus scale="   36.242">  1  6  2 -1</clus>
<clus scale="  460.908">  4  5 -1 -1</clus>
<clus scale="  300.000">  1  4  2 -1</clus>
</clustering>
</event>
<event>
 6    1  0.9964252E-012  0.3000000E+03  0.7818608E-02  0.1093470E+00
          1   -1    0    0  502    0  0.00000000000E+00  0.00000000000E+00  0.25252746441E+03  0.25252746441E+03  0.00000000000E+00 0.  1.
         13   -1    0    0    0    0 -0.00000000000E+00 -0.00000000000E+00 -0.27500000000E+03  0.27500000000E+03  0.00000000000E+00 0.  1.
    9000005    2    1    2  501    0  0.17837302654E+02  0.25552202571E+02 -0.70199222213E+02  0.47052815706E+03  0.46421733204E+03 0.  0.
         13    1    3    3    0    0 -0.59476452377E+02  0.68523657545E+02  0.18194732744E+03  0.20331692009E+03  0.00000000000E+00 0.  1.
          1    1    3    3  501    0  0.77313755030E+02 -0.42971454974E+02 -0.25214654966E+03  0.26721123697E+03  0.00000000000E+00 0.  1.
         21    1    1    2  502  501 -0.17837302654E+02 -0.25552202571E+02  0.47726686621E+02  0.56999307347E+02  0.00000000000E+00 0. -1.
<scales pt_clust_4="550.00000" pt_clust_5="550.00000" pt_clust_6="31.16223"></scales>
<mgrwt>
<rscale>  0 0.30000000E+03</rscale>
<asrwt>  1 0.31162227E+02</asrwt>
<pdfrwt beam="1">  1        1 0.91828169E+00 0.30000000E+03</pdfrwt>
<pdfrwt beam="2">0</pdfrwt>
<totfact> 0.46608687E-05</totfact>
</mgrwt>
<clustering>
<clus scale="   31.162">  1  6  2 -1</clus>
<clus scale="  464.217">  4  5 -1 -1</clus>
<clus scale="  300.000">  1  4  2 -1</clus>
</clustering>
</event>
<event>
 6    1  0.9964252E-012  0.3000000E+03  0.7818608E-02  0.1093470E+00
          1   -1    0    0  502    0  0.00000000000E+00  0.00000000000E+00  0.22652376960E+03  0.22652376960E+03  0.00000000000E+00 0.  1.
         13   -1    0    0    0    0 -0.00000000000E+00 -0.00000000000E+00 -0.27500000000E+03  0.27500000000E+03  0.00000000000E+00 0.  1.
    9000005    2    1    2  501    0 -0.23882450994E+02 -0.18220180555E+02 -0.34550913138E+02  0.46841393864E+03  0.46617111222E+03 0.  0.
         13    1    3    3    0    0 -0.58997483557E+02  0.21590827141E+03  0.22313968048E+02  0.22493331879E+03  0.00000000000E+00 0.  1.
          1    1    3    3  501    0  0.35115032563E+02 -0.23412845197E+03 -0.56864881186E+02  0.24348061986E+03  0.00000000000E+00 0.  1.
         21    1    1    2  502  501  0.23882450994E+02  0.18220180555E+02 -0.13925317264E+02  0.33109830955E+02  0.00000000000E+00 0. -1.
<scales pt_clust_4="550.00000" pt_clust_5="550.00000" pt_clust_6="30.03910"></scales>
<mgrwt>
<rscale>  0 0.30000000E+03</rscale>
<asrwt>  1 0.30039097E+02</asrwt>
<pdfrwt beam="1">  1        1 0.82372280E+00 0.30000000E+03</pdfrwt>
<pdfrwt beam="2">0</pdfrwt>
<totfact> 0.69029609E-04</totfact>
</mgrwt>
<clustering>
<clus scale="   30.039">  1  6  2 -1</clus>
<clus scale="  466.171">  4  5 -1 -1</clus>
<clus scale="  300.000">  1  4  2 -1</clus>
</clustering>
</event>
<event>
 6    1  0.9964252E-012  0.3000000E+03  0.7818608E-02  0.1093470E+00
          1   -1    0    0  502    0  0.00000000000E+00  0.00000000000E+00  0.22198596890E+03  0.22198596890E+03  0.00000000000E+00 0.  1.
         13   -1    0    0    0    0 -0.00000000000E+00 -0.00000000000E+00 -0.27500000000E+03  0.27500000000E+03  0.00000000000E+00 0.  1.
    9000005    2    1    2  501    0 -0.67628201646E+01 -0.30112989698E+02 -0.55361983175E+02  0.46603373531E+03  0.46170333049E+03 0.  0.
         13    1    3    3    0    0 -0.12139924968E+03 -0.40102412041E+02 -0.22633189166E+03  0.25994635303E+03  0.00000000000E+00 0.  1.
          1    1    3    3  501    0  0.11463642951E+03  0.99894223427E+01  0.17096990848E+03  0.20608738228E+03  0.00000000000E+00 0.  1.
         21    1    1    2  502  501  0.67628201646E+01  0.30112989698E+02  0.23479520779E+01  0.30952233588E+02  0.00000000000E+00 0.  1.
<scales pt_clust_4="550.00000" pt_clust_5="550.00000" pt_clust_6="30.86305"></scales>
<mgrwt>
<rscale>  0 0.30000000E+03</rscale>
<asrwt>  1 0.30863050E+02</asrwt>
<pdfrwt beam="1">  1        1 0.80722171E+00 0.30000000E+03</pdfrwt>
<pdfrwt beam="2">0</pdfrwt>
<totfact> 0.93848513E-04</totfact>
</mgrwt>
<clustering>
<clus scale="   30.863">  1  6  2 -1</clus>
<clus scale="  461.703">  4  5 -1 -1</clus>
<clus scale="  300.000">  1  4  2 -1</clus>
</clustering>
</event>
<event>
 6    1  0.9964252E-012  0.3000000E+03  0.7818608E-02  0.1093470E+00
          1   -1    0    0  502    0  0.00000000000E+00  0.00000000000E+00  0.23471315727E+03  0.23471315727E+03  0.00000000000E+00 0.  1.
         13   -1    0    0    0    0 -0.00000000000E+00 -0.00000000000E+00 -0.27500000000E+03  0.27500000000E+03  0.00000000000E+00 0.  1.
    9000005    2    1    2  501    0 -0.41621877857E+01  0.42450383752E+02 -0.47361243145E+02  0.46647652895E+03  0.46210161850E+03 0.  0.
         13    1    3    3    0    0 -0.15538356235E+03 -0.14520388578E+03 -0.71264539501E+02  0.22429189571E+03  0.00000000000E+00 0.  1.
          1    1    3    3  501    0  0.15122137456E+03  0.18765426953E+03  0.23903296356E+02  0.24218463323E+03  0.00000000000E+00 0.  1.
         21    1    1    2  502  501  0.41621877857E+01 -0.42450383752E+02  0.70744004189E+01  0.43236628328E+02  0.00000000000E+00 0.  1.
<scales pt_clust_4="550.00000" pt_clust_5="550.00000" pt_clust_6="42.65394"></scales>
<mgrwt>
<rscale>  0 0.30000000E+03</rscale>
<asrwt>  1 0.42653943E+02</asrwt>
<pdfrwt beam="1">  1        1 0.85350239E+00 0.30000000E+03</pdfrwt>
<pdfrwt beam="2">0</pdfrwt>
<totfact> 0.36338687E-04</totfact>
</mgrwt>
<clustering>
<clus scale="   42.654">  1  6  2 -1</clus>
<clus scale="  462.102">  4  5 -1 -1</clus>
<clus scale="  300.000">  1  4  2 -1</clus>
</clustering>
</event>
<event>
 6    1  0.9964252E-012  0.3000000E+03  0.7818608E-02  0.1093470E+00
          1   -1    0    0  502    0  0.00000000000E+00  0.00000000000E+00  0.23060623129E+03  0.23060623129E+03  0.00000000000E+00 0.  1.
         13   -1    0    0    0    0 -0.00000000000E+00 -0.00000000000E+00 -0.27500000000E+03  0.27500000000E+03  0.00000000000E+00 0.  1.
    9000005    2    1    2  501    0  0.32259382215E+02  0.99608947834E+01 -0.38242939618E+02  0.47128830792E+03  0.46851922008E+03 0.  0.
         13    1    3    3    0    0  0.15265758850E+03  0.72086373627E+01 -0.21110132963E+03  0.26061480225E+03  0.00000000000E+00 0.  1.
          3    1    3    3  501    0 -0.12039820628E+03  0.27522574207E+01  0.17285839001E+03  0.21067350568E+03  0.00000000000E+00 0.  1.
         21    1    1    2  502  501 -0.32259382215E+02 -0.99608947834E+01 -0.61508290925E+01  0.34317923368E+02  0.00000000000E+00 0. -1.
<scales pt_clust_4="550.00000" pt_clust_5="550.00000" pt_clust_6="33.76223"></scales>
<mgrwt>
<rscale>  0 0.30000000E+03</rscale>
<asrwt>  1 0.33762232E+02</asrwt>
<pdfrwt beam="1">  1        1 0.83856811E+00 0.30000000E+03</pdfrwt>
<pdfrwt beam="2">0</pdfrwt>
<totfact> 0.51298833E-04</totfact>
</mgrwt>
<clustering>
<clus scale="   33.762">  1  6  2 -1</clus>
<clus scale="  468.519">  4  5 -1 -1</clus>
<clus scale="  300.000">  1  4  2 -1</clus>
</clustering>
</event>
<event>
 6    1  0.9964252E-012  0.3000000E+03  0.7818608E-02  0.1093470E+00
          1   -1    0    0  502    0  0.00000000000E+00  0.00000000000E+00  0.22355167080E+03  0.22355167080E+03  0.00000000000E+00 0.  1.
         13   -1    0    0    0    0 -0.00000000000E+00 -0.00000000000E+00 -0.27500000000E+03  0.27500000000E+03  0.00000000000E+00 0.  1.
    9000005    2    1    2  501    0 -0.24319588375E+02 -0.21906389214E+02 -0.59573496795E+02  0.46482704158E+03  0.45983023476E+03 0.  0.
         13    1    3    3    0    0 -0.57734904812E+02  0.48439069462E+02 -0.24892622585E+03  0.26008446436E+03  0.00000000000E+00 0.  1.
          3    1    3    3  501    0  0.33415316437E+02 -0.70345458676E+02  0.18935272906E+03  0.20474257723E+03  0.00000000000E+00 0.  1.
         21    1    1    2  502  501  0.24319588375E+02  0.21906389214E+02  0.81251675916E+01  0.33724629212E+02  0.00000000000E+00 0.  1.
<scales pt_clust_4="550.00000" pt_clust_5="550.00000" pt_clust_6="32.73121"></scales>
<mgrwt>
<rscale>  0 0.30000000E+03</rscale>
<asrwt>  1 0.32731212E+02</asrwt>
<pdfrwt beam="1">  1        1 0.81291517E+00 0.30000000E+03</pdfrwt>
<pdfrwt beam="2">0</pdfrwt>
<totfact> 0.83776546E-04</totfact>
</mgrwt>
<clustering>
<clus scale="   32.731">  1  6  2 -1</clus>
<clus scale="  459.830">  4  5 -1 -1</clus>
<clus scale="  300.000">  1  4  2 -1</clus>
</clustering>
</event>
<event>
 6    1  0.9964252E-012  0.3000000E+03  0.7818608E-02  0.1093470E+00
          1   -1    0    0  502    0  0.00000000000E+00  0.00000000000E+00  0.23161473181E+03  0.23161473181E+03  0.00000000000E+00 0.  1.
         13   -1    0    0    0    0 -0.00000000000E+00 -0.00000000000E+00 -0.27500000000E+03  0.27500000000E+03  0.00000000000E+00 0.  1.
    9000005    2    1    2  501    0  0.28905205670E+02 -0.83401854350E+01 -0.50812614852E+02  0.47562707158E+03  0.47194715783E+03 0.  0.
         13    1    3    3    0    0  0.19410567768E+03  0.13218296529E+03 -0.96656651420E+02  0.25395247328E+03  0.00000000000E+00 0.  1.
          3    1    3    3  501    0 -0.16520047201E+03 -0.14052315073E+03  0.45844036569E+02  0.22167459830E+03  0.00000000000E+00 0.  1.
         21    1    1    2  502  501 -0.28905205670E+02  0.83401854350E+01  0.74273466642E+01  0.30987660228E+02  0.00000000000E+00 0.  1.
<scales pt_clust_4="550.00000" pt_clust_5="550.00000" pt_clust_6="30.08437"></scales>
<mgrwt>
<rscale>  0 0.30000000E+03</rscale>
<asrwt>  1 0.30084375E+02</asrwt>
<pdfrwt beam="1">  1        1 0.84223539E+00 0.30000000E+03</pdfrwt>
<pdfrwt beam="2">0</pdfrwt>
<totfact> 0.49091497E-04</totfact>
</mgrwt>
<clustering>
<clus scale="   30.084">  1  6  2 -1</clus>
<clus scale="  471.947">  4  5 -1 -1</clus>
<clus scale="  300.000">  1  4  2 -1</clus>
</clustering>
</event>
<event>
 6    1  0.9964252E-012  0.3000000E+03  0.7818608E-02  0.1093470E+00
          1   -1    0    0  502    0  0.00000000000E+00  0.00000000000E+00  0.25350168883E+03  0.25350168883E+03  0.00000000000E+00 0.  1.
         13   -1    0    0    0    0 -0.00000000000E+00 -0.00000000000E+00 -0.27500000000E+03  0.27500000000E+03  0.00000000000E+00 0.  1.
    9000005    2    1    2  501    0 -0.16273427660E+02 -0.28944950096E+02  0.10858682051E+02  0.48213780640E+03  0.48087037630E+03 0.  0.
         13    1    3    3    0    0  0.10597972956E+03  0.17890648143E+03  0.92454499565E+02  0.22756771886E+03  0.00000000000E+00 0.  1.
          1    1    3    3  501    0 -0.12225315722E+03 -0.20785143153E+03 -0.81595817514E+02  0.25457008755E+03  0.00000000000E+00 0.  1.
         21    1    1    2  502  501  0.16273427660E+02  0.28944950096E+02 -0.32356993219E+02  0.46363882430E+02  0.00000000000E+00 0.  1.
<scales pt_clust_4="550.00000" pt_clust_5="550.00000" pt_clust_6="33.20596"></scales>
<mgrwt>
<rscale>  0 0.30000000E+03</rscale>
<asrwt>  1 0.33205959E+02</asrwt>
<pdfrwt beam="1">  1        1 0.92182432E+00 0.30000000E+03</pdfrwt>
<pdfrwt beam="2">0</pdfrwt>
<totfact> 0.38579208E-05</totfact>
</mgrwt>
<clustering>
<clus scale="   33.206">  1  6  2 -1</clus>
<clus scale="  480.870">  4  5 -1 -1</clus>
<clus scale="  300.000">  1  4  2 -1</clus>
</clustering>
</event>
<event>
 6    1  0.9964252E-012  0.3000000E+03  0.7818608E-02  0.1093470E+00
          1   -1    0    0  502    0  0.00000000000E+00  0.00000000000E+00  0.24113438861E+03  0.24113438861E+03  0.00000000000E+00 0.  1.
         13   -1    0    0    0    0 -0.00000000000E+00 -0.00000000000E+00 -0.27500000000E+03  0.27500000000E+03  0.00000000000E+00 0.  1.
    9000005    2    1    2  501    0 -0.15567800438E+02  0.33381916005E+02 -0.21282637738E+02  0.47721087448E+03  0.47531101326E+03 0.  0.
         13    1    3    3    0    0  0.16799274916E+02 -0.20828568299E+03  0.64572289743E+02  0.21871150399E+03  0.00000000000E+00 0.  1.
          1    1    3    3  501    0 -0.32367075354E+02  0.24166759899E+03 -0.85854927481E+02  0.25849937049E+03  0.00000000000E+00 0.  1.
         21    1    1    2  502  501  0.15567800438E+02 -0.33381916005E+02 -0.12582973649E+02  0.38923514133E+02  0.00000000000E+00 0.  1.
<scales pt_clust_4="550.00000" pt_clust_5="550.00000" pt_clust_6="36.83355"></scales>
<mgrwt>
<rscale>  0 0.30000000E+03</rscale>
<asrwt>  1 0.36833546E+02</asrwt>
<pdfrwt beam="1">  1        1 0.87685232E+00 0.30000000E+03</pdfrwt>
<pdfrwt beam="2">0</pdfrwt>
<totfact> 0.21276695E-04</totfact>
</mgrwt>
<clustering>
<clus scale="   36.834">  1  6  2 -1</clus>
<clus scale="  475.311">  4  5 -1 -1</clus>
<clus scale="  300.000">  1  4  2 -1</clus>
</clustering>
</event>
<event>
 6    1  0.9964252E-012  0.3000000E+03  0.7818608E-02  0.1093470E+00
          1   -1    0    0  502    0  0.00000000000E+00  0.00000000000E+00  0.24630883311E+03  0.24630883311E+03  0.00000000000E+00 0.  1.
         13   -1    0    0    0    0 -0.00000000000E+00 -0.00000000000E+00 -0.27500000000E+03  0.27500000000E+03  0.00000000000E+00 0.  1.
    9000005    2    1    2  501    0  0.29015134101E+02  0.12961537993E+02 -0.28939074612E+02  0.48952926527E+03  0.48763875158E+03 0.  0.
         13    1    3    3    0    0 -0.59512569353E+02  0.19490699306E+03 -0.15062865368E+03  0.25341561350E+03  0.00000000000E+00 0.  1.
          3    1    3    3  501    0  0.88527703454E+02 -0.18194545507E+03  0.12168957907E+03  0.23611365177E+03  0.00000000000E+00 0.  1.
         21    1    1    2  502  501 -0.29015134101E+02 -0.12961537993E+02  0.24790772611E+00  0.31779567843E+02  0.00000000000E+00 0. -1.
<scales pt_clust_4="550.00000" pt_clust_5="550.00000" pt_clust_6="31.77860"></scales>
<mgrwt>
<rscale>  0 0.30000000E+03</rscale>
<asrwt>  1 0.31778601E+02</asrwt>
<pdfrwt beam="1">  1        1 0.89566848E+00 0.30000000E+03</pdfrwt>
<pdfrwt beam="2">0</pdfrwt>
<totfact> 0.12622030E-04</totfact>
</mgrwt>
<clustering>
<clus scale="   31.779">  1  6  2 -1</clus>
<clus scale="  487.639">  4  5 -1 -1</clus>
<clus scale="  300.000">  1  4  2 -1</clus>
</clustering>
</event>
<event>
 6    1  0.9964252E-012  0.3000000E+03  0.7818608E-02  0.1093470E+00
          1   -1    0    0  502    0  0.00000000000E+00  0.00000000000E+00  0.22397925954E+03  0.22397925954E+03  0.00000000000E+00 0.  1.
         13   -1    0    0    0    0 -0.00000000000E+00 -0.00000000000E+00 -0.27500000000E+03  0.27500000000E+03  0.00000000000E+00 0.  1.
    9000005    2    1    2  501    0 -0.34471147504E+02 -0.15696503836E+02 -0.52228308717E+02  0.46108336973E+03  0.45654730026E+03 0.  0.
         13    1    3    3    0    0 -0.20129330043E+03 -0.89880533294E+02  0.81224692118E+02  0.23493606295E+03  0.00000000000E+00 0.  1.
          3    1    3    3  501    0  0.16682215293E+03  0.74184029458E+02 -0.13345300083E+03  0.22614730678E+03  0.00000000000E+00 0.  1.
         21    1    1    2  502  501  0.34471147504E+02  0.15696503836E+02  0.12075682542E+01  0.37895889804E+02  0.00000000000E+00 0.  1.
<scales pt_clust_4="550.00000" pt_clust_5="550.00000" pt_clust_6="37.87665"></scales>
<mgrwt>
<rscale>  0 0.30000000E+03</rscale>
<asrwt>  1 0.37876645E+02</asrwt>
<pdfrwt beam="1">  1        1 0.81447003E+00 0.30000000E+03</pdfrwt>
<pdfrwt beam="2">0</pdfrwt>
<totfact> 0.79220855E-04</totfact>
</mgrwt>
<clustering>
<clus scale="   37.877">  1  6  2 -1</clus>
<clus scale="  456.547">  4  5 -1 -1</clus>
<clus scale="  300.000">  1  4  2 -1</clus>
</clustering>
</event>
<event>
 6    1  0.9964252E-012  0.3000000E+03  0.7818608E-02  0.1093470E+00
          1   -1    0    0  502    0  0.00000000000E+00  0.00000000000E+00  0.24465748906E+03  0.24465748906E+03  0.00000000000E+00 0.  1.
         13   -1    0    0    0    0 -0.00000000000E+00 -0.00000000000E+00 -0.27500000000E+03  0.27500000000E+03  0.00000000000E+00 0.  1.
    9000005    2    1    2  501    0 -0.16280821969E+02 -0.30189798429E+02 -0.67513604198E+02  0.46907904239E+03  0.46292609796E+03 0.  0.
         13    1    3    3    0    0  0.17682244879E+02  0.57601241189E+02  0.18766042854E+03  0.19709642617E+03  0.00000000000E+00 0.  1.
          3    1    3    3  501    0 -0.33963066848E+02 -0.87791039618E+02 -0.25517403273E+03  0.27198261622E+03  0.00000000000E+00 0.  1.
         21    1    1    2  502  501  0.16280821969E+02  0.30189798429E+02  0.37171093260E+02  0.50578446667E+02  0.00000000000E+00 0.  1.
<scales pt_clust_4="550.00000" pt_clust_5="550.00000" pt_clust_6="34.29999"></scales>
<mgrwt>
<rscale>  0 0.30000000E+03</rscale>
<asrwt>  1 0.34299987E+02</asrwt>
<pdfrwt beam="1">  1        1 0.88966360E+00 0.30000000E+03</pdfrwt>
<pdfrwt beam="2">0</pdfrwt>
<totfact> 0.14701897E-04</totfact>
</mgrwt>
<clustering>
<clus scale="   34.300">  1  6  2 -1</clus>
<clus scale="  462.926">  4  5 -1 -1</clus>
<clus scale="  300.000">  1  4  2 -1</clus>
</clustering>
</event>
<event>
 6    1  0.9964252E-012  0.3000000E+03  0.7818608E-02  0.1093470E+00
          1   -1    0    0  502    0  0.00000000000E+00  0.00000000000E+00  0.22225728222E+03  0.22225728222E+03  0.00000000000E+00 0.  1.
         13   -1    0    0    0    0 -0.00000000000E+00 -0.00000000000E+00 -0.27500000000E+03  0.27500000000E+03  0.00000000000E+00 0.  1.
    9000005    2    1    2  501    0  0.29391997782E+02  0.13648882671E+02 -0.61719304133E+02  0.46363049774E+03  0.45835988525E+03 0.  0.
         13    1    3    3    0    0  0.21929636004E+03  0.10938986535E+03 -0.53276035118E+02  0.25078949756E+03  0.00000000000E+00 0.  1.
          1    1    3    3  501    0 -0.18990436226E+03 -0.95740982676E+02 -0.84432690150E+01  0.21284100019E+03  0.00000000000E+00 0.  1.
         21    1    1    2  502  501 -0.29391997782E+02 -0.13648882671E+02  0.89765863555E+01  0.33626784479E+02  0.00000000000E+00 0.  1.
<scales pt_clust_4="550.00000" pt_clust_5="550.00000" pt_clust_6="32.40650"></scales>
<mgrwt>
<rscale>  0 0.30000000E+03</rscale>
<asrwt>  1 0.32406504E+02</asrwt>
<pdfrwt beam="1">  1        1 0.80820830E+00 0.30000000E+03</pdfrwt>
<pdfrwt beam="2">0</pdfrwt>
<totfact> 0.91366686E-04</totfact>
</mgrwt>
<clustering>
<clus scale="   32.407">  1  6  2 -1</clus>
<clus scale="  458.360">  4  5 -1 -1</clus>
<clus scale="  300.000">  1  4  2 -1</clus>
</clustering>
</event>
<event>
 6    1  0.9964252E-012  0.3000000E+03  0.7818608E-02  0.1093470E+00
          1   -1    0    0  502    0  0.00000000000E+00  0.00000000000E+00  0.22968562742E+03  0.22968562742E+03  0.00000000000E+00 0.  1.
         13   -1    0    0    0    0 -0.00000000000E+00 -0.00000000000E+00 -0.27500000000E+03  0.27500000000E+03  0.00000000000E+00 0.  1.
    9000005    2    1    2  501    0 -0.16131811126E+01 -0.32653518670E+02 -0.68351585056E+02  0.46469103037E+03  0.45847241999E+03 0.  0.
         13    1    3    3    0    0  0.17288722932E+03 -0.11087998449E+03 -0.15244976490E+03  0.25578368955E+03  0.00000000000E+00 0.  1.
          3    1    3    3  501    0 -0.17450041043E+03  0.78226465820E+02  0.84098179839E+02  0.20890734082E+03  0.00000000000E+00 0.  1.
         21    1    1    2  502  501  0.16131811126E+01  0.32653518670E+02  0.23037212479E+02  0.39994597055E+02  0.00000000000E+00 0. -1.
<scales pt_clust_4="550.00000" pt_clust_5="550.00000" pt_clust_6="32.69334"></scales>
<mgrwt>
<rscale>  0 0.30000000E+03</rscale>
<asrwt>  1 0.32693342E+02</asrwt>
<pdfrwt beam="1">  1        1 0.83522046E+00 0.30000000E+03</pdfrwt>
<pdfrwt beam="2">0</pdfrwt>
<totfact> 0.54595169E-04</totfact>
</mgrwt>
<clustering>
<clus scale="   32.693">  1  6  2 -1</clus>
<clus scale="  458.472">  4  5 -1 -1</clus>
<clus scale="  300.000">  1  4  2 -1</clus>
</clustering>
</event>
<event>
 6    1  0.9964252E-012  0.3000000E+03  0.7818608E-02  0.1093470E+00
          1   -1    0    0  502    0  0.00000000000E+00  0.00000000000E+00  0.24980765545E+03  0.24980765545E+03  0.00000000000E+00 0.  1.
         13   -1    0    0    0    0 -0.00000000000E+00 -0.00000000000E+00 -0.27500000000E+03  0.27500000000E+03  0.00000000000E+00 0.  1.
    9000005    2    1    2  501    0  0.32918007445E+02  0.12594046623E+02 -0.33194978477E+02  0.48866561104E+03  0.48626121333E+03 0.  0.
         13    1    3    3    0    0  0.10684415819E+02  0.44624186673E+02  0.22393930346E+03  0.22859196489E+03  0.00000000000E+00 0.  1.
          3    1    3    3  501    0  0.22233591626E+02 -0.32030140050E+02 -0.25713428194E+03  0.26007364614E+03  0.00000000000E+00 0.  1.
         21    1    1    2  502  501 -0.32918007445E+02 -0.12594046623E+02  0.80026339244E+01  0.36142044411E+02  0.00000000000E+00 0. -1.
<scales pt_clust_4="550.00000" pt_clust_5="550.00000" pt_clust_6="35.24493"></scales>
<mgrwt>
<rscale>  0 0.30000000E+03</rscale>
<asrwt>  1 0.35244932E+02</asrwt>
<pdfrwt beam="1">  1        1 0.90839147E+00 0.30000000E+03</pdfrwt>
<pdfrwt beam="2">0</pdfrwt>
<totfact> 0.78345428E-05</totfact>
</mgrwt>
<clustering>
<clus scale="   35.245">  1  6  2 -1</clus>
<clus scale="  486.261">  4  5 -1 -1</clus>
<clus scale="  300.000">  1  4  2 -1</clus>
</clustering>
</event>
<event>
 6    1  0.9964252E-012  0.3000000E+03  0.7818608E-02  0.1093470E+00
          1   -1    0    0  502    0  0.00000000000E+00  0.00000000000E+00  0.22299937334E+03  0.22299937334E+03  0.00000000000E+00 0.  1.
         13   -1    0    0    0    0 -0.00000000000E+00 -0.00000000000E+00 -0.27500000000E+03  0.27500000000E+03  0.00000000000E+00 0.  1.
    9000005    2    1    2  501    0 -0.31042040428E+02  0.11445608652E+02 -0.44588079416E+02  0.46409426918E+03  0.46076109170E+03 0.  0.
         13    1    3    3    0    0 -0.19822384418E+03 -0.77398021877E+02 -0.13734297759E+03  0.25327107945E+03  0.00000000000E+00 0.  1.
          1    1    3    3  501    0  0.16718180375E+03  0.88843630529E+02  0.92754898177E+02  0.21082318973E+03  0.00000000000E+00 0.  1.
         21    1    1    2  502  501  0.31042040428E+02 -0.11445608652E+02 -0.74125472474E+01  0.33905104159E+02  0.00000000000E+00 0.  1.
<scales pt_clust_4="550.00000" pt_clust_5="550.00000" pt_clust_6="33.08491"></scales>
<mgrwt>
<rscale>  0 0.30000000E+03</rscale>
<asrwt>  1 0.33084911E+02</asrwt>
<pdfrwt beam="1">  1        1 0.81090681E+00 0.30000000E+03</pdfrwt>
<pdfrwt beam="2">0</pdfrwt>
<totfact> 0.86714815E-04</totfact>
</mgrwt>
<clustering>
<clus scale="   33.085">  1  6  2 -1</clus>
<clus scale="  460.761">  4  5 -1 -1</clus>
<clus scale="  300.000">  1  4  2 -1</clus>
</clustering>
</event>
<event>
 6    1  0.9964252E-012  0.3000000E+03  0.7818608E-02  0.1093470E+00
          1   -1    0    0  502    0  0.00000000000E+00  0.00000000000E+00  0.22436533383E+03  0.22436533383E+03  0.00000000000E+00 0.  1.
         13   -1    0    0    0    0 -0.00000000000E+00 -0.00000000000E+00 -0.27500000000E+03  0.27500000000E+03  0.00000000000E+00 0.  1.
    9000005    2    1    2  501    0  0.18990860822E+02  0.24227162885E+02 -0.68468077904E+02  0.46378951634E+03  0.45767371517E+03 0.  0.
         13    1    3    3    0    0 -0.15688777287E+03  0.11012950887E+03  0.90177346982E+02  0.21183539815E+03  0.00000000000E+00 0.  1.
          1    1    3    3  501    0  0.17587863369E+03 -0.85902345988E+02 -0.15864542489E+03  0.25195411819E+03  0.00000000000E+00 0.  1.
         21    1    1    2  502  501 -0.18990860822E+02 -0.24227162885E+02  0.17833411739E+02  0.35575817496E+02  0.00000000000E+00 0.  1.
<scales pt_clust_4="550.00000" pt_clust_5="550.00000" pt_clust_6="30.78325"></scales>
<mgrwt>
<rscale>  0 0.30000000E+03</rscale>
<asrwt>  1 0.30783246E+02</asrwt>
<pdfrwt beam="1">  1        1 0.81587394E+00 0.30000000E+03</pdfrwt>
<pdfrwt beam="2">0</pdfrwt>
<totfact> 0.80241551E-04</totfact>
</mgrwt>
<clustering>
<clus scale="   30.783">  1  6  2 -1</clus>
<clus scale="  457.674">  4  5 -1 -1</clus>
<clus scale="  300.000">  1  4  2 -1</clus>
</clustering>
</event>
<event>
 6    1  0.9964252E-012  0.3000000E+03  0.7818608E-02  0.1093470E+00
          1   -1    0    0  502    0  0.00000000000E+00  0.00000000000E+00  0.23627666360E+03  0.23627666360E+03  0.00000000000E+00 0.  1.
         13   -1    0    0    0    0 -0.00000000000E+00 -0.00000000000E+00 -0.27500000000E+03  0.27500000000E+03  0.00000000000E+00 0.  1.
    9000005    2    1    2  501    0  0.31117467220E+02 -0.14023312504E+01 -0.60865264426E+02  0.47305980507E+03  0.46809265692E+03 0.  0.
         13    1    3    3    0    0 -0.16267025149E+03 -0.87836363550E+02  0.96825255418E+02  0.20869108167E+03  0.00000000000E+00 0.  1.
          3    1    3    3  501    0  0.19378771871E+03  0.86434032300E+02 -0.15769051984E+03  0.26436872340E+03  0.00000000000E+00 0.  1.
         21    1    1    2  502  501 -0.31117467220E+02  0.14023312504E+01  0.22141928025E+02  0.38216858528E+02  0.00000000000E+00 0.  1.
<scales pt_clust_4="550.00000" pt_clust_5="550.00000" pt_clust_6="31.14905"></scales>
<mgrwt>
<rscale>  0 0.30000000E+03</rscale>
<asrwt>  1 0.31149050E+02</asrwt>
<pdfrwt beam="1">  1        1 0.85918787E+00 0.30000000E+03</pdfrwt>
<pdfrwt beam="2">0</pdfrwt>
<totfact> 0.33730920E-04</totfact>
</mgrwt>
<clustering>
<clus scale="   31.149">  1  6  2 -1</clus>
<clus scale="  468.093">  4  5 -1 -1</clus>
<clus scale="  300.000">  1  4  2 -1</clus>
</clustering>
</event>
<event>
 6    1  0.9964252E-012  0.3000000E+03  0.7818608E-02  0.1093470E+00
          1   -1    0    0  502    0  0.00000000000E+00  0.00000000000E+00  0.23612609398E+03  0.23612609398E+03  0.00000000000E+00 0.  1.
         13   -1    0    0    0    0 -0.00000000000E+00 -0.00000000000E+00 -0.27500000000E+03  0.27500000000E+03  0.00000000000E+00 0.  1.
    9000005    2    1    2  501    0  0.36674339602E+01 -0.33431713409E+02 -0.31969538457E+02  0.47679243957E+03  0.47452908184E+03 0.  0.
         13    1    3    3    0    0 -0.20288992286E+03  0.95422982705E+02  0.28304227639E+02  0.22598892834E+03  0.00000000000E+00 0.  1.
          1    1    3    3  501    0  0.20655735682E+03 -0.12885469611E+03 -0.60273766096E+02  0.25080351124E+03  0.00000000000E+00 0.  1.
         21    1    1    2  502  501 -0.36674339602E+01  0.33431713409E+02 -0.69043675656E+01  0.34333654405E+02  0.00000000000E+00 0.  1.
<scales pt_clust_4="550.00000" pt_clust_5="550.00000" pt_clust_6="33.63229"></scales>
<mgrwt>
<rscale>  0 0.30000000E+03</rscale>
<asrwt>  1 0.33632286E+02</asrwt>
<pdfrwt beam="1">  1        1 0.85864034E+00 0.30000000E+03</pdfrwt>
<pdfrwt beam="2">0</pdfrwt>
<totfact> 0.33688614E-04</totfact>
</mgrwt>
<clustering>
<clus scale="   33.632">  1  6  2 -1</clus>
<clus scale="  474.529">  4  5 -1 -1</clus>
<clus scale="  300.000">  1  4  2 -1</clus>
</clustering>
</event>
<event>
 6    1  0.9964252E-012  0.3000000E+03  0.7818608E-02  0.1093470E+00
          1   -1    0    0  502    0  0.00000000000E+00  0.00000000000E+00  0.23562300027E+03  0.23562300027E+03  0.00000000000E+00 0.  1.
         13   -1    0    0    0    0 -0.00000000000E+00 -0.00000000000E+00 -0.27500000000E+03  0.27500000000E+03  0.00000000000E+00 0.  1.
    9000005    2    1    2  501    0 -0.38948531568E+02 -0.71154173458E+01 -0.18804511561E+02  0.46600411924E+03  0.46393815559E+03 0.  0.
         13    1    3    3    0    0 -0.18212872599E+03  0.21609513716E+02 -0.17406557820E+03  0.25285701380E+03  0.00000000000E+00 0.  1.
          3    1    3    3  501    0  0.14318019442E+03 -0.28724931062E+02  0.15526106664E+03  0.21314710543E+03  0.00000000000E+00 0.  1.
         21    1    1    2  502  501  0.38948531568E+02  0.71154173458E+01 -0.20572488168E+02  0.44618881034E+02  0.00000000000E+00 0. -1.
<scales pt_clust_4="550.00000" pt_clust_5="550.00000" pt_clust_6="39.59317"></scales>
<mgrwt>
<rscale>  0 0.30000000E+03</rscale>
<asrwt>  1 0.39593167E+02</asrwt>
<pdfrwt beam="1">  1        1 0.85681091E+00 0.30000000E+03</pdfrwt>
<pdfrwt beam="2">0</pdfrwt>
<totfact> 0.34145546E-04</totfact>
</mgrwt>
<clustering>
<clus scale="   39.593">  1  6  2 -1</clus>
<clus scale="  463.938">  4  5 -1 -1</clus>
<clus scale="  300.000">  1  4  2 -1</clus>
</clustering>
</event>
<event>
 6    1  0.9964252E-012  0.3000000E+03  0.7818608E-02  0.1093470E+00
          1   -1    0    0  502    0  0.00000000000E+00  0.00000000000E+00  0.24089183857E+03  0.24089183857E+03  0.00000000000E+00 0.  1.
         13   -1    0    0    0    0 -0.00000000000E+00 -0.00000000000E+00 -0.27500000000E+03  0.27500000000E+03  0.00000000000E+00 0.  1.
    9000005    2    1    2  501    0 -0.17144112570E+02  0.30780474024E+02 -0.48520715113E+02  0.47782505672E+03  0.47404764197E+03 0.  0.
         13    1    3    3    0    0  0.22676308949E+03  0.43399457370E+02 -0.15944577063E+02  0.23142869569E+03  0.00000000000E+00 0.  1.
          1    1    3    3  501    0 -0.24390720206E+03 -0.12618983347E+02 -0.32576138049E+02  0.24639636102E+03  0.00000000000E+00 0.  1.
         21    1    1    2  502  501  0.17144112570E+02 -0.30780474024E+02  0.14412553682E+02  0.38066781852E+02  0.00000000000E+00 0.  1.
<scales pt_clust_4="550.00000" pt_clust_5="550.00000" pt_clust_6="35.23291"></scales>
<mgrwt>
<rscale>  0 0.30000000E+03</rscale>
<asrwt>  1 0.35232913E+02</asrwt>
<pdfrwt beam="1">  1        1 0.87597032E+00 0.30000000E+03</pdfrwt>
<pdfrwt beam="2">0</pdfrwt>
<totfact> 0.21934807E-04</totfact>
</mgrwt>
<clustering>
<clus scale="   35.233">  1  6  2 -1</clus>
<clus scale="  474.048">  4  5 -1 -1</clus>
<clus scale="  300.000">  1  4  2 -1</clus>
</clustering>
</event>
<event>
 6    1  0.9964252E-012  0.3000000E+03  0.7818608E-02  0.1093470E+00
          1   -1    0    0  502    0  0.00000000000E+00  0.00000000000E+00  0.23270150381E+03  0.23270150381E+03  0.00000000000E+00 0.  1.
         13   -1    0    0    0    0 -0.00000000000E+00 -0.00000000000E+00 -0.27500000000E+03  0.27500000000E+03  0.00000000000E+00 0.  1.
    9000005    2    1    2  501    0  0.40800294582E+02 -0.13424954154E+02 -0.53588403399E+02  0.46329029535E+03  0.45817167891E+03 0.  0.
         13    1    3    3    0    0  0.17866432843E+03  0.10611442150E+03 -0.15059763429E+03  0.25663370814E+03  0.00000000000E+00 0.  1.
          1    1    3    3  501    0 -0.13786403385E+03 -0.11953937565E+03  0.97009230886E+02  0.20665658721E+03  0.00000000000E+00 0.  1.
         21    1    1    2  502  501 -0.40800294582E+02  0.13424954154E+02  0.11289907210E+02  0.44411208459E+02  0.00000000000E+00 0. -1.
<scales pt_clust_4="550.00000" pt_clust_5="550.00000" pt_clust_6="42.95222"></scales>
<mgrwt>
<rscale>  0 0.30000000E+03</rscale>
<asrwt>  1 0.42952223E+02</asrwt>
<pdfrwt beam="1">  1        1 0.84618729E+00 0.30000000E+03</pdfrwt>
<pdfrwt beam="2">0</pdfrwt>
<totfact> 0.42478812E-04</totfact>
</mgrwt>
<clustering>
<clus scale="   42.952">  1  6  2 -1</clus>
<clus scale="  458.172">  4  5 -1 -1</clus>
<clus scale="  300.000">  1  4  2 -1</clus>
</clustering>
</event>
<event>
 6    1  0.9964252E-012  0.3000000E+03  0.7818608E-02  0.1093470E+00
          1   -1    0    0  502    0  0.00000000000E+00  0.00000000000E+00  0.23499182497E+03  0.23499182497E+03  0.00000000000E+00 0.  1.
         13   -1    0    0    0    0 -0.00000000000E+00 -0.00000000000E+00 -0.27500000000E+03  0.27500000000E+03  0.00000000000E+00 0.  1.
    9000005    2    1    2  501    0  0.29344621807E+02  0.11774612112E+02 -0.57746686346E+02  0.47373712730E+03  0.46914010453E+03 0.  0.
         13    1    3    3    0    0 -0.18389757311E+03 -0.10052632850E+03  0.40531595228E+02  0.21346351053E+03  0.00000000000E+00 0.  1.
          1    1    3    3  501    0  0.21324219492E+03  0.11230094061E+03 -0.98278281573E+02  0.26027361677E+03  0.00000000000E+00 0.  1.
         21    1    1    2  502  501 -0.29344621807E+02 -0.11774612112E+02  0.17738511315E+02  0.36254697669E+02  0.00000000000E+00 0. -1.
<scales pt_clust_4="550.00000" pt_clust_5="550.00000" pt_clust_6="31.61880"></scales>
<mgrwt>
<rscale>  0 0.30000000E+03</rscale>
<asrwt>  1 0.31618797E+02</asrwt>
<pdfrwt beam="1">  1        1 0.85451573E+00 0.30000000E+03</pdfrwt>
<pdfrwt beam="2">0</pdfrwt>
<totfact> 0.37550134E-04</totfact>
</mgrwt>
<clustering>
<clus scale="   31.619">  1  6  2 -1</clus>
<clus scale="  469.140">  4  5 -1 -1</clus>
<clus scale="  300.000">  1  4  2 -1</clus>
</clustering>
</event>
<event>
 6    1  0.9964252E-012  0.3000000E+03  0.7818608E-02  0.1093470E+00
          1   -1    0    0  502    0  0.00000000000E+00  0.00000000000E+00  0.23457088058E+03  0.23457088058E+03  0.00000000000E+00 0.  1.
         13   -1    0    0    0    0 -0.00000000000E+00 -0.00000000000E+00 -0.27500000000E+03  0.27500000000E+03  0.00000000000E+00 0.  1.
    9000005    2    1    2  501    0  0.29752187623E+02 -0.27495933298E+02 -0.48288881332E+02  0.46830352213E+03  0.46404218964E+03 0.  0.
         13    1    3    3    0    0  0.22589945235E+03  0.38370064242E+02 -0.10748331935E+03  0.25309185752E+03  0.00000000000E+00 0.  1.
          3    1    3    3  501    0 -0.19614726473E+03 -0.65865997540E+02  0.59194438013E+02  0.21521166461E+03  0.00000000000E+00 0.  1.
         21    1    1    2  502  501 -0.29752187623E+02  0.27495933298E+02  0.78597619130E+01  0.41267358452E+02  0.00000000000E+00 0. -1.
<scales pt_clust_4="550.00000" pt_clust_5="550.00000" pt_clust_6="40.51196"></scales>
<mgrwt>
<rscale>  0 0.30000000E+03</rscale>
<asrwt>  1 0.40511961E+02</asrwt>
<pdfrwt beam="1">  1        1 0.85298502E+00 0.30000000E+03</pdfrwt>
<pdfrwt beam="2">0</pdfrwt>
<totfact> 0.37104398E-04</totfact>
</mgrwt>
<clustering>
<clus scale="   40.512">  1  6  2 -1</clus>
<clus scale="  464.042">  4  5 -1 -1</clus>
<clus scale="  300.000">  1  4  2 -1</clus>
</clustering>
</event>
<event>
 6    1  0.9964252E-012  0.3000000E+03  0.7818608E-02  0.1093470E+00
          1   -1    0    0  502    0  0.00000000000E+00  0.00000000000E+00  0.22183898016E+03  0.22183898016E+03  0.00000000000E+00 0.  1.
         13   -1    0    0    0    0 -0.00000000000E+00 -0.00000000000E+00 -0.27500000000E+03  0.27500000000E+03  0.00000000000E+00 0.  1.
    9000005    2    1    2  501    0  0.65549940344E+01  0.30553353176E+02 -0.63585921679E+02  0.46389730572E+03  0.45845508556E+03 0.  0.
         13    1    3    3    0    0 -0.22007099798E+03 -0.28013787817E+02 -0.59922672680E+02  0.22979717831E+03  0.00000000000E+00 0.  1.
          1    1    3    3  501    0  0.22662599201E+03  0.58567140993E+02 -0.36632489989E+01  0.23410012741E+03  0.00000000000E+00 0.  1.
         21    1    1    2  502  501 -0.65549940344E+01 -0.30553353176E+02  0.10424901843E+02  0.32941674449E+02  0.00000000000E+00 0. -1.
<scales pt_clust_4="550.00000" pt_clust_5="550.00000" pt_clust_6="31.24861"></scales>
<mgrwt>
<rscale>  0 0.30000000E+03</rscale>
<asrwt>  1 0.31248605E+02</asrwt>
<pdfrwt beam="1">  1        1 0.80668720E+00 0.30000000E+03</pdfrwt>
<pdfrwt beam="2">0</pdfrwt>
<totfact> 0.94514364E-04</totfact>
</mgrwt>
<clustering>
<clus scale="   31.249">  1  6  2 -1</clus>
<clus scale="  458.455">  4  5 -1 -1</clus>
<clus scale="  300.000">  1  4  2 -1</clus>
</clustering>
</event>
<event>
 6    1  0.9964252E-012  0.3000000E+03  0.7818608E-02  0.1093470E+00
          1   -1    0    0  502    0  0.00000000000E+00  0.00000000000E+00  0.26060429338E+03  0.26060429338E+03  0.00000000000E+00 0.  1.
         13   -1    0    0    0    0 -0.00000000000E+00 -0.00000000000E+00 -0.27500000000E+03  0.27500000000E+03  0.00000000000E+00 0.  1.
    9000005    2    1    2  501    0 -0.37485765924E+02  0.35034411321E+02 -0.24642252431E+02  0.48328236371E+03  0.47991875338E+03 0.  0.
         13    1    3    3    0    0 -0.84443619282E+01  0.25435287122E+03 -0.53855583105E+02  0.26012903371E+03  0.00000000000E+00 0.  1.
          1    1    3    3  501    0 -0.29041403995E+02 -0.21931845990E+03  0.29213330674E+02  0.22315333000E+03  0.00000000000E+00 0.  1.
         21    1    1    2  502  501  0.37485765924E+02 -0.35034411321E+02  0.10246545809E+02  0.52321929671E+02  0.00000000000E+00 0.  1.
<scales pt_clust_4="550.00000" pt_clust_5="550.00000" pt_clust_6="51.30880"></scales>
<mgrwt>
<rscale>  0 0.30000000E+03</rscale>
<asrwt>  1 0.51308797E+02</asrwt>
<pdfrwt beam="1">  1        1 0.94765198E+00 0.30000000E+03</pdfrwt>
<pdfrwt beam="2">0</pdfrwt>
<totfact> 0.12858292E-05</totfact>
</mgrwt>
<clustering>
<clus scale="   51.309">  1  6  2 -1</clus>
<clus scale="  479.919">  4  5 -1 -1</clus>
<clus scale="  300.000">  1  4  2 -1</clus>
</clustering>
</event>
<event>
 6    1  0.9964252E-012  0.3000000E+03  0.7818608E-02  0.1093470E+00
          1   -1    0    0  502    0  0.00000000000E+00  0.00000000000E+00  0.23663045437E+03  0.23663045437E+03  0.00000000000E+00 0.  1.
         13   -1    0    0    0    0 -0.00000000000E+00 -0.00000000000E+00 -0.27500000000E+03  0.27500000000E+03  0.00000000000E+00 0.  1.
    9000005    2    1    2  501    0  0.37395217943E+02  0.18967102292E+02 -0.40473805097E+02  0.46964734822E+03  0.46601754205E+03 0.  0.
         13    1    3    3    0    0  0.20531163308E+03 -0.12089818081E+03 -0.71871276791E+02  0.24886686648E+03  0.00000000000E+00 0.  1.
          1    1    3    3  501    0 -0.16791641514E+03  0.13986528310E+03  0.31397471694E+02  0.22078048174E+03  0.00000000000E+00 0.  1.
         21    1    1    2  502  501 -0.37395217943E+02 -0.18967102292E+02  0.21042594702E+01  0.41983106153E+02  0.00000000000E+00 0.  1.
<scales pt_clust_4="550.00000" pt_clust_5="550.00000" pt_clust_6="41.93034"></scales>
<mgrwt>
<rscale>  0 0.30000000E+03</rscale>
<asrwt>  1 0.41930339E+02</asrwt>
<pdfrwt beam="1">  1        1 0.86047438E+00 0.30000000E+03</pdfrwt>
<pdfrwt beam="2">0</pdfrwt>
<totfact> 0.30925860E-04</totfact>
</mgrwt>
<clustering>
<clus scale="   41.930">  1  6  2 -1</clus>
<clus scale="  466.018">  4  5 -1 -1</clus>
<clus scale="  300.000">  1  4  2 -1</clus>
</clustering>
</event>
<event>
 6    1  0.9964252E-012  0.3000000E+03  0.7818608E-02  0.1093470E+00
          1   -1    0    0  502    0  0.00000000000E+00  0.00000000000E+00  0.21764099865E+03  0.21764099865E+03  0.00000000000E+00 0.  1.
         13   -1    0    0    0    0 -0.00000000000E+00 -0.00000000000E+00 -0.27500000000E+03  0.27500000000E+03  0.00000000000E+00 0.  1.
    9000005    2    1    2  501    0 -0.16836284117E+02 -0.25605531833E+02 -0.56198766337E+02  0.46197424355E+03  0.45751808340E+03 0.  0.
         13    1    3    3    0    0 -0.64017657979E+02 -0.19151214986E+03  0.10350220119E+03  0.22690938660E+03  0.00000000000E+00 0.  1.
          1    1    3    3  501    0  0.47181373863E+02  0.16590661802E+03 -0.15970096753E+03  0.23506485695E+03  0.00000000000E+00 0.  1.
         21    1    1    2  502  501  0.16836284117E+02  0.25605531833E+02 -0.11602350117E+01  0.30666755104E+02  0.00000000000E+00 0.  1.
<scales pt_clust_4="550.00000" pt_clust_5="550.00000" pt_clust_6="30.64480"></scales>
<mgrwt>
<rscale>  0 0.30000000E+03</rscale>
<asrwt>  1 0.30644799E+02</asrwt>
<pdfrwt beam="1">  1        1 0.79142181E+00 0.30000000E+03</pdfrwt>
<pdfrwt beam="2">0</pdfrwt>
<totfact> 0.12323241E-03</totfact>
</mgrwt>
<clustering>
<clus scale="   30.645">  1  6  2 -1</clus>
<clus scale="  457.518">  4  5 -1 -1</clus>
<clus scale="  300.000">  1  4  2 -1</clus>
</clustering>
</event>
<event>
 6    1  0.9964252E-012  0.3000000E+03  0.7818608E-02  0.1093470E+00
          1   -1    0    0  502    0  0.00000000000E+00  0.00000000000E+00  0.25487198530E+03  0.25487198530E+03  0.00000000000E+00 0.  1.
         13   -1    0    0    0    0 -0.00000000000E+00 -0.00000000000E+00 -0.27500000000E+03  0.27500000000E+03  0.00000000000E+00 0.  1.
    9000005    2    1    2  501    0  0.32288749932E+02  0.52954012262E+01 -0.50898267475E+02  0.48495636327E+03  0.48116674449E+03 0.  0.
         13    1    3    3    0    0 -0.13022599459E+03  0.16724413044E+03  0.73031310667E+02  0.22419407033E+03  0.00000000000E+00 0.  1.
          1    1    3    3  501    0  0.16251474452E+03 -0.16194872922E+03 -0.12392957814E+03  0.26076229294E+03  0.00000000000E+00 0.  1.
         21    1    1    2  502  501 -0.32288749932E+02 -0.52954012262E+01  0.30770252780E+02  0.44915622031E+02  0.00000000000E+00 0.  1.
<scales pt_clust_4="550.00000" pt_clust_5="550.00000" pt_clust_6="32.72010"></scales>
<mgrwt>
<rscale>  0 0.30000000E+03</rscale>
<asrwt>  1 0.32720095E+02</asrwt>
<pdfrwt beam="1">  1        1 0.92680722E+00 0.30000000E+03</pdfrwt>
<pdfrwt beam="2">0</pdfrwt>
<totfact> 0.30482438E-05</totfact>
</mgrwt>
<clustering>
<clus scale="   32.720">  1  6  2 -1</clus>
<clus scale="  481.167">  4  5 -1 -1</clus>
<clus scale="  300.000">  1  4  2 -1</clus>
</clustering>
</event>
<event>
 6    1  0.9964252E-012  0.3000000E+03  0.7818608E-02  0.1093470E+00
          1   -1    0    0  502    0  0.00000000000E+00  0.00000000000E+00  0.23717590654E+03  0.23717590654E+03  0.00000000000E+00 0.  1.
         13   -1    0    0    0    0 -0.00000000000E+00 -0.00000000000E+00 -0.27500000000E+03  0.27500000000E+03  0.00000000000E+00 0.  1.
    9000005    2    1    2  501    0  0.64164137854E+00 -0.41119872293E+02 -0.61993557257E+02  0.46447455875E+03  0.45847808997E+03 0.  0.
         13    1    3    3    0    0 -0.78518599181E+02 -0.21454202218E+03  0.62421403693E+02  0.23683302417E+03  0.00000000000E+00 0.  1.
          1    1    3    3  501    0  0.79160240560E+02  0.17342214989E+03 -0.12441496095E+03  0.22764153458E+03  0.00000000000E+00 0.  1.
         21    1    1    2  502  501 -0.64164137854E+00  0.41119872293E+02  0.24169463797E+02  0.47701347793E+02  0.00000000000E+00 0.  1.
<scales pt_clust_4="550.00000" pt_clust_5="550.00000" pt_clust_6="41.12488"></scales>
<mgrwt>
<rscale>  0 0.30000000E+03</rscale>
<asrwt>  1 0.41124878E+02</asrwt>
<pdfrwt beam="1">  1        1 0.86245784E+00 0.30000000E+03</pdfrwt>
<pdfrwt beam="2">0</pdfrwt>
<totfact> 0.29544770E-04</totfact>
</mgrwt>
<clustering>
<clus scale="   41.125">  1  6  2 -1</clus>
<clus scale="  458.478">  4  5 -1 -1</clus>
<clus scale="  300.000">  1  4  2 -1</clus>
</clustering>
</event>
<event>
 6    1  0.9964252E-012  0.3000000E+03  0.7818608E-02  0.1093470E+00
          1   -1    0    0  502    0  0.00000000000E+00  0.00000000000E+00  0.23866240315E+03  0.23866240315E+03  0.00000000000E+00 0.  1.
         13   -1    0    0    0    0 -0.00000000000E+00 -0.00000000000E+00 -0.27500000000E+03  0.27500000000E+03  0.00000000000E+00 0.  1.
    9000005    2    1    2  501    0 -0.24026955006E+02  0.23471867553E+02 -0.70371416288E+02  0.46584479134E+03  0.45927226158E+03 0.  0.
         13    1    3    3    0    0 -0.20340662740E+03  0.12024986009E+03 -0.10592050475E+03  0.25894678652E+03  0.00000000000E+00 0.  1.
          3    1    3    3  501    0  0.17937967240E+03 -0.96777992534E+02  0.35549088465E+02  0.20689800482E+03  0.00000000000E+00 0.  1.
         21    1    1    2  502  501  0.24026955006E+02 -0.23471867553E+02  0.34033819439E+02  0.47817611807E+02  0.00000000000E+00 0.  1.
<scales pt_clust_4="550.00000" pt_clust_5="550.00000" pt_clust_6="33.58903"></scales>
<mgrwt>
<rscale>  0 0.30000000E+03</rscale>
<asrwt>  1 0.33589033E+02</asrwt>
<pdfrwt beam="1">  1        1 0.86786328E+00 0.30000000E+03</pdfrwt>
<pdfrwt beam="2">0</pdfrwt>
<totfact> 0.26848514E-04</totfact>
</mgrwt>
<clustering>
<clus scale="   33.589">  1  6  2 -1</clus>
<clus scale="  459.272">  4  5 -1 -1</clus>
<clus scale="  300.000">  1  4  2 -1</clus>
</clustering>
</event>
<event>
 6    1  0.9964252E-012  0.3000000E+03  0.7818608E-02  0.1093470E+00
          1   -1    0    0  502    0  0.00000000000E+00  0.00000000000E+00  0.23343054927E+03  0.23343054927E+03  0.00000000000E+00 0.  1.
         13   -1    0    0    0    0 -0.00000000000E+00 -0.00000000000E+00 -0.27500000000E+03  0.27500000000E+03  0.00000000000E+00 0.  1.
    9000005    2    1    2  501    0  0.56448835968E+01 -0.34421486896E+02 -0.95938012376E+01  0.46111093778E+03  0.45968962622E+03 0.  0.
         13    1    3    3    0    0  0.26556676629E+02  0.14864638748E+03 -0.16238618697E+03  0.22174372438E+03  0.00000000000E+00 0.  1.
          1    1    3    3  501    0 -0.20911793032E+02 -0.18306787438E+03  0.15279238573E+03  0.23936721340E+03  0.00000000000E+00 0.  1.
         21    1    1    2  502  501 -0.56448835968E+01  0.34421486896E+02 -0.31975649491E+02  0.47319611487E+02  0.00000000000E+00 0.  1.
<scales pt_clust_4="550.00000" pt_clust_5="550.00000" pt_clust_6="34.88129"></scales>
<mgrwt>
<rscale>  0 0.30000000E+03</rscale>
<asrwt>  1 0.34881294E+02</asrwt>
<pdfrwt beam="1">  1        1 0.84883836E+00 0.30000000E+03</pdfrwt>
<pdfrwt beam="2">0</pdfrwt>
<totfact> 0.41752423E-04</totfact>
</mgrwt>
<clustering>
<clus scale="   34.881">  1  6  2 -1</clus>
<clus scale="  459.690">  4  5 -1 -1</clus>
<clus scale="  300.000">  1  4  2 -1</clus>
</clustering>
</event>
<event>
 6    1  0.9964252E-012  0.3000000E+03  0.7818608E-02  0.1093470E+00
          1   -1    0    0  502    0  0.00000000000E+00  0.00000000000E+00  0.22113789073E+03  0.22113789073E+03  0.00000000000E+00 0.  1.
         13   -1    0    0    0    0 -0.00000000000E+00 -0.00000000000E+00 -0.27500000000E+03  0.27500000000E+03  0.00000000000E+00 0.  1.
    9000005    2    1    2  501    0  0.19242885473E+02 -0.27642775543E+02 -0.60579126093E+02  0.46179360451E+03  0.45656225311E+03 0.  0.
         13    1    3    3    0    0  0.13352478057E+03  0.16597313031E+02  0.16024593821E+03  0.20924411231E+03  0.00000000000E+00 0.  1.
          1    1    3    3  501    0 -0.11428189509E+03 -0.44240088574E+02 -0.22082506430E+03  0.25254949219E+03  0.00000000000E+00 0.  1.
         21    1    1    2  502  501 -0.19242885473E+02  0.27642775543E+02  0.67170168217E+01  0.34344286221E+02  0.00000000000E+00 0. -1.
<scales pt_clust_4="550.00000" pt_clust_5="550.00000" pt_clust_6="33.68103"></scales>
<mgrwt>
<rscale>  0 0.30000000E+03</rscale>
<asrwt>  1 0.33681029E+02</asrwt>
<pdfrwt beam="1">  1        1 0.80413778E+00 0.30000000E+03</pdfrwt>
<pdfrwt beam="2">0</pdfrwt>
<totfact> 0.97426453E-04</totfact>
</mgrwt>
<clustering>
<clus scale="   33.681">  1  6  2 -1</clus>
<clus scale="  456.562">  4  5 -1 -1</clus>
<clus scale="  300.000">  1  4  2 -1</clus>
</clustering>
</event>
<event>
 6    1  0.9964252E-012  0.3000000E+03  0.7818608E-02  0.1093470E+00
          1   -1    0    0  502    0  0.00000000000E+00  0.00000000000E+00  0.22290549572E+03  0.22290549572E+03  0.00000000000E+00 0.  1.
         13   -1    0    0    0    0 -0.00000000000E+00 -0.00000000000E+00 -0.27500000000E+03  0.27500000000E+03  0.00000000000E+00 0.  1.
    9000005    2    1    2  501    0 -0.27479192242E+02 -0.23292884457E+02 -0.49478578436E+02  0.46178752871E+03  0.45771380521E+03 0.  0.
         13    1    3    3    0    0 -0.15759922450E+03  0.82088125537E+02  0.12707745902E+03  0.21845973658E+03  0.00000000000E+00 0.  1.
          1    1    3    3  501    0  0.13012003226E+03 -0.10538100999E+03 -0.17655603745E+03  0.24332779213E+03  0.00000000000E+00 0.  1.
         21    1    1    2  502  501  0.27479192242E+02  0.23292884457E+02 -0.26159258436E+01  0.36117967005E+02  0.00000000000E+00 0. -1.
<scales pt_clust_4="550.00000" pt_clust_5="550.00000" pt_clust_6="36.02311"></scales>
<mgrwt>
<rscale>  0 0.30000000E+03</rscale>
<asrwt>  1 0.36023110E+02</asrwt>
<pdfrwt beam="1">  1        1 0.81056544E+00 0.30000000E+03</pdfrwt>
<pdfrwt beam="2">0</pdfrwt>
<totfact> 0.85869454E-04</totfact>
</mgrwt>
<clustering>
<clus scale="   36.023">  1  6  2 -1</clus>
<clus scale="  457.714">  4  5 -1 -1</clus>
<clus scale="  300.000">  1  4  2 -1</clus>
</clustering>
</event>
<event>
 6    1  0.9964252E-012  0.3000000E+03  0.7818608E-02  0.1093470E+00
          1   -1    0    0  502    0  0.00000000000E+00  0.00000000000E+00  0.24500095592E+03  0.24500095592E+03  0.00000000000E+00 0.  1.
         13   -1    0    0    0    0 -0.00000000000E+00 -0.00000000000E+00 -0.27500000000E+03  0.27500000000E+03  0.00000000000E+00 0.  1.
    9000005    2    1    2  501    0  0.20566412120E+02 -0.34372029390E+02 -0.68478589828E+02  0.46445737706E+03  0.45763186529E+03 0.  0.
         13    1    3    3    0    0 -0.18231451696E+03 -0.88105216911E+02 -0.13607750575E+03  0.24396352168E+03  0.00000000000E+00 0.  1.
          3    1    3    3  501    0  0.20288092908E+03  0.53733187520E+02  0.67598915920E+02  0.22049385538E+03  0.00000000000E+00 0.  1.
         21    1    1    2  502  501 -0.20566412120E+02  0.34372029390E+02  0.38479545751E+02  0.55543578865E+02  0.00000000000E+00 0. -1.
<scales pt_clust_4="550.00000" pt_clust_5="550.00000" pt_clust_6="40.05513"></scales>
<mgrwt>
<rscale>  0 0.30000000E+03</rscale>
<asrwt>  1 0.40055133E+02</asrwt>
<pdfrwt beam="1">  1        1 0.89091257E+00 0.30000000E+03</pdfrwt>
<pdfrwt beam="2">0</pdfrwt>
<totfact> 0.13754455E-04</totfact>
</mgrwt>
<clustering>
<clus scale="   40.055">  1  6  2 -1</clus>
<clus scale="  457.632">  4  5 -1 -1</clus>
<clus scale="  300.000">  1  4  2 -1</clus>
</clustering>
</event>
<event>
 6    1  0.9964252E-012  0.3000000E+03  0.7818608E-02  0.1093470E+00
          1   -1    0    0  502    0  0.00000000000E+00  0.00000000000E+00  0.24713419462E+03  0.24713419462E+03  0.00000000000E+00 0.  1.
         13   -1    0    0    0    0 -0.00000000000E+00 -0.00000000000E+00 -0.27500000000E+03  0.27500000000E+03  0.00000000000E+00 0.  1.
    9000005    2    1    2  501    0  0.35299173899E+01  0.38321927546E+02 -0.65377568396E+02  0.46839256446E+03  0.46220811064E+03 0.  0.
         13    1    3    3    0    0 -0.13245471990E+03  0.18783084144E+03 -0.11967216304E+03  0.25912565374E+03  0.00000000000E+00 0.  1.
          1    1    3    3  501    0  0.13598463729E+03 -0.14950891390E+03  0.54294594645E+02  0.20926691072E+03  0.00000000000E+00 0.  1.
         21    1    1    2  502  501 -0.35299173899E+01 -0.38321927546E+02  0.37511763014E+02  0.53741630158E+02  0.00000000000E+00 0. -1.
<scales pt_clust_4="550.00000" pt_clust_5="550.00000" pt_clust_6="38.48416"></scales>
<mgrwt>
<rscale>  0 0.30000000E+03</rscale>
<asrwt>  1 0.38484158E+02</asrwt>
<pdfrwt beam="1">  1        1 0.89866980E+00 0.30000000E+03</pdfrwt>
<pdfrwt beam="2">0</pdfrwt>
<totfact> 0.11261917E-04</totfact>
</mgrwt>
<clustering>
<clus scale="   38.484">  1  6  2 -1</clus>
<clus scale="  462.208">  4  5 -1 -1</clus>
<clus scale="  300.000">  1  4  2 -1</clus>
</clustering>
</event>
<event>
 6    1  0.9964252E-012  0.3000000E+03  0.7818608E-02  0.1093470E+00
          1   -1    0    0  502    0  0.00000000000E+00  0.00000000000E+00  0.23265759444E+03  0.23265759444E+03  0.00000000000E+00 0.  1.
         13   -1    0    0    0    0 -0.00000000000E+00 -0.00000000000E+00 -0.27500000000E+03  0.27500000000E+03  0.00000000000E+00 0.  1.
    9000005    2    1    2  501    0 -0.34357792736E+02  0.17064602702E+02 -0.51275092355E+02  0.46826912556E+03  0.46386978805E+03 0.  0.
         13    1    3    3    0    0 -0.86713758598E+02  0.48283672702E+02  0.19271967486E+03  0.21677514170E+03  0.00000000000E+00 0.  1.
          1    1    3    3  501    0  0.52355965861E+02 -0.31219070000E+02 -0.24399476721E+03  0.25149398386E+03  0.00000000000E+00 0.  1.
         21    1    1    2  502  501  0.34357792736E+02 -0.17064602702E+02  0.89326867906E+01  0.39388468876E+02  0.00000000000E+00 0. -1.
<scales pt_clust_4="550.00000" pt_clust_5="550.00000" pt_clust_6="38.36220"></scales>
<mgrwt>
<rscale>  0 0.30000000E+03</rscale>
<asrwt>  1 0.38362203E+02</asrwt>
<pdfrwt beam="1">  1        1 0.84602762E+00 0.30000000E+03</pdfrwt>
<pdfrwt beam="2">0</pdfrwt>
<totfact> 0.43503493E-04</totfact>
</mgrwt>
<clustering>
<clus scale="   38.362">  1  6  2 -1</clus>
<clus scale="  463.870">  4  5 -1 -1</clus>
<clus scale="  300.000">  1  4  2 -1</clus>
</clustering>
</event>
<event>
 6    1  0.9964252E-012  0.3000000E+03  0.7818608E-02  0.1093470E+00
          1   -1    0    0  502    0  0.00000000000E+00  0.00000000000E+00  0.22857165427E+03  0.22857165427E+03  0.00000000000E+00 0.  1.
         13   -1    0    0    0    0 -0.00000000000E+00 -0.00000000000E+00 -0.27500000000E+03  0.27500000000E+03  0.00000000000E+00 0.  1.
    9000005    2    1    2  501    0  0.28965851400E+02 -0.16688161461E+02 -0.15342743142E+02  0.45792266776E+03  0.45644304640E+03 0.  0.
         13    1    3    3    0    0  0.10359987344E+03 -0.11990502099E+03  0.17040543592E+03  0.23269757289E+03  0.00000000000E+00 0.  1.
          3    1    3    3  501    0 -0.74634022036E+02  0.10321685953E+03 -0.18574817906E+03  0.22522509488E+03  0.00000000000E+00 0.  1.
         21    1    1    2  502  501 -0.28965851400E+02  0.16688161461E+02 -0.31085602592E+02  0.45648986504E+02  0.00000000000E+00 0. -1.
<scales pt_clust_4="550.00000" pt_clust_5="550.00000" pt_clust_6="33.42927"></scales>
<mgrwt>
<rscale>  0 0.30000000E+03</rscale>
<asrwt>  1 0.33429275E+02</asrwt>
<pdfrwt beam="1">  1        1 0.83116965E+00 0.30000000E+03</pdfrwt>
<pdfrwt beam="2">0</pdfrwt>
<totfact> 0.58328753E-04</totfact>
</mgrwt>
<clustering>
<clus scale="   33.429">  1  6  2 -1</clus>
<clus scale="  456.443">  4  5 -1 -1</clus>
<clus scale="  300.000">  1  4  2 -1</clus>
</clustering>
</event>
<event>
 6    1  0.9964252E-012  0.3000000E+03  0.7818608E-02  0.1093470E+00
          1   -1    0    0  502    0  0.00000000000E+00  0.00000000000E+00  0.25260195303E+03  0.25260195303E+03  0.00000000000E+00 0.  1.
         13   -1    0    0    0    0 -0.00000000000E+00 -0.00000000000E+00 -0.27500000000E+03  0.27500000000E+03  0.00000000000E+00 0.  1.
    9000005    2    1    2  501    0 -0.20129439508E+01 -0.33547638686E+02 -0.69581443827E+02  0.46967295387E+03  0.46327271695E+03 0.  0.
         13    1    3    3    0    0  0.45373596531E+02  0.32576754931E+02  0.18979216971E+03  0.19784103696E+03  0.00000000000E+00 0.  1.
          1    1    3    3  501    0 -0.47386540482E+02 -0.66124393617E+02 -0.25937361354E+03  0.27183191691E+03  0.00000000000E+00 0.  1.
         21    1    1    2  502  501  0.20129439508E+01  0.33547638686E+02  0.47183396855E+02  0.57928999158E+02  0.00000000000E+00 0.  1.
<scales pt_clust_4="550.00000" pt_clust_5="550.00000" pt_clust_6="33.60798"></scales>
<mgrwt>
<rscale>  0 0.30000000E+03</rscale>
<asrwt>  1 0.33607975E+02</asrwt>
<pdfrwt beam="1">  1        1 0.91855256E+00 0.30000000E+03</pdfrwt>
<pdfrwt beam="2">0</pdfrwt>
<totfact> 0.45313439E-05</totfact>
</mgrwt>
<clustering>
<clus scale="   33.608">  1  6  2 -1</clus>
<clus scale="  463.273">  4  5 -1 -1</clus>
<clus scale="  300.000">  1  4  2 -1</clus>
</clustering>
</event>
<event>
 6    1  0.9964252E-012  0.3000000E+03  0.7818608E-02  0.1093470E+00
          1   -1    0    0  502    0  0.00000000000E+00  0.00000000000E+00  0.24798578728E+03  0.24798578728E+03  0.00000000000E+00 0.  1.
         13   -1    0    0    0    0 -0.00000000000E+00 -0.00000000000E+00 -0.27500000000E+03  0.27500000000E+03  0.00000000000E+00 0.  1.
    9000005    2    1    2  501    0  0.48574955545E+02  0.84905594781E+00 -0.27913736937E+02  0.47439508502E+03  0.47107459365E+03 0.  0.
         13    1    3    3    0    0  0.22513343679E+03 -0.12150811380E+03  0.11090113127E+02  0.25607084311E+03  0.00000000000E+00 0.  1.
          1    1    3    3  501    0 -0.17655848125E+03  0.12235716974E+03 -0.39003850064E+02  0.21832424191E+03  0.00000000000E+00 0.  1.
         21    1    1    2  502  501 -0.48574955545E+02 -0.84905594781E+00  0.89952421616E+00  0.48590702259E+02  0.00000000000E+00 0. -1.
<scales pt_clust_4="550.00000" pt_clust_5="550.00000" pt_clust_6="48.58238"></scales>
<mgrwt>
<rscale>  0 0.30000000E+03</rscale>
<asrwt>  1 0.48582375E+02</asrwt>
<pdfrwt beam="1">  1        1 0.90176650E+00 0.30000000E+03</pdfrwt>
<pdfrwt beam="2">0</pdfrwt>
<totfact> 0.98559315E-05</totfact>
</mgrwt>
<clustering>
<clus scale="   48.582">  1  6  2 -1</clus>
<clus scale="  471.075">  4  5 -1 -1</clus>
<clus scale="  300.000">  1  4  2 -1</clus>
</clustering>
</event>
<event>
 6    1  0.9964252E-012  0.3000000E+03  0.7818608E-02  0.1093470E+00
          1   -1    0    0  502    0  0.00000000000E+00  0.00000000000E+00  0.23053211295E+03  0.23053211295E+03  0.00000000000E+00 0.  1.
         13   -1    0    0    0    0 -0.00000000000E+00 -0.00000000000E+00 -0.27500000000E+03  0.27500000000E+03  0.00000000000E+00 0.  1.
    9000005    2    1    2  501    0  0.24557111561E+02 -0.21329782772E+02 -0.38584393438E+02  0.47247720623E+03  0.46977435395E+03 0.  0.
         13    1    3    3    0    0  0.24660415373E+03  0.66151592592E+01 -0.30045275911E+02  0.24851576926E+03  0.00000000000E+00 0.  1.
          1    1    3    3  501    0 -0.22204704217E+03 -0.27944942031E+02 -0.85391175275E+01  0.22396143697E+03  0.00000000000E+00 0.  1.
         21    1    1    2  502  501 -0.24557111561E+02  0.21329782772E+02 -0.58834936086E+01  0.33054906722E+02  0.00000000000E+00 0.  1.
<scales pt_clust_4="550.00000" pt_clust_5="550.00000" pt_clust_6="32.52710"></scales>
<mgrwt>
<rscale>  0 0.30000000E+03</rscale>
<asrwt>  1 0.32527103E+02</asrwt>
<pdfrwt beam="1">  1        1 0.83829859E+00 0.30000000E+03</pdfrwt>
<pdfrwt beam="2">0</pdfrwt>
<totfact> 0.51898735E-04</totfact>
</mgrwt>
<clustering>
<clus scale="   32.527">  1  6  2 -1</clus>
<clus scale="  469.774">  4  5 -1 -1</clus>
<clus scale="  300.000">  1  4  2 -1</clus>
</clustering>
</event>
<event>
 6    1  0.9964252E-012  0.3000000E+03  0.7818608E-02  0.1093470E+00
          1   -1    0    0  502    0  0.00000000000E+00  0.00000000000E+00  0.23368689045E+03  0.23368689045E+03  0.00000000000E+00 0.  1.
         13   -1    0    0    0    0 -0.00000000000E+00 -0.00000000000E+00 -0.27500000000E+03  0.27500000000E+03  0.00000000000E+00 0.  1.
    9000005    2    1    2  501    0  0.79137276819E+01 -0.33597371147E+02 -0.59716404618E+02  0.46957050382E+03  0.46447712391E+03 0.  0.
         13    1    3    3    0    0  0.97829055917E+01  0.10559956049E+03  0.17035087844E+03  0.20066488034E+03  0.00000000000E+00 0.  1.
          3    1    3    3  501    0 -0.18691779098E+01 -0.13919693163E+03 -0.23006728306E+03  0.26890562347E+03  0.00000000000E+00 0.  1.
         21    1    1    2  502  501 -0.79137276819E+01  0.33597371147E+02  0.18403295064E+02  0.39116386630E+02  0.00000000000E+00 0.  1.
<scales pt_clust_4="550.00000" pt_clust_5="550.00000" pt_clust_6="34.51681"></scales>
<mgrwt>
<rscale>  0 0.30000000E+03</rscale>
<asrwt>  1 0.34516814E+02</asrwt>
<pdfrwt beam="1">  1        1 0.84977051E+00 0.30000000E+03</pdfrwt>
<pdfrwt beam="2">0</pdfrwt>
<totfact> 0.41007340E-04</totfact>
</mgrwt>
<clustering>
<clus scale="   34.517">  1  6  2 -1</clus>
<clus scale="  464.477">  4  5 -1 -1</clus>
<clus scale="  300.000">  1  4  2 -1</clus>
</clustering>
</event>
<event>
 6    1  0.9964252E-012  0.3000000E+03  0.7818608E-02  0.1093470E+00
          1   -1    0    0  502    0  0.00000000000E+00  0.00000000000E+00  0.23996939187E+03  0.23996939187E+03  0.00000000000E+00 0.  1.
         13   -1    0    0    0    0 -0.00000000000E+00 -0.00000000000E+00 -0.27500000000E+03  0.27500000000E+03  0.00000000000E+00 0.  1.
    9000005    2    1    2  501    0  0.22816291916E+02 -0.20835013040E+02 -0.69966742772E+02  0.46833019753E+03  0.46204236589E+03 0.  0.
         13    1    3    3    0    0 -0.20558450910E+03  0.61382088857E+02  0.39145663668E+01  0.21458815216E+03  0.00000000000E+00 0.  1.
          3    1    3    3  501    0  0.22840080102E+03 -0.82217101897E+02 -0.73881309139E+02  0.25374204537E+03  0.00000000000E+00 0.  1.
         21    1    1    2  502  501 -0.22816291916E+02  0.20835013040E+02  0.34936134646E+02  0.46639194345E+02  0.00000000000E+00 0. -1.
<scales pt_clust_4="550.00000" pt_clust_5="550.00000" pt_clust_6="30.89791"></scales>
<mgrwt>
<rscale>  0 0.30000000E+03</rscale>
<asrwt>  1 0.30897912E+02</asrwt>
<pdfrwt beam="1">  1        1 0.87261597E+00 0.30000000E+03</pdfrwt>
<pdfrwt beam="2">0</pdfrwt>
<totfact> 0.24381808E-04</totfact>
</mgrwt>
<clustering>
<clus scale="   30.898">  1  6  2 -1</clus>
<clus scale="  462.042">  4  5 -1 -1</clus>
<clus scale="  300.000">  1  4  2 -1</clus>
</clustering>
</event>
<event>
 6    1  0.9964252E-012  0.3000000E+03  0.7818608E-02  0.1093470E+00
          1   -1    0    0  502    0  0.00000000000E+00  0.00000000000E+00  0.24166097786E+03  0.24166097786E+03  0.00000000000E+00 0.  1.
         13   -1    0    0    0    0 -0.00000000000E+00 -0.00000000000E+00 -0.27500000000E+03  0.27500000000E+03  0.00000000000E+00 0.  1.
    9000005    2    1    2  501    0  0.11519406311E+02 -0.30998660339E+02 -0.56512928641E+02  0.47627974946E+03  0.47175743235E+03 0.  0.
         13    1    3    3    0    0  0.16938011505E+03  0.12688566653E+03 -0.12113409051E+03  0.24385049442E+03  0.00000000000E+00 0.  1.
          1    1    3    3  501    0 -0.15786070874E+03 -0.15788432687E+03  0.64621161871E+02  0.23242925504E+03  0.00000000000E+00 0.  1.
         21    1    1    2  502  501 -0.11519406311E+02  0.30998660339E+02  0.23173906499E+02  0.40381228398E+02  0.00000000000E+00 0. -1.
<scales pt_clust_4="550.00000" pt_clust_5="550.00000" pt_clust_6="33.06983"></scales>
<mgrwt>
<rscale>  0 0.30000000E+03</rscale>
<asrwt>  1 0.33069830E+02</asrwt>
<pdfrwt beam="1">  1        1 0.87876719E+00 0.30000000E+03</pdfrwt>
<pdfrwt beam="2">0</pdfrwt>
<totfact> 0.20644733E-04</totfact>
</mgrwt>
<clustering>
<clus scale="   33.070">  1  6  2 -1</clus>
<clus scale="  471.757">  4  5 -1 -1</clus>
<clus scale="  300.000">  1  4  2 -1</clus>
</clustering>
</event>
<event>
 6    1  0.9964252E-012  0.3000000E+03  0.7818608E-02  0.1093470E+00
          1   -1    0    0  502    0  0.00000000000E+00  0.00000000000E+00  0.25621172432E+03  0.25621172432E+03  0.00000000000E+00 0.  1.
         13   -1    0    0    0    0 -0.00000000000E+00 -0.00000000000E+00 -0.27500000000E+03  0.27500000000E+03  0.00000000000E+00 0.  1.
    9000005    2    1    2  501    0  0.17602494875E+02  0.28341053354E+02 -0.38981134071E+02  0.49221410053E+03  0.48953256155E+03 0.  0.
         13    1    3    3    0    0 -0.12277335770E+03 -0.11706561761E+03  0.14176185062E+03  0.22107482551E+03  0.00000000000E+00 0.  1.
          1    1    3    3  501    0  0.14037585257E+03  0.14540667096E+03 -0.18074298469E+03  0.27113927502E+03  0.00000000000E+00 0.  1.
         21    1    1    2  502  501 -0.17602494875E+02 -0.28341053354E+02  0.20192858394E+02  0.38997623789E+02  0.00000000000E+00 0.  1.
<scales pt_clust_4="550.00000" pt_clust_5="550.00000" pt_clust_6="33.36260"></scales>
<mgrwt>
<rscale>  0 0.30000000E+03</rscale>
<asrwt>  1 0.33362601E+02</asrwt>
<pdfrwt beam="1">  1        1 0.93167900E+00 0.30000000E+03</pdfrwt>
<pdfrwt beam="2">0</pdfrwt>
<totfact> 0.25049864E-05</totfact>
</mgrwt>
<clustering>
<clus scale="   33.363">  1  6  2 -1</clus>
<clus scale="  489.533">  4  5 -1 -1</clus>
<clus scale="  300.000">  1  4  2 -1</clus>
</clustering>
</event>
<event>
 6    1  0.9964252E-012  0.3000000E+03  0.7818608E-02  0.1093470E+00
          1   -1    0    0  502    0  0.00000000000E+00  0.00000000000E+00  0.24135712308E+03  0.24135712308E+03  0.00000000000E+00 0.  1.
         13   -1    0    0    0    0 -0.00000000000E+00 -0.00000000000E+00 -0.27500000000E+03  0.27500000000E+03  0.00000000000E+00 0.  1.
    9000005    2    1    2  501    0  0.16406024280E+02 -0.28664555865E+02 -0.13924247451E+02  0.47789105045E+03  0.47654502100E+03 0.  0.
         13    1    3    3    0    0  0.24645028950E+03 -0.13993867115E+02  0.16655018518E+01  0.24685288617E+03  0.00000000000E+00 0.  1.
          3    1    3    3  501    0 -0.23004426522E+03 -0.14670688750E+02 -0.15589749303E+02  0.23103816428E+03  0.00000000000E+00 0.  1.
         21    1    1    2  502  501 -0.16406024280E+02  0.28664555865E+02 -0.19718629467E+02  0.38466072631E+02  0.00000000000E+00 0. -1.
<scales pt_clust_4="550.00000" pt_clust_5="550.00000" pt_clust_6="33.02750"></scales>
<mgrwt>
<rscale>  0 0.30000000E+03</rscale>
<asrwt>  1 0.33027496E+02</asrwt>
<pdfrwt beam="1">  1        1 0.87766227E+00 0.30000000E+03</pdfrwt>
<pdfrwt beam="2">0</pdfrwt>
<totfact> 0.21266655E-04</totfact>
</mgrwt>
<clustering>
<clus scale="   33.027">  1  6  2 -1</clus>
<clus scale="  476.545">  4  5 -1 -1</clus>
<clus scale="  300.000">  1  4  2 -1</clus>
</clustering>
</event>
<event>
 6    1  0.9964252E-012  0.3000000E+03  0.7818608E-02  0.1093470E+00
          1   -1    0    0  502    0  0.00000000000E+00  0.00000000000E+00  0.25957052471E+03  0.25957052471E+03  0.00000000000E+00 0.  1.
         13   -1    0    0    0    0 -0.00000000000E+00 -0.00000000000E+00 -0.27500000000E+03  0.27500000000E+03  0.00000000000E+00 0.  1.
    9000005    2    1    2  501    0 -0.28975471032E+01 -0.33328332587E+02 -0.73153965707E+02  0.46785253369E+03  0.46088536215E+03 0.  0.
         13    1    3    3    0    0 -0.10189239576E+03 -0.51417981640E+02 -0.24411193737E+03  0.26947450179E+03  0.00000000000E+00 0.  1.
          1    1    3    3  501    0  0.98994848660E+02  0.18089649053E+02  0.17095797166E+03  0.19837803190E+03  0.00000000000E+00 0.  1.
         21    1    1    2  502  501  0.28975471032E+01  0.33328332587E+02  0.57724490420E+02  0.66717991025E+02  0.00000000000E+00 0.  1.
<scales pt_clust_4="550.00000" pt_clust_5="550.00000" pt_clust_6="33.45405"></scales>
<mgrwt>
<rscale>  0 0.30000000E+03</rscale>
<asrwt>  1 0.33454051E+02</asrwt>
<pdfrwt beam="1">  1        1 0.94389282E+00 0.30000000E+03</pdfrwt>
<pdfrwt beam="2">0</pdfrwt>
<totfact> 0.16461172E-05</totfact>
</mgrwt>
<clustering>
<clus scale="   33.454">  1  6  2 -1</clus>
<clus scale="  460.885">  4  5 -1 -1</clus>
<clus scale="  300.000">  1  4  2 -1</clus>
</clustering>
</event>
<event>
 6    1  0.9964252E-012  0.3000000E+03  0.7818608E-02  0.1093470E+00
          1   -1    0    0  502    0  0.00000000000E+00  0.00000000000E+00  0.24069935142E+03  0.24069935142E+03  0.00000000000E+00 0.  1.
         13   -1    0    0    0    0 -0.00000000000E+00 -0.00000000000E+00 -0.27500000000E+03  0.27500000000E+03  0.00000000000E+00 0.  1.
    9000005    2    1    2  501    0 -0.32458903845E+02  0.29433238833E+02 -0.22487191245E+02  0.47031814648E+03  0.46773239054E+03 0.  0.
         13    1    3    3    0    0  0.17063309261E+03 -0.75788671368E+02  0.98994770345E+02  0.21132803779E+03  0.00000000000E+00 0.  1.
          1    1    3    3  501    0 -0.20309199645E+03  0.10522191020E+03 -0.12148196159E+03  0.25899010869E+03  0.00000000000E+00 0.  1.
         21    1    1    2  502  501  0.32458903845E+02 -0.29433238833E+02 -0.11813457336E+02  0.45381204934E+02  0.00000000000E+00 0. -1.
<scales pt_clust_4="550.00000" pt_clust_5="550.00000" pt_clust_6="43.81664"></scales>
<mgrwt>
<rscale>  0 0.30000000E+03</rscale>
<asrwt>  1 0.43816640E+02</asrwt>
<pdfrwt beam="1">  1        1 0.87527037E+00 0.30000000E+03</pdfrwt>
<pdfrwt beam="2">0</pdfrwt>
<totfact> 0.21443598E-04</totfact>
</mgrwt>
<clustering>
<clus scale="   43.817">  1  6  2 -1</clus>
<clus scale="  467.732">  4  5 -1 -1</clus>
<clus scale="  300.000">  1  4  2 -1</clus>
</clustering>
</event>
<event>
 6    1  0.9964252E-012  0.3000000E+03  0.7818608E-02  0.1093470E+00
          1   -1    0    0  502    0  0.00000000000E+00  0.00000000000E+00  0.25228038987E+03  0.25228038987E+03  0.00000000000E+00 0.  1.
         13   -1    0    0    0    0 -0.00000000000E+00 -0.00000000000E+00 -0.27500000000E+03  0.27500000000E+03  0.00000000000E+00 0.  1.
    9000005    2    1    2  501    0 -0.29998850236E+02 -0.84825432444E+01  0.46248917922E+01  0.48581225341E+03  0.48478889363E+03 0.  0.
         13    1    3    3    0    0 -0.89986112032E+02 -0.23287030379E+03  0.32976683869E+02  0.25182045276E+03  0.00000000000E+00 0.  1.
          3    1    3    3  501    0  0.59987261796E+02  0.22438776055E+03 -0.28351792077E+02  0.23399180066E+03  0.00000000000E+00 0.  1.
         21    1    1    2  502  501  0.29998850236E+02  0.84825432444E+01 -0.27344501925E+02  0.41468136453E+02  0.00000000000E+00 0. -1.
<scales pt_clust_4="550.00000" pt_clust_5="550.00000" pt_clust_6="31.17508"></scales>
<mgrwt>
<rscale>  0 0.30000000E+03</rscale>
<asrwt>  1 0.31175079E+02</asrwt>
<pdfrwt beam="1">  1        1 0.91738324E+00 0.30000000E+03</pdfrwt>
<pdfrwt beam="2">0</pdfrwt>
<totfact> 0.48813412E-05</totfact>
</mgrwt>
<clustering>
<clus scale="   31.175">  1  6  2 -1</clus>
<clus scale="  484.789">  4  5 -1 -1</clus>
<clus scale="  300.000">  1  4  2 -1</clus>
</clustering>
</event>
<event>
 6    1  0.9964252E-012  0.3000000E+03  0.7818608E-02  0.1093470E+00
          1   -1    0    0  502    0  0.00000000000E+00  0.00000000000E+00  0.22139686062E+03  0.22139686062E+03  0.00000000000E+00 0.  1.
         13   -1    0    0    0    0 -0.00000000000E+00 -0.00000000000E+00 -0.27500000000E+03  0.27500000000E+03  0.00000000000E+00 0.  1.
    9000005    2    1    2  501    0  0.28056174375E+02  0.12276681327E+02 -0.64513691092E+02  0.46388677044E+03  0.45835690638E+03 0.  0.
         13    1    3    3    0    0  0.23774000569E+02  0.16364369274E+03 -0.20082473694E+03  0.26014426045E+03  0.00000000000E+00 0.  1.
          1    1    3    3  501    0  0.42821738055E+01 -0.15136701141E+03  0.13631104585E+03  0.20374250999E+03  0.00000000000E+00 0.  1.
         21    1    1    2  502  501 -0.28056174375E+02 -0.12276681327E+02  0.10910551712E+02  0.32510090182E+02  0.00000000000E+00 0.  1.
<scales pt_clust_4="550.00000" pt_clust_5="550.00000" pt_clust_6="30.62460"></scales>
<mgrwt>
<rscale>  0 0.30000000E+03</rscale>
<asrwt>  1 0.30624595E+02</asrwt>
<pdfrwt beam="1">  1        1 0.80507949E+00 0.30000000E+03</pdfrwt>
<pdfrwt beam="2">0</pdfrwt>
<totfact> 0.97600341E-04</totfact>
</mgrwt>
<clustering>
<clus scale="   30.625">  1  6  2 -1</clus>
<clus scale="  458.357">  4  5 -1 -1</clus>
<clus scale="  300.000">  1  4  2 -1</clus>
</clustering>
</event>
<event>
 6    1  0.9964252E-012  0.3000000E+03  0.7818608E-02  0.1093470E+00
          1   -1    0    0  502    0  0.00000000000E+00  0.00000000000E+00  0.22595294015E+03  0.22595294015E+03  0.00000000000E+00 0.  1.
         13   -1    0    0    0    0 -0.00000000000E+00 -0.00000000000E+00 -0.27500000000E+03  0.27500000000E+03  0.00000000000E+00 0.  1.
    9000005    2    1    2  501    0 -0.29071379421E+02  0.15167152056E+02 -0.44396020553E+02  0.46783467073E+03  0.46456763220E+03 0.  0.
         13    1    3    3    0    0  0.29651884243E+02 -0.14771179295E+03  0.14648045560E+03  0.21012979772E+03  0.00000000000E+00 0.  1.
          1    1    3    3  501    0 -0.58723263664E+02  0.16287894501E+03 -0.19087647615E+03  0.25770487301E+03  0.00000000000E+00 0.  1.
         21    1    1    2  502  501  0.29071379421E+02 -0.15167152056E+02 -0.46510392988E+01  0.33118269422E+02  0.00000000000E+00 0.  1.
<scales pt_clust_4="550.00000" pt_clust_5="550.00000" pt_clust_6="32.79007"></scales>
<mgrwt>
<rscale>  0 0.30000000E+03</rscale>
<asrwt>  1 0.32790070E+02</asrwt>
<pdfrwt beam="1">  1        1 0.82164706E+00 0.30000000E+03</pdfrwt>
<pdfrwt beam="2">0</pdfrwt>
<totfact> 0.70831961E-04</totfact>
</mgrwt>
<clustering>
<clus scale="   32.790">  1  6  2 -1</clus>
<clus scale="  464.568">  4  5 -1 -1</clus>
<clus scale="  300.000">  1  4  2 -1</clus>
</clustering>
</event>
<event>
 6    1  0.9964252E-012  0.3000000E+03  0.7818608E-02  0.1093470E+00
          1   -1    0    0  502    0  0.00000000000E+00  0.00000000000E+00  0.22603355291E+03  0.22603355291E+03  0.00000000000E+00 0.  1.
         13   -1    0    0    0    0 -0.00000000000E+00 -0.00000000000E+00 -0.27500000000E+03  0.27500000000E+03  0.00000000000E+00 0.  1.
    9000005    2    1    2  501    0 -0.21244433691E+02  0.23341417822E+02 -0.68581557908E+02  0.46387308573E+03  0.45768838944E+03 0.  0.
         13    1    3    3    0    0 -0.28799282051E+02  0.79408800674E+02 -0.25522701009E+03  0.26884192930E+03  0.00000000000E+00 0.  1.
          1    1    3    3  501    0  0.75548483600E+01 -0.56067382852E+02  0.18664545219E+03  0.19503115642E+03  0.00000000000E+00 0.  1.
         21    1    1    2  502  501  0.21244433691E+02 -0.23341417822E+02  0.19615110814E+02  0.37160467180E+02  0.00000000000E+00 0.  1.
<scales pt_clust_4="550.00000" pt_clust_5="550.00000" pt_clust_6="31.56181"></scales>
<mgrwt>
<rscale>  0 0.30000000E+03</rscale>
<asrwt>  1 0.31561808E+02</asrwt>
<pdfrwt beam="1">  1        1 0.82194019E+00 0.30000000E+03</pdfrwt>
<pdfrwt beam="2">0</pdfrwt>
<totfact> 0.70923080E-04</totfact>
</mgrwt>
<clustering>
<clus scale="   31.562">  1  6  2 -1</clus>
<clus scale="  457.688">  4  5 -1 -1</clus>
<clus scale="  300.000">  1  4  2 -1</clus>
</clustering>
</event>
<event>
 6    1  0.9964252E-012  0.3000000E+03  0.7818608E-02  0.1093470E+00
          1   -1    0    0  502    0  0.00000000000E+00  0.00000000000E+00  0.26768682749E+03  0.26768682749E+03  0.00000000000E+00 0.  1.
         13   -1    0    0    0    0 -0.00000000000E+00 -0.00000000000E+00 -0.27500000000E+03  0.27500000000E+03  0.00000000000E+00 0.  1.
    9000005    2    1    2  501    0 -0.31451722995E+02 -0.49744521908E+01  0.39804666707E+01  0.50890070105E+03  0.50788790433E+03 0.  0.
         13    1    3    3    0    0  0.21856278539E+02  0.29382282806E+02 -0.24716925880E+03  0.24986728067E+03  0.00000000000E+00 0.  1.
          1    1    3    3  501    0 -0.53308001534E+02 -0.34356734997E+02  0.25114972547E+03  0.25903342038E+03  0.00000000000E+00 0.  1.
         21    1    1    2  502  501  0.31451722995E+02  0.49744521908E+01 -0.11293639177E+02  0.33786126440E+02  0.00000000000E+00 0. -1.
<scales pt_clust_4="550.00000" pt_clust_5="550.00000" pt_clust_6="31.84269"></scales>
<mgrwt>
<rscale>  0 0.30000000E+03</rscale>
<asrwt>  1 0.31842693E+02</asrwt>
<pdfrwt beam="1">  1        1 0.97340665E+00 0.30000000E+03</pdfrwt>
<pdfrwt beam="2">0</pdfrwt>
<totfact> 0.44630646E-06</totfact>
</mgrwt>
<clustering>
<clus scale="   31.843">  1  6  2 -1</clus>
<clus scale="  507.888">  4  5 -1 -1</clus>
<clus scale="  300.000">  1  4  2 -1</clus>
</clustering>
</event>
<event>
 6    1  0.9964252E-012  0.3000000E+03  0.7818608E-02  0.1093470E+00
          1   -1    0    0  502    0  0.00000000000E+00  0.00000000000E+00  0.22949442268E+03  0.22949442268E+03  0.00000000000E+00 0.  1.
         13   -1    0    0    0    0 -0.00000000000E+00 -0.00000000000E+00 -0.27500000000E+03  0.27500000000E+03  0.00000000000E+00 0.  1.
    9000005    2    1    2  501    0  0.31216845989E+02  0.29626169207E+01 -0.53451786276E+02  0.47214614901E+03  0.46806156005E+03 0.  0.
         13    1    3    3    0    0  0.16884653866E+03 -0.75202221431E+02 -0.18856082621E+03  0.26404490699E+03  0.00000000000E+00 0.  1.
          1    1    3    3  501    0 -0.13762969267E+03  0.78164838352E+02  0.13510903993E+03  0.20810124202E+03  0.00000000000E+00 0.  1.
         21    1    1    2  502  501 -0.31216845989E+02 -0.29626169207E+01  0.79462089531E+01  0.32348273667E+02  0.00000000000E+00 0.  1.
<scales pt_clust_4="550.00000" pt_clust_5="550.00000" pt_clust_6="31.35711"></scales>
<mgrwt>
<rscale>  0 0.30000000E+03</rscale>
<asrwt>  1 0.31357114E+02</asrwt>
<pdfrwt beam="1">  1        1 0.83452517E+00 0.30000000E+03</pdfrwt>
<pdfrwt beam="2">0</pdfrwt>
<totfact> 0.55677993E-04</totfact>
</mgrwt>
<clustering>
<clus scale="   31.357">  1  6  2 -1</clus>
<clus scale="  468.062">  4  5 -1 -1</clus>
<clus scale="  300.000">  1  4  2 -1</clus>
</clustering>
</event>
<event>
 6    1  0.9964252E-012  0.3000000E+03  0.7818608E-02  0.1093470E+00
          1   -1    0    0  502    0  0.00000000000E+00  0.00000000000E+00  0.24075632072E+03  0.24075632072E+03  0.00000000000E+00 0.  1.
         13   -1    0    0    0    0 -0.00000000000E+00 -0.00000000000E+00 -0.27500000000E+03  0.27500000000E+03  0.00000000000E+00 0.  1.
    9000005    2    1    2  501    0  0.44764767211E+02  0.18053241115E+02 -0.36196129920E+02  0.46744880617E+03  0.46353901958E+03 0.  0.
         13    1    3    3    0    0 -0.16027614822E+03  0.15107545059E+03  0.78275769951E+00  0.22025632379E+03  0.00000000000E+00 0.  1.
          1    1    3    3  501    0  0.20504091544E+03 -0.13302220948E+03 -0.36978887620E+02  0.24719248238E+03  0.00000000000E+00 0.  1.
         21    1    1    2  502  501 -0.44764767211E+02 -0.18053241115E+02  0.19524506425E+01  0.48307514547E+02  0.00000000000E+00 0.  1.
<scales pt_clust_4="550.00000" pt_clust_5="550.00000" pt_clust_6="48.26804"></scales>
<mgrwt>
<rscale>  0 0.30000000E+03</rscale>
<asrwt>  1 0.48268042E+02</asrwt>
<pdfrwt beam="1">  1        1 0.87547753E+00 0.30000000E+03</pdfrwt>
<pdfrwt beam="2">0</pdfrwt>
<totfact> 0.20970566E-04</totfact>
</mgrwt>
<clustering>
<clus scale="   48.268">  1  6  2 -1</clus>
<clus scale="  463.539">  4  5 -1 -1</clus>
<clus scale="  300.000">  1  4  2 -1</clus>
</clustering>
</event>
<event>
 6    1  0.9964252E-012  0.3000000E+03  0.7818608E-02  0.1093470E+00
          1   -1    0    0  502    0  0.00000000000E+00  0.00000000000E+00  0.25693873074E+03  0.25693873074E+03  0.00000000000E+00 0.  1.
         13   -1    0    0    0    0 -0.00000000000E+00 -0.00000000000E+00 -0.27500000000E+03  0.27500000000E+03  0.00000000000E+00 0.  1.
    9000005    2    1    2  501    0  0.31292596756E+02  0.13044106783E+02 -0.53919674574E+02  0.48259097937E+03  0.47836946676E+03 0.  0.
         13    1    3    3    0    0 -0.82338977697E+02  0.12281093126E+03 -0.21240986466E+03  0.25880529881E+03  0.00000000000E+00 0.  1.
          1    1    3    3  501    0  0.11363157445E+03 -0.10976682448E+03  0.15849019009E+03  0.22378568056E+03  0.00000000000E+00 0.  1.
         21    1    1    2  502  501 -0.31292596756E+02 -0.13044106783E+02  0.35858405312E+02  0.49347751367E+02  0.00000000000E+00 0.  1.
<scales pt_clust_4="550.00000" pt_clust_5="550.00000" pt_clust_6="33.90244"></scales>
<mgrwt>
<rscale>  0 0.30000000E+03</rscale>
<asrwt>  1 0.33902438E+02</asrwt>
<pdfrwt beam="1">  1        1 0.93432266E+00 0.30000000E+03</pdfrwt>
<pdfrwt beam="2">0</pdfrwt>
<totfact> 0.23094320E-05</totfact>
</mgrwt>
<clustering>
<clus scale="   33.902">  1  6  2 -1</clus>
<clus scale="  478.369">  4  5 -1 -1</clus>
<clus scale="  300.000">  1  4  2 -1</clus>
</clustering>
</event>
<event>
 6    1  0.9964252E-012  0.3000000E+03  0.7818608E-02  0.1093470E+00
          1   -1    0    0  502    0  0.00000000000E+00  0.00000000000E+00  0.24025909140E+03  0.24025909140E+03  0.00000000000E+00 0.  1.
         13   -1    0    0    0    0 -0.00000000000E+00 -0.00000000000E+00 -0.27500000000E+03  0.27500000000E+03  0.00000000000E+00 0.  1.
    9000005    2    1    2  501    0 -0.30899984755E+02 -0.16731972638E+02 -0.32695930365E+02  0.48006037122E+03  0.47765486304E+03 0.  0.
         13    1    3    3    0    0  0.61644753701E+02  0.21796349107E+03 -0.94694983975E+01  0.22671089629E+03  0.00000000000E+00 0.  1.
          3    1    3    3  501    0 -0.92544738456E+02 -0.23469546371E+03 -0.23226431967E+02  0.25334947492E+03  0.00000000000E+00 0.  1.
         21    1    1    2  502  501  0.30899984755E+02  0.16731972638E+02 -0.20449782400E+01  0.35198720179E+02  0.00000000000E+00 0.  1.
<scales pt_clust_4="550.00000" pt_clust_5="550.00000" pt_clust_6="35.13927"></scales>
<mgrwt>
<rscale>  0 0.30000000E+03</rscale>
<asrwt>  1 0.35139265E+02</asrwt>
<pdfrwt beam="1">  1        1 0.87366942E+00 0.30000000E+03</pdfrwt>
<pdfrwt beam="2">0</pdfrwt>
<totfact> 0.23208230E-04</totfact>
</mgrwt>
<clustering>
<clus scale="   35.139">  1  6  2 -1</clus>
<clus scale="  477.655">  4  5 -1 -1</clus>
<clus scale="  300.000">  1  4  2 -1</clus>
</clustering>
</event>
<event>
 6    1  0.9964252E-012  0.3000000E+03  0.7818608E-02  0.1093470E+00
          1   -1    0    0  502    0  0.00000000000E+00  0.00000000000E+00  0.21881131740E+03  0.21881131740E+03  0.00000000000E+00 0.  1.
         13   -1    0    0    0    0 -0.00000000000E+00 -0.00000000000E+00 -0.27500000000E+03  0.27500000000E+03  0.00000000000E+00 0.  1.
    9000005    2    1    2  501    0  0.30940459733E+02  0.21742706822E+01 -0.64472410149E+02  0.46170742910E+03  0.45613048453E+03 0.  0.
         13    1    3    3    0    0  0.89965299378E+02  0.17828195695E+03  0.91035434524E+02  0.21946676651E+03  0.00000000000E+00 0.  1.
          1    1    3    3  501    0 -0.59024839645E+02 -0.17610768627E+03 -0.15550784467E+03  0.24224066259E+03  0.00000000000E+00 0.  1.
         21    1    1    2  502  501 -0.30940459733E+02 -0.21742706822E+01  0.82837275468E+01  0.32103888293E+02  0.00000000000E+00 0. -1.
<scales pt_clust_4="550.00000" pt_clust_5="550.00000" pt_clust_6="31.01676"></scales>
<mgrwt>
<rscale>  0 0.30000000E+03</rscale>
<asrwt>  1 0.31016762E+02</asrwt>
<pdfrwt beam="1">  1        1 0.79567752E+00 0.30000000E+03</pdfrwt>
<pdfrwt beam="2">0</pdfrwt>
<totfact> 0.11408518E-03</totfact>
</mgrwt>
<clustering>
<clus scale="   31.017">  1  6  2 -1</clus>
<clus scale="  456.130">  4  5 -1 -1</clus>
<clus scale="  300.000">  1  4  2 -1</clus>
</clustering>
</event>
<event>
 6    1  0.9964252E-012  0.3000000E+03  0.7818608E-02  0.1093470E+00
          1   -1    0    0  502    0  0.00000000000E+00  0.00000000000E+00  0.22027755278E+03  0.22027755278E+03  0.00000000000E+00 0.  1.
         13   -1    0    0    0    0 -0.00000000000E+00 -0.00000000000E+00 -0.27500000000E+03  0.27500000000E+03  0.00000000000E+00 0.  1.
    9000005    2    1    2  501    0 -0.30144044841E+02 -0.11977970068E+02 -0.62471370405E+02  0.46192817473E+03  0.45653349415E+03 0.  0.
         13    1    3    3    0    0 -0.16924237728E+03 -0.57785317223E+02 -0.19487840393E+03  0.26449899333E+03  0.00000000000E+00 0.  1.
          1    1    3    3  501    0  0.13909833244E+03  0.45807347155E+02  0.13240703352E+03  0.19742918140E+03  0.00000000000E+00 0.  1.
         21    1    1    2  502  501  0.30144044841E+02  0.11977970068E+02  0.77489231897E+01  0.33349378059E+02  0.00000000000E+00 0.  1.
<scales pt_clust_4="550.00000" pt_clust_5="550.00000" pt_clust_6="32.43663"></scales>
<mgrwt>
<rscale>  0 0.30000000E+03</rscale>
<asrwt>  1 0.32436634E+02</asrwt>
<pdfrwt beam="1">  1        1 0.80100928E+00 0.30000000E+03</pdfrwt>
<pdfrwt beam="2">0</pdfrwt>
<totfact> 0.10344423E-03</totfact>
</mgrwt>
<clustering>
<clus scale="   32.437">  1  6  2 -1</clus>
<clus scale="  456.533">  4  5 -1 -1</clus>
<clus scale="  300.000">  1  4  2 -1</clus>
</clustering>
</event>
<event>
 6    1  0.9964252E-012  0.3000000E+03  0.7818608E-02  0.1093470E+00
          1   -1    0    0  502    0  0.00000000000E+00  0.00000000000E+00  0.22581056534E+03  0.22581056534E+03  0.00000000000E+00 0.  1.
         13   -1    0    0    0    0 -0.00000000000E+00 -0.00000000000E+00 -0.27500000000E+03  0.27500000000E+03  0.00000000000E+00 0.  1.
    9000005    2    1    2  501    0 -0.32536859040E+02  0.16735531094E+02 -0.61503186045E+02  0.46220546632E+03  0.45663171813E+03 0.  0.
         13    1    3    3    0    0 -0.65750588562E+02 -0.51046003018E+02 -0.24768847364E+03  0.26130138594E+03  0.00000000000E+00 0.  1.
          1    1    3    3  501    0  0.33213729522E+02  0.67781534112E+02  0.18618528759E+03  0.20090408038E+03  0.00000000000E+00 0.  1.
         21    1    1    2  502  501  0.32536859040E+02 -0.16735531094E+02  0.12313751381E+02  0.38605099019E+02  0.00000000000E+00 0. -1.
<scales pt_clust_4="550.00000" pt_clust_5="550.00000" pt_clust_6="36.58859"></scales>
<mgrwt>
<rscale>  0 0.30000000E+03</rscale>
<asrwt>  1 0.36588594E+02</asrwt>
<pdfrwt beam="1">  1        1 0.82112933E+00 0.30000000E+03</pdfrwt>
<pdfrwt beam="2">0</pdfrwt>
<totfact> 0.70124326E-04</totfact>
</mgrwt>
<clustering>
<clus scale="   36.589">  1  6  2 -1</clus>
<clus scale="  456.632">  4  5 -1 -1</clus>
<clus scale="  300.000">  1  4  2 -1</clus>
</clustering>
</event>
<event>
 6    1  0.9964252E-012  0.3000000E+03  0.7818608E-02  0.1093470E+00
          1   -1    0    0  502    0  0.00000000000E+00  0.00000000000E+00  0.23566180127E+03  0.23566180127E+03  0.00000000000E+00 0.  1.
         13   -1    0    0    0    0 -0.00000000000E+00 -0.00000000000E+00 -0.27500000000E+03  0.27500000000E+03  0.00000000000E+00 0.  1.
    9000005    2    1    2  501    0  0.22962720236E+02  0.37062458733E+02 -0.37855472278E+02  0.46703714258E+03  0.46345414380E+03 0.  0.
         13    1    3    3    0    0  0.19777407400E+03  0.15519318155E+03  0.63389576171E+01  0.25147502924E+03  0.00000000000E+00 0.  1.
          3    1    3    3  501    0 -0.17481135376E+03 -0.11813072281E+03 -0.44194429895E+02  0.21556211335E+03  0.00000000000E+00 0.  1.
         21    1    1    2  502  501 -0.22962720236E+02 -0.37062458733E+02 -0.14827264501E+01  0.43624658688E+02  0.00000000000E+00 0. -1.
<scales pt_clust_4="550.00000" pt_clust_5="550.00000" pt_clust_6="43.59945"></scales>
<mgrwt>
<rscale>  0 0.30000000E+03</rscale>
<asrwt>  1 0.43599454E+02</asrwt>
<pdfrwt beam="1">  1        1 0.85695200E+00 0.30000000E+03</pdfrwt>
<pdfrwt beam="2">0</pdfrwt>
<totfact> 0.33442720E-04</totfact>
</mgrwt>
<clustering>
<clus scale="   43.599">  1  6  2 -1</clus>
<clus scale="  463.454">  4  5 -1 -1</clus>
<clus scale="  300.000">  1  4  2 -1</clus>
</clustering>
</event>
<event>
 6    1  0.9964252E-012  0.3000000E+03  0.7818608E-02  0.1093470E+00
          1   -1    0    0  502    0  0.00000000000E+00  0.00000000000E+00  0.25371982047E+03  0.25371982047E+03  0.00000000000E+00 0.  1.
         13   -1    0    0    0    0 -0.00000000000E+00 -0.00000000000E+00 -0.27500000000E+03  0.27500000000E+03  0.00000000000E+00 0.  1.
    9000005    2    1    2  501    0  0.23622923828E+02 -0.25523790852E+02 -0.40105015332E+02  0.48917388677E+03  0.48628507360E+03 0.  0.
         13    1    3    3    0    0 -0.17292982855E+02 -0.24412632616E+03 -0.90855241185E+02  0.26105820277E+03  0.00000000000E+00 0.  1.
          1    1    3    3  501    0  0.40915906683E+02  0.21860253531E+03  0.50750225853E+02  0.22811568400E+03  0.00000000000E+00 0.  1.
         21    1    1    2  502  501 -0.23622923828E+02  0.25523790852E+02  0.18824835807E+02  0.39545933708E+02  0.00000000000E+00 0. -1.
<scales pt_clust_4="550.00000" pt_clust_5="550.00000" pt_clust_6="34.77796"></scales>
<mgrwt>
<rscale>  0 0.30000000E+03</rscale>
<asrwt>  1 0.34777959E+02</asrwt>
<pdfrwt beam="1">  1        1 0.92261753E+00 0.30000000E+03</pdfrwt>
<pdfrwt beam="2">0</pdfrwt>
<totfact> 0.36799530E-05</totfact>
</mgrwt>
<clustering>
<clus scale="   34.778">  1  6  2 -1</clus>
<clus scale="  486.285">  4  5 -1 -1</clus>
<clus scale="  300.000">  1  4  2 -1</clus>
</clustering>
</event>
<event>
 6    1  0.9964252E-012  0.3000000E+03  0.7818608E-02  0.1093470E+00
          1   -1    0    0  502    0  0.00000000000E+00  0.00000000000E+00  0.23812105552E+03  0.23812105552E+03  0.00000000000E+00 0.  1.
         13   -1    0    0    0    0 -0.00000000000E+00 -0.00000000000E+00 -0.27500000000E+03  0.27500000000E+03  0.00000000000E+00 0.  1.
    9000005    2    1    2  501    0 -0.15503288748E+02 -0.27093436947E+02 -0.49217847227E+02  0.47955537649E+03  0.47600058440E+03 0.  0.
         13    1    3    3    0    0 -0.13068553451E+01 -0.20376210224E+03  0.11835191970E+03  0.23564354241E+03  0.00000000000E+00 0.  1.
          3    1    3    3  501    0 -0.14196433402E+02  0.17666866530E+03 -0.16756976693E+03  0.24391183408E+03  0.00000000000E+00 0.  1.
         21    1    1    2  502  501  0.15503288748E+02  0.27093436947E+02  0.12338902746E+02  0.33565679028E+02  0.00000000000E+00 0. -1.
<scales pt_clust_4="550.00000" pt_clust_5="550.00000" pt_clust_6="31.21548"></scales>
<mgrwt>
<rscale>  0 0.30000000E+03</rscale>
<asrwt>  1 0.31215482E+02</asrwt>
<pdfrwt beam="1">  1        1 0.86589475E+00 0.30000000E+03</pdfrwt>
<pdfrwt beam="2">0</pdfrwt>
<totfact> 0.28557000E-04</totfact>
</mgrwt>
<clustering>
<clus scale="   31.215">  1  6  2 -1</clus>
<clus scale="  476.001">  4  5 -1 -1</clus>
<clus scale="  300.000">  1  4  2 -1</clus>
</clustering>
</event>
<event>
 6    1  0.9964252E-012  0.3000000E+03  0.7818608E-02  0.1093470E+00
          1   -1    0    0  502    0  0.00000000000E+00  0.00000000000E+00  0.24453884257E+03  0.24453884257E+03  0.00000000000E+00 0.  1.
         13   -1    0    0    0    0 -0.00000000000E+00 -0.00000000000E+00 -0.27500000000E+03  0.27500000000E+03  0.00000000000E+00 0.  1.
    9000005    2    1    2  501    0 -0.33822492874E+02  0.72453822282E+01 -0.44528450084E+02  0.48219790913E+03  0.47888994989E+03 0.  0.
         13    1    3    3    0    0 -0.11249791754E+03 -0.16615593029E+02  0.19677611927E+03  0.22727230473E+03  0.00000000000E+00 0.  1.
          1    1    3    3  501    0  0.78675424661E+02  0.23860975258E+02 -0.24130456935E+03  0.25492560440E+03  0.00000000000E+00 0.  1.
         21    1    1    2  502  501  0.33822492874E+02 -0.72453822282E+01  0.14067292653E+02  0.37340933444E+02  0.00000000000E+00 0.  1.
<scales pt_clust_4="550.00000" pt_clust_5="550.00000" pt_clust_6="34.58983"></scales>
<mgrwt>
<rscale>  0 0.30000000E+03</rscale>
<asrwt>  1 0.34589834E+02</asrwt>
<pdfrwt beam="1">  1        1 0.88923215E+00 0.30000000E+03</pdfrwt>
<pdfrwt beam="2">0</pdfrwt>
<totfact> 0.14876400E-04</totfact>
</mgrwt>
<clustering>
<clus scale="   34.590">  1  6  2 -1</clus>
<clus scale="  478.890">  4  5 -1 -1</clus>
<clus scale="  300.000">  1  4  2 -1</clus>
</clustering>
</event>
<event>
 6    1  0.9964252E-012  0.3000000E+03  0.7818608E-02  0.1093470E+00
          1   -1    0    0  502    0  0.00000000000E+00  0.00000000000E+00  0.27006621283E+03  0.27006621283E+03  0.00000000000E+00 0.  1.
         13   -1    0    0    0    0 -0.00000000000E+00 -0.00000000000E+00 -0.27500000000E+03  0.27500000000E+03  0.00000000000E+00 0.  1.
    9000005    2    1    2  501    0  0.12166916628E+02 -0.28369164150E+02 -0.62835471505E+02  0.47945029720E+03  0.47431155128E+03 0.  0.
         13    1    3    3    0    0  0.60819997863E+02  0.86154421071E+02 -0.24046544138E+03  0.26257434168E+03  0.00000000000E+00 0.  1.
          3    1    3    3  501    0 -0.48653081235E+02 -0.11452358522E+03  0.17762996988E+03  0.21687595552E+03  0.00000000000E+00 0.  1.
         21    1    1    2  502  501 -0.12166916628E+02  0.28369164150E+02  0.57901684335E+02  0.65615915627E+02  0.00000000000E+00 0.  1.
<scales pt_clust_4="550.00000" pt_clust_5="550.00000" pt_clust_6="30.86816"></scales>
<mgrwt>
<rscale>  0 0.30000000E+03</rscale>
<asrwt>  1 0.30868161E+02</asrwt>
<pdfrwt beam="1">  1        1 0.98205896E+00 0.30000000E+03</pdfrwt>
<pdfrwt beam="2">0</pdfrwt>
<totfact> 0.23758845E-06</totfact>
</mgrwt>
<clustering>
<clus scale="   30.868">  1  6  2 -1</clus>
<clus scale="  474.312">  4  5 -1 -1</clus>
<clus scale="  300.000">  1  4  2 -1</clus>
</clustering>
</event>
<event>
 6    1  0.9964252E-012  0.3000000E+03  0.7818608E-02  0.1093470E+00
          1   -1    0    0  502    0  0.00000000000E+00  0.00000000000E+00  0.22681373463E+03  0.22681373463E+03  0.00000000000E+00 0.  1.
         13   -1    0    0    0    0 -0.00000000000E+00 -0.00000000000E+00 -0.27500000000E+03  0.27500000000E+03  0.00000000000E+00 0.  1.
    9000005    2    1    2  501    0  0.33078472058E+02 -0.69458966391E+01 -0.63311943203E+02  0.46478378832E+03  0.45920925180E+03 0.  0.
         13    1    3    3    0    0  0.19805796611E+03  0.13711756857E+03 -0.44341968300E+02  0.24493753429E+03  0.00000000000E+00 0.  1.
          1    1    3    3  501    0 -0.16497949405E+03 -0.14406346520E+03 -0.18969974903E+02  0.21984625403E+03  0.00000000000E+00 0.  1.
         21    1    1    2  502  501 -0.33078472058E+02  0.69458966391E+01  0.15125677830E+02  0.37029946309E+02  0.00000000000E+00 0.  1.
<scales pt_clust_4="550.00000" pt_clust_5="550.00000" pt_clust_6="33.79986"></scales>
<mgrwt>
<rscale>  0 0.30000000E+03</rscale>
<asrwt>  1 0.33799864E+02</asrwt>
<pdfrwt beam="1">  1        1 0.82477722E+00 0.30000000E+03</pdfrwt>
<pdfrwt beam="2">0</pdfrwt>
<totfact> 0.66048069E-04</totfact>
</mgrwt>
<clustering>
<clus scale="   33.800">  1  6  2 -1</clus>
<clus scale="  459.209">  4  5 -1 -1</clus>
<clus scale="  300.000">  1  4  2 -1</clus>
</clustering>
</event>
<event>
 6    1  0.9964252E-012  0.3000000E+03  0.7818608E-02  0.1093470E+00
          1   -1    0    0  502    0  0.00000000000E+00  0.00000000000E+00  0.22561119732E+03  0.22561119732E+03  0.00000000000E+00 0.  1.
         13   -1    0    0    0    0 -0.00000000000E+00 -0.00000000000E+00 -0.27500000000E+03  0.27500000000E+03  0.00000000000E+00 0.  1.
    9000005    2    1    2  501    0  0.16033185120E+01  0.34675662282E+02 -0.44811183097E+02  0.46559796003E+03  0.46213466226E+03 0.  0.
         13    1    3    3    0    0  0.93969735023E+01 -0.20372771471E+03 -0.89838129307E+02  0.22285460357E+03  0.00000000000E+00 0.  1.
          1    1    3    3  501    0 -0.77936549903E+01  0.23840337700E+03  0.45026946210E+02  0.24274335646E+03  0.00000000000E+00 0.  1.
         21    1    1    2  502  501 -0.16033185120E+01 -0.34675662282E+02 -0.45776195796E+01  0.35013237296E+02  0.00000000000E+00 0.  1.
<scales pt_clust_4="550.00000" pt_clust_5="550.00000" pt_clust_6="34.71273"></scales>
<mgrwt>
<rscale>  0 0.30000000E+03</rscale>
<asrwt>  1 0.34712727E+02</asrwt>
<pdfrwt beam="1">  1        1 0.82040435E+00 0.30000000E+03</pdfrwt>
<pdfrwt beam="2">0</pdfrwt>
<totfact> 0.71857479E-04</totfact>
</mgrwt>
<clustering>
<clus scale="   34.713">  1  6  2 -1</clus>
<clus scale="  462.135">  4  5 -1 -1</clus>
<clus scale="  300.000">  1  4  2 -1</clus>
</clustering>
</event>
<event>
 6    1  0.9964252E-012  0.3000000E+03  0.7818608E-02  0.1093470E+00
          1   -1    0    0  502    0  0.00000000000E+00  0.00000000000E+00  0.22554652875E+03  0.22554652875E+03  0.00000000000E+00 0.  1.
         13   -1    0    0    0    0 -0.00000000000E+00 -0.00000000000E+00 -0.27500000000E+03  0.27500000000E+03  0.00000000000E+00 0.  1.
    9000005    2    1    2  501    0  0.24009545067E+02 -0.18355997490E+02 -0.29698561755E+02  0.46444033333E+03  0.46250342459E+03 0.  0.
         13    1    3    3    0    0 -0.11089701107E+03  0.16088698205E+03  0.84283511254E+02  0.21280619898E+03  0.00000000000E+00 0.  1.
          3    1    3    3  501    0  0.13490655613E+03 -0.17924297954E+03 -0.11398207301E+03  0.25163413435E+03  0.00000000000E+00 0.  1.
         21    1    1    2  502  501 -0.24009545067E+02  0.18355997490E+02 -0.19754909498E+02  0.36106195417E+02  0.00000000000E+00 0.  1.
<scales pt_clust_4="550.00000" pt_clust_5="550.00000" pt_clust_6="30.22254"></scales>
<mgrwt>
<rscale>  0 0.30000000E+03</rscale>
<asrwt>  1 0.30222538E+02</asrwt>
<pdfrwt beam="1">  1        1 0.82016920E+00 0.30000000E+03</pdfrwt>
<pdfrwt beam="2">0</pdfrwt>
<totfact> 0.74119674E-04</totfact>
</mgrwt>
<clustering>
<clus scale="   30.223">  1  6  2 -1</clus>
<clus scale="  462.503">  4  5 -1 -1</clus>
<clus scale="  300.000">  1  4  2 -1</clus>
</clustering>
</event>
<event>
 6    1  0.9964252E-012  0.3000000E+03  0.7818608E-02  0.1093470E+00
          1   -1    0    0  502    0  0.00000000000E+00  0.00000000000E+00  0.22019550096E+03  0.22019550096E+03  0.00000000000E+00 0.  1.
         13   -1    0    0    0    0 -0.00000000000E+00 -0.00000000000E+00 -0.27500000000E+03  0.27500000000E+03  0.00000000000E+00 0.  1.
    9000005    2    1    2  501    0 -0.11734993407E+02 -0.29137671380E+02 -0.63007675916E+02  0.46273004124E+03  0.45734277067E+03 0.  0.
         13    1    3    3    0    0  0.19623047694E+03  0.12744378467E+02  0.74096679444E+02  0.21014075561E+03  0.00000000000E+00 0.  1.
          3    1    3    3  501    0 -0.20796547035E+03 -0.41882049847E+02 -0.13710435536E+03  0.25258928563E+03  0.00000000000E+00 0.  1.
         21    1    1    2  502  501  0.11734993407E+02  0.29137671380E+02  0.82031768763E+01  0.32465459716E+02  0.00000000000E+00 0.  1.
<scales pt_clust_4="550.00000" pt_clust_5="550.00000" pt_clust_6="31.41200"></scales>
<mgrwt>
<rscale>  0 0.30000000E+03</rscale>
<asrwt>  1 0.31412003E+02</asrwt>
<pdfrwt beam="1">  1        1 0.80071091E+00 0.30000000E+03</pdfrwt>
<pdfrwt beam="2">0</pdfrwt>
<totfact> 0.10459725E-03</totfact>
</mgrwt>
<clustering>
<clus scale="   31.412">  1  6  2 -1</clus>
<clus scale="  457.343">  4  5 -1 -1</clus>
<clus scale="  300.000">  1  4  2 -1</clus>
</clustering>
</event>
<event>
 6    1  0.9964252E-012  0.3000000E+03  0.7818608E-02  0.1093470E+00
          1   -1    0    0  502    0  0.00000000000E+00  0.00000000000E+00  0.25244615032E+03  0.25244615032E+03  0.00000000000E+00 0.  1.
         13   -1    0    0    0    0 -0.00000000000E+00 -0.00000000000E+00 -0.27500000000E+03  0.27500000000E+03  0.00000000000E+00 0.  1.
    9000005    2    1    2  501    0  0.61613948971E+01 -0.35568495694E+02 -0.39999745662E+02  0.48735325868E+03  0.48436570732E+03 0.  0.
         13    1    3    3    0    0  0.48419448827E+02 -0.21098529275E+03 -0.16128102795E+03  0.26994593303E+03  0.00000000000E+00 0.  1.
          1    1    3    3  501    0 -0.42258053930E+02  0.17541679706E+03  0.12128128229E+03  0.21740732565E+03  0.00000000000E+00 0.  1.
         21    1    1    2  502  501 -0.61613948971E+01  0.35568495694E+02  0.17445895980E+02  0.40092891633E+02  0.00000000000E+00 0.  1.
<scales pt_clust_4="550.00000" pt_clust_5="550.00000" pt_clust_6="36.09821"></scales>
<mgrwt>
<rscale>  0 0.30000000E+03</rscale>
<asrwt>  1 0.36098209E+02</asrwt>
<pdfrwt beam="1">  1        1 0.91798600E+00 0.30000000E+03</pdfrwt>
<pdfrwt beam="2">0</pdfrwt>
<totfact> 0.46027473E-05</totfact>
</mgrwt>
<clustering>
<clus scale="   36.098">  1  6  2 -1</clus>
<clus scale="  484.366">  4  5 -1 -1</clus>
<clus scale="  300.000">  1  4  2 -1</clus>
</clustering>
</event>
<event>
 6    1  0.9964252E-012  0.3000000E+03  0.7818608E-02  0.1093470E+00
          1   -1    0    0  502    0  0.00000000000E+00  0.00000000000E+00  0.22517925679E+03  0.22517925679E+03  0.00000000000E+00 0.  1.
         13   -1    0    0    0    0 -0.00000000000E+00 -0.00000000000E+00 -0.27500000000E+03  0.27500000000E+03  0.00000000000E+00 0.  1.
    9000005    2    1    2  501    0  0.34233560061E+02 -0.11384529194E+02 -0.55406836298E+02  0.46367242763E+03  0.45893426381E+03 0.  0.
         13    1    3    3    0    0 -0.16495001241E+03  0.13025276187E+03  0.10806047876E+02  0.21045441130E+03  0.00000000000E+00 0.  1.
          3    1    3    3  501    0  0.19918357247E+03 -0.14163729106E+03 -0.66212884175E+02  0.25321801632E+03  0.00000000000E+00 0.  1.
         21    1    1    2  502  501 -0.34233560061E+02  0.11384529194E+02  0.55860930878E+01  0.36506829161E+02  0.00000000000E+00 0. -1.
<scales pt_clust_4="550.00000" pt_clust_5="550.00000" pt_clust_6="36.07692"></scales>
<mgrwt>
<rscale>  0 0.30000000E+03</rscale>
<asrwt>  1 0.36076920E+02</asrwt>
<pdfrwt beam="1">  1        1 0.81883366E+00 0.30000000E+03</pdfrwt>
<pdfrwt beam="2">0</pdfrwt>
<totfact> 0.73597720E-04</totfact>
</mgrwt>
<clustering>
<clus scale="   36.077">  1  6  2 -1</clus>
<clus scale="  458.934">  4  5 -1 -1</clus>
<clus scale="  300.000">  1  4  2 -1</clus>
</clustering>
</event>
<event>
 6    1  0.9964252E-012  0.3000000E+03  0.7818608E-02  0.1093470E+00
          1   -1    0    0  502    0  0.00000000000E+00  0.00000000000E+00  0.23662089154E+03  0.23662089154E+03  0.00000000000E+00 0.  1.
         13   -1    0    0    0    0 -0.00000000000E+00 -0.00000000000E+00 -0.27500000000E+03  0.27500000000E+03  0.00000000000E+00 0.  1.
    9000005    2    1    2  501    0 -0.40136847565E+02  0.42429429409E+01 -0.28985532119E+02  0.47018167854E+03  0.46754858642E+03 0.  0.
         13    1    3    3    0    0 -0.25350124961E+02  0.19087236201E+03  0.12347811977E+03  0.22873944451E+03  0.00000000000E+00 0.  1.
          3    1    3    3  501    0 -0.14786722604E+02 -0.18662941906E+03 -0.15246365189E+03  0.24144223403E+03  0.00000000000E+00 0.  1.
         21    1    1    2  502  501  0.40136847565E+02 -0.42429429409E+01 -0.93935763456E+01  0.41439212997E+02  0.00000000000E+00 0.  1.
<scales pt_clust_4="550.00000" pt_clust_5="550.00000" pt_clust_6="40.36051"></scales>
<mgrwt>
<rscale>  0 0.30000000E+03</rscale>
<asrwt>  1 0.40360509E+02</asrwt>
<pdfrwt beam="1">  1        1 0.86043961E+00 0.30000000E+03</pdfrwt>
<pdfrwt beam="2">0</pdfrwt>
<totfact> 0.31167499E-04</totfact>
</mgrwt>
<clustering>
<clus scale="   40.361">  1  6  2 -1</clus>
<clus scale="  467.549">  4  5 -1 -1</clus>
<clus scale="  300.000">  1  4  2 -1</clus>
</clustering>
</event>
<event>
 6    1  0.9964252E-012  0.3000000E+03  0.7818608E-02  0.1093470E+00
          1   -1    0    0  502    0  0.00000000000E+00  0.00000000000E+00  0.23520670458E+03  0.23520670458E+03  0.00000000000E+00 0.  1.
         13   -1    0    0    0    0 -0.00000000000E+00 -0.00000000000E+00 -0.27500000000E+03  0.27500000000E+03  0.00000000000E+00 0.  1.
    9000005    2    1    2  501    0 -0.40174871296E+02 -0.43645588744E+01 -0.53136430552E+02  0.46764957929E+03  0.46286021551E+03 0.  0.
         13    1    3    3    0    0 -0.15428088365E+03 -0.17875616206E+03 -0.95975053801E+02  0.25488736235E+03  0.00000000000E+00 0.  1.
          1    1    3    3  501    0  0.11410601235E+03  0.17439160318E+03  0.42838623249E+02  0.21276221694E+03  0.00000000000E+00 0.  1.
         21    1    1    2  502  501  0.40174871296E+02  0.43645588744E+01  0.13343135130E+02  0.42557125290E+02  0.00000000000E+00 0.  1.
<scales pt_clust_4="550.00000" pt_clust_5="550.00000" pt_clust_6="40.41126"></scales>
<mgrwt>
<rscale>  0 0.30000000E+03</rscale>
<asrwt>  1 0.40411257E+02</asrwt>
<pdfrwt beam="1">  1        1 0.85529711E+00 0.30000000E+03</pdfrwt>
<pdfrwt beam="2">0</pdfrwt>
<totfact> 0.35239050E-04</totfact>
</mgrwt>
<clustering>
<clus scale="   40.411">  1  6  2 -1</clus>
<clus scale="  462.860">  4  5 -1 -1</clus>
<clus scale="  300.000">  1  4  2 -1</clus>
</clustering>
</event>
<event>
 6    1  0.9964252E-012  0.3000000E+03  0.7818608E-02  0.1093470E+00
          1   -1    0    0  502    0  0.00000000000E+00  0.00000000000E+00  0.23497678429E+03  0.23497678429E+03  0.00000000000E+00 0.  1.
         13   -1    0    0    0    0 -0.00000000000E+00 -0.00000000000E+00 -0.27500000000E+03  0.27500000000E+03  0.00000000000E+00 0.  1.
    9000005    2    1    2  501    0 -0.29017318323E+02  0.16175978839E+02 -0.37283988359E+02  0.47664256133E+03  0.47401937558E+03 0.  0.
         13    1    3    3    0    0  0.57490440549E+02  0.10507202867E+03  0.18599473670E+03  0.22122234074E+03  0.00000000000E+00 0.  1.
          1    1    3    3  501    0 -0.86507758872E+02 -0.88896049826E+02 -0.22327872506E+03  0.25542022059E+03  0.00000000000E+00 0.  1.
         21    1    1    2  502  501  0.29017318323E+02 -0.16175978839E+02 -0.27392273482E+01  0.33334222962E+02  0.00000000000E+00 0. -1.
<scales pt_clust_4="550.00000" pt_clust_5="550.00000" pt_clust_6="33.22150"></scales>
<mgrwt>
<rscale>  0 0.30000000E+03</rscale>
<asrwt>  1 0.33221501E+02</asrwt>
<pdfrwt beam="1">  1        1 0.85446103E+00 0.30000000E+03</pdfrwt>
<pdfrwt beam="2">0</pdfrwt>
<totfact> 0.37245508E-04</totfact>
</mgrwt>
<clustering>
<clus scale="   33.222">  1  6  2 -1</clus>
<clus scale="  474.019">  4  5 -1 -1</clus>
<clus scale="  300.000">  1  4  2 -1</clus>
</clustering>
</event>
<event>
 6    1  0.9964252E-012  0.3000000E+03  0.7818608E-02  0.1093470E+00
          1   -1    0    0  502    0  0.00000000000E+00  0.00000000000E+00  0.24448684505E+03  0.24448684505E+03  0.00000000000E+00 0.  1.
         13   -1    0    0    0    0 -0.00000000000E+00 -0.00000000000E+00 -0.27500000000E+03  0.27500000000E+03  0.00000000000E+00 0.  1.
    9000005    2    1    2  501    0  0.17357214499E+02  0.34635466199E+02 -0.47815988783E+02  0.47705718004E+03  0.47307113189E+03 0.  0.
         13    1    3    3    0    0  0.72597776921E+02 -0.20038349248E+03 -0.91102379130E+02  0.23178357309E+03  0.00000000000E+00 0.  1.
          3    1    3    3  501    0 -0.55240562422E+02  0.23501895868E+03  0.43286390347E+02  0.24527360695E+03  0.00000000000E+00 0.  1.
         21    1    1    2  502  501 -0.17357214499E+02 -0.34635466199E+02  0.17302833831E+02  0.42429665006E+02  0.00000000000E+00 0. -1.
<scales pt_clust_4="550.00000" pt_clust_5="550.00000" pt_clust_6="38.74130"></scales>
<mgrwt>
<rscale>  0 0.30000000E+03</rscale>
<asrwt>  1 0.38741301E+02</asrwt>
<pdfrwt beam="1">  1        1 0.88904307E+00 0.30000000E+03</pdfrwt>
<pdfrwt beam="2">0</pdfrwt>
<totfact> 0.14652996E-04</totfact>
</mgrwt>
<clustering>
<clus scale="   38.741">  1  6  2 -1</clus>
<clus scale="  473.071">  4  5 -1 -1</clus>
<clus scale="  300.000">  1  4  2 -1</clus>
</clustering>
</event>
<event>
 6    1  0.9964252E-012  0.3000000E+03  0.7818608E-02  0.1093470E+00
          1   -1    0    0  502    0  0.00000000000E+00  0.00000000000E+00  0.23005237290E+03  0.23005237290E+03  0.00000000000E+00 0.  1.
         13   -1    0    0    0    0 -0.00000000000E+00 -0.00000000000E+00 -0.27500000000E+03  0.27500000000E+03  0.00000000000E+00 0.  1.
    9000005    2    1    2  501    0 -0.30314305030E+02 -0.11483327048E+02 -0.59920045806E+02  0.46934526981E+03  0.46437457565E+03 0.  0.
         13    1    3    3    0    0 -0.62086989799E+02  0.14255365240E+03 -0.20369211821E+03  0.25625537484E+03  0.00000000000E+00 0.  1.
          1    1    3    3  501    0  0.31772684769E+02 -0.15403697945E+03  0.14377207240E+03  0.21308989497E+03  0.00000000000E+00 0.  1.
         21    1    1    2  502  501  0.30314305030E+02  0.11483327048E+02  0.14972418709E+02  0.35707103096E+02  0.00000000000E+00 0. -1.
<scales pt_clust_4="550.00000" pt_clust_5="550.00000" pt_clust_6="32.41641"></scales>
<mgrwt>
<rscale>  0 0.30000000E+03</rscale>
<asrwt>  1 0.32416414E+02</asrwt>
<pdfrwt beam="1">  1        1 0.83655408E+00 0.30000000E+03</pdfrwt>
<pdfrwt beam="2">0</pdfrwt>
<totfact> 0.53477323E-04</totfact>
</mgrwt>
<clustering>
<clus scale="   32.416">  1  6  2 -1</clus>
<clus scale="  464.375">  4  5 -1 -1</clus>
<clus scale="  300.000">  1  4  2 -1</clus>
</clustering>
</event>
<event>
 6    1  0.9964252E-012  0.3000000E+03  0.7818608E-02  0.1093470E+00
          1   -1    0    0  502    0  0.00000000000E+00  0.00000000000E+00  0.22004973879E+03  0.22004973879E+03  0.00000000000E+00 0.  1.
         13   -1    0    0    0    0 -0.00000000000E+00 -0.00000000000E+00 -0.27500000000E+03  0.27500000000E+03  0.00000000000E+00 0.  1.
    9000005    2    1    2  501    0 -0.15721154670E+02  0.26243495345E+02 -0.65383092427E+02  0.46272761449E+03  0.45706238161E+03 0.  0.
         13    1    3    3    0    0 -0.61420882813E+01  0.22585329522E+03 -0.11963357846E+03  0.25565529391E+03  0.00000000000E+00 0.  1.
          3    1    3    3  501    0 -0.95790663890E+01 -0.19960979987E+03  0.54250486029E+02  0.20707232058E+03  0.00000000000E+00 0.  1.
         21    1    1    2  502  501  0.15721154670E+02 -0.26243495345E+02  0.10432831219E+02  0.32322124301E+02  0.00000000000E+00 0.  1.
<scales pt_clust_4="550.00000" pt_clust_5="550.00000" pt_clust_6="30.59209"></scales>
<mgrwt>
<rscale>  0 0.30000000E+03</rscale>
<asrwt>  1 0.30592086E+02</asrwt>
<pdfrwt beam="1">  1        1 0.80018087E+00 0.30000000E+03</pdfrwt>
<pdfrwt beam="2">0</pdfrwt>
<totfact> 0.10606067E-03</totfact>
</mgrwt>
<clustering>
<clus scale="   30.592">  1  6  2 -1</clus>
<clus scale="  457.062">  4  5 -1 -1</clus>
<clus scale="  300.000">  1  4  2 -1</clus>
</clustering>
</event>
<event>
 6    1  0.9964252E-012  0.3000000E+03  0.7818608E-02  0.1093470E+00
          1   -1    0    0  502    0  0.00000000000E+00  0.00000000000E+00  0.23133287805E+03  0.23133287805E+03  0.00000000000E+00 0.  1.
         13   -1    0    0    0    0 -0.00000000000E+00 -0.00000000000E+00 -0.27500000000E+03  0.27500000000E+03  0.00000000000E+00 0.  1.
    9000005    2    1    2  501    0 -0.27812607760E+02 -0.31361806145E+02 -0.27274247960E+02  0.46132365286E+03  0.45860497604E+03 0.  0.
         13    1    3    3    0    0 -0.56009587438E+02  0.15190812511E+03 -0.16437154408E+03  0.23071878307E+03  0.00000000000E+00 0.  1.
          1    1    3    3  501    0  0.28196979678E+02 -0.18326993126E+03  0.13709729612E+03  0.23060486979E+03  0.00000000000E+00 0.  1.
         21    1    1    2  502  501  0.27812607760E+02  0.31361806145E+02 -0.16392873985E+02  0.45009225194E+02  0.00000000000E+00 0.  1.
<scales pt_clust_4="550.00000" pt_clust_5="550.00000" pt_clust_6="41.91785"></scales>
<mgrwt>
<rscale>  0 0.30000000E+03</rscale>
<asrwt>  1 0.41917846E+02</asrwt>
<pdfrwt beam="1">  1        1 0.84121047E+00 0.30000000E+03</pdfrwt>
<pdfrwt beam="2">0</pdfrwt>
<totfact> 0.47044062E-04</totfact>
</mgrwt>
<clustering>
<clus scale="   41.918">  1  6  2 -1</clus>
<clus scale="  458.605">  4  5 -1 -1</clus>
<clus scale="  300.000">  1  4  2 -1</clus>
</clustering>
</event>
<event>
 6    1  0.9964252E-012  0.3000000E+03  0.7818608E-02  0.1093470E+00
          1   -1    0    0  502    0  0.00000000000E+00  0.00000000000E+00  0.22685371030E+03  0.22685371030E+03  0.00000000000E+00 0.  1.
         13   -1    0    0    0    0 -0.00000000000E+00 -0.00000000000E+00 -0.27500000000E+03  0.27500000000E+03  0.00000000000E+00 0.  1.
    9000005    2    1    2  501    0  0.41314292035E+01 -0.31701534582E+02 -0.59185892754E+02  0.46803169324E+03  0.46317236530E+03 0.  0.
         13    1    3    3    0    0  0.16173666245E+03  0.32988206070E+02 -0.19113378031E+03  0.25254522703E+03  0.00000000000E+00 0.  1.
          3    1    3    3  501    0 -0.15760523324E+03 -0.64689740652E+02  0.13194788756E+03  0.21548646622E+03  0.00000000000E+00 0.  1.
         21    1    1    2  502  501 -0.41314292035E+01  0.31701534582E+02  0.11039603053E+02  0.33822017055E+02  0.00000000000E+00 0. -1.
<scales pt_clust_4="550.00000" pt_clust_5="550.00000" pt_clust_6="31.96961"></scales>
<mgrwt>
<rscale>  0 0.30000000E+03</rscale>
<asrwt>  1 0.31969611E+02</asrwt>
<pdfrwt beam="1">  1        1 0.82492258E+00 0.30000000E+03</pdfrwt>
<pdfrwt beam="2">0</pdfrwt>
<totfact> 0.66548257E-04</totfact>
</mgrwt>
<clustering>
<clus scale="   31.970">  1  6  2 -1</clus>
<clus scale="  463.172">  4  5 -1 -1</clus>
<clus scale="  300.000">  1  4  2 -1</clus>
</clustering>
</event>
<event>
 6    1  0.9964252E-012  0.3000000E+03  0.7818608E-02  0.1093470E+00
          1   -1    0    0  502    0  0.00000000000E+00  0.00000000000E+00  0.23013323530E+03  0.23013323530E+03  0.00000000000E+00 0.  1.
         13   -1    0    0    0    0 -0.00000000000E+00 -0.00000000000E+00 -0.27500000000E+03  0.27500000000E+03  0.00000000000E+00 0.  1.
    9000005    2    1    2  501    0 -0.17945370049E+02  0.29628729682E+02 -0.47540051556E+02  0.47039069090E+03  0.46669845474E+03 0.  0.
         13    1    3    3    0    0  0.10673459998E+03 -0.93196396822E+02 -0.19533586555E+03  0.24131710172E+03  0.00000000000E+00 0.  1.
          1    1    3    3  501    0 -0.12467997003E+03  0.12282512650E+03  0.14779581399E+03  0.22907358918E+03  0.00000000000E+00 0.  1.
         21    1    1    2  502  501  0.17945370049E+02 -0.29628729682E+02  0.26732868610E+01  0.34742544400E+02  0.00000000000E+00 0.  1.
<scales pt_clust_4="550.00000" pt_clust_5="550.00000" pt_clust_6="34.63954"></scales>
<mgrwt>
<rscale>  0 0.30000000E+03</rscale>
<asrwt>  1 0.34639543E+02</asrwt>
<pdfrwt beam="1">  1        1 0.83684813E+00 0.30000000E+03</pdfrwt>
<pdfrwt beam="2">0</pdfrwt>
<totfact> 0.52553845E-04</totfact>
</mgrwt>
<clustering>
<clus scale="   34.640">  1  6  2 -1</clus>
<clus scale="  466.698">  4  5 -1 -1</clus>
<clus scale="  300.000">  1  4  2 -1</clus>
</clustering>
</event>
<event>
 6    1  0.9964252E-012  0.3000000E+03  0.7818608E-02  0.1093470E+00
          1   -1    0    0  502    0  0.00000000000E+00  0.00000000000E+00  0.23902922451E+03  0.23902922451E+03  0.00000000000E+00 0.  1.
         13   -1    0    0    0    0 -0.00000000000E+00 -0.00000000000E+00 -0.27500000000E+03  0.27500000000E+03  0.00000000000E+00 0.  1.
    9000005    2    1    2  501    0 -0.30584368764E+02 -0.14572845205E+02 -0.43544215096E+02  0.47931426494E+03  0.47612844326E+03 0.  0.
         13    1    3    3    0    0  0.15679424649E+03  0.64877559026E+02  0.12847003948E+03  0.21283346645E+03  0.00000000000E+00 0.  1.
          3    1    3    3  501    0 -0.18737861526E+03 -0.79450404232E+02 -0.17201425457E+03  0.26648079849E+03  0.00000000000E+00 0.  1.
         21    1    1    2  502  501  0.30584368764E+02  0.14572845205E+02  0.75734396036E+01  0.34714959564E+02  0.00000000000E+00 0. -1.
<scales pt_clust_4="550.00000" pt_clust_5="550.00000" pt_clust_6="33.87878"></scales>
<mgrwt>
<rscale>  0 0.30000000E+03</rscale>
<asrwt>  1 0.33878776E+02</asrwt>
<pdfrwt beam="1">  1        1 0.86919718E+00 0.30000000E+03</pdfrwt>
<pdfrwt beam="2">0</pdfrwt>
<totfact> 0.25967622E-04</totfact>
</mgrwt>
<clustering>
<clus scale="   33.879">  1  6  2 -1</clus>
<clus scale="  476.128">  4  5 -1 -1</clus>
<clus scale="  300.000">  1  4  2 -1</clus>
</clustering>
</event>
<event>
 6    1  0.9964252E-012  0.3000000E+03  0.7818608E-02  0.1093470E+00
          1   -1    0    0  502    0  0.00000000000E+00  0.00000000000E+00  0.22406669744E+03  0.22406669744E+03  0.00000000000E+00 0.  1.
         13   -1    0    0    0    0 -0.00000000000E+00 -0.00000000000E+00 -0.27500000000E+03  0.27500000000E+03  0.00000000000E+00 0.  1.
    9000005    2    1    2  501    0 -0.26285211903E+02 -0.22092730171E+02 -0.45047175024E+02  0.46422925224E+03  0.46076083771E+03 0.  0.
         13    1    3    3    0    0  0.10743641307E+03  0.11574217603E+03 -0.17240131724E+03  0.23379702383E+03  0.00000000000E+00 0.  1.
          3    1    3    3  501    0 -0.13372162497E+03 -0.13783490620E+03  0.12735414221E+03  0.23043222841E+03  0.00000000000E+00 0.  1.
         21    1    1    2  502  501  0.26285211903E+02  0.22092730171E+02 -0.58861275311E+01  0.34837445207E+02  0.00000000000E+00 0. -1.
<scales pt_clust_4="550.00000" pt_clust_5="550.00000" pt_clust_6="34.33660"></scales>
<mgrwt>
<rscale>  0 0.30000000E+03</rscale>
<asrwt>  1 0.34336602E+02</asrwt>
<pdfrwt beam="1">  1        1 0.81478799E+00 0.30000000E+03</pdfrwt>
<pdfrwt beam="2">0</pdfrwt>
<totfact> 0.80205754E-04</totfact>
</mgrwt>
<clustering>
<clus scale="   34.337">  1  6  2 -1</clus>
<clus scale="  460.761">  4  5 -1 -1</clus>
<clus scale="  300.000">  1  4  2 -1</clus>
</clustering>
</event>
<event>
 6    1  0.9964252E-012  0.3000000E+03  0.7818608E-02  0.1093470E+00
          1   -1    0    0  502    0  0.00000000000E+00  0.00000000000E+00  0.24519130641E+03  0.24519130641E+03  0.00000000000E+00 0.  1.
         13   -1    0    0    0    0 -0.00000000000E+00 -0.00000000000E+00 -0.27500000000E+03  0.27500000000E+03  0.00000000000E+00 0.  1.
    9000005    2    1    2  501    0 -0.34506278436E+02 -0.13128355261E+02 -0.62315843104E+02  0.47100033434E+03  0.46539769411E+03 0.  0.
         13    1    3    3    0    0  0.19846960650E+03  0.73543871851E+02 -0.68143173699E+02  0.22235642089E+03  0.00000000000E+00 0.  1.
          1    1    3    3  501    0 -0.23297588493E+03 -0.86672227112E+02  0.58273305953E+01  0.24864391345E+03  0.00000000000E+00 0.  1.
         21    1    1    2  502  501  0.34506278436E+02  0.13128355261E+02  0.32507149513E+02  0.49190972067E+02  0.00000000000E+00 0.  1.
<scales pt_clust_4="550.00000" pt_clust_5="550.00000" pt_clust_6="36.91933"></scales>
<mgrwt>
<rscale>  0 0.30000000E+03</rscale>
<asrwt>  1 0.36919330E+02</asrwt>
<pdfrwt beam="1">  1        1 0.89160475E+00 0.30000000E+03</pdfrwt>
<pdfrwt beam="2">0</pdfrwt>
<totfact> 0.13683156E-04</totfact>
</mgrwt>
<clustering>
<clus scale="   36.919">  1  6  2 -1</clus>
<clus scale="  465.398">  4  5 -1 -1</clus>
<clus scale="  300.000">  1  4  2 -1</clus>
</clustering>
</event>
<event>
 6    1  0.9964252E-012  0.3000000E+03  0.7818608E-02  0.1093470E+00
          1   -1    0    0  502    0  0.00000000000E+00  0.00000000000E+00  0.24382576792E+03  0.24382576792E+03  0.00000000000E+00 0.  1.
         13   -1    0    0    0    0 -0.00000000000E+00 -0.00000000000E+00 -0.27500000000E+03  0.27500000000E+03  0.00000000000E+00 0.  1.
    9000005    2    1    2  501    0  0.30953655750E+01 -0.35876737459E+02 -0.44339134055E+02  0.48048471652E+03  0.47707743860E+03 0.  0.
         13    1    3    3    0    0 -0.22942782363E+03 -0.51676126247E+02 -0.71607246981E+02  0.24583560787E+03  0.00000000000E+00 0.  1.
          1    1    3    3  501    0  0.23252318920E+03  0.15799388788E+02  0.27268112927E+02  0.23464910864E+03  0.00000000000E+00 0.  1.
         21    1    1    2  502  501 -0.30953655750E+01  0.35876737459E+02  0.13164901975E+02  0.38341051404E+02  0.00000000000E+00 0.  1.
<scales pt_clust_4="550.00000" pt_clust_5="550.00000" pt_clust_6="36.01002"></scales>
<mgrwt>
<rscale>  0 0.30000000E+03</rscale>
<asrwt>  1 0.36010021E+02</asrwt>
<pdfrwt beam="1">  1        1 0.88663916E+00 0.30000000E+03</pdfrwt>
<pdfrwt beam="2">0</pdfrwt>
<totfact> 0.16025769E-04</totfact>
</mgrwt>
<clustering>
<clus scale="   36.010">  1  6  2 -1</clus>
<clus scale="  477.077">  4  5 -1 -1</clus>
<clus scale="  300.000">  1  4  2 -1</clus>
</clustering>
</event>
<event>
 6    1  0.9964252E-012  0.3000000E+03  0.7818608E-02  0.1093470E+00
          1   -1    0    0  502    0  0.00000000000E+00  0.00000000000E+00  0.24111857059E+03  0.24111857059E+03  0.00000000000E+00 0.  1.
         13   -1    0    0    0    0 -0.00000000000E+00 -0.00000000000E+00 -0.27500000000E+03  0.27500000000E+03  0.00000000000E+00 0.  1.
    9000005    2    1    2  501    0  0.13699864314E+02  0.28883495388E+02 -0.64837220443E+02  0.47161909209E+03  0.46604587787E+03 0.  0.
         13    1    3    3    0    0 -0.43801455833E+02  0.22316440768E+03 -0.12597796806E+03  0.25998340106E+03  0.00000000000E+00 0.  1.
          3    1    3    3  501    0  0.57501320147E+02 -0.19428091230E+03  0.61140747613E+02  0.21163569103E+03  0.00000000000E+00 0.  1.
         21    1    1    2  502  501 -0.13699864314E+02 -0.28883495388E+02  0.30955791036E+02  0.44499478500E+02  0.00000000000E+00 0. -1.
<scales pt_clust_4="550.00000" pt_clust_5="550.00000" pt_clust_6="31.96784"></scales>
<mgrwt>
<rscale>  0 0.30000000E+03</rscale>
<asrwt>  1 0.31967837E+02</asrwt>
<pdfrwt beam="1">  1        1 0.87679480E+00 0.30000000E+03</pdfrwt>
<pdfrwt beam="2">0</pdfrwt>
<totfact> 0.21882212E-04</totfact>
</mgrwt>
<clustering>
<clus scale="   31.968">  1  6  2 -1</clus>
<clus scale="  466.046">  4  5 -1 -1</clus>
<clus scale="  300.000">  1  4  2 -1</clus>
</clustering>
</event>
<event>
 6    1  0.9964252E-012  0.3000000E+03  0.7818608E-02  0.1093470E+00
          1   -1    0    0  502    0  0.00000000000E+00  0.00000000000E+00  0.22172362308E+03  0.22172362308E+03  0.00000000000E+00 0.  1.
         13   -1    0    0    0    0 -0.00000000000E+00 -0.00000000000E+00 -0.27500000000E+03  0.27500000000E+03  0.00000000000E+00 0.  1.
    9000005    2    1    2  501    0 -0.25979856047E+02  0.21394706324E+02 -0.53787866997E+02  0.46306433014E+03  0.45869679837E+03 0.  0.
         13    1    3    3    0    0 -0.18645305325E+03 -0.71206041728E+02 -0.15430477727E+03  0.25227961815E+03  0.00000000000E+00 0.  1.
          1    1    3    3  501    0  0.16047319720E+03  0.92600748052E+02  0.10051691027E+03  0.21078471200E+03  0.00000000000E+00 0.  1.
         21    1    1    2  502  501  0.25979856047E+02 -0.21394706324E+02  0.51149007820E+00  0.33659292937E+02  0.00000000000E+00 0.  1.
<scales pt_clust_4="550.00000" pt_clust_5="550.00000" pt_clust_6="33.65541"></scales>
<mgrwt>
<rscale>  0 0.30000000E+03</rscale>
<asrwt>  1 0.33655406E+02</asrwt>
<pdfrwt beam="1">  1        1 0.80626772E+00 0.30000000E+03</pdfrwt>
<pdfrwt beam="2">0</pdfrwt>
<totfact> 0.93885178E-04</totfact>
</mgrwt>
<clustering>
<clus scale="   33.655">  1  6  2 -1</clus>
<clus scale="  458.697">  4  5 -1 -1</clus>
<clus scale="  300.000">  1  4  2 -1</clus>
</clustering>
</event>
<event>
 6    1  0.9964252E-012  0.3000000E+03  0.7818608E-02  0.1093470E+00
          1   -1    0    0  502    0  0.00000000000E+00  0.00000000000E+00  0.21768517410E+03  0.21768517410E+03  0.00000000000E+00 0.  1.
         13   -1    0    0    0    0 -0.00000000000E+00 -0.00000000000E+00 -0.27500000000E+03  0.27500000000E+03  0.00000000000E+00 0.  1.
    9000005    2    1    2  501    0 -0.47383808199E+01 -0.30932265757E+02 -0.60129156447E+02  0.46126578878E+03  0.45625799185E+03 0.  0.
         13    1    3    3    0    0 -0.66099615651E+02  0.42117253940E+02  0.18354647792E+03  0.19958038939E+03  0.00000000000E+00 0.  1.
          3    1    3    3  501    0  0.61361234831E+02 -0.73049519698E+02 -0.24367563437E+03  0.26168539939E+03  0.00000000000E+00 0.  1.
         21    1    1    2  502  501  0.47383808199E+01  0.30932265757E+02  0.28143305479E+01  0.31419385323E+02  0.00000000000E+00 0. -1.
<scales pt_clust_4="550.00000" pt_clust_5="550.00000" pt_clust_6="31.29309"></scales>
<mgrwt>
<rscale>  0 0.30000000E+03</rscale>
<asrwt>  1 0.31293087E+02</asrwt>
<pdfrwt beam="1">  1        1 0.79158245E+00 0.30000000E+03</pdfrwt>
<pdfrwt beam="2">0</pdfrwt>
<totfact> 0.12238367E-03</totfact>
</mgrwt>
<clustering>
<clus scale="   31.293">  1  6  2 -1</clus>
<clus scale="  456.258">  4  5 -1 -1</clus>
<clus scale="  300.000">  1  4  2 -1</clus>
</clustering>
</event>
<event>
 6    1  0.9964252E-012  0.3000000E+03  0.7818608E-02  0.1093470E+00
          1   -1    0    0  502    0  0.00000000000E+00  0.00000000000E+00  0.23239858397E+03  0.23239858397E+03  0.00000000000E+00 0.  1.
         13   -1    0    0    0    0 -0.00000000000E+00 -0.00000000000E+00 -0.27500000000E+03  0.27500000000E+03  0.00000000000E+00 0.  1.
    9000005    2    1    2  501    0  0.20399022825E+02  0.24341869797E+02 -0.65485613816E+02  0.46825355535E+03  0.46256283867E+03 0.  0.
         13    1    3    3    0    0 -0.80779272482E+02  0.75049728929E+02 -0.23778705590E+03  0.26210768136E+03  0.00000000000E+00 0.  1.
          1    1    3    3  501    0  0.10117829531E+03 -0.50707859132E+02  0.17230144208E+03  0.20614587399E+03  0.00000000000E+00 0.  1.
         21    1    1    2  502  501 -0.20399022825E+02 -0.24341869797E+02  0.22884197782E+02  0.39145028618E+02  0.00000000000E+00 0.  1.
<scales pt_clust_4="550.00000" pt_clust_5="550.00000" pt_clust_6="31.75920"></scales>
<mgrwt>
<rscale>  0 0.30000000E+03</rscale>
<asrwt>  1 0.31759200E+02</asrwt>
<pdfrwt beam="1">  1        1 0.84508576E+00 0.30000000E+03</pdfrwt>
<pdfrwt beam="2">0</pdfrwt>
<totfact> 0.45939218E-04</totfact>
</mgrwt>
<clustering>
<clus scale="   31.759">  1  6  2 -1</clus>
<clus scale="  462.563">  4  5 -1 -1</clus>
<clus scale="  300.000">  1  4  2 -1</clus>
</clustering>
</event>
<event>
 6    1  0.9964252E-012  0.3000000E+03  0.7818608E-02  0.1093470E+00
          1   -1    0    0  502    0  0.00000000000E+00  0.00000000000E+00  0.23640152724E+03  0.23640152724E+03  0.00000000000E+00 0.  1.
         13   -1    0    0    0    0 -0.00000000000E+00 -0.00000000000E+00 -0.27500000000E+03  0.27500000000E+03  0.00000000000E+00 0.  1.
    9000005    2    1    2  501    0  0.18730341488E+02 -0.30202376198E+02 -0.65716059495E+02  0.46669836482E+03  0.46067966531E+03 0.  0.
         13    1    3    3    0    0  0.33384148967E+02  0.18770050236E+03 -0.13943714440E+03  0.23619631078E+03  0.00000000000E+00 0.  1.
          1    1    3    3  501    0 -0.14653807479E+02 -0.21790287856E+03  0.73721084904E+02  0.23050205404E+03  0.00000000000E+00 0.  1.
         21    1    1    2  502  501 -0.18730341488E+02  0.30202376198E+02  0.27117586739E+02  0.44703162425E+02  0.00000000000E+00 0.  1.
<scales pt_clust_4="550.00000" pt_clust_5="550.00000" pt_clust_6="35.53884"></scales>
<mgrwt>
<rscale>  0 0.30000000E+03</rscale>
<asrwt>  1 0.35538841E+02</asrwt>
<pdfrwt beam="1">  1        1 0.85964192E+00 0.30000000E+03</pdfrwt>
<pdfrwt beam="2">0</pdfrwt>
<totfact> 0.32538721E-04</totfact>
</mgrwt>
<clustering>
<clus scale="   35.539">  1  6  2 -1</clus>
<clus scale="  460.680">  4  5 -1 -1</clus>
<clus scale="  300.000">  1  4  2 -1</clus>
</clustering>
</event>
<event>
 6    1  0.9964252E-012  0.3000000E+03  0.7818608E-02  0.1093470E+00
          1   -1    0    0  502    0  0.00000000000E+00  0.00000000000E+00  0.26382782381E+03  0.26382782381E+03  0.00000000000E+00 0.  1.
         13   -1    0    0    0    0 -0.00000000000E+00 -0.00000000000E+00 -0.27500000000E+03  0.27500000000E+03  0.00000000000E+00 0.  1.
    9000005    2    1    2  501    0  0.31253279640E+02  0.13749272403E+01 -0.21497438745E+02  0.50588440322E+03  0.50445835471E+03 0.  0.
         13    1    3    3    0    0 -0.59021016135E+02 -0.15226894787E+02 -0.25121695690E+03  0.25850589568E+03  0.00000000000E+00 0.  1.
          3    1    3    3  501    0  0.90274295775E+02  0.16601822028E+02  0.22971951815E+03  0.24737850754E+03  0.00000000000E+00 0.  1.
         21    1    1    2  502  501 -0.31253279640E+02 -0.13749272403E+01  0.10325262551E+02  0.32943420586E+02  0.00000000000E+00 0. -1.
<scales pt_clust_4="550.00000" pt_clust_5="550.00000" pt_clust_6="31.28351"></scales>
<mgrwt>
<rscale>  0 0.30000000E+03</rscale>
<asrwt>  1 0.31283509E+02</asrwt>
<pdfrwt beam="1">  1        1 0.95937390E+00 0.30000000E+03</pdfrwt>
<pdfrwt beam="2">0</pdfrwt>
<totfact> 0.79918558E-06</totfact>
</mgrwt>
<clustering>
<clus scale="   31.284">  1  6  2 -1</clus>
<clus scale="  504.458">  4  5 -1 -1</clus>
<clus scale="  300.000">  1  4  2 -1</clus>
</clustering>
</event>
<event>
 6    1  0.9964252E-012  0.3000000E+03  0.7818608E-02  0.1093470E+00
          1   -1    0    0  502    0  0.00000000000E+00  0.00000000000E+00  0.22598390941E+03  0.22598390941E+03  0.00000000000E+00 0.  1.
         13   -1    0    0    0    0 -0.00000000000E+00 -0.00000000000E+00 -0.27500000000E+03  0.27500000000E+03  0.00000000000E+00 0.  1.
    9000005    2    1    2  501    0 -0.21397906694E+01  0.33652203488E+02 -0.56362464668E+02  0.46647277040E+03  0.46182579897E+03 0.  0.
         13    1    3    3    0    0 -0.44729508474E+02 -0.20018507295E+03 -0.94335881180E+02  0.22577433609E+03  0.00000000000E+00 0.  1.
          3    1    3    3  501    0  0.42589717805E+02  0.23383727644E+03  0.37973416512E+02  0.24069843430E+03  0.00000000000E+00 0.  1.
         21    1    1    2  502  501  0.21397906694E+01 -0.33652203488E+02  0.73463740749E+01  0.34511139009E+02  0.00000000000E+00 0. -1.
<scales pt_clust_4="550.00000" pt_clust_5="550.00000" pt_clust_6="33.72016"></scales>
<mgrwt>
<rscale>  0 0.30000000E+03</rscale>
<asrwt>  1 0.33720165E+02</asrwt>
<pdfrwt beam="1">  1        1 0.82175967E+00 0.30000000E+03</pdfrwt>
<pdfrwt beam="2">0</pdfrwt>
<totfact> 0.70297674E-04</totfact>
</mgrwt>
<clustering>
<clus scale="   33.720">  1  6  2 -1</clus>
<clus scale="  461.826">  4  5 -1 -1</clus>
<clus scale="  300.000">  1  4  2 -1</clus>
</clustering>
</event>
<event>
 6    1  0.9964252E-012  0.3000000E+03  0.7818608E-02  0.1093470E+00
          1   -1    0    0  502    0  0.00000000000E+00  0.00000000000E+00  0.23764250187E+03  0.23764250187E+03  0.00000000000E+00 0.  1.
         13   -1    0    0    0    0 -0.00000000000E+00 -0.00000000000E+00 -0.27500000000E+03  0.27500000000E+03  0.00000000000E+00 0.  1.
    9000005    2    1    2  501    0  0.56107951939E+01  0.38134712321E+02 -0.54830708427E+02  0.47032169866E+03  0.46552159599E+03 0.  0.
         13    1    3    3    0    0  0.30446202120E+02 -0.19853494391E+03 -0.10570859226E+03  0.22697445154E+03  0.00000000000E+00 0.  1.
          1    1    3    3  501    0 -0.24835406926E+02  0.23666965623E+03  0.50877883830E+02  0.24334724712E+03  0.00000000000E+00 0.  1.
         21    1    1    2  502  501 -0.56107951939E+01 -0.38134712321E+02  0.17473210294E+02  0.42320803212E+02  0.00000000000E+00 0.  1.
<scales pt_clust_4="550.00000" pt_clust_5="550.00000" pt_clust_6="38.54526"></scales>
<mgrwt>
<rscale>  0 0.30000000E+03</rscale>
<asrwt>  1 0.38545263E+02</asrwt>
<pdfrwt beam="1">  1        1 0.86415455E+00 0.30000000E+03</pdfrwt>
<pdfrwt beam="2">0</pdfrwt>
<totfact> 0.28659032E-04</totfact>
</mgrwt>
<clustering>
<clus scale="   38.545">  1  6  2 -1</clus>
<clus scale="  465.522">  4  5 -1 -1</clus>
<clus scale="  300.000">  1  4  2 -1</clus>
</clustering>
</event>
<event>
 6    1  0.9964252E-012  0.3000000E+03  0.7818608E-02  0.1093470E+00
          1   -1    0    0  502    0  0.00000000000E+00  0.00000000000E+00  0.22584555260E+03  0.22584555260E+03  0.00000000000E+00 0.  1.
         13   -1    0    0    0    0 -0.00000000000E+00 -0.00000000000E+00 -0.27500000000E+03  0.27500000000E+03  0.00000000000E+00 0.  1.
    9000005    2    1    2  501    0  0.48438579771E+01 -0.33337786673E+02 -0.64478565695E+02  0.46383610000E+03  0.45809559182E+03 0.  0.
         13    1    3    3    0    0  0.45185583203E+02 -0.21001247105E+03 -0.15143669907E+03  0.26283083675E+03  0.00000000000E+00 0.  1.
          3    1    3    3  501    0 -0.40341725226E+02  0.17667468437E+03  0.86958133375E+02  0.20100526325E+03  0.00000000000E+00 0.  1.
         21    1    1    2  502  501 -0.48438579771E+01  0.33337786673E+02  0.15324118299E+02  0.37009452603E+02  0.00000000000E+00 0.  1.
<scales pt_clust_4="550.00000" pt_clust_5="550.00000" pt_clust_6="33.68785"></scales>
<mgrwt>
<rscale>  0 0.30000000E+03</rscale>
<asrwt>  1 0.33687846E+02</asrwt>
<pdfrwt beam="1">  1        1 0.82125655E+00 0.30000000E+03</pdfrwt>
<pdfrwt beam="2">0</pdfrwt>
<totfact> 0.71032369E-04</totfact>
</mgrwt>
<clustering>
<clus scale="   33.688">  1  6  2 -1</clus>
<clus scale="  458.096">  4  5 -1 -1</clus>
<clus scale="  300.000">  1  4  2 -1</clus>
</clustering>
</event>
<event>
 6    1  0.9964252E-012  0.3000000E+03  0.7818608E-02  0.1093470E+00
          1   -1    0    0  502    0  0.00000000000E+00  0.00000000000E+00  0.24992456999E+03  0.24992456999E+03  0.00000000000E+00 0.  1.
         13   -1    0    0    0    0 -0.00000000000E+00 -0.00000000000E+00 -0.27500000000E+03  0.27500000000E+03  0.00000000000E+00 0.  1.
    9000005    2    1    2  501    0 -0.39679961310E+02 -0.19600431323E+02 -0.39433497729E+02  0.47839683261E+03  0.47471028266E+03 0.  0.
         13    1    3    3    0    0  0.11723980741E+02  0.21480993577E+03  0.52444073469E+02  0.22142976555E+03  0.00000000000E+00 0.  1.
          1    1    3    3  501    0 -0.51403942051E+02 -0.23441036710E+03 -0.91877571198E+02  0.25696706705E+03  0.00000000000E+00 0.  1.
         21    1    1    2  502  501  0.39679961310E+02  0.19600431323E+02  0.14358067721E+02  0.46527737386E+02  0.00000000000E+00 0.  1.
<scales pt_clust_4="550.00000" pt_clust_5="550.00000" pt_clust_6="44.25693"></scales>
<mgrwt>
<rscale>  0 0.30000000E+03</rscale>
<asrwt>  1 0.44256934E+02</asrwt>
<pdfrwt beam="1">  1        1 0.90881662E+00 0.30000000E+03</pdfrwt>
<pdfrwt beam="2">0</pdfrwt>
<totfact> 0.73462960E-05</totfact>
</mgrwt>
<clustering>
<clus scale="   44.257">  1  6  2 -1</clus>
<clus scale="  474.710">  4  5 -1 -1</clus>
<clus scale="  300.000">  1  4  2 -1</clus>
</clustering>
</event>
<event>
 6    1  0.9964252E-012  0.3000000E+03  0.7818608E-02  0.1093470E+00
          1   -1    0    0  502    0  0.00000000000E+00  0.00000000000E+00  0.24175408815E+03  0.24175408815E+03  0.00000000000E+00 0.  1.
         13   -1    0    0    0    0 -0.00000000000E+00 -0.00000000000E+00 -0.27500000000E+03  0.27500000000E+03  0.00000000000E+00 0.  1.
    9000005    2    1    2  501    0 -0.27909186679E+01 -0.38645135191E+02 -0.61957331432E+02  0.46852980676E+03  0.46279610327E+03 0.  0.
         13    1    3    3    0    0  0.49559530299E+02  0.17227725337E+03  0.92681255611E+02  0.20180538698E+03  0.00000000000E+00 0.  1.
          3    1    3    3  501    0 -0.52350448967E+02 -0.21092238856E+03 -0.15463858704E+03  0.26672441978E+03  0.00000000000E+00 0.  1.
         21    1    1    2  502  501  0.27909186679E+01  0.38645135191E+02  0.28711419580E+02  0.48224281387E+02  0.00000000000E+00 0.  1.
<scales pt_clust_4="550.00000" pt_clust_5="550.00000" pt_clust_6="38.74578"></scales>
<mgrwt>
<rscale>  0 0.30000000E+03</rscale>
<asrwt>  1 0.38745783E+02</asrwt>
<pdfrwt beam="1">  1        1 0.87910578E+00 0.30000000E+03</pdfrwt>
<pdfrwt beam="2">0</pdfrwt>
<totfact> 0.19859633E-04</totfact>
</mgrwt>
<clustering>
<clus scale="   38.746">  1  6  2 -1</clus>
<clus scale="  462.796">  4  5 -1 -1</clus>
<clus scale="  300.000">  1  4  2 -1</clus>
</clustering>
</event>
<event>
 6    1  0.9964252E-012  0.3000000E+03  0.7818608E-02  0.1093470E+00
          1   -1    0    0  502    0  0.00000000000E+00  0.00000000000E+00  0.23399283464E+03  0.23399283464E+03  0.00000000000E+00 0.  1.
         13   -1    0    0    0    0 -0.00000000000E+00 -0.00000000000E+00 -0.27500000000E+03  0.27500000000E+03  0.00000000000E+00 0.  1.
    9000005    2    1    2  501    0 -0.31444376465E+02 -0.68358276545E+01 -0.63944281666E+02  0.46947589327E+03  0.46398627766E+03 0.  0.
         13    1    3    3    0    0  0.65462801173E+02  0.47770903204E+02 -0.24440360548E+03  0.25748895102E+03  0.00000000000E+00 0.  1.
          1    1    3    3  501    0 -0.96907177638E+02 -0.54606730858E+02  0.18045932381E+03  0.21198694225E+03  0.00000000000E+00 0.  1.
         21    1    1    2  502  501  0.31444376465E+02  0.68358276545E+01  0.22937116310E+02  0.39516941375E+02  0.00000000000E+00 0. -1.
<scales pt_clust_4="550.00000" pt_clust_5="550.00000" pt_clust_6="32.17883"></scales>
<mgrwt>
<rscale>  0 0.30000000E+03</rscale>
<asrwt>  1 0.32178834E+02</asrwt>
<pdfrwt beam="1">  1        1 0.85088304E+00 0.30000000E+03</pdfrwt>
<pdfrwt beam="2">0</pdfrwt>
<totfact> 0.40563357E-04</totfact>
</mgrwt>
<clustering>
<clus scale="   32.179">  1  6  2 -1</clus>
<clus scale="  463.986">  4  5 -1 -1</clus>
<clus scale="  300.000">  1  4  2 -1</clus>
</clustering>
</event>
<event>
 6    1  0.9964252E-012  0.3000000E+03  0.7818608E-02  0.1093470E+00
          1   -1    0    0  502    0  0.00000000000E+00  0.00000000000E+00  0.23539994497E+03  0.23539994497E+03  0.00000000000E+00 0.  1.
         13   -1    0    0    0    0 -0.00000000000E+00 -0.00000000000E+00 -0.27500000000E+03  0.27500000000E+03  0.00000000000E+00 0.  1.
    9000005    2    1    2  501    0  0.19322445138E+02  0.30023248771E+02 -0.35451003136E+02  0.47445600272E+03  0.47178064027E+03 0.  0.
         13    1    3    3    0    0  0.10337715869E+03 -0.55133072961E+02  0.18769200501E+03  0.22125727427E+03  0.00000000000E+00 0.  1.
          3    1    3    3  501    0 -0.84054713556E+02  0.85156321731E+02 -0.22314300814E+03  0.25319872844E+03  0.00000000000E+00 0.  1.
         21    1    1    2  502  501 -0.19322445138E+02 -0.30023248771E+02 -0.41490518976E+01  0.35943942251E+02  0.00000000000E+00 0. -1.
<scales pt_clust_4="550.00000" pt_clust_5="550.00000" pt_clust_6="35.70369"></scales>
<mgrwt>
<rscale>  0 0.30000000E+03</rscale>
<asrwt>  1 0.35703692E+02</asrwt>
<pdfrwt beam="1">  1        1 0.85599980E+00 0.30000000E+03</pdfrwt>
<pdfrwt beam="2">0</pdfrwt>
<totfact> 0.35471468E-04</totfact>
</mgrwt>
<clustering>
<clus scale="   35.704">  1  6  2 -1</clus>
<clus scale="  471.781">  4  5 -1 -1</clus>
<clus scale="  300.000">  1  4  2 -1</clus>
</clustering>
</event>
<event>
 6    1  0.9964252E-012  0.3000000E+03  0.7818608E-02  0.1093470E+00
          1   -1    0    0  502    0  0.00000000000E+00  0.00000000000E+00  0.23401897877E+03  0.23401897877E+03  0.00000000000E+00 0.  1.
         13   -1    0    0    0    0 -0.00000000000E+00 -0.00000000000E+00 -0.27500000000E+03  0.27500000000E+03  0.00000000000E+00 0.  1.
    9000005    2    1    2  501    0 -0.13246918863E+02 -0.30647671000E+02 -0.67788670122E+02  0.46620063415E+03  0.46003583218E+03 0.  0.
         13    1    3    3    0    0  0.17817252279E+03  0.12239146681E+03 -0.33272765733E+02  0.21870572915E+03  0.00000000000E+00 0.  1.
          1    1    3    3  501    0 -0.19141944165E+03 -0.15303913781E+03 -0.34515904388E+02  0.24749490500E+03  0.00000000000E+00 0.  1.
         21    1    1    2  502  501  0.13246918863E+02  0.30647671000E+02  0.26807648894E+02  0.42818344624E+02  0.00000000000E+00 0. -1.
<scales pt_clust_4="550.00000" pt_clust_5="550.00000" pt_clust_6="33.38803"></scales>
<mgrwt>
<rscale>  0 0.30000000E+03</rscale>
<asrwt>  1 0.33388031E+02</asrwt>
<pdfrwt beam="1">  1        1 0.85097810E+00 0.30000000E+03</pdfrwt>
<pdfrwt beam="2">0</pdfrwt>
<totfact> 0.40197589E-04</totfact>
</mgrwt>
<clustering>
<clus scale="   33.388">  1  6  2 -1</clus>
<clus scale="  460.036">  4  5 -1 -1</clus>
<clus scale="  300.000">  1  4  2 -1</clus>
</clustering>
</event>
<event>
 6    1  0.9964252E-012  0.3000000E+03  0.7818608E-02  0.1093470E+00
          1   -1    0    0  502    0  0.00000000000E+00  0.00000000000E+00  0.24501869715E+03  0.24501869715E+03  0.00000000000E+00 0.  1.
         13   -1    0    0    0    0 -0.00000000000E+00 -0.00000000000E+00 -0.27500000000E+03  0.27500000000E+03  0.00000000000E+00 0.  1.
    9000005    2    1    2  501    0  0.33692799248E+02 -0.24077853631E+02 -0.48063956710E+02  0.47483097617E+03  0.47057344192E+03 0.  0.
         13    1    3    3    0    0 -0.84253960928E+02 -0.21532132214E+03 -0.86516387850E+02  0.24687463837E+03  0.00000000000E+00 0.  1.
          1    1    3    3  501    0  0.11794676018E+03  0.19124346851E+03  0.38452431140E+02  0.22795633780E+03  0.00000000000E+00 0.  1.
         21    1    1    2  502  501 -0.33692799248E+02  0.24077853631E+02  0.18082653858E+02  0.45187720978E+02  0.00000000000E+00 0. -1.
<scales pt_clust_4="550.00000" pt_clust_5="550.00000" pt_clust_6="41.41193"></scales>
<mgrwt>
<rscale>  0 0.30000000E+03</rscale>
<asrwt>  1 0.41411928E+02</asrwt>
<pdfrwt beam="1">  1        1 0.89097708E+00 0.30000000E+03</pdfrwt>
<pdfrwt beam="2">0</pdfrwt>
<totfact> 0.13645326E-04</totfact>
</mgrwt>
<clustering>
<clus scale="   41.412">  1  6  2 -1</clus>
<clus scale="  470.573">  4  5 -1 -1</clus>
<clus scale="  300.000">  1  4  2 -1</clus>
</clustering>
</event>
<event>
 6    1  0.9964252E-012  0.3000000E+03  0.7818608E-02  0.1093470E+00
          1   -1    0    0  502    0  0.00000000000E+00  0.00000000000E+00  0.26171695080E+03  0.26171695080E+03  0.00000000000E+00 0.  1.
         13   -1    0    0    0    0 -0.00000000000E+00 -0.00000000000E+00 -0.27500000000E+03  0.27500000000E+03  0.00000000000E+00 0.  1.
    9000005    2    1    2  501    0  0.13547333914E+02 -0.29846962742E+02 -0.48210539852E+02  0.48881808814E+03  0.48532926524E+03 0.  0.
         13    1    3    3    0    0 -0.86160749479E+02 -0.14568833969E+03 -0.20768856558E+03  0.26792407011E+03  0.00000000000E+00 0.  1.
          3    1    3    3  501    0  0.99708083393E+02  0.11584137695E+03  0.15947802573E+03  0.22089401802E+03  0.00000000000E+00 0.  1.
         21    1    1    2  502  501 -0.13547333914E+02  0.29846962742E+02  0.34927490649E+02  0.47898862660E+02  0.00000000000E+00 0.  1.
<scales pt_clust_4="550.00000" pt_clust_5="550.00000" pt_clust_6="32.77761"></scales>
<mgrwt>
<rscale>  0 0.30000000E+03</rscale>
<asrwt>  1 0.32777606E+02</asrwt>
<pdfrwt beam="1">  1        1 0.95169800E+00 0.30000000E+03</pdfrwt>
<pdfrwt beam="2">0</pdfrwt>
<totfact> 0.11522790E-05</totfact>
</mgrwt>
<clustering>
<clus scale="   32.778">  1  6  2 -1</clus>
<clus scale="  485.329">  4  5 -1 -1</clus>
<clus scale="  300.000">  1  4  2 -1</clus>
</clustering>
</event>
<event>
 6    1  0.9964252E-012  0.3000000E+03  0.7818608E-02  0.1093470E+00
          1   -1    0    0  502    0  0.00000000000E+00  0.00000000000E+00  0.22736540463E+03  0.22736540463E+03  0.00000000000E+00 0.  1.
         13   -1    0    0    0    0 -0.00000000000E+00 -0.00000000000E+00 -0.27500000000E+03  0.27500000000E+03  0.00000000000E+00 0.  1.
    9000005    2    1    2  501    0 -0.10843823564E+02  0.30752771974E+02 -0.69604774847E+02  0.46304606741E+03  0.45662185051E+03 0.  0.
         13    1    3    3    0    0 -0.32017096497E+02 -0.95078008357E+02 -0.23420010262E+03  0.25478345749E+03  0.00000000000E+00 0.  1.
          3    1    3    3  501    0  0.21173272933E+02  0.12583078033E+03  0.16459532777E+03  0.20826260992E+03  0.00000000000E+00 0.  1.
         21    1    1    2  502  501  0.10843823564E+02 -0.30752771974E+02  0.21970179481E+02  0.39319337227E+02  0.00000000000E+00 0.  1.
<scales pt_clust_4="550.00000" pt_clust_5="550.00000" pt_clust_6="32.60861"></scales>
<mgrwt>
<rscale>  0 0.30000000E+03</rscale>
<asrwt>  1 0.32608611E+02</asrwt>
<pdfrwt beam="1">  1        1 0.82678329E+00 0.30000000E+03</pdfrwt>
<pdfrwt beam="2">0</pdfrwt>
<totfact> 0.63823096E-04</totfact>
</mgrwt>
<clustering>
<clus scale="   32.609">  1  6  2 -1</clus>
<clus scale="  456.622">  4  5 -1 -1</clus>
<clus scale="  300.000">  1  4  2 -1</clus>
</clustering>
</event>
<event>
 6    1  0.9964252E-012  0.3000000E+03  0.7818608E-02  0.1093470E+00
          1   -1    0    0  502    0  0.00000000000E+00  0.00000000000E+00  0.22945611278E+03  0.22945611278E+03  0.00000000000E+00 0.  1.
         13   -1    0    0    0    0 -0.00000000000E+00 -0.00000000000E+00 -0.27500000000E+03  0.27500000000E+03  0.00000000000E+00 0.  1.
    9000005    2    1    2  501    0 -0.26342834208E+02 -0.15386135455E+02 -0.70851760256E+02  0.46481816990E+03  0.45837242615E+03 0.  0.
         13    1    3    3    0    0  0.49360220352E+01  0.20355547164E+03 -0.12260538942E+03  0.23767893441E+03  0.00000000000E+00 0.  1.
          1    1    3    3  501    0 -0.31278856243E+02 -0.21894160709E+03  0.51753629168E+02  0.22713923549E+03  0.00000000000E+00 0.  1.
         21    1    1    2  502  501  0.26342834208E+02  0.15386135455E+02  0.25307873036E+02  0.39637942883E+02  0.00000000000E+00 0. -1.
<scales pt_clust_4="550.00000" pt_clust_5="550.00000" pt_clust_6="30.50702"></scales>
<mgrwt>
<rscale>  0 0.30000000E+03</rscale>
<asrwt>  1 0.30507017E+02</asrwt>
<pdfrwt beam="1">  1        1 0.83438586E+00 0.30000000E+03</pdfrwt>
<pdfrwt beam="2">0</pdfrwt>
<totfact> 0.56103875E-04</totfact>
</mgrwt>
<clustering>
<clus scale="   30.507">  1  6  2 -1</clus>
<clus scale="  458.372">  4  5 -1 -1</clus>
<clus scale="  300.000">  1  4  2 -1</clus>
</clustering>
</event>
<event>
 6    1  0.9964252E-012  0.3000000E+03  0.7818608E-02  0.1093470E+00
          1   -1    0    0  502    0  0.00000000000E+00  0.00000000000E+00  0.24046062158E+03  0.24046062158E+03  0.00000000000E+00 0.  1.
         13   -1    0    0    0    0 -0.00000000000E+00 -0.00000000000E+00 -0.27500000000E+03  0.27500000000E+03  0.00000000000E+00 0.  1.
    9000005    2    1    2  501    0  0.40300977807E+02  0.29502330436E+01 -0.64328301312E+02  0.46525850395E+03  0.45901467565E+03 0.  0.
         13    1    3    3    0    0 -0.12045820034E+03  0.16703577923E+03 -0.10628067920E+03  0.23174708702E+03  0.00000000000E+00 0.  1.
          3    1    3    3  501    0  0.16075917815E+03 -0.16408554618E+03  0.41952377892E+02  0.23351141693E+03  0.00000000000E+00 0.  1.
         21    1    1    2  502  501 -0.40300977807E+02 -0.29502330436E+01  0.29788922895E+02  0.50202117630E+02  0.00000000000E+00 0.  1.
<scales pt_clust_4="550.00000" pt_clust_5="550.00000" pt_clust_6="40.40882"></scales>
<mgrwt>
<rscale>  0 0.30000000E+03</rscale>
<asrwt>  1 0.40408819E+02</asrwt>
<pdfrwt beam="1">  1        1 0.87440226E+00 0.30000000E+03</pdfrwt>
<pdfrwt beam="2">0</pdfrwt>
<totfact> 0.22223527E-04</totfact>
</mgrwt>
<clustering>
<clus scale="   40.409">  1  6  2 -1</clus>
<clus scale="  459.015">  4  5 -1 -1</clus>
<clus scale="  300.000">  1  4  2 -1</clus>
</clustering>
</event>
<event>
 6    1  0.9964252E-012  0.3000000E+03  0.7818608E-02  0.1093470E+00
          1   -1    0    0  502    0  0.00000000000E+00  0.00000000000E+00  0.25455328040E+03  0.25455328040E+03  0.00000000000E+00 0.  1.
         13   -1    0    0    0    0 -0.00000000000E+00 -0.00000000000E+00 -0.27500000000E+03  0.27500000000E+03  0.00000000000E+00 0.  1.
    9000005    2    1    2  501    0  0.21810409087E+02 -0.30247055424E+02 -0.37035288571E+02  0.48873957036E+03  0.48590552244E+03 0.  0.
         13    1    3    3    0    0 -0.17582680997E+03 -0.14600621504E+03 -0.10256865942E+03  0.25050591177E+03  0.00000000000E+00 0.  1.
          3    1    3    3  501    0  0.19763721906E+03  0.11575915962E+03  0.65533370850E+02  0.23823365859E+03  0.00000000000E+00 0.  1.
         21    1    1    2  502  501 -0.21810409087E+02  0.30247055424E+02  0.16588568969E+02  0.40813710035E+02  0.00000000000E+00 0. -1.
<scales pt_clust_4="550.00000" pt_clust_5="550.00000" pt_clust_6="37.29046"></scales>
<mgrwt>
<rscale>  0 0.30000000E+03</rscale>
<asrwt>  1 0.37290459E+02</asrwt>
<pdfrwt beam="1">  1        1 0.92564829E+00 0.30000000E+03</pdfrwt>
<pdfrwt beam="2">0</pdfrwt>
<totfact> 0.31427798E-05</totfact>
</mgrwt>
<clustering>
<clus scale="   37.290">  1  6  2 -1</clus>
<clus scale="  485.906">  4  5 -1 -1</clus>
<clus scale="  300.000">  1  4  2 -1</clus>
</clustering>
</event>
<event>
 6    1  0.9964252E-012  0.3000000E+03  0.7818608E-02  0.1093470E+00
          1   -1    0    0  502    0  0.00000000000E+00  0.00000000000E+00  0.23088267745E+03  0.23088267745E+03  0.00000000000E+00 0.  1.
         13   -1    0    0    0    0 -0.00000000000E+00 -0.00000000000E+00 -0.27500000000E+03  0.27500000000E+03  0.00000000000E+00 0.  1.
    9000005    2    1    2  501    0 -0.46858180806E+01  0.36487578118E+02 -0.61945561184E+02  0.46500302064E+03  0.45938791496E+03 0.  0.
         13    1    3    3    0    0 -0.15828644129E+02  0.23978198430E+03 -0.95635248142E+02  0.25863496797E+03  0.00000000000E+00 0.  1.
          1    1    3    3  501    0  0.11142826048E+02 -0.20329440618E+03  0.33689686958E+02  0.20636805267E+03  0.00000000000E+00 0.  1.
         21    1    1    2  502  501  0.46858180806E+01 -0.36487578118E+02  0.17828238637E+02  0.40879656810E+02  0.00000000000E+00 0.  1.
<scales pt_clust_4="550.00000" pt_clust_5="550.00000" pt_clust_6="36.78723"></scales>
<mgrwt>
<rscale>  0 0.30000000E+03</rscale>
<asrwt>  1 0.36787229E+02</asrwt>
<pdfrwt beam="1">  1        1 0.83957337E+00 0.30000000E+03</pdfrwt>
<pdfrwt beam="2">0</pdfrwt>
<totfact> 0.49615676E-04</totfact>
</mgrwt>
<clustering>
<clus scale="   36.787">  1  6  2 -1</clus>
<clus scale="  459.388">  4  5 -1 -1</clus>
<clus scale="  300.000">  1  4  2 -1</clus>
</clustering>
</event>
<event>
 6    1  0.9964252E-012  0.3000000E+03  0.7818608E-02  0.1093470E+00
          1   -1    0    0  502    0  0.00000000000E+00  0.00000000000E+00  0.22261510869E+03  0.22261510869E+03  0.00000000000E+00 0.  1.
         13   -1    0    0    0    0 -0.00000000000E+00 -0.00000000000E+00 -0.27500000000E+03  0.27500000000E+03  0.00000000000E+00 0.  1.
    9000005    2    1    2  501    0 -0.31765631308E+02 -0.83530475072E+01 -0.54515701235E+02  0.46470053614E+03  0.46032140714E+03 0.  0.
         13    1    3    3    0    0  0.21039126469E+03 -0.48539466037E+02 -0.30459478187E+02  0.21805582733E+03  0.00000000000E+00 0.  1.
          3    1    3    3  501    0 -0.24215689600E+03  0.40186418529E+02 -0.24056223048E+02  0.24664470881E+03  0.00000000000E+00 0.  1.
         21    1    1    2  502  501  0.31765631308E+02  0.83530475072E+01  0.21308099258E+01  0.32914572548E+02  0.00000000000E+00 0.  1.
<scales pt_clust_4="550.00000" pt_clust_5="550.00000" pt_clust_6="32.84553"></scales>
<mgrwt>
<rscale>  0 0.30000000E+03</rscale>
<asrwt>  1 0.32845528E+02</asrwt>
<pdfrwt beam="1">  1        1 0.80950949E+00 0.30000000E+03</pdfrwt>
<pdfrwt beam="2">0</pdfrwt>
<totfact> 0.89042910E-04</totfact>
</mgrwt>
<clustering>
<clus scale="   32.846">  1  6  2 -1</clus>
<clus scale="  460.321">  4  5 -1 -1</clus>
<clus scale="  300.000">  1  4  2 -1</clus>
</clustering>
</event>
<event>
 6    1  0.9964252E-012  0.3000000E+03  0.7818608E-02  0.1093470E+00
          1   -1    0    0  502    0  0.00000000000E+00  0.00000000000E+00  0.23300249246E+03  0.23300249246E+03  0.00000000000E+00 0.  1.
         13   -1    0    0    0    0 -0.00000000000E+00 -0.00000000000E+00 -0.27500000000E+03  0.27500000000E+03  0.00000000000E+00 0.  1.
    9000005    2    1    2  501    0 -0.37662710873E+02 -0.10209032611E+01 -0.53150748275E+02  0.46870978560E+03  0.46415982058E+03 0.  0.
         13    1    3    3    0    0  0.58265754003E+02 -0.15372250089E+02  0.19403377750E+03  0.20317556687E+03  0.00000000000E+00 0.  1.
          3    1    3    3  501    0 -0.95928464876E+02  0.14351346828E+02 -0.24718452578E+03  0.26553421872E+03  0.00000000000E+00 0.  1.
         21    1    1    2  502  501  0.37662710873E+02  0.10209032611E+01  0.11153240738E+02  0.39292706865E+02  0.00000000000E+00 0.  1.
<scales pt_clust_4="550.00000" pt_clust_5="550.00000" pt_clust_6="37.67654"></scales>
<mgrwt>
<rscale>  0 0.30000000E+03</rscale>
<asrwt>  1 0.37676545E+02</asrwt>
<pdfrwt beam="1">  1        1 0.84728179E+00 0.30000000E+03</pdfrwt>
<pdfrwt beam="2">0</pdfrwt>
<totfact> 0.42531679E-04</totfact>
</mgrwt>
<clustering>
<clus scale="   37.677">  1  6  2 -1</clus>
<clus scale="  464.160">  4  5 -1 -1</clus>
<clus scale="  300.000">  1  4  2 -1</clus>
</clustering>
</event>
<event>
 6    1  0.9964252E-012  0.3000000E+03  0.7818608E-02  0.1093470E+00
          1   -1    0    0  502    0  0.00000000000E+00  0.00000000000E+00  0.22745799079E+03  0.22745799079E+03  0.00000000000E+00 0.  1.
         13   -1    0    0    0    0 -0.00000000000E+00 -0.00000000000E+00 -0.27500000000E+03  0.27500000000E+03  0.00000000000E+00 0.  1.
    9000005    2    1    2  501    0  0.94886458683E+01  0.34979989049E+02 -0.41689725977E+02  0.46574446123E+03  0.46245673947E+03 0.  0.
         13    1    3    3    0    0 -0.14839640516E+03 -0.13081956093E+03  0.71491943684E+02  0.21034816043E+03  0.00000000000E+00 0.  1.
          3    1    3    3  501    0  0.15788505103E+03  0.16579954998E+03 -0.11318166966E+03  0.25539630079E+03  0.00000000000E+00 0.  1.
         21    1    1    2  502  501 -0.94886458683E+01 -0.34979989049E+02 -0.58522832289E+01  0.36713529567E+02  0.00000000000E+00 0. -1.
<scales pt_clust_4="550.00000" pt_clust_5="550.00000" pt_clust_6="36.24411"></scales>
<mgrwt>
<rscale>  0 0.30000000E+03</rscale>
<asrwt>  1 0.36244108E+02</asrwt>
<pdfrwt beam="1">  1        1 0.82711997E+00 0.30000000E+03</pdfrwt>
<pdfrwt beam="2">0</pdfrwt>
<totfact> 0.62144428E-04</totfact>
</mgrwt>
<clustering>
<clus scale="   36.244">  1  6  2 -1</clus>
<clus scale="  462.457">  4  5 -1 -1</clus>
<clus scale="  300.000">  1  4  2 -1</clus>
</clustering>
</event>
<event>
 6    1  0.9964252E-012  0.3000000E+03  0.7818608E-02  0.1093470E+00
          1   -1    0    0  502    0  0.00000000000E+00  0.00000000000E+00  0.23451287669E+03  0.23451287669E+03  0.00000000000E+00 0.  1.
         13   -1    0    0    0    0 -0.00000000000E+00 -0.00000000000E+00 -0.27500000000E+03  0.27500000000E+03  0.00000000000E+00 0.  1.
    9000005    2    1    2  501    0 -0.33525639690E+02 -0.17556601066E+02 -0.62632194731E+02  0.46566533462E+03  0.45987955955E+03 0.  0.
         13    1    3    3    0    0  0.14746426850E+03 -0.13357818417E+03 -0.13314943637E+03  0.23941097338E+03  0.00000000000E+00 0.  1.
          3    1    3    3  501    0 -0.18098990819E+03  0.11602158310E+03  0.70517241635E+02  0.22625436124E+03  0.00000000000E+00 0.  1.
         21    1    1    2  502  501  0.33525639690E+02  0.17556601066E+02  0.22145071421E+02  0.43847542073E+02  0.00000000000E+00 0.  1.
<scales pt_clust_4="550.00000" pt_clust_5="550.00000" pt_clust_6="37.84445"></scales>
<mgrwt>
<rscale>  0 0.30000000E+03</rscale>
<asrwt>  1 0.37844455E+02</asrwt>
<pdfrwt beam="1">  1        1 0.85277410E+00 0.30000000E+03</pdfrwt>
<pdfrwt beam="2">0</pdfrwt>
<totfact> 0.37746584E-04</totfact>
</mgrwt>
<clustering>
<clus scale="   37.844">  1  6  2 -1</clus>
<clus scale="  459.880">  4  5 -1 -1</clus>
<clus scale="  300.000">  1  4  2 -1</clus>
</clustering>
</event>
<event>
 6    1  0.9964252E-012  0.3000000E+03  0.7818608E-02  0.1093470E+00
          1   -1    0    0  502    0  0.00000000000E+00  0.00000000000E+00  0.22449472227E+03  0.22449472227E+03  0.00000000000E+00 0.  1.
         13   -1    0    0    0    0 -0.00000000000E+00 -0.00000000000E+00 -0.27500000000E+03  0.27500000000E+03  0.00000000000E+00 0.  1.
    9000005    2    1    2  501    0 -0.28388577389E+02  0.15419770249E+02 -0.62807951795E+02  0.46492542332E+03  0.45952924803E+03 0.  0.
         13    1    3    3    0    0 -0.16277246525E+03 -0.16244139592E+03  0.10666582197E+02  0.23020829379E+03  0.00000000000E+00 0.  1.
          3    1    3    3  501    0  0.13438388787E+03  0.17786116617E+03 -0.73474533992E+02  0.23471712953E+03  0.00000000000E+00 0.  1.
         21    1    1    2  502  501  0.28388577389E+02 -0.15419770249E+02  0.12302674062E+02  0.34569298948E+02  0.00000000000E+00 0. -1.
<scales pt_clust_4="550.00000" pt_clust_5="550.00000" pt_clust_6="32.30605"></scales>
<mgrwt>
<rscale>  0 0.30000000E+03</rscale>
<asrwt>  1 0.32306047E+02</asrwt>
<pdfrwt beam="1">  1        1 0.81634444E+00 0.30000000E+03</pdfrwt>
<pdfrwt beam="2">0</pdfrwt>
<totfact> 0.78805886E-04</totfact>
</mgrwt>
<clustering>
<clus scale="   32.306">  1  6  2 -1</clus>
<clus scale="  459.529">  4  5 -1 -1</clus>
<clus scale="  300.000">  1  4  2 -1</clus>
</clustering>
</event>
<event>
 6    1  0.9964252E-012  0.3000000E+03  0.7818608E-02  0.1093470E+00
          1   -1    0    0  502    0  0.00000000000E+00  0.00000000000E+00  0.23591601506E+03  0.23591601506E+03  0.00000000000E+00 0.  1.
         13   -1    0    0    0    0 -0.00000000000E+00 -0.00000000000E+00 -0.27500000000E+03  0.27500000000E+03  0.00000000000E+00 0.  1.
    9000005    2    1    2  501    0  0.13328337103E+02  0.32309622245E+02 -0.36466812667E+02  0.47586739382E+03  0.47317902724E+03 0.  0.
         13    1    3    3    0    0 -0.60018526316E+02 -0.21149942158E+03 -0.15027033173E+02  0.22036342836E+03  0.00000000000E+00 0.  1.
          1    1    3    3  501    0  0.73346863419E+02  0.24380904383E+03 -0.21439779494E+02  0.25550396547E+03  0.00000000000E+00 0.  1.
         21    1    1    2  502  501 -0.13328337103E+02 -0.32309622245E+02 -0.26171722768E+01  0.35048621232E+02  0.00000000000E+00 0.  1.
<scales pt_clust_4="550.00000" pt_clust_5="550.00000" pt_clust_6="34.95077"></scales>
<mgrwt>
<rscale>  0 0.30000000E+03</rscale>
<asrwt>  1 0.34950769E+02</asrwt>
<pdfrwt beam="1">  1        1 0.85787642E+00 0.30000000E+03</pdfrwt>
<pdfrwt beam="2">0</pdfrwt>
<totfact> 0.34067756E-04</totfact>
</mgrwt>
<clustering>
<clus scale="   34.951">  1  6  2 -1</clus>
<clus scale="  473.179">  4  5 -1 -1</clus>
<clus scale="  300.000">  1  4  2 -1</clus>
</clustering>
</event>
<event>
 6    1  0.9964252E-012  0.3000000E+03  0.7818608E-02  0.1093470E+00
          1   -1    0    0  502    0  0.00000000000E+00  0.00000000000E+00  0.24018109437E+03  0.24018109437E+03  0.00000000000E+00 0.  1.
         13   -1    0    0    0    0 -0.00000000000E+00 -0.00000000000E+00 -0.27500000000E+03  0.27500000000E+03  0.00000000000E+00 0.  1.
    9000005    2    1    2  501    0 -0.32614599948E+02  0.48381073555E+01 -0.42891061372E+02  0.48123585743E+03  0.47818530710E+03 0.  0.
         13    1    3    3    0    0 -0.11627077328E+02  0.14415186683E+03 -0.21481469934E+03  0.25896004458E+03  0.00000000000E+00 0.  1.
          3    1    3    3  501    0 -0.20987522620E+02 -0.13931375948E+03  0.17192363797E+03  0.22227581285E+03  0.00000000000E+00 0.  1.
         21    1    1    2  502  501  0.32614599948E+02 -0.48381073555E+01  0.80721557457E+01  0.33945236940E+02  0.00000000000E+00 0.  1.
<scales pt_clust_4="550.00000" pt_clust_5="550.00000" pt_clust_6="32.97149"></scales>
<mgrwt>
<rscale>  0 0.30000000E+03</rscale>
<asrwt>  1 0.32971494E+02</asrwt>
<pdfrwt beam="1">  1        1 0.87338580E+00 0.30000000E+03</pdfrwt>
<pdfrwt beam="2">0</pdfrwt>
<totfact> 0.23646927E-04</totfact>
</mgrwt>
<clustering>
<clus scale="   32.971">  1  6  2 -1</clus>
<clus scale="  478.185">  4  5 -1 -1</clus>
<clus scale="  300.000">  1  4  2 -1</clus>
</clustering>
</event>
<event>
 6    1  0.9964252E-012  0.3000000E+03  0.7818608E-02  0.1093470E+00
          1   -1    0    0  502    0  0.00000000000E+00  0.00000000000E+00  0.22210265406E+03  0.22210265406E+03  0.00000000000E+00 0.  1.
         13   -1    0    0    0    0 -0.00000000000E+00 -0.00000000000E+00 -0.27500000000E+03  0.27500000000E+03  0.00000000000E+00 0.  1.
    9000005    2    1    2  501    0 -0.43616644051E+00 -0.35647034210E+02 -0.44981954838E+02  0.46058478576E+03  0.45699460316E+03 0.  0.
         13    1    3    3    0    0  0.11207708398E+03  0.65031587593E+02  0.16007048369E+03  0.20594402124E+03  0.00000000000E+00 0.  1.
          3    1    3    3  501    0 -0.11251325042E+03 -0.10067862180E+03 -0.20505243852E+03  0.25464076451E+03  0.00000000000E+00 0.  1.
         21    1    1    2  502  501  0.43616644051E+00  0.35647034210E+02 -0.79153911027E+01  0.36517868303E+02  0.00000000000E+00 0.  1.
<scales pt_clust_4="550.00000" pt_clust_5="550.00000" pt_clust_6="35.64972"></scales>
<mgrwt>
<rscale>  0 0.30000000E+03</rscale>
<asrwt>  1 0.35649720E+02</asrwt>
<pdfrwt beam="1">  1        1 0.80764601E+00 0.30000000E+03</pdfrwt>
<pdfrwt beam="2">0</pdfrwt>
<totfact> 0.90642927E-04</totfact>
</mgrwt>
<clustering>
<clus scale="   35.650">  1  6  2 -1</clus>
<clus scale="  456.995">  4  5 -1 -1</clus>
<clus scale="  300.000">  1  4  2 -1</clus>
</clustering>
</event>
<event>
 6    1  0.9964252E-012  0.3000000E+03  0.7818608E-02  0.1093470E+00
          1   -1    0    0  502    0  0.00000000000E+00  0.00000000000E+00  0.22632857944E+03  0.22632857944E+03  0.00000000000E+00 0.  1.
         13   -1    0    0    0    0 -0.00000000000E+00 -0.00000000000E+00 -0.27500000000E+03  0.27500000000E+03  0.00000000000E+00 0.  1.
    9000005    2    1    2  501    0 -0.19204070193E+02 -0.31820277223E+02 -0.31845979126E+02  0.46053125313E+03  0.45792307473E+03 0.  0.
         13    1    3    3    0    0 -0.44480464862E+02  0.19783244377E+03  0.60675670317E+02  0.21165472952E+03  0.00000000000E+00 0.  1.
          3    1    3    3  501    0  0.25276394669E+02 -0.22965272099E+03 -0.92521649443E+02  0.24887652360E+03  0.00000000000E+00 0.  1.
         21    1    1    2  502  501  0.19204070193E+02  0.31820277223E+02 -0.16825441436E+02  0.40797326310E+02  0.00000000000E+00 0. -1.
<scales pt_clust_4="550.00000" pt_clust_5="550.00000" pt_clust_6="37.16622"></scales>
<mgrwt>
<rscale>  0 0.30000000E+03</rscale>
<asrwt>  1 0.37166218E+02</asrwt>
<pdfrwt beam="1">  1        1 0.82301302E+00 0.30000000E+03</pdfrwt>
<pdfrwt beam="2">0</pdfrwt>
<totfact> 0.67285570E-04</totfact>
</mgrwt>
<clustering>
<clus scale="   37.166">  1  6  2 -1</clus>
<clus scale="  457.923">  4  5 -1 -1</clus>
<clus scale="  300.000">  1  4  2 -1</clus>
</clustering>
</event>
<event>
 6    1  0.9964252E-012  0.3000000E+03  0.7818608E-02  0.1093470E+00
          1   -1    0    0  502    0  0.00000000000E+00  0.00000000000E+00  0.22721695852E+03  0.22721695852E+03  0.00000000000E+00 0.  1.
         13   -1    0    0    0    0 -0.00000000000E+00 -0.00000000000E+00 -0.27500000000E+03  0.27500000000E+03  0.00000000000E+00 0.  1.
    9000005    2    1    2  501    0 -0.26074562358E+02  0.17526845627E+02 -0.45809819645E+02  0.47073733457E+03  0.46744842011E+03 0.  0.
         13    1    3    3    0    0  0.20597297913E+03  0.24415098362E+02 -0.10309568058E+03  0.23162401541E+03  0.00000000000E+00 0.  1.
          3    1    3    3  501    0 -0.23204754149E+03 -0.68882527357E+01  0.57285860934E+02  0.23911331916E+03  0.00000000000E+00 0.  1.
         21    1    1    2  502  501  0.26074562358E+02 -0.17526845627E+02 -0.19732218343E+01  0.31479623953E+02  0.00000000000E+00 0. -1.
<scales pt_clust_4="550.00000" pt_clust_5="550.00000" pt_clust_6="31.41772"></scales>
<mgrwt>
<rscale>  0 0.30000000E+03</rscale>
<asrwt>  1 0.31417720E+02</asrwt>
<pdfrwt beam="1">  1        1 0.82624349E+00 0.30000000E+03</pdfrwt>
<pdfrwt beam="2">0</pdfrwt>
<totfact> 0.64986295E-04</totfact>
</mgrwt>
<clustering>
<clus scale="   31.418">  1  6  2 -1</clus>
<clus scale="  467.448">  4  5 -1 -1</clus>
<clus scale="  300.000">  1  4  2 -1</clus>
</clustering>
</event>
<event>
 6    1  0.9964252E-012  0.3000000E+03  0.7818608E-02  0.1093470E+00
          1   -1    0    0  502    0  0.00000000000E+00  0.00000000000E+00  0.24024821763E+03  0.24024821763E+03  0.00000000000E+00 0.  1.
         13   -1    0    0    0    0 -0.00000000000E+00 -0.00000000000E+00 -0.27500000000E+03  0.27500000000E+03  0.00000000000E+00 0.  1.
    9000005    2    1    2  501    0 -0.12949463109E+02  0.27987383738E+02 -0.14593645475E+02  0.47840622085E+03  0.47718817611E+03 0.  0.
         13    1    3    3    0    0 -0.56706474819E+02 -0.21913143675E+03  0.74891597982E+01  0.22647361518E+03  0.00000000000E+00 0.  1.
          3    1    3    3  501    0  0.43757011710E+02  0.24711882049E+03 -0.22082805273E+02  0.25193260567E+03  0.00000000000E+00 0.  1.
         21    1    1    2  502  501  0.12949463109E+02 -0.27987383738E+02 -0.20158136897E+02  0.36841996776E+02  0.00000000000E+00 0. -1.
<scales pt_clust_4="550.00000" pt_clust_5="550.00000" pt_clust_6="30.83802"></scales>
<mgrwt>
<rscale>  0 0.30000000E+03</rscale>
<asrwt>  1 0.30838015E+02</asrwt>
<pdfrwt beam="1">  1        1 0.87362988E+00 0.30000000E+03</pdfrwt>
<pdfrwt beam="2">0</pdfrwt>
<totfact> 0.23811122E-04</totfact>
</mgrwt>
<clustering>
<clus scale="   30.838">  1  6  2 -1</clus>
<clus scale="  477.188">  4  5 -1 -1</clus>
<clus scale="  300.000">  1  4  2 -1</clus>
</clustering>
</event>
<event>
 6    1  0.9964252E-012  0.3000000E+03  0.7818608E-02  0.1093470E+00
          1   -1    0    0  502    0  0.00000000000E+00  0.00000000000E+00  0.22418293448E+03  0.22418293448E+03  0.00000000000E+00 0.  1.
         13   -1    0    0    0    0 -0.00000000000E+00 -0.00000000000E+00 -0.27500000000E+03  0.27500000000E+03  0.00000000000E+00 0.  1.
    9000005    2    1    2  501    0 -0.18646602787E+02 -0.29826683956E+02 -0.55709702838E+02  0.46366864481E+03  0.45896373965E+03 0.  0.
         13    1    3    3    0    0 -0.31491556263E+02  0.17544996348E+03 -0.15413584829E+03  0.23565285386E+03  0.00000000000E+00 0.  1.
          1    1    3    3  501    0  0.12844953475E+02 -0.20527664744E+03  0.98426145457E+02  0.22801579095E+03  0.00000000000E+00 0.  1.
         21    1    1    2  502  501  0.18646602787E+02  0.29826683956E+02  0.48926373199E+01  0.35514289677E+02  0.00000000000E+00 0.  1.
<scales pt_clust_4="550.00000" pt_clust_5="550.00000" pt_clust_6="35.17566"></scales>
<mgrwt>
<rscale>  0 0.30000000E+03</rscale>
<asrwt>  1 0.35175657E+02</asrwt>
<pdfrwt beam="1">  1        1 0.81521067E+00 0.30000000E+03</pdfrwt>
<pdfrwt beam="2">0</pdfrwt>
<totfact> 0.79218323E-04</totfact>
</mgrwt>
<clustering>
<clus scale="   35.176">  1  6  2 -1</clus>
<clus scale="  458.964">  4  5 -1 -1</clus>
<clus scale="  300.000">  1  4  2 -1</clus>
</clustering>
</event>
<event>
 6    1  0.9964252E-012  0.3000000E+03  0.7818608E-02  0.1093470E+00
          1   -1    0    0  502    0  0.00000000000E+00  0.00000000000E+00  0.23095325979E+03  0.23095325979E+03  0.00000000000E+00 0.  1.
         13   -1    0    0    0    0 -0.00000000000E+00 -0.00000000000E+00 -0.27500000000E+03  0.27500000000E+03  0.00000000000E+00 0.  1.
    9000005    2    1    2  501    0  0.44419625201E+02  0.90080655417E+00 -0.49804475704E+02  0.46115296879E+03  0.45629777587E+03 0.  0.
         13    1    3    3    0    0  0.89993272398E+02  0.10173115503E+03 -0.21976322953E+03  0.25834839662E+03  0.00000000000E+00 0.  1.
          3    1    3    3  501    0 -0.45573647197E+02 -0.10083034848E+03  0.16995875382E+03  0.20280457217E+03  0.00000000000E+00 0.  1.
         21    1    1    2  502  501 -0.44419625201E+02 -0.90080655417E+00  0.57577354899E+01  0.44800290997E+02  0.00000000000E+00 0. -1.
<scales pt_clust_4="550.00000" pt_clust_5="550.00000" pt_clust_6="44.42876"></scales>
<mgrwt>
<rscale>  0 0.30000000E+03</rscale>
<asrwt>  1 0.44428758E+02</asrwt>
<pdfrwt beam="1">  1        1 0.83983004E+00 0.30000000E+03</pdfrwt>
<pdfrwt beam="2">0</pdfrwt>
<totfact> 0.47724064E-04</totfact>
</mgrwt>
<clustering>
<clus scale="   44.429">  1  6  2 -1</clus>
<clus scale="  456.298">  4  5 -1 -1</clus>
<clus scale="  300.000">  1  4  2 -1</clus>
</clustering>
</event>
<event>
 6    1  0.9964252E-012  0.3000000E+03  0.7818608E-02  0.1093470E+00
          1   -1    0    0  502    0  0.00000000000E+00  0.00000000000E+00  0.23512124117E+03  0.23512124117E+03  0.00000000000E+00 0.  1.
         13   -1    0    0    0    0 -0.00000000000E+00 -0.00000000000E+00 -0.27500000000E+03  0.27500000000E+03  0.00000000000E+00 0.  1.
    9000005    2    1    2  501    0  0.24142103711E+02  0.23560231993E+02 -0.69749139540E+02  0.46506388498E+03  0.45856466168E+03 0.  0.
         13    1    3    3    0    0  0.17160659064E+03  0.90005830852E+02  0.11035101593E+03  0.22299600502E+03  0.00000000000E+00 0.  1.
          1    1    3    3  501    0 -0.14746448692E+03 -0.66445598859E+02 -0.18010015547E+03  0.24206787996E+03  0.00000000000E+00 0.  1.
         21    1    1    2  502  501 -0.24142103711E+02 -0.23560231993E+02  0.29870380713E+02  0.45057356193E+02  0.00000000000E+00 0.  1.
<scales pt_clust_4="550.00000" pt_clust_5="550.00000" pt_clust_6="33.73315"></scales>
<mgrwt>
<rscale>  0 0.30000000E+03</rscale>
<asrwt>  1 0.33733154E+02</asrwt>
<pdfrwt beam="1">  1        1 0.85498633E+00 0.30000000E+03</pdfrwt>
<pdfrwt beam="2">0</pdfrwt>
<totfact> 0.36698067E-04</totfact>
</mgrwt>
<clustering>
<clus scale="   33.733">  1  6  2 -1</clus>
<clus scale="  458.565">  4  5 -1 -1</clus>
<clus scale="  300.000">  1  4  2 -1</clus>
</clustering>
</event>
<event>
 6    1  0.9964252E-012  0.3000000E+03  0.7818608E-02  0.1093470E+00
          1   -1    0    0  502    0  0.00000000000E+00  0.00000000000E+00  0.22259255715E+03  0.22259255715E+03  0.00000000000E+00 0.  1.
         13   -1    0    0    0    0 -0.00000000000E+00 -0.00000000000E+00 -0.27500000000E+03  0.27500000000E+03  0.00000000000E+00 0.  1.
    9000005    2    1    2  501    0 -0.22694496429E+02 -0.24361505694E+02 -0.52801329564E+02  0.46429573636E+03  0.46008045739E+03 0.  0.
         13    1    3    3    0    0 -0.14338042073E+03 -0.20110123786E+03 -0.36473566113E+02  0.24965971630E+03  0.00000000000E+00 0.  1.
          3    1    3    3  501    0  0.12068592431E+03  0.17673973216E+03 -0.16327763451E+02  0.21463602007E+03  0.00000000000E+00 0.  1.
         21    1    1    2  502  501  0.22694496429E+02  0.24361505694E+02  0.39388671681E+00  0.33296820788E+02  0.00000000000E+00 0.  1.
<scales pt_clust_4="550.00000" pt_clust_5="550.00000" pt_clust_6="33.29449"></scales>
<mgrwt>
<rscale>  0 0.30000000E+03</rscale>
<asrwt>  1 0.33294491E+02</asrwt>
<pdfrwt beam="1">  1        1 0.80942748E+00 0.30000000E+03</pdfrwt>
<pdfrwt beam="2">0</pdfrwt>
<totfact> 0.88945201E-04</totfact>
</mgrwt>
<clustering>
<clus scale="   33.294">  1  6  2 -1</clus>
<clus scale="  460.080">  4  5 -1 -1</clus>
<clus scale="  300.000">  1  4  2 -1</clus>
</clustering>
</event>
<event>
 6    1  0.9964252E-012  0.3000000E+03  0.7818608E-02  0.1093470E+00
          1   -1    0    0  502    0  0.00000000000E+00  0.00000000000E+00  0.24205623353E+03  0.24205623353E+03  0.00000000000E+00 0.  1.
         13   -1    0    0    0    0 -0.00000000000E+00 -0.00000000000E+00 -0.27500000000E+03  0.27500000000E+03  0.00000000000E+00 0.  1.
    9000005    2    1    2  501    0 -0.87330770731E+01  0.44242380304E+02 -0.34818631162E+02  0.47192121422E+03  0.46846946593E+03 0.  0.
         13    1    3    3    0    0 -0.13412808439E+03  0.12285330029E+03  0.14956708610E+03  0.23548585872E+03  0.00000000000E+00 0.  1.
          1    1    3    3  501    0  0.12539500732E+03 -0.78610919985E+02 -0.18438571726E+03  0.23643535550E+03  0.00000000000E+00 0.  1.
         21    1    1    2  502  501  0.87330770731E+01 -0.44242380304E+02  0.18748646917E+01  0.45135019306E+02  0.00000000000E+00 0.  1.
<scales pt_clust_4="550.00000" pt_clust_5="550.00000" pt_clust_6="45.09606"></scales>
<mgrwt>
<rscale>  0 0.30000000E+03</rscale>
<asrwt>  1 0.45096062E+02</asrwt>
<pdfrwt beam="1">  1        1 0.88020449E+00 0.30000000E+03</pdfrwt>
<pdfrwt beam="2">0</pdfrwt>
<totfact> 0.18735000E-04</totfact>
</mgrwt>
<clustering>
<clus scale="   45.096">  1  6  2 -1</clus>
<clus scale="  468.469">  4  5 -1 -1</clus>
<clus scale="  300.000">  1  4  2 -1</clus>
</clustering>
</event>
<event>
 6    1  0.9964252E-012  0.3000000E+03  0.7818608E-02  0.1093470E+00
          1   -1    0    0  502    0  0.00000000000E+00  0.00000000000E+00  0.22270573327E+03  0.22270573327E+03  0.00000000000E+00 0.  1.
         13   -1    0    0    0    0 -0.00000000000E+00 -0.00000000000E+00 -0.27500000000E+03  0.27500000000E+03  0.00000000000E+00 0.  1.
    9000005    2    1    2  501    0  0.26732386003E+02 -0.17547706699E+02 -0.66894545324E+02  0.46255305760E+03  0.45657190937E+03 0.  0.
         13    1    3    3    0    0  0.19042173659E+03 -0.53905122573E+02  0.10363326200E+03  0.22339662709E+03  0.00000000000E+00 0.  1.
          3    1    3    3  501    0 -0.16368935058E+03  0.36357415874E+02 -0.17052780732E+03  0.23915643051E+03  0.00000000000E+00 0.  1.
         21    1    1    2  502  501 -0.26732386003E+02  0.17547706699E+02  0.14600278596E+02  0.35152675672E+02  0.00000000000E+00 0.  1.
<scales pt_clust_4="550.00000" pt_clust_5="550.00000" pt_clust_6="31.97722"></scales>
<mgrwt>
<rscale>  0 0.30000000E+03</rscale>
<asrwt>  1 0.31977218E+02</asrwt>
<pdfrwt beam="1">  1        1 0.80983903E+00 0.30000000E+03</pdfrwt>
<pdfrwt beam="2">0</pdfrwt>
<totfact> 0.88969709E-04</totfact>
</mgrwt>
<clustering>
<clus scale="   31.977">  1  6  2 -1</clus>
<clus scale="  456.572">  4  5 -1 -1</clus>
<clus scale="  300.000">  1  4  2 -1</clus>
</clustering>
</event>
<event>
 6    1  0.9964252E-012  0.3000000E+03  0.7818608E-02  0.1093470E+00
          1   -1    0    0  502    0  0.00000000000E+00  0.00000000000E+00  0.25458887821E+03  0.25458887821E+03  0.00000000000E+00 0.  1.
         13   -1    0    0    0    0 -0.00000000000E+00 -0.00000000000E+00 -0.27500000000E+03  0.27500000000E+03  0.00000000000E+00 0.  1.
    9000005    2    1    2  501    0 -0.97496460941E+01  0.29813508466E+02 -0.18099506787E+02  0.49813662153E+03  0.49681847860E+03 0.  0.
         13    1    3    3    0    0  0.14278693226E+03  0.20924839134E+03  0.37684509378E+02  0.25611153732E+03  0.00000000000E+00 0.  1.
          3    1    3    3  501    0 -0.15253657835E+03 -0.17943488287E+03 -0.55784016165E+02  0.24202508421E+03  0.00000000000E+00 0.  1.
         21    1    1    2  502  501  0.97496460941E+01 -0.29813508466E+02 -0.23116150063E+01  0.31452256675E+02  0.00000000000E+00 0.  1.
<scales pt_clust_4="550.00000" pt_clust_5="550.00000" pt_clust_6="31.36721"></scales>
<mgrwt>
<rscale>  0 0.30000000E+03</rscale>
<asrwt>  1 0.31367210E+02</asrwt>
<pdfrwt beam="1">  1        1 0.92577774E+00 0.30000000E+03</pdfrwt>
<pdfrwt beam="2">0</pdfrwt>
<totfact> 0.32267093E-05</totfact>
</mgrwt>
<clustering>
<clus scale="   31.367">  1  6  2 -1</clus>
<clus scale="  496.818">  4  5 -1 -1</clus>
<clus scale="  300.000">  1  4  2 -1</clus>
</clustering>
</event>
<event>
 6    1  0.9964252E-012  0.3000000E+03  0.7818608E-02  0.1093470E+00
          1   -1    0    0  502    0  0.00000000000E+00  0.00000000000E+00  0.22528651926E+03  0.22528651926E+03  0.00000000000E+00 0.  1.
         13   -1    0    0    0    0 -0.00000000000E+00 -0.00000000000E+00 -0.27500000000E+03  0.27500000000E+03  0.00000000000E+00 0.  1.
    9000005    2    1    2  501    0 -0.31119251299E+02 -0.89214707742E+01 -0.65120414104E+02  0.46443440582E+03  0.45870540495E+03 0.  0.
         13    1    3    3    0    0 -0.10285237546E+03  0.35016791271E+02 -0.24381614911E+03  0.26692901936E+03  0.00000000000E+00 0.  1.
          1    1    3    3  501    0  0.71733124157E+02 -0.43938262046E+02  0.17869573501E+03  0.19750538646E+03  0.00000000000E+00 0.  1.
         21    1    1    2  502  501  0.31119251299E+02  0.89214707742E+01  0.15406933360E+02  0.35852113435E+02  0.00000000000E+00 0. -1.
<scales pt_clust_4="550.00000" pt_clust_5="550.00000" pt_clust_6="32.37283"></scales>
<mgrwt>
<rscale>  0 0.30000000E+03</rscale>
<asrwt>  1 0.32372835E+02</asrwt>
<pdfrwt beam="1">  1        1 0.81922371E+00 0.30000000E+03</pdfrwt>
<pdfrwt beam="2">0</pdfrwt>
<totfact> 0.74538082E-04</totfact>
</mgrwt>
<clustering>
<clus scale="   32.373">  1  6  2 -1</clus>
<clus scale="  458.705">  4  5 -1 -1</clus>
<clus scale="  300.000">  1  4  2 -1</clus>
</clustering>
</event>
<event>
 6    1  0.9964252E-012  0.3000000E+03  0.7818608E-02  0.1093470E+00
          1   -1    0    0  502    0  0.00000000000E+00  0.00000000000E+00  0.23811890654E+03  0.23811890654E+03  0.00000000000E+00 0.  1.
         13   -1    0    0    0    0 -0.00000000000E+00 -0.00000000000E+00 -0.27500000000E+03  0.27500000000E+03  0.00000000000E+00 0.  1.
    9000005    2    1    2  501    0  0.16411401958E+02 -0.25152920612E+02 -0.25677651840E+02  0.48106394384E+03  0.47943839305E+03 0.  0.
         13    1    3    3    0    0  0.16178020056E+03 -0.17839916477E+03 -0.94797992233E+02  0.25881606329E+03  0.00000000000E+00 0.  1.
          3    1    3    3  501    0 -0.14536879860E+03  0.15324624416E+03  0.69120340394E+02  0.22224788056E+03  0.00000000000E+00 0.  1.
         21    1    1    2  502  501 -0.16411401958E+02  0.25152920612E+02 -0.11203441619E+02  0.32054962699E+02  0.00000000000E+00 0. -1.
<scales pt_clust_4="550.00000" pt_clust_5="550.00000" pt_clust_6="30.03339"></scales>
<mgrwt>
<rscale>  0 0.30000000E+03</rscale>
<asrwt>  1 0.30033389E+02</asrwt>
<pdfrwt beam="1">  1        1 0.86588693E+00 0.30000000E+03</pdfrwt>
<pdfrwt beam="2">0</pdfrwt>
<totfact> 0.28774879E-04</totfact>
</mgrwt>
<clustering>
<clus scale="   30.033">  1  6  2 -1</clus>
<clus scale="  479.438">  4  5 -1 -1</clus>
<clus scale="  300.000">  1  4  2 -1</clus>
</clustering>
</event>
<event>
 6    1  0.9964252E-012  0.3000000E+03  0.7818608E-02  0.1093470E+00
          1   -1    0    0  502    0  0.00000000000E+00  0.00000000000E+00  0.23437160592E+03  0.23437160592E+03  0.00000000000E+00 0.  1.
         13   -1    0    0    0    0 -0.00000000000E+00 -0.00000000000E+00 -0.27500000000E+03  0.27500000000E+03  0.00000000000E+00 0.  1.
    9000005    2    1    2  501    0  0.13730240521E+02  0.29705115847E+02 -0.70943795199E+02  0.46476289649E+03  0.45814911815E+03 0.  0.
         13    1    3    3    0    0 -0.13842266941E+03  0.12737099105E+03  0.10249927310E+03  0.21422022723E+03  0.00000000000E+00 0.  1.
          3    1    3    3  501    0  0.15215290993E+03 -0.97665875201E+02 -0.17344306830E+03  0.25054266926E+03  0.00000000000E+00 0.  1.
         21    1    1    2  502  501 -0.13730240521E+02 -0.29705115847E+02  0.30315401118E+02  0.44608709432E+02  0.00000000000E+00 0.  1.
<scales pt_clust_4="550.00000" pt_clust_5="550.00000" pt_clust_6="32.72481"></scales>
<mgrwt>
<rscale>  0 0.30000000E+03</rscale>
<asrwt>  1 0.32724813E+02</asrwt>
<pdfrwt beam="1">  1        1 0.85226039E+00 0.30000000E+03</pdfrwt>
<pdfrwt beam="2">0</pdfrwt>
<totfact> 0.39229558E-04</totfact>
</mgrwt>
<clustering>
<clus scale="   32.725">  1  6  2 -1</clus>
<clus scale="  458.149">  4  5 -1 -1</clus>
<clus scale="  300.000">  1  4  2 -1</clus>
</clustering>
</event>
<event>
 6    1  0.9964252E-012  0.3000000E+03  0.7818608E-02  0.1093470E+00
          1   -1    0    0  502    0  0.00000000000E+00  0.00000000000E+00  0.24407469292E+03  0.24407469292E+03  0.00000000000E+00 0.  1.
         13   -1    0    0    0    0 -0.00000000000E+00 -0.00000000000E+00 -0.27500000000E+03  0.27500000000E+03  0.00000000000E+00 0.  1.
    9000005    2    1    2  501    0  0.49088830276E+02  0.21064049089E+02 -0.50744277675E+02  0.46209926824E+03  0.45618783913E+03 0.  0.
         13    1    3    3    0    0  0.38254527681E+02  0.22923482122E+03 -0.91377193522E+02  0.24972345433E+03  0.00000000000E+00 0.  1.
          1    1    3    3  501    0  0.10834302595E+02 -0.20817077213E+03  0.40632915847E+02  0.21237581391E+03  0.00000000000E+00 0.  1.
         21    1    1    2  502  501 -0.49088830276E+02 -0.21064049089E+02  0.19818970597E+02  0.56975424679E+02  0.00000000000E+00 0.  1.
<scales pt_clust_4="550.00000" pt_clust_5="550.00000" pt_clust_6="53.41730"></scales>
<mgrwt>
<rscale>  0 0.30000000E+03</rscale>
<asrwt>  1 0.53417295E+02</asrwt>
<pdfrwt beam="1">  1        1 0.88754434E+00 0.30000000E+03</pdfrwt>
<pdfrwt beam="2">0</pdfrwt>
<totfact> 0.14506861E-04</totfact>
</mgrwt>
<clustering>
<clus scale="   53.417">  1  6  2 -1</clus>
<clus scale="  456.188">  4  5 -1 -1</clus>
<clus scale="  300.000">  1  4  2 -1</clus>
</clustering>
</event>
<event>
 6    1  0.9964252E-012  0.3000000E+03  0.7818608E-02  0.1093470E+00
          1   -1    0    0  502    0  0.00000000000E+00  0.00000000000E+00  0.26254670560E+03  0.26254670560E+03  0.00000000000E+00 0.  1.
         13   -1    0    0    0    0 -0.00000000000E+00 -0.00000000000E+00 -0.27500000000E+03  0.27500000000E+03  0.00000000000E+00 0.  1.
    9000005    2    1    2  501    0  0.33366415877E+01  0.30728786531E+02 -0.59422820766E+02  0.48131923984E+03  0.47663586469E+03 0.  0.
         13    1    3    3    0    0  0.65836049006E+02  0.18343462576E+03 -0.18902769153E+03  0.27150343541E+03  0.00000000000E+00 0.  1.
          1    1    3    3  501    0 -0.62499407419E+02 -0.15270583923E+03  0.12960487076E+03  0.20981580443E+03  0.00000000000E+00 0.  1.
         21    1    1    2  502  501 -0.33366415877E+01 -0.30728786531E+02  0.46969526366E+02  0.56227465760E+02  0.00000000000E+00 0.  1.
<scales pt_clust_4="550.00000" pt_clust_5="550.00000" pt_clust_6="30.90941"></scales>
<mgrwt>
<rscale>  0 0.30000000E+03</rscale>
<asrwt>  1 0.30909408E+02</asrwt>
<pdfrwt beam="1">  1        1 0.95471529E+00 0.30000000E+03</pdfrwt>
<pdfrwt beam="2">0</pdfrwt>
<totfact> 0.10077343E-05</totfact>
</mgrwt>
<clustering>
<clus scale="   30.909">  1  6  2 -1</clus>
<clus scale="  476.636">  4  5 -1 -1</clus>
<clus scale="  300.000">  1  4  2 -1</clus>
</clustering>
</event>
<event>
 6    1  0.9964252E-012  0.3000000E+03  0.7818608E-02  0.1093470E+00
          1   -1    0    0  502    0  0.00000000000E+00  0.00000000000E+00  0.23836470179E+03  0.23836470179E+03  0.00000000000E+00 0.  1.
         13   -1    0    0    0    0 -0.00000000000E+00 -0.00000000000E+00 -0.27500000000E+03  0.27500000000E+03  0.00000000000E+00 0.  1.
    9000005    2    1    2  501    0  0.25796876952E+02 -0.21381780403E+02 -0.59074113176E+02  0.47303902993E+03  0.46813834878E+03 0.  0.
         13    1    3    3    0    0  0.24328414822E+03 -0.37433523710E+02  0.34598501354E+01  0.24617151751E+03  0.00000000000E+00 0.  1.
          1    1    3    3  501    0 -0.21748727126E+03  0.16051743307E+02 -0.62533963311E+02  0.22686751242E+03  0.00000000000E+00 0.  1.
         21    1    1    2  502  501 -0.25796876952E+02  0.21381780403E+02  0.22438814969E+02  0.40325671859E+02  0.00000000000E+00 0. -1.
<scales pt_clust_4="550.00000" pt_clust_5="550.00000" pt_clust_6="33.50611"></scales>
<mgrwt>
<rscale>  0 0.30000000E+03</rscale>
<asrwt>  1 0.33506110E+02</asrwt>
<pdfrwt beam="1">  1        1 0.86678073E+00 0.30000000E+03</pdfrwt>
<pdfrwt beam="2">0</pdfrwt>
<totfact> 0.27571727E-04</totfact>
</mgrwt>
<clustering>
<clus scale="   33.506">  1  6  2 -1</clus>
<clus scale="  468.138">  4  5 -1 -1</clus>
<clus scale="  300.000">  1  4  2 -1</clus>
</clustering>
</event>
<event>
 6    1  0.9964252E-012  0.3000000E+03  0.7818608E-02  0.1093470E+00
          1   -1    0    0  502    0  0.00000000000E+00  0.00000000000E+00  0.22796424720E+03  0.22796424720E+03  0.00000000000E+00 0.  1.
         13   -1    0    0    0    0 -0.00000000000E+00 -0.00000000000E+00 -0.27500000000E+03  0.27500000000E+03  0.00000000000E+00 0.  1.
    9000005    2    1    2  501    0 -0.27552366024E+02  0.30866125956E+02 -0.39297052585E+02  0.46087222793E+03  0.45732603417E+03 0.  0.
         13    1    3    3    0    0  0.12205736272E+03 -0.16872553102E+03 -0.36481701279E+02  0.21141716851E+03  0.00000000000E+00 0.  1.
          3    1    3    3  501    0 -0.14960972874E+03  0.19959165698E+03 -0.28153513063E+01  0.24945505942E+03  0.00000000000E+00 0.  1.
         21    1    1    2  502  501  0.27552366024E+02 -0.30866125956E+02 -0.77387002159E+01  0.42092019268E+02  0.00000000000E+00 0.  1.
<scales pt_clust_4="550.00000" pt_clust_5="550.00000" pt_clust_6="41.37454"></scales>
<mgrwt>
<rscale>  0 0.30000000E+03</rscale>
<asrwt>  1 0.41374537E+02</asrwt>
<pdfrwt beam="1">  1        1 0.82896090E+00 0.30000000E+03</pdfrwt>
<pdfrwt beam="2">0</pdfrwt>
<totfact> 0.58468778E-04</totfact>
</mgrwt>
<clustering>
<clus scale="   41.375">  1  6  2 -1</clus>
<clus scale="  457.326">  4  5 -1 -1</clus>
<clus scale="  300.000">  1  4  2 -1</clus>
</clustering>
</event>
<event>
 6    1  0.9964252E-012  0.3000000E+03  0.7818608E-02  0.1093470E+00
          1   -1    0    0  502    0  0.00000000000E+00  0.00000000000E+00  0.24554826878E+03  0.24554826878E+03  0.00000000000E+00 0.  1.
         13   -1    0    0    0    0 -0.00000000000E+00 -0.00000000000E+00 -0.27500000000E+03  0.27500000000E+03  0.00000000000E+00 0.  1.
    9000005    2    1    2  501    0  0.20206089696E+02  0.22563261161E+02 -0.43042832275E+02  0.48735030434E+03  0.48449999682E+03 0.  0.
         13    1    3    3    0    0  0.17007597011E+03 -0.13164881450E+02 -0.20306991836E+03  0.26521037207E+03  0.00000000000E+00 0.  1.
          3    1    3    3  501    0 -0.14986988042E+03  0.35728142611E+02  0.16002708608E+03  0.22213993227E+03  0.00000000000E+00 0.  1.
         21    1    1    2  502  501 -0.20206089696E+02 -0.22563261161E+02  0.13591101055E+02  0.33197964439E+02  0.00000000000E+00 0.  1.
<scales pt_clust_4="550.00000" pt_clust_5="550.00000" pt_clust_6="30.28839"></scales>
<mgrwt>
<rscale>  0 0.30000000E+03</rscale>
<asrwt>  1 0.30288394E+02</asrwt>
<pdfrwt beam="1">  1        1 0.89290280E+00 0.30000000E+03</pdfrwt>
<pdfrwt beam="2">0</pdfrwt>
<totfact> 0.13698147E-04</totfact>
</mgrwt>
<clustering>
<clus scale="   30.288">  1  6  2 -1</clus>
<clus scale="  484.500">  4  5 -1 -1</clus>
<clus scale="  300.000">  1  4  2 -1</clus>
</clustering>
</event>
<event>
 6    1  0.9964252E-012  0.3000000E+03  0.7818608E-02  0.1093470E+00
          1   -1    0    0  502    0  0.00000000000E+00  0.00000000000E+00  0.22272849263E+03  0.22272849263E+03  0.00000000000E+00 0.  1.
         13   -1    0    0    0    0 -0.00000000000E+00 -0.00000000000E+00 -0.27500000000E+03  0.27500000000E+03  0.00000000000E+00 0.  1.
    9000005    2    1    2  501    0  0.27164236109E+02  0.14265806488E+02 -0.54884685860E+02  0.46693502482E+03  0.46268194227E+03 0.  0.
         13    1    3    3    0    0 -0.42008834333E+02  0.53922859801E+02  0.19394723005E+03  0.20564032926E+03  0.00000000000E+00 0.  1.
          1    1    3    3  501    0  0.69173070442E+02 -0.39657053312E+02 -0.24883191591E+03  0.26129469556E+03  0.00000000000E+00 0.  1.
         21    1    1    2  502  501 -0.27164236109E+02 -0.14265806488E+02  0.26131784899E+01  0.30793467813E+02  0.00000000000E+00 0. -1.
<scales pt_clust_4="550.00000" pt_clust_5="550.00000" pt_clust_6="30.68239"></scales>
<mgrwt>
<rscale>  0 0.30000000E+03</rscale>
<asrwt>  1 0.30682388E+02</asrwt>
<pdfrwt beam="1">  1        1 0.80992179E+00 0.30000000E+03</pdfrwt>
<pdfrwt beam="2">0</pdfrwt>
<totfact> 0.89541908E-04</totfact>
</mgrwt>
<clustering>
<clus scale="   30.682">  1  6  2 -1</clus>
<clus scale="  462.682">  4  5 -1 -1</clus>
<clus scale="  300.000">  1  4  2 -1</clus>
</clustering>
</event>
<event>
 6    1  0.9964252E-012  0.3000000E+03  0.7818608E-02  0.1093470E+00
          1   -1    0    0  502    0  0.00000000000E+00  0.00000000000E+00  0.23763459706E+03  0.23763459706E+03  0.00000000000E+00 0.  1.
         13   -1    0    0    0    0 -0.00000000000E+00 -0.00000000000E+00 -0.27500000000E+03  0.27500000000E+03  0.00000000000E+00 0.  1.
    9000005    2    1    2  501    0 -0.46227062435E+00 -0.42519475917E+02 -0.62893455345E+02  0.46303821628E+03  0.45677202573E+03 0.  0.
         13    1    3    3    0    0 -0.10114087692E+03 -0.22152314254E+03 -0.81566090322E+02  0.25681706866E+03  0.00000000000E+00 0.  1.
          1    1    3    3  501    0  0.10067860629E+03  0.17900366662E+03  0.18672634977E+02  0.20622114762E+03  0.00000000000E+00 0.  1.
         21    1    1    2  502  501  0.46227062435E+00  0.42519475917E+02  0.25528052402E+02  0.49596380773E+02  0.00000000000E+00 0. -1.
<scales pt_clust_4="550.00000" pt_clust_5="550.00000" pt_clust_6="42.52199"></scales>
<mgrwt>
<rscale>  0 0.30000000E+03</rscale>
<asrwt>  1 0.42521989E+02</asrwt>
<pdfrwt beam="1">  1        1 0.86412581E+00 0.30000000E+03</pdfrwt>
<pdfrwt beam="2">0</pdfrwt>
<totfact> 0.28171461E-04</totfact>
</mgrwt>
<clustering>
<clus scale="   42.522">  1  6  2 -1</clus>
<clus scale="  456.772">  4  5 -1 -1</clus>
<clus scale="  300.000">  1  4  2 -1</clus>
</clustering>
</event>
<event>
 6    1  0.9964252E-012  0.3000000E+03  0.7818608E-02  0.1093470E+00
          1   -1    0    0  502    0  0.00000000000E+00  0.00000000000E+00  0.22871535162E+03  0.22871535162E+03  0.00000000000E+00 0.  1.
         13   -1    0    0    0    0 -0.00000000000E+00 -0.00000000000E+00 -0.27500000000E+03  0.27500000000E+03  0.00000000000E+00 0.  1.
    9000005    2    1    2  501    0  0.28563749513E+02 -0.17391176139E+02 -0.68674125715E+02  0.46347073100E+03  0.45713306832E+03 0.  0.
         13    1    3    3    0    0 -0.75746883821E+02 -0.12775758784E+03 -0.20920341159E+03  0.25656511665E+03  0.00000000000E+00 0.  1.
          1    1    3    3  501    0  0.10431063333E+03  0.11036641170E+03  0.14052928588E+03  0.20690561435E+03  0.00000000000E+00 0.  1.
         21    1    1    2  502  501 -0.28563749513E+02  0.17391176139E+02  0.22389477333E+02  0.40244620621E+02  0.00000000000E+00 0. -1.
<scales pt_clust_4="550.00000" pt_clust_5="550.00000" pt_clust_6="33.44160"></scales>
<mgrwt>
<rscale>  0 0.30000000E+03</rscale>
<asrwt>  1 0.33441603E+02</asrwt>
<pdfrwt beam="1">  1        1 0.83169219E+00 0.30000000E+03</pdfrwt>
<pdfrwt beam="2">0</pdfrwt>
<totfact> 0.57775256E-04</totfact>
</mgrwt>
<clustering>
<clus scale="   33.442">  1  6  2 -1</clus>
<clus scale="  457.133">  4  5 -1 -1</clus>
<clus scale="  300.000">  1  4  2 -1</clus>
</clustering>
</event>
<event>
 6    1  0.9964252E-012  0.3000000E+03  0.7818608E-02  0.1093470E+00
          1   -1    0    0  502    0  0.00000000000E+00  0.00000000000E+00  0.22737690514E+03  0.22737690514E+03  0.00000000000E+00 0.  1.
         13   -1    0    0    0    0 -0.00000000000E+00 -0.00000000000E+00 -0.27500000000E+03  0.27500000000E+03  0.00000000000E+00 0.  1.
    9000005    2    1    2  501    0  0.28968248012E+02  0.10748046750E+02 -0.69169514515E+02  0.46470824308E+03  0.45849171153E+03 0.  0.
         13    1    3    3    0    0 -0.82506256673E+02 -0.72206247924E+02 -0.22841264090E+03  0.25336408418E+03  0.00000000000E+00 0.  1.
          3    1    3    3  501    0  0.11147450469E+03  0.82954294674E+02  0.15924312638E+03  0.21134415890E+03  0.00000000000E+00 0.  1.
         21    1    1    2  502  501 -0.28968248012E+02 -0.10748046750E+02  0.21546419658E+02  0.37668662067E+02  0.00000000000E+00 0. -1.
<scales pt_clust_4="550.00000" pt_clust_5="550.00000" pt_clust_6="30.89789"></scales>
<mgrwt>
<rscale>  0 0.30000000E+03</rscale>
<asrwt>  1 0.30897895E+02</asrwt>
<pdfrwt beam="1">  1        1 0.82682511E+00 0.30000000E+03</pdfrwt>
<pdfrwt beam="2">0</pdfrwt>
<totfact> 0.64427009E-04</totfact>
</mgrwt>
<clustering>
<clus scale="   30.898">  1  6  2 -1</clus>
<clus scale="  458.492">  4  5 -1 -1</clus>
<clus scale="  300.000">  1  4  2 -1</clus>
</clustering>
</event>
<event>
 6    1  0.9964252E-012  0.3000000E+03  0.7818608E-02  0.1093470E+00
          1   -1    0    0  502    0  0.00000000000E+00  0.00000000000E+00  0.23830791071E+03  0.23830791071E+03  0.00000000000E+00 0.  1.
         13   -1    0    0    0    0 -0.00000000000E+00 -0.00000000000E+00 -0.27500000000E+03  0.27500000000E+03  0.00000000000E+00 0.  1.
    9000005    2    1    2  501    0 -0.40618149364E+02 -0.10444697954E+02 -0.57847781096E+00  0.45796246188E+03  0.45603766958E+03 0.  0.
         13    1    3    3    0    0 -0.10706742806E+03  0.19666896282E+03  0.60657916901E+02  0.23199460763E+03  0.00000000000E+00 0.  1.
          3    1    3    3  501    0  0.66449278693E+02 -0.20711366077E+03 -0.61236394712E+02  0.22596785425E+03  0.00000000000E+00 0.  1.
         21    1    1    2  502  501  0.40618149364E+02  0.10444697954E+02 -0.36113611475E+02  0.55345448837E+02  0.00000000000E+00 0.  1.
<scales pt_clust_4="550.00000" pt_clust_5="550.00000" pt_clust_6="41.93957"></scales>
<mgrwt>
<rscale>  0 0.30000000E+03</rscale>
<asrwt>  1 0.41939570E+02</asrwt>
<pdfrwt beam="1">  1        1 0.86657422E+00 0.30000000E+03</pdfrwt>
<pdfrwt beam="2">0</pdfrwt>
<totfact> 0.26585182E-04</totfact>
</mgrwt>
<clustering>
<clus scale="   41.940">  1  6  2 -1</clus>
<clus scale="  456.038">  4  5 -1 -1</clus>
<clus scale="  300.000">  1  4  2 -1</clus>
</clustering>
</event>
<event>
 6    1  0.9964252E-012  0.3000000E+03  0.7818608E-02  0.1093470E+00
          1   -1    0    0  502    0  0.00000000000E+00  0.00000000000E+00  0.23916507364E+03  0.23916507364E+03  0.00000000000E+00 0.  1.
         13   -1    0    0    0    0 -0.00000000000E+00 -0.00000000000E+00 -0.27500000000E+03  0.27500000000E+03  0.00000000000E+00 0.  1.
    9000005    2    1    2  501    0 -0.25315996078E+02 -0.27657359960E+02 -0.13031175745E+02  0.47028067710E+03  0.46860246958E+03 0.  0.
         13    1    3    3    0    0 -0.98166012534E+02  0.28772574634E+02 -0.22060683411E+03  0.24317031546E+03  0.00000000000E+00 0.  1.
          3    1    3    3  501    0  0.72850016456E+02 -0.56429934593E+02  0.20757565836E+03  0.22711036163E+03  0.00000000000E+00 0.  1.
         21    1    1    2  502  501  0.25315996078E+02  0.27657359960E+02 -0.22803750618E+02  0.43884396539E+02  0.00000000000E+00 0.  1.
<scales pt_clust_4="550.00000" pt_clust_5="550.00000" pt_clust_6="37.49441"></scales>
<mgrwt>
<rscale>  0 0.30000000E+03</rscale>
<asrwt>  1 0.37494408E+02</asrwt>
<pdfrwt beam="1">  1        1 0.86969118E+00 0.30000000E+03</pdfrwt>
<pdfrwt beam="2">0</pdfrwt>
<totfact> 0.25185710E-04</totfact>
</mgrwt>
<clustering>
<clus scale="   37.494">  1  6  2 -1</clus>
<clus scale="  468.602">  4  5 -1 -1</clus>
<clus scale="  300.000">  1  4  2 -1</clus>
</clustering>
</event>
<event>
 6    1  0.9964252E-012  0.3000000E+03  0.7818608E-02  0.1093470E+00
          1   -1    0    0  502    0  0.00000000000E+00  0.00000000000E+00  0.25269089287E+03  0.25269089287E+03  0.00000000000E+00 0.  1.
         13   -1    0    0    0    0 -0.00000000000E+00 -0.00000000000E+00 -0.27500000000E+03  0.27500000000E+03  0.00000000000E+00 0.  1.
    9000005    2    1    2  501    0  0.79779421680E+01  0.34461592335E+02 -0.28273454521E+02  0.49181858673E+03  0.48972939989E+03 0.  0.
         13    1    3    3    0    0  0.78410433435E+02  0.10013177320E+03 -0.23307012824E+03  0.26551130438E+03  0.00000000000E+00 0.  1.
          3    1    3    3  501    0 -0.70432491267E+02 -0.65670180862E+02  0.20479667372E+03  0.22630728236E+03  0.00000000000E+00 0.  1.
         21    1    1    2  502  501 -0.79779421680E+01 -0.34461592335E+02  0.59643473866E+01  0.35872306132E+02  0.00000000000E+00 0.  1.
<scales pt_clust_4="550.00000" pt_clust_5="550.00000" pt_clust_6="35.37300"></scales>
<mgrwt>
<rscale>  0 0.30000000E+03</rscale>
<asrwt>  1 0.35372997E+02</asrwt>
<pdfrwt beam="1">  1        1 0.91887597E+00 0.30000000E+03</pdfrwt>
<pdfrwt beam="2">0</pdfrwt>
<totfact> 0.44147879E-05</totfact>
</mgrwt>
<clustering>
<clus scale="   35.373">  1  6  2 -1</clus>
<clus scale="  489.729">  4  5 -1 -1</clus>
<clus scale="  300.000">  1  4  2 -1</clus>
</clustering>
</event>
<event>
 6    1  0.9964252E-012  0.3000000E+03  0.7818608E-02  0.1093470E+00
          1   -1    0    0  502    0  0.00000000000E+00  0.00000000000E+00  0.22329024665E+03  0.22329024665E+03  0.00000000000E+00 0.  1.
         13   -1    0    0    0    0 -0.00000000000E+00 -0.00000000000E+00 -0.27500000000E+03  0.27500000000E+03  0.00000000000E+00 0.  1.
    9000005    2    1    2  501    0 -0.21938607184E+02  0.25488292829E+02 -0.60634440342E+02  0.46349648867E+03  0.45828103179E+03 0.  0.
         13    1    3    3    0    0  0.14611292939E+03 -0.53746406487E+02 -0.18358106722E+03  0.24070661102E+03  0.00000000000E+00 0.  1.
          3    1    3    3  501    0 -0.16805153657E+03  0.79234699316E+02  0.12294662688E+03  0.22278987765E+03  0.00000000000E+00 0.  1.
         21    1    1    2  502  501  0.21938607184E+02 -0.25488292829E+02  0.89246869900E+01  0.34793757980E+02  0.00000000000E+00 0.  1.
<scales pt_clust_4="550.00000" pt_clust_5="550.00000" pt_clust_6="33.62968"></scales>
<mgrwt>
<rscale>  0 0.30000000E+03</rscale>
<asrwt>  1 0.33629683E+02</asrwt>
<pdfrwt beam="1">  1        1 0.81196453E+00 0.30000000E+03</pdfrwt>
<pdfrwt beam="2">0</pdfrwt>
<totfact> 0.84807199E-04</totfact>
</mgrwt>
<clustering>
<clus scale="   33.630">  1  6  2 -1</clus>
<clus scale="  458.281">  4  5 -1 -1</clus>
<clus scale="  300.000">  1  4  2 -1</clus>
</clustering>
</event>
<event>
 6    1  0.9964252E-012  0.3000000E+03  0.7818608E-02  0.1093470E+00
          1   -1    0    0  502    0  0.00000000000E+00  0.00000000000E+00  0.23356301268E+03  0.23356301268E+03  0.00000000000E+00 0.  1.
         13   -1    0    0    0    0 -0.00000000000E+00 -0.00000000000E+00 -0.27500000000E+03  0.27500000000E+03  0.00000000000E+00 0.  1.
    9000005    2    1    2  501    0 -0.38343962042E+02  0.21710500420E+02 -0.56841139239E+02  0.46188439713E+03  0.45625067227E+03 0.  0.
         13    1    3    3    0    0 -0.21653793602E+03  0.11099165500E+03  0.28662000862E+02  0.24500884781E+03  0.00000000000E+00 0.  1.
          1    1    3    3  501    0  0.17819397397E+03 -0.89281154577E+02 -0.85503140102E+02  0.21687554932E+03  0.00000000000E+00 0.  1.
         21    1    1    2  502  501  0.38343962042E+02 -0.21710500420E+02  0.15404151923E+02  0.46678615554E+02  0.00000000000E+00 0. -1.
<scales pt_clust_4="550.00000" pt_clust_5="550.00000" pt_clust_6="44.06365"></scales>
<mgrwt>
<rscale>  0 0.30000000E+03</rscale>
<asrwt>  1 0.44063650E+02</asrwt>
<pdfrwt beam="1">  1        1 0.84932005E+00 0.30000000E+03</pdfrwt>
<pdfrwt beam="2">0</pdfrwt>
<totfact> 0.39593198E-04</totfact>
</mgrwt>
<clustering>
<clus scale="   44.064">  1  6  2 -1</clus>
<clus scale="  456.251">  4  5 -1 -1</clus>
<clus scale="  300.000">  1  4  2 -1</clus>
</clustering>
</event>
<event>
 6    1  0.9964252E-012  0.3000000E+03  0.7818608E-02  0.1093470E+00
          1   -1    0    0  502    0  0.00000000000E+00  0.00000000000E+00  0.24715704570E+03  0.24715704570E+03  0.00000000000E+00 0.  1.
         13   -1    0    0    0    0 -0.00000000000E+00 -0.00000000000E+00 -0.27500000000E+03  0.27500000000E+03  0.00000000000E+00 0.  1.
    9000005    2    1    2  501    0 -0.32325655112E+02  0.80974252711E+01 -0.70467358174E+02  0.46805199899E+03  0.46151544818E+03 0.  0.
         13    1    3    3    0    0 -0.16912545353E+01 -0.18716469984E+03 -0.16448817662E+03  0.24917834067E+03  0.00000000000E+00 0.  1.
          1    1    3    3  501    0 -0.30634400577E+02  0.19526212511E+03  0.94020818449E+02  0.21887365832E+03  0.00000000000E+00 0.  1.
         21    1    1    2  502  501  0.32325655112E+02 -0.80974252711E+01  0.42624403879E+02  0.54105046719E+02  0.00000000000E+00 0.  1.
<scales pt_clust_4="550.00000" pt_clust_5="550.00000" pt_clust_6="33.32441"></scales>
<mgrwt>
<rscale>  0 0.30000000E+03</rscale>
<asrwt>  1 0.33324410E+02</asrwt>
<pdfrwt beam="1">  1        1 0.89875289E+00 0.30000000E+03</pdfrwt>
<pdfrwt beam="2">0</pdfrwt>
<totfact> 0.11541977E-04</totfact>
</mgrwt>
<clustering>
<clus scale="   33.324">  1  6  2 -1</clus>
<clus scale="  461.515">  4  5 -1 -1</clus>
<clus scale="  300.000">  1  4  2 -1</clus>
</clustering>
</event>
<event>
 6    1  0.9964252E-012  0.3000000E+03  0.7818608E-02  0.1093470E+00
          1   -1    0    0  502    0  0.00000000000E+00  0.00000000000E+00  0.23087348402E+03  0.23087348402E+03  0.00000000000E+00 0.  1.
         13   -1    0    0    0    0 -0.00000000000E+00 -0.00000000000E+00 -0.27500000000E+03  0.27500000000E+03  0.00000000000E+00 0.  1.
    9000005    2    1    2  501    0 -0.13395087854E+02  0.26923065917E+02 -0.60482269929E+02  0.47164205775E+03  0.46678029715E+03 0.  0.
         13    1    3    3    0    0  0.87997336175E+02  0.70547773527E+02 -0.23756319763E+03  0.26297679059E+03  0.00000000000E+00 0.  1.
          1    1    3    3  501    0 -0.10139242403E+03 -0.43624707610E+02  0.17708092770E+03  0.20866526716E+03  0.00000000000E+00 0.  1.
         21    1    1    2  502  501  0.13395087854E+02 -0.26923065917E+02  0.16355753949E+02  0.34231426266E+02  0.00000000000E+00 0.  1.
<scales pt_clust_4="550.00000" pt_clust_5="550.00000" pt_clust_6="30.07125"></scales>
<mgrwt>
<rscale>  0 0.30000000E+03</rscale>
<asrwt>  1 0.30071246E+02</asrwt>
<pdfrwt beam="1">  1        1 0.83953994E+00 0.30000000E+03</pdfrwt>
<pdfrwt beam="2">0</pdfrwt>
<totfact> 0.51571126E-04</totfact>
</mgrwt>
<clustering>
<clus scale="   30.071">  1  6  2 -1</clus>
<clus scale="  466.780">  4  5 -1 -1</clus>
<clus scale="  300.000">  1  4  2 -1</clus>
</clustering>
</event>
<event>
 6    1  0.9964252E-012  0.3000000E+03  0.7818608E-02  0.1093470E+00
          1   -1    0    0  502    0  0.00000000000E+00  0.00000000000E+00  0.24308891385E+03  0.24308891385E+03  0.00000000000E+00 0.  1.
         13   -1    0    0    0    0 -0.00000000000E+00 -0.00000000000E+00 -0.27500000000E+03  0.27500000000E+03  0.00000000000E+00 0.  1.
    9000005    2    1    2  501    0  0.39218110043E+02  0.28697518298E+02 -0.52965080732E+02  0.46512781115E+03  0.45953995824E+03 0.  0.
         13    1    3    3    0    0  0.39184402208E+02 -0.19871007440E+02 -0.25427456196E+03  0.25804229726E+03  0.00000000000E+00 0.  1.
          1    1    3    3  501    0  0.33707834862E-01  0.48568525738E+02  0.20130948123E+03  0.20708551389E+03  0.00000000000E+00 0.  1.
         21    1    1    2  502  501 -0.39218110043E+02 -0.28697518298E+02  0.21053994587E+02  0.52961102706E+02  0.00000000000E+00 0. -1.
<scales pt_clust_4="550.00000" pt_clust_5="550.00000" pt_clust_6="48.59638"></scales>
<mgrwt>
<rscale>  0 0.30000000E+03</rscale>
<asrwt>  1 0.48596376E+02</asrwt>
<pdfrwt beam="1">  1        1 0.88395969E+00 0.30000000E+03</pdfrwt>
<pdfrwt beam="2">0</pdfrwt>
<totfact> 0.16519431E-04</totfact>
</mgrwt>
<clustering>
<clus scale="   48.596">  1  6  2 -1</clus>
<clus scale="  459.540">  4  5 -1 -1</clus>
<clus scale="  300.000">  1  4  2 -1</clus>
</clustering>
</event>
<event>
 6    1  0.9964252E-012  0.3000000E+03  0.7818608E-02  0.1093470E+00
          1   -1    0    0  502    0  0.00000000000E+00  0.00000000000E+00  0.24059944845E+03  0.24059944845E+03  0.00000000000E+00 0.  1.
         13   -1    0    0    0    0 -0.00000000000E+00 -0.00000000000E+00 -0.27500000000E+03  0.27500000000E+03  0.00000000000E+00 0.  1.
    9000005    2    1    2  501    0  0.22722970459E+02  0.28759504221E+02 -0.40381568768E+02  0.47846166397E+03  0.47534350771E+03 0.  0.
         13    1    3    3    0    0 -0.77896763556E+00 -0.22333594218E+03 -0.26321166992E+02  0.22488297778E+03  0.00000000000E+00 0.  1.
          1    1    3    3  501    0  0.23501938094E+02  0.25209544640E+03 -0.14060401776E+02  0.25357868619E+03  0.00000000000E+00 0.  1.
         21    1    1    2  502  501 -0.22722970459E+02 -0.28759504221E+02  0.59810172187E+01  0.37137784485E+02  0.00000000000E+00 0.  1.
<scales pt_clust_4="550.00000" pt_clust_5="550.00000" pt_clust_6="36.65300"></scales>
<mgrwt>
<rscale>  0 0.30000000E+03</rscale>
<asrwt>  1 0.36653001E+02</asrwt>
<pdfrwt beam="1">  1        1 0.87490709E+00 0.30000000E+03</pdfrwt>
<pdfrwt beam="2">0</pdfrwt>
<totfact> 0.22350703E-04</totfact>
</mgrwt>
<clustering>
<clus scale="   36.653">  1  6  2 -1</clus>
<clus scale="  475.344">  4  5 -1 -1</clus>
<clus scale="  300.000">  1  4  2 -1</clus>
</clustering>
</event>
<event>
 6    1  0.9964252E-012  0.3000000E+03  0.7818608E-02  0.1093470E+00
          1   -1    0    0  502    0  0.00000000000E+00  0.00000000000E+00  0.23349905877E+03  0.23349905877E+03  0.00000000000E+00 0.  1.
         13   -1    0    0    0    0 -0.00000000000E+00 -0.00000000000E+00 -0.27500000000E+03  0.27500000000E+03  0.00000000000E+00 0.  1.
    9000005    2    1    2  501    0  0.31609748933E+02  0.12114946631E+01 -0.70982136462E+02  0.46525805023E+03  0.45872207889E+03 0.  0.
         13    1    3    3    0    0  0.55600126589E+02 -0.22439838979E+03 -0.15570942444E+02  0.23170771603E+03  0.00000000000E+00 0.  1.
          3    1    3    3  501    0 -0.23990377656E+02  0.22560988446E+03 -0.55411194018E+02  0.23355033420E+03  0.00000000000E+00 0.  1.
         21    1    1    2  502  501 -0.31609748933E+02 -0.12114946631E+01  0.29481195230E+02  0.43241008535E+02  0.00000000000E+00 0.  1.
<scales pt_clust_4="550.00000" pt_clust_5="550.00000" pt_clust_6="31.63296"></scales>
<mgrwt>
<rscale>  0 0.30000000E+03</rscale>
<asrwt>  1 0.31632957E+02</asrwt>
<pdfrwt beam="1">  1        1 0.84908749E+00 0.30000000E+03</pdfrwt>
<pdfrwt beam="2">0</pdfrwt>
<totfact> 0.42304848E-04</totfact>
</mgrwt>
<clustering>
<clus scale="   31.633">  1  6  2 -1</clus>
<clus scale="  458.722">  4  5 -1 -1</clus>
<clus scale="  300.000">  1  4  2 -1</clus>
</clustering>
</event>
<event>
 6    1  0.9964252E-012  0.3000000E+03  0.7818608E-02  0.1093470E+00
          1   -1    0    0  502    0  0.00000000000E+00  0.00000000000E+00  0.24384305985E+03  0.24384305985E+03  0.00000000000E+00 0.  1.
         13   -1    0    0    0    0 -0.00000000000E+00 -0.00000000000E+00 -0.27500000000E+03  0.27500000000E+03  0.00000000000E+00 0.  1.
    9000005    2    1    2  501    0 -0.35177632859E+02 -0.19593551831E+02 -0.46255591574E+02  0.47583907862E+03  0.47187061347E+03 0.  0.
         13    1    3    3    0    0  0.13439963950E+03 -0.62047256048E+02 -0.19602807433E+03  0.24564228261E+03  0.00000000000E+00 0.  1.
          3    1    3    3  501    0 -0.16957727235E+03  0.42453704217E+02  0.14977248276E+03  0.23019679601E+03  0.00000000000E+00 0.  1.
         21    1    1    2  502  501  0.35177632859E+02  0.19593551831E+02  0.15098651421E+02  0.43003981230E+02  0.00000000000E+00 0.  1.
<scales pt_clust_4="550.00000" pt_clust_5="550.00000" pt_clust_6="40.26628"></scales>
<mgrwt>
<rscale>  0 0.30000000E+03</rscale>
<asrwt>  1 0.40266278E+02</asrwt>
<pdfrwt beam="1">  1        1 0.88670204E+00 0.30000000E+03</pdfrwt>
<pdfrwt beam="2">0</pdfrwt>
<totfact> 0.15668055E-04</totfact>
</mgrwt>
<clustering>
<clus scale="   40.266">  1  6  2 -1</clus>
<clus scale="  471.871">  4  5 -1 -1</clus>
<clus scale="  300.000">  1  4  2 -1</clus>
</clustering>
</event>
<event>
 6    1  0.9964252E-012  0.3000000E+03  0.7818608E-02  0.1093470E+00
          1   -1    0    0  502    0  0.00000000000E+00  0.00000000000E+00  0.25024203437E+03  0.25024203437E+03  0.00000000000E+00 0.  1.
         13   -1    0    0    0    0 -0.00000000000E+00 -0.00000000000E+00 -0.27500000000E+03  0.27500000000E+03  0.00000000000E+00 0.  1.
    9000005    2    1    2  501    0 -0.41703477377E+02  0.94082610620E+01 -0.36634996411E+02  0.48087133163E+03  0.47756404724E+03 0.  0.
         13    1    3    3    0    0 -0.23069930582E+03 -0.10581186939E+03 -0.51666999235E+02  0.25901312750E+03  0.00000000000E+00 0.  1.
          3    1    3    3  501    0  0.18899582844E+03  0.11522013045E+03  0.15032002824E+02  0.22185820413E+03  0.00000000000E+00 0.  1.
         21    1    1    2  502  501  0.41703477377E+02 -0.94082610620E+01  0.11877030782E+02  0.44370702741E+02  0.00000000000E+00 0.  1.
<scales pt_clust_4="550.00000" pt_clust_5="550.00000" pt_clust_6="42.75155"></scales>
<mgrwt>
<rscale>  0 0.30000000E+03</rscale>
<asrwt>  1 0.42751554E+02</asrwt>
<pdfrwt beam="1">  1        1 0.90997103E+00 0.30000000E+03</pdfrwt>
<pdfrwt beam="2">0</pdfrwt>
<totfact> 0.69378931E-05</totfact>
</mgrwt>
<clustering>
<clus scale="   42.752">  1  6  2 -1</clus>
<clus scale="  477.564">  4  5 -1 -1</clus>
<clus scale="  300.000">  1  4  2 -1</clus>
</clustering>
</event>
<event>
 6    1  0.9964252E-012  0.3000000E+03  0.7818608E-02  0.1093470E+00
          1   -1    0    0  502    0  0.00000000000E+00  0.00000000000E+00  0.24079821466E+03  0.24079821466E+03  0.00000000000E+00 0.  1.
         13   -1    0    0    0    0 -0.00000000000E+00 -0.00000000000E+00 -0.27500000000E+03  0.27500000000E+03  0.00000000000E+00 0.  1.
    9000005    2    1    2  501    0 -0.12931497503E+02  0.27239269120E+02 -0.48415173246E+02  0.48246322095E+03  0.47907987764E+03 0.  0.
         13    1    3    3    0    0 -0.20944264841E+03 -0.96882052770E+02 -0.87452512201E+02  0.24677985537E+03  0.00000000000E+00 0.  1.
          3    1    3    3  501    0  0.19651115091E+03  0.12412132189E+03  0.39037338956E+02  0.23568336558E+03  0.00000000000E+00 0.  1.
         21    1    1    2  502  501  0.12931497503E+02 -0.27239269120E+02  0.14213387905E+02  0.33334993709E+02  0.00000000000E+00 0.  1.
<scales pt_clust_4="550.00000" pt_clust_5="550.00000" pt_clust_6="30.15297"></scales>
<mgrwt>
<rscale>  0 0.30000000E+03</rscale>
<asrwt>  1 0.30152967E+02</asrwt>
<pdfrwt beam="1">  1        1 0.87562987E+00 0.30000000E+03</pdfrwt>
<pdfrwt beam="2">0</pdfrwt>
<totfact> 0.22783241E-04</totfact>
</mgrwt>
<clustering>
<clus scale="   30.153">  1  6  2 -1</clus>
<clus scale="  479.080">  4  5 -1 -1</clus>
<clus scale="  300.000">  1  4  2 -1</clus>
</clustering>
</event>
<event>
 6    1  0.9964252E-012  0.3000000E+03  0.7818608E-02  0.1093470E+00
          1   -1    0    0  502    0  0.00000000000E+00  0.00000000000E+00  0.23892073370E+03  0.23892073370E+03  0.00000000000E+00 0.  1.
         13   -1    0    0    0    0 -0.00000000000E+00 -0.00000000000E+00 -0.27500000000E+03  0.27500000000E+03  0.00000000000E+00 0.  1.
    9000005    2    1    2  501    0  0.23907342138E+02 -0.19293122704E+02 -0.20627825971E+02  0.47953276196E+03  0.47810289374E+03 0.  0.
         13    1    3    3    0    0  0.10863549094E+03 -0.93124430895E+02  0.19175025709E+03  0.23925298455E+03  0.00000000000E+00 0.  1.
          1    1    3    3  501    0 -0.84728148803E+02  0.73831308191E+02 -0.21237808306E+03  0.24027977741E+03  0.00000000000E+00 0.  1.
         21    1    1    2  502  501 -0.23907342138E+02  0.19293122704E+02 -0.15451440330E+02  0.34387971735E+02  0.00000000000E+00 0.  1.
<scales pt_clust_4="550.00000" pt_clust_5="550.00000" pt_clust_6="30.72111"></scales>
<mgrwt>
<rscale>  0 0.30000000E+03</rscale>
<asrwt>  1 0.30721109E+02</asrwt>
<pdfrwt beam="1">  1        1 0.86880267E+00 0.30000000E+03</pdfrwt>
<pdfrwt beam="2">0</pdfrwt>
<totfact> 0.26703087E-04</totfact>
</mgrwt>
<clustering>
<clus scale="   30.721">  1  6  2 -1</clus>
<clus scale="  478.103">  4  5 -1 -1</clus>
<clus scale="  300.000">  1  4  2 -1</clus>
</clustering>
</event>
<event>
 6    1  0.9964252E-012  0.3000000E+03  0.7818608E-02  0.1093470E+00
          1   -1    0    0  502    0  0.00000000000E+00  0.00000000000E+00  0.22673432245E+03  0.22673432245E+03  0.00000000000E+00 0.  1.
         13   -1    0    0    0    0 -0.00000000000E+00 -0.00000000000E+00 -0.27500000000E+03  0.27500000000E+03  0.00000000000E+00 0.  1.
    9000005    2    1    2  501    0 -0.30479605093E+02  0.43565110755E+01 -0.49493902589E+02  0.47092046108E+03  0.46729909989E+03 0.  0.
         13    1    3    3    0    0 -0.15750106580E+03  0.16502588133E+03 -0.11554815099E+03  0.25571762246E+03  0.00000000000E+00 0.  1.
          1    1    3    3  501    0  0.12702146071E+03 -0.16066937026E+03  0.66054248398E+02  0.21520283862E+03  0.00000000000E+00 0.  1.
         21    1    1    2  502  501  0.30479605093E+02 -0.43565110755E+01  0.12282250344E+01  0.30813861364E+02  0.00000000000E+00 0. -1.
<scales pt_clust_4="550.00000" pt_clust_5="550.00000" pt_clust_6="30.78937"></scales>
<mgrwt>
<rscale>  0 0.30000000E+03</rscale>
<asrwt>  1 0.30789373E+02</asrwt>
<pdfrwt beam="1">  1        1 0.82448845E+00 0.30000000E+03</pdfrwt>
<pdfrwt beam="2">0</pdfrwt>
<totfact> 0.67629193E-04</totfact>
</mgrwt>
<clustering>
<clus scale="   30.789">  1  6  2 -1</clus>
<clus scale="  467.299">  4  5 -1 -1</clus>
<clus scale="  300.000">  1  4  2 -1</clus>
</clustering>
</event>
<event>
 6    1  0.9964252E-012  0.3000000E+03  0.7818608E-02  0.1093470E+00
          1   -1    0    0  502    0  0.00000000000E+00  0.00000000000E+00  0.22392864612E+03  0.22392864612E+03  0.00000000000E+00 0.  1.
         13   -1    0    0    0    0 -0.00000000000E+00 -0.00000000000E+00 -0.27500000000E+03  0.27500000000E+03  0.00000000000E+00 0.  1.
    9000005    2    1    2  501    0  0.30822952035E+02  0.17268997599E+02 -0.45556752885E+02  0.46316996222E+03  0.45956797486E+03 0.  0.
         13    1    3    3    0    0 -0.14829449848E+02  0.58612903728E+02 -0.24608132765E+03  0.25339969393E+03  0.00000000000E+00 0.  1.
          1    1    3    3  501    0  0.45652401882E+02 -0.41343906130E+02  0.20052457477E+03  0.20977026829E+03  0.00000000000E+00 0.  1.
         21    1    1    2  502  501 -0.30822952035E+02 -0.17268997599E+02 -0.55146009970E+01  0.35758683901E+02  0.00000000000E+00 0. -1.
<scales pt_clust_4="550.00000" pt_clust_5="550.00000" pt_clust_6="35.33092"></scales>
<mgrwt>
<rscale>  0 0.30000000E+03</rscale>
<asrwt>  1 0.35330920E+02</asrwt>
<pdfrwt beam="1">  1        1 0.81428599E+00 0.30000000E+03</pdfrwt>
<pdfrwt beam="2">0</pdfrwt>
<totfact> 0.80524248E-04</totfact>
</mgrwt>
<clustering>
<clus scale="   35.331">  1  6  2 -1</clus>
<clus scale="  459.568">  4  5 -1 -1</clus>
<clus scale="  300.000">  1  4  2 -1</clus>
</clustering>
</event>
<event>
 6    1  0.9964252E-012  0.3000000E+03  0.7818608E-02  0.1093470E+00
          1   -1    0    0  502    0  0.00000000000E+00  0.00000000000E+00  0.25224724136E+03  0.25224724136E+03  0.00000000000E+00 0.  1.
         13   -1    0    0    0    0 -0.00000000000E+00 -0.00000000000E+00 -0.27500000000E+03  0.27500000000E+03  0.00000000000E+00 0.  1.
    9000005    2    1    2  501    0 -0.28424907047E+02 -0.33150490124E+02 -0.64132075489E+02  0.46708763532E+03  0.46059852977E+03 0.  0.
         13    1    3    3    0    0 -0.14874330763E+03 -0.14536848717E+02 -0.22206571427E+03  0.26767344469E+03  0.00000000000E+00 0.  1.
          1    1    3    3  501    0  0.12031840059E+03 -0.18613641407E+02  0.15793363878E+03  0.19941419063E+03  0.00000000000E+00 0.  1.
         21    1    1    2  502  501  0.28424907047E+02  0.33150490124E+02  0.41379316852E+02  0.60159606043E+02  0.00000000000E+00 0. -1.
<scales pt_clust_4="550.00000" pt_clust_5="550.00000" pt_clust_6="43.66841"></scales>
<mgrwt>
<rscale>  0 0.30000000E+03</rscale>
<asrwt>  1 0.43668413E+02</asrwt>
<pdfrwt beam="1">  1        1 0.91726270E+00 0.30000000E+03</pdfrwt>
<pdfrwt beam="2">0</pdfrwt>
<totfact> 0.46146790E-05</totfact>
</mgrwt>
<clustering>
<clus scale="   43.668">  1  6  2 -1</clus>
<clus scale="  460.599">  4  5 -1 -1</clus>
<clus scale="  300.000">  1  4  2 -1</clus>
</clustering>
</event>
<event>
 6    1  0.9964252E-012  0.3000000E+03  0.7818608E-02  0.1093470E+00
          1   -1    0    0  502    0  0.00000000000E+00  0.00000000000E+00  0.23980537274E+03  0.23980537274E+03  0.00000000000E+00 0.  1.
         13   -1    0    0    0    0 -0.00000000000E+00 -0.00000000000E+00 -0.27500000000E+03  0.27500000000E+03  0.00000000000E+00 0.  1.
    9000005    2    1    2  501    0  0.21403179077E+02  0.23114287259E+02 -0.38454312370E+02  0.48313532542E+03  0.48057116245E+03 0.  0.
         13    1    3    3    0    0 -0.14154527371E+03 -0.74843690164E+02  0.14712993555E+03  0.21744852357E+03  0.00000000000E+00 0.  1.
          3    1    3    3  501    0  0.16294845278E+03  0.97957977423E+02 -0.18558424792E+03  0.26568680186E+03  0.00000000000E+00 0.  1.
         21    1    1    2  502  501 -0.21403179077E+02 -0.23114287259E+02  0.32596851116E+01  0.31670047318E+02  0.00000000000E+00 0.  1.
<scales pt_clust_4="550.00000" pt_clust_5="550.00000" pt_clust_6="31.50185"></scales>
<mgrwt>
<rscale>  0 0.30000000E+03</rscale>
<asrwt>  1 0.31501847E+02</asrwt>
<pdfrwt beam="1">  1        1 0.87201954E+00 0.30000000E+03</pdfrwt>
<pdfrwt beam="2">0</pdfrwt>
<totfact> 0.24635790E-04</totfact>
</mgrwt>
<clustering>
<clus scale="   31.502">  1  6  2 -1</clus>
<clus scale="  480.571">  4  5 -1 -1</clus>
<clus scale="  300.000">  1  4  2 -1</clus>
</clustering>
</event>
<event>
 6    1  0.9964252E-012  0.3000000E+03  0.7818608E-02  0.1093470E+00
          1   -1    0    0  502    0  0.00000000000E+00  0.00000000000E+00  0.23135161971E+03  0.23135161971E+03  0.00000000000E+00 0.  1.
         13   -1    0    0    0    0 -0.00000000000E+00 -0.00000000000E+00 -0.27500000000E+03  0.27500000000E+03  0.00000000000E+00 0.  1.
    9000005    2    1    2  501    0  0.29945723918E+02 -0.29522252609E+01 -0.52265619510E+02  0.47505115922E+03  0.47120743509E+03 0.  0.
         13    1    3    3    0    0 -0.17121887686E+03  0.12934204082E+03  0.37997835925E+02  0.21791994597E+03  0.00000000000E+00 0.  1.
          3    1    3    3  501    0  0.20116460077E+03 -0.13229426608E+03 -0.90263455435E+02  0.25713121325E+03  0.00000000000E+00 0.  1.
         21    1    1    2  502  501 -0.29945723918E+02  0.29522252609E+01  0.86172392214E+01  0.31300460488E+02  0.00000000000E+00 0. -1.
<scales pt_clust_4="550.00000" pt_clust_5="550.00000" pt_clust_6="30.09090"></scales>
<mgrwt>
<rscale>  0 0.30000000E+03</rscale>
<asrwt>  1 0.30090896E+02</asrwt>
<pdfrwt beam="1">  1        1 0.84127862E+00 0.30000000E+03</pdfrwt>
<pdfrwt beam="2">0</pdfrwt>
<totfact> 0.49982693E-04</totfact>
</mgrwt>
<clustering>
<clus scale="   30.091">  1  6  2 -1</clus>
<clus scale="  471.207">  4  5 -1 -1</clus>
<clus scale="  300.000">  1  4  2 -1</clus>
</clustering>
</event>
<event>
 6    1  0.9964252E-012  0.3000000E+03  0.7818608E-02  0.1093470E+00
          1   -1    0    0  502    0  0.00000000000E+00  0.00000000000E+00  0.24356349325E+03  0.24356349325E+03  0.00000000000E+00 0.  1.
         13   -1    0    0    0    0 -0.00000000000E+00 -0.00000000000E+00 -0.27500000000E+03  0.27500000000E+03  0.00000000000E+00 0.  1.
    9000005    2    1    2  501    0  0.43503459366E+02 -0.16755115292E+02 -0.29714846012E+02  0.47191320942E+03  0.46866386706E+03 0.  0.
         13    1    3    3    0    0 -0.18435725224E+03  0.94763376685E+02 -0.61563095316E+02  0.21623530868E+03  0.00000000000E+00 0.  1.
          3    1    3    3  501    0  0.22786071160E+03 -0.11151849198E+03  0.31848249304E+02  0.25567790075E+03  0.00000000000E+00 0.  1.
         21    1    1    2  502  501 -0.43503459366E+02  0.16755115292E+02 -0.17216607412E+01  0.46650283825E+02  0.00000000000E+00 0.  1.
<scales pt_clust_4="550.00000" pt_clust_5="550.00000" pt_clust_6="46.61850"></scales>
<mgrwt>
<rscale>  0 0.30000000E+03</rscale>
<asrwt>  1 0.46618503E+02</asrwt>
<pdfrwt beam="1">  1        1 0.88568543E+00 0.30000000E+03</pdfrwt>
<pdfrwt beam="2">0</pdfrwt>
<totfact> 0.15761664E-04</totfact>
</mgrwt>
<clustering>
<clus scale="   46.619">  1  6  2 -1</clus>
<clus scale="  468.664">  4  5 -1 -1</clus>
<clus scale="  300.000">  1  4  2 -1</clus>
</clustering>
</event>
<event>
 6    1  0.9964252E-012  0.3000000E+03  0.7818608E-02  0.1093470E+00
          1   -1    0    0  502    0  0.00000000000E+00  0.00000000000E+00  0.22932489749E+03  0.22932489749E+03  0.00000000000E+00 0.  1.
         13   -1    0    0    0    0 -0.00000000000E+00 -0.00000000000E+00 -0.27500000000E+03  0.27500000000E+03  0.00000000000E+00 0.  1.
    9000005    2    1    2  501    0 -0.32883545240E+02 -0.25935716879E+01 -0.70679053584E+02  0.46293345235E+03  0.45631545944E+03 0.  0.
         13    1    3    3    0    0  0.13052082346E+03 -0.27795628394E+02 -0.20859349252E+03  0.24762780021E+03  0.00000000000E+00 0.  1.
          3    1    3    3  501    0 -0.16340436870E+03  0.25202056706E+02  0.13791443894E+03  0.21530565213E+03  0.00000000000E+00 0.  1.
         21    1    1    2  502  501  0.32883545240E+02  0.25935716879E+01  0.25003951073E+02  0.41391445141E+02  0.00000000000E+00 0. -1.
<scales pt_clust_4="550.00000" pt_clust_5="550.00000" pt_clust_6="32.98567"></scales>
<mgrwt>
<rscale>  0 0.30000000E+03</rscale>
<asrwt>  1 0.32985666E+02</asrwt>
<pdfrwt beam="1">  1        1 0.83390872E+00 0.30000000E+03</pdfrwt>
<pdfrwt beam="2">0</pdfrwt>
<totfact> 0.55724959E-04</totfact>
</mgrwt>
<clustering>
<clus scale="   32.986">  1  6  2 -1</clus>
<clus scale="  456.315">  4  5 -1 -1</clus>
<clus scale="  300.000">  1  4  2 -1</clus>
</clustering>
</event>
<event>
 6    1  0.9964252E-012  0.3000000E+03  0.7818608E-02  0.1093470E+00
          1   -1    0    0  502    0  0.00000000000E+00  0.00000000000E+00  0.23640723040E+03  0.23640723040E+03  0.00000000000E+00 0.  1.
         13   -1    0    0    0    0 -0.00000000000E+00 -0.00000000000E+00 -0.27500000000E+03  0.27500000000E+03  0.00000000000E+00 0.  1.
    9000005    2    1    2  501    0  0.12380228742E+02  0.30844150353E+02 -0.63313487090E+02  0.46998567142E+03  0.46451404933E+03 0.  0.
         13    1    3    3    0    0 -0.57194373777E+02 -0.18862863429E+03 -0.12274366109E+03  0.23220242118E+03  0.00000000000E+00 0.  1.
          1    1    3    3  501    0  0.69574602519E+02  0.21947278464E+03  0.59430173997E+02  0.23778325024E+03  0.00000000000E+00 0.  1.
         21    1    1    2  502  501 -0.12380228742E+02 -0.30844150353E+02  0.24720717488E+02  0.41421558974E+02  0.00000000000E+00 0.  1.
<scales pt_clust_4="550.00000" pt_clust_5="550.00000" pt_clust_6="33.23600"></scales>
<mgrwt>
<rscale>  0 0.30000000E+03</rscale>
<asrwt>  1 0.33236000E+02</asrwt>
<pdfrwt beam="1">  1        1 0.85966266E+00 0.30000000E+03</pdfrwt>
<pdfrwt beam="2">0</pdfrwt>
<totfact> 0.32933620E-04</totfact>
</mgrwt>
<clustering>
<clus scale="   33.236">  1  6  2 -1</clus>
<clus scale="  464.514">  4  5 -1 -1</clus>
<clus scale="  300.000">  1  4  2 -1</clus>
</clustering>
</event>
<event>
 6    1  0.9964252E-012  0.3000000E+03  0.7818608E-02  0.1093470E+00
          1   -1    0    0  502    0  0.00000000000E+00  0.00000000000E+00  0.23764631371E+03  0.23764631371E+03  0.00000000000E+00 0.  1.
         13   -1    0    0    0    0 -0.00000000000E+00 -0.00000000000E+00 -0.27500000000E+03  0.27500000000E+03  0.00000000000E+00 0.  1.
    9000005    2    1    2  501    0  0.16299076806E+02 -0.28517578241E+02 -0.59220438650E+02  0.47318662501E+03  0.46831571569E+03 0.  0.
         13    1    3    3    0    0  0.83063926926E+02 -0.20710865228E+03 -0.14288905833E+03  0.26497338130E+03  0.00000000000E+00 0.  1.
          3    1    3    3  501    0 -0.66764850121E+02  0.17859107404E+03  0.83668619683E+02  0.20821324371E+03  0.00000000000E+00 0.  1.
         21    1    1    2  502  501 -0.16299076806E+02  0.28517578241E+02  0.21866752355E+02  0.39459688697E+02  0.00000000000E+00 0.  1.
<scales pt_clust_4="550.00000" pt_clust_5="550.00000" pt_clust_6="32.84680"></scales>
<mgrwt>
<rscale>  0 0.30000000E+03</rscale>
<asrwt>  1 0.32846799E+02</asrwt>
<pdfrwt beam="1">  1        1 0.86416841E+00 0.30000000E+03</pdfrwt>
<pdfrwt beam="2">0</pdfrwt>
<totfact> 0.29516740E-04</totfact>
</mgrwt>
<clustering>
<clus scale="   32.847">  1  6  2 -1</clus>
<clus scale="  468.316">  4  5 -1 -1</clus>
<clus scale="  300.000">  1  4  2 -1</clus>
</clustering>
</event>
<event>
 6    1  0.9964252E-012  0.3000000E+03  0.7818608E-02  0.1093470E+00
          1   -1    0    0  502    0  0.00000000000E+00  0.00000000000E+00  0.23258666328E+03  0.23258666328E+03  0.00000000000E+00 0.  1.
         13   -1    0    0    0    0 -0.00000000000E+00 -0.00000000000E+00 -0.27500000000E+03  0.27500000000E+03  0.00000000000E+00 0.  1.
    9000005    2    1    2  501    0 -0.12273967928E+02 -0.39409042245E+02 -0.39148118344E+02  0.46618153618E+03  0.46269744607E+03 0.  0.
         13    1    3    3    0    0  0.20954300873E+03  0.64967195434E+02 -0.19499767062E+02  0.22024815529E+03  0.00000000000E+00 0.  1.
          1    1    3    3  501    0 -0.22181697666E+03 -0.10437623768E+03 -0.19648351281E+02  0.24593338089E+03  0.00000000000E+00 0.  1.
         21    1    1    2  502  501  0.12273967928E+02  0.39409042245E+02 -0.32652183763E+01  0.41405127103E+02  0.00000000000E+00 0. -1.
<scales pt_clust_4="550.00000" pt_clust_5="550.00000" pt_clust_6="41.27618"></scales>
<mgrwt>
<rscale>  0 0.30000000E+03</rscale>
<asrwt>  1 0.41276178E+02</asrwt>
<pdfrwt beam="1">  1        1 0.84576968E+00 0.30000000E+03</pdfrwt>
<pdfrwt beam="2">0</pdfrwt>
<totfact> 0.43152427E-04</totfact>
</mgrwt>
<clustering>
<clus scale="   41.276">  1  6  2 -1</clus>
<clus scale="  462.697">  4  5 -1 -1</clus>
<clus scale="  300.000">  1  4  2 -1</clus>
</clustering>
</event>
<event>
 6    1  0.9964252E-012  0.3000000E+03  0.7818608E-02  0.1093470E+00
          1   -1    0    0  502    0  0.00000000000E+00  0.00000000000E+00  0.24706632926E+03  0.24706632926E+03  0.00000000000E+00 0.  1.
         13   -1    0    0    0    0 -0.00000000000E+00 -0.00000000000E+00 -0.27500000000E+03  0.27500000000E+03  0.00000000000E+00 0.  1.
    9000005    2    1    2  501    0 -0.31001281272E+01  0.35106737783E+02 -0.66132596889E+02  0.47009276106E+03  0.46408144738E+03 0.  0.
         13    1    3    3    0    0 -0.19752681506E+03  0.12572330043E+03 -0.96877820941E+02  0.25339396822E+03  0.00000000000E+00 0.  1.
          3    1    3    3  501    0  0.19442668693E+03 -0.90616562651E+02  0.30745224052E+02  0.21669879284E+03  0.00000000000E+00 0.  1.
         21    1    1    2  502  501  0.31001281272E+01 -0.35106737783E+02  0.38198926146E+02  0.51973568195E+02  0.00000000000E+00 0.  1.
<scales pt_clust_4="550.00000" pt_clust_5="550.00000" pt_clust_6="35.24335"></scales>
<mgrwt>
<rscale>  0 0.30000000E+03</rscale>
<asrwt>  1 0.35243352E+02</asrwt>
<pdfrwt beam="1">  1        1 0.89842302E+00 0.30000000E+03</pdfrwt>
<pdfrwt beam="2">0</pdfrwt>
<totfact> 0.11523299E-04</totfact>
</mgrwt>
<clustering>
<clus scale="   35.243">  1  6  2 -1</clus>
<clus scale="  464.081">  4  5 -1 -1</clus>
<clus scale="  300.000">  1  4  2 -1</clus>
</clustering>
</event>
<event>
 6    1  0.9964252E-012  0.3000000E+03  0.7818608E-02  0.1093470E+00
          1   -1    0    0  502    0  0.00000000000E+00  0.00000000000E+00  0.22942883211E+03  0.22942883211E+03  0.00000000000E+00 0.  1.
         13   -1    0    0    0    0 -0.00000000000E+00 -0.00000000000E+00 -0.27500000000E+03  0.27500000000E+03  0.00000000000E+00 0.  1.
    9000005    2    1    2  501    0 -0.33847013240E+02 -0.25492060581E+02 -0.38042676072E+02  0.46139229360E+03  0.45786475943E+03 0.  0.
         13    1    3    3    0    0 -0.11338493605E+03 -0.22006197037E+03 -0.42337717446E+02  0.25114915259E+03  0.00000000000E+00 0.  1.
          1    1    3    3  501    0  0.79537922813E+02  0.19456990979E+03  0.42950413741E+01  0.21024314101E+03  0.00000000000E+00 0.  1.
         21    1    1    2  502  501  0.33847013240E+02  0.25492060581E+02 -0.75284918208E+01  0.43036538511E+02  0.00000000000E+00 0.  1.
<scales pt_clust_4="550.00000" pt_clust_5="550.00000" pt_clust_6="42.37295"></scales>
<mgrwt>
<rscale>  0 0.30000000E+03</rscale>
<asrwt>  1 0.42372954E+02</asrwt>
<pdfrwt beam="1">  1        1 0.83428666E+00 0.30000000E+03</pdfrwt>
<pdfrwt beam="2">0</pdfrwt>
<totfact> 0.52864123E-04</totfact>
</mgrwt>
<clustering>
<clus scale="   42.373">  1  6  2 -1</clus>
<clus scale="  457.865">  4  5 -1 -1</clus>
<clus scale="  300.000">  1  4  2 -1</clus>
</clustering>
</event>
<event>
 6    1  0.9964252E-012  0.3000000E+03  0.7818608E-02  0.1093470E+00
          1   -1    0    0  502    0  0.00000000000E+00  0.00000000000E+00  0.23515854292E+03  0.23515854292E+03  0.00000000000E+00 0.  1.
         13   -1    0    0    0    0 -0.00000000000E+00 -0.00000000000E+00 -0.27500000000E+03  0.27500000000E+03  0.00000000000E+00 0.  1.
    9000005    2    1    2  501    0  0.17569121046E+02 -0.32138293344E+02 -0.26492618083E+02  0.47117475891E+03  0.46900133337E+03 0.  0.
         13    1    3    3    0    0  0.34444579569E+02  0.21180590826E+03 -0.63676125581E+02  0.22383659398E+03  0.00000000000E+00 0.  1.
          3    1    3    3  501    0 -0.16875458523E+02 -0.24394420161E+03  0.37183507498E+02  0.24733816492E+03  0.00000000000E+00 0.  1.
         21    1    1    2  502  501 -0.17569121046E+02  0.32138293344E+02 -0.13348838997E+02  0.38983784013E+02  0.00000000000E+00 0.  1.
<scales pt_clust_4="550.00000" pt_clust_5="550.00000" pt_clust_6="36.62711"></scales>
<mgrwt>
<rscale>  0 0.30000000E+03</rscale>
<asrwt>  1 0.36627111E+02</asrwt>
<pdfrwt beam="1">  1        1 0.85512197E+00 0.30000000E+03</pdfrwt>
<pdfrwt beam="2">0</pdfrwt>
<totfact> 0.36025987E-04</totfact>
</mgrwt>
<clustering>
<clus scale="   36.627">  1  6  2 -1</clus>
<clus scale="  469.001">  4  5 -1 -1</clus>
<clus scale="  300.000">  1  4  2 -1</clus>
</clustering>
</event>
<event>
 6    1  0.9964252E-012  0.3000000E+03  0.7818608E-02  0.1093470E+00
          1   -1    0    0  502    0  0.00000000000E+00  0.00000000000E+00  0.23278020745E+03  0.23278020745E+03  0.00000000000E+00 0.  1.
         13   -1    0    0    0    0 -0.00000000000E+00 -0.00000000000E+00 -0.27500000000E+03  0.27500000000E+03  0.00000000000E+00 0.  1.
    9000005    2    1    2  501    0  0.36398415849E+02 -0.15745791219E+02 -0.55229150639E+02  0.46604271812E+03  0.46105615863E+03 0.  0.
         13    1    3    3    0    0 -0.34362121234E+02  0.11772520558E+03  0.16092616729E+03  0.20232946084E+03  0.00000000000E+00 0.  1.
          1    1    3    3  501    0  0.70760537083E+02 -0.13347099680E+03 -0.21615531793E+03  0.26371325728E+03  0.00000000000E+00 0.  1.
         21    1    1    2  502  501 -0.36398415849E+02  0.15745791219E+02  0.13009358085E+02  0.41737489326E+02  0.00000000000E+00 0. -1.
<scales pt_clust_4="550.00000" pt_clust_5="550.00000" pt_clust_6="39.65822"></scales>
<mgrwt>
<rscale>  0 0.30000000E+03</rscale>
<asrwt>  1 0.39658223E+02</asrwt>
<pdfrwt beam="1">  1        1 0.84647348E+00 0.30000000E+03</pdfrwt>
<pdfrwt beam="2">0</pdfrwt>
<totfact> 0.42845275E-04</totfact>
</mgrwt>
<clustering>
<clus scale="   39.658">  1  6  2 -1</clus>
<clus scale="  461.056">  4  5 -1 -1</clus>
<clus scale="  300.000">  1  4  2 -1</clus>
</clustering>
</event>
<event>
 6    1  0.9964252E-012  0.3000000E+03  0.7818608E-02  0.1093470E+00
          1   -1    0    0  502    0  0.00000000000E+00  0.00000000000E+00  0.22698961799E+03  0.22698961799E+03  0.00000000000E+00 0.  1.
         13   -1    0    0    0    0 -0.00000000000E+00 -0.00000000000E+00 -0.27500000000E+03  0.27500000000E+03  0.00000000000E+00 0.  1.
    9000005    2    1    2  501    0 -0.28112859692E+02 -0.14146453601E+02 -0.42513669893E+02  0.47004170924E+03  0.46705603654E+03 0.  0.
         13    1    3    3    0    0  0.99618635340E+02 -0.14820331913E+03 -0.16894704190E+03  0.24582758038E+03  0.00000000000E+00 0.  1.
          3    1    3    3  501    0 -0.12773149503E+03  0.13405686553E+03  0.12643337201E+03  0.22421412885E+03  0.00000000000E+00 0.  1.
         21    1    1    2  502  501  0.28112859692E+02  0.14146453601E+02 -0.54967121179E+01  0.31947908753E+02  0.00000000000E+00 0. -1.
<scales pt_clust_4="550.00000" pt_clust_5="550.00000" pt_clust_6="31.47151"></scales>
<mgrwt>
<rscale>  0 0.30000000E+03</rscale>
<asrwt>  1 0.31471511E+02</asrwt>
<pdfrwt beam="1">  1        1 0.82541679E+00 0.30000000E+03</pdfrwt>
<pdfrwt beam="2">0</pdfrwt>
<totfact> 0.66073546E-04</totfact>
</mgrwt>
<clustering>
<clus scale="   31.472">  1  6  2 -1</clus>
<clus scale="  467.056">  4  5 -1 -1</clus>
<clus scale="  300.000">  1  4  2 -1</clus>
</clustering>
</event>
<event>
 6    1  0.9964252E-012  0.3000000E+03  0.7818608E-02  0.1093470E+00
          1   -1    0    0  502    0  0.00000000000E+00  0.00000000000E+00  0.23948246218E+03  0.23948246218E+03  0.00000000000E+00 0.  1.
         13   -1    0    0    0    0 -0.00000000000E+00 -0.00000000000E+00 -0.27500000000E+03  0.27500000000E+03  0.00000000000E+00 0.  1.
    9000005    2    1    2  501    0 -0.13317700363E+01  0.37409036522E+02 -0.59242722544E+02  0.47016436187E+03  0.46491248356E+03 0.  0.
         13    1    3    3    0    0 -0.86391401815E+01  0.15222043234E+02  0.20457104806E+03  0.20531843329E+03  0.00000000000E+00 0.  1.
          3    1    3    3  501    0  0.73073701453E+01  0.22186993288E+02 -0.26381377060E+03  0.26484592859E+03  0.00000000000E+00 0.  1.
         21    1    1    2  502  501  0.13317700363E+01 -0.37409036522E+02  0.23725184726E+02  0.44318100311E+02  0.00000000000E+00 0.  1.
<scales pt_clust_4="550.00000" pt_clust_5="550.00000" pt_clust_6="37.43273"></scales>
<mgrwt>
<rscale>  0 0.30000000E+03</rscale>
<asrwt>  1 0.37432735E+02</asrwt>
<pdfrwt beam="1">  1        1 0.87084532E+00 0.30000000E+03</pdfrwt>
<pdfrwt beam="2">0</pdfrwt>
<totfact> 0.24518375E-04</totfact>
</mgrwt>
<clustering>
<clus scale="   37.433">  1  6  2 -1</clus>
<clus scale="  464.912">  4  5 -1 -1</clus>
<clus scale="  300.000">  1  4  2 -1</clus>
</clustering>
</event>
<event>
 6    1  0.9964252E-012  0.3000000E+03  0.7818608E-02  0.1093470E+00
          1   -1    0    0  502    0  0.00000000000E+00  0.00000000000E+00  0.24409924616E+03  0.24409924616E+03  0.00000000000E+00 0.  1.
         13   -1    0    0    0    0 -0.00000000000E+00 -0.00000000000E+00 -0.27500000000E+03  0.27500000000E+03  0.00000000000E+00 0.  1.
    9000005    2    1    2  501    0 -0.13910967726E+02  0.30256984594E+02 -0.55888537174E+02  0.47746525217E+03  0.47301219678E+03 0.  0.
         13    1    3    3    0    0  0.59254116171E+02 -0.40883312320E+02 -0.24891878515E+03  0.25911977367E+03  0.00000000000E+00 0.  1.
          3    1    3    3  501    0 -0.73165083897E+02  0.71140296914E+02  0.19303024797E+03  0.21834547850E+03  0.00000000000E+00 0.  1.
         21    1    1    2  502  501  0.13910967726E+02 -0.30256984594E+02  0.24987783338E+02  0.41633993994E+02  0.00000000000E+00 0.  1.
<scales pt_clust_4="550.00000" pt_clust_5="550.00000" pt_clust_6="33.30165"></scales>
<mgrwt>
<rscale>  0 0.30000000E+03</rscale>
<asrwt>  1 0.33301654E+02</asrwt>
<pdfrwt beam="1">  1        1 0.88763362E+00 0.30000000E+03</pdfrwt>
<pdfrwt beam="2">0</pdfrwt>
<totfact> 0.15756286E-04</totfact>
</mgrwt>
<clustering>
<clus scale="   33.302">  1  6  2 -1</clus>
<clus scale="  473.012">  4  5 -1 -1</clus>
<clus scale="  300.000">  1  4  2 -1</clus>
</clustering>
</event>
<event>
 6    1  0.9964252E-012  0.3000000E+03  0.7818608E-02  0.1093470E+00
          1   -1    0    0  502    0  0.00000000000E+00  0.00000000000E+00  0.23816453684E+03  0.23816453684E+03  0.00000000000E+00 0.  1.
         13   -1    0    0    0    0 -0.00000000000E+00 -0.00000000000E+00 -0.27500000000E+03  0.27500000000E+03  0.00000000000E+00 0.  1.
    9000005    2    1    2  501    0 -0.32885368277E+02 -0.56298168903E+01 -0.60894617759E+02  0.47203078908E+03  0.46689588677E+03 0.  0.
         13    1    3    3    0    0 -0.30790897825E+02 -0.18875741326E+03  0.11077051369E+03  0.22101481207E+03  0.00000000000E+00 0.  1.
          1    1    3    3  501    0 -0.20944704520E+01  0.18312759637E+03 -0.17166513145E+03  0.25101597701E+03  0.00000000000E+00 0.  1.
         21    1    1    2  502  501  0.32885368277E+02  0.56298168903E+01  0.24059154601E+02  0.41133747763E+02  0.00000000000E+00 0. -1.
<scales pt_clust_4="550.00000" pt_clust_5="550.00000" pt_clust_6="33.36379"></scales>
<mgrwt>
<rscale>  0 0.30000000E+03</rscale>
<asrwt>  1 0.33363787E+02</asrwt>
<pdfrwt beam="1">  1        1 0.86605286E+00 0.30000000E+03</pdfrwt>
<pdfrwt beam="2">0</pdfrwt>
<totfact> 0.28088995E-04</totfact>
</mgrwt>
<clustering>
<clus scale="   33.364">  1  6  2 -1</clus>
<clus scale="  466.896">  4  5 -1 -1</clus>
<clus scale="  300.000">  1  4  2 -1</clus>
</clustering>
</event>
<event>
 6    1  0.9964252E-012  0.3000000E+03  0.7818608E-02  0.1093470E+00
          1   -1    0    0  502    0  0.00000000000E+00  0.00000000000E+00  0.24903786412E+03  0.24903786412E+03  0.00000000000E+00 0.  1.
         13   -1    0    0    0    0 -0.00000000000E+00 -0.00000000000E+00 -0.27500000000E+03  0.27500000000E+03  0.00000000000E+00 0.  1.
    9000005    2    1    2  501    0  0.32910096484E+02  0.24916484324E+01 -0.28596506279E+02  0.49092861058E+03  0.48898247183E+03 0.  0.
         13    1    3    3    0    0 -0.18131582749E+03  0.10822662580E+03  0.83459891136E+02  0.22705502694E+03  0.00000000000E+00 0.  1.
          3    1    3    3  501    0  0.21422592397E+03 -0.10573497737E+03 -0.11205639741E+03  0.26387358364E+03  0.00000000000E+00 0.  1.
         21    1    1    2  502  501 -0.32910096484E+02 -0.24916484324E+01  0.26343703997E+01  0.33109253539E+02  0.00000000000E+00 0.  1.
<scales pt_clust_4="550.00000" pt_clust_5="550.00000" pt_clust_6="33.00428"></scales>
<mgrwt>
<rscale>  0 0.30000000E+03</rscale>
<asrwt>  1 0.33004284E+02</asrwt>
<pdfrwt beam="1">  1        1 0.90559223E+00 0.30000000E+03</pdfrwt>
<pdfrwt beam="2">0</pdfrwt>
<totfact> 0.91062148E-05</totfact>
</mgrwt>
<clustering>
<clus scale="   33.004">  1  6  2 -1</clus>
<clus scale="  488.982">  4  5 -1 -1</clus>
<clus scale="  300.000">  1  4  2 -1</clus>
</clustering>
</event>
<event>
 6    1  0.9964252E-012  0.3000000E+03  0.7818608E-02  0.1093470E+00
          1   -1    0    0  502    0  0.00000000000E+00  0.00000000000E+00  0.24714808011E+03  0.24714808011E+03  0.00000000000E+00 0.  1.
         13   -1    0    0    0    0 -0.00000000000E+00 -0.00000000000E+00 -0.27500000000E+03  0.27500000000E+03  0.00000000000E+00 0.  1.
    9000005    2    1    2  501    0 -0.49634096477E+02  0.11315682028E+02 -0.42617750582E+02  0.46914225073E+03  0.46442070427E+03 0.  0.
         13    1    3    3    0    0 -0.48792432792E+02  0.10225938030E+03  0.18897099774E+03  0.22033547228E+03  0.00000000000E+00 0.  1.
          1    1    3    3  501    0 -0.84166368517E+00 -0.90943698272E+02 -0.23158874832E+03  0.24880677845E+03  0.00000000000E+00 0.  1.
         21    1    1    2  502  501  0.49634096477E+02 -0.11315682028E+02  0.14765830695E+02  0.53005829387E+02  0.00000000000E+00 0.  1.
<scales pt_clust_4="550.00000" pt_clust_5="550.00000" pt_clust_6="50.90764"></scales>
<mgrwt>
<rscale>  0 0.30000000E+03</rscale>
<asrwt>  1 0.50907644E+02</asrwt>
<pdfrwt beam="1">  1        1 0.89872029E+00 0.30000000E+03</pdfrwt>
<pdfrwt beam="2">0</pdfrwt>
<totfact> 0.10696612E-04</totfact>
</mgrwt>
<clustering>
<clus scale="   50.908">  1  6  2 -1</clus>
<clus scale="  464.421">  4  5 -1 -1</clus>
<clus scale="  300.000">  1  4  2 -1</clus>
</clustering>
</event>
<event>
 6    1  0.9964252E-012  0.3000000E+03  0.7818608E-02  0.1093470E+00
          1   -1    0    0  502    0  0.00000000000E+00  0.00000000000E+00  0.22645843139E+03  0.22645843139E+03  0.00000000000E+00 0.  1.
         13   -1    0    0    0    0 -0.00000000000E+00 -0.00000000000E+00 -0.27500000000E+03  0.27500000000E+03  0.00000000000E+00 0.  1.
    9000005    2    1    2  501    0 -0.30319777109E+02  0.92734217338E+01 -0.38858045059E+02  0.46830641994E+03  0.46561321937E+03 0.  0.
         13    1    3    3    0    0 -0.11785033502E+03 -0.17981777961E+03 -0.11819834140E+03  0.24534462138E+03  0.00000000000E+00 0.  1.
          3    1    3    3  501    0  0.87530557910E+02  0.18909120135E+03  0.79340296341E+02  0.22296179856E+03  0.00000000000E+00 0.  1.
         21    1    1    2  502  501  0.30319777109E+02 -0.92734217338E+01 -0.96835235546E+01  0.33152011448E+02  0.00000000000E+00 0. -1.
<scales pt_clust_4="550.00000" pt_clust_5="550.00000" pt_clust_6="31.70625"></scales>
<mgrwt>
<rscale>  0 0.30000000E+03</rscale>
<asrwt>  1 0.31706249E+02</asrwt>
<pdfrwt beam="1">  1        1 0.82348521E+00 0.30000000E+03</pdfrwt>
<pdfrwt beam="2">0</pdfrwt>
<totfact> 0.68653545E-04</totfact>
</mgrwt>
<clustering>
<clus scale="   31.706">  1  6  2 -1</clus>
<clus scale="  465.613">  4  5 -1 -1</clus>
<clus scale="  300.000">  1  4  2 -1</clus>
</clustering>
</event>
<event>
 6    1  0.9964252E-012  0.3000000E+03  0.7818608E-02  0.1093470E+00
          1   -1    0    0  502    0  0.00000000000E+00  0.00000000000E+00  0.24070643635E+03  0.24070643635E+03  0.00000000000E+00 0.  1.
         13   -1    0    0    0    0 -0.00000000000E+00 -0.00000000000E+00 -0.27500000000E+03  0.27500000000E+03  0.00000000000E+00 0.  1.
    9000005    2    1    2  501    0 -0.13827443156E+02  0.28478796586E+02 -0.65268430679E+02  0.47141555211E+03  0.46580083157E+03 0.  0.
         13    1    3    3    0    0 -0.12709749065E+03 -0.15045219380E+03 -0.14559470316E+03  0.24492336013E+03  0.00000000000E+00 0.  1.
          3    1    3    3  501    0  0.11327004749E+03  0.17893099038E+03  0.80326272483E+02  0.22649219198E+03  0.00000000000E+00 0.  1.
         21    1    1    2  502  501  0.13827443156E+02 -0.28478796586E+02  0.30974867024E+02  0.44290884236E+02  0.00000000000E+00 0.  1.
<scales pt_clust_4="550.00000" pt_clust_5="550.00000" pt_clust_6="31.65817"></scales>
<mgrwt>
<rscale>  0 0.30000000E+03</rscale>
<asrwt>  1 0.31658175E+02</asrwt>
<pdfrwt beam="1">  1        1 0.87529613E+00 0.30000000E+03</pdfrwt>
<pdfrwt beam="2">0</pdfrwt>
<totfact> 0.22757649E-04</totfact>
</mgrwt>
<clustering>
<clus scale="   31.658">  1  6  2 -1</clus>
<clus scale="  465.801">  4  5 -1 -1</clus>
<clus scale="  300.000">  1  4  2 -1</clus>
</clustering>
</event>
<event>
 6    1  0.9964252E-012  0.3000000E+03  0.7818608E-02  0.1093470E+00
          1   -1    0    0  502    0  0.00000000000E+00  0.00000000000E+00  0.25007690367E+03  0.25007690367E+03  0.00000000000E+00 0.  1.
         13   -1    0    0    0    0 -0.00000000000E+00 -0.00000000000E+00 -0.27500000000E+03  0.27500000000E+03  0.00000000000E+00 0.  1.
    9000005    2    1    2  501    0 -0.40124483351E+02 -0.13440921770E+02 -0.25539619563E+02  0.48275654636E+03  0.48021971882E+03 0.  0.
         13    1    3    3    0    0 -0.10831247516E+03 -0.21420835433E+03 -0.97163835264E+02  0.25895486522E+03  0.00000000000E+00 0.  1.
          1    1    3    3  501    0  0.68187991805E+02  0.20076743256E+03  0.71624215701E+02  0.22380168113E+03  0.00000000000E+00 0.  1.
         21    1    1    2  502  501  0.40124483351E+02  0.13440921770E+02  0.61652323414E+00  0.42320357313E+02  0.00000000000E+00 0.  1.
<scales pt_clust_4="550.00000" pt_clust_5="550.00000" pt_clust_6="42.31587"></scales>
<mgrwt>
<rscale>  0 0.30000000E+03</rscale>
<asrwt>  1 0.42315866E+02</asrwt>
<pdfrwt beam="1">  1        1 0.90937056E+00 0.30000000E+03</pdfrwt>
<pdfrwt beam="2">0</pdfrwt>
<totfact> 0.71860189E-05</totfact>
</mgrwt>
<clustering>
<clus scale="   42.316">  1  6  2 -1</clus>
<clus scale="  480.220">  4  5 -1 -1</clus>
<clus scale="  300.000">  1  4  2 -1</clus>
</clustering>
</event>
<event>
 6    1  0.9964252E-012  0.3000000E+03  0.7818608E-02  0.1093470E+00
          1   -1    0    0  502    0  0.00000000000E+00  0.00000000000E+00  0.23392936985E+03  0.23392936985E+03  0.00000000000E+00 0.  1.
         13   -1    0    0    0    0 -0.00000000000E+00 -0.00000000000E+00 -0.27500000000E+03  0.27500000000E+03  0.00000000000E+00 0.  1.
    9000005    2    1    2  501    0  0.29067289948E+02  0.18527007120E+02 -0.34692519625E+02  0.47387458941E+03  0.47134424599E+03 0.  0.
         13    1    3    3    0    0  0.12391954743E+03 -0.16655699174E+03  0.95499750298E+02  0.22851146151E+03  0.00000000000E+00 0.  1.
          1    1    3    3  501    0 -0.94852257485E+02  0.18508399886E+03 -0.13019226992E+03  0.24536312790E+03  0.00000000000E+00 0.  1.
         21    1    1    2  502  501 -0.29067289948E+02 -0.18527007120E+02 -0.63781105266E+01  0.35054780439E+02  0.00000000000E+00 0.  1.
<scales pt_clust_4="550.00000" pt_clust_5="550.00000" pt_clust_6="34.46968"></scales>
<mgrwt>
<rscale>  0 0.30000000E+03</rscale>
<asrwt>  1 0.34469675E+02</asrwt>
<pdfrwt beam="1">  1        1 0.85065225E+00 0.30000000E+03</pdfrwt>
<pdfrwt beam="2">0</pdfrwt>
<totfact> 0.40242063E-04</totfact>
</mgrwt>
<clustering>
<clus scale="   34.470">  1  6  2 -1</clus>
<clus scale="  471.344">  4  5 -1 -1</clus>
<clus scale="  300.000">  1  4  2 -1</clus>
</clustering>
</event>
<event>
 6    1  0.9964252E-012  0.3000000E+03  0.7818608E-02  0.1093470E+00
          1   -1    0    0  502    0  0.00000000000E+00  0.00000000000E+00  0.22777695545E+03  0.22777695545E+03  0.00000000000E+00 0.  1.
         13   -1    0    0    0    0 -0.00000000000E+00 -0.00000000000E+00 -0.27500000000E+03  0.27500000000E+03  0.00000000000E+00 0.  1.
    9000005    2    1    2  501    0 -0.30248723168E+00  0.37602079315E+02 -0.51112189756E+02  0.46497307579E+03  0.46062294493E+03 0.  0.
         13    1    3    3    0    0 -0.25308098911E+02  0.24687360144E+03 -0.27154060961E+00  0.24816758187E+03  0.00000000000E+00 0.  1.
          1    1    3    3  501    0  0.25005611679E+02 -0.20927152212E+03 -0.50840649146E+02  0.21680549392E+03  0.00000000000E+00 0.  1.
         21    1    1    2  502  501  0.30248723168E+00 -0.37602079315E+02  0.38891452104E+01  0.37803879666E+02  0.00000000000E+00 0.  1.
<scales pt_clust_4="550.00000" pt_clust_5="550.00000" pt_clust_6="37.60330"></scales>
<mgrwt>
<rscale>  0 0.30000000E+03</rscale>
<asrwt>  1 0.37603296E+02</asrwt>
<pdfrwt beam="1">  1        1 0.82827984E+00 0.30000000E+03</pdfrwt>
<pdfrwt beam="2">0</pdfrwt>
<totfact> 0.60303945E-04</totfact>
</mgrwt>
<clustering>
<clus scale="   37.603">  1  6  2 -1</clus>
<clus scale="  460.623">  4  5 -1 -1</clus>
<clus scale="  300.000">  1  4  2 -1</clus>
</clustering>
</event>
<event>
 6    1  0.9964252E-012  0.3000000E+03  0.7818608E-02  0.1093470E+00
          1   -1    0    0  502    0  0.00000000000E+00  0.00000000000E+00  0.22622892201E+03  0.22622892201E+03  0.00000000000E+00 0.  1.
         13   -1    0    0    0    0 -0.00000000000E+00 -0.00000000000E+00 -0.27500000000E+03  0.27500000000E+03  0.00000000000E+00 0.  1.
    9000005    2    1    2  501    0  0.31781599610E+02  0.19817080156E+02 -0.57153198641E+02  0.46284863167E+03  0.45777678074E+03 0.  0.
         13    1    3    3    0    0  0.18473349168E+02  0.18829485194E+03  0.11516006764E+03  0.22149053496E+03  0.00000000000E+00 0.  1.
          1    1    3    3  501    0  0.13308250442E+02 -0.16847777179E+03 -0.17231326628E+03  0.24135809672E+03  0.00000000000E+00 0.  1.
         21    1    1    2  502  501 -0.31781599610E+02 -0.19817080156E+02  0.83821206498E+01  0.38380290336E+02  0.00000000000E+00 0. -1.
<scales pt_clust_4="550.00000" pt_clust_5="550.00000" pt_clust_6="37.45379"></scales>
<mgrwt>
<rscale>  0 0.30000000E+03</rscale>
<asrwt>  1 0.37453795E+02</asrwt>
<pdfrwt beam="1">  1        1 0.82265063E+00 0.30000000E+03</pdfrwt>
<pdfrwt beam="2">0</pdfrwt>
<totfact> 0.67690930E-04</totfact>
</mgrwt>
<clustering>
<clus scale="   37.454">  1  6  2 -1</clus>
<clus scale="  457.777">  4  5 -1 -1</clus>
<clus scale="  300.000">  1  4  2 -1</clus>
</clustering>
</event>
<event>
 6    1  0.9964252E-012  0.3000000E+03  0.7818608E-02  0.1093470E+00
          1   -1    0    0  502    0  0.00000000000E+00  0.00000000000E+00  0.24825435353E+03  0.24825435353E+03  0.00000000000E+00 0.  1.
         13   -1    0    0    0    0 -0.00000000000E+00 -0.00000000000E+00 -0.27500000000E+03  0.27500000000E+03  0.00000000000E+00 0.  1.
    9000005    2    1    2  501    0 -0.38108475573E+02  0.32131890513E+02 -0.16689137832E+02  0.47240312282E+03  0.46946934813E+03 0.  0.
         13    1    3    3    0    0 -0.20859947575E+03 -0.12230805134E+03 -0.78828084079E+00  0.24181319669E+03  0.00000000000E+00 0.  1.
          3    1    3    3  501    0  0.17049100018E+03  0.15443994185E+03 -0.15900856991E+02  0.23058992613E+03  0.00000000000E+00 0.  1.
         21    1    1    2  502  501  0.38108475573E+02 -0.32131890513E+02 -0.10056508636E+02  0.50851230707E+02  0.00000000000E+00 0.  1.
<scales pt_clust_4="550.00000" pt_clust_5="550.00000" pt_clust_6="49.84693"></scales>
<mgrwt>
<rscale>  0 0.30000000E+03</rscale>
<asrwt>  1 0.49846934E+02</asrwt>
<pdfrwt beam="1">  1        1 0.90274310E+00 0.30000000E+03</pdfrwt>
<pdfrwt beam="2">0</pdfrwt>
<totfact> 0.94878863E-05</totfact>
</mgrwt>
<clustering>
<clus scale="   49.847">  1  6  2 -1</clus>
<clus scale="  469.469">  4  5 -1 -1</clus>
<clus scale="  300.000">  1  4  2 -1</clus>
</clustering>
</event>
<event>
 6    1  0.9964252E-012  0.3000000E+03  0.7818608E-02  0.1093470E+00
          1   -1    0    0  502    0  0.00000000000E+00  0.00000000000E+00  0.22261732655E+03  0.22261732655E+03  0.00000000000E+00 0.  1.
         13   -1    0    0    0    0 -0.00000000000E+00 -0.00000000000E+00 -0.27500000000E+03  0.27500000000E+03  0.00000000000E+00 0.  1.
    9000005    2    1    2  501    0  0.35195883627E+02  0.22787303196E+01 -0.37178384495E+02  0.45921012360E+03  0.45634171681E+03 0.  0.
         13    1    3    3    0    0  0.21291218358E+03 -0.89477638993E+02  0.57390282279E+02  0.23797371766E+03  0.00000000000E+00 0.  1.
          3    1    3    3  501    0 -0.17771629995E+03  0.91756369313E+02 -0.94568666774E+02  0.22123640594E+03  0.00000000000E+00 0.  1.
         21    1    1    2  502  501 -0.35195883627E+02 -0.22787303196E+01 -0.15204288955E+02  0.38407202954E+02  0.00000000000E+00 0.  1.
<scales pt_clust_4="550.00000" pt_clust_5="550.00000" pt_clust_6="35.26959"></scales>
<mgrwt>
<rscale>  0 0.30000000E+03</rscale>
<asrwt>  1 0.35269591E+02</asrwt>
<pdfrwt beam="1">  1        1 0.80951755E+00 0.30000000E+03</pdfrwt>
<pdfrwt beam="2">0</pdfrwt>
<totfact> 0.87846292E-04</totfact>
</mgrwt>
<clustering>
<clus scale="   35.270">  1  6  2 -1</clus>
<clus scale="  456.342">  4  5 -1 -1</clus>
<clus scale="  300.000">  1  4  2 -1</clus>
</clustering>
</event>
<event>
 6    1  0.9964252E-012  0.3000000E+03  0.7818608E-02  0.1093470E+00
          1   -1    0    0  502    0  0.00000000000E+00  0.00000000000E+00  0.23954530706E+03  0.23954530706E+03  0.00000000000E+00 0.  1.
         13   -1    0    0    0    0 -0.00000000000E+00 -0.00000000000E+00 -0.27500000000E+03  0.27500000000E+03  0.00000000000E+00 0.  1.
    9000005    2    1    2  501    0  0.15124751098E+02  0.29273174424E+02 -0.57296487278E+01  0.47016901734E+03  0.46897803696E+03 0.  0.
         13    1    3    3    0    0 -0.20260438776E+03 -0.68878715911E+02  0.60399041123E+02  0.22235300675E+03  0.00000000000E+00 0.  1.
          1    1    3    3  501    0  0.21772913885E+03  0.98151890335E+02 -0.66128689851E+02  0.24781601059E+03  0.00000000000E+00 0.  1.
         21    1    1    2  502  501 -0.15124751098E+02 -0.29273174424E+02 -0.29725044207E+02  0.44376289725E+02  0.00000000000E+00 0.  1.
<scales pt_clust_4="550.00000" pt_clust_5="550.00000" pt_clust_6="32.94963"></scales>
<mgrwt>
<rscale>  0 0.30000000E+03</rscale>
<asrwt>  1 0.32949627E+02</asrwt>
<pdfrwt beam="1">  1        1 0.87107384E+00 0.30000000E+03</pdfrwt>
<pdfrwt beam="2">0</pdfrwt>
<totfact> 0.24975616E-04</totfact>
</mgrwt>
<clustering>
<clus scale="   32.950">  1  6  2 -1</clus>
<clus scale="  468.978">  4  5 -1 -1</clus>
<clus scale="  300.000">  1  4  2 -1</clus>
</clustering>
</event>
<event>
 6    1  0.9964252E-012  0.3000000E+03  0.7818608E-02  0.1093470E+00
          1   -1    0    0  502    0  0.00000000000E+00  0.00000000000E+00  0.23809515650E+03  0.23809515650E+03  0.00000000000E+00 0.  1.
         13   -1    0    0    0    0 -0.00000000000E+00 -0.00000000000E+00 -0.27500000000E+03  0.27500000000E+03  0.00000000000E+00 0.  1.
    9000005    2    1    2  501    0 -0.35195440128E+02  0.39955274185E+00 -0.35928311206E+02  0.47788390456E+03  0.47522973817E+03 0.  0.
         13    1    3    3    0    0 -0.42459155236E+02 -0.71815709522E+02 -0.24381386607E+03  0.25769260231E+03  0.00000000000E+00 0.  1.
          1    1    3    3  501    0  0.72637151082E+01  0.72215262264E+02  0.20788555487E+03  0.22019130224E+03  0.00000000000E+00 0.  1.
         21    1    1    2  502  501  0.35195440128E+02 -0.39955274185E+00 -0.97653229156E+00  0.35211251945E+02  0.00000000000E+00 0.  1.
<scales pt_clust_4="550.00000" pt_clust_5="550.00000" pt_clust_6="35.19771"></scales>
<mgrwt>
<rscale>  0 0.30000000E+03</rscale>
<asrwt>  1 0.35197708E+02</asrwt>
<pdfrwt beam="1">  1        1 0.86580057E+00 0.30000000E+03</pdfrwt>
<pdfrwt beam="2">0</pdfrwt>
<totfact> 0.27981254E-04</totfact>
</mgrwt>
<clustering>
<clus scale="   35.198">  1  6  2 -1</clus>
<clus scale="  475.230">  4  5 -1 -1</clus>
<clus scale="  300.000">  1  4  2 -1</clus>
</clustering>
</event>
<event>
 6    1  0.9964252E-012  0.3000000E+03  0.7818608E-02  0.1093470E+00
          1   -1    0    0  502    0  0.00000000000E+00  0.00000000000E+00  0.24327676325E+03  0.24327676325E+03  0.00000000000E+00 0.  1.
         13   -1    0    0    0    0 -0.00000000000E+00 -0.00000000000E+00 -0.27500000000E+03  0.27500000000E+03  0.00000000000E+00 0.  1.
    9000005    2    1    2  501    0 -0.32870253612E+02  0.31416776523E+01 -0.39806716527E+02  0.48428167013E+03  0.48151203270E+03 0.  0.
         13    1    3    3    0    0 -0.14651414610E+03  0.10498643228E+03 -0.19574964967E+03  0.26609485398E+03  0.00000000000E+00 0.  1.
          1    1    3    3  501    0  0.11364389249E+03 -0.10184475463E+03  0.15594293314E+03  0.21818681615E+03  0.00000000000E+00 0.  1.
         21    1    1    2  502  501  0.32870253612E+02 -0.31416776523E+01  0.80834797797E+01  0.33995093121E+02  0.00000000000E+00 0. -1.
<scales pt_clust_4="550.00000" pt_clust_5="550.00000" pt_clust_6="33.02005"></scales>
<mgrwt>
<rscale>  0 0.30000000E+03</rscale>
<asrwt>  1 0.33020050E+02</asrwt>
<pdfrwt beam="1">  1        1 0.88464278E+00 0.30000000E+03</pdfrwt>
<pdfrwt beam="2">0</pdfrwt>
<totfact> 0.17351716E-04</totfact>
</mgrwt>
<clustering>
<clus scale="   33.020">  1  6  2 -1</clus>
<clus scale="  481.512">  4  5 -1 -1</clus>
<clus scale="  300.000">  1  4  2 -1</clus>
</clustering>
</event>
<event>
 6    1  0.9964252E-012  0.3000000E+03  0.7818608E-02  0.1093470E+00
          1   -1    0    0  502    0  0.00000000000E+00  0.00000000000E+00  0.25493221327E+03  0.25493221327E+03  0.00000000000E+00 0.  1.
         13   -1    0    0    0    0 -0.00000000000E+00 -0.00000000000E+00 -0.27500000000E+03  0.27500000000E+03  0.00000000000E+00 0.  1.
    9000005    2    1    2  501    0  0.16157160329E+01 -0.43028323010E+02 -0.10504681569E+02  0.48582438971E+03  0.48379845202E+03 0.  0.
         13    1    3    3    0    0 -0.22174168681E+03  0.46053891072E+02 -0.71956129301E+02  0.23763000883E+03  0.00000000000E+00 0.  1.
          1    1    3    3  501    0  0.22335740284E+03 -0.89082214082E+02  0.61451447732E+02  0.24819438088E+03  0.00000000000E+00 0.  1.
         21    1    1    2  502  501 -0.16157160329E+01  0.43028323010E+02 -0.95631051587E+01  0.44107823565E+02  0.00000000000E+00 0.  1.
<scales pt_clust_4="550.00000" pt_clust_5="550.00000" pt_clust_6="43.05867"></scales>
<mgrwt>
<rscale>  0 0.30000000E+03</rscale>
<asrwt>  1 0.43058669E+02</asrwt>
<pdfrwt beam="1">  1        1 0.92702623E+00 0.30000000E+03</pdfrwt>
<pdfrwt beam="2">0</pdfrwt>
<totfact> 0.28675152E-05</totfact>
</mgrwt>
<clustering>
<clus scale="   43.059">  1  6  2 -1</clus>
<clus scale="  483.798">  4  5 -1 -1</clus>
<clus scale="  300.000">  1  4  2 -1</clus>
</clustering>
</event>
<event>
 6    1  0.9964252E-012  0.3000000E+03  0.7818608E-02  0.1093470E+00
          1   -1    0    0  502    0  0.00000000000E+00  0.00000000000E+00  0.22538848952E+03  0.22538848952E+03  0.00000000000E+00 0.  1.
         13   -1    0    0    0    0 -0.00000000000E+00 -0.00000000000E+00 -0.27500000000E+03  0.27500000000E+03  0.00000000000E+00 0.  1.
    9000005    2    1    2  501    0  0.27878069674E+02  0.11923908095E+02 -0.65048575658E+02  0.46636394934E+03  0.46080869100E+03 0.  0.
         13    1    3    3    0    0  0.69221364996E+02  0.13417954651E+03  0.15174677030E+03  0.21406267860E+03  0.00000000000E+00 0.  1.
          3    1    3    3  501    0 -0.41343295323E+02 -0.12225563841E+03 -0.21679534595E+03  0.25230127074E+03  0.00000000000E+00 0.  1.
         21    1    1    2  502  501 -0.27878069674E+02 -0.11923908095E+02  0.15437065174E+02  0.34024540176E+02  0.00000000000E+00 0. -1.
<scales pt_clust_4="550.00000" pt_clust_5="550.00000" pt_clust_6="30.32105"></scales>
<mgrwt>
<rscale>  0 0.30000000E+03</rscale>
<asrwt>  1 0.30321055E+02</asrwt>
<pdfrwt beam="1">  1        1 0.81959451E+00 0.30000000E+03</pdfrwt>
<pdfrwt beam="2">0</pdfrwt>
<totfact> 0.74925348E-04</totfact>
</mgrwt>
<clustering>
<clus scale="   30.321">  1  6  2 -1</clus>
<clus scale="  460.809">  4  5 -1 -1</clus>
<clus scale="  300.000">  1  4  2 -1</clus>
</clustering>
</event>
<event>
 6    1  0.9964252E-012  0.3000000E+03  0.7818608E-02  0.1093470E+00
          1   -1    0    0  502    0  0.00000000000E+00  0.00000000000E+00  0.23243988245E+03  0.23243988245E+03  0.00000000000E+00 0.  1.
         13   -1    0    0    0    0 -0.00000000000E+00 -0.00000000000E+00 -0.27500000000E+03  0.27500000000E+03  0.00000000000E+00 0.  1.
    9000005    2    1    2  501    0  0.33979356533E+02  0.77282041874E+01 -0.24368617322E+02  0.46813018275E+03  0.46619493420E+03 0.  0.
         13    1    3    3    0    0 -0.11553695858E+03  0.17358929367E+03  0.77797719399E+02  0.22256351187E+03  0.00000000000E+00 0.  1.
          3    1    3    3  501    0  0.14951631511E+03 -0.16586108948E+03 -0.10216633672E+03  0.24556667088E+03  0.00000000000E+00 0.  1.
         21    1    1    2  502  501 -0.33979356533E+02 -0.77282041874E+01 -0.18191500226E+02  0.39309699705E+02  0.00000000000E+00 0. -1.
<scales pt_clust_4="550.00000" pt_clust_5="550.00000" pt_clust_6="34.84714"></scales>
<mgrwt>
<rscale>  0 0.30000000E+03</rscale>
<asrwt>  1 0.34847138E+02</asrwt>
<pdfrwt beam="1">  1        1 0.84523594E+00 0.30000000E+03</pdfrwt>
<pdfrwt beam="2">0</pdfrwt>
<totfact> 0.45004915E-04</totfact>
</mgrwt>
<clustering>
<clus scale="   34.847">  1  6  2 -1</clus>
<clus scale="  466.195">  4  5 -1 -1</clus>
<clus scale="  300.000">  1  4  2 -1</clus>
</clustering>
</event>
<event>
 6    1  0.9964252E-012  0.3000000E+03  0.7818608E-02  0.1093470E+00
          1   -1    0    0  502    0  0.00000000000E+00  0.00000000000E+00  0.23511359262E+03  0.23511359262E+03  0.00000000000E+00 0.  1.
         13   -1    0    0    0    0 -0.00000000000E+00 -0.00000000000E+00 -0.27500000000E+03  0.27500000000E+03  0.00000000000E+00 0.  1.
    9000005    2    1    2  501    0  0.87220984849E+00  0.37672049902E+02 -0.58441358143E+02  0.46811085114E+03  0.46291730635E+03 0.  0.
         13    1    3    3    0    0 -0.15987957313E+03 -0.60278479118E+02 -0.17670245377E+03  0.24580221747E+03  0.00000000000E+00 0.  1.
          1    1    3    3  501    0  0.16075178298E+03  0.97950529020E+02  0.11826109562E+03  0.22230863367E+03  0.00000000000E+00 0.  1.
         21    1    1    2  502  501 -0.87220984849E+00 -0.37672049902E+02  0.18554950764E+02  0.42002741479E+02  0.00000000000E+00 0. -1.
<scales pt_clust_4="550.00000" pt_clust_5="550.00000" pt_clust_6="37.68215"></scales>
<mgrwt>
<rscale>  0 0.30000000E+03</rscale>
<asrwt>  1 0.37682146E+02</asrwt>
<pdfrwt beam="1">  1        1 0.85495852E+00 0.30000000E+03</pdfrwt>
<pdfrwt beam="2">0</pdfrwt>
<totfact> 0.35971268E-04</totfact>
</mgrwt>
<clustering>
<clus scale="   37.682">  1  6  2 -1</clus>
<clus scale="  462.917">  4  5 -1 -1</clus>
<clus scale="  300.000">  1  4  2 -1</clus>
</clustering>
</event>
<event>
 6    1  0.9964252E-012  0.3000000E+03  0.7818608E-02  0.1093470E+00
          1   -1    0    0  502    0  0.00000000000E+00  0.00000000000E+00  0.25370209216E+03  0.25370209216E+03  0.00000000000E+00 0.  1.
         13   -1    0    0    0    0 -0.00000000000E+00 -0.00000000000E+00 -0.27500000000E+03  0.27500000000E+03  0.00000000000E+00 0.  1.
    9000005    2    1    2  501    0  0.22073715142E+02  0.24998302453E+02 -0.52390972727E+02  0.48310666794E+03  0.47909818885E+03 0.  0.
         13    1    3    3    0    0  0.23979597486E+03  0.66369344147E+02  0.20891551363E+02  0.24968671634E+03  0.00000000000E+00 0.  1.
          1    1    3    3  501    0 -0.21772225972E+03 -0.41371041693E+02 -0.73282524090E+02  0.23341995160E+03  0.00000000000E+00 0.  1.
         21    1    1    2  502  501 -0.22073715142E+02 -0.24998302453E+02  0.31093064891E+02  0.45595424222E+02  0.00000000000E+00 0.  1.
<scales pt_clust_4="550.00000" pt_clust_5="550.00000" pt_clust_6="33.34912"></scales>
<mgrwt>
<rscale>  0 0.30000000E+03</rscale>
<asrwt>  1 0.33349123E+02</asrwt>
<pdfrwt beam="1">  1        1 0.92255306E+00 0.30000000E+03</pdfrwt>
<pdfrwt beam="2">0</pdfrwt>
<totfact> 0.37206707E-05</totfact>
</mgrwt>
<clustering>
<clus scale="   33.349">  1  6  2 -1</clus>
<clus scale="  479.098">  4  5 -1 -1</clus>
<clus scale="  300.000">  1  4  2 -1</clus>
</clustering>
</event>
<event>
 6    1  0.9964252E-012  0.3000000E+03  0.7818608E-02  0.1093470E+00
          1   -1    0    0  502    0  0.00000000000E+00  0.00000000000E+00  0.22882099311E+03  0.22882099311E+03  0.00000000000E+00 0.  1.
         13   -1    0    0    0    0 -0.00000000000E+00 -0.00000000000E+00 -0.27500000000E+03  0.27500000000E+03  0.00000000000E+00 0.  1.
    9000005    2    1    2  501    0  0.15859261273E+02 -0.36137203280E+02 -0.50149729492E+02  0.46415765655E+03  0.45974984626E+03 0.  0.
         13    1    3    3    0    0  0.11998878932E+02  0.18087866395E+03  0.93408979580E+02  0.20392719690E+03  0.00000000000E+00 0.  1.
          1    1    3    3  501    0  0.38603823410E+01 -0.21701586723E+03 -0.14355870907E+03  0.26023045966E+03  0.00000000000E+00 0.  1.
         21    1    1    2  502  501 -0.15859261273E+02  0.36137203280E+02  0.39707226051E+01  0.39663336559E+02  0.00000000000E+00 0.  1.
<scales pt_clust_4="550.00000" pt_clust_5="550.00000" pt_clust_6="39.46408"></scales>
<mgrwt>
<rscale>  0 0.30000000E+03</rscale>
<asrwt>  1 0.39464080E+02</asrwt>
<pdfrwt beam="1">  1        1 0.83207634E+00 0.30000000E+03</pdfrwt>
<pdfrwt beam="2">0</pdfrwt>
<totfact> 0.55641715E-04</totfact>
</mgrwt>
<clustering>
<clus scale="   39.464">  1  6  2 -1</clus>
<clus scale="  459.750">  4  5 -1 -1</clus>
<clus scale="  300.000">  1  4  2 -1</clus>
</clustering>
</event>
<event>
 6    1  0.9964252E-012  0.3000000E+03  0.7818608E-02  0.1093470E+00
          1   -1    0    0  502    0  0.00000000000E+00  0.00000000000E+00  0.22474813784E+03  0.22474813784E+03  0.00000000000E+00 0.  1.
         13   -1    0    0    0    0 -0.00000000000E+00 -0.00000000000E+00 -0.27500000000E+03  0.27500000000E+03  0.00000000000E+00 0.  1.
    9000005    2    1    2  501    0  0.19076508469E+02 -0.23615412920E+02 -0.51244620805E+02  0.46937402925E+03  0.46557960358E+03 0.  0.
         13    1    3    3    0    0 -0.95826283193E+02  0.74040010884E+02  0.16566005339E+03  0.20520198111E+03  0.00000000000E+00 0.  1.
          3    1    3    3  501    0  0.11490279166E+03 -0.97655423804E+02 -0.21690467420E+03  0.26417204814E+03  0.00000000000E+00 0.  1.
         21    1    1    2  502  501 -0.19076508469E+02  0.23615412920E+02  0.99275864324E+00  0.30374108587E+02  0.00000000000E+00 0. -1.
<scales pt_clust_4="550.00000" pt_clust_5="550.00000" pt_clust_6="30.35788"></scales>
<mgrwt>
<rscale>  0 0.30000000E+03</rscale>
<asrwt>  1 0.30357880E+02</asrwt>
<pdfrwt beam="1">  1        1 0.81726596E+00 0.30000000E+03</pdfrwt>
<pdfrwt beam="2">0</pdfrwt>
<totfact> 0.78369550E-04</totfact>
</mgrwt>
<clustering>
<clus scale="   30.358">  1  6  2 -1</clus>
<clus scale="  465.580">  4  5 -1 -1</clus>
<clus scale="  300.000">  1  4  2 -1</clus>
</clustering>
</event>
<event>
 6    1  0.9964252E-012  0.3000000E+03  0.7818608E-02  0.1093470E+00
          1   -1    0    0  502    0  0.00000000000E+00  0.00000000000E+00  0.24856625227E+03  0.24856625227E+03  0.00000000000E+00 0.  1.
         13   -1    0    0    0    0 -0.00000000000E+00 -0.00000000000E+00 -0.27500000000E+03  0.27500000000E+03  0.00000000000E+00 0.  1.
    9000005    2    1    2  501    0 -0.34995041119E+02 -0.30421471452E+02 -0.35454150180E+02  0.47632764001E+03  0.47273767043E+03 0.  0.
         13    1    3    3    0    0  0.14211650887E+03 -0.11102218763E+03  0.12885599337E+03  0.22164587807E+03  0.00000000000E+00 0.  1.
          3    1    3    3  501    0 -0.17711154999E+03  0.80600716176E+02 -0.16431014355E+03  0.25468176193E+03  0.00000000000E+00 0.  1.
         21    1    1    2  502  501  0.34995041119E+02  0.30421471452E+02  0.90204024509E+01  0.47238612263E+02  0.00000000000E+00 0.  1.
<scales pt_clust_4="550.00000" pt_clust_5="550.00000" pt_clust_6="46.36937"></scales>
<mgrwt>
<rscale>  0 0.30000000E+03</rscale>
<asrwt>  1 0.46369374E+02</asrwt>
<pdfrwt beam="1">  1        1 0.90387728E+00 0.30000000E+03</pdfrwt>
<pdfrwt beam="2">0</pdfrwt>
<totfact> 0.92054028E-05</totfact>
</mgrwt>
<clustering>
<clus scale="   46.369">  1  6  2 -1</clus>
<clus scale="  472.738">  4  5 -1 -1</clus>
<clus scale="  300.000">  1  4  2 -1</clus>
</clustering>
</event>
<event>
 6    1  0.9964252E-012  0.3000000E+03  0.7818608E-02  0.1093470E+00
          1   -1    0    0  502    0  0.00000000000E+00  0.00000000000E+00  0.22818658362E+03  0.22818658362E+03  0.00000000000E+00 0.  1.
         13   -1    0    0    0    0 -0.00000000000E+00 -0.00000000000E+00 -0.27500000000E+03  0.27500000000E+03  0.00000000000E+00 0.  1.
    9000005    2    1    2  501    0 -0.20640540784E+02 -0.28999128048E+02 -0.28655730063E+02  0.46322806858E+03  0.46096866630E+03 0.  0.
         13    1    3    3    0    0  0.43270234540E+02  0.20064465897E+03  0.51715520477E+02  0.21167212246E+03  0.00000000000E+00 0.  1.
          3    1    3    3  501    0 -0.63910775323E+02 -0.22964378701E+03 -0.80371250540E+02  0.25155594612E+03  0.00000000000E+00 0.  1.
         21    1    1    2  502  501  0.20640540784E+02  0.28999128048E+02 -0.18157686318E+02  0.39958515035E+02  0.00000000000E+00 0.  1.
<scales pt_clust_4="550.00000" pt_clust_5="550.00000" pt_clust_6="35.59470"></scales>
<mgrwt>
<rscale>  0 0.30000000E+03</rscale>
<asrwt>  1 0.35594699E+02</asrwt>
<pdfrwt beam="1">  1        1 0.82976939E+00 0.30000000E+03</pdfrwt>
<pdfrwt beam="2">0</pdfrwt>
<totfact> 0.59175193E-04</totfact>
</mgrwt>
<clustering>
<clus scale="   35.595">  1  6  2 -1</clus>
<clus scale="  460.969">  4  5 -1 -1</clus>
<clus scale="  300.000">  1  4  2 -1</clus>
</clustering>
</event>
<event>
 6    1  0.9964252E-012  0.3000000E+03  0.7818608E-02  0.1093470E+00
          1   -1    0    0  502    0  0.00000000000E+00  0.00000000000E+00  0.24002536259E+03  0.24002536259E+03  0.00000000000E+00 0.  1.
         13   -1    0    0    0    0 -0.00000000000E+00 -0.00000000000E+00 -0.27500000000E+03  0.27500000000E+03  0.00000000000E+00 0.  1.
    9000005    2    1    2  501    0 -0.15190012133E+02 -0.30108376684E+02 -0.68448594110E+02  0.46750950637E+03  0.46124036868E+03 0.  0.
         13    1    3    3    0    0  0.19671890077E+03 -0.10390031007E+01 -0.14057061974E+03  0.24178400398E+03  0.00000000000E+00 0.  1.
          3    1    3    3  501    0 -0.21190891290E+03 -0.29069373584E+02  0.72122025632E+02  0.22572550239E+03  0.00000000000E+00 0.  1.
         21    1    1    2  502  501  0.15190012133E+02  0.30108376684E+02  0.33473956701E+02  0.47515856221E+02  0.00000000000E+00 0. -1.
<scales pt_clust_4="550.00000" pt_clust_5="550.00000" pt_clust_6="33.72315"></scales>
<mgrwt>
<rscale>  0 0.30000000E+03</rscale>
<asrwt>  1 0.33723150E+02</asrwt>
<pdfrwt beam="1">  1        1 0.87281950E+00 0.30000000E+03</pdfrwt>
<pdfrwt beam="2">0</pdfrwt>
<totfact> 0.23864962E-04</totfact>
</mgrwt>
<clustering>
<clus scale="   33.723">  1  6  2 -1</clus>
<clus scale="  461.240">  4  5 -1 -1</clus>
<clus scale="  300.000">  1  4  2 -1</clus>
</clustering>
</event>
<event>
 6    1  0.9964252E-012  0.3000000E+03  0.7818608E-02  0.1093470E+00
          1   -1    0    0  502    0  0.00000000000E+00  0.00000000000E+00  0.23866753400E+03  0.23866753400E+03  0.00000000000E+00 0.  1.
         13   -1    0    0    0    0 -0.00000000000E+00 -0.00000000000E+00 -0.27500000000E+03  0.27500000000E+03  0.00000000000E+00 0.  1.
    9000005    2    1    2  501    0  0.19513101349E+02 -0.23177750106E+02 -0.35290723742E+02  0.48335162315E+03  0.48110849836E+03 0.  0.
         13    1    3    3    0    0 -0.21124037636E+02  0.18081617416E+03  0.12493491247E+03  0.22079276745E+03  0.00000000000E+00 0.  1.
          1    1    3    3  501    0  0.40637138985E+02 -0.20399392427E+03 -0.16022563622E+03  0.26255885569E+03  0.00000000000E+00 0.  1.
         21    1    1    2  502  501 -0.19513101349E+02  0.23177750106E+02 -0.10417422540E+01  0.30315910858E+02  0.00000000000E+00 0.  1.
<scales pt_clust_4="550.00000" pt_clust_5="550.00000" pt_clust_6="30.29801"></scales>
<mgrwt>
<rscale>  0 0.30000000E+03</rscale>
<asrwt>  1 0.30298007E+02</asrwt>
<pdfrwt beam="1">  1        1 0.86788194E+00 0.30000000E+03</pdfrwt>
<pdfrwt beam="2">0</pdfrwt>
<totfact> 0.27368441E-04</totfact>
</mgrwt>
<clustering>
<clus scale="   30.298">  1  6  2 -1</clus>
<clus scale="  481.108">  4  5 -1 -1</clus>
<clus scale="  300.000">  1  4  2 -1</clus>
</clustering>
</event>
<event>
 6    1  0.9964252E-012  0.3000000E+03  0.7818608E-02  0.1093470E+00
          1   -1    0    0  502    0  0.00000000000E+00  0.00000000000E+00  0.22433536870E+03  0.22433536870E+03  0.00000000000E+00 0.  1.
         13   -1    0    0    0    0 -0.00000000000E+00 -0.00000000000E+00 -0.27500000000E+03  0.27500000000E+03  0.00000000000E+00 0.  1.
    9000005    2    1    2  501    0  0.24551977590E+02 -0.22427166202E+02 -0.45233236116E+02  0.46564149031E+03  0.46224471275E+03 0.  0.
         13    1    3    3    0    0  0.16017071176E+03 -0.17048601915E+03  0.56362998074E+02  0.24061780313E+03  0.00000000000E+00 0.  1.
          3    1    3    3  501    0 -0.13561873417E+03  0.14805885295E+03 -0.10159623419E+03  0.22502368719E+03  0.00000000000E+00 0.  1.
         21    1    1    2  502  501 -0.24551977590E+02  0.22427166202E+02 -0.54313951800E+01  0.33693878391E+02  0.00000000000E+00 0.  1.
<scales pt_clust_4="550.00000" pt_clust_5="550.00000" pt_clust_6="33.25325"></scales>
<mgrwt>
<rscale>  0 0.30000000E+03</rscale>
<asrwt>  1 0.33253248E+02</asrwt>
<pdfrwt beam="1">  1        1 0.81576498E+00 0.30000000E+03</pdfrwt>
<pdfrwt beam="2">0</pdfrwt>
<totfact> 0.79233784E-04</totfact>
</mgrwt>
<clustering>
<clus scale="   33.253">  1  6  2 -1</clus>
<clus scale="  462.245">  4  5 -1 -1</clus>
<clus scale="  300.000">  1  4  2 -1</clus>
</clustering>
</event>
<event>
 6    1  0.9964252E-012  0.3000000E+03  0.7818608E-02  0.1093470E+00
          1   -1    0    0  502    0  0.00000000000E+00  0.00000000000E+00  0.23445422078E+03  0.23445422078E+03  0.00000000000E+00 0.  1.
         13   -1    0    0    0    0 -0.00000000000E+00 -0.00000000000E+00 -0.27500000000E+03  0.27500000000E+03  0.00000000000E+00 0.  1.
    9000005    2    1    2  501    0  0.15095518312E+02 -0.39327270815E+02 -0.34037677409E+02  0.46682952967E+03  0.46367740659E+03 0.  0.
         13    1    3    3    0    0  0.15420275233E+03  0.27653693438E+02 -0.19075068126E+03  0.24683808051E+03  0.00000000000E+00 0.  1.
          3    1    3    3  501    0 -0.13910723402E+03 -0.66980964254E+02  0.15671300385E+03  0.21999144916E+03  0.00000000000E+00 0.  1.
         21    1    1    2  502  501 -0.15095518312E+02  0.39327270815E+02 -0.65081018157E+01  0.42624691109E+02  0.00000000000E+00 0.  1.
<scales pt_clust_4="550.00000" pt_clust_5="550.00000" pt_clust_6="42.12494"></scales>
<mgrwt>
<rscale>  0 0.30000000E+03</rscale>
<asrwt>  1 0.42124941E+02</asrwt>
<pdfrwt beam="1">  1        1 0.85256080E+00 0.30000000E+03</pdfrwt>
<pdfrwt beam="2">0</pdfrwt>
<totfact> 0.37190981E-04</totfact>
</mgrwt>
<clustering>
<clus scale="   42.125">  1  6  2 -1</clus>
<clus scale="  463.677">  4  5 -1 -1</clus>
<clus scale="  300.000">  1  4  2 -1</clus>
</clustering>
</event>
<event>
 6    1  0.9964252E-012  0.3000000E+03  0.7818608E-02  0.1093470E+00
          1   -1    0    0  502    0  0.00000000000E+00  0.00000000000E+00  0.25447078848E+03  0.25447078848E+03  0.00000000000E+00 0.  1.
         13   -1    0    0    0    0 -0.00000000000E+00 -0.00000000000E+00 -0.27500000000E+03  0.27500000000E+03  0.00000000000E+00 0.  1.
    9000005    2    1    2  501    0 -0.21231996420E+02 -0.34478467306E+02 -0.57189772943E+02  0.47484882272E+03  0.46965005262E+03 0.  0.
         13    1    3    3    0    0 -0.17923679583E+03  0.10349620031E+03  0.82518586531E+02  0.22281519154E+03  0.00000000000E+00 0.  1.
          1    1    3    3  501    0  0.15800479941E+03 -0.13797466762E+03 -0.13970835947E+03  0.25203363118E+03  0.00000000000E+00 0.  1.
         21    1    1    2  502  501  0.21231996420E+02  0.34478467306E+02  0.36660561419E+02  0.54621965759E+02  0.00000000000E+00 0.  1.
<scales pt_clust_4="550.00000" pt_clust_5="550.00000" pt_clust_6="40.49151"></scales>
<mgrwt>
<rscale>  0 0.30000000E+03</rscale>
<asrwt>  1 0.40491510E+02</asrwt>
<pdfrwt beam="1">  1        1 0.92534832E+00 0.30000000E+03</pdfrwt>
<pdfrwt beam="2">0</pdfrwt>
<totfact> 0.31400327E-05</totfact>
</mgrwt>
<clustering>
<clus scale="   40.492">  1  6  2 -1</clus>
<clus scale="  469.650">  4  5 -1 -1</clus>
<clus scale="  300.000">  1  4  2 -1</clus>
</clustering>
</event>
<event>
 6    1  0.9964252E-012  0.3000000E+03  0.7818608E-02  0.1093470E+00
          1   -1    0    0  502    0  0.00000000000E+00  0.00000000000E+00  0.23151010059E+03  0.23151010059E+03  0.00000000000E+00 0.  1.
         13   -1    0    0    0    0 -0.00000000000E+00 -0.00000000000E+00 -0.27500000000E+03  0.27500000000E+03  0.00000000000E+00 0.  1.
    9000005    2    1    2  501    0  0.69550498839E+01 -0.32581302907E+02 -0.51843293156E+02  0.47216343838E+03  0.46812463242E+03 0.  0.
         13    1    3    3    0    0  0.21408948057E+03  0.10869607319E+02 -0.12510301604E+03  0.24819995704E+03  0.00000000000E+00 0.  1.
          1    1    3    3  501    0 -0.20713443068E+03 -0.43450910226E+02  0.73259722885E+02  0.22396348134E+03  0.00000000000E+00 0.  1.
         21    1    1    2  502  501 -0.69550498839E+01  0.32581302907E+02  0.83533937466E+01  0.34346662212E+02  0.00000000000E+00 0.  1.
<scales pt_clust_4="550.00000" pt_clust_5="550.00000" pt_clust_6="33.31537"></scales>
<mgrwt>
<rscale>  0 0.30000000E+03</rscale>
<asrwt>  1 0.33315372E+02</asrwt>
<pdfrwt beam="1">  1        1 0.84185491E+00 0.30000000E+03</pdfrwt>
<pdfrwt beam="2">0</pdfrwt>
<totfact> 0.48496200E-04</totfact>
</mgrwt>
<clustering>
<clus scale="   33.315">  1  6  2 -1</clus>
<clus scale="  468.125">  4  5 -1 -1</clus>
<clus scale="  300.000">  1  4  2 -1</clus>
</clustering>
</event>
<event>
 6    1  0.9964252E-012  0.3000000E+03  0.7818608E-02  0.1093470E+00
          1   -1    0    0  502    0  0.00000000000E+00  0.00000000000E+00  0.24417500331E+03  0.24417500331E+03  0.00000000000E+00 0.  1.
         13   -1    0    0    0    0 -0.00000000000E+00 -0.00000000000E+00 -0.27500000000E+03  0.27500000000E+03  0.00000000000E+00 0.  1.
    9000005    2    1    2  501    0 -0.50543087260E+02  0.40057216667E+01 -0.54088066204E+02  0.46339131502E+03  0.45742249885E+03 0.  0.
         13    1    3    3    0    0 -0.82767582463E+02 -0.10343049679E+03 -0.22373867668E+03  0.26001410695E+03  0.00000000000E+00 0.  1.
          3    1    3    3  501    0  0.32224495203E+02  0.10743621846E+03  0.16965061047E+03  0.20337720807E+03  0.00000000000E+00 0.  1.
         21    1    1    2  502  501  0.50543087260E+02 -0.40057216667E+01  0.23263069515E+02  0.55783688289E+02  0.00000000000E+00 0.  1.
<scales pt_clust_4="550.00000" pt_clust_5="550.00000" pt_clust_6="50.70157"></scales>
<mgrwt>
<rscale>  0 0.30000000E+03</rscale>
<asrwt>  1 0.50701573E+02</asrwt>
<pdfrwt beam="1">  1        1 0.88790910E+00 0.30000000E+03</pdfrwt>
<pdfrwt beam="2">0</pdfrwt>
<totfact> 0.14470897E-04</totfact>
</mgrwt>
<clustering>
<clus scale="   50.702">  1  6  2 -1</clus>
<clus scale="  457.422">  4  5 -1 -1</clus>
<clus scale="  300.000">  1  4  2 -1</clus>
</clustering>
</event>
<event>
 6    1  0.9964252E-012  0.3000000E+03  0.7818608E-02  0.1093470E+00
          1   -1    0    0  502    0  0.00000000000E+00  0.00000000000E+00  0.23068270082E+03  0.23068270082E+03  0.00000000000E+00 0.  1.
         13   -1    0    0    0    0 -0.00000000000E+00 -0.00000000000E+00 -0.27500000000E+03  0.27500000000E+03  0.00000000000E+00 0.  1.
    9000005    2    1    2  501    0  0.32079750432E+02  0.29264746841E+02 -0.40883783030E+02  0.46212440851E+03  0.45825969650E+03 0.  0.
         13    1    3    3    0    0 -0.50726577344E+02  0.86266329863E+02  0.18753280353E+03  0.21256438487E+03  0.00000000000E+00 0.  1.
          1    1    3    3  501    0  0.82806327776E+02 -0.57001583022E+02 -0.22841658656E+03  0.24956002364E+03  0.00000000000E+00 0.  1.
         21    1    1    2  502  501 -0.32079750432E+02 -0.29264746841E+02 -0.34335161525E+01  0.43558292306E+02  0.00000000000E+00 0.  1.
<scales pt_clust_4="550.00000" pt_clust_5="550.00000" pt_clust_6="43.42276"></scales>
<mgrwt>
<rscale>  0 0.30000000E+03</rscale>
<asrwt>  1 0.43422757E+02</asrwt>
<pdfrwt beam="1">  1        1 0.83884618E+00 0.30000000E+03</pdfrwt>
<pdfrwt beam="2">0</pdfrwt>
<totfact> 0.48745686E-04</totfact>
</mgrwt>
<clustering>
<clus scale="   43.423">  1  6  2 -1</clus>
<clus scale="  458.260">  4  5 -1 -1</clus>
<clus scale="  300.000">  1  4  2 -1</clus>
</clustering>
</event>
<event>
 6    1  0.9964252E-012  0.3000000E+03  0.7818608E-02  0.1093470E+00
          1   -1    0    0  502    0  0.00000000000E+00  0.00000000000E+00  0.23304799311E+03  0.23304799311E+03  0.00000000000E+00 0.  1.
         13   -1    0    0    0    0 -0.00000000000E+00 -0.00000000000E+00 -0.27500000000E+03  0.27500000000E+03  0.00000000000E+00 0.  1.
    9000005    2    1    2  501    0 -0.20099943182E+02 -0.33734876421E+02 -0.63174438027E+02  0.46341122366E+03  0.45740234258E+03 0.  0.
         13    1    3    3    0    0  0.39284748324E+02  0.32902324055E+02 -0.25061669209E+03  0.25580183880E+03  0.00000000000E+00 0.  1.
          1    1    3    3  501    0 -0.59384691506E+02 -0.66637200476E+02  0.18744225407E+03  0.20760938486E+03  0.00000000000E+00 0.  1.
         21    1    1    2  502  501  0.20099943182E+02  0.33734876421E+02  0.21222431133E+02  0.44636769442E+02  0.00000000000E+00 0.  1.
<scales pt_clust_4="550.00000" pt_clust_5="550.00000" pt_clust_6="39.26894"></scales>
<mgrwt>
<rscale>  0 0.30000000E+03</rscale>
<asrwt>  1 0.39268939E+02</asrwt>
<pdfrwt beam="1">  1        1 0.84744725E+00 0.30000000E+03</pdfrwt>
<pdfrwt beam="2">0</pdfrwt>
<totfact> 0.42063738E-04</totfact>
</mgrwt>
<clustering>
<clus scale="   39.269">  1  6  2 -1</clus>
<clus scale="  457.402">  4  5 -1 -1</clus>
<clus scale="  300.000">  1  4  2 -1</clus>
</clustering>
</event>
<event>
 6    1  0.9964252E-012  0.3000000E+03  0.7818608E-02  0.1093470E+00
          1   -1    0    0  502    0  0.00000000000E+00  0.00000000000E+00  0.25333760052E+03  0.25333760052E+03  0.00000000000E+00 0.  1.
         13   -1    0    0    0    0 -0.00000000000E+00 -0.00000000000E+00 -0.27500000000E+03  0.27500000000E+03  0.00000000000E+00 0.  1.
    9000005    2    1    2  501    0 -0.17437435682E+02 -0.40343068881E+02 -0.51671885183E+02  0.47511921458E+03  0.47025169534E+03 0.  0.
         13    1    3    3    0    0 -0.14189288073E+03 -0.10084365895E+03 -0.20476064539E+03  0.26875631165E+03  0.00000000000E+00 0.  1.
          3    1    3    3  501    0  0.12445544505E+03  0.60500590067E+02  0.15308876021E+03  0.20636290292E+03  0.00000000000E+00 0.  1.
         21    1    1    2  502  501  0.17437435682E+02  0.40343068881E+02  0.30009485698E+02  0.53218385938E+02  0.00000000000E+00 0. -1.
<scales pt_clust_4="550.00000" pt_clust_5="550.00000" pt_clust_6="43.95028"></scales>
<mgrwt>
<rscale>  0 0.30000000E+03</rscale>
<asrwt>  1 0.43950283E+02</asrwt>
<pdfrwt beam="1">  1        1 0.92122764E+00 0.30000000E+03</pdfrwt>
<pdfrwt beam="2">0</pdfrwt>
<totfact> 0.37725717E-05</totfact>
</mgrwt>
<clustering>
<clus scale="   43.950">  1  6  2 -1</clus>
<clus scale="  470.252">  4  5 -1 -1</clus>
<clus scale="  300.000">  1  4  2 -1</clus>
</clustering>
</event>
<event>
 6    1  0.9964252E-012  0.3000000E+03  0.7818608E-02  0.1093470E+00
          1   -1    0    0  502    0  0.00000000000E+00  0.00000000000E+00  0.22908978840E+03  0.22908978840E+03  0.00000000000E+00 0.  1.
         13   -1    0    0    0    0 -0.00000000000E+00 -0.00000000000E+00 -0.27500000000E+03  0.27500000000E+03  0.00000000000E+00 0.  1.
    9000005    2    1    2  501    0 -0.23653486717E+02  0.32181793327E+02 -0.52637217047E+02  0.46358783958E+03  0.45885493692E+03 0.  0.
         13    1    3    3    0    0  0.62164484079E+02 -0.85777943759E+01  0.19155127951E+03  0.20156858465E+03  0.00000000000E+00 0.  1.
          3    1    3    3  501    0 -0.85817970796E+02  0.40759587703E+02 -0.24418849656E+03  0.26201925493E+03  0.00000000000E+00 0.  1.
         21    1    1    2  502  501  0.23653486717E+02 -0.32181793327E+02  0.67270054439E+01  0.40501948816E+02  0.00000000000E+00 0.  1.
<scales pt_clust_4="550.00000" pt_clust_5="550.00000" pt_clust_6="39.93939"></scales>
<mgrwt>
<rscale>  0 0.30000000E+03</rscale>
<asrwt>  1 0.39939395E+02</asrwt>
<pdfrwt beam="1">  1        1 0.83305378E+00 0.30000000E+03</pdfrwt>
<pdfrwt beam="2">0</pdfrwt>
<totfact> 0.54575686E-04</totfact>
</mgrwt>
<clustering>
<clus scale="   39.939">  1  6  2 -1</clus>
<clus scale="  458.855">  4  5 -1 -1</clus>
<clus scale="  300.000">  1  4  2 -1</clus>
</clustering>
</event>
<event>
 6    1  0.9964252E-012  0.3000000E+03  0.7818608E-02  0.1093470E+00
          1   -1    0    0  502    0  0.00000000000E+00  0.00000000000E+00  0.23500509500E+03  0.23500509500E+03  0.00000000000E+00 0.  1.
         13   -1    0    0    0    0 -0.00000000000E+00 -0.00000000000E+00 -0.27500000000E+03  0.27500000000E+03  0.00000000000E+00 0.  1.
    9000005    2    1    2  501    0 -0.29867387524E+02  0.59777368339E+01 -0.12744616145E+02  0.46913490515E+03  0.46797151603E+03 0.  0.
         13    1    3    3    0    0 -0.19144741550E+03  0.51639192642E+02  0.13953074861E+03  0.24246143802E+03  0.00000000000E+00 0.  1.
          3    1    3    3  501    0  0.16158002798E+03 -0.45661455808E+02 -0.15227536476E+03  0.22667346713E+03  0.00000000000E+00 0.  1.
         21    1    1    2  502  501  0.29867387524E+02 -0.59777368339E+01 -0.27250288860E+02  0.40870189846E+02  0.00000000000E+00 0. -1.
<scales pt_clust_4="550.00000" pt_clust_5="550.00000" pt_clust_6="30.45973"></scales>
<mgrwt>
<rscale>  0 0.30000000E+03</rscale>
<asrwt>  1 0.30459729E+02</asrwt>
<pdfrwt beam="1">  1        1 0.85456398E+00 0.30000000E+03</pdfrwt>
<pdfrwt beam="2">0</pdfrwt>
<totfact> 0.37778225E-04</totfact>
</mgrwt>
<clustering>
<clus scale="   30.460">  1  6  2 -1</clus>
<clus scale="  467.972">  4  5 -1 -1</clus>
<clus scale="  300.000">  1  4  2 -1</clus>
</clustering>
</event>
<event>
 6    1  0.9964252E-012  0.3000000E+03  0.7818608E-02  0.1093470E+00
          1   -1    0    0  502    0  0.00000000000E+00  0.00000000000E+00  0.22431178931E+03  0.22431178931E+03  0.00000000000E+00 0.  1.
         13   -1    0    0    0    0 -0.00000000000E+00 -0.00000000000E+00 -0.27500000000E+03  0.27500000000E+03  0.00000000000E+00 0.  1.
    9000005    2    1    2  501    0  0.36339087038E+02  0.76022887865E+01 -0.51549863118E+02  0.46217600486E+03  0.45778919498E+03 0.  0.
         13    1    3    3    0    0  0.11533728570E+02 -0.21027056994E+03 -0.10668736439E+03  0.23606976341E+03  0.00000000000E+00 0.  1.
          1    1    3    3  501    0  0.24805358468E+02  0.21787285872E+03  0.55137501270E+02  0.22610624145E+03  0.00000000000E+00 0.  1.
         21    1    1    2  502  501 -0.36339087038E+02 -0.76022887865E+01  0.86165242816E+00  0.37135784446E+02  0.00000000000E+00 0.  1.
<scales pt_clust_4="550.00000" pt_clust_5="550.00000" pt_clust_6="37.12579"></scales>
<mgrwt>
<rscale>  0 0.30000000E+03</rscale>
<asrwt>  1 0.37125787E+02</asrwt>
<pdfrwt beam="1">  1        1 0.81567923E+00 0.30000000E+03</pdfrwt>
<pdfrwt beam="2">0</pdfrwt>
<totfact> 0.77743717E-04</totfact>
</mgrwt>
<clustering>
<clus scale="   37.126">  1  6  2 -1</clus>
<clus scale="  457.789">  4  5 -1 -1</clus>
<clus scale="  300.000">  1  4  2 -1</clus>
</clustering>
</event>
<event>
 6    1  0.9964252E-012  0.3000000E+03  0.7818608E-02  0.1093470E+00
          1   -1    0    0  502    0  0.00000000000E+00  0.00000000000E+00  0.23745763386E+03  0.23745763386E+03  0.00000000000E+00 0.  1.
         13   -1    0    0    0    0 -0.00000000000E+00 -0.00000000000E+00 -0.27500000000E+03  0.27500000000E+03  0.00000000000E+00 0.  1.
    9000005    2    1    2  501    0  0.36509838645E+02  0.46202370085E+01 -0.35134304127E+02  0.47557791490E+03  0.47284841007E+03 0.  0.
         13    1    3    3    0    0  0.15056549065E+03 -0.12862243284E+03 -0.16466284047E+03  0.25754135248E+03  0.00000000000E+00 0.  1.
          1    1    3    3  501    0 -0.11405565201E+03  0.13324266985E+03  0.12952853635E+03  0.21803656242E+03  0.00000000000E+00 0.  1.
         21    1    1    2  502  501 -0.36509838645E+02 -0.46202370085E+01 -0.24080620147E+01  0.36879718960E+02  0.00000000000E+00 0. -1.
<scales pt_clust_4="550.00000" pt_clust_5="550.00000" pt_clust_6="36.80102"></scales>
<mgrwt>
<rscale>  0 0.30000000E+03</rscale>
<asrwt>  1 0.36801018E+02</asrwt>
<pdfrwt beam="1">  1        1 0.86348230E+00 0.30000000E+03</pdfrwt>
<pdfrwt beam="2">0</pdfrwt>
<totfact> 0.29392933E-04</totfact>
</mgrwt>
<clustering>
<clus scale="   36.801">  1  6  2 -1</clus>
<clus scale="  472.848">  4  5 -1 -1</clus>
<clus scale="  300.000">  1  4  2 -1</clus>
</clustering>
</event>
<event>
 6    1  0.9964252E-012  0.3000000E+03  0.7818608E-02  0.1093470E+00
          1   -1    0    0  502    0  0.00000000000E+00  0.00000000000E+00  0.22764758376E+03  0.22764758376E+03  0.00000000000E+00 0.  1.
         13   -1    0    0    0    0 -0.00000000000E+00 -0.00000000000E+00 -0.27500000000E+03  0.27500000000E+03  0.00000000000E+00 0.  1.
    9000005    2    1    2  501    0 -0.15733973440E+01 -0.30893002559E+02 -0.61622949373E+02  0.46858145246E+03  0.46348067544E+03 0.  0.
         13    1    3    3    0    0  0.29899668695E+02 -0.13676907626E+03  0.16505025663E+03  0.21642864326E+03  0.00000000000E+00 0.  1.
          1    1    3    3  501    0 -0.31473066039E+02  0.10587607370E+03 -0.22667320600E+03  0.25215280920E+03  0.00000000000E+00 0.  1.
         21    1    1    2  502  501  0.15733973440E+01  0.30893002559E+02  0.14270533137E+02  0.34066131308E+02  0.00000000000E+00 0. -1.
<scales pt_clust_4="550.00000" pt_clust_5="550.00000" pt_clust_6="30.93304"></scales>
<mgrwt>
<rscale>  0 0.30000000E+03</rscale>
<asrwt>  1 0.30933044E+02</asrwt>
<pdfrwt beam="1">  1        1 0.82780940E+00 0.30000000E+03</pdfrwt>
<pdfrwt beam="2">0</pdfrwt>
<totfact> 0.63147740E-04</totfact>
</mgrwt>
<clustering>
<clus scale="   30.933">  1  6  2 -1</clus>
<clus scale="  463.481">  4  5 -1 -1</clus>
<clus scale="  300.000">  1  4  2 -1</clus>
</clustering>
</event>
<event>
 6    1  0.9964252E-012  0.3000000E+03  0.7818608E-02  0.1093470E+00
          1   -1    0    0  502    0  0.00000000000E+00  0.00000000000E+00  0.24585511086E+03  0.24585511086E+03  0.00000000000E+00 0.  1.
         13   -1    0    0    0    0 -0.00000000000E+00 -0.00000000000E+00 -0.27500000000E+03  0.27500000000E+03  0.00000000000E+00 0.  1.
    9000005    2    1    2  501    0  0.14030610608E+02  0.31436442671E+02 -0.20290786019E+02  0.48530932203E+03  0.48366136303E+03 0.  0.
         13    1    3    3    0    0  0.52223328562E+02 -0.77296839489E+02  0.20889584193E+03  0.22877838669E+03  0.00000000000E+00 0.  1.
          1    1    3    3  501    0 -0.38192717954E+02  0.10873328216E+03 -0.22918662795E+03  0.25653093534E+03  0.00000000000E+00 0.  1.
         21    1    1    2  502  501 -0.14030610608E+02 -0.31436442671E+02 -0.88541031173E+01  0.35545788835E+02  0.00000000000E+00 0.  1.
<scales pt_clust_4="550.00000" pt_clust_5="550.00000" pt_clust_6="34.42541"></scales>
<mgrwt>
<rscale>  0 0.30000000E+03</rscale>
<asrwt>  1 0.34425414E+02</asrwt>
<pdfrwt beam="1">  1        1 0.89401858E+00 0.30000000E+03</pdfrwt>
<pdfrwt beam="2">0</pdfrwt>
<totfact> 0.12975980E-04</totfact>
</mgrwt>
<clustering>
<clus scale="   34.425">  1  6  2 -1</clus>
<clus scale="  483.661">  4  5 -1 -1</clus>
<clus scale="  300.000">  1  4  2 -1</clus>
</clustering>
</event>
<event>
 6    1  0.9964252E-012  0.3000000E+03  0.7818608E-02  0.1093470E+00
          1   -1    0    0  502    0  0.00000000000E+00  0.00000000000E+00  0.22334250500E+03  0.22334250500E+03  0.00000000000E+00 0.  1.
         13   -1    0    0    0    0 -0.00000000000E+00 -0.00000000000E+00 -0.27500000000E+03  0.27500000000E+03  0.00000000000E+00 0.  1.
    9000005    2    1    2  501    0 -0.95709159195E+01  0.30777390576E+02 -0.56430735782E+02  0.46575977906E+03  0.46120374418E+03 0.  0.
         13    1    3    3    0    0  0.14067356767E+03  0.13444762586E+03  0.10584812274E+03  0.22151533091E+03  0.00000000000E+00 0.  1.
          1    1    3    3  501    0 -0.15024448359E+03 -0.10367023528E+03 -0.16227885852E+03  0.24424444816E+03  0.00000000000E+00 0.  1.
         21    1    1    2  502  501  0.95709159195E+01 -0.30777390576E+02  0.47732407863E+01  0.32582725942E+02  0.00000000000E+00 0.  1.
<scales pt_clust_4="550.00000" pt_clust_5="550.00000" pt_clust_6="32.23120"></scales>
<mgrwt>
<rscale>  0 0.30000000E+03</rscale>
<asrwt>  1 0.32231199E+02</asrwt>
<pdfrwt beam="1">  1        1 0.81215456E+00 0.30000000E+03</pdfrwt>
<pdfrwt beam="2">0</pdfrwt>
<totfact> 0.85196231E-04</totfact>
</mgrwt>
<clustering>
<clus scale="   32.231">  1  6  2 -1</clus>
<clus scale="  461.204">  4  5 -1 -1</clus>
<clus scale="  300.000">  1  4  2 -1</clus>
</clustering>
</event>
<event>
 6    1  0.9964252E-012  0.3000000E+03  0.7818608E-02  0.1093470E+00
          1   -1    0    0  502    0  0.00000000000E+00  0.00000000000E+00  0.25266014429E+03  0.25266014429E+03  0.00000000000E+00 0.  1.
         13   -1    0    0    0    0 -0.00000000000E+00 -0.00000000000E+00 -0.27500000000E+03  0.27500000000E+03  0.00000000000E+00 0.  1.
    9000005    2    1    2  501    0  0.52368607621E+02 -0.59493899540E+01 -0.35164932553E+02  0.47341672164E+03  0.46915770647E+03 0.  0.
         13    1    3    3    0    0 -0.50395334875E+02  0.15705727813E+03  0.13745458397E+03  0.21471013261E+03  0.00000000000E+00 0.  1.
          3    1    3    3  501    0  0.10276394250E+03 -0.16300666809E+03 -0.17261951653E+03  0.25870658902E+03  0.00000000000E+00 0.  1.
         21    1    1    2  502  501 -0.52368607621E+02  0.59493899540E+01  0.12825076840E+02  0.54243422652E+02  0.00000000000E+00 0.  1.
<scales pt_clust_4="550.00000" pt_clust_5="550.00000" pt_clust_6="52.70547"></scales>
<mgrwt>
<rscale>  0 0.30000000E+03</rscale>
<asrwt>  1 0.52705468E+02</asrwt>
<pdfrwt beam="1">  1        1 0.91876416E+00 0.30000000E+03</pdfrwt>
<pdfrwt beam="2">0</pdfrwt>
<totfact> 0.41323420E-05</totfact>
</mgrwt>
<clustering>
<clus scale="   52.705">  1  6  2 -1</clus>
<clus scale="  469.158">  4  5 -1 -1</clus>
<clus scale="  300.000">  1  4  2 -1</clus>
</clustering>
</event>
<event>
 6    1  0.9964252E-012  0.3000000E+03  0.7818608E-02  0.1093470E+00
          1   -1    0    0  502    0  0.00000000000E+00  0.00000000000E+00  0.22278869044E+03  0.22278869044E+03  0.00000000000E+00 0.  1.
         13   -1    0    0    0    0 -0.00000000000E+00 -0.00000000000E+00 -0.27500000000E+03  0.27500000000E+03  0.00000000000E+00 0.  1.
    9000005    2    1    2  501    0 -0.31613278721E+02 -0.18015368218E+02 -0.47125123479E+02  0.46104876431E+03  0.45718839981E+03 0.  0.
         13    1    3    3    0    0 -0.13229139945E+03 -0.11734023076E+03 -0.19031714165E+03  0.25978906546E+03  0.00000000000E+00 0.  1.
          3    1    3    3  501    0  0.10067812073E+03  0.99324862546E+02  0.14319201817E+03  0.20125969885E+03  0.00000000000E+00 0.  1.
         21    1    1    2  502  501  0.31613278721E+02  0.18015368218E+02 -0.50861860798E+01  0.36739926134E+02  0.00000000000E+00 0.  1.
<scales pt_clust_4="550.00000" pt_clust_5="550.00000" pt_clust_6="36.38618"></scales>
<mgrwt>
<rscale>  0 0.30000000E+03</rscale>
<asrwt>  1 0.36386182E+02</asrwt>
<pdfrwt beam="1">  1        1 0.81014069E+00 0.30000000E+03</pdfrwt>
<pdfrwt beam="2">0</pdfrwt>
<totfact> 0.86367011E-04</totfact>
</mgrwt>
<clustering>
<clus scale="   36.386">  1  6  2 -1</clus>
<clus scale="  457.188">  4  5 -1 -1</clus>
<clus scale="  300.000">  1  4  2 -1</clus>
</clustering>
</event>
<event>
 6    1  0.9964252E-012  0.3000000E+03  0.7818608E-02  0.1093470E+00
          1   -1    0    0  502    0  0.00000000000E+00  0.00000000000E+00  0.23048103125E+03  0.23048103125E+03  0.00000000000E+00 0.  1.
         13   -1    0    0    0    0 -0.00000000000E+00 -0.00000000000E+00 -0.27500000000E+03  0.27500000000E+03  0.00000000000E+00 0.  1.
    9000005    2    1    2  501    0 -0.34782101771E+02 -0.19542566797E+02 -0.54945575366E+02  0.46424487422E+03  0.45925219702E+03 0.  0.
         13    1    3    3    0    0  0.96401345990E+02  0.14704000623E+03 -0.15072028744E+03  0.23158278862E+03  0.00000000000E+00 0.  1.
          1    1    3    3  501    0 -0.13118344776E+03 -0.16658257303E+03  0.95774712075E+02  0.23266208560E+03  0.00000000000E+00 0.  1.
         21    1    1    2  502  501  0.34782101771E+02  0.19542566797E+02  0.10426606614E+02  0.41236157024E+02  0.00000000000E+00 0.  1.
<scales pt_clust_4="550.00000" pt_clust_5="550.00000" pt_clust_6="39.89620"></scales>
<mgrwt>
<rscale>  0 0.30000000E+03</rscale>
<asrwt>  1 0.39896197E+02</asrwt>
<pdfrwt beam="1">  1        1 0.83811284E+00 0.30000000E+03</pdfrwt>
<pdfrwt beam="2">0</pdfrwt>
<totfact> 0.50121443E-04</totfact>
</mgrwt>
<clustering>
<clus scale="   39.896">  1  6  2 -1</clus>
<clus scale="  459.252">  4  5 -1 -1</clus>
<clus scale="  300.000">  1  4  2 -1</clus>
</clustering>
</event>
<event>
 6    1  0.9964252E-012  0.3000000E+03  0.7818608E-02  0.1093470E+00
          1   -1    0    0  502    0  0.00000000000E+00  0.00000000000E+00  0.25225546606E+03  0.25225546606E+03  0.00000000000E+00 0.  1.
         13   -1    0    0    0    0 -0.00000000000E+00 -0.00000000000E+00 -0.27500000000E+03  0.27500000000E+03  0.00000000000E+00 0.  1.
    9000005    2    1    2  501    0 -0.24175409739E+02 -0.46131495451E+02 -0.42676701275E+02  0.47148937777E+03  0.46665658380E+03 0.  0.
         13    1    3    3    0    0 -0.20219192694E+02 -0.12351487742E+03 -0.23383532744E+03  0.26522386970E+03  0.00000000000E+00 0.  1.
          3    1    3    3  501    0 -0.39562170453E+01  0.77383381971E+02  0.19115862617E+03  0.20626550807E+03  0.00000000000E+00 0.  1.
         21    1    1    2  502  501  0.24175409739E+02  0.46131495451E+02  0.19932167331E+02  0.55766088289E+02  0.00000000000E+00 0. -1.
<scales pt_clust_4="550.00000" pt_clust_5="550.00000" pt_clust_6="52.08229"></scales>
<mgrwt>
<rscale>  0 0.30000000E+03</rscale>
<asrwt>  1 0.52082294E+02</asrwt>
<pdfrwt beam="1">  1        1 0.91729260E+00 0.30000000E+03</pdfrwt>
<pdfrwt beam="2">0</pdfrwt>
<totfact> 0.44661795E-05</totfact>
</mgrwt>
<clustering>
<clus scale="   52.082">  1  6  2 -1</clus>
<clus scale="  466.657">  4  5 -1 -1</clus>
<clus scale="  300.000">  1  4  2 -1</clus>
</clustering>
</event>
<event>
 6    1  0.9964252E-012  0.3000000E+03  0.7818608E-02  0.1093470E+00
          1   -1    0    0  502    0  0.00000000000E+00  0.00000000000E+00  0.23650163249E+03  0.23650163249E+03  0.00000000000E+00 0.  1.
         13   -1    0    0    0    0 -0.00000000000E+00 -0.00000000000E+00 -0.27500000000E+03  0.27500000000E+03  0.00000000000E+00 0.  1.
    9000005    2    1    2  501    0  0.31970463568E+02 -0.41559940831E+00 -0.41299400729E+02  0.47940600894E+03  0.47655240808E+03 0.  0.
         13    1    3    3    0    0  0.20093123538E+03  0.13056742182E+03  0.53528166997E+02  0.24553304799E+03  0.00000000000E+00 0.  1.
          1    1    3    3  501    0 -0.16896077182E+03 -0.13098302123E+03 -0.94827567727E+02  0.23387296095E+03  0.00000000000E+00 0.  1.
         21    1    1    2  502  501 -0.31970463568E+02  0.41559940831E+00  0.28010332182E+01  0.32095623545E+02  0.00000000000E+00 0.  1.
<scales pt_clust_4="550.00000" pt_clust_5="550.00000" pt_clust_6="31.97316"></scales>
<mgrwt>
<rscale>  0 0.30000000E+03</rscale>
<asrwt>  1 0.31973165E+02</asrwt>
<pdfrwt beam="1">  1        1 0.86000594E+00 0.30000000E+03</pdfrwt>
<pdfrwt beam="2">0</pdfrwt>
<totfact> 0.32898102E-04</totfact>
</mgrwt>
<clustering>
<clus scale="   31.973">  1  6  2 -1</clus>
<clus scale="  476.552">  4  5 -1 -1</clus>
<clus scale="  300.000">  1  4  2 -1</clus>
</clustering>
</event>
<event>
 6    1  0.9964252E-012  0.3000000E+03  0.7818608E-02  0.1093470E+00
          1   -1    0    0  502    0  0.00000000000E+00  0.00000000000E+00  0.26809031640E+03  0.26809031640E+03  0.00000000000E+00 0.  1.
         13   -1    0    0    0    0 -0.00000000000E+00 -0.00000000000E+00 -0.27500000000E+03  0.27500000000E+03  0.00000000000E+00 0.  1.
    9000005    2    1    2  501    0  0.15739665673E+02  0.45958867620E+02 -0.13225091738E+02  0.49410216509E+03  0.49153035706E+03 0.  0.
         13    1    3    3    0    0 -0.19841500494E+03 -0.89435225504E+02  0.68033283060E+02  0.22802565941E+03  0.00000000000E+00 0.  1.
          3    1    3    3  501    0  0.21415467061E+03  0.13539409312E+03 -0.81258374798E+02  0.26607650568E+03  0.00000000000E+00 0.  1.
         21    1    1    2  502  501 -0.15739665673E+02 -0.45958867620E+02  0.63154081335E+01  0.48988151305E+02  0.00000000000E+00 0.  1.
<scales pt_clust_4="550.00000" pt_clust_5="550.00000" pt_clust_6="48.57936"></scales>
<mgrwt>
<rscale>  0 0.30000000E+03</rscale>
<asrwt>  1 0.48579364E+02</asrwt>
<pdfrwt beam="1">  1        1 0.97487388E+00 0.30000000E+03</pdfrwt>
<pdfrwt beam="2">0</pdfrwt>
<totfact> 0.38692334E-06</totfact>
</mgrwt>
<clustering>
<clus scale="   48.579">  1  6  2 -1</clus>
<clus scale="  491.530">  4  5 -1 -1</clus>
<clus scale="  300.000">  1  4  2 -1</clus>
</clustering>
</event>
<event>
 6    1  0.9964252E-012  0.3000000E+03  0.7818608E-02  0.1093470E+00
          1   -1    0    0  502    0  0.00000000000E+00  0.00000000000E+00  0.24652159484E+03  0.24652159484E+03  0.00000000000E+00 0.  1.
         13   -1    0    0    0    0 -0.00000000000E+00 -0.00000000000E+00 -0.27500000000E+03  0.27500000000E+03  0.00000000000E+00 0.  1.
    9000005    2    1    2  501    0  0.19545774204E+02 -0.32919734189E+02 -0.66103185960E+02  0.46784319771E+03  0.46156460031E+03 0.  0.
         13    1    3    3    0    0 -0.31120086200E+02  0.20397612971E+03  0.27447775156E+02  0.20815403339E+03  0.00000000000E+00 0.  1.
          1    1    3    3  501    0  0.50665860405E+02 -0.23689586389E+03 -0.93550961116E+02  0.25968916432E+03  0.00000000000E+00 0.  1.
         21    1    1    2  502  501 -0.19545774204E+02  0.32919734189E+02  0.37624780802E+02  0.53678397132E+02  0.00000000000E+00 0.  1.
<scales pt_clust_4="550.00000" pt_clust_5="550.00000" pt_clust_6="38.28506"></scales>
<mgrwt>
<rscale>  0 0.30000000E+03</rscale>
<asrwt>  1 0.38285065E+02</asrwt>
<pdfrwt beam="1">  1        1 0.89644216E+00 0.30000000E+03</pdfrwt>
<pdfrwt beam="2">0</pdfrwt>
<totfact> 0.11949918E-04</totfact>
</mgrwt>
<clustering>
<clus scale="   38.285">  1  6  2 -1</clus>
<clus scale="  461.565">  4  5 -1 -1</clus>
<clus scale="  300.000">  1  4  2 -1</clus>
</clustering>
</event>
<event>
 6    1  0.9964252E-012  0.3000000E+03  0.7818608E-02  0.1093470E+00
          1   -1    0    0  502    0  0.00000000000E+00  0.00000000000E+00  0.23486610609E+03  0.23486610609E+03  0.00000000000E+00 0.  1.
         13   -1    0    0    0    0 -0.00000000000E+00 -0.00000000000E+00 -0.27500000000E+03  0.27500000000E+03  0.00000000000E+00 0.  1.
    9000005    2    1    2  501    0  0.13546972949E+02 -0.33416333029E+02 -0.39591647841E+02  0.47380413415E+03  0.47076818836E+03 0.  0.
         13    1    3    3    0    0  0.79292198453E+02  0.14771933908E+03  0.13386096002E+03  0.21453906985E+03  0.00000000000E+00 0.  1.
          3    1    3    3  501    0 -0.65745225504E+02 -0.18113567211E+03 -0.17345260787E+03  0.25926506429E+03  0.00000000000E+00 0.  1.
         21    1    1    2  502  501 -0.13546972949E+02  0.33416333029E+02 -0.54224607358E+00  0.36061971937E+02  0.00000000000E+00 0. -1.
<scales pt_clust_4="550.00000" pt_clust_5="550.00000" pt_clust_6="36.05789"></scales>
<mgrwt>
<rscale>  0 0.30000000E+03</rscale>
<asrwt>  1 0.36057895E+02</asrwt>
<pdfrwt beam="1">  1        1 0.85405857E+00 0.30000000E+03</pdfrwt>
<pdfrwt beam="2">0</pdfrwt>
<totfact> 0.37011348E-04</totfact>
</mgrwt>
<clustering>
<clus scale="   36.058">  1  6  2 -1</clus>
<clus scale="  470.768">  4  5 -1 -1</clus>
<clus scale="  300.000">  1  4  2 -1</clus>
</clustering>
</event>
<event>
 6    1  0.9964252E-012  0.3000000E+03  0.7818608E-02  0.1093470E+00
          1   -1    0    0  502    0  0.00000000000E+00  0.00000000000E+00  0.23693162716E+03  0.23693162716E+03  0.00000000000E+00 0.  1.
         13   -1    0    0    0    0 -0.00000000000E+00 -0.00000000000E+00 -0.27500000000E+03  0.27500000000E+03  0.00000000000E+00 0.  1.
    9000005    2    1    2  501    0 -0.34572505718E+02  0.27930362233E+01 -0.34657673588E+02  0.47707919435E+03  0.47455278330E+03 0.  0.
         13    1    3    3    0    0  0.20805522208E+03  0.34857135280E+02  0.52319275827E+02  0.21734604192E+03  0.00000000000E+00 0.  1.
          1    1    3    3  501    0 -0.24262772780E+03 -0.32064099057E+02 -0.86976949415E+02  0.25973315243E+03  0.00000000000E+00 0.  1.
         21    1    1    2  502  501  0.34572505718E+02 -0.27930362233E+01 -0.34106992556E+01  0.34852432805E+02  0.00000000000E+00 0. -1.
<scales pt_clust_4="550.00000" pt_clust_5="550.00000" pt_clust_6="34.68516"></scales>
<mgrwt>
<rscale>  0 0.30000000E+03</rscale>
<asrwt>  1 0.34685161E+02</asrwt>
<pdfrwt beam="1">  1        1 0.86156955E+00 0.30000000E+03</pdfrwt>
<pdfrwt beam="2">0</pdfrwt>
<totfact> 0.31168536E-04</totfact>
</mgrwt>
<clustering>
<clus scale="   34.685">  1  6  2 -1</clus>
<clus scale="  474.553">  4  5 -1 -1</clus>
<clus scale="  300.000">  1  4  2 -1</clus>
</clustering>
</event>
<event>
 6    1  0.9964252E-012  0.3000000E+03  0.7818608E-02  0.1093470E+00
          1   -1    0    0  502    0  0.00000000000E+00  0.00000000000E+00  0.23581099813E+03  0.23581099813E+03  0.00000000000E+00 0.  1.
         13   -1    0    0    0    0 -0.00000000000E+00 -0.00000000000E+00 -0.27500000000E+03  0.27500000000E+03  0.00000000000E+00 0.  1.
    9000005    2    1    2  501    0  0.29837909343E+02  0.10406356508E+02 -0.46818892763E+02  0.47830240965E+03  0.47495535924E+03 0.  0.
         13    1    3    3    0    0  0.16011079058E+02 -0.39803017634E+02  0.21097896113E+03  0.21529690408E+03  0.00000000000E+00 0.  1.
          1    1    3    3  501    0  0.13826830285E+02  0.50209374142E+02 -0.25779785390E+03  0.26300550557E+03  0.00000000000E+00 0.  1.
         21    1    1    2  502  501 -0.29837909343E+02 -0.10406356508E+02  0.76298908887E+01  0.32508588476E+02  0.00000000000E+00 0. -1.
<scales pt_clust_4="550.00000" pt_clust_5="550.00000" pt_clust_6="31.60052"></scales>
<mgrwt>
<rscale>  0 0.30000000E+03</rscale>
<asrwt>  1 0.31600524E+02</asrwt>
<pdfrwt beam="1">  1        1 0.85749454E+00 0.30000000E+03</pdfrwt>
<pdfrwt beam="2">0</pdfrwt>
<totfact> 0.35040726E-04</totfact>
</mgrwt>
<clustering>
<clus scale="   31.601">  1  6  2 -1</clus>
<clus scale="  474.955">  4  5 -1 -1</clus>
<clus scale="  300.000">  1  4  2 -1</clus>
</clustering>
</event>
<event>
 6    1  0.9964252E-012  0.3000000E+03  0.7818608E-02  0.1093470E+00
          1   -1    0    0  502    0  0.00000000000E+00  0.00000000000E+00  0.24236303010E+03  0.24236303010E+03  0.00000000000E+00 0.  1.
         13   -1    0    0    0    0 -0.00000000000E+00 -0.00000000000E+00 -0.27500000000E+03  0.27500000000E+03  0.00000000000E+00 0.  1.
    9000005    2    1    2  501    0 -0.22288624182E+02  0.23689803541E+02 -0.27183199785E+02  0.48438223011E+03  0.48252381178E+03 0.  0.
         13    1    3    3    0    0  0.11037884034E+03  0.12717190683E+03 -0.18747455965E+03  0.25199780316E+03  0.00000000000E+00 0.  1.
          3    1    3    3  501    0 -0.13266746452E+03 -0.10348210329E+03  0.16029135986E+03  0.23238442695E+03  0.00000000000E+00 0.  1.
         21    1    1    2  502  501  0.22288624182E+02 -0.23689803541E+02 -0.54537701118E+01  0.32980799993E+02  0.00000000000E+00 0.  1.
<scales pt_clust_4="550.00000" pt_clust_5="550.00000" pt_clust_6="32.52677"></scales>
<mgrwt>
<rscale>  0 0.30000000E+03</rscale>
<asrwt>  1 0.32526768E+02</asrwt>
<pdfrwt beam="1">  1        1 0.88132011E+00 0.30000000E+03</pdfrwt>
<pdfrwt beam="2">0</pdfrwt>
<totfact> 0.19261745E-04</totfact>
</mgrwt>
<clustering>
<clus scale="   32.527">  1  6  2 -1</clus>
<clus scale="  482.524">  4  5 -1 -1</clus>
<clus scale="  300.000">  1  4  2 -1</clus>
</clustering>
</event>
<event>
 6    1  0.9964252E-012  0.3000000E+03  0.7818608E-02  0.1093470E+00
          1   -1    0    0  502    0  0.00000000000E+00  0.00000000000E+00  0.22288363809E+03  0.22288363809E+03  0.00000000000E+00 0.  1.
         13   -1    0    0    0    0 -0.00000000000E+00 -0.00000000000E+00 -0.27500000000E+03  0.27500000000E+03  0.00000000000E+00 0.  1.
    9000005    2    1    2  501    0  0.14338690031E+02  0.27170643239E+02 -0.46339501873E+02  0.46662321586E+03  0.46329907648E+03 0.  0.
         13    1    3    3    0    0 -0.25356268620E+02  0.18530736812E+03  0.12898962905E+03  0.22720054014E+03  0.00000000000E+00 0.  1.
          3    1    3    3  501    0  0.39694958651E+02 -0.15813672488E+03 -0.17532913093E+03  0.23942267572E+03  0.00000000000E+00 0.  1.
         21    1    1    2  502  501 -0.14338690031E+02 -0.27170643239E+02 -0.57768600382E+01  0.31260422226E+02  0.00000000000E+00 0.  1.
<scales pt_clust_4="550.00000" pt_clust_5="550.00000" pt_clust_6="30.72203"></scales>
<mgrwt>
<rscale>  0 0.30000000E+03</rscale>
<asrwt>  1 0.30722025E+02</asrwt>
<pdfrwt beam="1">  1        1 0.81048596E+00 0.30000000E+03</pdfrwt>
<pdfrwt beam="2">0</pdfrwt>
<totfact> 0.88616448E-04</totfact>
</mgrwt>
<clustering>
<clus scale="   30.722">  1  6  2 -1</clus>
<clus scale="  463.299">  4  5 -1 -1</clus>
<clus scale="  300.000">  1  4  2 -1</clus>
</clustering>
</event>
<event>
 6    1  0.9964252E-012  0.3000000E+03  0.7818608E-02  0.1093470E+00
          1   -1    0    0  502    0  0.00000000000E+00  0.00000000000E+00  0.22307624637E+03  0.22307624637E+03  0.00000000000E+00 0.  1.
         13   -1    0    0    0    0 -0.00000000000E+00 -0.00000000000E+00 -0.27500000000E+03  0.27500000000E+03  0.00000000000E+00 0.  1.
    9000005    2    1    2  501    0  0.27656473540E+02 -0.20316955472E+02 -0.47796519654E+02  0.46351191116E+03  0.45976203115E+03 0.  0.
         13    1    3    3    0    0  0.68323428049E+02 -0.18259827444E+03  0.11806911634E+03  0.22792660415E+03  0.00000000000E+00 0.  1.
          1    1    3    3  501    0 -0.40666954510E+02  0.16228131897E+03 -0.16586563599E+03  0.23558530701E+03  0.00000000000E+00 0.  1.
         21    1    1    2  502  501 -0.27656473540E+02  0.20316955472E+02 -0.41272339733E+01  0.34564335211E+02  0.00000000000E+00 0.  1.
<scales pt_clust_4="550.00000" pt_clust_5="550.00000" pt_clust_6="34.31706"></scales>
<mgrwt>
<rscale>  0 0.30000000E+03</rscale>
<asrwt>  1 0.34317057E+02</asrwt>
<pdfrwt beam="1">  1        1 0.81118635E+00 0.30000000E+03</pdfrwt>
<pdfrwt beam="2">0</pdfrwt>
<totfact> 0.85685804E-04</totfact>
</mgrwt>
<clustering>
<clus scale="   34.317">  1  6  2 -1</clus>
<clus scale="  459.762">  4  5 -1 -1</clus>
<clus scale="  300.000">  1  4  2 -1</clus>
</clustering>
</event>
<event>
 6    1  0.9964252E-012  0.3000000E+03  0.7818608E-02  0.1093470E+00
          1   -1    0    0  502    0  0.00000000000E+00  0.00000000000E+00  0.24836936707E+03  0.24836936707E+03  0.00000000000E+00 0.  1.
         13   -1    0    0    0    0 -0.00000000000E+00 -0.00000000000E+00 -0.27500000000E+03  0.27500000000E+03  0.00000000000E+00 0.  1.
    9000005    2    1    2  501    0  0.34906141213E+02  0.14742128076E+02 -0.22370276333E+01  0.47830477993E+03  0.47679627639E+03 0.  0.
         13    1    3    3    0    0  0.11169406861E+03 -0.18980607580E+03 -0.96381487739E+02  0.24039821661E+03  0.00000000000E+00 0.  1.
          1    1    3    3  501    0 -0.76787927398E+02  0.20454820387E+03  0.94144460105E+02  0.23790656332E+03  0.00000000000E+00 0.  1.
         21    1    1    2  502  501 -0.34906141213E+02 -0.14742128076E+02 -0.24393605295E+02  0.45064587138E+02  0.00000000000E+00 0.  1.
<scales pt_clust_4="550.00000" pt_clust_5="550.00000" pt_clust_6="37.89156"></scales>
<mgrwt>
<rscale>  0 0.30000000E+03</rscale>
<asrwt>  1 0.37891562E+02</asrwt>
<pdfrwt beam="1">  1        1 0.90316133E+00 0.30000000E+03</pdfrwt>
<pdfrwt beam="2">0</pdfrwt>
<totfact> 0.98157182E-05</totfact>
</mgrwt>
<clustering>
<clus scale="   37.892">  1  6  2 -1</clus>
<clus scale="  476.796">  4  5 -1 -1</clus>
<clus scale="  300.000">  1  4  2 -1</clus>
</clustering>
</event>
<event>
 6    1  0.9964252E-012  0.3000000E+03  0.7818608E-02  0.1093470E+00
          1   -1    0    0  502    0  0.00000000000E+00  0.00000000000E+00  0.24140166130E+03  0.24140166130E+03  0.00000000000E+00 0.  1.
         13   -1    0    0    0    0 -0.00000000000E+00 -0.00000000000E+00 -0.27500000000E+03  0.27500000000E+03  0.00000000000E+00 0.  1.
    9000005    2    1    2  501    0 -0.35604327167E+02  0.38317665627E+02 -0.35245941343E+02  0.46406977612E+03  0.45976360134E+03 0.  0.
         13    1    3    3    0    0 -0.19112126634E+03  0.16983061965E+03 -0.47426316400E+02  0.26003659994E+03  0.00000000000E+00 0.  1.
          3    1    3    3  501    0  0.15551693917E+03 -0.13151295403E+03  0.12180375058E+02  0.20403317618E+03  0.00000000000E+00 0.  1.
         21    1    1    2  502  501  0.35604327167E+02 -0.38317665627E+02  0.16476026419E+01  0.52331885181E+02  0.00000000000E+00 0. -1.
<scales pt_clust_4="550.00000" pt_clust_5="550.00000" pt_clust_6="52.30594"></scales>
<mgrwt>
<rscale>  0 0.30000000E+03</rscale>
<asrwt>  1 0.52305942E+02</asrwt>
<pdfrwt beam="1">  1        1 0.87782422E+00 0.30000000E+03</pdfrwt>
<pdfrwt beam="2">0</pdfrwt>
<totfact> 0.19482880E-04</totfact>
</mgrwt>
<clustering>
<clus scale="   52.306">  1  6  2 -1</clus>
<clus scale="  459.764">  4  5 -1 -1</clus>
<clus scale="  300.000">  1  4  2 -1</clus>
</clustering>
</event>
<event>
 6    1  0.9964252E-012  0.3000000E+03  0.7818608E-02  0.1093470E+00
          1   -1    0    0  502    0  0.00000000000E+00  0.00000000000E+00  0.22004337362E+03  0.22004337362E+03  0.00000000000E+00 0.  1.
         13   -1    0    0    0    0 -0.00000000000E+00 -0.00000000000E+00 -0.27500000000E+03  0.27500000000E+03  0.00000000000E+00 0.  1.
    9000005    2    1    2  501    0 -0.13469333441E+02 -0.31523722117E+02 -0.47532110938E+02  0.45996786323E+03  0.45621920787E+03 0.  0.
         13    1    3    3    0    0  0.19961682802E+02  0.11491847637E+03 -0.20905633258E+03  0.23939355710E+03  0.00000000000E+00 0.  1.
          3    1    3    3  501    0 -0.33431016243E+02 -0.14644219848E+03  0.16152422164E+03  0.22057430612E+03  0.00000000000E+00 0.  1.
         21    1    1    2  502  501  0.13469333441E+02  0.31523722117E+02 -0.74245154465E+01  0.35075510389E+02  0.00000000000E+00 0. -1.
<scales pt_clust_4="550.00000" pt_clust_5="550.00000" pt_clust_6="34.28074"></scales>
<mgrwt>
<rscale>  0 0.30000000E+03</rscale>
<asrwt>  1 0.34280741E+02</asrwt>
<pdfrwt beam="1">  1        1 0.80015772E+00 0.30000000E+03</pdfrwt>
<pdfrwt beam="2">0</pdfrwt>
<totfact> 0.10383382E-03</totfact>
</mgrwt>
<clustering>
<clus scale="   34.281">  1  6  2 -1</clus>
<clus scale="  456.219">  4  5 -1 -1</clus>
<clus scale="  300.000">  1  4  2 -1</clus>
</clustering>
</event>
<event>
 6    1  0.9964252E-012  0.3000000E+03  0.7818608E-02  0.1093470E+00
          1   -1    0    0  502    0  0.00000000000E+00  0.00000000000E+00  0.22544938111E+03  0.22544938111E+03  0.00000000000E+00 0.  1.
         13   -1    0    0    0    0 -0.00000000000E+00 -0.00000000000E+00 -0.27500000000E+03  0.27500000000E+03  0.00000000000E+00 0.  1.
    9000005    2    1    2  501    0 -0.20370774186E+02  0.30072711962E+02 -0.56779657632E+02  0.46341432411E+03  0.45848617190E+03 0.  0.
         13    1    3    3    0    0  0.86912974507E+01 -0.21332034239E+03 -0.43833949737E+02  0.21795073360E+03  0.00000000000E+00 0.  1.
          1    1    3    3  501    0 -0.29062071636E+02  0.24339305435E+03 -0.12945707895E+02  0.24546359051E+03  0.00000000000E+00 0.  1.
         21    1    1    2  502  501  0.20370774186E+02 -0.30072711962E+02  0.72290387432E+01  0.37035056998E+02  0.00000000000E+00 0. -1.
<scales pt_clust_4="550.00000" pt_clust_5="550.00000" pt_clust_6="36.32267"></scales>
<mgrwt>
<rscale>  0 0.30000000E+03</rscale>
<asrwt>  1 0.36322671E+02</asrwt>
<pdfrwt beam="1">  1        1 0.81981593E+00 0.30000000E+03</pdfrwt>
<pdfrwt beam="2">0</pdfrwt>
<totfact> 0.72094420E-04</totfact>
</mgrwt>
<clustering>
<clus scale="   36.323">  1  6  2 -1</clus>
<clus scale="  458.486">  4  5 -1 -1</clus>
<clus scale="  300.000">  1  4  2 -1</clus>
</clustering>
</event>
<event>
 6    1  0.9964252E-012  0.3000000E+03  0.7818608E-02  0.1093470E+00
          1   -1    0    0  502    0  0.00000000000E+00  0.00000000000E+00  0.22017547623E+03  0.22017547623E+03  0.00000000000E+00 0.  1.
         13   -1    0    0    0    0 -0.00000000000E+00 -0.00000000000E+00 -0.27500000000E+03  0.27500000000E+03  0.00000000000E+00 0.  1.
    9000005    2    1    2  501    0  0.85545704481E+01  0.29564137283E+02 -0.66037034958E+02  0.46241972412E+03  0.45664416386E+03 0.  0.
         13    1    3    3    0    0  0.12091800228E+03  0.89051096462E+02 -0.21772872064E+03  0.26449396372E+03  0.00000000000E+00 0.  1.
          1    1    3    3  501    0 -0.11236343184E+03 -0.59486959179E+02  0.15169168568E+03  0.19792576040E+03  0.00000000000E+00 0.  1.
         21    1    1    2  502  501 -0.85545704481E+01 -0.29564137283E+02  0.11212511186E+02  0.32755752104E+02  0.00000000000E+00 0. -1.
<scales pt_clust_4="550.00000" pt_clust_5="550.00000" pt_clust_6="30.77692"></scales>
<mgrwt>
<rscale>  0 0.30000000E+03</rscale>
<asrwt>  1 0.30776921E+02</asrwt>
<pdfrwt beam="1">  1        1 0.80063810E+00 0.30000000E+03</pdfrwt>
<pdfrwt beam="2">0</pdfrwt>
<totfact> 0.10513428E-03</totfact>
</mgrwt>
<clustering>
<clus scale="   30.777">  1  6  2 -1</clus>
<clus scale="  456.644">  4  5 -1 -1</clus>
<clus scale="  300.000">  1  4  2 -1</clus>
</clustering>
</event>
<event>
 6    1  0.9964252E-012  0.3000000E+03  0.7818608E-02  0.1093470E+00
          1   -1    0    0  502    0  0.00000000000E+00  0.00000000000E+00  0.22573871995E+03  0.22573871995E+03  0.00000000000E+00 0.  1.
         13   -1    0    0    0    0 -0.00000000000E+00 -0.00000000000E+00 -0.27500000000E+03  0.27500000000E+03  0.00000000000E+00 0.  1.
    9000005    2    1    2  501    0 -0.28636796706E+02 -0.11831373061E+02 -0.60767890506E+02  0.46768649464E+03  0.46268550143E+03 0.  0.
         13    1    3    3    0    0  0.47879559043E+02 -0.17366587739E+03 -0.17836153423E+03  0.25350567259E+03  0.00000000000E+00 0.  1.
          3    1    3    3  501    0 -0.76516355749E+02  0.16183450433E+03  0.11759364372E+03  0.21418082205E+03  0.00000000000E+00 0.  1.
         21    1    1    2  502  501  0.28636796706E+02  0.11831373061E+02  0.11506610461E+02  0.33052225317E+02  0.00000000000E+00 0.  1.
<scales pt_clust_4="550.00000" pt_clust_5="550.00000" pt_clust_6="30.98463"></scales>
<mgrwt>
<rscale>  0 0.30000000E+03</rscale>
<asrwt>  1 0.30984634E+02</asrwt>
<pdfrwt beam="1">  1        1 0.82086807E+00 0.30000000E+03</pdfrwt>
<pdfrwt beam="2">0</pdfrwt>
<totfact> 0.72738318E-04</totfact>
</mgrwt>
<clustering>
<clus scale="   30.985">  1  6  2 -1</clus>
<clus scale="  462.686">  4  5 -1 -1</clus>
<clus scale="  300.000">  1  4  2 -1</clus>
</clustering>
</event>
<event>
 6    1  0.9964252E-012  0.3000000E+03  0.7818608E-02  0.1093470E+00
          1   -1    0    0  502    0  0.00000000000E+00  0.00000000000E+00  0.22889278382E+03  0.22889278382E+03  0.00000000000E+00 0.  1.
         13   -1    0    0    0    0 -0.00000000000E+00 -0.00000000000E+00 -0.27500000000E+03  0.27500000000E+03  0.00000000000E+00 0.  1.
    9000005    2    1    2  501    0 -0.24271179437E+02  0.24700693215E+02 -0.58811185418E+02  0.46700640109E+03  0.46199243363E+03 0.  0.
         13    1    3    3    0    0 -0.19261098989E+03  0.13517162883E+03  0.46376427458E+02  0.23983564307E+03  0.00000000000E+00 0.  1.
          3    1    3    3  501    0  0.16833981045E+03 -0.11047093561E+03 -0.10518761288E+03  0.22717075802E+03  0.00000000000E+00 0.  1.
         21    1    1    2  502  501  0.24271179437E+02 -0.24700693215E+02  0.12703969242E+02  0.36886382732E+02  0.00000000000E+00 0.  1.
<scales pt_clust_4="550.00000" pt_clust_5="550.00000" pt_clust_6="34.62968"></scales>
<mgrwt>
<rscale>  0 0.30000000E+03</rscale>
<asrwt>  1 0.34629675E+02</asrwt>
<pdfrwt beam="1">  1        1 0.83233740E+00 0.30000000E+03</pdfrwt>
<pdfrwt beam="2">0</pdfrwt>
<totfact> 0.56741627E-04</totfact>
</mgrwt>
<clustering>
<clus scale="   34.630">  1  6  2 -1</clus>
<clus scale="  461.992">  4  5 -1 -1</clus>
<clus scale="  300.000">  1  4  2 -1</clus>
</clustering>
</event>
<event>
 6    1  0.9964252E-012  0.3000000E+03  0.7818608E-02  0.1093470E+00
          1   -1    0    0  502    0  0.00000000000E+00  0.00000000000E+00  0.24775298456E+03  0.24775298456E+03  0.00000000000E+00 0.  1.
         13   -1    0    0    0    0 -0.00000000000E+00 -0.00000000000E+00 -0.27500000000E+03  0.27500000000E+03  0.00000000000E+00 0.  1.
    9000005    2    1    2  501    0 -0.36008552862E+02  0.78498228972E+01 -0.35543968995E+02  0.48497633784E+03  0.48226594213E+03 0.  0.
         13    1    3    3    0    0  0.89538487338E+02 -0.19390441808E+02 -0.23245874987E+03  0.24986036168E+03  0.00000000000E+00 0.  1.
          1    1    3    3  501    0 -0.12554704020E+03  0.27240264705E+02  0.19691478087E+03  0.23511597617E+03  0.00000000000E+00 0.  1.
         21    1    1    2  502  501  0.36008552862E+02 -0.78498228972E+01  0.82969535551E+01  0.37776646715E+02  0.00000000000E+00 0. -1.
<scales pt_clust_4="550.00000" pt_clust_5="550.00000" pt_clust_6="36.85425"></scales>
<mgrwt>
<rscale>  0 0.30000000E+03</rscale>
<asrwt>  1 0.36854248E+02</asrwt>
<pdfrwt beam="1">  1        1 0.90091994E+00 0.30000000E+03</pdfrwt>
<pdfrwt beam="2">0</pdfrwt>
<totfact> 0.10642872E-04</totfact>
</mgrwt>
<clustering>
<clus scale="   36.854">  1  6  2 -1</clus>
<clus scale="  482.266">  4  5 -1 -1</clus>
<clus scale="  300.000">  1  4  2 -1</clus>
</clustering>
</event>
<event>
 6    1  0.9964252E-012  0.3000000E+03  0.7818608E-02  0.1093470E+00
          1   -1    0    0  502    0  0.00000000000E+00  0.00000000000E+00  0.24676684015E+03  0.24676684015E+03  0.00000000000E+00 0.  1.
         13   -1    0    0    0    0 -0.00000000000E+00 -0.00000000000E+00 -0.27500000000E+03  0.27500000000E+03  0.00000000000E+00 0.  1.
    9000005    2    1    2  501    0  0.20403634100E+02  0.43395579772E+02  0.35670600612E+01  0.46422782195E+03  0.46173072470E+03 0.  0.
         13    1    3    3    0    0  0.11689570798E+03  0.22354840784E+03  0.43517901061E+02  0.25599278292E+03  0.00000000000E+00 0.  1.
          1    1    3    3  501    0 -0.96492073883E+02 -0.18015282807E+03 -0.39950841000E+02  0.20823503903E+03  0.00000000000E+00 0.  1.
         21    1    1    2  502  501 -0.20403634100E+02 -0.43395579772E+02 -0.31800219912E+02  0.57539018194E+02  0.00000000000E+00 0.  1.
<scales pt_clust_4="550.00000" pt_clust_5="550.00000" pt_clust_6="47.95297"></scales>
<mgrwt>
<rscale>  0 0.30000000E+03</rscale>
<asrwt>  1 0.47952966E+02</asrwt>
<pdfrwt beam="1">  1        1 0.89733396E+00 0.30000000E+03</pdfrwt>
<pdfrwt beam="2">0</pdfrwt>
<totfact> 0.11213571E-04</totfact>
</mgrwt>
<clustering>
<clus scale="   47.953">  1  6  2 -1</clus>
<clus scale="  461.731">  4  5 -1 -1</clus>
<clus scale="  300.000">  1  4  2 -1</clus>
</clustering>
</event>
<event>
 6    1  0.9964252E-012  0.3000000E+03  0.7818608E-02  0.1093470E+00
          1   -1    0    0  502    0  0.00000000000E+00  0.00000000000E+00  0.25486249328E+03  0.25486249328E+03  0.00000000000E+00 0.  1.
         13   -1    0    0    0    0 -0.00000000000E+00 -0.00000000000E+00 -0.27500000000E+03  0.27500000000E+03  0.00000000000E+00 0.  1.
    9000005    2    1    2  501    0 -0.48526928914E+02  0.31025985894E+02 -0.15643473507E+02  0.47208991359E+03  0.46830192570E+03 0.  0.
         13    1    3    3    0    0 -0.10102899674E+03 -0.16196362953E+03 -0.13986770609E+03  0.23664752414E+03  0.00000000000E+00 0.  1.
          1    1    3    3  501    0  0.52502067823E+02  0.19298961543E+03  0.12422423258E+03  0.23544238945E+03  0.00000000000E+00 0.  1.
         21    1    1    2  502  501  0.48526928914E+02 -0.31025985894E+02 -0.44940332092E+01  0.57772579698E+02  0.00000000000E+00 0. -1.
<scales pt_clust_4="550.00000" pt_clust_5="550.00000" pt_clust_6="57.59755"></scales>
<mgrwt>
<rscale>  0 0.30000000E+03</rscale>
<asrwt>  1 0.57597552E+02</asrwt>
<pdfrwt beam="1">  1        1 0.92677270E+00 0.30000000E+03</pdfrwt>
<pdfrwt beam="2">0</pdfrwt>
<totfact> 0.27578326E-05</totfact>
</mgrwt>
<clustering>
<clus scale="   57.598">  1  6  2 -1</clus>
<clus scale="  468.302">  4  5 -1 -1</clus>
<clus scale="  300.000">  1  4  2 -1</clus>
</clustering>
</event>
<event>
 6    1  0.9964252E-012  0.3000000E+03  0.7818608E-02  0.1093470E+00
          1   -1    0    0  502    0  0.00000000000E+00  0.00000000000E+00  0.23264601147E+03  0.23264601147E+03  0.00000000000E+00 0.  1.
         13   -1    0    0    0    0 -0.00000000000E+00 -0.00000000000E+00 -0.27500000000E+03  0.27500000000E+03  0.00000000000E+00 0.  1.
    9000005    2    1    2  501    0 -0.36031278000E+02 -0.14749977546E+01 -0.59123433572E+02  0.46787613719E+03  0.46272245542E+03 0.  0.
         13    1    3    3    0    0  0.14420525151E+03  0.75999453384E+02 -0.17570103644E+03  0.23967045225E+03  0.00000000000E+00 0.  1.
          3    1    3    3  501    0 -0.18023652951E+03 -0.77474451138E+02  0.11657760286E+03  0.22820568494E+03  0.00000000000E+00 0.  1.
         21    1    1    2  502  501  0.36031278000E+02  0.14749977546E+01  0.16769445038E+02  0.39769874272E+02  0.00000000000E+00 0.  1.
<scales pt_clust_4="550.00000" pt_clust_5="550.00000" pt_clust_6="36.06146"></scales>
<mgrwt>
<rscale>  0 0.30000000E+03</rscale>
<asrwt>  1 0.36061456E+02</asrwt>
<pdfrwt beam="1">  1        1 0.84598550E+00 0.30000000E+03</pdfrwt>
<pdfrwt beam="2">0</pdfrwt>
<totfact> 0.44042034E-04</totfact>
</mgrwt>
<clustering>
<clus scale="   36.061">  1  6  2 -1</clus>
<clus scale="  462.722">  4  5 -1 -1</clus>
<clus scale="  300.000">  1  4  2 -1</clus>
</clustering>
</event>
<event>
 6    1  0.9964252E-012  0.3000000E+03  0.7818608E-02  0.1093470E+00
          1   -1    0    0  502    0  0.00000000000E+00  0.00000000000E+00  0.23841600362E+03  0.23841600362E+03  0.00000000000E+00 0.  1.
         13   -1    0    0    0    0 -0.00000000000E+00 -0.00000000000E+00 -0.27500000000E+03  0.27500000000E+03  0.00000000000E+00 0.  1.
    9000005    2    1    2  501    0  0.24752353918E+02 -0.41682048703E+02 -0.47154791878E+02  0.46379933378E+03  0.45884221189E+03 0.  0.
         13    1    3    3    0    0  0.38176225568E+02  0.20506621910E+03 -0.57823949482E+02  0.21645597139E+03  0.00000000000E+00 0.  1.
          3    1    3    3  501    0 -0.13423871649E+02 -0.24674826781E+03  0.10669157604E+02  0.24734336239E+03  0.00000000000E+00 0.  1.
         21    1    1    2  502  501 -0.24752353918E+02  0.41682048703E+02  0.10570795500E+02  0.49616669840E+02  0.00000000000E+00 0. -1.
<scales pt_clust_4="550.00000" pt_clust_5="550.00000" pt_clust_6="48.47754"></scales>
<mgrwt>
<rscale>  0 0.30000000E+03</rscale>
<asrwt>  1 0.48477543E+02</asrwt>
<pdfrwt beam="1">  1        1 0.86696729E+00 0.30000000E+03</pdfrwt>
<pdfrwt beam="2">0</pdfrwt>
<totfact> 0.25659795E-04</totfact>
</mgrwt>
<clustering>
<clus scale="   48.478">  1  6  2 -1</clus>
<clus scale="  458.842">  4  5 -1 -1</clus>
<clus scale="  300.000">  1  4  2 -1</clus>
</clustering>
</event>
<event>
 6    1  0.9964252E-012  0.3000000E+03  0.7818608E-02  0.1093470E+00
          1   -1    0    0  502    0  0.00000000000E+00  0.00000000000E+00  0.24685678713E+03  0.24685678713E+03  0.00000000000E+00 0.  1.
         13   -1    0    0    0    0 -0.00000000000E+00 -0.00000000000E+00 -0.27500000000E+03  0.27500000000E+03  0.00000000000E+00 0.  1.
    9000005    2    1    2  501    0  0.31439960401E+02  0.19847484465E+02 -0.53855944299E+02  0.47665127522E+03  0.47213724878E+03 0.  0.
         13    1    3    3    0    0  0.22880704681E+03  0.26362933079E+02  0.73389747189E+02  0.24173068466E+03  0.00000000000E+00 0.  1.
          3    1    3    3  501    0 -0.19736708641E+03 -0.65154486142E+01 -0.12724569149E+03  0.23492059056E+03  0.00000000000E+00 0.  1.
         21    1    1    2  502  501 -0.31439960401E+02 -0.19847484465E+02  0.25712731432E+02  0.45205511913E+02  0.00000000000E+00 0. -1.
<scales pt_clust_4="550.00000" pt_clust_5="550.00000" pt_clust_6="37.18056"></scales>
<mgrwt>
<rscale>  0 0.30000000E+03</rscale>
<asrwt>  1 0.37180556E+02</asrwt>
<pdfrwt beam="1">  1        1 0.89766104E+00 0.30000000E+03</pdfrwt>
<pdfrwt beam="2">0</pdfrwt>
<totfact> 0.11641554E-04</totfact>
</mgrwt>
<clustering>
<clus scale="   37.181">  1  6  2 -1</clus>
<clus scale="  472.137">  4  5 -1 -1</clus>
<clus scale="  300.000">  1  4  2 -1</clus>
</clustering>
</event>
<event>
 6    1  0.9964252E-012  0.3000000E+03  0.7818608E-02  0.1093470E+00
          1   -1    0    0  502    0  0.00000000000E+00  0.00000000000E+00  0.24309145326E+03  0.24309145326E+03  0.00000000000E+00 0.  1.
         13   -1    0    0    0    0 -0.00000000000E+00 -0.00000000000E+00 -0.27500000000E+03  0.27500000000E+03  0.00000000000E+00 0.  1.
    9000005    2    1    2  501    0 -0.36332345246E+02 -0.69138147147E+00 -0.39844369692E+02  0.48089609595E+03  0.47786291338E+03 0.  0.
         13    1    3    3    0    0  0.10617472732E+03 -0.20208146951E+03  0.12786077036E+02  0.22863393625E+03  0.00000000000E+00 0.  1.
          1    1    3    3  501    0 -0.14250707257E+03  0.20139008803E+03 -0.52630446727E+02  0.25226215970E+03  0.00000000000E+00 0.  1.
         21    1    1    2  502  501  0.36332345246E+02  0.69138147147E+00  0.79358229473E+01  0.37195357308E+02  0.00000000000E+00 0. -1.
<scales pt_clust_4="550.00000" pt_clust_5="550.00000" pt_clust_6="36.33892"></scales>
<mgrwt>
<rscale>  0 0.30000000E+03</rscale>
<asrwt>  1 0.36338923E+02</asrwt>
<pdfrwt beam="1">  1        1 0.88396892E+00 0.30000000E+03</pdfrwt>
<pdfrwt beam="2">0</pdfrwt>
<totfact> 0.17406270E-04</totfact>
</mgrwt>
<clustering>
<clus scale="   36.339">  1  6  2 -1</clus>
<clus scale="  477.863">  4  5 -1 -1</clus>
<clus scale="  300.000">  1  4  2 -1</clus>
</clustering>
</event>
<event>
 6    1  0.9964252E-012  0.3000000E+03  0.7818608E-02  0.1093470E+00
          1   -1    0    0  502    0  0.00000000000E+00  0.00000000000E+00  0.22616603143E+03  0.22616603143E+03  0.00000000000E+00 0.  1.
         13   -1    0    0    0    0 -0.00000000000E+00 -0.00000000000E+00 -0.27500000000E+03  0.27500000000E+03  0.00000000000E+00 0.  1.
    9000005    2    1    2  501    0  0.61932691034E+01  0.32494656728E+02 -0.56132937231E+02  0.46729075665E+03  0.46272614504E+03 0.  0.
         13    1    3    3    0    0 -0.10366556861E+03  0.16305967290E+03 -0.17390614943E+03  0.25995837330E+03  0.00000000000E+00 0.  1.
          3    1    3    3  501    0  0.10985883771E+03 -0.13056501617E+03  0.11777321220E+03  0.20733238334E+03  0.00000000000E+00 0.  1.
         21    1    1    2  502  501 -0.61932691034E+01 -0.32494656728E+02  0.72989686588E+01  0.33875274781E+02  0.00000000000E+00 0.  1.
<scales pt_clust_4="550.00000" pt_clust_5="550.00000" pt_clust_6="33.07959"></scales>
<mgrwt>
<rscale>  0 0.30000000E+03</rscale>
<asrwt>  1 0.33079590E+02</asrwt>
<pdfrwt beam="1">  1        1 0.82242193E+00 0.30000000E+03</pdfrwt>
<pdfrwt beam="2">0</pdfrwt>
<totfact> 0.69605294E-04</totfact>
</mgrwt>
<clustering>
<clus scale="   33.080">  1  6  2 -1</clus>
<clus scale="  462.726">  4  5 -1 -1</clus>
<clus scale="  300.000">  1  4  2 -1</clus>
</clustering>
</event>
<event>
 6    1  0.9964252E-012  0.3000000E+03  0.7818608E-02  0.1093470E+00
          1   -1    0    0  502    0  0.00000000000E+00  0.00000000000E+00  0.22421553903E+03  0.22421553903E+03  0.00000000000E+00 0.  1.
         13   -1    0    0    0    0 -0.00000000000E+00 -0.00000000000E+00 -0.27500000000E+03  0.27500000000E+03  0.00000000000E+00 0.  1.
    9000005    2    1    2  501    0 -0.22956110594E+02 -0.21198148134E+02 -0.50187192391E+02  0.46796331947E+03  0.46421392654E+03 0.  0.
         13    1    3    3    0    0 -0.11337217578E+03  0.18319680001E+03  0.52892722820E+02  0.22183768368E+03  0.00000000000E+00 0.  1.
          1    1    3    3  501    0  0.90416065185E+02 -0.20439494814E+03 -0.10307991521E+03  0.24612563578E+03  0.00000000000E+00 0.  1.
         21    1    1    2  502  501  0.22956110594E+02  0.21198148134E+02 -0.59726857584E+00  0.31252219564E+02  0.00000000000E+00 0.  1.
<scales pt_clust_4="550.00000" pt_clust_5="550.00000" pt_clust_6="31.24651"></scales>
<mgrwt>
<rscale>  0 0.30000000E+03</rscale>
<asrwt>  1 0.31246512E+02</asrwt>
<pdfrwt beam="1">  1        1 0.81532923E+00 0.30000000E+03</pdfrwt>
<pdfrwt beam="2">0</pdfrwt>
<totfact> 0.80832054E-04</totfact>
</mgrwt>
<clustering>
<clus scale="   31.247">  1  6  2 -1</clus>
<clus scale="  464.214">  4  5 -1 -1</clus>
<clus scale="  300.000">  1  4  2 -1</clus>
</clustering>
</event>
<event>
 6    1  0.9964252E-012  0.3000000E+03  0.7818608E-02  0.1093470E+00
          1   -1    0    0  502    0  0.00000000000E+00  0.00000000000E+00  0.22189458496E+03  0.22189458496E+03  0.00000000000E+00 0.  1.
         13   -1    0    0    0    0 -0.00000000000E+00 -0.00000000000E+00 -0.27500000000E+03  0.27500000000E+03  0.00000000000E+00 0.  1.
    9000005    2    1    2  501    0  0.21501688247E+02  0.21134485903E+02 -0.60159792510E+02  0.46593084272E+03  0.46104594182E+03 0.  0.
         13    1    3    3    0    0  0.87688576011E+02 -0.20088607441E+03  0.21597474880E+02  0.22025201969E+03  0.00000000000E+00 0.  1.
          1    1    3    3  501    0 -0.66186887764E+02  0.22202056032E+03 -0.81757267390E+02  0.24567882303E+03  0.00000000000E+00 0.  1.
         21    1    1    2  502  501 -0.21501688247E+02 -0.21134485903E+02  0.70543774672E+01  0.30963742237E+02  0.00000000000E+00 0.  1.
<scales pt_clust_4="550.00000" pt_clust_5="550.00000" pt_clust_6="30.14945"></scales>
<mgrwt>
<rscale>  0 0.30000000E+03</rscale>
<asrwt>  1 0.30149446E+02</asrwt>
<pdfrwt beam="1">  1        1 0.80688940E+00 0.30000000E+03</pdfrwt>
<pdfrwt beam="2">0</pdfrwt>
<totfact> 0.94826579E-04</totfact>
</mgrwt>
<clustering>
<clus scale="   30.149">  1  6  2 -1</clus>
<clus scale="  461.046">  4  5 -1 -1</clus>
<clus scale="  300.000">  1  4  2 -1</clus>
</clustering>
</event>
<event>
 6    1  0.9964252E-012  0.3000000E+03  0.7818608E-02  0.1093470E+00
          1   -1    0    0  502    0  0.00000000000E+00  0.00000000000E+00  0.22321059268E+03  0.22321059268E+03  0.00000000000E+00 0.  1.
         13   -1    0    0    0    0 -0.00000000000E+00 -0.00000000000E+00 -0.27500000000E+03  0.27500000000E+03  0.00000000000E+00 0.  1.
    9000005    2    1    2  501    0 -0.84610964449E+01 -0.31491769863E+02 -0.49638998054E+02  0.46553114988E+03  0.46172708352E+03 0.  0.
         13    1    3    3    0    0 -0.11449338831E+03 -0.11792049431E+03 -0.20223176229E+03  0.26059866581E+03  0.00000000000E+00 0.  1.
          1    1    3    3  501    0  0.10603229186E+03  0.86428724452E+02  0.15259276424E+03  0.20493248406E+03  0.00000000000E+00 0.  1.
         21    1    1    2  502  501  0.84610964449E+01  0.31491769863E+02 -0.21504092611E+01  0.32679442806E+02  0.00000000000E+00 0.  1.
<scales pt_clust_4="550.00000" pt_clust_5="550.00000" pt_clust_6="32.60861"></scales>
<mgrwt>
<rscale>  0 0.30000000E+03</rscale>
<asrwt>  1 0.32608614E+02</asrwt>
<pdfrwt beam="1">  1        1 0.81167488E+00 0.30000000E+03</pdfrwt>
<pdfrwt beam="2">0</pdfrwt>
<totfact> 0.85752651E-04</totfact>
</mgrwt>
<clustering>
<clus scale="   32.609">  1  6  2 -1</clus>
<clus scale="  461.727">  4  5 -1 -1</clus>
<clus scale="  300.000">  1  4  2 -1</clus>
</clustering>
</event>
<event>
 6    1  0.9964252E-012  0.3000000E+03  0.7818608E-02  0.1093470E+00
          1   -1    0    0  502    0  0.00000000000E+00  0.00000000000E+00  0.23919216465E+03  0.23919216465E+03  0.00000000000E+00 0.  1.
         13   -1    0    0    0    0 -0.00000000000E+00 -0.00000000000E+00 -0.27500000000E+03  0.27500000000E+03  0.00000000000E+00 0.  1.
    9000005    2    1    2  501    0  0.21621703231E+02 -0.21546595232E+02 -0.38752917761E+02  0.48352577707E+03  0.48100273870E+03 0.  0.
         13    1    3    3    0    0  0.22099218749E+03  0.25732895125E+02 -0.13168562060E+03  0.25853593850E+03  0.00000000000E+00 0.  1.
          1    1    3    3  501    0 -0.19937048426E+03 -0.47279490357E+02  0.92932702844E+02  0.22498983857E+03  0.00000000000E+00 0.  1.
         21    1    1    2  502  501 -0.21621703231E+02  0.21546595232E+02  0.29450824077E+01  0.30666387578E+02  0.00000000000E+00 0. -1.
<scales pt_clust_4="550.00000" pt_clust_5="550.00000" pt_clust_6="30.52464"></scales>
<mgrwt>
<rscale>  0 0.30000000E+03</rscale>
<asrwt>  1 0.30524643E+02</asrwt>
<pdfrwt beam="1">  1        1 0.86978969E+00 0.30000000E+03</pdfrwt>
<pdfrwt beam="2">0</pdfrwt>
<totfact> 0.26119221E-04</totfact>
</mgrwt>
<clustering>
<clus scale="   30.525">  1  6  2 -1</clus>
<clus scale="  481.003">  4  5 -1 -1</clus>
<clus scale="  300.000">  1  4  2 -1</clus>
</clustering>
</event>
<event>
 6    1  0.9964252E-012  0.3000000E+03  0.7818608E-02  0.1093470E+00
          1   -1    0    0  502    0  0.00000000000E+00  0.00000000000E+00  0.22926441212E+03  0.22926441212E+03  0.00000000000E+00 0.  1.
         13   -1    0    0    0    0 -0.00000000000E+00 -0.00000000000E+00 -0.27500000000E+03  0.27500000000E+03  0.00000000000E+00 0.  1.
    9000005    2    1    2  501    0 -0.22126599730E+02 -0.26102713223E+02 -0.27419345099E+02  0.46545174920E+03  0.46338167021E+03 0.  0.
         13    1    3    3    0    0  0.42031256866E+02 -0.67680920057E+02  0.20544839294E+03  0.22035511261E+03  0.00000000000E+00 0.  1.
          1    1    3    3  501    0 -0.64157856595E+02  0.41578206834E+02 -0.23286773804E+03  0.24509663658E+03  0.00000000000E+00 0.  1.
         21    1    1    2  502  501  0.22126599730E+02  0.26102713223E+02 -0.18316242784E+02  0.38812662920E+02  0.00000000000E+00 0. -1.
<scales pt_clust_4="550.00000" pt_clust_5="550.00000" pt_clust_6="34.21899"></scales>
<mgrwt>
<rscale>  0 0.30000000E+03</rscale>
<asrwt>  1 0.34218989E+02</asrwt>
<pdfrwt beam="1">  1        1 0.83368877E+00 0.30000000E+03</pdfrwt>
<pdfrwt beam="2">0</pdfrwt>
<totfact> 0.55549268E-04</totfact>
</mgrwt>
<clustering>
<clus scale="   34.219">  1  6  2 -1</clus>
<clus scale="  463.382">  4  5 -1 -1</clus>
<clus scale="  300.000">  1  4  2 -1</clus>
</clustering>
</event>
<event>
 6    1  0.9964252E-012  0.3000000E+03  0.7818608E-02  0.1093470E+00
          1   -1    0    0  502    0  0.00000000000E+00  0.00000000000E+00  0.23005160593E+03  0.23005160593E+03  0.00000000000E+00 0.  1.
         13   -1    0    0    0    0 -0.00000000000E+00 -0.00000000000E+00 -0.27500000000E+03  0.27500000000E+03  0.00000000000E+00 0.  1.
    9000005    2    1    2  501    0  0.31547382655E+02  0.30679949270E+01 -0.35371307673E+02  0.47194011957E+03  0.46954413755E+03 0.  0.
         13    1    3    3    0    0 -0.41189576328E+02  0.13034900847E+03  0.17092088141E+03  0.21886386844E+03  0.00000000000E+00 0.  1.
          3    1    3    3  501    0  0.72736958983E+02 -0.12728101354E+03 -0.20629218908E+03  0.25307625113E+03  0.00000000000E+00 0.  1.
         21    1    1    2  502  501 -0.31547382655E+02 -0.30679949270E+01 -0.95770863978E+01  0.33111486362E+02  0.00000000000E+00 0. -1.
<scales pt_clust_4="550.00000" pt_clust_5="550.00000" pt_clust_6="31.69623"></scales>
<mgrwt>
<rscale>  0 0.30000000E+03</rscale>
<asrwt>  1 0.31696229E+02</asrwt>
<pdfrwt beam="1">  1        1 0.83655129E+00 0.30000000E+03</pdfrwt>
<pdfrwt beam="2">0</pdfrwt>
<totfact> 0.53708759E-04</totfact>
</mgrwt>
<clustering>
<clus scale="   31.696">  1  6  2 -1</clus>
<clus scale="  469.544">  4  5 -1 -1</clus>
<clus scale="  300.000">  1  4  2 -1</clus>
</clustering>
</event>
<event>
 6    1  0.9964252E-012  0.3000000E+03  0.7818608E-02  0.1093470E+00
          1   -1    0    0  502    0  0.00000000000E+00  0.00000000000E+00  0.24926211012E+03  0.24926211012E+03  0.00000000000E+00 0.  1.
         13   -1    0    0    0    0 -0.00000000000E+00 -0.00000000000E+00 -0.27500000000E+03  0.27500000000E+03  0.00000000000E+00 0.  1.
    9000005    2    1    2  501    0  0.28506445917E+02  0.13131229164E+02 -0.10833942134E+02  0.48951769622E+03  0.48839037048E+03 0.  0.
         13    1    3    3    0    0  0.14300939412E+02  0.35593706705E+02  0.23709011042E+03  0.24017316521E+03  0.00000000000E+00 0.  1.
          1    1    3    3  501    0  0.14205506505E+02 -0.22462477541E+02 -0.24792405256E+03  0.24934453102E+03  0.00000000000E+00 0.  1.
         21    1    1    2  502  501 -0.28506445917E+02 -0.13131229164E+02 -0.14903947749E+02  0.34744413892E+02  0.00000000000E+00 0.  1.
<scales pt_clust_4="550.00000" pt_clust_5="550.00000" pt_clust_6="31.38547"></scales>
<mgrwt>
<rscale>  0 0.30000000E+03</rscale>
<asrwt>  1 0.31385468E+02</asrwt>
<pdfrwt beam="1">  1        1 0.90640767E+00 0.30000000E+03</pdfrwt>
<pdfrwt beam="2">0</pdfrwt>
<totfact> 0.88509138E-05</totfact>
</mgrwt>
<clustering>
<clus scale="   31.385">  1  6  2 -1</clus>
<clus scale="  488.390">  4  5 -1 -1</clus>
<clus scale="  300.000">  1  4  2 -1</clus>
</clustering>
</event>
<event>
 6    1  0.9964252E-012  0.3000000E+03  0.7818608E-02  0.1093470E+00
          1   -1    0    0  502    0  0.00000000000E+00  0.00000000000E+00  0.22879874027E+03  0.22879874027E+03  0.00000000000E+00 0.  1.
         13   -1    0    0    0    0 -0.00000000000E+00 -0.00000000000E+00 -0.27500000000E+03  0.27500000000E+03  0.00000000000E+00 0.  1.
    9000005    2    1    2  501    0  0.18247814283E+02 -0.27758462136E+02 -0.67846536767E+02  0.46414986936E+03  0.45796117055E+03 0.  0.
         13    1    3    3    0    0  0.60167774253E+02  0.77332677418E+02 -0.23938315581E+03  0.25865962062E+03  0.00000000000E+00 0.  1.
          1    1    3    3  501    0 -0.41919959971E+02 -0.10509113955E+03  0.17153661904E+03  0.20549024874E+03  0.00000000000E+00 0.  1.
         21    1    1    2  502  501 -0.18247814283E+02  0.27758462136E+02  0.21645277039E+02  0.39648870909E+02  0.00000000000E+00 0.  1.
<scales pt_clust_4="550.00000" pt_clust_5="550.00000" pt_clust_6="33.21920"></scales>
<mgrwt>
<rscale>  0 0.30000000E+03</rscale>
<asrwt>  1 0.33219195E+02</asrwt>
<pdfrwt beam="1">  1        1 0.83199542E+00 0.30000000E+03</pdfrwt>
<pdfrwt beam="2">0</pdfrwt>
<totfact> 0.57535034E-04</totfact>
</mgrwt>
<clustering>
<clus scale="   33.219">  1  6  2 -1</clus>
<clus scale="  457.961">  4  5 -1 -1</clus>
<clus scale="  300.000">  1  4  2 -1</clus>
</clustering>
</event>
<event>
 6    1  0.9964252E-012  0.3000000E+03  0.7818608E-02  0.1093470E+00
          1   -1    0    0  502    0  0.00000000000E+00  0.00000000000E+00  0.22819689410E+03  0.22819689410E+03  0.00000000000E+00 0.  1.
         13   -1    0    0    0    0 -0.00000000000E+00 -0.00000000000E+00 -0.27500000000E+03  0.27500000000E+03  0.00000000000E+00 0.  1.
    9000005    2    1    2  501    0 -0.58908106526E+01  0.33344403454E+02 -0.40714006176E+02  0.46879299857E+03  0.46579254430E+03 0.  0.
         13    1    3    3    0    0 -0.20556646338E+03 -0.91548258971E+02  0.18976361859E+02  0.22582904352E+03  0.00000000000E+00 0.  1.
          1    1    3    3  501    0  0.19967565273E+03  0.12489266243E+03 -0.59690368035E+02  0.24296395505E+03  0.00000000000E+00 0.  1.
         21    1    1    2  502  501  0.58908106526E+01 -0.33344403454E+02 -0.60890997247E+01  0.34403895525E+02  0.00000000000E+00 0. -1.
<scales pt_clust_4="550.00000" pt_clust_5="550.00000" pt_clust_6="33.86077"></scales>
<mgrwt>
<rscale>  0 0.30000000E+03</rscale>
<asrwt>  1 0.33860774E+02</asrwt>
<pdfrwt beam="1">  1        1 0.82980689E+00 0.30000000E+03</pdfrwt>
<pdfrwt beam="2">0</pdfrwt>
<totfact> 0.59688445E-04</totfact>
</mgrwt>
<clustering>
<clus scale="   33.861">  1  6  2 -1</clus>
<clus scale="  465.793">  4  5 -1 -1</clus>
<clus scale="  300.000">  1  4  2 -1</clus>
</clustering>
</event>
<event>
 6    1  0.9964252E-012  0.3000000E+03  0.7818608E-02  0.1093470E+00
          1   -1    0    0  502    0  0.00000000000E+00  0.00000000000E+00  0.24356037409E+03  0.24356037409E+03  0.00000000000E+00 0.  1.
         13   -1    0    0    0    0 -0.00000000000E+00 -0.00000000000E+00 -0.27500000000E+03  0.27500000000E+03  0.00000000000E+00 0.  1.
    9000005    2    1    2  501    0  0.82361332158E+01 -0.34327445159E+02 -0.53881188810E+02  0.47672939123E+03  0.47235740978E+03 0.  0.
         13    1    3    3    0    0  0.23826096999E+03 -0.41092625801E+02 -0.70095196521E+01  0.24188019159E+03  0.00000000000E+00 0.  1.
          1    1    3    3  501    0 -0.23002483678E+03  0.67651806424E+01 -0.46871669158E+02  0.23484919964E+03  0.00000000000E+00 0.  1.
         21    1    1    2  502  501 -0.82361332158E+01  0.34327445159E+02  0.22441562905E+02  0.41830982861E+02  0.00000000000E+00 0. -1.
<scales pt_clust_4="550.00000" pt_clust_5="550.00000" pt_clust_6="35.30166"></scales>
<mgrwt>
<rscale>  0 0.30000000E+03</rscale>
<asrwt>  1 0.35301663E+02</asrwt>
<pdfrwt beam="1">  1        1 0.88567409E+00 0.30000000E+03</pdfrwt>
<pdfrwt beam="2">0</pdfrwt>
<totfact> 0.16586140E-04</totfact>
</mgrwt>
<clustering>
<clus scale="   35.302">  1  6  2 -1</clus>
<clus scale="  472.357">  4  5 -1 -1</clus>
<clus scale="  300.000">  1  4  2 -1</clus>
</clustering>
</event>
<event>
 6    1  0.9964252E-012  0.3000000E+03  0.7818608E-02  0.1093470E+00
          1   -1    0    0  502    0  0.00000000000E+00  0.00000000000E+00  0.26437397961E+03  0.26437397961E+03  0.00000000000E+00 0.  1.
         13   -1    0    0    0    0 -0.00000000000E+00 -0.00000000000E+00 -0.27500000000E+03  0.27500000000E+03  0.00000000000E+00 0.  1.
    9000005    2    1    2  501    0 -0.65103542968E+02 -0.24046193443E+02 -0.22536570079E+02  0.46895699359E+03  0.46324515553E+03 0.  0.
         13    1    3    3    0    0 -0.24533534695E+02 -0.23834871030E+03  0.38000828558E+02  0.24260268959E+03  0.00000000000E+00 0.  1.
          1    1    3    3  501    0 -0.40570008274E+02  0.21430251686E+03 -0.60537398637E+02  0.22635430400E+03  0.00000000000E+00 0.  1.
         21    1    1    2  502  501  0.65103542968E+02  0.24046193443E+02  0.11910549689E+02  0.70416986019E+02  0.00000000000E+00 0. -1.
<scales pt_clust_4="550.00000" pt_clust_5="550.00000" pt_clust_6="69.40238"></scales>
<mgrwt>
<rscale>  0 0.30000000E+03</rscale>
<asrwt>  1 0.69402383E+02</asrwt>
<pdfrwt beam="1">  1        1 0.96135993E+00 0.30000000E+03</pdfrwt>
<pdfrwt beam="2">0</pdfrwt>
<totfact> 0.62851603E-06</totfact>
</mgrwt>
<clustering>
<clus scale="   69.402">  1  6  2 -1</clus>
<clus scale="  463.245">  4  5 -1 -1</clus>
<clus scale="  300.000">  1  4  2 -1</clus>
</clustering>
</event>
<event>
 6    1  0.9964252E-012  0.3000000E+03  0.7818608E-02  0.1093470E+00
          1   -1    0    0  502    0  0.00000000000E+00  0.00000000000E+00  0.22763108555E+03  0.22763108555E+03  0.00000000000E+00 0.  1.
         13   -1    0    0    0    0 -0.00000000000E+00 -0.00000000000E+00 -0.27500000000E+03  0.27500000000E+03  0.00000000000E+00 0.  1.
    9000005    2    1    2  501    0  0.97355498049E+01 -0.34744431271E+02 -0.33642883840E+02  0.46402590001E+03  0.46139596423E+03 0.  0.
         13    1    3    3    0    0 -0.96091775033E+02 -0.18576350405E+03  0.10432316665E+03  0.23371998581E+03  0.00000000000E+00 0.  1.
          3    1    3    3  501    0  0.10582732484E+03  0.15101907278E+03 -0.13796605049E+03  0.23030591420E+03  0.00000000000E+00 0.  1.
         21    1    1    2  502  501 -0.97355498049E+01  0.34744431271E+02 -0.13726030610E+02  0.38605185541E+02  0.00000000000E+00 0.  1.
<scales pt_clust_4="550.00000" pt_clust_5="550.00000" pt_clust_6="36.08265"></scales>
<mgrwt>
<rscale>  0 0.30000000E+03</rscale>
<asrwt>  1 0.36082651E+02</asrwt>
<pdfrwt beam="1">  1        1 0.82774940E+00 0.30000000E+03</pdfrwt>
<pdfrwt beam="2">0</pdfrwt>
<totfact> 0.61413205E-04</totfact>
</mgrwt>
<clustering>
<clus scale="   36.083">  1  6  2 -1</clus>
<clus scale="  461.396">  4  5 -1 -1</clus>
<clus scale="  300.000">  1  4  2 -1</clus>
</clustering>
</event>
<event>
 6    1  0.9964252E-012  0.3000000E+03  0.7818608E-02  0.1093470E+00
          1   -1    0    0  502    0  0.00000000000E+00  0.00000000000E+00  0.26062430375E+03  0.26062430375E+03  0.00000000000E+00 0.  1.
         13   -1    0    0    0    0 -0.00000000000E+00 -0.00000000000E+00 -0.27500000000E+03  0.27500000000E+03  0.00000000000E+00 0.  1.
    9000005    2    1    2  501    0  0.51932425630E+02  0.40556081817E+02 -0.16941201975E+02  0.46968225022E+03  0.46472856512E+03 0.  0.
         13    1    3    3    0    0  0.15136310672E+03  0.18775506273E+03  0.95568299924E+02  0.25941482920E+03  0.00000000000E+00 0.  1.
          3    1    3    3  501    0 -0.99430681093E+02 -0.14719898091E+03 -0.11250950190E+03  0.21026742102E+03  0.00000000000E+00 0.  1.
         21    1    1    2  502  501 -0.51932425630E+02 -0.40556081817E+02  0.25655057199E+01  0.65942053530E+02  0.00000000000E+00 0.  1.
<scales pt_clust_4="550.00000" pt_clust_5="550.00000" pt_clust_6="65.89213"></scales>
<mgrwt>
<rscale>  0 0.30000000E+03</rscale>
<asrwt>  1 0.65892129E+02</asrwt>
<pdfrwt beam="1">  1        1 0.94772474E+00 0.30000000E+03</pdfrwt>
<pdfrwt beam="2">0</pdfrwt>
<totfact> 0.12278664E-05</totfact>
</mgrwt>
<clustering>
<clus scale="   65.892">  1  6  2 -1</clus>
<clus scale="  464.729">  4  5 -1 -1</clus>
<clus scale="  300.000">  1  4  2 -1</clus>
</clustering>
</event>
<event>
 6    1  0.9964252E-012  0.3000000E+03  0.7818608E-02  0.1093470E+00
          1   -1    0    0  502    0  0.00000000000E+00  0.00000000000E+00  0.22522077390E+03  0.22522077390E+03  0.00000000000E+00 0.  1.
         13   -1    0    0    0    0 -0.00000000000E+00 -0.00000000000E+00 -0.27500000000E+03  0.27500000000E+03  0.00000000000E+00 0.  1.
    9000005    2    1    2  501    0 -0.15711162514E+02 -0.32219299466E+02 -0.47339650120E+02  0.46429201917E+03  0.46047922071E+03 0.  0.
         13    1    3    3    0    0  0.33485606506E+02 -0.11404209337E+03 -0.22959955669E+03  0.25853982543E+03  0.00000000000E+00 0.  1.
          3    1    3    3  501    0 -0.49196769020E+02  0.81822793901E+02  0.18225990657E+03  0.20575219374E+03  0.00000000000E+00 0.  1.
         21    1    1    2  502  501  0.15711162514E+02  0.32219299466E+02 -0.24395759763E+01  0.35928754732E+02  0.00000000000E+00 0. -1.
<scales pt_clust_4="550.00000" pt_clust_5="550.00000" pt_clust_6="35.84583"></scales>
<mgrwt>
<rscale>  0 0.30000000E+03</rscale>
<asrwt>  1 0.35845835E+02</asrwt>
<pdfrwt beam="1">  1        1 0.81898463E+00 0.30000000E+03</pdfrwt>
<pdfrwt beam="2">0</pdfrwt>
<totfact> 0.73468265E-04</totfact>
</mgrwt>
<clustering>
<clus scale="   35.846">  1  6  2 -1</clus>
<clus scale="  460.479">  4  5 -1 -1</clus>
<clus scale="  300.000">  1  4  2 -1</clus>
</clustering>
</event>
<event>
 6    1  0.9964252E-012  0.3000000E+03  0.7818608E-02  0.1093470E+00
          1   -1    0    0  502    0  0.00000000000E+00  0.00000000000E+00  0.24208383579E+03  0.24208383579E+03  0.00000000000E+00 0.  1.
         13   -1    0    0    0    0 -0.00000000000E+00 -0.00000000000E+00 -0.27500000000E+03  0.27500000000E+03  0.00000000000E+00 0.  1.
    9000005    2    1    2  501    0  0.38767125290E+02 -0.13757003229E+02 -0.58006753495E+02  0.46889999190E+03  0.46347629261E+03 0.  0.
         13    1    3    3    0    0  0.14756088885E+03  0.52928382170E+02  0.15508996191E+03  0.22051876529E+03  0.00000000000E+00 0.  1.
          3    1    3    3  501    0 -0.10879376356E+03 -0.66685385399E+02 -0.21309671541E+03  0.24838122661E+03  0.00000000000E+00 0.  1.
         21    1    1    2  502  501 -0.38767125290E+02  0.13757003229E+02  0.25090589282E+02  0.48183843885E+02  0.00000000000E+00 0. -1.
<scales pt_clust_4="550.00000" pt_clust_5="550.00000" pt_clust_6="41.13569"></scales>
<mgrwt>
<rscale>  0 0.30000000E+03</rscale>
<asrwt>  1 0.41135692E+02</asrwt>
<pdfrwt beam="1">  1        1 0.88030486E+00 0.30000000E+03</pdfrwt>
<pdfrwt beam="2">0</pdfrwt>
<totfact> 0.18993077E-04</totfact>
</mgrwt>
<clustering>
<clus scale="   41.136">  1  6  2 -1</clus>
<clus scale="  463.476">  4  5 -1 -1</clus>
<clus scale="  300.000">  1  4  2 -1</clus>
</clustering>
</event>
<event>
 6    1  0.9964252E-012  0.3000000E+03  0.7818608E-02  0.1093470E+00
          1   -1    0    0  502    0  0.00000000000E+00  0.00000000000E+00  0.25768956113E+03  0.25768956113E+03  0.00000000000E+00 0.  1.
         13   -1    0    0    0    0 -0.00000000000E+00 -0.00000000000E+00 -0.27500000000E+03  0.27500000000E+03  0.00000000000E+00 0.  1.
    9000005    2    1    2  501    0 -0.19145822833E+02 -0.27877410625E+02 -0.28068586570E+02  0.49720082634E+03  0.49525458464E+03 0.  0.
         13    1    3    3    0    0 -0.24353545062E+03 -0.95070061709E+02 -0.12557082456E+01  0.26143719924E+03  0.00000000000E+00 0.  1.
          1    1    3    3  501    0  0.22438962779E+03  0.67192651084E+02 -0.26812878324E+02  0.23576362710E+03  0.00000000000E+00 0.  1.
         21    1    1    2  502  501  0.19145822833E+02  0.27877410625E+02  0.10758147698E+02  0.35488734790E+02  0.00000000000E+00 0.  1.
<scales pt_clust_4="550.00000" pt_clust_5="550.00000" pt_clust_6="33.81882"></scales>
<mgrwt>
<rscale>  0 0.30000000E+03</rscale>
<asrwt>  1 0.33818820E+02</asrwt>
<pdfrwt beam="1">  1        1 0.93705295E+00 0.30000000E+03</pdfrwt>
<pdfrwt beam="2">0</pdfrwt>
<totfact> 0.21369264E-05</totfact>
</mgrwt>
<clustering>
<clus scale="   33.819">  1  6  2 -1</clus>
<clus scale="  495.255">  4  5 -1 -1</clus>
<clus scale="  300.000">  1  4  2 -1</clus>
</clustering>
</event>
<event>
 6    1  0.9964252E-012  0.3000000E+03  0.7818608E-02  0.1093470E+00
          1   -1    0    0  502    0  0.00000000000E+00  0.00000000000E+00  0.23212291865E+03  0.23212291865E+03  0.00000000000E+00 0.  1.
         13   -1    0    0    0    0 -0.00000000000E+00 -0.00000000000E+00 -0.27500000000E+03  0.27500000000E+03  0.00000000000E+00 0.  1.
    9000005    2    1    2  501    0 -0.32616473498E+02 -0.14382167773E+02 -0.51372399061E+02  0.47047798017E+03  0.46630432696E+03 0.  0.
         13    1    3    3    0    0  0.18350829013E+03  0.50956898193E+01  0.96972964074E+02  0.20761747124E+03  0.00000000000E+00 0.  1.
          1    1    3    3  501    0 -0.21612476363E+03 -0.19477857593E+02 -0.14834536314E+03  0.26286050893E+03  0.00000000000E+00 0.  1.
         21    1    1    2  502  501  0.32616473498E+02  0.14382167773E+02  0.84953177082E+01  0.36644938481E+02  0.00000000000E+00 0. -1.
<scales pt_clust_4="550.00000" pt_clust_5="550.00000" pt_clust_6="35.64661"></scales>
<mgrwt>
<rscale>  0 0.30000000E+03</rscale>
<asrwt>  1 0.35646614E+02</asrwt>
<pdfrwt beam="1">  1        1 0.84408334E+00 0.30000000E+03</pdfrwt>
<pdfrwt beam="2">0</pdfrwt>
<totfact> 0.45859766E-04</totfact>
</mgrwt>
<clustering>
<clus scale="   35.647">  1  6  2 -1</clus>
<clus scale="  466.304">  4  5 -1 -1</clus>
<clus scale="  300.000">  1  4  2 -1</clus>
</clustering>
</event>
<event>
 6    1  0.9964252E-012  0.3000000E+03  0.7818608E-02  0.1093470E+00
          1   -1    0    0  502    0  0.00000000000E+00  0.00000000000E+00  0.23313323866E+03  0.23313323866E+03  0.00000000000E+00 0.  1.
         13   -1    0    0    0    0 -0.00000000000E+00 -0.00000000000E+00 -0.27500000000E+03  0.27500000000E+03  0.00000000000E+00 0.  1.
    9000005    2    1    2  501    0  0.15065531749E+02 -0.36032511048E+02 -0.56530770015E+02  0.46641579327E+03  0.46132705552E+03 0.  0.
         13    1    3    3    0    0 -0.11274192807E+03 -0.13724096621E+03  0.12894017873E+03  0.21947982787E+03  0.00000000000E+00 0.  1.
          1    1    3    3  501    0  0.12780745981E+03  0.10120845516E+03 -0.18547094874E+03  0.24693596540E+03  0.00000000000E+00 0.  1.
         21    1    1    2  502  501 -0.15065531749E+02  0.36032511048E+02  0.14664008670E+02  0.41717445386E+02  0.00000000000E+00 0.  1.
<scales pt_clust_4="550.00000" pt_clust_5="550.00000" pt_clust_6="39.05524"></scales>
<mgrwt>
<rscale>  0 0.30000000E+03</rscale>
<asrwt>  1 0.39055244E+02</asrwt>
<pdfrwt beam="1">  1        1 0.84775723E+00 0.30000000E+03</pdfrwt>
<pdfrwt beam="2">0</pdfrwt>
<totfact> 0.41833203E-04</totfact>
</mgrwt>
<clustering>
<clus scale="   39.055">  1  6  2 -1</clus>
<clus scale="  461.327">  4  5 -1 -1</clus>
<clus scale="  300.000">  1  4  2 -1</clus>
</clustering>
</event>
<event>
 6    1  0.9964252E-012  0.3000000E+03  0.7818608E-02  0.1093470E+00
          1   -1    0    0  502    0  0.00000000000E+00  0.00000000000E+00  0.23171107895E+03  0.23171107895E+03  0.00000000000E+00 0.  1.
         13   -1    0    0    0    0 -0.00000000000E+00 -0.00000000000E+00 -0.27500000000E+03  0.27500000000E+03  0.00000000000E+00 0.  1.
    9000005    2    1    2  501    0 -0.11445541664E+02 -0.33877517623E+02 -0.57326509426E+02  0.46829571078E+03  0.46339600497E+03 0.  0.
         13    1    3    3    0    0  0.12276345346E+03  0.15739423603E+03 -0.11121711439E+03  0.22850176711E+03  0.00000000000E+00 0.  1.
          1    1    3    3  501    0 -0.13420899512E+03 -0.19127175365E+03  0.53890604961E+02  0.23979394367E+03  0.00000000000E+00 0.  1.
         21    1    1    2  502  501  0.11445541664E+02  0.33877517623E+02  0.14037588372E+02  0.38415368169E+02  0.00000000000E+00 0.  1.
<scales pt_clust_4="550.00000" pt_clust_5="550.00000" pt_clust_6="35.75873"></scales>
<mgrwt>
<rscale>  0 0.30000000E+03</rscale>
<asrwt>  1 0.35758728E+02</asrwt>
<pdfrwt beam="1">  1        1 0.84258574E+00 0.30000000E+03</pdfrwt>
<pdfrwt beam="2">0</pdfrwt>
<totfact> 0.47193094E-04</totfact>
</mgrwt>
<clustering>
<clus scale="   35.759">  1  6  2 -1</clus>
<clus scale="  463.396">  4  5 -1 -1</clus>
<clus scale="  300.000">  1  4  2 -1</clus>
</clustering>
</event>
<event>
 6    1  0.9964252E-012  0.3000000E+03  0.7818608E-02  0.1093470E+00
          1   -1    0    0  502    0  0.00000000000E+00  0.00000000000E+00  0.22987003159E+03  0.22987003159E+03  0.00000000000E+00 0.  1.
         13   -1    0    0    0    0 -0.00000000000E+00 -0.00000000000E+00 -0.27500000000E+03  0.27500000000E+03  0.00000000000E+00 0.  1.
    9000005    2    1    2  501    0  0.50445850049E+00 -0.37441748926E+02 -0.50451837971E+02  0.46704859142E+03  0.46280326247E+03 0.  0.
         13    1    3    3    0    0  0.13987152836E+02 -0.17603233761E+03 -0.19722881634E+03  0.26473048620E+03  0.00000000000E+00 0.  1.
          1    1    3    3  501    0 -0.13482694336E+02  0.13859058868E+03  0.14677697837E+03  0.20231810522E+03  0.00000000000E+00 0.  1.
         21    1    1    2  502  501 -0.50445850049E+00  0.37441748926E+02  0.53218695606E+01  0.37821440172E+02  0.00000000000E+00 0. -1.
<scales pt_clust_4="550.00000" pt_clust_5="550.00000" pt_clust_6="37.44515"></scales>
<mgrwt>
<rscale>  0 0.30000000E+03</rscale>
<asrwt>  1 0.37445147E+02</asrwt>
<pdfrwt beam="1">  1        1 0.83589102E+00 0.30000000E+03</pdfrwt>
<pdfrwt beam="2">0</pdfrwt>
<totfact> 0.52632577E-04</totfact>
</mgrwt>
<clustering>
<clus scale="   37.445">  1  6  2 -1</clus>
<clus scale="  462.803">  4  5 -1 -1</clus>
<clus scale="  300.000">  1  4  2 -1</clus>
</clustering>
</event>
<event>
 6    1  0.9964252E-012  0.3000000E+03  0.7818608E-02  0.1093470E+00
          1   -1    0    0  502    0  0.00000000000E+00  0.00000000000E+00  0.25536240261E+03  0.25536240261E+03  0.00000000000E+00 0.  1.
         13   -1    0    0    0    0 -0.00000000000E+00 -0.00000000000E+00 -0.27500000000E+03  0.27500000000E+03  0.00000000000E+00 0.  1.
    9000005    2    1    2  501    0 -0.17889615897E+02  0.24686384942E+02 -0.23935510853E+02  0.49957396292E+03  0.49806804735E+03 0.  0.
         13    1    3    3    0    0  0.14427521691E+03 -0.50841930792E+02  0.17473350613E+03  0.23223272445E+03  0.00000000000E+00 0.  1.
          1    1    3    3  501    0 -0.16216483281E+03  0.75528315734E+02 -0.19866901698E+03  0.26734123847E+03  0.00000000000E+00 0.  1.
         21    1    1    2  502  501  0.17889615897E+02 -0.24686384942E+02  0.42979134637E+01  0.30788439691E+02  0.00000000000E+00 0.  1.
<scales pt_clust_4="550.00000" pt_clust_5="550.00000" pt_clust_6="30.48698"></scales>
<mgrwt>
<rscale>  0 0.30000000E+03</rscale>
<asrwt>  1 0.30486980E+02</asrwt>
<pdfrwt beam="1">  1        1 0.92859055E+00 0.30000000E+03</pdfrwt>
<pdfrwt beam="2">0</pdfrwt>
<totfact> 0.28517185E-05</totfact>
</mgrwt>
<clustering>
<clus scale="   30.487">  1  6  2 -1</clus>
<clus scale="  498.068">  4  5 -1 -1</clus>
<clus scale="  300.000">  1  4  2 -1</clus>
</clustering>
</event>
<event>
 6    1  0.9964252E-012  0.3000000E+03  0.7818608E-02  0.1093470E+00
          1   -1    0    0  502    0  0.00000000000E+00  0.00000000000E+00  0.25450008234E+03  0.25450008234E+03  0.00000000000E+00 0.  1.
         13   -1    0    0    0    0 -0.00000000000E+00 -0.00000000000E+00 -0.27500000000E+03  0.27500000000E+03  0.00000000000E+00 0.  1.
    9000005    2    1    2  501    0 -0.15491705421E+02  0.33247513184E+02 -0.32201017093E+02  0.49099935770E+03  0.48856736863E+03 0.  0.
         13    1    3    3    0    0 -0.88313892354E+02  0.24204649462E+03  0.34668328360E+02  0.25997642611E+03  0.00000000000E+00 0.  1.
          1    1    3    3  501    0  0.72822186934E+02 -0.20879898144E+03 -0.66869345453E+02  0.23102293159E+03  0.00000000000E+00 0.  1.
         21    1    1    2  502  501  0.15491705421E+02 -0.33247513184E+02  0.11701099437E+02  0.38500724640E+02  0.00000000000E+00 0.  1.
<scales pt_clust_4="550.00000" pt_clust_5="550.00000" pt_clust_6="36.67956"></scales>
<mgrwt>
<rscale>  0 0.30000000E+03</rscale>
<asrwt>  1 0.36679559E+02</asrwt>
<pdfrwt beam="1">  1        1 0.92545484E+00 0.30000000E+03</pdfrwt>
<pdfrwt beam="2">0</pdfrwt>
<totfact> 0.31814739E-05</totfact>
</mgrwt>
<clustering>
<clus scale="   36.680">  1  6  2 -1</clus>
<clus scale="  488.567">  4  5 -1 -1</clus>
<clus scale="  300.000">  1  4  2 -1</clus>
</clustering>
</event>
<event>
 6    1  0.9964252E-012  0.3000000E+03  0.7818608E-02  0.1093470E+00
          1   -1    0    0  502    0  0.00000000000E+00  0.00000000000E+00  0.22714746080E+03  0.22714746080E+03  0.00000000000E+00 0.  1.
         13   -1    0    0    0    0 -0.00000000000E+00 -0.00000000000E+00 -0.27500000000E+03  0.27500000000E+03  0.00000000000E+00 0.  1.
    9000005    2    1    2  501    0 -0.58025103191E+01  0.30555798228E+02 -0.32032793094E+02  0.46725347423E+03  0.46511545171E+03 0.  0.
         13    1    3    3    0    0  0.19522532440E+03  0.41665015072E+02 -0.13512934482E+03  0.24105775366E+03  0.00000000000E+00 0.  1.
          1    1    3    3  501    0 -0.20102783472E+03 -0.11109216844E+02  0.10309655172E+03  0.22619572058E+03  0.00000000000E+00 0.  1.
         21    1    1    2  502  501  0.58025103191E+01 -0.30555798228E+02 -0.15819746110E+02  0.34893986564E+02  0.00000000000E+00 0.  1.
<scales pt_clust_4="550.00000" pt_clust_5="550.00000" pt_clust_6="31.10188"></scales>
<mgrwt>
<rscale>  0 0.30000000E+03</rscale>
<asrwt>  1 0.31101879E+02</asrwt>
<pdfrwt beam="1">  1        1 0.82599077E+00 0.30000000E+03</pdfrwt>
<pdfrwt beam="2">0</pdfrwt>
<totfact> 0.65448837E-04</totfact>
</mgrwt>
<clustering>
<clus scale="   31.102">  1  6  2 -1</clus>
<clus scale="  465.115">  4  5 -1 -1</clus>
<clus scale="  300.000">  1  4  2 -1</clus>
</clustering>
</event>
<event>
 6    1  0.9964252E-012  0.3000000E+03  0.7818608E-02  0.1093470E+00
          1   -1    0    0  502    0  0.00000000000E+00  0.00000000000E+00  0.24315838074E+03  0.24315838074E+03  0.00000000000E+00 0.  1.
         13   -1    0    0    0    0 -0.00000000000E+00 -0.00000000000E+00 -0.27500000000E+03  0.27500000000E+03  0.00000000000E+00 0.  1.
    9000005    2    1    2  501    0 -0.42471882376E+02  0.17364374294E+02 -0.27989607957E+02  0.47211253100E+03  0.46904311261E+03 0.  0.
         13    1    3    3    0    0  0.92099865618E+02  0.20703957149E+03  0.39357482881E+02  0.22999300178E+03  0.00000000000E+00 0.  1.
          3    1    3    3  501    0 -0.13457174799E+03 -0.18967519719E+03 -0.67347090838E+02  0.24211952923E+03  0.00000000000E+00 0.  1.
         21    1    1    2  502  501  0.42471882376E+02 -0.17364374294E+02 -0.38520113007E+01  0.46045849739E+02  0.00000000000E+00 0.  1.
<scales pt_clust_4="550.00000" pt_clust_5="550.00000" pt_clust_6="45.88447"></scales>
<mgrwt>
<rscale>  0 0.30000000E+03</rscale>
<asrwt>  1 0.45884468E+02</asrwt>
<pdfrwt beam="1">  1        1 0.88421229E+00 0.30000000E+03</pdfrwt>
<pdfrwt beam="2">0</pdfrwt>
<totfact> 0.16557279E-04</totfact>
</mgrwt>
<clustering>
<clus scale="   45.884">  1  6  2 -1</clus>
<clus scale="  469.043">  4  5 -1 -1</clus>
<clus scale="  300.000">  1  4  2 -1</clus>
</clustering>
</event>
<event>
 6    1  0.9964252E-012  0.3000000E+03  0.7818608E-02  0.1093470E+00
          1   -1    0    0  502    0  0.00000000000E+00  0.00000000000E+00  0.24544145857E+03  0.24544145857E+03  0.00000000000E+00 0.  1.
         13   -1    0    0    0    0 -0.00000000000E+00 -0.00000000000E+00 -0.27500000000E+03  0.27500000000E+03  0.00000000000E+00 0.  1.
    9000005    2    1    2  501    0 -0.39241428668E+02 -0.10596488263E+01 -0.45910933386E+02  0.47791601557E+03  0.47408321164E+03 0.  0.
         13    1    3    3    0    0  0.17161994815E+03  0.94722416578E+02  0.82985489884E+02  0.21286694045E+03  0.00000000000E+00 0.  1.
          1    1    3    3  501    0 -0.21086137682E+03 -0.95782065404E+02 -0.12889642327E+03  0.26504907512E+03  0.00000000000E+00 0.  1.
         21    1    1    2  502  501  0.39241428668E+02  0.10596488263E+01  0.16352391957E+02  0.42525442999E+02  0.00000000000E+00 0.  1.
<scales pt_clust_4="550.00000" pt_clust_5="550.00000" pt_clust_6="39.25573"></scales>
<mgrwt>
<rscale>  0 0.30000000E+03</rscale>
<asrwt>  1 0.39255733E+02</asrwt>
<pdfrwt beam="1">  1        1 0.89251439E+00 0.30000000E+03</pdfrwt>
<pdfrwt beam="2">0</pdfrwt>
<totfact> 0.13187400E-04</totfact>
</mgrwt>
<clustering>
<clus scale="   39.256">  1  6  2 -1</clus>
<clus scale="  474.083">  4  5 -1 -1</clus>
<clus scale="  300.000">  1  4  2 -1</clus>
</clustering>
</event>
<event>
 6    1  0.9964252E-012  0.3000000E+03  0.7818608E-02  0.1093470E+00
          1   -1    0    0  502    0  0.00000000000E+00  0.00000000000E+00  0.22392236896E+03  0.22392236896E+03  0.00000000000E+00 0.  1.
         13   -1    0    0    0    0 -0.00000000000E+00 -0.00000000000E+00 -0.27500000000E+03  0.27500000000E+03  0.00000000000E+00 0.  1.
    9000005    2    1    2  501    0 -0.19198988999E+02  0.24504046614E+02 -0.57387134511E+02  0.46715982320E+03  0.46257536437E+03 0.  0.
         13    1    3    3    0    0 -0.12572057233E+01 -0.18625287773E+03 -0.14716139370E+03  0.23737773869E+03  0.00000000000E+00 0.  1.
          1    1    3    3  501    0 -0.17941783276E+02  0.21075692435E+03  0.89774259193E+02  0.22978208451E+03  0.00000000000E+00 0.  1.
         21    1    1    2  502  501  0.19198988999E+02 -0.24504046614E+02  0.63095034691E+01  0.31762545759E+02  0.00000000000E+00 0. -1.
<scales pt_clust_4="550.00000" pt_clust_5="550.00000" pt_clust_6="31.12956"></scales>
<mgrwt>
<rscale>  0 0.30000000E+03</rscale>
<asrwt>  1 0.31129560E+02</asrwt>
<pdfrwt beam="1">  1        1 0.81426316E+00 0.30000000E+03</pdfrwt>
<pdfrwt beam="2">0</pdfrwt>
<totfact> 0.82508218E-04</totfact>
</mgrwt>
<clustering>
<clus scale="   31.130">  1  6  2 -1</clus>
<clus scale="  462.575">  4  5 -1 -1</clus>
<clus scale="  300.000">  1  4  2 -1</clus>
</clustering>
</event>
<event>
 6    1  0.9964252E-012  0.3000000E+03  0.7818608E-02  0.1093470E+00
          1   -1    0    0  502    0  0.00000000000E+00  0.00000000000E+00  0.23122471822E+03  0.23122471822E+03  0.00000000000E+00 0.  1.
         13   -1    0    0    0    0 -0.00000000000E+00 -0.00000000000E+00 -0.27500000000E+03  0.27500000000E+03  0.00000000000E+00 0.  1.
    9000005    2    1    2  501    0 -0.28251096256E+02  0.13486603197E+02 -0.70612375805E+02  0.46499072107E+03  0.45853053351E+03 0.  0.
         13    1    3    3    0    0 -0.18650419425E+03 -0.14450783651E+03 -0.39316672135E+02  0.23919057255E+03  0.00000000000E+00 0.  1.
          1    1    3    3  501    0  0.15825309800E+03  0.15799443971E+03 -0.31295703670E+02  0.22580014852E+03  0.00000000000E+00 0.  1.
         21    1    1    2  502  501  0.28251096256E+02 -0.13486603197E+02  0.26837094025E+02  0.41233997152E+02  0.00000000000E+00 0. -1.
<scales pt_clust_4="550.00000" pt_clust_5="550.00000" pt_clust_6="31.30516"></scales>
<mgrwt>
<rscale>  0 0.30000000E+03</rscale>
<asrwt>  1 0.31305158E+02</asrwt>
<pdfrwt beam="1">  1        1 0.84081716E+00 0.30000000E+03</pdfrwt>
<pdfrwt beam="2">0</pdfrwt>
<totfact> 0.50026054E-04</totfact>
</mgrwt>
<clustering>
<clus scale="   31.305">  1  6  2 -1</clus>
<clus scale="  458.531">  4  5 -1 -1</clus>
<clus scale="  300.000">  1  4  2 -1</clus>
</clustering>
</event>
<event>
 6    1  0.9964252E-012  0.3000000E+03  0.7818608E-02  0.1093470E+00
          1   -1    0    0  502    0  0.00000000000E+00  0.00000000000E+00  0.23163951669E+03  0.23163951669E+03  0.00000000000E+00 0.  1.
         13   -1    0    0    0    0 -0.00000000000E+00 -0.00000000000E+00 -0.27500000000E+03  0.27500000000E+03  0.00000000000E+00 0.  1.
    9000005    2    1    2  501    0  0.26350703426E+02 -0.24322440663E+02 -0.52488416358E+02  0.46963600534E+03  0.46531387575E+03 0.  0.
         13    1    3    3    0    0 -0.20356819458E+03  0.51327617832E+02  0.33855697045E+02  0.21265169272E+03  0.00000000000E+00 0.  1.
          1    1    3    3  501    0  0.22991889800E+03 -0.75650058495E+02 -0.86344113403E+02  0.25698431261E+03  0.00000000000E+00 0.  1.
         21    1    1    2  502  501 -0.26350703426E+02  0.24322440663E+02  0.91279330487E+01  0.37003511355E+02  0.00000000000E+00 0.  1.
<scales pt_clust_4="550.00000" pt_clust_5="550.00000" pt_clust_6="35.86002"></scales>
<mgrwt>
<rscale>  0 0.30000000E+03</rscale>
<asrwt>  1 0.35860015E+02</asrwt>
<pdfrwt beam="1">  1        1 0.84232552E+00 0.30000000E+03</pdfrwt>
<pdfrwt beam="2">0</pdfrwt>
<totfact> 0.47404511E-04</totfact>
</mgrwt>
<clustering>
<clus scale="   35.860">  1  6  2 -1</clus>
<clus scale="  465.314">  4  5 -1 -1</clus>
<clus scale="  300.000">  1  4  2 -1</clus>
</clustering>
</event>
<event>
 6    1  0.9964252E-012  0.3000000E+03  0.7818608E-02  0.1093470E+00
          1   -1    0    0  502    0  0.00000000000E+00  0.00000000000E+00  0.23513596234E+03  0.23513596234E+03  0.00000000000E+00 0.  1.
         13   -1    0    0    0    0 -0.00000000000E+00 -0.00000000000E+00 -0.27500000000E+03  0.27500000000E+03  0.00000000000E+00 0.  1.
    9000005    2    1    2  501    0  0.27072695295E+02 -0.15740461645E+02 -0.48904288561E+02  0.47754119129E+03  0.47399711706E+03 0.  0.
         13    1    3    3    0    0 -0.74411644881E+02 -0.93931372615E+02  0.17940352593E+03  0.21574480473E+03  0.00000000000E+00 0.  1.
          1    1    3    3  501    0  0.10148434018E+03  0.78190910970E+02 -0.22830781449E+03  0.26179638656E+03  0.00000000000E+00 0.  1.
         21    1    1    2  502  501 -0.27072695295E+02  0.15740461645E+02  0.90402509028E+01  0.32594771049E+02  0.00000000000E+00 0.  1.
<scales pt_clust_4="550.00000" pt_clust_5="550.00000" pt_clust_6="31.31602"></scales>
<mgrwt>
<rscale>  0 0.30000000E+03</rscale>
<asrwt>  1 0.31316018E+02</asrwt>
<pdfrwt beam="1">  1        1 0.85503986E+00 0.30000000E+03</pdfrwt>
<pdfrwt beam="2">0</pdfrwt>
<totfact> 0.37173675E-04</totfact>
</mgrwt>
<clustering>
<clus scale="   31.316">  1  6  2 -1</clus>
<clus scale="  473.997">  4  5 -1 -1</clus>
<clus scale="  300.000">  1  4  2 -1</clus>
</clustering>
</event>
<event>
 6    1  0.9964252E-012  0.3000000E+03  0.7818608E-02  0.1093470E+00
          1   -1    0    0  502    0  0.00000000000E+00  0.00000000000E+00  0.24528677775E+03  0.24528677775E+03  0.00000000000E+00 0.  1.
         13   -1    0    0    0    0 -0.00000000000E+00 -0.00000000000E+00 -0.27500000000E+03  0.27500000000E+03  0.00000000000E+00 0.  1.
    9000005    2    1    2  501    0 -0.46210482659E+01  0.30535098696E+02 -0.74593608285E+02  0.46580746617E+03  0.45875771689E+03 0.  0.
         13    1    3    3    0    0  0.65604947631E+01  0.21285056790E+03  0.79022275866E+02  0.22714075907E+03  0.00000000000E+00 0.  1.
          1    1    3    3  501    0 -0.11181543029E+02 -0.18231546920E+03 -0.15361588415E+03  0.23866670710E+03  0.00000000000E+00 0.  1.
         21    1    1    2  502  501  0.46210482659E+01 -0.30535098696E+02  0.44880386033E+02  0.54479311577E+02  0.00000000000E+00 0. -1.
<scales pt_clust_4="550.00000" pt_clust_5="550.00000" pt_clust_6="30.88278"></scales>
<mgrwt>
<rscale>  0 0.30000000E+03</rscale>
<asrwt>  1 0.30882784E+02</asrwt>
<pdfrwt beam="1">  1        1 0.89195192E+00 0.30000000E+03</pdfrwt>
<pdfrwt beam="2">0</pdfrwt>
<totfact> 0.14011795E-04</totfact>
</mgrwt>
<clustering>
<clus scale="   30.883">  1  6  2 -1</clus>
<clus scale="  458.758">  4  5 -1 -1</clus>
<clus scale="  300.000">  1  4  2 -1</clus>
</clustering>
</event>
<event>
 6    1  0.9964252E-012  0.3000000E+03  0.7818608E-02  0.1093470E+00
          1   -1    0    0  502    0  0.00000000000E+00  0.00000000000E+00  0.23727196298E+03  0.23727196298E+03  0.00000000000E+00 0.  1.
         13   -1    0    0    0    0 -0.00000000000E+00 -0.00000000000E+00 -0.27500000000E+03  0.27500000000E+03  0.00000000000E+00 0.  1.
    9000005    2    1    2  501    0 -0.19090796171E+02 -0.27927066486E+02 -0.72828112712E+02  0.46352368245E+03  0.45651494023E+03 0.  0.
         13    1    3    3    0    0  0.98153202264E+02  0.16546108457E+03  0.59658025467E+02  0.20142120450E+03  0.00000000000E+00 0.  1.
          1    1    3    3  501    0 -0.11724399844E+03 -0.19338815105E+03 -0.13248613818E+03  0.26210247795E+03  0.00000000000E+00 0.  1.
         21    1    1    2  502  501  0.19090796171E+02  0.27927066486E+02  0.35100075691E+02  0.48748280528E+02  0.00000000000E+00 0. -1.
<scales pt_clust_4="550.00000" pt_clust_5="550.00000" pt_clust_6="33.82868"></scales>
<mgrwt>
<rscale>  0 0.30000000E+03</rscale>
<asrwt>  1 0.33828679E+02</asrwt>
<pdfrwt beam="1">  1        1 0.86280714E+00 0.30000000E+03</pdfrwt>
<pdfrwt beam="2">0</pdfrwt>
<totfact> 0.30365565E-04</totfact>
</mgrwt>
<clustering>
<clus scale="   33.829">  1  6  2 -1</clus>
<clus scale="  456.515">  4  5 -1 -1</clus>
<clus scale="  300.000">  1  4  2 -1</clus>
</clustering>
</event>
<event>
 6    1  0.9964252E-012  0.3000000E+03  0.7818608E-02  0.1093470E+00
          1   -1    0    0  502    0  0.00000000000E+00  0.00000000000E+00  0.24215233011E+03  0.24215233011E+03  0.00000000000E+00 0.  1.
         13   -1    0    0    0    0 -0.00000000000E+00 -0.00000000000E+00 -0.27500000000E+03  0.27500000000E+03  0.00000000000E+00 0.  1.
    9000005    2    1    2  501    0  0.29825302556E+02 -0.18384060221E+02 -0.66526315460E+02  0.46855424877E+03  0.46248222782E+03 0.  0.
         13    1    3    3    0    0  0.26789347547E+02  0.33811491971E+02  0.19609258091E+03  0.20078143943E+03  0.00000000000E+00 0.  1.
          1    1    3    3  501    0  0.30359550091E+01 -0.52195552192E+02 -0.26261889637E+03  0.26777280934E+03  0.00000000000E+00 0.  1.
         21    1    1    2  502  501 -0.29825302556E+02  0.18384060221E+02  0.33678645570E+02  0.48598081343E+02  0.00000000000E+00 0.  1.
<scales pt_clust_4="550.00000" pt_clust_5="550.00000" pt_clust_6="35.03601"></scales>
<mgrwt>
<rscale>  0 0.30000000E+03</rscale>
<asrwt>  1 0.35036015E+02</asrwt>
<pdfrwt beam="1">  1        1 0.88055393E+00 0.30000000E+03</pdfrwt>
<pdfrwt beam="2">0</pdfrwt>
<totfact> 0.19423555E-04</totfact>
</mgrwt>
<clustering>
<clus scale="   35.036">  1  6  2 -1</clus>
<clus scale="  462.482">  4  5 -1 -1</clus>
<clus scale="  300.000">  1  4  2 -1</clus>
</clustering>
</event>
<event>
 6    1  0.9964252E-012  0.3000000E+03  0.7818608E-02  0.1093470E+00
          1   -1    0    0  502    0  0.00000000000E+00  0.00000000000E+00  0.23969740001E+03  0.23969740001E+03  0.00000000000E+00 0.  1.
         13   -1    0    0    0    0 -0.00000000000E+00 -0.00000000000E+00 -0.27500000000E+03  0.27500000000E+03  0.00000000000E+00 0.  1.
    9000005    2    1    2  501    0  0.17839458169E+02  0.31390468705E+02 -0.14134275156E+02  0.47284401581E+03  0.47125160770E+03 0.  0.
         13    1    3    3    0    0  0.98907217804E+02  0.23408765329E+03 -0.74512619307E+00  0.25412639054E+03  0.00000000000E+00 0.  1.
          1    1    3    3  501    0 -0.81067759635E+02 -0.20269718459E+03 -0.13389148963E+02  0.21871762526E+03  0.00000000000E+00 0.  1.
         21    1    1    2  502  501 -0.17839458169E+02 -0.31390468705E+02 -0.21168324833E+02  0.41853384206E+02  0.00000000000E+00 0.  1.
<scales pt_clust_4="550.00000" pt_clust_5="550.00000" pt_clust_6="36.10553"></scales>
<mgrwt>
<rscale>  0 0.30000000E+03</rscale>
<asrwt>  1 0.36105527E+02</asrwt>
<pdfrwt beam="1">  1        1 0.87162691E+00 0.30000000E+03</pdfrwt>
<pdfrwt beam="2">0</pdfrwt>
<totfact> 0.24233819E-04</totfact>
</mgrwt>
<clustering>
<clus scale="   36.106">  1  6  2 -1</clus>
<clus scale="  471.252">  4  5 -1 -1</clus>
<clus scale="  300.000">  1  4  2 -1</clus>
</clustering>
</event>
<event>
 6    1  0.9964252E-012  0.3000000E+03  0.7818608E-02  0.1093470E+00
          1   -1    0    0  502    0  0.00000000000E+00  0.00000000000E+00  0.23877197039E+03  0.23877197039E+03  0.00000000000E+00 0.  1.
         13   -1    0    0    0    0 -0.00000000000E+00 -0.00000000000E+00 -0.27500000000E+03  0.27500000000E+03  0.00000000000E+00 0.  1.
    9000005    2    1    2  501    0 -0.89669022830E+01 -0.30391645027E+02 -0.50946017880E+02  0.47883378780E+03  0.47506025110E+03 0.  0.
         13    1    3    3    0    0 -0.65276909641E+02  0.94773192557E+02  0.17796501147E+03  0.21193059776E+03  0.00000000000E+00 0.  1.
          3    1    3    3  501    0  0.56310007358E+02 -0.12516483758E+03 -0.22891102935E+03  0.26690319004E+03  0.00000000000E+00 0.  1.
         21    1    1    2  502  501  0.89669022830E+01  0.30391645027E+02  0.14717988272E+02  0.34938182591E+02  0.00000000000E+00 0.  1.
<scales pt_clust_4="550.00000" pt_clust_5="550.00000" pt_clust_6="31.68687"></scales>
<mgrwt>
<rscale>  0 0.30000000E+03</rscale>
<asrwt>  1 0.31686865E+02</asrwt>
<pdfrwt beam="1">  1        1 0.86826171E+00 0.30000000E+03</pdfrwt>
<pdfrwt beam="2">0</pdfrwt>
<totfact> 0.26889406E-04</totfact>
</mgrwt>
<clustering>
<clus scale="   31.687">  1  6  2 -1</clus>
<clus scale="  475.060">  4  5 -1 -1</clus>
<clus scale="  300.000">  1  4  2 -1</clus>
</clustering>
</event>
<event>
 6    1  0.9964252E-012  0.3000000E+03  0.7818608E-02  0.1093470E+00
          1   -1    0    0  502    0  0.00000000000E+00  0.00000000000E+00  0.22809225026E+03  0.22809225026E+03  0.00000000000E+00 0.  1.
         13   -1    0    0    0    0 -0.00000000000E+00 -0.00000000000E+00 -0.27500000000E+03  0.27500000000E+03  0.00000000000E+00 0.  1.
    9000005    2    1    2  501    0  0.22830787331E+02  0.25777416628E+02 -0.68122319296E+02  0.46264749757E+03  0.45630728305E+03 0.  0.
         13    1    3    3    0    0  0.22430143068E+03 -0.32961877634E+02  0.34024420021E+02  0.22924938024E+03  0.00000000000E+00 0.  1.
          1    1    3    3  501    0 -0.20147064335E+03  0.58739294262E+02 -0.10214673932E+03  0.23339811733E+03  0.00000000000E+00 0.  1.
         21    1    1    2  502  501 -0.22830787331E+02 -0.25777416628E+02  0.21214569551E+02  0.40444752681E+02  0.00000000000E+00 0. -1.
<scales pt_clust_4="550.00000" pt_clust_5="550.00000" pt_clust_6="34.43429"></scales>
<mgrwt>
<rscale>  0 0.30000000E+03</rscale>
<asrwt>  1 0.34434286E+02</asrwt>
<pdfrwt beam="1">  1        1 0.82942636E+00 0.30000000E+03</pdfrwt>
<pdfrwt beam="2">0</pdfrwt>
<totfact> 0.59937702E-04</totfact>
</mgrwt>
<clustering>
<clus scale="   34.434">  1  6  2 -1</clus>
<clus scale="  456.307">  4  5 -1 -1</clus>
<clus scale="  300.000">  1  4  2 -1</clus>
</clustering>
</event>
<event>
 6    1  0.9964252E-012  0.3000000E+03  0.7818608E-02  0.1093470E+00
          1   -1    0    0  502    0  0.00000000000E+00  0.00000000000E+00  0.23211692487E+03  0.23211692487E+03  0.00000000000E+00 0.  1.
         13   -1    0    0    0    0 -0.00000000000E+00 -0.00000000000E+00 -0.27500000000E+03  0.27500000000E+03  0.00000000000E+00 0.  1.
    9000005    2    1    2  501    0  0.33697049119E+01 -0.43280471745E+02 -0.41269681564E+02  0.46367550242E+03  0.45979042049E+03 0.  0.
         13    1    3    3    0    0 -0.17763308993E+03 -0.13610177408E+03 -0.10948500391E+03  0.24912682237E+03  0.00000000000E+00 0.  1.
          1    1    3    3  501    0  0.18100279484E+03  0.92821302336E+02  0.68215322343E+02  0.21454868004E+03  0.00000000000E+00 0.  1.
         21    1    1    2  502  501 -0.33697049119E+01  0.43280471745E+02 -0.16133935704E+01  0.43441422450E+02  0.00000000000E+00 0. -1.
<scales pt_clust_4="550.00000" pt_clust_5="550.00000" pt_clust_6="43.41145"></scales>
<mgrwt>
<rscale>  0 0.30000000E+03</rscale>
<asrwt>  1 0.43411452E+02</asrwt>
<pdfrwt beam="1">  1        1 0.84406154E+00 0.30000000E+03</pdfrwt>
<pdfrwt beam="2">0</pdfrwt>
<totfact> 0.44253950E-04</totfact>
</mgrwt>
<clustering>
<clus scale="   43.411">  1  6  2 -1</clus>
<clus scale="  459.790">  4  5 -1 -1</clus>
<clus scale="  300.000">  1  4  2 -1</clus>
</clustering>
</event>
<event>
 6    1  0.9964252E-012  0.3000000E+03  0.7818608E-02  0.1093470E+00
          1   -1    0    0  502    0  0.00000000000E+00  0.00000000000E+00  0.23118336187E+03  0.23118336187E+03  0.00000000000E+00 0.  1.
         13   -1    0    0    0    0 -0.00000000000E+00 -0.00000000000E+00 -0.27500000000E+03  0.27500000000E+03  0.00000000000E+00 0.  1.
    9000005    2    1    2  501    0  0.17631146734E+02 -0.30778020488E+02 -0.39239478755E+02  0.47041893446E+03  0.46743565688E+03 0.  0.
         13    1    3    3    0    0  0.64085445903E+02  0.21050982768E+03 -0.45132876069E+02  0.22462926886E+03  0.00000000000E+00 0.  1.
          3    1    3    3  501    0 -0.46454299169E+02 -0.24128784817E+03  0.58933973138E+01  0.24578966560E+03  0.00000000000E+00 0.  1.
         21    1    1    2  502  501 -0.17631146734E+02  0.30778020488E+02 -0.45771593724E+01  0.35764427414E+02  0.00000000000E+00 0.  1.
<scales pt_clust_4="550.00000" pt_clust_5="550.00000" pt_clust_6="35.47034"></scales>
<mgrwt>
<rscale>  0 0.30000000E+03</rscale>
<asrwt>  1 0.35470342E+02</asrwt>
<pdfrwt beam="1">  1        1 0.84066677E+00 0.30000000E+03</pdfrwt>
<pdfrwt beam="2">0</pdfrwt>
<totfact> 0.48993639E-04</totfact>
</mgrwt>
<clustering>
<clus scale="   35.470">  1  6  2 -1</clus>
<clus scale="  467.436">  4  5 -1 -1</clus>
<clus scale="  300.000">  1  4  2 -1</clus>
</clustering>
</event>
<event>
 6    1  0.9964252E-012  0.3000000E+03  0.7818608E-02  0.1093470E+00
          1   -1    0    0  502    0  0.00000000000E+00  0.00000000000E+00  0.22050976437E+03  0.22050976437E+03  0.00000000000E+00 0.  1.
         13   -1    0    0    0    0 -0.00000000000E+00 -0.00000000000E+00 -0.27500000000E+03  0.27500000000E+03  0.00000000000E+00 0.  1.
    9000005    2    1    2  501    0  0.30505485254E+02  0.36236246745E+01 -0.62178194511E+02  0.46384243107E+03  0.45862834377E+03 0.  0.
         13    1    3    3    0    0 -0.10512072626E+03  0.19123880238E+02  0.16631433511E+03  0.19767788937E+03  0.00000000000E+00 0.  1.
          3    1    3    3  501    0  0.13562621151E+03 -0.15500255563E+02 -0.22849252962E+03  0.26616454171E+03  0.00000000000E+00 0.  1.
         21    1    1    2  502  501 -0.30505485254E+02 -0.36236246745E+01  0.76879588829E+01  0.31667333297E+02  0.00000000000E+00 0. -1.
<scales pt_clust_4="550.00000" pt_clust_5="550.00000" pt_clust_6="30.71995"></scales>
<mgrwt>
<rscale>  0 0.30000000E+03</rscale>
<asrwt>  1 0.30719949E+02</asrwt>
<pdfrwt beam="1">  1        1 0.80185369E+00 0.30000000E+03</pdfrwt>
<pdfrwt beam="2">0</pdfrwt>
<totfact> 0.10305714E-03</totfact>
</mgrwt>
<clustering>
<clus scale="   30.720">  1  6  2 -1</clus>
<clus scale="  458.628">  4  5 -1 -1</clus>
<clus scale="  300.000">  1  4  2 -1</clus>
</clustering>
</event>
<event>
 6    1  0.9964252E-012  0.3000000E+03  0.7818608E-02  0.1093470E+00
          1   -1    0    0  502    0  0.00000000000E+00  0.00000000000E+00  0.24879411848E+03  0.24879411848E+03  0.00000000000E+00 0.  1.
         13   -1    0    0    0    0 -0.00000000000E+00 -0.00000000000E+00 -0.27500000000E+03  0.27500000000E+03  0.00000000000E+00 0.  1.
    9000005    2    1    2  501    0  0.34977625854E+02 -0.18186825700E+02 -0.21509530156E+02  0.48409209516E+03  0.48200446239E+03 0.  0.
         13    1    3    3    0    0  0.54559896915E+02 -0.16140257136E+03  0.17230206122E+03  0.24231296435E+03  0.00000000000E+00 0.  1.
          1    1    3    3  501    0 -0.19582271061E+02  0.14321574566E+03 -0.19381159137E+03  0.24177913081E+03  0.00000000000E+00 0.  1.
         21    1    1    2  502  501 -0.34977625854E+02  0.18186825700E+02 -0.46963513682E+01  0.39702023318E+02  0.00000000000E+00 0. -1.
<scales pt_clust_4="550.00000" pt_clust_5="550.00000" pt_clust_6="39.42330"></scales>
<mgrwt>
<rscale>  0 0.30000000E+03</rscale>
<asrwt>  1 0.39423299E+02</asrwt>
<pdfrwt beam="1">  1        1 0.90470589E+00 0.30000000E+03</pdfrwt>
<pdfrwt beam="2">0</pdfrwt>
<totfact> 0.91603968E-05</totfact>
</mgrwt>
<clustering>
<clus scale="   39.423">  1  6  2 -1</clus>
<clus scale="  482.004">  4  5 -1 -1</clus>
<clus scale="  300.000">  1  4  2 -1</clus>
</clustering>
</event>
<event>
 6    1  0.9964252E-012  0.3000000E+03  0.7818608E-02  0.1093470E+00
          1   -1    0    0  502    0  0.00000000000E+00  0.00000000000E+00  0.23729373934E+03  0.23729373934E+03  0.00000000000E+00 0.  1.
         13   -1    0    0    0    0 -0.00000000000E+00 -0.00000000000E+00 -0.27500000000E+03  0.27500000000E+03  0.00000000000E+00 0.  1.
    9000005    2    1    2  501    0  0.37613906515E+02  0.31109088998E+02 -0.45582480313E+02  0.46285067898E+03  0.45800699464E+03 0.  0.
         13    1    3    3    0    0  0.13384480429E+02 -0.76597512046E+02  0.18857265352E+03  0.20397541230E+03  0.00000000000E+00 0.  1.
          3    1    3    3  501    0  0.24229426086E+02  0.10770660104E+03 -0.23415513383E+03  0.25887526668E+03  0.00000000000E+00 0.  1.
         21    1    1    2  502  501 -0.37613906515E+02 -0.31109088998E+02  0.78762196478E+01  0.49443060358E+02  0.00000000000E+00 0.  1.
<scales pt_clust_4="550.00000" pt_clust_5="550.00000" pt_clust_6="48.81169"></scales>
<mgrwt>
<rscale>  0 0.30000000E+03</rscale>
<asrwt>  1 0.48811693E+02</asrwt>
<pdfrwt beam="1">  1        1 0.86288632E+00 0.30000000E+03</pdfrwt>
<pdfrwt beam="2">0</pdfrwt>
<totfact> 0.28349022E-04</totfact>
</mgrwt>
<clustering>
<clus scale="   48.812">  1  6  2 -1</clus>
<clus scale="  458.007">  4  5 -1 -1</clus>
<clus scale="  300.000">  1  4  2 -1</clus>
</clustering>
</event>
<event>
 6    1  0.9964252E-012  0.3000000E+03  0.7818608E-02  0.1093470E+00
          1   -1    0    0  502    0  0.00000000000E+00  0.00000000000E+00  0.21904432646E+03  0.21904432646E+03  0.00000000000E+00 0.  1.
         13   -1    0    0    0    0 -0.00000000000E+00 -0.00000000000E+00 -0.27500000000E+03  0.27500000000E+03  0.00000000000E+00 0.  1.
    9000005    2    1    2  501    0 -0.48924344182E+00  0.30267888963E+02 -0.48334858975E+02  0.46282796415E+03  0.45930064374E+03 0.  0.
         13    1    3    3    0    0  0.20755224269E+03 -0.36340712154E+02  0.59873811124E+02  0.21905125899E+03  0.00000000000E+00 0.  1.
          1    1    3    3  501    0 -0.20804148613E+03  0.66608601117E+02 -0.10820867010E+03  0.24377670516E+03  0.00000000000E+00 0.  1.
         21    1    1    2  502  501  0.48924344182E+00 -0.30267888963E+02 -0.76208145638E+01  0.31216362313E+02  0.00000000000E+00 0.  1.
<scales pt_clust_4="550.00000" pt_clust_5="550.00000" pt_clust_6="30.27186"></scales>
<mgrwt>
<rscale>  0 0.30000000E+03</rscale>
<asrwt>  1 0.30271858E+02</asrwt>
<pdfrwt beam="1">  1        1 0.79652482E+00 0.30000000E+03</pdfrwt>
<pdfrwt beam="2">0</pdfrwt>
<totfact> 0.11298005E-03</totfact>
</mgrwt>
<clustering>
<clus scale="   30.272">  1  6  2 -1</clus>
<clus scale="  459.301">  4  5 -1 -1</clus>
<clus scale="  300.000">  1  4  2 -1</clus>
</clustering>
</event>
<event>
 6    1  0.9964252E-012  0.3000000E+03  0.7818608E-02  0.1093470E+00
          1   -1    0    0  502    0  0.00000000000E+00  0.00000000000E+00  0.22330852029E+03  0.22330852029E+03  0.00000000000E+00 0.  1.
         13   -1    0    0    0    0 -0.00000000000E+00 -0.00000000000E+00 -0.27500000000E+03  0.27500000000E+03  0.00000000000E+00 0.  1.
    9000005    2    1    2  501    0 -0.21187037999E+02  0.22945325617E+02 -0.57517956423E+02  0.46653862294E+03  0.46192487791E+03 0.  0.
         13    1    3    3    0    0  0.10280262161E+03  0.18444898476E+02  0.17453534754E+03  0.20339906792E+03  0.00000000000E+00 0.  1.
          1    1    3    3  501    0 -0.12398965961E+03  0.45004271408E+01 -0.23205330396E+03  0.26313955502E+03  0.00000000000E+00 0.  1.
         21    1    1    2  502  501  0.21187037999E+02 -0.22945325617E+02  0.58264767113E+01  0.31769897351E+02  0.00000000000E+00 0. -1.
<scales pt_clust_4="550.00000" pt_clust_5="550.00000" pt_clust_6="31.23105"></scales>
<mgrwt>
<rscale>  0 0.30000000E+03</rscale>
<asrwt>  1 0.31231051E+02</asrwt>
<pdfrwt beam="1">  1        1 0.81203098E+00 0.30000000E+03</pdfrwt>
<pdfrwt beam="2">0</pdfrwt>
<totfact> 0.85902402E-04</totfact>
</mgrwt>
<clustering>
<clus scale="   31.231">  1  6  2 -1</clus>
<clus scale="  461.925">  4  5 -1 -1</clus>
<clus scale="  300.000">  1  4  2 -1</clus>
</clustering>
</event>
<event>
 6    1  0.9964252E-012  0.3000000E+03  0.7818608E-02  0.1093470E+00
          1   -1    0    0  502    0  0.00000000000E+00  0.00000000000E+00  0.24719095145E+03  0.24719095145E+03  0.00000000000E+00 0.  1.
         13   -1    0    0    0    0 -0.00000000000E+00 -0.00000000000E+00 -0.27500000000E+03  0.27500000000E+03  0.00000000000E+00 0.  1.
    9000005    2    1    2  501    0  0.42235730658E+02 -0.14328642384E+02 -0.65260897445E+02  0.46395172135E+03  0.45716851168E+03 0.  0.
         13    1    3    3    0    0  0.12732330152E+02 -0.77304247771E+02 -0.25241515235E+03  0.26429428312E+03  0.00000000000E+00 0.  1.
          1    1    3    3  501    0  0.29503400505E+02  0.62975605387E+02  0.18715425490E+03  0.19965743823E+03  0.00000000000E+00 0.  1.
         21    1    1    2  502  501 -0.42235730658E+02  0.14328642384E+02  0.37451848892E+02  0.58239230096E+02  0.00000000000E+00 0.  1.
<scales pt_clust_4="550.00000" pt_clust_5="550.00000" pt_clust_6="44.60008"></scales>
<mgrwt>
<rscale>  0 0.30000000E+03</rscale>
<asrwt>  1 0.44600078E+02</asrwt>
<pdfrwt beam="1">  1        1 0.89887619E+00 0.30000000E+03</pdfrwt>
<pdfrwt beam="2">0</pdfrwt>
<totfact> 0.10903468E-04</totfact>
</mgrwt>
<clustering>
<clus scale="   44.600">  1  6  2 -1</clus>
<clus scale="  457.169">  4  5 -1 -1</clus>
<clus scale="  300.000">  1  4  2 -1</clus>
</clustering>
</event>
<event>
 6    1  0.9964252E-012  0.3000000E+03  0.7818608E-02  0.1093470E+00
          1   -1    0    0  502    0  0.00000000000E+00  0.00000000000E+00  0.23273331068E+03  0.23273331068E+03  0.00000000000E+00 0.  1.
         13   -1    0    0    0    0 -0.00000000000E+00 -0.00000000000E+00 -0.27500000000E+03  0.27500000000E+03  0.00000000000E+00 0.  1.
    9000005    2    1    2  501    0 -0.88097205990E+00  0.41761837679E+02 -0.42182423552E+02  0.46596209692E+03  0.46216500485E+03 0.  0.
         13    1    3    3    0    0  0.99341253865E+02 -0.11014716645E+03 -0.18320813805E+03  0.23572506198E+03  0.00000000000E+00 0.  1.
          1    1    3    3  501    0 -0.10022222592E+03  0.15190900413E+03  0.14102571450E+03  0.23023703494E+03  0.00000000000E+00 0.  1.
         21    1    1    2  502  501  0.88097205990E+00 -0.41761837679E+02 -0.84265769202E-01  0.41771213758E+02  0.00000000000E+00 0.  1.
<scales pt_clust_4="550.00000" pt_clust_5="550.00000" pt_clust_6="41.77113"></scales>
<mgrwt>
<rscale>  0 0.30000000E+03</rscale>
<asrwt>  1 0.41771129E+02</asrwt>
<pdfrwt beam="1">  1        1 0.84630295E+00 0.30000000E+03</pdfrwt>
<pdfrwt beam="2">0</pdfrwt>
<totfact> 0.42591953E-04</totfact>
</mgrwt>
<clustering>
<clus scale="   41.771">  1  6  2 -1</clus>
<clus scale="  462.165">  4  5 -1 -1</clus>
<clus scale="  300.000">  1  4  2 -1</clus>
</clustering>
</event>
<event>
 6    1  0.9964252E-012  0.3000000E+03  0.7818608E-02  0.1093470E+00
          1   -1    0    0  502    0  0.00000000000E+00  0.00000000000E+00  0.22802631964E+03  0.22802631964E+03  0.00000000000E+00 0.  1.
         13   -1    0    0    0    0 -0.00000000000E+00 -0.00000000000E+00 -0.27500000000E+03  0.27500000000E+03  0.00000000000E+00 0.  1.
    9000005    2    1    2  501    0  0.19642953656E+02  0.29131643211E+02 -0.54818621744E+02  0.46702574506E+03  0.46246455756E+03 0.  0.
         13    1    3    3    0    0 -0.20555055742E+03  0.43224308674E+02 -0.10656755462E+03  0.23553347153E+03  0.00000000000E+00 0.  1.
          1    1    3    3  501    0  0.22519351107E+03 -0.14092665463E+02  0.51748932878E+02  0.23149227353E+03  0.00000000000E+00 0.  1.
         21    1    1    2  502  501 -0.19642953656E+02 -0.29131643211E+02  0.78449413857E+01  0.36000574577E+02  0.00000000000E+00 0. -1.
<scales pt_clust_4="550.00000" pt_clust_5="550.00000" pt_clust_6="35.13543"></scales>
<mgrwt>
<rscale>  0 0.30000000E+03</rscale>
<asrwt>  1 0.35135427E+02</asrwt>
<pdfrwt beam="1">  1        1 0.82918662E+00 0.30000000E+03</pdfrwt>
<pdfrwt beam="2">0</pdfrwt>
<totfact> 0.59990306E-04</totfact>
</mgrwt>
<clustering>
<clus scale="   35.135">  1  6  2 -1</clus>
<clus scale="  462.465">  4  5 -1 -1</clus>
<clus scale="  300.000">  1  4  2 -1</clus>
</clustering>
</event>
<event>
 6    1  0.9964252E-012  0.3000000E+03  0.7818608E-02  0.1093470E+00
          1   -1    0    0  502    0  0.00000000000E+00  0.00000000000E+00  0.23874935581E+03  0.23874935581E+03  0.00000000000E+00 0.  1.
         13   -1    0    0    0    0 -0.00000000000E+00 -0.00000000000E+00 -0.27500000000E+03  0.27500000000E+03  0.00000000000E+00 0.  1.
    9000005    2    1    2  501    0  0.91939853946E+01  0.32130780145E+02 -0.29394736029E+02  0.47963308584E+03  0.47756353517E+03 0.  0.
         13    1    3    3    0    0  0.16823282716E+03 -0.12797459666E+03  0.83535012646E+02  0.22728369907E+03  0.00000000000E+00 0.  1.
          1    1    3    3  501    0 -0.15903884177E+03  0.16010537680E+03 -0.11292974867E+03  0.25234938678E+03  0.00000000000E+00 0.  1.
         21    1    1    2  502  501 -0.91939853946E+01 -0.32130780145E+02 -0.68559081572E+01  0.34116269972E+02  0.00000000000E+00 0. -1.
<scales pt_clust_4="550.00000" pt_clust_5="550.00000" pt_clust_6="33.42032"></scales>
<mgrwt>
<rscale>  0 0.30000000E+03</rscale>
<asrwt>  1 0.33420316E+02</asrwt>
<pdfrwt beam="1">  1        1 0.86817948E+00 0.30000000E+03</pdfrwt>
<pdfrwt beam="2">0</pdfrwt>
<totfact> 0.26671554E-04</totfact>
</mgrwt>
<clustering>
<clus scale="   33.420">  1  6  2 -1</clus>
<clus scale="  477.564">  4  5 -1 -1</clus>
<clus scale="  300.000">  1  4  2 -1</clus>
</clustering>
</event>
<event>
 6    1  0.9964252E-012  0.3000000E+03  0.7818608E-02  0.1093470E+00
          1   -1    0    0  502    0  0.00000000000E+00  0.00000000000E+00  0.23185631382E+03  0.23185631382E+03  0.00000000000E+00 0.  1.
         13   -1    0    0    0    0 -0.00000000000E+00 -0.00000000000E+00 -0.27500000000E+03  0.27500000000E+03  0.00000000000E+00 0.  1.
    9000005    2    1    2  501    0  0.92344005282E+01  0.39315874050E+02 -0.46588054590E+02  0.46632390975E+03  0.46222995346E+03 0.  0.
         13    1    3    3    0    0 -0.11829990772E+03 -0.62618356159E+02  0.15637948111E+03  0.20584088225E+03  0.00000000000E+00 0.  1.
          3    1    3    3  501    0  0.12753430825E+03  0.10193423021E+03 -0.20296753570E+03  0.26048302750E+03  0.00000000000E+00 0.  1.
         21    1    1    2  502  501 -0.92344005282E+01 -0.39315874050E+02  0.34443684078E+01  0.40532404064E+02  0.00000000000E+00 0.  1.
<scales pt_clust_4="550.00000" pt_clust_5="550.00000" pt_clust_6="40.38579"></scales>
<mgrwt>
<rscale>  0 0.30000000E+03</rscale>
<asrwt>  1 0.40385791E+02</asrwt>
<pdfrwt beam="1">  1        1 0.84311387E+00 0.30000000E+03</pdfrwt>
<pdfrwt beam="2">0</pdfrwt>
<totfact> 0.45677735E-04</totfact>
</mgrwt>
<clustering>
<clus scale="   40.386">  1  6  2 -1</clus>
<clus scale="  462.230">  4  5 -1 -1</clus>
<clus scale="  300.000">  1  4  2 -1</clus>
</clustering>
</event>
<event>
 6    1  0.9964252E-012  0.3000000E+03  0.7818608E-02  0.1093470E+00
          1   -1    0    0  502    0  0.00000000000E+00  0.00000000000E+00  0.23685494011E+03  0.23685494011E+03  0.00000000000E+00 0.  1.
         13   -1    0    0    0    0 -0.00000000000E+00 -0.00000000000E+00 -0.27500000000E+03  0.27500000000E+03  0.00000000000E+00 0.  1.
    9000005    2    1    2  501    0  0.30581065982E+02  0.29040444099E+02 -0.60986807113E+02  0.46389355558E+03  0.45792935184E+03 0.  0.
         13    1    3    3    0    0  0.14410498080E+03  0.29195355342E+02 -0.22236819151E+03  0.26658249541E+03  0.00000000000E+00 0.  1.
          1    1    3    3  501    0 -0.11352391482E+03 -0.15491124386E+00  0.16138138440E+03  0.19731106016E+03  0.00000000000E+00 0.  1.
         21    1    1    2  502  501 -0.30581065982E+02 -0.29040444099E+02  0.22841747219E+02  0.47961384530E+02  0.00000000000E+00 0.  1.
<scales pt_clust_4="550.00000" pt_clust_5="550.00000" pt_clust_6="42.17285"></scales>
<mgrwt>
<rscale>  0 0.30000000E+03</rscale>
<asrwt>  1 0.42172847E+02</asrwt>
<pdfrwt beam="1">  1        1 0.86129069E+00 0.30000000E+03</pdfrwt>
<pdfrwt beam="2">0</pdfrwt>
<totfact> 0.30276186E-04</totfact>
</mgrwt>
<clustering>
<clus scale="   42.173">  1  6  2 -1</clus>
<clus scale="  457.929">  4  5 -1 -1</clus>
<clus scale="  300.000">  1  4  2 -1</clus>
</clustering>
</event>
<event>
 6    1  0.9964252E-012  0.3000000E+03  0.7818608E-02  0.1093470E+00
          1   -1    0    0  502    0  0.00000000000E+00  0.00000000000E+00  0.24581984768E+03  0.24581984768E+03  0.00000000000E+00 0.  1.
         13   -1    0    0    0    0 -0.00000000000E+00 -0.00000000000E+00 -0.27500000000E+03  0.27500000000E+03  0.00000000000E+00 0.  1.
    9000005    2    1    2  501    0  0.50873963146E+01 -0.37067376222E+02 -0.40385322395E+02  0.48176312204E+03  0.47860720796E+03 0.  0.
         13    1    3    3    0    0  0.17778432995E+03 -0.87057453417E+02  0.12775767983E+03  0.23560197989E+03  0.00000000000E+00 0.  1.
          1    1    3    3  501    0 -0.17269693364E+03  0.49990077195E+02 -0.16814300223E+03  0.24616114215E+03  0.00000000000E+00 0.  1.
         21    1    1    2  502  501 -0.50873963146E+01  0.37067376222E+02  0.11205170072E+02  0.39056725639E+02  0.00000000000E+00 0. -1.
<scales pt_clust_4="550.00000" pt_clust_5="550.00000" pt_clust_6="37.41486"></scales>
<mgrwt>
<rscale>  0 0.30000000E+03</rscale>
<asrwt>  1 0.37414863E+02</asrwt>
<pdfrwt beam="1">  1        1 0.89389036E+00 0.30000000E+03</pdfrwt>
<pdfrwt beam="2">0</pdfrwt>
<totfact> 0.12819597E-04</totfact>
</mgrwt>
<clustering>
<clus scale="   37.415">  1  6  2 -1</clus>
<clus scale="  478.607">  4  5 -1 -1</clus>
<clus scale="  300.000">  1  4  2 -1</clus>
</clustering>
</event>
<event>
 6    1  0.9964252E-012  0.3000000E+03  0.7818608E-02  0.1093470E+00
          1   -1    0    0  502    0  0.00000000000E+00  0.00000000000E+00  0.23953204653E+03  0.23953204653E+03  0.00000000000E+00 0.  1.
         13   -1    0    0    0    0 -0.00000000000E+00 -0.00000000000E+00 -0.27500000000E+03  0.27500000000E+03  0.00000000000E+00 0.  1.
    9000005    2    1    2  501    0  0.33357446157E+02  0.25427363152E+00 -0.61820465217E+02  0.47202041583E+03  0.46676409371E+03 0.  0.
         13    1    3    3    0    0 -0.16721446692E+03 -0.10859831505E+03  0.66535925538E+02  0.21019348554E+03  0.00000000000E+00 0.  1.
          3    1    3    3  501    0  0.20057191307E+03  0.10885258868E+03 -0.12835639076E+03  0.26182693029E+03  0.00000000000E+00 0.  1.
         21    1    1    2  502  501 -0.33357446157E+02 -0.25427363152E+00  0.26352511743E+02  0.42511630695E+02  0.00000000000E+00 0. -1.
<scales pt_clust_4="550.00000" pt_clust_5="550.00000" pt_clust_6="33.35842"></scales>
<mgrwt>
<rscale>  0 0.30000000E+03</rscale>
<asrwt>  1 0.33358415E+02</asrwt>
<pdfrwt beam="1">  1        1 0.87102562E+00 0.30000000E+03</pdfrwt>
<pdfrwt beam="2">0</pdfrwt>
<totfact> 0.24945759E-04</totfact>
</mgrwt>
<clustering>
<clus scale="   33.358">  1  6  2 -1</clus>
<clus scale="  466.764">  4  5 -1 -1</clus>
<clus scale="  300.000">  1  4  2 -1</clus>
</clustering>
</event>
<event>
 6    1  0.9964252E-012  0.3000000E+03  0.7818608E-02  0.1093470E+00
          1   -1    0    0  502    0  0.00000000000E+00  0.00000000000E+00  0.22890555055E+03  0.22890555055E+03  0.00000000000E+00 0.  1.
         13   -1    0    0    0    0 -0.00000000000E+00 -0.00000000000E+00 -0.27500000000E+03  0.27500000000E+03  0.00000000000E+00 0.  1.
    9000005    2    1    2  501    0  0.26393948437E+02  0.32349065719E+02 -0.30070859393E+02  0.45918577858E+03  0.45629400621E+03 0.  0.
         13    1    3    3    0    0  0.17086468806E+02 -0.18949862810E+03  0.85811165250E+02  0.20872286303E+03  0.00000000000E+00 0.  1.
          1    1    3    3  501    0  0.93074796309E+01  0.22184769382E+03 -0.11588202464E+03  0.25046291555E+03  0.00000000000E+00 0.  1.
         21    1    1    2  502  501 -0.26393948437E+02 -0.32349065719E+02 -0.16023590053E+02  0.44719771971E+02  0.00000000000E+00 0.  1.
<scales pt_clust_4="550.00000" pt_clust_5="550.00000" pt_clust_6="41.75050"></scales>
<mgrwt>
<rscale>  0 0.30000000E+03</rscale>
<asrwt>  1 0.41750501E+02</asrwt>
<pdfrwt beam="1">  1        1 0.83238382E+00 0.30000000E+03</pdfrwt>
<pdfrwt beam="2">0</pdfrwt>
<totfact> 0.54775489E-04</totfact>
</mgrwt>
<clustering>
<clus scale="   41.751">  1  6  2 -1</clus>
<clus scale="  456.294">  4  5 -1 -1</clus>
<clus scale="  300.000">  1  4  2 -1</clus>
</clustering>
</event>
<event>
 6    1  0.9964252E-012  0.3000000E+03  0.7818608E-02  0.1093470E+00
          1   -1    0    0  502    0  0.00000000000E+00  0.00000000000E+00  0.24974129711E+03  0.24974129711E+03  0.00000000000E+00 0.  1.
         13   -1    0    0    0    0 -0.00000000000E+00 -0.00000000000E+00 -0.27500000000E+03  0.27500000000E+03  0.00000000000E+00 0.  1.
    9000005    2    1    2  501    0 -0.21097855839E+02  0.31680233994E+02 -0.61074549603E+02  0.47247724041E+03  0.46696454400E+03 0.  0.
         13    1    3    3    0    0  0.20368078690E+03  0.14806051738E+02 -0.12340353719E+03  0.23860744982E+03  0.00000000000E+00 0.  1.
          3    1    3    3  501    0 -0.22477864274E+03  0.16874182256E+02  0.62328987586E+02  0.23386979059E+03  0.00000000000E+00 0.  1.
         21    1    1    2  502  501  0.21097855839E+02 -0.31680233994E+02  0.35815846710E+02  0.52264056697E+02  0.00000000000E+00 0.  1.
<scales pt_clust_4="550.00000" pt_clust_5="550.00000" pt_clust_6="38.06254"></scales>
<mgrwt>
<rscale>  0 0.30000000E+03</rscale>
<asrwt>  1 0.38062537E+02</asrwt>
<pdfrwt beam="1">  1        1 0.90815017E+00 0.30000000E+03</pdfrwt>
<pdfrwt beam="2">0</pdfrwt>
<totfact> 0.78222738E-05</totfact>
</mgrwt>
<clustering>
<clus scale="   38.063">  1  6  2 -1</clus>
<clus scale="  466.965">  4  5 -1 -1</clus>
<clus scale="  300.000">  1  4  2 -1</clus>
</clustering>
</event>
<event>
 6    1  0.9964252E-012  0.3000000E+03  0.7818608E-02  0.1093470E+00
          1   -1    0    0  502    0  0.00000000000E+00  0.00000000000E+00  0.24194208961E+03  0.24194208961E+03  0.00000000000E+00 0.  1.
         13   -1    0    0    0    0 -0.00000000000E+00 -0.00000000000E+00 -0.27500000000E+03  0.27500000000E+03  0.00000000000E+00 0.  1.
    9000005    2    1    2  501    0 -0.26063593445E+02 -0.22921686654E+02 -0.33170675040E+02  0.48223290728E+03  0.47983702291E+03 0.  0.
         13    1    3    3    0    0  0.84738186894E+02 -0.73781583896E+02  0.19412970855E+03  0.22430030357E+03  0.00000000000E+00 0.  1.
          3    1    3    3  501    0 -0.11080178034E+03  0.50859897241E+02 -0.22730038359E+03  0.25793260371E+03  0.00000000000E+00 0.  1.
         21    1    1    2  502  501  0.26063593445E+02  0.22921686654E+02  0.11276465355E+00  0.34709182333E+02  0.00000000000E+00 0.  1.
<scales pt_clust_4="550.00000" pt_clust_5="550.00000" pt_clust_6="34.70900"></scales>
<mgrwt>
<rscale>  0 0.30000000E+03</rscale>
<asrwt>  1 0.34708999E+02</asrwt>
<pdfrwt beam="1">  1        1 0.87978942E+00 0.30000000E+03</pdfrwt>
<pdfrwt beam="2">0</pdfrwt>
<totfact> 0.19886663E-04</totfact>
</mgrwt>
<clustering>
<clus scale="   34.709">  1  6  2 -1</clus>
<clus scale="  479.837">  4  5 -1 -1</clus>
<clus scale="  300.000">  1  4  2 -1</clus>
</clustering>
</event>
<event>
 6    1  0.9964252E-012  0.3000000E+03  0.7818608E-02  0.1093470E+00
          1   -1    0    0  502    0  0.00000000000E+00  0.00000000000E+00  0.23423960314E+03  0.23423960314E+03  0.00000000000E+00 0.  1.
         13   -1    0    0    0    0 -0.00000000000E+00 -0.00000000000E+00 -0.27500000000E+03  0.27500000000E+03  0.00000000000E+00 0.  1.
    9000005    2    1    2  501    0  0.20914673012E+02  0.23417529264E+02 -0.59866545441E+02  0.47248570352E+03  0.46762477751E+03 0.  0.
         13    1    3    3    0    0 -0.12166259100E+03  0.41817272109E+02  0.16276827757E+03  0.20747043760E+03  0.00000000000E+00 0.  1.
          3    1    3    3  501    0  0.14257726401E+03 -0.18399742846E+02 -0.22263482301E+03  0.26501526591E+03  0.00000000000E+00 0.  1.
         21    1    1    2  502  501 -0.20914673012E+02 -0.23417529264E+02  0.19106148580E+02  0.36753899624E+02  0.00000000000E+00 0. -1.
<scales pt_clust_4="550.00000" pt_clust_5="550.00000" pt_clust_6="31.39752"></scales>
<mgrwt>
<rscale>  0 0.30000000E+03</rscale>
<asrwt>  1 0.31397519E+02</asrwt>
<pdfrwt beam="1">  1        1 0.85178038E+00 0.30000000E+03</pdfrwt>
<pdfrwt beam="2">0</pdfrwt>
<totfact> 0.39960314E-04</totfact>
</mgrwt>
<clustering>
<clus scale="   31.398">  1  6  2 -1</clus>
<clus scale="  467.625">  4  5 -1 -1</clus>
<clus scale="  300.000">  1  4  2 -1</clus>
</clustering>
</event>
<event>
 6    1  0.9964252E-012  0.3000000E+03  0.7818608E-02  0.1093470E+00
          1   -1    0    0  502    0  0.00000000000E+00  0.00000000000E+00  0.23714654151E+03  0.23714654151E+03  0.00000000000E+00 0.  1.
         13   -1    0    0    0    0 -0.00000000000E+00 -0.00000000000E+00 -0.27500000000E+03  0.27500000000E+03  0.00000000000E+00 0.  1.
    9000005    2    1    2  501    0 -0.33998928698E+02  0.54946960076E+01 -0.31754725193E+02  0.47717064431E+03  0.47486560455E+03 0.  0.
         13    1    3    3    0    0  0.21656347051E+03  0.45298114512E+02  0.17968133305E+01  0.22125750717E+03  0.00000000000E+00 0.  1.
          1    1    3    3  501    0 -0.25056239921E+03 -0.39803418505E+02 -0.33551538524E+02  0.25591313714E+03  0.00000000000E+00 0.  1.
         21    1    1    2  502  501  0.33998928698E+02 -0.54946960076E+01 -0.60987333017E+01  0.34975897197E+02  0.00000000000E+00 0.  1.
<scales pt_clust_4="550.00000" pt_clust_5="550.00000" pt_clust_6="34.44009"></scales>
<mgrwt>
<rscale>  0 0.30000000E+03</rscale>
<asrwt>  1 0.34440093E+02</asrwt>
<pdfrwt beam="1">  1        1 0.86235106E+00 0.30000000E+03</pdfrwt>
<pdfrwt beam="2">0</pdfrwt>
<totfact> 0.30609317E-04</totfact>
</mgrwt>
<clustering>
<clus scale="   34.440">  1  6  2 -1</clus>
<clus scale="  474.866">  4  5 -1 -1</clus>
<clus scale="  300.000">  1  4  2 -1</clus>
</clustering>
</event>
<event>
 6    1  0.9964252E-012  0.3000000E+03  0.7818608E-02  0.1093470E+00
          1   -1    0    0  502    0  0.00000000000E+00  0.00000000000E+00  0.25317226366E+03  0.25317226366E+03  0.00000000000E+00 0.  1.
         13   -1    0    0    0    0 -0.00000000000E+00 -0.00000000000E+00 -0.27500000000E+03  0.27500000000E+03  0.00000000000E+00 0.  1.
    9000005    2    1    2  501    0 -0.28723848923E+02  0.38238925994E+02 -0.54207129817E+02  0.47041674375E+03  0.46482924275E+03 0.  0.
         13    1    3    3    0    0 -0.20934236522E+03  0.39962345729E+02 -0.15504124102E+03  0.26355075673E+03  0.00000000000E+00 0.  1.
          3    1    3    3  501    0  0.18061851630E+03 -0.17234197346E+01  0.10083411121E+03  0.20686598703E+03  0.00000000000E+00 0.  1.
         21    1    1    2  502  501  0.28723848923E+02 -0.38238925994E+02  0.32379393479E+02  0.57755519911E+02  0.00000000000E+00 0.  1.
<scales pt_clust_4="550.00000" pt_clust_5="550.00000" pt_clust_6="47.82546"></scales>
<mgrwt>
<rscale>  0 0.30000000E+03</rscale>
<asrwt>  1 0.47825463E+02</asrwt>
<pdfrwt beam="1">  1        1 0.92062641E+00 0.30000000E+03</pdfrwt>
<pdfrwt beam="2">0</pdfrwt>
<totfact> 0.38281574E-05</totfact>
</mgrwt>
<clustering>
<clus scale="   47.825">  1  6  2 -1</clus>
<clus scale="  464.829">  4  5 -1 -1</clus>
<clus scale="  300.000">  1  4  2 -1</clus>
</clustering>
</event>
<event>
 6    1  0.9964252E-012  0.3000000E+03  0.7818608E-02  0.1093470E+00
          1   -1    0    0  502    0  0.00000000000E+00  0.00000000000E+00  0.24353161974E+03  0.24353161974E+03  0.00000000000E+00 0.  1.
         13   -1    0    0    0    0 -0.00000000000E+00 -0.00000000000E+00 -0.27500000000E+03  0.27500000000E+03  0.00000000000E+00 0.  1.
    9000005    2    1    2  501    0  0.16369618349E+01  0.31435643490E+02 -0.61999762954E+02  0.47467908669E+03  0.46955871349E+03 0.  0.
         13    1    3    3    0    0 -0.84590890225E+02 -0.22845936287E+02 -0.24776670624E+03  0.26280391214E+03  0.00000000000E+00 0.  1.
          3    1    3    3  501    0  0.86227852060E+02  0.54281579777E+02  0.18576694329E+03  0.21187517455E+03  0.00000000000E+00 0.  1.
         21    1    1    2  502  501 -0.16369618349E+01 -0.31435643490E+02  0.30531382698E+02  0.43852533053E+02  0.00000000000E+00 0.  1.
<scales pt_clust_4="550.00000" pt_clust_5="550.00000" pt_clust_6="31.47824"></scales>
<mgrwt>
<rscale>  0 0.30000000E+03</rscale>
<asrwt>  1 0.31478236E+02</asrwt>
<pdfrwt beam="1">  1        1 0.88556953E+00 0.30000000E+03</pdfrwt>
<pdfrwt beam="2">0</pdfrwt>
<totfact> 0.17005159E-04</totfact>
</mgrwt>
<clustering>
<clus scale="   31.478">  1  6  2 -1</clus>
<clus scale="  469.559">  4  5 -1 -1</clus>
<clus scale="  300.000">  1  4  2 -1</clus>
</clustering>
</event>
<event>
 6    1  0.9964252E-012  0.3000000E+03  0.7818608E-02  0.1093470E+00
          1   -1    0    0  502    0  0.00000000000E+00  0.00000000000E+00  0.24597531493E+03  0.24597531493E+03  0.00000000000E+00 0.  1.
         13   -1    0    0    0    0 -0.00000000000E+00 -0.00000000000E+00 -0.27500000000E+03  0.27500000000E+03  0.00000000000E+00 0.  1.
    9000005    2    1    2  501    0  0.77314870852E+01 -0.32558219941E+02 -0.23519370847E+02  0.48706186534E+03  0.48534141208E+03 0.  0.
         13    1    3    3    0    0  0.17667393641E+03  0.83847709551E+02  0.12649345807E+03  0.23290494443E+03  0.00000000000E+00 0.  1.
          1    1    3    3  501    0 -0.16894244933E+03 -0.11640592949E+03 -0.15001282892E+03  0.25415692091E+03  0.00000000000E+00 0.  1.
         21    1    1    2  502  501 -0.77314870852E+01  0.32558219941E+02 -0.55053142253E+01  0.33913449589E+02  0.00000000000E+00 0.  1.
<scales pt_clust_4="550.00000" pt_clust_5="550.00000" pt_clust_6="33.46363"></scales>
<mgrwt>
<rscale>  0 0.30000000E+03</rscale>
<asrwt>  1 0.33463632E+02</asrwt>
<pdfrwt beam="1">  1        1 0.89445569E+00 0.30000000E+03</pdfrwt>
<pdfrwt beam="2">0</pdfrwt>
<totfact> 0.12896813E-04</totfact>
</mgrwt>
<clustering>
<clus scale="   33.464">  1  6  2 -1</clus>
<clus scale="  485.341">  4  5 -1 -1</clus>
<clus scale="  300.000">  1  4  2 -1</clus>
</clustering>
</event>
<event>
 6    1  0.9964252E-012  0.3000000E+03  0.7818608E-02  0.1093470E+00
          1   -1    0    0  502    0  0.00000000000E+00  0.00000000000E+00  0.22280404819E+03  0.22280404819E+03  0.00000000000E+00 0.  1.
         13   -1    0    0    0    0 -0.00000000000E+00 -0.00000000000E+00 -0.27500000000E+03  0.27500000000E+03  0.00000000000E+00 0.  1.
    9000005    2    1    2  501    0  0.80210628103E+01  0.32133821914E+02 -0.57141820088E+02  0.46431701230E+03  0.45959567051E+03 0.  0.
         13    1    3    3    0    0 -0.34286981894E+02 -0.21046446091E+03 -0.43834961945E+02  0.21769793366E+03  0.00000000000E+00 0.  1.
          1    1    3    3  501    0  0.42308044704E+02  0.24259828282E+03 -0.13306858143E+02  0.24661907864E+03  0.00000000000E+00 0.  1.
         21    1    1    2  502  501 -0.80210628103E+01 -0.32133821914E+02  0.49458682790E+01  0.33487035886E+02  0.00000000000E+00 0. -1.
<scales pt_clust_4="550.00000" pt_clust_5="550.00000" pt_clust_6="33.11978"></scales>
<mgrwt>
<rscale>  0 0.30000000E+03</rscale>
<asrwt>  1 0.33119782E+02</asrwt>
<pdfrwt beam="1">  1        1 0.81019654E+00 0.30000000E+03</pdfrwt>
<pdfrwt beam="2">0</pdfrwt>
<totfact> 0.87814007E-04</totfact>
</mgrwt>
<clustering>
<clus scale="   33.120">  1  6  2 -1</clus>
<clus scale="  459.596">  4  5 -1 -1</clus>
<clus scale="  300.000">  1  4  2 -1</clus>
</clustering>
</event>
<event>
 6    1  0.9964252E-012  0.3000000E+03  0.7818608E-02  0.1093470E+00
          1   -1    0    0  502    0  0.00000000000E+00  0.00000000000E+00  0.25750650770E+03  0.25750650770E+03  0.00000000000E+00 0.  1.
         13   -1    0    0    0    0 -0.00000000000E+00 -0.00000000000E+00 -0.27500000000E+03  0.27500000000E+03  0.00000000000E+00 0.  1.
    9000005    2    1    2  501    0  0.38539200723E+00 -0.36633400064E+02 -0.27219933186E+02  0.49460191458E+03  0.49249159852E+03 0.  0.
         13    1    3    3    0    0  0.95345535874E+02 -0.19098093529E+03 -0.16265269443E+03  0.26836614515E+03  0.00000000000E+00 0.  1.
          1    1    3    3  501    0 -0.94960143867E+02  0.15434753523E+03  0.13543276124E+03  0.22623576943E+03  0.00000000000E+00 0.  1.
         21    1    1    2  502  501 -0.38539200723E+00  0.36633400064E+02  0.97264408851E+01  0.37904593120E+02  0.00000000000E+00 0.  1.
<scales pt_clust_4="550.00000" pt_clust_5="550.00000" pt_clust_6="36.63543"></scales>
<mgrwt>
<rscale>  0 0.30000000E+03</rscale>
<asrwt>  1 0.36635427E+02</asrwt>
<pdfrwt beam="1">  1        1 0.93638730E+00 0.30000000E+03</pdfrwt>
<pdfrwt beam="2">0</pdfrwt>
<totfact> 0.21472060E-05</totfact>
</mgrwt>
<clustering>
<clus scale="   36.635">  1  6  2 -1</clus>
<clus scale="  492.492">  4  5 -1 -1</clus>
<clus scale="  300.000">  1  4  2 -1</clus>
</clustering>
</event>
<event>
 6    1  0.9964252E-012  0.3000000E+03  0.7818608E-02  0.1093470E+00
          1   -1    0    0  502    0  0.00000000000E+00  0.00000000000E+00  0.22887354870E+03  0.22887354870E+03  0.00000000000E+00 0.  1.
         13   -1    0    0    0    0 -0.00000000000E+00 -0.00000000000E+00 -0.27500000000E+03  0.27500000000E+03  0.00000000000E+00 0.  1.
    9000005    2    1    2  501    0  0.29819508804E+02  0.11810773766E+02 -0.57452056628E+02  0.46985933375E+03  0.46522935980E+03 0.  0.
         13    1    3    3    0    0  0.22160153724E+03 -0.10123346621E+03 -0.34490042717E+02  0.24605897471E+03  0.00000000000E+00 0.  1.
          1    1    3    3  501    0 -0.19178202844E+03  0.11304423998E+03 -0.22962013911E+02  0.22380035904E+03  0.00000000000E+00 0.  1.
         21    1    1    2  502  501 -0.29819508804E+02 -0.11810773766E+02  0.11325605325E+02  0.34014214944E+02  0.00000000000E+00 0.  1.
<scales pt_clust_4="550.00000" pt_clust_5="550.00000" pt_clust_6="32.07331"></scales>
<mgrwt>
<rscale>  0 0.30000000E+03</rscale>
<asrwt>  1 0.32073314E+02</asrwt>
<pdfrwt beam="1">  1        1 0.83226745E+00 0.30000000E+03</pdfrwt>
<pdfrwt beam="2">0</pdfrwt>
<totfact> 0.57639979E-04</totfact>
</mgrwt>
<clustering>
<clus scale="   32.073">  1  6  2 -1</clus>
<clus scale="  465.229">  4  5 -1 -1</clus>
<clus scale="  300.000">  1  4  2 -1</clus>
</clustering>
</event>
<event>
 6    1  0.9964252E-012  0.3000000E+03  0.7818608E-02  0.1093470E+00
          1   -1    0    0  502    0  0.00000000000E+00  0.00000000000E+00  0.22628605607E+03  0.22628605607E+03  0.00000000000E+00 0.  1.
         13   -1    0    0    0    0 -0.00000000000E+00 -0.00000000000E+00 -0.27500000000E+03  0.27500000000E+03  0.00000000000E+00 0.  1.
    9000005    2    1    2  501    0 -0.15745625221E+02  0.26044304512E+02 -0.64576648883E+02  0.46696615048E+03  0.46147698925E+03 0.  0.
         13    1    3    3    0    0  0.72744104974E+02  0.19302873623E+02  0.18626122123E+03  0.20089188205E+03  0.00000000000E+00 0.  1.
          3    1    3    3  501    0 -0.88489730195E+02  0.67414308883E+01 -0.25083787011E+03  0.26607426843E+03  0.00000000000E+00 0.  1.
         21    1    1    2  502  501  0.15745625221E+02 -0.26044304512E+02  0.15862704949E+02  0.34319905586E+02  0.00000000000E+00 0. -1.
<scales pt_clust_4="550.00000" pt_clust_5="550.00000" pt_clust_6="30.43404"></scales>
<mgrwt>
<rscale>  0 0.30000000E+03</rscale>
<asrwt>  1 0.30434035E+02</asrwt>
<pdfrwt beam="1">  1        1 0.82285839E+00 0.30000000E+03</pdfrwt>
<pdfrwt beam="2">0</pdfrwt>
<totfact> 0.70090110E-04</totfact>
</mgrwt>
<clustering>
<clus scale="   30.434">  1  6  2 -1</clus>
<clus scale="  461.477">  4  5 -1 -1</clus>
<clus scale="  300.000">  1  4  2 -1</clus>
</clustering>
</event>
<event>
 6    1  0.9964252E-012  0.3000000E+03  0.7818608E-02  0.1093470E+00
          1   -1    0    0  502    0  0.00000000000E+00  0.00000000000E+00  0.22989579325E+03  0.22989579325E+03  0.00000000000E+00 0.  1.
         13   -1    0    0    0    0 -0.00000000000E+00 -0.00000000000E+00 -0.27500000000E+03  0.27500000000E+03  0.00000000000E+00 0.  1.
    9000005    2    1    2  501    0 -0.29676744626E+02 -0.11813842596E+02 -0.71992731177E+02  0.46314332273E+03  0.45639731375E+03 0.  0.
         13    1    3    3    0    0  0.10382154188E+03 -0.18436791274E+03  0.43913131637E+02  0.21609905816E+03  0.00000000000E+00 0.  1.
          3    1    3    3  501    0 -0.13349828650E+03  0.17255407015E+03 -0.11590586281E+03  0.24704426457E+03  0.00000000000E+00 0.  1.
         21    1    1    2  502  501  0.29676744626E+02  0.11813842596E+02  0.26888524426E+02  0.41752470518E+02  0.00000000000E+00 0.  1.
<scales pt_clust_4="550.00000" pt_clust_5="550.00000" pt_clust_6="31.94176"></scales>
<mgrwt>
<rscale>  0 0.30000000E+03</rscale>
<asrwt>  1 0.31941760E+02</asrwt>
<pdfrwt beam="1">  1        1 0.83598470E+00 0.30000000E+03</pdfrwt>
<pdfrwt beam="2">0</pdfrwt>
<totfact> 0.54139859E-04</totfact>
</mgrwt>
<clustering>
<clus scale="   31.942">  1  6  2 -1</clus>
<clus scale="  456.397">  4  5 -1 -1</clus>
<clus scale="  300.000">  1  4  2 -1</clus>
</clustering>
</event>
<event>
 6    1  0.9964252E-012  0.3000000E+03  0.7818608E-02  0.1093470E+00
          1   -1    0    0  502    0  0.00000000000E+00  0.00000000000E+00  0.24180687671E+03  0.24180687671E+03  0.00000000000E+00 0.  1.
         13   -1    0    0    0    0 -0.00000000000E+00 -0.00000000000E+00 -0.27500000000E+03  0.27500000000E+03  0.00000000000E+00 0.  1.
    9000005    2    1    2  501    0 -0.35990920008E+02  0.26090738059E+02 -0.63441903764E+02  0.46303828313E+03  0.45651232574E+03 0.  0.
         13    1    3    3    0    0 -0.82658060861E+02 -0.78320216606E+02 -0.23252481949E+03  0.25890964261E+03  0.00000000000E+00 0.  1.
          3    1    3    3  501    0  0.46667140852E+02  0.10441095467E+03  0.16908291573E+03  0.20412864052E+03  0.00000000000E+00 0.  1.
         21    1    1    2  502  501  0.35990920008E+02 -0.26090738059E+02  0.30248780473E+02  0.53768593581E+02  0.00000000000E+00 0.  1.
<scales pt_clust_4="550.00000" pt_clust_5="550.00000" pt_clust_6="44.45304"></scales>
<mgrwt>
<rscale>  0 0.30000000E+03</rscale>
<asrwt>  1 0.44453042E+02</asrwt>
<pdfrwt beam="1">  1        1 0.87929773E+00 0.30000000E+03</pdfrwt>
<pdfrwt beam="2">0</pdfrwt>
<totfact> 0.19268677E-04</totfact>
</mgrwt>
<clustering>
<clus scale="   44.453">  1  6  2 -1</clus>
<clus scale="  456.512">  4  5 -1 -1</clus>
<clus scale="  300.000">  1  4  2 -1</clus>
</clustering>
</event>
<event>
 6    1  0.9964252E-012  0.3000000E+03  0.7818608E-02  0.1093470E+00
          1   -1    0    0  502    0  0.00000000000E+00  0.00000000000E+00  0.23422051496E+03  0.23422051496E+03  0.00000000000E+00 0.  1.
         13   -1    0    0    0    0 -0.00000000000E+00 -0.00000000000E+00 -0.27500000000E+03  0.27500000000E+03  0.00000000000E+00 0.  1.
    9000005    2    1    2  501    0 -0.26239611868E+02 -0.17908419593E+02 -0.45288724442E+02  0.47713372697E+03  0.47391591673E+03 0.  0.
         13    1    3    3    0    0  0.20325864106E+02  0.13835116595E+03  0.16160945707E+03  0.21370962189E+03  0.00000000000E+00 0.  1.
          1    1    3    3  501    0 -0.46565475974E+02 -0.15625958554E+03 -0.20689818151E+03  0.26342410509E+03  0.00000000000E+00 0.  1.
         21    1    1    2  502  501  0.26239611868E+02  0.17908419593E+02  0.45092394024E+01  0.32086787986E+02  0.00000000000E+00 0. -1.
<scales pt_clust_4="550.00000" pt_clust_5="550.00000" pt_clust_6="31.76836"></scales>
<mgrwt>
<rscale>  0 0.30000000E+03</rscale>
<asrwt>  1 0.31768360E+02</asrwt>
<pdfrwt beam="1">  1        1 0.85171096E+00 0.30000000E+03</pdfrwt>
<pdfrwt beam="2">0</pdfrwt>
<totfact> 0.39931855E-04</totfact>
</mgrwt>
<clustering>
<clus scale="   31.768">  1  6  2 -1</clus>
<clus scale="  473.916">  4  5 -1 -1</clus>
<clus scale="  300.000">  1  4  2 -1</clus>
</clustering>
</event>
<event>
 6    1  0.9964252E-012  0.3000000E+03  0.7818608E-02  0.1093470E+00
          1   -1    0    0  502    0  0.00000000000E+00  0.00000000000E+00  0.23469985385E+03  0.23469985385E+03  0.00000000000E+00 0.  1.
         13   -1    0    0    0    0 -0.00000000000E+00 -0.00000000000E+00 -0.27500000000E+03  0.27500000000E+03  0.00000000000E+00 0.  1.
    9000005    2    1    2  501    0  0.29619497157E+01 -0.36647512342E+02 -0.60563120951E+02  0.46771888846E+03  0.46232159121E+03 0.  0.
         13    1    3    3    0    0 -0.14583039297E+03 -0.11301236080E+03  0.12118142339E+03  0.22073340160E+03  0.00000000000E+00 0.  1.
          3    1    3    3  501    0  0.14879234269E+03  0.76364848458E+02 -0.18174454434E+03  0.24698548686E+03  0.00000000000E+00 0.  1.
         21    1    1    2  502  501 -0.29619497157E+01  0.36647512342E+02  0.20262974800E+02  0.41980965386E+02  0.00000000000E+00 0. -1.
<scales pt_clust_4="550.00000" pt_clust_5="550.00000" pt_clust_6="36.76701"></scales>
<mgrwt>
<rscale>  0 0.30000000E+03</rscale>
<asrwt>  1 0.36767014E+02</asrwt>
<pdfrwt beam="1">  1        1 0.85345401E+00 0.30000000E+03</pdfrwt>
<pdfrwt beam="2">0</pdfrwt>
<totfact> 0.37379123E-04</totfact>
</mgrwt>
<clustering>
<clus scale="   36.767">  1  6  2 -1</clus>
<clus scale="  462.322">  4  5 -1 -1</clus>
<clus scale="  300.000">  1  4  2 -1</clus>
</clustering>
</event>
<event>
 6    1  0.9964252E-012  0.3000000E+03  0.7818608E-02  0.1093470E+00
          1   -1    0    0  502    0  0.00000000000E+00  0.00000000000E+00  0.25008082361E+03  0.25008082361E+03  0.00000000000E+00 0.  1.
         13   -1    0    0    0    0 -0.00000000000E+00 -0.00000000000E+00 -0.27500000000E+03  0.27500000000E+03  0.00000000000E+00 0.  1.
    9000005    2    1    2  501    0 -0.16017651014E+02 -0.31574088733E+02 -0.13671465412E+02  0.48793248278E+03  0.48645422248E+03 0.  0.
         13    1    3    3    0    0  0.12324270480E+03 -0.20173807942E+03 -0.93192979548E+02  0.25411011080E+03  0.00000000000E+00 0.  1.
          3    1    3    3  501    0 -0.13926035581E+03  0.17016399069E+03  0.79521514137E+02  0.23382237198E+03  0.00000000000E+00 0.  1.
         21    1    1    2  502  501  0.16017651014E+02  0.31574088733E+02 -0.11247710983E+02  0.37148340821E+02  0.00000000000E+00 0.  1.
<scales pt_clust_4="550.00000" pt_clust_5="550.00000" pt_clust_6="35.40465"></scales>
<mgrwt>
<rscale>  0 0.30000000E+03</rscale>
<asrwt>  1 0.35404653E+02</asrwt>
<pdfrwt beam="1">  1        1 0.90938481E+00 0.30000000E+03</pdfrwt>
<pdfrwt beam="2">0</pdfrwt>
<totfact> 0.74193656E-05</totfact>
</mgrwt>
<clustering>
<clus scale="   35.405">  1  6  2 -1</clus>
<clus scale="  486.454">  4  5 -1 -1</clus>
<clus scale="  300.000">  1  4  2 -1</clus>
</clustering>
</event>
<event>
 6    1  0.9964252E-012  0.3000000E+03  0.7818608E-02  0.1093470E+00
          1   -1    0    0  502    0  0.00000000000E+00  0.00000000000E+00  0.24205436673E+03  0.24205436673E+03  0.00000000000E+00 0.  1.
         13   -1    0    0    0    0 -0.00000000000E+00 -0.00000000000E+00 -0.27500000000E+03  0.27500000000E+03  0.00000000000E+00 0.  1.
    9000005    2    1    2  501    0  0.34695635400E+02  0.61080484867E+01 -0.15915404870E+02  0.47792478648E+03  0.47635879969E+03 0.  0.
         13    1    3    3    0    0  0.18284295407E+03  0.15500253945E+03  0.71917471282E+02  0.25025877759E+03  0.00000000000E+00 0.  1.
          1    1    3    3  501    0 -0.14814731867E+03 -0.14889449096E+03 -0.87832876152E+02  0.22766600888E+03  0.00000000000E+00 0.  1.
         21    1    1    2  502  501 -0.34695635400E+02 -0.61080484867E+01 -0.17030228395E+02  0.39129580260E+02  0.00000000000E+00 0. -1.
<scales pt_clust_4="550.00000" pt_clust_5="550.00000" pt_clust_6="35.22920"></scales>
<mgrwt>
<rscale>  0 0.30000000E+03</rscale>
<asrwt>  1 0.35229201E+02</asrwt>
<pdfrwt beam="1">  1        1 0.88019770E+00 0.30000000E+03</pdfrwt>
<pdfrwt beam="2">0</pdfrwt>
<totfact> 0.19603046E-04</totfact>
</mgrwt>
<clustering>
<clus scale="   35.229">  1  6  2 -1</clus>
<clus scale="  476.359">  4  5 -1 -1</clus>
<clus scale="  300.000">  1  4  2 -1</clus>
</clustering>
</event>
<event>
 6    1  0.9964252E-012  0.3000000E+03  0.7818608E-02  0.1093470E+00
          1   -1    0    0  502    0  0.00000000000E+00  0.00000000000E+00  0.23010427125E+03  0.23010427125E+03  0.00000000000E+00 0.  1.
         13   -1    0    0    0    0 -0.00000000000E+00 -0.00000000000E+00 -0.27500000000E+03  0.27500000000E+03  0.00000000000E+00 0.  1.
    9000005    2    1    2  501    0 -0.20014590068E+01 -0.30948128880E+02 -0.45504840479E+02  0.47408551021E+03  0.47087640413E+03 0.  0.
         13    1    3    3    0    0  0.17171508300E+03  0.97370500131E+02  0.92281165817E+02  0.21790570802E+03  0.00000000000E+00 0.  1.
          3    1    3    3  501    0 -0.17371654200E+03 -0.12831862901E+03 -0.13778600630E+03  0.25617980219E+03  0.00000000000E+00 0.  1.
         21    1    1    2  502  501  0.20014590068E+01  0.30948128880E+02  0.60911172951E+00  0.31018761040E+02  0.00000000000E+00 0. -1.
<scales pt_clust_4="550.00000" pt_clust_5="550.00000" pt_clust_6="31.01278"></scales>
<mgrwt>
<rscale>  0 0.30000000E+03</rscale>
<asrwt>  1 0.31012780E+02</asrwt>
<pdfrwt beam="1">  1        1 0.83674280E+00 0.30000000E+03</pdfrwt>
<pdfrwt beam="2">0</pdfrwt>
<totfact> 0.53760500E-04</totfact>
</mgrwt>
<clustering>
<clus scale="   31.013">  1  6  2 -1</clus>
<clus scale="  470.876">  4  5 -1 -1</clus>
<clus scale="  300.000">  1  4  2 -1</clus>
</clustering>
</event>
<event>
 6    1  0.9964252E-012  0.3000000E+03  0.7818608E-02  0.1093470E+00
          1   -1    0    0  502    0  0.00000000000E+00  0.00000000000E+00  0.24737267522E+03  0.24737267522E+03  0.00000000000E+00 0.  1.
         13   -1    0    0    0    0 -0.00000000000E+00 -0.00000000000E+00 -0.27500000000E+03  0.27500000000E+03  0.00000000000E+00 0.  1.
    9000005    2    1    2  501    0 -0.30713897563E+02  0.23832547723E+02 -0.52967213566E+02  0.47596746217E+03  0.47141082454E+03 0.  0.
         13    1    3    3    0    0 -0.18670423707E+03 -0.14413697008E+03  0.16492002137E+02  0.23644433682E+03  0.00000000000E+00 0.  1.
          1    1    3    3  501    0  0.15599033950E+03  0.16796951780E+03 -0.69459215703E+02  0.23952312534E+03  0.00000000000E+00 0.  1.
         21    1    1    2  502  501  0.30713897563E+02 -0.23832547723E+02  0.25339888785E+02  0.46405213049E+02  0.00000000000E+00 0. -1.
<scales pt_clust_4="550.00000" pt_clust_5="550.00000" pt_clust_6="38.87588"></scales>
<mgrwt>
<rscale>  0 0.30000000E+03</rscale>
<asrwt>  1 0.38875877E+02</asrwt>
<pdfrwt beam="1">  1        1 0.89953700E+00 0.30000000E+03</pdfrwt>
<pdfrwt beam="2">0</pdfrwt>
<totfact> 0.10975429E-04</totfact>
</mgrwt>
<clustering>
<clus scale="   38.876">  1  6  2 -1</clus>
<clus scale="  471.411">  4  5 -1 -1</clus>
<clus scale="  300.000">  1  4  2 -1</clus>
</clustering>
</event>
<event>
 6    1  0.9964252E-012  0.3000000E+03  0.7818608E-02  0.1093470E+00
          1   -1    0    0  502    0  0.00000000000E+00  0.00000000000E+00  0.25712917188E+03  0.25712917188E+03  0.00000000000E+00 0.  1.
         13   -1    0    0    0    0 -0.00000000000E+00 -0.00000000000E+00 -0.27500000000E+03  0.27500000000E+03  0.00000000000E+00 0.  1.
    9000005    2    1    2  501    0 -0.32647992279E+02  0.26175921237E+02 -0.22185998663E+02  0.49006147703E+03  0.48776732412E+03 0.  0.
         13    1    3    3    0    0  0.17364425021E+03 -0.13647480050E+01 -0.16349065278E+03  0.23850237255E+03  0.00000000000E+00 0.  1.
          3    1    3    3  501    0 -0.20629224249E+03  0.27540669242E+02  0.14130465411E+03  0.25155910448E+03  0.00000000000E+00 0.  1.
         21    1    1    2  502  501  0.32647992279E+02 -0.26175921237E+02  0.43151705383E+01  0.42067694841E+02  0.00000000000E+00 0.  1.
<scales pt_clust_4="550.00000" pt_clust_5="550.00000" pt_clust_6="41.84579"></scales>
<mgrwt>
<rscale>  0 0.30000000E+03</rscale>
<asrwt>  1 0.41845791E+02</asrwt>
<pdfrwt beam="1">  1        1 0.93501517E+00 0.30000000E+03</pdfrwt>
<pdfrwt beam="2">0</pdfrwt>
<totfact> 0.21787734E-05</totfact>
</mgrwt>
<clustering>
<clus scale="   41.846">  1  6  2 -1</clus>
<clus scale="  487.767">  4  5 -1 -1</clus>
<clus scale="  300.000">  1  4  2 -1</clus>
</clustering>
</event>
<event>
 6    1  0.9964252E-012  0.3000000E+03  0.7818608E-02  0.1093470E+00
          1   -1    0    0  502    0  0.00000000000E+00  0.00000000000E+00  0.22095660738E+03  0.22095660738E+03  0.00000000000E+00 0.  1.
         13   -1    0    0    0    0 -0.00000000000E+00 -0.00000000000E+00 -0.27500000000E+03  0.27500000000E+03  0.00000000000E+00 0.  1.
    9000005    2    1    2  501    0  0.13240015243E+02  0.31460481708E+02 -0.58773666277E+02  0.46149742280E+03  0.45646518760E+03 0.  0.
         13    1    3    3    0    0  0.86102972255E+02  0.17475628587E+03 -0.17599532136E+03  0.26254110997E+03  0.00000000000E+00 0.  1.
          1    1    3    3  501    0 -0.72862957012E+02 -0.14329580416E+03  0.11722165509E+03  0.19895631283E+03  0.00000000000E+00 0.  1.
         21    1    1    2  502  501 -0.13240015243E+02 -0.31460481708E+02  0.47302736595E+01  0.34459184579E+02  0.00000000000E+00 0. -1.
<scales pt_clust_4="550.00000" pt_clust_5="550.00000" pt_clust_6="34.13297"></scales>
<mgrwt>
<rscale>  0 0.30000000E+03</rscale>
<asrwt>  1 0.34132974E+02</asrwt>
<pdfrwt beam="1">  1        1 0.80347857E+00 0.30000000E+03</pdfrwt>
<pdfrwt beam="2">0</pdfrwt>
<totfact> 0.98284112E-04</totfact>
</mgrwt>
<clustering>
<clus scale="   34.133">  1  6  2 -1</clus>
<clus scale="  456.465">  4  5 -1 -1</clus>
<clus scale="  300.000">  1  4  2 -1</clus>
</clustering>
</event>
<event>
 6    1  0.9964252E-012  0.3000000E+03  0.7818608E-02  0.1093470E+00
          1   -1    0    0  502    0  0.00000000000E+00  0.00000000000E+00  0.24844741690E+03  0.24844741690E+03  0.00000000000E+00 0.  1.
         13   -1    0    0    0    0 -0.00000000000E+00 -0.00000000000E+00 -0.27500000000E+03  0.27500000000E+03  0.00000000000E+00 0.  1.
    9000005    2    1    2  501    0 -0.14637812333E+02 -0.52041617174E+02 -0.17944003328E+02  0.46870526574E+03  0.46523117201E+03 0.  0.
         13    1    3    3    0    0 -0.61915285181E+02  0.17996510758E+03 -0.10387431763E+03  0.21681977850E+03  0.00000000000E+00 0.  1.
          1    1    3    3  501    0  0.47277472848E+02 -0.23200672475E+03  0.85930314304E+02  0.25188548725E+03  0.00000000000E+00 0.  1.
         21    1    1    2  502  501  0.14637812333E+02  0.52041617174E+02 -0.86085797677E+01  0.54742151160E+02  0.00000000000E+00 0.  1.
<scales pt_clust_4="550.00000" pt_clust_5="550.00000" pt_clust_6="54.06106"></scales>
<mgrwt>
<rscale>  0 0.30000000E+03</rscale>
<asrwt>  1 0.54061062E+02</asrwt>
<pdfrwt beam="1">  1        1 0.90344515E+00 0.30000000E+03</pdfrwt>
<pdfrwt beam="2">0</pdfrwt>
<totfact> 0.91138262E-05</totfact>
</mgrwt>
<clustering>
<clus scale="   54.061">  1  6  2 -1</clus>
<clus scale="  465.231">  4  5 -1 -1</clus>
<clus scale="  300.000">  1  4  2 -1</clus>
</clustering>
</event>
<event>
 6    1  0.9964252E-012  0.3000000E+03  0.7818608E-02  0.1093470E+00
          1   -1    0    0  502    0  0.00000000000E+00  0.00000000000E+00  0.23321579858E+03  0.23321579858E+03  0.00000000000E+00 0.  1.
         13   -1    0    0    0    0 -0.00000000000E+00 -0.00000000000E+00 -0.27500000000E+03  0.27500000000E+03  0.00000000000E+00 0.  1.
    9000005    2    1    2  501    0  0.29341810994E+02 -0.13585352140E+02 -0.65662191289E+02  0.46802049953E+03  0.46226200466E+03 0.  0.
         13    1    3    3    0    0 -0.15822675442E+03  0.50135500766E+02  0.11337566981E+03  0.20100576299E+03  0.00000000000E+00 0.  1.
          3    1    3    3  501    0  0.18756856541E+03 -0.63720852906E+02 -0.17903786110E+03  0.26701473654E+03  0.00000000000E+00 0.  1.
         21    1    1    2  502  501 -0.29341810994E+02  0.13585352140E+02  0.23877989867E+02  0.40195299044E+02  0.00000000000E+00 0. -1.
<scales pt_clust_4="550.00000" pt_clust_5="550.00000" pt_clust_6="32.33425"></scales>
<mgrwt>
<rscale>  0 0.30000000E+03</rscale>
<asrwt>  1 0.32334249E+02</asrwt>
<pdfrwt beam="1">  1        1 0.84805745E+00 0.30000000E+03</pdfrwt>
<pdfrwt beam="2">0</pdfrwt>
<totfact> 0.43060195E-04</totfact>
</mgrwt>
<clustering>
<clus scale="   32.334">  1  6  2 -1</clus>
<clus scale="  462.262">  4  5 -1 -1</clus>
<clus scale="  300.000">  1  4  2 -1</clus>
</clustering>
</event>
<event>
 6    1  0.9964252E-012  0.3000000E+03  0.7818608E-02  0.1093470E+00
          1   -1    0    0  502    0  0.00000000000E+00  0.00000000000E+00  0.22680851828E+03  0.22680851828E+03  0.00000000000E+00 0.  1.
         13   -1    0    0    0    0 -0.00000000000E+00 -0.00000000000E+00 -0.27500000000E+03  0.27500000000E+03  0.00000000000E+00 0.  1.
    9000005    2    1    2  501    0 -0.30137736151E+02 -0.72478137389E+00 -0.59673159460E+02  0.46954960677E+03  0.46476568162E+03 0.  0.
         13    1    3    3    0    0 -0.12631008180E+03 -0.14392228813E+03  0.11556395931E+03  0.22365797656E+03  0.00000000000E+00 0.  1.
          3    1    3    3  501    0  0.96172345653E+02  0.14319750676E+03 -0.17523711877E+03  0.24589163021E+03  0.00000000000E+00 0.  1.
         21    1    1    2  502  501  0.30137736151E+02  0.72478137389E+00  0.11481677744E+02  0.32258911515E+02  0.00000000000E+00 0. -1.
<scales pt_clust_4="550.00000" pt_clust_5="550.00000" pt_clust_6="30.14645"></scales>
<mgrwt>
<rscale>  0 0.30000000E+03</rscale>
<asrwt>  1 0.30146450E+02</asrwt>
<pdfrwt beam="1">  1        1 0.82475825E+00 0.30000000E+03</pdfrwt>
<pdfrwt beam="2">0</pdfrwt>
<totfact> 0.67528067E-04</totfact>
</mgrwt>
<clustering>
<clus scale="   30.146">  1  6  2 -1</clus>
<clus scale="  464.766">  4  5 -1 -1</clus>
<clus scale="  300.000">  1  4  2 -1</clus>
</clustering>
</event>
<event>
 6    1  0.9964252E-012  0.3000000E+03  0.7818608E-02  0.1093470E+00
          1   -1    0    0  502    0  0.00000000000E+00  0.00000000000E+00  0.22743022748E+03  0.22743022748E+03  0.00000000000E+00 0.  1.
         13   -1    0    0    0    0 -0.00000000000E+00 -0.00000000000E+00 -0.27500000000E+03  0.27500000000E+03  0.00000000000E+00 0.  1.
    9000005    2    1    2  501    0 -0.29649755404E+02 -0.89469449819E+01 -0.42676960524E+02  0.47107587484E+03  0.46811537154E+03 0.  0.
         13    1    3    3    0    0 -0.42148806575E+02  0.31696519698E+01 -0.25477867187E+03  0.25826099247E+03  0.00000000000E+00 0.  1.
          1    1    3    3  501    0  0.12499051171E+02 -0.12116596952E+02  0.21210171135E+03  0.21281488237E+03  0.00000000000E+00 0.  1.
         21    1    1    2  502  501  0.29649755404E+02  0.89469449819E+01 -0.48928120003E+01  0.31354352637E+02  0.00000000000E+00 0. -1.
<scales pt_clust_4="550.00000" pt_clust_5="550.00000" pt_clust_6="30.97026"></scales>
<mgrwt>
<rscale>  0 0.30000000E+03</rscale>
<asrwt>  1 0.30970256E+02</asrwt>
<pdfrwt beam="1">  1        1 0.82701901E+00 0.30000000E+03</pdfrwt>
<pdfrwt beam="2">0</pdfrwt>
<totfact> 0.64145654E-04</totfact>
</mgrwt>
<clustering>
<clus scale="   30.970">  1  6  2 -1</clus>
<clus scale="  468.115">  4  5 -1 -1</clus>
<clus scale="  300.000">  1  4  2 -1</clus>
</clustering>
</event>
<event>
 6    1  0.9964252E-012  0.3000000E+03  0.7818608E-02  0.1093470E+00
          1   -1    0    0  502    0  0.00000000000E+00  0.00000000000E+00  0.23907961204E+03  0.23907961204E+03  0.00000000000E+00 0.  1.
         13   -1    0    0    0    0 -0.00000000000E+00 -0.00000000000E+00 -0.27500000000E+03  0.27500000000E+03  0.00000000000E+00 0.  1.
    9000005    2    1    2  501    0  0.28174221044E+02 -0.30371374767E+02 -0.62365954188E+02  0.46493111145E+03  0.45886296323E+03 0.  0.
         13    1    3    3    0    0  0.49528533925E+02 -0.13865484047E+03  0.15953754171E+03  0.21709552661E+03  0.00000000000E+00 0.  1.
          1    1    3    3  501    0 -0.21354312881E+02  0.10828346571E+03 -0.22190349590E+03  0.24783558485E+03  0.00000000000E+00 0.  1.
         21    1    1    2  502  501 -0.28174221044E+02  0.30371374767E+02  0.26445566230E+02  0.49148500587E+02  0.00000000000E+00 0.  1.
<scales pt_clust_4="550.00000" pt_clust_5="550.00000" pt_clust_6="41.42713"></scales>
<mgrwt>
<rscale>  0 0.30000000E+03</rscale>
<asrwt>  1 0.41427130E+02</asrwt>
<pdfrwt beam="1">  1        1 0.86938041E+00 0.30000000E+03</pdfrwt>
<pdfrwt beam="2">0</pdfrwt>
<totfact> 0.24912370E-04</totfact>
</mgrwt>
<clustering>
<clus scale="   41.427">  1  6  2 -1</clus>
<clus scale="  458.863">  4  5 -1 -1</clus>
<clus scale="  300.000">  1  4  2 -1</clus>
</clustering>
</event>
<event>
 6    1  0.9964252E-012  0.3000000E+03  0.7818608E-02  0.1093470E+00
          1   -1    0    0  502    0  0.00000000000E+00  0.00000000000E+00  0.24545028074E+03  0.24545028074E+03  0.00000000000E+00 0.  1.
         13   -1    0    0    0    0 -0.00000000000E+00 -0.00000000000E+00 -0.27500000000E+03  0.27500000000E+03  0.00000000000E+00 0.  1.
    9000005    2    1    2  501    0  0.32569854782E+02  0.37081993148E+02 -0.31907699900E+02  0.47103945471E+03  0.46735874542E+03 0.  0.
         13    1    3    3    0    0  0.19590500913E+03  0.12766903653E+03 -0.12191773187E+03  0.26370834047E+03  0.00000000000E+00 0.  1.
          1    1    3    3  501    0 -0.16333515435E+03 -0.90587043380E+02  0.90010031968E+02  0.20733111423E+03  0.00000000000E+00 0.  1.
         21    1    1    2  502  501 -0.32569854782E+02 -0.37081993148E+02  0.23579806365E+01  0.49410826031E+02  0.00000000000E+00 0.  1.
<scales pt_clust_4="550.00000" pt_clust_5="550.00000" pt_clust_6="49.35453"></scales>
<mgrwt>
<rscale>  0 0.30000000E+03</rscale>
<asrwt>  1 0.49354530E+02</asrwt>
<pdfrwt beam="1">  1        1 0.89254648E+00 0.30000000E+03</pdfrwt>
<pdfrwt beam="2">0</pdfrwt>
<totfact> 0.12645641E-04</totfact>
</mgrwt>
<clustering>
<clus scale="   49.355">  1  6  2 -1</clus>
<clus scale="  467.359">  4  5 -1 -1</clus>
<clus scale="  300.000">  1  4  2 -1</clus>
</clustering>
</event>
<event>
 6    1  0.9964252E-012  0.3000000E+03  0.7818608E-02  0.1093470E+00
          1   -1    0    0  502    0  0.00000000000E+00  0.00000000000E+00  0.23427051409E+03  0.23427051409E+03  0.00000000000E+00 0.  1.
         13   -1    0    0    0    0 -0.00000000000E+00 -0.00000000000E+00 -0.27500000000E+03  0.27500000000E+03  0.00000000000E+00 0.  1.
    9000005    2    1    2  501    0 -0.23922759421E+01  0.32974797213E+02 -0.34910289922E+02  0.47570083614E+03  0.47326472183E+03 0.  0.
         13    1    3    3    0    0  0.56223487610E+02 -0.14201577753E+02  0.21085071543E+03  0.21867965055E+03  0.00000000000E+00 0.  1.
          1    1    3    3  501    0 -0.58615763552E+02  0.47176374966E+02 -0.24576100535E+03  0.25702118559E+03  0.00000000000E+00 0.  1.
         21    1    1    2  502  501  0.23922759421E+01 -0.32974797213E+02 -0.58191959921E+01  0.33569677946E+02  0.00000000000E+00 0.  1.
<scales pt_clust_4="550.00000" pt_clust_5="550.00000" pt_clust_6="33.06148"></scales>
<mgrwt>
<rscale>  0 0.30000000E+03</rscale>
<asrwt>  1 0.33061478E+02</asrwt>
<pdfrwt beam="1">  1        1 0.85189278E+00 0.30000000E+03</pdfrwt>
<pdfrwt beam="2">0</pdfrwt>
<totfact> 0.39472473E-04</totfact>
</mgrwt>
<clustering>
<clus scale="   33.061">  1  6  2 -1</clus>
<clus scale="  473.265">  4  5 -1 -1</clus>
<clus scale="  300.000">  1  4  2 -1</clus>
</clustering>
</event>
<event>
 6    1  0.9964252E-012  0.3000000E+03  0.7818608E-02  0.1093470E+00
          1   -1    0    0  502    0  0.00000000000E+00  0.00000000000E+00  0.23157554567E+03  0.23157554567E+03  0.00000000000E+00 0.  1.
         13   -1    0    0    0    0 -0.00000000000E+00 -0.00000000000E+00 -0.27500000000E+03  0.27500000000E+03  0.00000000000E+00 0.  1.
    9000005    2    1    2  501    0  0.73178982144E+01  0.31296720770E+02 -0.66242959560E+02  0.46715828364E+03  0.46131951608E+03 0.  0.
         13    1    3    3    0    0  0.16489810132E+02  0.24581516038E+03 -0.53212958310E+02  0.25204885606E+03  0.00000000000E+00 0.  1.
          1    1    3    3  501    0 -0.91719119173E+01 -0.21451843961E+03 -0.13030001249E+02  0.21510942758E+03  0.00000000000E+00 0.  1.
         21    1    1    2  502  501 -0.73178982144E+01 -0.31296720770E+02  0.22818505229E+02  0.39417262033E+02  0.00000000000E+00 0.  1.
<scales pt_clust_4="550.00000" pt_clust_5="550.00000" pt_clust_6="32.14088"></scales>
<mgrwt>
<rscale>  0 0.30000000E+03</rscale>
<asrwt>  1 0.32140883E+02</asrwt>
<pdfrwt beam="1">  1        1 0.84209289E+00 0.30000000E+03</pdfrwt>
<pdfrwt beam="2">0</pdfrwt>
<totfact> 0.48606463E-04</totfact>
</mgrwt>
<clustering>
<clus scale="   32.141">  1  6  2 -1</clus>
<clus scale="  461.320">  4  5 -1 -1</clus>
<clus scale="  300.000">  1  4  2 -1</clus>
</clustering>
</event>
<event>
 6    1  0.9964252E-012  0.3000000E+03  0.7818608E-02  0.1093470E+00
          1   -1    0    0  502    0  0.00000000000E+00  0.00000000000E+00  0.24552335972E+03  0.24552335972E+03  0.00000000000E+00 0.  1.
         13   -1    0    0    0    0 -0.00000000000E+00 -0.00000000000E+00 -0.27500000000E+03  0.27500000000E+03  0.00000000000E+00 0.  1.
    9000005    2    1    2  501    0  0.28740556325E+01  0.35581091847E+02 -0.73112071765E+02  0.46414672295E+03  0.45696009792E+03 0.  0.
         13    1    3    3    0    0 -0.12555335667E+03 -0.17278245293E+03 -0.35333777955E+02  0.21648532809E+03  0.00000000000E+00 0.  1.
          1    1    3    3  501    0  0.12842741231E+03  0.20836354477E+03 -0.37778293810E+02  0.24766139486E+03  0.00000000000E+00 0.  1.
         21    1    1    2  502  501 -0.28740556325E+01 -0.35581091847E+02  0.43635431490E+02  0.56376636775E+02  0.00000000000E+00 0.  1.
<scales pt_clust_4="550.00000" pt_clust_5="550.00000" pt_clust_6="35.69698"></scales>
<mgrwt>
<rscale>  0 0.30000000E+03</rscale>
<asrwt>  1 0.35696979E+02</asrwt>
<pdfrwt beam="1">  1        1 0.89281222E+00 0.30000000E+03</pdfrwt>
<pdfrwt beam="2">0</pdfrwt>
<totfact> 0.13311620E-04</totfact>
</mgrwt>
<clustering>
<clus scale="   35.697">  1  6  2 -1</clus>
<clus scale="  456.960">  4  5 -1 -1</clus>
<clus scale="  300.000">  1  4  2 -1</clus>
</clustering>
</event>
<event>
 6    1  0.9964252E-012  0.3000000E+03  0.7818608E-02  0.1093470E+00
          1   -1    0    0  502    0  0.00000000000E+00  0.00000000000E+00  0.23264488946E+03  0.23264488946E+03  0.00000000000E+00 0.  1.
         13   -1    0    0    0    0 -0.00000000000E+00 -0.00000000000E+00 -0.27500000000E+03  0.27500000000E+03  0.00000000000E+00 0.  1.
    9000005    2    1    2  501    0 -0.16678459890E+02 -0.35659541550E+02 -0.48030771058E+02  0.46787068865E+03  0.46373079734E+03 0.  0.
         13    1    3    3    0    0  0.16401016511E+03  0.74002914759E+02  0.10370824899E+03  0.20768044338E+03  0.00000000000E+00 0.  1.
          3    1    3    3  501    0 -0.18068862500E+03 -0.10966245631E+03 -0.15173902005E+03  0.26019024527E+03  0.00000000000E+00 0.  1.
         21    1    1    2  502  501  0.16678459890E+02  0.35659541550E+02  0.56756605200E+01  0.39774200812E+02  0.00000000000E+00 0. -1.
<scales pt_clust_4="550.00000" pt_clust_5="550.00000" pt_clust_6="39.36717"></scales>
<mgrwt>
<rscale>  0 0.30000000E+03</rscale>
<asrwt>  1 0.39367168E+02</asrwt>
<pdfrwt beam="1">  1        1 0.84598142E+00 0.30000000E+03</pdfrwt>
<pdfrwt beam="2">0</pdfrwt>
<totfact> 0.43338572E-04</totfact>
</mgrwt>
<clustering>
<clus scale="   39.367">  1  6  2 -1</clus>
<clus scale="  463.731">  4  5 -1 -1</clus>
<clus scale="  300.000">  1  4  2 -1</clus>
</clustering>
</event>
<event>
 6    1  0.9964252E-012  0.3000000E+03  0.7818608E-02  0.1093470E+00
          1   -1    0    0  502    0  0.00000000000E+00  0.00000000000E+00  0.22310187807E+03  0.22310187807E+03  0.00000000000E+00 0.  1.
         13   -1    0    0    0    0 -0.00000000000E+00 -0.00000000000E+00 -0.27500000000E+03  0.27500000000E+03  0.00000000000E+00 0.  1.
    9000005    2    1    2  501    0  0.27179777420E+02  0.12889800106E+02 -0.68980944563E+02  0.46350838047E+03  0.45735845986E+03 0.  0.
         13    1    3    3    0    0  0.45741169250E+02  0.10800952898E+03  0.16947717026E+03  0.20610876778E+03  0.00000000000E+00 0.  1.
          1    1    3    3  501    0 -0.18561391831E+02 -0.95119728869E+02 -0.23845811483E+03  0.25739961269E+03  0.00000000000E+00 0.  1.
         21    1    1    2  502  501 -0.27179777420E+02 -0.12889800106E+02  0.17082822638E+02  0.34593497606E+02  0.00000000000E+00 0.  1.
<scales pt_clust_4="550.00000" pt_clust_5="550.00000" pt_clust_6="30.08134"></scales>
<mgrwt>
<rscale>  0 0.30000000E+03</rscale>
<asrwt>  1 0.30081344E+02</asrwt>
<pdfrwt beam="1">  1        1 0.81127956E+00 0.30000000E+03</pdfrwt>
<pdfrwt beam="2">0</pdfrwt>
<totfact> 0.87710509E-04</totfact>
</mgrwt>
<clustering>
<clus scale="   30.081">  1  6  2 -1</clus>
<clus scale="  457.358">  4  5 -1 -1</clus>
<clus scale="  300.000">  1  4  2 -1</clus>
</clustering>
</event>
<event>
 6    1  0.9964252E-012  0.3000000E+03  0.7818608E-02  0.1093470E+00
          1   -1    0    0  502    0  0.00000000000E+00  0.00000000000E+00  0.24763962295E+03  0.24763962295E+03  0.00000000000E+00 0.  1.
         13   -1    0    0    0    0 -0.00000000000E+00 -0.00000000000E+00 -0.27500000000E+03  0.27500000000E+03  0.00000000000E+00 0.  1.
    9000005    2    1    2  501    0  0.14990152107E+02 -0.40566891895E+02 -0.52831887463E+02  0.47244823703E+03  0.46748877095E+03 0.  0.
         13    1    3    3    0    0  0.18978218439E+02 -0.21235471279E+03  0.10631408173E+03  0.23823807587E+03  0.00000000000E+00 0.  1.
          3    1    3    3  501    0 -0.39880663318E+01  0.17178782089E+03 -0.15914596919E+03  0.23421016116E+03  0.00000000000E+00 0.  1.
         21    1    1    2  502  501 -0.14990152107E+02  0.40566891895E+02  0.25471510416E+02  0.50191385924E+02  0.00000000000E+00 0.  1.
<scales pt_clust_4="550.00000" pt_clust_5="550.00000" pt_clust_6="43.24786"></scales>
<mgrwt>
<rscale>  0 0.30000000E+03</rscale>
<asrwt>  1 0.43247860E+02</asrwt>
<pdfrwt beam="1">  1        1 0.90050772E+00 0.30000000E+03</pdfrwt>
<pdfrwt beam="2">0</pdfrwt>
<totfact> 0.10466487E-04</totfact>
</mgrwt>
<clustering>
<clus scale="   43.248">  1  6  2 -1</clus>
<clus scale="  467.489">  4  5 -1 -1</clus>
<clus scale="  300.000">  1  4  2 -1</clus>
</clustering>
</event>
<event>
 6    1  0.9964252E-012  0.3000000E+03  0.7818608E-02  0.1093470E+00
          1   -1    0    0  502    0  0.00000000000E+00  0.00000000000E+00  0.22862045949E+03  0.22862045949E+03  0.00000000000E+00 0.  1.
         13   -1    0    0    0    0 -0.00000000000E+00 -0.00000000000E+00 -0.27500000000E+03  0.27500000000E+03  0.00000000000E+00 0.  1.
    9000005    2    1    2  501    0 -0.29934652496E+02  0.31079979525E+02 -0.38744951406E+02  0.45979882673E+03  0.45612689161E+03 0.  0.
         13    1    3    3    0    0  0.12672243433E+03  0.27249406310E+02  0.16050623242E+03  0.20630888530E+03  0.00000000000E+00 0.  1.
          1    1    3    3  501    0 -0.15665708683E+03  0.38305732152E+01 -0.19925118383E+03  0.25348994142E+03  0.00000000000E+00 0.  1.
         21    1    1    2  502  501  0.29934652496E+02 -0.31079979525E+02 -0.76345891031E+01  0.43821632764E+02  0.00000000000E+00 0.  1.
<scales pt_clust_4="550.00000" pt_clust_5="550.00000" pt_clust_6="43.15148"></scales>
<mgrwt>
<rscale>  0 0.30000000E+03</rscale>
<asrwt>  1 0.43151482E+02</asrwt>
<pdfrwt beam="1">  1        1 0.83134713E+00 0.30000000E+03</pdfrwt>
<pdfrwt beam="2">0</pdfrwt>
<totfact> 0.55469180E-04</totfact>
</mgrwt>
<clustering>
<clus scale="   43.151">  1  6  2 -1</clus>
<clus scale="  456.127">  4  5 -1 -1</clus>
<clus scale="  300.000">  1  4  2 -1</clus>
</clustering>
</event>
<event>
 6    1  0.9964252E-012  0.3000000E+03  0.7818608E-02  0.1093470E+00
          1   -1    0    0  502    0  0.00000000000E+00  0.00000000000E+00  0.24453859126E+03  0.24453859126E+03  0.00000000000E+00 0.  1.
         13   -1    0    0    0    0 -0.00000000000E+00 -0.00000000000E+00 -0.27500000000E+03  0.27500000000E+03  0.00000000000E+00 0.  1.
    9000005    2    1    2  501    0 -0.61296535938E+01  0.30175794253E+02 -0.53727404501E+02  0.48094509737E+03  0.47694171706E+03 0.  0.
         13    1    3    3    0    0 -0.11471522218E+02 -0.18242909989E+03 -0.16024868100E+03  0.24308766334E+03  0.00000000000E+00 0.  1.
          1    1    3    3  501    0  0.53418686245E+01  0.21260489414E+03  0.10652127650E+03  0.23785743402E+03  0.00000000000E+00 0.  1.
         21    1    1    2  502  501  0.61296535938E+01 -0.30175794253E+02  0.23265995761E+02  0.38593493891E+02  0.00000000000E+00 0. -1.
<scales pt_clust_4="550.00000" pt_clust_5="550.00000" pt_clust_6="30.79206"></scales>
<mgrwt>
<rscale>  0 0.30000000E+03</rscale>
<asrwt>  1 0.30792064E+02</asrwt>
<pdfrwt beam="1">  1        1 0.88923124E+00 0.30000000E+03</pdfrwt>
<pdfrwt beam="2">0</pdfrwt>
<totfact> 0.15208331E-04</totfact>
</mgrwt>
<clustering>
<clus scale="   30.792">  1  6  2 -1</clus>
<clus scale="  476.942">  4  5 -1 -1</clus>
<clus scale="  300.000">  1  4  2 -1</clus>
</clustering>
</event>
<event>
 6    1  0.9964252E-012  0.3000000E+03  0.7818608E-02  0.1093470E+00
          1   -1    0    0  502    0  0.00000000000E+00  0.00000000000E+00  0.23756630766E+03  0.23756630766E+03  0.00000000000E+00 0.  1.
         13   -1    0    0    0    0 -0.00000000000E+00 -0.00000000000E+00 -0.27500000000E+03  0.27500000000E+03  0.00000000000E+00 0.  1.
    9000005    2    1    2  501    0 -0.15551218655E+02 -0.26350747024E+02 -0.53670184388E+02  0.47792780388E+03  0.47391802535E+03 0.  0.
         13    1    3    3    0    0  0.22334857409E+03 -0.63260875084E+02 -0.42064127247E+02  0.23591505816E+03  0.00000000000E+00 0.  1.
          3    1    3    3  501    0 -0.23889979275E+03  0.36910128060E+02 -0.11606057141E+02  0.24201274572E+03  0.00000000000E+00 0.  1.
         21    1    1    2  502  501  0.15551218655E+02  0.26350747024E+02  0.16236492049E+02  0.34638503785E+02  0.00000000000E+00 0.  1.
<scales pt_clust_4="550.00000" pt_clust_5="550.00000" pt_clust_6="30.59742"></scales>
<mgrwt>
<rscale>  0 0.30000000E+03</rscale>
<asrwt>  1 0.30597423E+02</asrwt>
<pdfrwt beam="1">  1        1 0.86387748E+00 0.30000000E+03</pdfrwt>
<pdfrwt beam="2">0</pdfrwt>
<totfact> 0.30135891E-04</totfact>
</mgrwt>
<clustering>
<clus scale="   30.597">  1  6  2 -1</clus>
<clus scale="  473.918">  4  5 -1 -1</clus>
<clus scale="  300.000">  1  4  2 -1</clus>
</clustering>
</event>
<event>
 6    1  0.9964252E-012  0.3000000E+03  0.7818608E-02  0.1093470E+00
          1   -1    0    0  502    0  0.00000000000E+00  0.00000000000E+00  0.24989836980E+03  0.24989836980E+03  0.00000000000E+00 0.  1.
         13   -1    0    0    0    0 -0.00000000000E+00 -0.00000000000E+00 -0.27500000000E+03  0.27500000000E+03  0.00000000000E+00 0.  1.
    9000005    2    1    2  501    0 -0.18152702477E+02 -0.25537187336E+02 -0.23308544389E+02  0.49351551300E+03  0.49196809326E+03 0.  0.
         13    1    3    3    0    0  0.11219783062E+03  0.20105837350E+02  0.20043473631E+03  0.23057901338E+03  0.00000000000E+00 0.  1.
          3    1    3    3  501    0 -0.13035053309E+03 -0.45643024685E+02 -0.22374328070E+03  0.26293649963E+03  0.00000000000E+00 0.  1.
         21    1    1    2  502  501  0.18152702477E+02  0.25537187336E+02 -0.17930858060E+01  0.31382856800E+02  0.00000000000E+00 0. -1.
<scales pt_clust_4="550.00000" pt_clust_5="550.00000" pt_clust_6="31.33161"></scales>
<mgrwt>
<rscale>  0 0.30000000E+03</rscale>
<asrwt>  1 0.31331606E+02</asrwt>
<pdfrwt beam="1">  1        1 0.90872134E+00 0.30000000E+03</pdfrwt>
<pdfrwt beam="2">0</pdfrwt>
<totfact> 0.78710706E-05</totfact>
</mgrwt>
<clustering>
<clus scale="   31.332">  1  6  2 -1</clus>
<clus scale="  491.968">  4  5 -1 -1</clus>
<clus scale="  300.000">  1  4  2 -1</clus>
</clustering>
</event>
<event>
 6    1  0.9964252E-012  0.3000000E+03  0.7818608E-02  0.1093470E+00
          1   -1    0    0  502    0  0.00000000000E+00  0.00000000000E+00  0.23039195179E+03  0.23039195179E+03  0.00000000000E+00 0.  1.
         13   -1    0    0    0    0 -0.00000000000E+00 -0.00000000000E+00 -0.27500000000E+03  0.27500000000E+03  0.00000000000E+00 0.  1.
    9000005    2    1    2  501    0  0.17370223416E+02  0.27095765858E+02 -0.69714240878E+02  0.46457251893E+03  0.45818298176E+03 0.  0.
         13    1    3    3    0    0 -0.12548904683E+03 -0.16701258099E+03  0.14160098312E+02  0.20938293022E+03  0.00000000000E+00 0.  1.
          1    1    3    3  501    0  0.14285927024E+03  0.19410834685E+03 -0.83874339190E+02  0.25518958871E+03  0.00000000000E+00 0.  1.
         21    1    1    2  502  501 -0.17370223416E+02 -0.27095765858E+02  0.25106192671E+02  0.40819432864E+02  0.00000000000E+00 0.  1.
<scales pt_clust_4="550.00000" pt_clust_5="550.00000" pt_clust_6="32.18548"></scales>
<mgrwt>
<rscale>  0 0.30000000E+03</rscale>
<asrwt>  1 0.32185481E+02</asrwt>
<pdfrwt beam="1">  1        1 0.83778892E+00 0.30000000E+03</pdfrwt>
<pdfrwt beam="2">0</pdfrwt>
<totfact> 0.52452980E-04</totfact>
</mgrwt>
<clustering>
<clus scale="   32.185">  1  6  2 -1</clus>
<clus scale="  458.183">  4  5 -1 -1</clus>
<clus scale="  300.000">  1  4  2 -1</clus>
</clustering>
</event>
<event>
 6    1  0.9964252E-012  0.3000000E+03  0.7818608E-02  0.1093470E+00
          1   -1    0    0  502    0  0.00000000000E+00  0.00000000000E+00  0.22852042777E+03  0.22852042777E+03  0.00000000000E+00 0.  1.
         13   -1    0    0    0    0 -0.00000000000E+00 -0.00000000000E+00 -0.27500000000E+03  0.27500000000E+03  0.00000000000E+00 0.  1.
    9000005    2    1    2  501    0 -0.26454136130E+02  0.18535938802E+02 -0.69196071086E+02  0.46403066117E+03  0.45770400469E+03 0.  0.
         13    1    3    3    0    0 -0.12953538857E+03  0.54714737589E+02  0.15825629844E+03  0.21170303587E+03  0.00000000000E+00 0.  1.
          1    1    3    3  501    0  0.10308125244E+03 -0.36178798787E+02 -0.22745236953E+03  0.25232762530E+03  0.00000000000E+00 0.  1.
         21    1    1    2  502  501  0.26454136130E+02 -0.18535938802E+02  0.22716498854E+02  0.39489766596E+02  0.00000000000E+00 0. -1.
<scales pt_clust_4="550.00000" pt_clust_5="550.00000" pt_clust_6="32.30174"></scales>
<mgrwt>
<rscale>  0 0.30000000E+03</rscale>
<asrwt>  1 0.32301739E+02</asrwt>
<pdfrwt beam="1">  1        1 0.83098337E+00 0.30000000E+03</pdfrwt>
<pdfrwt beam="2">0</pdfrwt>
<totfact> 0.58909305E-04</totfact>
</mgrwt>
<clustering>
<clus scale="   32.302">  1  6  2 -1</clus>
<clus scale="  457.704">  4  5 -1 -1</clus>
<clus scale="  300.000">  1  4  2 -1</clus>
</clustering>
</event>
<event>
 6    1  0.9964252E-012  0.3000000E+03  0.7818608E-02  0.1093470E+00
          1   -1    0    0  502    0  0.00000000000E+00  0.00000000000E+00  0.23491441276E+03  0.23491441276E+03  0.00000000000E+00 0.  1.
         13   -1    0    0    0    0 -0.00000000000E+00 -0.00000000000E+00 -0.27500000000E+03  0.27500000000E+03  0.00000000000E+00 0.  1.
    9000005    2    1    2  501    0  0.26549316008E+02  0.36271132106E+02 -0.50736763784E+02  0.46372016240E+03  0.45873925994E+03 0.  0.
         13    1    3    3    0    0  0.11589983690E+03  0.22431026353E+03 -0.19982822698E+02  0.25327293523E+03  0.00000000000E+00 0.  1.
          1    1    3    3  501    0 -0.89350520891E+02 -0.18803913142E+03 -0.30753941086E+02  0.21044722717E+03  0.00000000000E+00 0.  1.
         21    1    1    2  502  501 -0.26549316008E+02 -0.36271132106E+02  0.10651176547E+02  0.46194250363E+02  0.00000000000E+00 0.  1.
<scales pt_clust_4="550.00000" pt_clust_5="550.00000" pt_clust_6="44.94954"></scales>
<mgrwt>
<rscale>  0 0.30000000E+03</rscale>
<asrwt>  1 0.44949541E+02</asrwt>
<pdfrwt beam="1">  1        1 0.85423423E+00 0.30000000E+03</pdfrwt>
<pdfrwt beam="2">0</pdfrwt>
<totfact> 0.35413882E-04</totfact>
</mgrwt>
<clustering>
<clus scale="   44.950">  1  6  2 -1</clus>
<clus scale="  458.739">  4  5 -1 -1</clus>
<clus scale="  300.000">  1  4  2 -1</clus>
</clustering>
</event>
<event>
 6    1  0.9964252E-012  0.3000000E+03  0.7818608E-02  0.1093470E+00
          1   -1    0    0  502    0  0.00000000000E+00  0.00000000000E+00  0.23396411278E+03  0.23396411278E+03  0.00000000000E+00 0.  1.
         13   -1    0    0    0    0 -0.00000000000E+00 -0.00000000000E+00 -0.27500000000E+03  0.27500000000E+03  0.00000000000E+00 0.  1.
    9000005    2    1    2  501    0 -0.22859373830E+02  0.28096276827E+02 -0.62564937972E+02  0.46682800274E+03  0.46119633664E+03 0.  0.
         13    1    3    3    0    0  0.19080626918E+03  0.39150753562E+02 -0.13937099274E+03  0.23950801130E+03  0.00000000000E+00 0.  1.
          1    1    3    3  501    0 -0.21366564301E+03 -0.11054476735E+02  0.76806054764E+02  0.22731999143E+03  0.00000000000E+00 0.  1.
         21    1    1    2  502  501  0.22859373830E+02 -0.28096276827E+02  0.21529050751E+02  0.42136110044E+02  0.00000000000E+00 0.  1.
<scales pt_clust_4="550.00000" pt_clust_5="550.00000" pt_clust_6="36.22087"></scales>
<mgrwt>
<rscale>  0 0.30000000E+03</rscale>
<asrwt>  1 0.36220874E+02</asrwt>
<pdfrwt beam="1">  1        1 0.85077859E+00 0.30000000E+03</pdfrwt>
<pdfrwt beam="2">0</pdfrwt>
<totfact> 0.39761887E-04</totfact>
</mgrwt>
<clustering>
<clus scale="   36.221">  1  6  2 -1</clus>
<clus scale="  461.196">  4  5 -1 -1</clus>
<clus scale="  300.000">  1  4  2 -1</clus>
</clustering>
</event>
<event>
 6    1  0.9964252E-012  0.3000000E+03  0.7818608E-02  0.1093470E+00
          1   -1    0    0  502    0  0.00000000000E+00  0.00000000000E+00  0.24558565871E+03  0.24558565871E+03  0.00000000000E+00 0.  1.
         13   -1    0    0    0    0 -0.00000000000E+00 -0.00000000000E+00 -0.27500000000E+03  0.27500000000E+03  0.00000000000E+00 0.  1.
    9000005    2    1    2  501    0  0.15597868212E+02 -0.54720815906E+02 -0.39899330226E+02  0.46272724377E+03  0.45747883491E+03 0.  0.
         13    1    3    3    0    0 -0.21018708333E+03 -0.95301990358E+02 -0.33780425522E+02  0.23324278448E+03  0.00000000000E+00 0.  1.
          1    1    3    3  501    0  0.22578495154E+03  0.40581174452E+02 -0.61189047036E+01  0.22948445929E+03  0.00000000000E+00 0.  1.
         21    1    1    2  502  501 -0.15597868212E+02  0.54720815906E+02  0.10484988939E+02  0.57858414939E+02  0.00000000000E+00 0. -1.
<scales pt_clust_4="550.00000" pt_clust_5="550.00000" pt_clust_6="56.90045"></scales>
<mgrwt>
<rscale>  0 0.30000000E+03</rscale>
<asrwt>  1 0.56900450E+02</asrwt>
<pdfrwt beam="1">  1        1 0.89303876E+00 0.30000000E+03</pdfrwt>
<pdfrwt beam="2">0</pdfrwt>
<totfact> 0.12172191E-04</totfact>
</mgrwt>
<clustering>
<clus scale="   56.900">  1  6  2 -1</clus>
<clus scale="  457.479">  4  5 -1 -1</clus>
<clus scale="  300.000">  1  4  2 -1</clus>
</clustering>
</event>
<event>
 6    1  0.9964252E-012  0.3000000E+03  0.7818608E-02  0.1093470E+00
          1   -1    0    0  502    0  0.00000000000E+00  0.00000000000E+00  0.22594605045E+03  0.22594605045E+03  0.00000000000E+00 0.  1.
         13   -1    0    0    0    0 -0.00000000000E+00 -0.00000000000E+00 -0.27500000000E+03  0.27500000000E+03  0.00000000000E+00 0.  1.
    9000005    2    1    2  501    0  0.11100513626E+02  0.29072603591E+02 -0.55780344878E+02  0.46910767618E+03  0.46473877317E+03 0.  0.
         13    1    3    3    0    0 -0.53781954064E+02 -0.11437839505E+03  0.15880292037E+03  0.20296128536E+03  0.00000000000E+00 0.  1.
          1    1    3    3  501    0  0.64882467690E+02  0.14345099864E+03 -0.21458326524E+03  0.26614639082E+03  0.00000000000E+00 0.  1.
         21    1    1    2  502  501 -0.11100513626E+02 -0.29072603591E+02  0.67263953306E+01  0.31838374275E+02  0.00000000000E+00 0. -1.
<scales pt_clust_4="550.00000" pt_clust_5="550.00000" pt_clust_6="31.11973"></scales>
<mgrwt>
<rscale>  0 0.30000000E+03</rscale>
<asrwt>  1 0.31119731E+02</asrwt>
<pdfrwt beam="1">  1        1 0.82162200E+00 0.30000000E+03</pdfrwt>
<pdfrwt beam="2">0</pdfrwt>
<totfact> 0.71576564E-04</totfact>
</mgrwt>
<clustering>
<clus scale="   31.120">  1  6  2 -1</clus>
<clus scale="  464.739">  4  5 -1 -1</clus>
<clus scale="  300.000">  1  4  2 -1</clus>
</clustering>
</event>
<event>
 6    1  0.9964252E-012  0.3000000E+03  0.7818608E-02  0.1093470E+00
          1   -1    0    0  502    0  0.00000000000E+00  0.00000000000E+00  0.23118748106E+03  0.23118748106E+03  0.00000000000E+00 0.  1.
         13   -1    0    0    0    0 -0.00000000000E+00 -0.00000000000E+00 -0.27500000000E+03  0.27500000000E+03  0.00000000000E+00 0.  1.
    9000005    2    1    2  501    0  0.31586803504E+02 -0.17917944226E+02 -0.51368922043E+02  0.46909465010E+03  0.46485723155E+03 0.  0.
         13    1    3    3    0    0 -0.59415640318E+02  0.91053463668E+02  0.17255812309E+03  0.20395405709E+03  0.00000000000E+00 0.  1.
          1    1    3    3  501    0  0.91002443822E+02 -0.10897140789E+03 -0.22392704513E+03  0.26514059301E+03  0.00000000000E+00 0.  1.
         21    1    1    2  502  501 -0.31586803504E+02  0.17917944226E+02  0.75564031077E+01  0.37092830963E+02  0.00000000000E+00 0. -1.
<scales pt_clust_4="550.00000" pt_clust_5="550.00000" pt_clust_6="36.31500"></scales>
<mgrwt>
<rscale>  0 0.30000000E+03</rscale>
<asrwt>  1 0.36314995E+02</asrwt>
<pdfrwt beam="1">  1        1 0.84068175E+00 0.30000000E+03</pdfrwt>
<pdfrwt beam="2">0</pdfrwt>
<totfact> 0.48766202E-04</totfact>
</mgrwt>
<clustering>
<clus scale="   36.315">  1  6  2 -1</clus>
<clus scale="  464.857">  4  5 -1 -1</clus>
<clus scale="  300.000">  1  4  2 -1</clus>
</clustering>
</event>
<event>
 6    1  0.9964252E-012  0.3000000E+03  0.7818608E-02  0.1093470E+00
          1   -1    0    0  502    0  0.00000000000E+00  0.00000000000E+00  0.23247803936E+03  0.23247803936E+03  0.00000000000E+00 0.  1.
         13   -1    0    0    0    0 -0.00000000000E+00 -0.00000000000E+00 -0.27500000000E+03  0.27500000000E+03  0.00000000000E+00 0.  1.
    9000005    2    1    2  501    0 -0.29946150425E+02  0.98814112637E+01 -0.50728025566E+02  0.47489347682E+03  0.47112213654E+03 0.  0.
         13    1    3    3    0    0 -0.90829746156E+02 -0.21786719079E+03 -0.34997678784E+02  0.23862311944E+03  0.00000000000E+00 0.  1.
          3    1    3    3  501    0  0.60883595731E+02  0.22774860206E+03 -0.15730346782E+02  0.23627035738E+03  0.00000000000E+00 0.  1.
         21    1    1    2  502  501  0.29946150425E+02 -0.98814112637E+01  0.82060649220E+01  0.32584562531E+02  0.00000000000E+00 0.  1.
<scales pt_clust_4="550.00000" pt_clust_5="550.00000" pt_clust_6="31.53433"></scales>
<mgrwt>
<rscale>  0 0.30000000E+03</rscale>
<asrwt>  1 0.31534334E+02</asrwt>
<pdfrwt beam="1">  1        1 0.84537469E+00 0.30000000E+03</pdfrwt>
<pdfrwt beam="2">0</pdfrwt>
<totfact> 0.45733810E-04</totfact>
</mgrwt>
<clustering>
<clus scale="   31.534">  1  6  2 -1</clus>
<clus scale="  471.122">  4  5 -1 -1</clus>
<clus scale="  300.000">  1  4  2 -1</clus>
</clustering>
</event>
<event>
 6    1  0.9964252E-012  0.3000000E+03  0.7818608E-02  0.1093470E+00
          1   -1    0    0  502    0  0.00000000000E+00  0.00000000000E+00  0.22856168892E+03  0.22856168892E+03  0.00000000000E+00 0.  1.
         13   -1    0    0    0    0 -0.00000000000E+00 -0.00000000000E+00 -0.27500000000E+03  0.27500000000E+03  0.00000000000E+00 0.  1.
    9000005    2    1    2  501    0  0.30736602893E+02  0.26614037749E+01 -0.40165899530E+02  0.47207891627E+03  0.46935421791E+03 0.  0.
         13    1    3    3    0    0  0.19350254471E+03 -0.58301264099E+01  0.13253519120E+03  0.23461202460E+03  0.00000000000E+00 0.  1.
          1    1    3    3  501    0 -0.16276594181E+03  0.84915301848E+01 -0.17270109073E+03  0.23746689167E+03  0.00000000000E+00 0.  1.
         21    1    1    2  502  501 -0.30736602893E+02 -0.26614037749E+01 -0.62724115471E+01  0.31482772655E+02  0.00000000000E+00 0.  1.
<scales pt_clust_4="550.00000" pt_clust_5="550.00000" pt_clust_6="30.85163"></scales>
<mgrwt>
<rscale>  0 0.30000000E+03</rscale>
<asrwt>  1 0.30851625E+02</asrwt>
<pdfrwt beam="1">  1        1 0.83113341E+00 0.30000000E+03</pdfrwt>
<pdfrwt beam="2">0</pdfrwt>
<totfact> 0.59264444E-04</totfact>
</mgrwt>
<clustering>
<clus scale="   30.852">  1  6  2 -1</clus>
<clus scale="  469.354">  4  5 -1 -1</clus>
<clus scale="  300.000">  1  4  2 -1</clus>
</clustering>
</event>
<event>
 6    1  0.9964252E-012  0.3000000E+03  0.7818608E-02  0.1093470E+00
          1   -1    0    0  502    0  0.00000000000E+00  0.00000000000E+00  0.22137057554E+03  0.22137057554E+03  0.00000000000E+00 0.  1.
         13   -1    0    0    0    0 -0.00000000000E+00 -0.00000000000E+00 -0.27500000000E+03  0.27500000000E+03  0.00000000000E+00 0.  1.
    9000005    2    1    2  501    0  0.93633992291E+00  0.30115253541E+02 -0.50869895197E+02  0.46611466322E+03  0.46234978945E+03 0.  0.
         13    1    3    3    0    0  0.13218312848E+03 -0.84131172399E+02 -0.18788122197E+03  0.24464216152E+03  0.00000000000E+00 0.  1.
          1    1    3    3  501    0 -0.13124678856E+03  0.11424642594E+03  0.13701132677E+03  0.22147250170E+03  0.00000000000E+00 0.  1.
         21    1    1    2  502  501 -0.93633992291E+00 -0.30115253541E+02 -0.27595292659E+01  0.30255912315E+02  0.00000000000E+00 0. -1.
<scales pt_clust_4="550.00000" pt_clust_5="550.00000" pt_clust_6="30.12981"></scales>
<mgrwt>
<rscale>  0 0.30000000E+03</rscale>
<asrwt>  1 0.30129806E+02</asrwt>
<pdfrwt beam="1">  1        1 0.80498391E+00 0.30000000E+03</pdfrwt>
<pdfrwt beam="2">0</pdfrwt>
<totfact> 0.98069687E-04</totfact>
</mgrwt>
<clustering>
<clus scale="   30.130">  1  6  2 -1</clus>
<clus scale="  462.350">  4  5 -1 -1</clus>
<clus scale="  300.000">  1  4  2 -1</clus>
</clustering>
</event>
<event>
 6    1  0.9964252E-012  0.3000000E+03  0.7818608E-02  0.1093470E+00
          1   -1    0    0  502    0  0.00000000000E+00  0.00000000000E+00  0.23340619402E+03  0.23340619402E+03  0.00000000000E+00 0.  1.
         13   -1    0    0    0    0 -0.00000000000E+00 -0.00000000000E+00 -0.27500000000E+03  0.27500000000E+03  0.00000000000E+00 0.  1.
    9000005    2    1    2  501    0  0.17326108291E+02  0.27522646988E+02 -0.57764491196E+02  0.47208566008E+03  0.46740821974E+03 0.  0.
         13    1    3    3    0    0  0.50119349247E+01  0.15051036061E+03  0.16122788904E+03  0.22061940157E+03  0.00000000000E+00 0.  1.
          3    1    3    3  501    0  0.12314173367E+02 -0.12298771363E+03 -0.21899238023E+03  0.25146625851E+03  0.00000000000E+00 0.  1.
         21    1    1    2  502  501 -0.17326108291E+02 -0.27522646988E+02  0.16170685219E+02  0.36320533947E+02  0.00000000000E+00 0. -1.
<scales pt_clust_4="550.00000" pt_clust_5="550.00000" pt_clust_6="32.52215"></scales>
<mgrwt>
<rscale>  0 0.30000000E+03</rscale>
<asrwt>  1 0.32522148E+02</asrwt>
<pdfrwt beam="1">  1        1 0.84874980E+00 0.30000000E+03</pdfrwt>
<pdfrwt beam="2">0</pdfrwt>
<totfact> 0.42386633E-04</totfact>
</mgrwt>
<clustering>
<clus scale="   32.522">  1  6  2 -1</clus>
<clus scale="  467.408">  4  5 -1 -1</clus>
<clus scale="  300.000">  1  4  2 -1</clus>
</clustering>
</event>
<event>
 6    1  0.9964252E-012  0.3000000E+03  0.7818608E-02  0.1093470E+00
          1   -1    0    0  502    0  0.00000000000E+00  0.00000000000E+00  0.23975235634E+03  0.23975235634E+03  0.00000000000E+00 0.  1.
         13   -1    0    0    0    0 -0.00000000000E+00 -0.00000000000E+00 -0.27500000000E+03  0.27500000000E+03  0.00000000000E+00 0.  1.
    9000005    2    1    2  501    0  0.30606167336E+02 -0.22615012265E+02 -0.50680574599E+02  0.47368714459E+03  0.46942817773E+03 0.  0.
         13    1    3    3    0    0 -0.16289342315E+03  0.42541183578E+02 -0.16830354917E+03  0.23805483458E+03  0.00000000000E+00 0.  1.
          3    1    3    3  501    0  0.19349959048E+03 -0.65156195843E+02  0.11762297457E+03  0.23563231001E+03  0.00000000000E+00 0.  1.
         21    1    1    2  502  501 -0.30606167336E+02  0.22615012265E+02  0.15432930940E+02  0.41065211751E+02  0.00000000000E+00 0.  1.
<scales pt_clust_4="550.00000" pt_clust_5="550.00000" pt_clust_6="38.05491"></scales>
<mgrwt>
<rscale>  0 0.30000000E+03</rscale>
<asrwt>  1 0.38054911E+02</asrwt>
<pdfrwt beam="1">  1        1 0.87182675E+00 0.30000000E+03</pdfrwt>
<pdfrwt beam="2">0</pdfrwt>
<totfact> 0.23886531E-04</totfact>
</mgrwt>
<clustering>
<clus scale="   38.055">  1  6  2 -1</clus>
<clus scale="  469.428">  4  5 -1 -1</clus>
<clus scale="  300.000">  1  4  2 -1</clus>
</clustering>
</event>
<event>
 6    1  0.9964252E-012  0.3000000E+03  0.7818608E-02  0.1093470E+00
          1   -1    0    0  502    0  0.00000000000E+00  0.00000000000E+00  0.23853800242E+03  0.23853800242E+03  0.00000000000E+00 0.  1.
         13   -1    0    0    0    0 -0.00000000000E+00 -0.00000000000E+00 -0.27500000000E+03  0.27500000000E+03  0.00000000000E+00 0.  1.
    9000005    2    1    2  501    0  0.13949278450E+02 -0.41012720942E+02 -0.23336112438E+02  0.46827306555E+03  0.46568064608E+03 0.  0.
         13    1    3    3    0    0  0.10471038564E+03  0.17272916404E+03  0.75853290104E+02  0.21576225479E+03  0.00000000000E+00 0.  1.
          1    1    3    3  501    0 -0.90761107190E+02 -0.21374188499E+03 -0.99189402543E+02  0.25251081076E+03  0.00000000000E+00 0.  1.
         21    1    1    2  502  501 -0.13949278450E+02  0.41012720942E+02 -0.13125885146E+02  0.45264936862E+02  0.00000000000E+00 0.  1.
<scales pt_clust_4="550.00000" pt_clust_5="550.00000" pt_clust_6="43.32006"></scales>
<mgrwt>
<rscale>  0 0.30000000E+03</rscale>
<asrwt>  1 0.43320059E+02</asrwt>
<pdfrwt beam="1">  1        1 0.86741092E+00 0.30000000E+03</pdfrwt>
<pdfrwt beam="2">0</pdfrwt>
<totfact> 0.25899910E-04</totfact>
</mgrwt>
<clustering>
<clus scale="   43.320">  1  6  2 -1</clus>
<clus scale="  465.681">  4  5 -1 -1</clus>
<clus scale="  300.000">  1  4  2 -1</clus>
</clustering>
</event>
<event>
 6    1  0.9964252E-012  0.3000000E+03  0.7818608E-02  0.1093470E+00
          1   -1    0    0  502    0  0.00000000000E+00  0.00000000000E+00  0.25394628924E+03  0.25394628924E+03  0.00000000000E+00 0.  1.
         13   -1    0    0    0    0 -0.00000000000E+00 -0.00000000000E+00 -0.27500000000E+03  0.27500000000E+03  0.00000000000E+00 0.  1.
    9000005    2    1    2  501    0  0.49428430250E+02 -0.39227636315E+02 -0.33487732606E+02  0.46463002328E+03  0.45910527456E+03 0.  0.
         13    1    3    3    0    0 -0.83676483155E+02  0.10786978144E+03  0.14400956455E+03  0.19843487159E+03  0.00000000000E+00 0.  1.
          3    1    3    3  501    0  0.13310491341E+03 -0.14709741776E+03 -0.17749729716E+03  0.26619515169E+03  0.00000000000E+00 0.  1.
         21    1    1    2  502  501 -0.49428430250E+02  0.39227636315E+02  0.12434021850E+02  0.64316265961E+02  0.00000000000E+00 0. -1.
<scales pt_clust_4="550.00000" pt_clust_5="550.00000" pt_clust_6="63.10291"></scales>
<mgrwt>
<rscale>  0 0.30000000E+03</rscale>
<asrwt>  1 0.63102909E+02</asrwt>
<pdfrwt beam="1">  1        1 0.92344105E+00 0.30000000E+03</pdfrwt>
<pdfrwt beam="2">0</pdfrwt>
<totfact> 0.31818569E-05</totfact>
</mgrwt>
<clustering>
<clus scale="   63.103">  1  6  2 -1</clus>
<clus scale="  459.105">  4  5 -1 -1</clus>
<clus scale="  300.000">  1  4  2 -1</clus>
</clustering>
</event>
<event>
 6    1  0.9964252E-012  0.3000000E+03  0.7818608E-02  0.1093470E+00
          1   -1    0    0  502    0  0.00000000000E+00  0.00000000000E+00  0.22948702910E+03  0.22948702910E+03  0.00000000000E+00 0.  1.
         13   -1    0    0    0    0 -0.00000000000E+00 -0.00000000000E+00 -0.27500000000E+03  0.27500000000E+03  0.00000000000E+00 0.  1.
    9000005    2    1    2  501    0  0.26626610698E+02 -0.14750752828E+02 -0.65305263488E+02  0.46817868361E+03  0.46260127674E+03 0.  0.
         13    1    3    3    0    0 -0.65218460889E+02  0.15018397976E+03 -0.18312319829E+03  0.24564767690E+03  0.00000000000E+00 0.  1.
          3    1    3    3  501    0  0.91845071587E+02 -0.16493473258E+03  0.11781793480E+03  0.22253100671E+03  0.00000000000E+00 0.  1.
         21    1    1    2  502  501 -0.26626610698E+02  0.14750752828E+02  0.19792292589E+02  0.36308345490E+02  0.00000000000E+00 0. -1.
<scales pt_clust_4="550.00000" pt_clust_5="550.00000" pt_clust_6="30.43947"></scales>
<mgrwt>
<rscale>  0 0.30000000E+03</rscale>
<asrwt>  1 0.30439466E+02</asrwt>
<pdfrwt beam="1">  1        1 0.83449829E+00 0.30000000E+03</pdfrwt>
<pdfrwt beam="2">0</pdfrwt>
<totfact> 0.56021118E-04</totfact>
</mgrwt>
<clustering>
<clus scale="   30.439">  1  6  2 -1</clus>
<clus scale="  462.601">  4  5 -1 -1</clus>
<clus scale="  300.000">  1  4  2 -1</clus>
</clustering>
</event>
<event>
 6    1  0.9964252E-012  0.3000000E+03  0.7818608E-02  0.1093470E+00
          1   -1    0    0  502    0  0.00000000000E+00  0.00000000000E+00  0.22358153443E+03  0.22358153443E+03  0.00000000000E+00 0.  1.
         13   -1    0    0    0    0 -0.00000000000E+00 -0.00000000000E+00 -0.27500000000E+03  0.27500000000E+03  0.00000000000E+00 0.  1.
    9000005    2    1    2  501    0 -0.19907876212E+02  0.23506811554E+02 -0.67798329994E+02  0.46369323147E+03  0.45767445377E+03 0.  0.
         13    1    3    3    0    0 -0.20997919171E+03 -0.82175037025E+02  0.25748003254E+02  0.22695144268E+03  0.00000000000E+00 0.  1.
          3    1    3    3  501    0  0.19007131550E+03  0.10568184858E+03 -0.93546333248E+02  0.23674178879E+03  0.00000000000E+00 0.  1.
         21    1    1    2  502  501  0.19907876212E+02 -0.23506811554E+02  0.16379864420E+02  0.34888302956E+02  0.00000000000E+00 0.  1.
<scales pt_clust_4="550.00000" pt_clust_5="550.00000" pt_clust_6="30.80412"></scales>
<mgrwt>
<rscale>  0 0.30000000E+03</rscale>
<asrwt>  1 0.30804119E+02</asrwt>
<pdfrwt beam="1">  1        1 0.81302376E+00 0.30000000E+03</pdfrwt>
<pdfrwt beam="2">0</pdfrwt>
<totfact> 0.84582216E-04</totfact>
</mgrwt>
<clustering>
<clus scale="   30.804">  1  6  2 -1</clus>
<clus scale="  457.674">  4  5 -1 -1</clus>
<clus scale="  300.000">  1  4  2 -1</clus>
</clustering>
</event>
<event>
 6    1  0.9964252E-012  0.3000000E+03  0.7818608E-02  0.1093470E+00
          1   -1    0    0  502    0  0.00000000000E+00  0.00000000000E+00  0.24354576295E+03  0.24354576295E+03  0.00000000000E+00 0.  1.
         13   -1    0    0    0    0 -0.00000000000E+00 -0.00000000000E+00 -0.27500000000E+03  0.27500000000E+03  0.00000000000E+00 0.  1.
    9000005    2    1    2  501    0 -0.29620775612E+02 -0.56238037974E+01 -0.52466720925E+02  0.48179604192E+03  0.47798080682E+03 0.  0.
         13    1    3    3    0    0 -0.72447895292E+02  0.58458918068E+02 -0.25159827508E+03  0.26826821403E+03  0.00000000000E+00 0.  1.
          1    1    3    3  501    0  0.42827119680E+02 -0.64082721866E+02  0.19913155416E+03  0.21352782789E+03  0.00000000000E+00 0.  1.
         21    1    1    2  502  501  0.29620775612E+02  0.56238037974E+01  0.21012483874E+02  0.36749721027E+02  0.00000000000E+00 0.  1.
<scales pt_clust_4="550.00000" pt_clust_5="550.00000" pt_clust_6="30.14992"></scales>
<mgrwt>
<rscale>  0 0.30000000E+03</rscale>
<asrwt>  1 0.30149917E+02</asrwt>
<pdfrwt beam="1">  1        1 0.88562096E+00 0.30000000E+03</pdfrwt>
<pdfrwt beam="2">0</pdfrwt>
<totfact> 0.17118337E-04</totfact>
</mgrwt>
<clustering>
<clus scale="   30.150">  1  6  2 -1</clus>
<clus scale="  477.981">  4  5 -1 -1</clus>
<clus scale="  300.000">  1  4  2 -1</clus>
</clustering>
</event>
<event>
 6    1  0.9964252E-012  0.3000000E+03  0.7818608E-02  0.1093470E+00
          1   -1    0    0  502    0  0.00000000000E+00  0.00000000000E+00  0.24606701002E+03  0.24606701002E+03  0.00000000000E+00 0.  1.
         13   -1    0    0    0    0 -0.00000000000E+00 -0.00000000000E+00 -0.27500000000E+03  0.27500000000E+03  0.00000000000E+00 0.  1.
    9000005    2    1    2  501    0 -0.34341510450E+02 -0.82534423337E+01 -0.31037778441E+02  0.48568496959E+03  0.48340364846E+03 0.  0.
         13    1    3    3    0    0  0.44159167453E+02  0.16122024010E+03  0.15071755507E+03  0.22507283109E+03  0.00000000000E+00 0.  1.
          1    1    3    3  501    0 -0.78500677903E+02 -0.16947368244E+03 -0.18175533351E+03  0.26061213850E+03  0.00000000000E+00 0.  1.
         21    1    1    2  502  501  0.34341510450E+02  0.82534423337E+01  0.21047884576E+01  0.35382040427E+02  0.00000000000E+00 0.  1.
<scales pt_clust_4="550.00000" pt_clust_5="550.00000" pt_clust_6="35.31938"></scales>
<mgrwt>
<rscale>  0 0.30000000E+03</rscale>
<asrwt>  1 0.35319381E+02</asrwt>
<pdfrwt beam="1">  1        1 0.89478913E+00 0.30000000E+03</pdfrwt>
<pdfrwt beam="2">0</pdfrwt>
<totfact> 0.12656715E-04</totfact>
</mgrwt>
<clustering>
<clus scale="   35.319">  1  6  2 -1</clus>
<clus scale="  483.404">  4  5 -1 -1</clus>
<clus scale="  300.000">  1  4  2 -1</clus>
</clustering>
</event>
<event>
 6    1  0.9964252E-012  0.3000000E+03  0.7818608E-02  0.1093470E+00
          1   -1    0    0  502    0  0.00000000000E+00  0.00000000000E+00  0.23103455641E+03  0.23103455641E+03  0.00000000000E+00 0.  1.
         13   -1    0    0    0    0 -0.00000000000E+00 -0.00000000000E+00 -0.27500000000E+03  0.27500000000E+03  0.00000000000E+00 0.  1.
    9000005    2    1    2  501    0 -0.11389083334E+02  0.35648948921E+02 -0.49758978247E+02  0.46816472908E+03  0.46400614097E+03 0.  0.
         13    1    3    3    0    0 -0.14474356256E+03  0.15136650052E+03  0.10418386504E+03  0.23391621174E+03  0.00000000000E+00 0.  1.
          3    1    3    3  501    0  0.13335447923E+03 -0.11571755160E+03 -0.15394284328E+03  0.23424851734E+03  0.00000000000E+00 0.  1.
         21    1    1    2  502  501  0.11389083334E+02 -0.35648948921E+02  0.57935346618E+01  0.37869827333E+02  0.00000000000E+00 0. -1.
<scales pt_clust_4="550.00000" pt_clust_5="550.00000" pt_clust_6="37.42404"></scales>
<mgrwt>
<rscale>  0 0.30000000E+03</rscale>
<asrwt>  1 0.37424040E+02</asrwt>
<pdfrwt beam="1">  1        1 0.84012566E+00 0.30000000E+03</pdfrwt>
<pdfrwt beam="2">0</pdfrwt>
<totfact> 0.48980193E-04</totfact>
</mgrwt>
<clustering>
<clus scale="   37.424">  1  6  2 -1</clus>
<clus scale="  464.006">  4  5 -1 -1</clus>
<clus scale="  300.000">  1  4  2 -1</clus>
</clustering>
</event>
<event>
 6    1  0.9964252E-012  0.3000000E+03  0.7818608E-02  0.1093470E+00
          1   -1    0    0  502    0  0.00000000000E+00  0.00000000000E+00  0.23571568645E+03  0.23571568645E+03  0.00000000000E+00 0.  1.
         13   -1    0    0    0    0 -0.00000000000E+00 -0.00000000000E+00 -0.27500000000E+03  0.27500000000E+03  0.00000000000E+00 0.  1.
    9000005    2    1    2  501    0 -0.28636335841E+02 -0.10209329679E+02 -0.59039618032E+02  0.47445907053E+03  0.46978874291E+03 0.  0.
         13    1    3    3    0    0 -0.85707956560E+02  0.21866199069E+03 -0.32235687483E+02  0.23706129912E+03  0.00000000000E+00 0.  1.
          1    1    3    3  501    0  0.57071620719E+02 -0.22887132037E+03 -0.26803930549E+02  0.23739777141E+03  0.00000000000E+00 0.  1.
         21    1    1    2  502  501  0.28636335841E+02  0.10209329679E+02  0.19755304481E+02  0.36256615921E+02  0.00000000000E+00 0.  1.
<scales pt_clust_4="550.00000" pt_clust_5="550.00000" pt_clust_6="30.40181"></scales>
<mgrwt>
<rscale>  0 0.30000000E+03</rscale>
<asrwt>  1 0.30401812E+02</asrwt>
<pdfrwt beam="1">  1        1 0.85714795E+00 0.30000000E+03</pdfrwt>
<pdfrwt beam="2">0</pdfrwt>
<totfact> 0.35593289E-04</totfact>
</mgrwt>
<clustering>
<clus scale="   30.402">  1  6  2 -1</clus>
<clus scale="  469.789">  4  5 -1 -1</clus>
<clus scale="  300.000">  1  4  2 -1</clus>
</clustering>
</event>
<event>
 6    1  0.9964252E-012  0.3000000E+03  0.7818608E-02  0.1093470E+00
          1   -1    0    0  502    0  0.00000000000E+00  0.00000000000E+00  0.25921332668E+03  0.25921332668E+03  0.00000000000E+00 0.  1.
         13   -1    0    0    0    0 -0.00000000000E+00 -0.00000000000E+00 -0.27500000000E+03  0.27500000000E+03  0.00000000000E+00 0.  1.
    9000005    2    1    2  501    0 -0.55351944782E+02 -0.25846398853E+02 -0.18333694458E+02  0.47307118539E+03  0.46875190450E+03 0.  0.
         13    1    3    3    0    0  0.37081552528E+02  0.41861290660E+02 -0.22766542706E+03  0.23443326528E+03  0.00000000000E+00 0.  1.
          3    1    3    3  501    0 -0.92433497310E+02 -0.67707689513E+02  0.20933173260E+03  0.23863792011E+03  0.00000000000E+00 0.  1.
         21    1    1    2  502  501  0.55351944782E+02  0.25846398853E+02  0.25470211426E+01  0.61142141290E+02  0.00000000000E+00 0.  1.
<scales pt_clust_4="550.00000" pt_clust_5="550.00000" pt_clust_6="61.08907"></scales>
<mgrwt>
<rscale>  0 0.30000000E+03</rscale>
<asrwt>  1 0.61089067E+02</asrwt>
<pdfrwt beam="1">  1        1 0.94259392E+00 0.30000000E+03</pdfrwt>
<pdfrwt beam="2">0</pdfrwt>
<totfact> 0.15623833E-05</totfact>
</mgrwt>
<clustering>
<clus scale="   61.089">  1  6  2 -1</clus>
<clus scale="  468.752">  4  5 -1 -1</clus>
<clus scale="  300.000">  1  4  2 -1</clus>
</clustering>
</event>
<event>
 6    1  0.9964252E-012  0.3000000E+03  0.7818608E-02  0.1093470E+00
          1   -1    0    0  502    0  0.00000000000E+00  0.00000000000E+00  0.23725479894E+03  0.23725479894E+03  0.00000000000E+00 0.  1.
         13   -1    0    0    0    0 -0.00000000000E+00 -0.00000000000E+00 -0.27500000000E+03  0.27500000000E+03  0.00000000000E+00 0.  1.
    9000005    2    1    2  501    0  0.20297915883E+02 -0.36288407295E+02 -0.40408687592E+02  0.47059008901E+03  0.46700462090E+03 0.  0.
         13    1    3    3    0    0 -0.12519800715E+03 -0.84680661170E+02 -0.19906768754E+03  0.24994659348E+03  0.00000000000E+00 0.  1.
          3    1    3    3  501    0  0.14549592303E+03  0.48392253875E+02  0.15865899994E+03  0.22064349553E+03  0.00000000000E+00 0.  1.
         21    1    1    2  502  501 -0.20297915883E+02  0.36288407295E+02  0.26634865287E+01  0.41664709931E+02  0.00000000000E+00 0.  1.
<scales pt_clust_4="550.00000" pt_clust_5="550.00000" pt_clust_6="41.57949"></scales>
<mgrwt>
<rscale>  0 0.30000000E+03</rscale>
<asrwt>  1 0.41579489E+02</asrwt>
<pdfrwt beam="1">  1        1 0.86274472E+00 0.30000000E+03</pdfrwt>
<pdfrwt beam="2">0</pdfrwt>
<totfact> 0.29275967E-04</totfact>
</mgrwt>
<clustering>
<clus scale="   41.579">  1  6  2 -1</clus>
<clus scale="  467.005">  4  5 -1 -1</clus>
<clus scale="  300.000">  1  4  2 -1</clus>
</clustering>
</event>
<event>
 6    1  0.9964252E-012  0.3000000E+03  0.7818608E-02  0.1093470E+00
          1   -1    0    0  502    0  0.00000000000E+00  0.00000000000E+00  0.23575259931E+03  0.23575259931E+03  0.00000000000E+00 0.  1.
         13   -1    0    0    0    0 -0.00000000000E+00 -0.00000000000E+00 -0.27500000000E+03  0.27500000000E+03  0.00000000000E+00 0.  1.
    9000005    2    1    2  501    0  0.32639656180E+02  0.22445192035E+02 -0.62577135941E+02  0.46478075632E+03  0.45884215118E+03 0.  0.
         13    1    3    3    0    0  0.85259165904E+01 -0.34612406680E+02  0.19583251789E+03  0.19905045846E+03  0.00000000000E+00 0.  1.
          1    1    3    3  501    0  0.24113739590E+02  0.57057598715E+02 -0.25840965383E+03  0.26573029786E+03  0.00000000000E+00 0.  1.
         21    1    1    2  502  501 -0.32639656180E+02 -0.22445192035E+02  0.23329735248E+02  0.45971842989E+02  0.00000000000E+00 0. -1.
<scales pt_clust_4="550.00000" pt_clust_5="550.00000" pt_clust_6="39.61229"></scales>
<mgrwt>
<rscale>  0 0.30000000E+03</rscale>
<asrwt>  1 0.39612294E+02</asrwt>
<pdfrwt beam="1">  1        1 0.85728218E+00 0.30000000E+03</pdfrwt>
<pdfrwt beam="2">0</pdfrwt>
<totfact> 0.33763574E-04</totfact>
</mgrwt>
<clustering>
<clus scale="   39.612">  1  6  2 -1</clus>
<clus scale="  458.842">  4  5 -1 -1</clus>
<clus scale="  300.000">  1  4  2 -1</clus>
</clustering>
</event>
<event>
 6    1  0.9964252E-012  0.3000000E+03  0.7818608E-02  0.1093470E+00
          1   -1    0    0  502    0  0.00000000000E+00  0.00000000000E+00  0.23035174165E+03  0.23035174165E+03  0.00000000000E+00 0.  1.
         13   -1    0    0    0    0 -0.00000000000E+00 -0.00000000000E+00 -0.27500000000E+03  0.27500000000E+03  0.00000000000E+00 0.  1.
    9000005    2    1    2  501    0  0.35790528083E+02  0.14604208482E+02 -0.34366781284E+02  0.46535232195E+03  0.46246887796E+03 0.  0.
         13    1    3    3    0    0 -0.17357341346E+03 -0.12370632567E+03 -0.14137804610E+02  0.21361381601E+03  0.00000000000E+00 0.  1.
          3    1    3    3  501    0  0.20936394154E+03  0.13831053415E+03 -0.20228976674E+02  0.25173850594E+03  0.00000000000E+00 0.  1.
         21    1    1    2  502  501 -0.35790528083E+02 -0.14604208482E+02 -0.10281477067E+02  0.39999419702E+02  0.00000000000E+00 0.  1.
<scales pt_clust_4="550.00000" pt_clust_5="550.00000" pt_clust_6="38.65548"></scales>
<mgrwt>
<rscale>  0 0.30000000E+03</rscale>
<asrwt>  1 0.38655482E+02</asrwt>
<pdfrwt beam="1">  1        1 0.83764270E+00 0.30000000E+03</pdfrwt>
<pdfrwt beam="2">0</pdfrwt>
<totfact> 0.50813630E-04</totfact>
</mgrwt>
<clustering>
<clus scale="   38.655">  1  6  2 -1</clus>
<clus scale="  462.469">  4  5 -1 -1</clus>
<clus scale="  300.000">  1  4  2 -1</clus>
</clustering>
</event>
<event>
 6    1  0.9964252E-012  0.3000000E+03  0.7818608E-02  0.1093470E+00
          1   -1    0    0  502    0  0.00000000000E+00  0.00000000000E+00  0.22933938081E+03  0.22933938081E+03  0.00000000000E+00 0.  1.
         13   -1    0    0    0    0 -0.00000000000E+00 -0.00000000000E+00 -0.27500000000E+03  0.27500000000E+03  0.00000000000E+00 0.  1.
    9000005    2    1    2  501    0  0.28553590602E+02  0.13274073478E+02 -0.27899800370E+02  0.46818754478E+03  0.46629354453E+03 0.  0.
         13    1    3    3    0    0 -0.12889400796E+03 -0.15211743883E+03  0.80988990400E+02  0.21520361765E+03  0.00000000000E+00 0.  1.
          1    1    3    3  501    0  0.15744759856E+03  0.16539151230E+03 -0.10888879077E+03  0.25298392714E+03  0.00000000000E+00 0.  1.
         21    1    1    2  502  501 -0.28553590602E+02 -0.13274073478E+02 -0.17760818819E+02  0.36151836027E+02  0.00000000000E+00 0.  1.
<scales pt_clust_4="550.00000" pt_clust_5="550.00000" pt_clust_6="31.48824"></scales>
<mgrwt>
<rscale>  0 0.30000000E+03</rscale>
<asrwt>  1 0.31488245E+02</asrwt>
<pdfrwt beam="1">  1        1 0.83396138E+00 0.30000000E+03</pdfrwt>
<pdfrwt beam="2">0</pdfrwt>
<totfact> 0.56168406E-04</totfact>
</mgrwt>
<clustering>
<clus scale="   31.488">  1  6  2 -1</clus>
<clus scale="  466.294">  4  5 -1 -1</clus>
<clus scale="  300.000">  1  4  2 -1</clus>
</clustering>
</event>
<event>
 6    1  0.9964252E-012  0.3000000E+03  0.7818608E-02  0.1093470E+00
          1   -1    0    0  502    0  0.00000000000E+00  0.00000000000E+00  0.23900728202E+03  0.23900728202E+03  0.00000000000E+00 0.  1.
         13   -1    0    0    0    0 -0.00000000000E+00 -0.00000000000E+00 -0.27500000000E+03  0.27500000000E+03  0.00000000000E+00 0.  1.
    9000005    2    1    2  501    0 -0.36891927355E+02 -0.18405445172E+02 -0.31883729484E+02  0.47257470423E+03  0.46969192473E+03 0.  0.
         13    1    3    3    0    0  0.17425812673E+03 -0.12636301731E+03 -0.81727365244E+02  0.23024523688E+03  0.00000000000E+00 0.  1.
          1    1    3    3  501    0 -0.21115005409E+03  0.10795757214E+03  0.49843635760E+02  0.24232946735E+03  0.00000000000E+00 0.  1.
         21    1    1    2  502  501  0.36891927355E+02  0.18405445172E+02 -0.41089884953E+01  0.41432577791E+02  0.00000000000E+00 0. -1.
<scales pt_clust_4="550.00000" pt_clust_5="550.00000" pt_clust_6="41.22834"></scales>
<mgrwt>
<rscale>  0 0.30000000E+03</rscale>
<asrwt>  1 0.41228345E+02</asrwt>
<pdfrwt beam="1">  1        1 0.86911739E+00 0.30000000E+03</pdfrwt>
<pdfrwt beam="2">0</pdfrwt>
<totfact> 0.25089696E-04</totfact>
</mgrwt>
<clustering>
<clus scale="   41.228">  1  6  2 -1</clus>
<clus scale="  469.692">  4  5 -1 -1</clus>
<clus scale="  300.000">  1  4  2 -1</clus>
</clustering>
</event>
<event>
 6    1  0.9964252E-012  0.3000000E+03  0.7818608E-02  0.1093470E+00
          1   -1    0    0  502    0  0.00000000000E+00  0.00000000000E+00  0.23253955489E+03  0.23253955489E+03  0.00000000000E+00 0.  1.
         13   -1    0    0    0    0 -0.00000000000E+00 -0.00000000000E+00 -0.27500000000E+03  0.27500000000E+03  0.00000000000E+00 0.  1.
    9000005    2    1    2  501    0  0.30125091860E+02 -0.16919034453E+02 -0.67725714157E+02  0.46473641591E+03  0.45847506915E+03 0.  0.
         13    1    3    3    0    0 -0.29449965835E+02 -0.22665232941E+03  0.20622798844E+02  0.22948611886E+03  0.00000000000E+00 0.  1.
          3    1    3    3  501    0  0.59575057695E+02  0.20973329496E+03 -0.88348513001E+02  0.23525029705E+03  0.00000000000E+00 0.  1.
         21    1    1    2  502  501 -0.30125091860E+02  0.16919034453E+02  0.25265269045E+02  0.42803138977E+02  0.00000000000E+00 0. -1.
<scales pt_clust_4="550.00000" pt_clust_5="550.00000" pt_clust_6="34.55105"></scales>
<mgrwt>
<rscale>  0 0.30000000E+03</rscale>
<asrwt>  1 0.34551048E+02</asrwt>
<pdfrwt beam="1">  1        1 0.84559838E+00 0.30000000E+03</pdfrwt>
<pdfrwt beam="2">0</pdfrwt>
<totfact> 0.44747098E-04</totfact>
</mgrwt>
<clustering>
<clus scale="   34.551">  1  6  2 -1</clus>
<clus scale="  458.475">  4  5 -1 -1</clus>
<clus scale="  300.000">  1  4  2 -1</clus>
</clustering>
</event>
<event>
 6    1  0.9964252E-012  0.3000000E+03  0.7818608E-02  0.1093470E+00
          1   -1    0    0  502    0  0.00000000000E+00  0.00000000000E+00  0.22007624604E+03  0.22007624604E+03  0.00000000000E+00 0.  1.
         13   -1    0    0    0    0 -0.00000000000E+00 -0.00000000000E+00 -0.27500000000E+03  0.27500000000E+03  0.00000000000E+00 0.  1.
    9000005    2    1    2  501    0 -0.11531072775E+02  0.28735746762E+02 -0.49160887692E+02  0.46358149396E+03  0.45992640702E+03 0.  0.
         13    1    3    3    0    0  0.15665388527E+03  0.99417661470E+02 -0.16432008056E+03  0.24784148171E+03  0.00000000000E+00 0.  1.
          1    1    3    3  501    0 -0.16818495805E+03 -0.70681914708E+02  0.11515919287E+03  0.21574001224E+03  0.00000000000E+00 0.  1.
         21    1    1    2  502  501  0.11531072775E+02 -0.28735746762E+02 -0.57628662662E+01  0.31494752085E+02  0.00000000000E+00 0.  1.
<scales pt_clust_4="550.00000" pt_clust_5="550.00000" pt_clust_6="30.96304"></scales>
<mgrwt>
<rscale>  0 0.30000000E+03</rscale>
<asrwt>  1 0.30963038E+02</asrwt>
<pdfrwt beam="1">  1        1 0.80027726E+00 0.30000000E+03</pdfrwt>
<pdfrwt beam="2">0</pdfrwt>
<totfact> 0.10564616E-03</totfact>
</mgrwt>
<clustering>
<clus scale="   30.963">  1  6  2 -1</clus>
<clus scale="  459.926">  4  5 -1 -1</clus>
<clus scale="  300.000">  1  4  2 -1</clus>
</clustering>
</event>
<event>
 6    1  0.9964252E-012  0.3000000E+03  0.7818608E-02  0.1093470E+00
          1   -1    0    0  502    0  0.00000000000E+00  0.00000000000E+00  0.25092107870E+03  0.25092107870E+03  0.00000000000E+00 0.  1.
         13   -1    0    0    0    0 -0.00000000000E+00 -0.00000000000E+00 -0.27500000000E+03  0.27500000000E+03  0.00000000000E+00 0.  1.
    9000005    2    1    2  501    0 -0.24078106911E+02  0.25021129214E+02 -0.67363072611E+02  0.47042936856E+03  0.46428460573E+03 0.  0.
         13    1    3    3    0    0 -0.17521347563E+03  0.17103887515E+03 -0.85846215251E+02  0.25946797785E+03  0.00000000000E+00 0.  1.
          3    1    3    3  501    0  0.15113536872E+03 -0.14601774594E+03  0.18483142640E+02  0.21096139071E+03  0.00000000000E+00 0.  1.
         21    1    1    2  502  501  0.24078106911E+02 -0.25021129214E+02  0.43284151316E+02  0.55491710144E+02  0.00000000000E+00 0.  1.
<scales pt_clust_4="550.00000" pt_clust_5="550.00000" pt_clust_6="34.72481"></scales>
<mgrwt>
<rscale>  0 0.30000000E+03</rscale>
<asrwt>  1 0.34724806E+02</asrwt>
<pdfrwt beam="1">  1        1 0.91244029E+00 0.30000000E+03</pdfrwt>
<pdfrwt beam="2">0</pdfrwt>
<totfact> 0.62593488E-05</totfact>
</mgrwt>
<clustering>
<clus scale="   34.725">  1  6  2 -1</clus>
<clus scale="  464.285">  4  5 -1 -1</clus>
<clus scale="  300.000">  1  4  2 -1</clus>
</clustering>
</event>
<event>
 6    1  0.9964252E-012  0.3000000E+03  0.7818608E-02  0.1093470E+00
          1   -1    0    0  502    0  0.00000000000E+00  0.00000000000E+00  0.24393065679E+03  0.24393065679E+03  0.00000000000E+00 0.  1.
         13   -1    0    0    0    0 -0.00000000000E+00 -0.00000000000E+00 -0.27500000000E+03  0.27500000000E+03  0.00000000000E+00 0.  1.
    9000005    2    1    2  501    0  0.28336740909E+02  0.23343548479E+02 -0.50100171133E+02  0.47757773002E+03  0.47352145561E+03 0.  0.
         13    1    3    3    0    0  0.13353553927E+03 -0.16171873674E+03 -0.13387715062E+03  0.24881274389E+03  0.00000000000E+00 0.  1.
          3    1    3    3  501    0 -0.10519879836E+03  0.18506228522E+03  0.83776979490E+02  0.22876498613E+03  0.00000000000E+00 0.  1.
         21    1    1    2  502  501 -0.28336740909E+02 -0.23343548479E+02  0.19030827922E+02  0.41352926769E+02  0.00000000000E+00 0. -1.
<scales pt_clust_4="550.00000" pt_clust_5="550.00000" pt_clust_6="36.71365"></scales>
<mgrwt>
<rscale>  0 0.30000000E+03</rscale>
<asrwt>  1 0.36713651E+02</asrwt>
<pdfrwt beam="1">  1        1 0.88702057E+00 0.30000000E+03</pdfrwt>
<pdfrwt beam="2">0</pdfrwt>
<totfact> 0.15775680E-04</totfact>
</mgrwt>
<clustering>
<clus scale="   36.714">  1  6  2 -1</clus>
<clus scale="  473.521">  4  5 -1 -1</clus>
<clus scale="  300.000">  1  4  2 -1</clus>
</clustering>
</event>
<event>
 6    1  0.9964252E-012  0.3000000E+03  0.7818608E-02  0.1093470E+00
          1   -1    0    0  502    0  0.00000000000E+00  0.00000000000E+00  0.22215536978E+03  0.22215536978E+03  0.00000000000E+00 0.  1.
         13   -1    0    0    0    0 -0.00000000000E+00 -0.00000000000E+00 -0.27500000000E+03  0.27500000000E+03  0.00000000000E+00 0.  1.
    9000005    2    1    2  501    0 -0.13946749284E+02  0.26856721051E+02 -0.57940853247E+02  0.46646715103E+03  0.46186433639E+03 0.  0.
         13    1    3    3    0    0 -0.20503670064E+03 -0.42443652955E+02  0.76322092759E+02  0.22285998772E+03  0.00000000000E+00 0.  1.
          1    1    3    3  501    0  0.19108995135E+03  0.69300374006E+02 -0.13426294601E+03  0.24360716331E+03  0.00000000000E+00 0.  1.
         21    1    1    2  502  501  0.13946749284E+02 -0.26856721051E+02  0.50962230315E+01  0.30688218755E+02  0.00000000000E+00 0. -1.
<scales pt_clust_4="550.00000" pt_clust_5="550.00000" pt_clust_6="30.26211"></scales>
<mgrwt>
<rscale>  0 0.30000000E+03</rscale>
<asrwt>  1 0.30262110E+02</asrwt>
<pdfrwt beam="1">  1        1 0.80783771E+00 0.30000000E+03</pdfrwt>
<pdfrwt beam="2">0</pdfrwt>
<totfact> 0.93180819E-04</totfact>
</mgrwt>
<clustering>
<clus scale="   30.262">  1  6  2 -1</clus>
<clus scale="  461.864">  4  5 -1 -1</clus>
<clus scale="  300.000">  1  4  2 -1</clus>
</clustering>
</event>
<event>
 6    1  0.9964252E-012  0.3000000E+03  0.7818608E-02  0.1093470E+00
          1   -1    0    0  502    0  0.00000000000E+00  0.00000000000E+00  0.23058975814E+03  0.23058975814E+03  0.00000000000E+00 0.  1.
         13   -1    0    0    0    0 -0.00000000000E+00 -0.00000000000E+00 -0.27500000000E+03  0.27500000000E+03  0.00000000000E+00 0.  1.
    9000005    2    1    2  501    0  0.13827385649E+02  0.32863967102E+02 -0.57164654794E+02  0.46772272793E+03  0.46284502324E+03 0.  0.
         13    1    3    3    0    0  0.33698877819E+02  0.16983607389E+03 -0.20290079021E+03  0.26673701848E+03  0.00000000000E+00 0.  1.
          3    1    3    3  501    0 -0.19871492170E+02 -0.13697210679E+03  0.14573613541E+03  0.20098570945E+03  0.00000000000E+00 0.  1.
         21    1    1    2  502  501 -0.13827385649E+02 -0.32863967102E+02  0.12754412935E+02  0.37867030209E+02  0.00000000000E+00 0.  1.
<scales pt_clust_4="550.00000" pt_clust_5="550.00000" pt_clust_6="35.65441"></scales>
<mgrwt>
<rscale>  0 0.30000000E+03</rscale>
<asrwt>  1 0.35654410E+02</asrwt>
<pdfrwt beam="1">  1        1 0.83850821E+00 0.30000000E+03</pdfrwt>
<pdfrwt beam="2">0</pdfrwt>
<totfact> 0.50829366E-04</totfact>
</mgrwt>
<clustering>
<clus scale="   35.654">  1  6  2 -1</clus>
<clus scale="  462.845">  4  5 -1 -1</clus>
<clus scale="  300.000">  1  4  2 -1</clus>
</clustering>
</event>
<event>
 6    1  0.9964252E-012  0.3000000E+03  0.7818608E-02  0.1093470E+00
          1   -1    0    0  502    0  0.00000000000E+00  0.00000000000E+00  0.22282249631E+03  0.22282249631E+03  0.00000000000E+00 0.  1.
         13   -1    0    0    0    0 -0.00000000000E+00 -0.00000000000E+00 -0.27500000000E+03  0.27500000000E+03  0.00000000000E+00 0.  1.
    9000005    2    1    2  501    0  0.23097378373E+02 -0.19578209796E+02 -0.50507716732E+02  0.46749786317E+03  0.46377411251E+03 0.  0.
         13    1    3    3    0    0  0.67708658389E+02  0.20510833390E+03  0.42723166281E+02  0.22017983558E+03  0.00000000000E+00 0.  1.
          1    1    3    3  501    0 -0.44611280016E+02 -0.22468654370E+03 -0.93230883013E+02  0.24731802759E+03  0.00000000000E+00 0.  1.
         21    1    1    2  502  501 -0.23097378373E+02  0.19578209796E+02 -0.16697869614E+01  0.30324633139E+02  0.00000000000E+00 0. -1.
<scales pt_clust_4="550.00000" pt_clust_5="550.00000" pt_clust_6="30.27863"></scales>
<mgrwt>
<rscale>  0 0.30000000E+03</rscale>
<asrwt>  1 0.30278626E+02</asrwt>
<pdfrwt beam="1">  1        1 0.81026362E+00 0.30000000E+03</pdfrwt>
<pdfrwt beam="2">0</pdfrwt>
<totfact> 0.89220471E-04</totfact>
</mgrwt>
<clustering>
<clus scale="   30.279">  1  6  2 -1</clus>
<clus scale="  463.774">  4  5 -1 -1</clus>
<clus scale="  300.000">  1  4  2 -1</clus>
</clustering>
</event>
<event>
 6    1  0.9964252E-012  0.3000000E+03  0.7818608E-02  0.1093470E+00
          1   -1    0    0  502    0  0.00000000000E+00  0.00000000000E+00  0.24935723286E+03  0.24935723286E+03  0.00000000000E+00 0.  1.
         13   -1    0    0    0    0 -0.00000000000E+00 -0.00000000000E+00 -0.27500000000E+03  0.27500000000E+03  0.00000000000E+00 0.  1.
    9000005    2    1    2  501    0  0.29363549805E+02 -0.64356525076E+01 -0.31852050495E+02  0.49366210491E+03  0.49171545127E+03 0.  0.
         13    1    3    3    0    0 -0.20468543656E+03  0.88309523083E+02  0.49555264238E+02  0.22836467332E+03  0.00000000000E+00 0.  1.
          3    1    3    3  501    0  0.23404898636E+03 -0.94745175591E+02 -0.81407314733E+02  0.26529743159E+03  0.00000000000E+00 0.  1.
         21    1    1    2  502  501 -0.29363549805E+02  0.64356525076E+01  0.62092833562E+01  0.30695127954E+02  0.00000000000E+00 0.  1.
<scales pt_clust_4="550.00000" pt_clust_5="550.00000" pt_clust_6="30.06053"></scales>
<mgrwt>
<rscale>  0 0.30000000E+03</rscale>
<asrwt>  1 0.30060534E+02</asrwt>
<pdfrwt beam="1">  1        1 0.90675357E+00 0.30000000E+03</pdfrwt>
<pdfrwt beam="2">0</pdfrwt>
<totfact> 0.87766422E-05</totfact>
</mgrwt>
<clustering>
<clus scale="   30.061">  1  6  2 -1</clus>
<clus scale="  491.715">  4  5 -1 -1</clus>
<clus scale="  300.000">  1  4  2 -1</clus>
</clustering>
</event>
<event>
 6    1  0.9964252E-012  0.3000000E+03  0.7818608E-02  0.1093470E+00
          1   -1    0    0  502    0  0.00000000000E+00  0.00000000000E+00  0.23089541221E+03  0.23089541221E+03  0.00000000000E+00 0.  1.
         13   -1    0    0    0    0 -0.00000000000E+00 -0.00000000000E+00 -0.27500000000E+03  0.27500000000E+03  0.00000000000E+00 0.  1.
    9000005    2    1    2  501    0 -0.17824763060E+02 -0.28200051066E+02 -0.52616438738E+02  0.47146553180E+03  0.46733103149E+03 0.  0.
         13    1    3    3    0    0  0.29901398130E+02 -0.23419053236E+03  0.42027729563E+02  0.23980331339E+03  0.00000000000E+00 0.  1.
          1    1    3    3  501    0 -0.47726161190E+02  0.20599048130E+03 -0.94644168301E+02  0.23166221841E+03  0.00000000000E+00 0.  1.
         21    1    1    2  502  501  0.17824763060E+02  0.28200051066E+02  0.85118509451E+01  0.34429880406E+02  0.00000000000E+00 0. -1.
<scales pt_clust_4="550.00000" pt_clust_5="550.00000" pt_clust_6="33.36113"></scales>
<mgrwt>
<rscale>  0 0.30000000E+03</rscale>
<asrwt>  1 0.33361131E+02</asrwt>
<pdfrwt beam="1">  1        1 0.83961968E+00 0.30000000E+03</pdfrwt>
<pdfrwt beam="2">0</pdfrwt>
<totfact> 0.50490280E-04</totfact>
</mgrwt>
<clustering>
<clus scale="   33.361">  1  6  2 -1</clus>
<clus scale="  467.331">  4  5 -1 -1</clus>
<clus scale="  300.000">  1  4  2 -1</clus>
</clustering>
</event>
<event>
 6    1  0.9964252E-012  0.3000000E+03  0.7818608E-02  0.1093470E+00
          1   -1    0    0  502    0  0.00000000000E+00  0.00000000000E+00  0.22997645982E+03  0.22997645982E+03  0.00000000000E+00 0.  1.
         13   -1    0    0    0    0 -0.00000000000E+00 -0.00000000000E+00 -0.27500000000E+03  0.27500000000E+03  0.00000000000E+00 0.  1.
    9000005    2    1    2  501    0  0.70428627563E+01 -0.38499327567E+02 -0.33722205615E+02  0.46423924953E+03  0.46135571256E+03 0.  0.
         13    1    3    3    0    0  0.11552542116E+03  0.83054653924E+02  0.15801307258E+03  0.21263191101E+03  0.00000000000E+00 0.  1.
          1    1    3    3  501    0 -0.10848255841E+03 -0.12155398149E+03 -0.19173527819E+03  0.25160733852E+03  0.00000000000E+00 0.  1.
         21    1    1    2  502  501 -0.70428627563E+01  0.38499327567E+02 -0.11301334568E+02  0.40737210287E+02  0.00000000000E+00 0.  1.
<scales pt_clust_4="550.00000" pt_clust_5="550.00000" pt_clust_6="39.13824"></scales>
<mgrwt>
<rscale>  0 0.30000000E+03</rscale>
<asrwt>  1 0.39138238E+02</asrwt>
<pdfrwt beam="1">  1        1 0.83627804E+00 0.30000000E+03</pdfrwt>
<pdfrwt beam="2">0</pdfrwt>
<totfact> 0.51869717E-04</totfact>
</mgrwt>
<clustering>
<clus scale="   39.138">  1  6  2 -1</clus>
<clus scale="  461.356">  4  5 -1 -1</clus>
<clus scale="  300.000">  1  4  2 -1</clus>
</clustering>
</event>
<event>
 6    1  0.9964252E-012  0.3000000E+03  0.7818608E-02  0.1093470E+00
          1   -1    0    0  502    0  0.00000000000E+00  0.00000000000E+00  0.23302138259E+03  0.23302138259E+03  0.00000000000E+00 0.  1.
         13   -1    0    0    0    0 -0.00000000000E+00 -0.00000000000E+00 -0.27500000000E+03  0.27500000000E+03  0.00000000000E+00 0.  1.
    9000005    2    1    2  501    0  0.30773536009E+02 -0.98939039358E+01 -0.56009298460E+02  0.47278276933E+03  0.46833919931E+03 0.  0.
         13    1    3    3    0    0 -0.78232227383E+02  0.20350952075E+03 -0.79345803758E+02  0.23201759203E+03  0.00000000000E+00 0.  1.
          3    1    3    3  501    0  0.10900576339E+03 -0.21340342469E+03  0.23336505299E+02  0.24076517730E+03  0.00000000000E+00 0.  1.
         21    1    1    2  502  501 -0.30773536009E+02  0.98939039358E+01  0.14030681051E+02  0.35238613258E+02  0.00000000000E+00 0. -1.
<scales pt_clust_4="550.00000" pt_clust_5="550.00000" pt_clust_6="32.32491"></scales>
<mgrwt>
<rscale>  0 0.30000000E+03</rscale>
<asrwt>  1 0.32324911E+02</asrwt>
<pdfrwt beam="1">  1        1 0.84735048E+00 0.30000000E+03</pdfrwt>
<pdfrwt beam="2">0</pdfrwt>
<totfact> 0.43706113E-04</totfact>
</mgrwt>
<clustering>
<clus scale="   32.325">  1  6  2 -1</clus>
<clus scale="  468.339">  4  5 -1 -1</clus>
<clus scale="  300.000">  1  4  2 -1</clus>
</clustering>
</event>
<event>
 6    1  0.9964252E-012  0.3000000E+03  0.7818608E-02  0.1093470E+00
          1   -1    0    0  502    0  0.00000000000E+00  0.00000000000E+00  0.25336367474E+03  0.25336367474E+03  0.00000000000E+00 0.  1.
         13   -1    0    0    0    0 -0.00000000000E+00 -0.00000000000E+00 -0.27500000000E+03  0.27500000000E+03  0.00000000000E+00 0.  1.
    9000005    2    1    2  501    0 -0.53805718620E+01  0.49858893468E+02 -0.36448828621E+02  0.47607342644E+03  0.47201962930E+03 0.  0.
         13    1    3    3    0    0  0.16067175626E+03 -0.14109533480E+03  0.26060057705E+02  0.21541224053E+03  0.00000000000E+00 0.  1.
          3    1    3    3  501    0 -0.16605232813E+03  0.19095422827E+03 -0.62508886325E+02  0.26066118591E+03  0.00000000000E+00 0.  1.
         21    1    1    2  502  501  0.53805718620E+01 -0.49858893468E+02  0.14812503357E+02  0.52290248299E+02  0.00000000000E+00 0. -1.
<scales pt_clust_4="550.00000" pt_clust_5="550.00000" pt_clust_6="50.14838"></scales>
<mgrwt>
<rscale>  0 0.30000000E+03</rscale>
<asrwt>  1 0.50148378E+02</asrwt>
<pdfrwt beam="1">  1        1 0.92132245E+00 0.30000000E+03</pdfrwt>
<pdfrwt beam="2">0</pdfrwt>
<totfact> 0.36682151E-05</totfact>
</mgrwt>
<clustering>
<clus scale="   50.148">  1  6  2 -1</clus>
<clus scale="  472.020">  4  5 -1 -1</clus>
<clus scale="  300.000">  1  4  2 -1</clus>
</clustering>
</event>
<event>
 6    1  0.9964252E-012  0.3000000E+03  0.7818608E-02  0.1093470E+00
          1   -1    0    0  502    0  0.00000000000E+00  0.00000000000E+00  0.24320555616E+03  0.24320555616E+03  0.00000000000E+00 0.  1.
         13   -1    0    0    0    0 -0.00000000000E+00 -0.00000000000E+00 -0.27500000000E+03  0.27500000000E+03  0.00000000000E+00 0.  1.
    9000005    2    1    2  501    0  0.40515387147E+02 -0.93635652856E+01 -0.36092036882E+02  0.47640074475E+03  0.47320805310E+03 0.  0.
         13    1    3    3    0    0 -0.73144130579E+02 -0.22209996864E+03 -0.18434511089E+02  0.23455978152E+03  0.00000000000E+00 0.  1.
          1    1    3    3  501    0  0.11365951773E+03  0.21273640335E+03 -0.17657525793E+02  0.24184096323E+03  0.00000000000E+00 0.  1.
         21    1    1    2  502  501 -0.40515387147E+02  0.93635652856E+01  0.42975930373E+01  0.41804811403E+02  0.00000000000E+00 0.  1.
<scales pt_clust_4="550.00000" pt_clust_5="550.00000" pt_clust_6="41.58333"></scales>
<mgrwt>
<rscale>  0 0.30000000E+03</rscale>
<asrwt>  1 0.41583325E+02</asrwt>
<pdfrwt beam="1">  1        1 0.88438384E+00 0.30000000E+03</pdfrwt>
<pdfrwt beam="2">0</pdfrwt>
<totfact> 0.16762403E-04</totfact>
</mgrwt>
<clustering>
<clus scale="   41.583">  1  6  2 -1</clus>
<clus scale="  473.208">  4  5 -1 -1</clus>
<clus scale="  300.000">  1  4  2 -1</clus>
</clustering>
</event>
<event>
 6    1  0.9964252E-012  0.3000000E+03  0.7818608E-02  0.1093470E+00
          1   -1    0    0  502    0  0.00000000000E+00  0.00000000000E+00  0.25486115485E+03  0.25486115485E+03  0.00000000000E+00 0.  1.
         13   -1    0    0    0    0 -0.00000000000E+00 -0.00000000000E+00 -0.27500000000E+03  0.27500000000E+03  0.00000000000E+00 0.  1.
    9000005    2    1    2  501    0 -0.21846659033E+02 -0.22048179723E+02 -0.57080332039E+02  0.48161105440E+03  0.47720817750E+03 0.  0.
         13    1    3    3    0    0  0.23700030483E+02  0.22350933909E+03 -0.56950287802E+02  0.23186515777E+03  0.00000000000E+00 0.  1.
          3    1    3    3  501    0 -0.45546689516E+02 -0.24555751881E+03 -0.13004423723E+00  0.24974589663E+03  0.00000000000E+00 0.  1.
         21    1    1    2  502  501  0.21846659033E+02  0.22048179723E+02  0.36941486893E+02  0.48250100454E+02  0.00000000000E+00 0. -1.
<scales pt_clust_4="550.00000" pt_clust_5="550.00000" pt_clust_6="31.03867"></scales>
<mgrwt>
<rscale>  0 0.30000000E+03</rscale>
<asrwt>  1 0.31038665E+02</asrwt>
<pdfrwt beam="1">  1        1 0.92676784E+00 0.30000000E+03</pdfrwt>
<pdfrwt beam="2">0</pdfrwt>
<totfact> 0.30847805E-05</totfact>
</mgrwt>
<clustering>
<clus scale="   31.039">  1  6  2 -1</clus>
<clus scale="  477.208">  4  5 -1 -1</clus>
<clus scale="  300.000">  1  4  2 -1</clus>
</clustering>
</event>
<event>
 6    1  0.9964252E-012  0.3000000E+03  0.7818608E-02  0.1093470E+00
          1   -1    0    0  502    0  0.00000000000E+00  0.00000000000E+00  0.22440060371E+03  0.22440060371E+03  0.00000000000E+00 0.  1.
         13   -1    0    0    0    0 -0.00000000000E+00 -0.00000000000E+00 -0.27500000000E+03  0.27500000000E+03  0.00000000000E+00 0.  1.
    9000005    2    1    2  501    0  0.19809042255E+02 -0.22927029339E+02 -0.57959872048E+02  0.46822010608E+03  0.46362988918E+03 0.  0.
         13    1    3    3    0    0 -0.20189137956E+03 -0.44932004424E+02  0.61027988882E+02  0.21564653855E+03  0.00000000000E+00 0.  1.
          1    1    3    3  501    0  0.22170042182E+03  0.22004975085E+02 -0.11898786093E+03  0.25257356752E+03  0.00000000000E+00 0.  1.
         21    1    1    2  502  501 -0.19809042255E+02  0.22927029339E+02  0.73604757588E+01  0.31180497635E+02  0.00000000000E+00 0. -1.
<scales pt_clust_4="550.00000" pt_clust_5="550.00000" pt_clust_6="30.29929"></scales>
<mgrwt>
<rscale>  0 0.30000000E+03</rscale>
<asrwt>  1 0.30299288E+02</asrwt>
<pdfrwt beam="1">  1        1 0.81600220E+00 0.30000000E+03</pdfrwt>
<pdfrwt beam="2">0</pdfrwt>
<totfact> 0.80292588E-04</totfact>
</mgrwt>
<clustering>
<clus scale="   30.299">  1  6  2 -1</clus>
<clus scale="  463.630">  4  5 -1 -1</clus>
<clus scale="  300.000">  1  4  2 -1</clus>
</clustering>
</event>
<event>
 6    1  0.9964252E-012  0.3000000E+03  0.7818608E-02  0.1093470E+00
          1   -1    0    0  502    0  0.00000000000E+00  0.00000000000E+00  0.23459022006E+03  0.23459022006E+03  0.00000000000E+00 0.  1.
         13   -1    0    0    0    0 -0.00000000000E+00 -0.00000000000E+00 -0.27500000000E+03  0.27500000000E+03  0.00000000000E+00 0.  1.
    9000005    2    1    2  501    0  0.28534582911E+02 -0.10648322608E+02 -0.68431613260E+02  0.46820384140E+03  0.46217349795E+03 0.  0.
         13    1    3    3    0    0 -0.25448599582E+02 -0.13808712619E+03  0.15262944890E+03  0.20739198228E+03  0.00000000000E+00 0.  1.
          1    1    3    3  501    0  0.53983182493E+02  0.12743880358E+03 -0.22106106217E+03  0.26081185912E+03  0.00000000000E+00 0.  1.
         21    1    1    2  502  501 -0.28534582911E+02  0.10648322608E+02  0.28021833318E+02  0.41386378662E+02  0.00000000000E+00 0. -1.
<scales pt_clust_4="550.00000" pt_clust_5="550.00000" pt_clust_6="30.45668"></scales>
<mgrwt>
<rscale>  0 0.30000000E+03</rscale>
<asrwt>  1 0.30456677E+02</asrwt>
<pdfrwt beam="1">  1        1 0.85305535E+00 0.30000000E+03</pdfrwt>
<pdfrwt beam="2">0</pdfrwt>
<totfact> 0.39076015E-04</totfact>
</mgrwt>
<clustering>
<clus scale="   30.457">  1  6  2 -1</clus>
<clus scale="  462.173">  4  5 -1 -1</clus>
<clus scale="  300.000">  1  4  2 -1</clus>
</clustering>
</event>
<event>
 6    1  0.9964252E-012  0.3000000E+03  0.7818608E-02  0.1093470E+00
          1   -1    0    0  502    0  0.00000000000E+00  0.00000000000E+00  0.23789357284E+03  0.23789357284E+03  0.00000000000E+00 0.  1.
         13   -1    0    0    0    0 -0.00000000000E+00 -0.00000000000E+00 -0.27500000000E+03  0.27500000000E+03  0.00000000000E+00 0.  1.
    9000005    2    1    2  501    0  0.32419578802E+02  0.22594760828E+02 -0.49036252682E+02  0.47161557575E+03  0.46739185370E+03 0.  0.
         13    1    3    3    0    0  0.99895483983E+02 -0.20307186500E+03  0.17130458002E+02  0.22695978204E+03  0.00000000000E+00 0.  1.
          3    1    3    3  501    0 -0.67475905181E+02  0.22566662583E+03 -0.66166710683E+02  0.24465579371E+03  0.00000000000E+00 0.  1.
         21    1    1    2  502  501 -0.32419578802E+02 -0.22594760828E+02  0.11929825518E+02  0.41277997086E+02  0.00000000000E+00 0. -1.
<scales pt_clust_4="550.00000" pt_clust_5="550.00000" pt_clust_6="39.51648"></scales>
<mgrwt>
<rscale>  0 0.30000000E+03</rscale>
<asrwt>  1 0.39516481E+02</asrwt>
<pdfrwt beam="1">  1        1 0.86506754E+00 0.30000000E+03</pdfrwt>
<pdfrwt beam="2">0</pdfrwt>
<totfact> 0.27889213E-04</totfact>
</mgrwt>
<clustering>
<clus scale="   39.516">  1  6  2 -1</clus>
<clus scale="  467.392">  4  5 -1 -1</clus>
<clus scale="  300.000">  1  4  2 -1</clus>
</clustering>
</event>
<event>
 6    1  0.9964252E-012  0.3000000E+03  0.7818608E-02  0.1093470E+00
          1   -1    0    0  502    0  0.00000000000E+00  0.00000000000E+00  0.23295852994E+03  0.23295852994E+03  0.00000000000E+00 0.  1.
         13   -1    0    0    0    0 -0.00000000000E+00 -0.00000000000E+00 -0.27500000000E+03  0.27500000000E+03  0.00000000000E+00 0.  1.
    9000005    2    1    2  501    0 -0.38845658387E+01 -0.31698430652E+02 -0.36237190696E+02  0.47549978664E+03  0.47304020204E+03 0.  0.
         13    1    3    3    0    0 -0.21314542991E+03 -0.21163908263E+02  0.88385801120E+02  0.23171304483E+03  0.00000000000E+00 0.  1.
          1    1    3    3  501    0  0.20926086407E+03 -0.10534522390E+02 -0.12462299182E+03  0.24378674181E+03  0.00000000000E+00 0.  1.
         21    1    1    2  502  501  0.38845658387E+01  0.31698430652E+02 -0.58042793682E+01  0.32458743299E+02  0.00000000000E+00 0. -1.
<scales pt_clust_4="550.00000" pt_clust_5="550.00000" pt_clust_6="31.93558"></scales>
<mgrwt>
<rscale>  0 0.30000000E+03</rscale>
<asrwt>  1 0.31935582E+02</asrwt>
<pdfrwt beam="1">  1        1 0.84712193E+00 0.30000000E+03</pdfrwt>
<pdfrwt beam="2">0</pdfrwt>
<totfact> 0.44016064E-04</totfact>
</mgrwt>
<clustering>
<clus scale="   31.936">  1  6  2 -1</clus>
<clus scale="  473.040">  4  5 -1 -1</clus>
<clus scale="  300.000">  1  4  2 -1</clus>
</clustering>
</event>
<event>
 6    1  0.9964252E-012  0.3000000E+03  0.7818608E-02  0.1093470E+00
          1   -1    0    0  502    0  0.00000000000E+00  0.00000000000E+00  0.22453601370E+03  0.22453601370E+03  0.00000000000E+00 0.  1.
         13   -1    0    0    0    0 -0.00000000000E+00 -0.00000000000E+00 -0.27500000000E+03  0.27500000000E+03  0.00000000000E+00 0.  1.
    9000005    2    1    2  501    0 -0.32606084949E+02 -0.34766079787E+01 -0.66174936657E+02  0.46317562949E+03  0.45724971070E+03 0.  0.
         13    1    3    3    0    0 -0.24320660409E+03  0.16757636160E+02 -0.87042768714E+01  0.24393858875E+03  0.00000000000E+00 0.  1.
          1    1    3    3  501    0  0.21060051914E+03 -0.20234244139E+02 -0.57470659786E+02  0.21923704075E+03  0.00000000000E+00 0.  1.
         21    1    1    2  502  501  0.32606084949E+02  0.34766079787E+01  0.15710950361E+02  0.36360384211E+02  0.00000000000E+00 0.  1.
<scales pt_clust_4="550.00000" pt_clust_5="550.00000" pt_clust_6="32.79091"></scales>
<mgrwt>
<rscale>  0 0.30000000E+03</rscale>
<asrwt>  1 0.32790907E+02</asrwt>
<pdfrwt beam="1">  1        1 0.81649460E+00 0.30000000E+03</pdfrwt>
<pdfrwt beam="2">0</pdfrwt>
<totfact> 0.78361560E-04</totfact>
</mgrwt>
<clustering>
<clus scale="   32.791">  1  6  2 -1</clus>
<clus scale="  457.250">  4  5 -1 -1</clus>
<clus scale="  300.000">  1  4  2 -1</clus>
</clustering>
</event>
<event>
 6    1  0.9964252E-012  0.3000000E+03  0.7818608E-02  0.1093470E+00
          1   -1    0    0  502    0  0.00000000000E+00  0.00000000000E+00  0.22981595426E+03  0.22981595426E+03  0.00000000000E+00 0.  1.
         13   -1    0    0    0    0 -0.00000000000E+00 -0.00000000000E+00 -0.27500000000E+03  0.27500000000E+03  0.00000000000E+00 0.  1.
    9000005    2    1    2  501    0 -0.33620274411E+02 -0.21010654674E+01 -0.40209456969E+02  0.47076475956E+03  0.46783321930E+03 0.  0.
         13    1    3    3    0    0  0.17215397763E+03  0.13590701312E+03 -0.40244052984E+02  0.22299617044E+03  0.00000000000E+00 0.  1.
          1    1    3    3  501    0 -0.20577425204E+03 -0.13800807859E+03  0.34596015247E-01  0.24776858912E+03  0.00000000000E+00 0.  1.
         21    1    1    2  502  501  0.33620274411E+02  0.21010654674E+01 -0.49745887685E+01  0.34051194707E+02  0.00000000000E+00 0.  1.
<scales pt_clust_4="550.00000" pt_clust_5="550.00000" pt_clust_6="33.68588"></scales>
<mgrwt>
<rscale>  0 0.30000000E+03</rscale>
<asrwt>  1 0.33685879E+02</asrwt>
<pdfrwt beam="1">  1        1 0.83569438E+00 0.30000000E+03</pdfrwt>
<pdfrwt beam="2">0</pdfrwt>
<totfact> 0.53858493E-04</totfact>
</mgrwt>
<clustering>
<clus scale="   33.686">  1  6  2 -1</clus>
<clus scale="  467.833">  4  5 -1 -1</clus>
<clus scale="  300.000">  1  4  2 -1</clus>
</clustering>
</event>
<event>
 6    1  0.9964252E-012  0.3000000E+03  0.7818608E-02  0.1093470E+00
          1   -1    0    0  502    0  0.00000000000E+00  0.00000000000E+00  0.21868007713E+03  0.21868007713E+03  0.00000000000E+00 0.  1.
         13   -1    0    0    0    0 -0.00000000000E+00 -0.00000000000E+00 -0.27500000000E+03  0.27500000000E+03  0.00000000000E+00 0.  1.
    9000005    2    1    2  501    0 -0.27128835201E+02 -0.13893233554E+02 -0.48227175381E+02  0.46214457016E+03  0.45860958084E+03 0.  0.
         13    1    3    3    0    0  0.66640339251E+02 -0.16216437064E+03  0.12521652737E+03  0.21544696945E+03  0.00000000000E+00 0.  1.
          1    1    3    3  501    0 -0.93769174451E+02  0.14827113708E+03 -0.17344370275E+03  0.24669760070E+03  0.00000000000E+00 0.  1.
         21    1    1    2  502  501  0.27128835201E+02  0.13893233554E+02 -0.80927474916E+01  0.31535506971E+02  0.00000000000E+00 0.  1.
<scales pt_clust_4="550.00000" pt_clust_5="550.00000" pt_clust_6="30.47944"></scales>
<mgrwt>
<rscale>  0 0.30000000E+03</rscale>
<asrwt>  1 0.30479445E+02</asrwt>
<pdfrwt beam="1">  1        1 0.79520028E+00 0.30000000E+03</pdfrwt>
<pdfrwt beam="2">0</pdfrwt>
<totfact> 0.11540709E-03</totfact>
</mgrwt>
<clustering>
<clus scale="   30.479">  1  6  2 -1</clus>
<clus scale="  458.610">  4  5 -1 -1</clus>
<clus scale="  300.000">  1  4  2 -1</clus>
</clustering>
</event>
<event>
 6    1  0.9964252E-012  0.3000000E+03  0.7818608E-02  0.1093470E+00
          1   -1    0    0  502    0  0.00000000000E+00  0.00000000000E+00  0.23196416426E+03  0.23196416426E+03  0.00000000000E+00 0.  1.
         13   -1    0    0    0    0 -0.00000000000E+00 -0.00000000000E+00 -0.27500000000E+03  0.27500000000E+03  0.00000000000E+00 0.  1.
    9000005    2    1    2  501    0  0.89153518746E+00 -0.39714155199E+02 -0.40446549550E+02  0.46715570585E+03  0.46370305280E+03 0.  0.
         13    1    3    3    0    0  0.22541877499E+03 -0.38458097001E+02 -0.73516487590E+02  0.24020267128E+03  0.00000000000E+00 0.  1.
          3    1    3    3  501    0 -0.22452723980E+03 -0.12560581979E+01  0.33069938040E+02  0.22695303457E+03  0.00000000000E+00 0.  1.
         21    1    1    2  502  501 -0.89153518746E+00  0.39714155199E+02 -0.25892861890E+01  0.39808458412E+02  0.00000000000E+00 0.  1.
<scales pt_clust_4="550.00000" pt_clust_5="550.00000" pt_clust_6="39.72416"></scales>
<mgrwt>
<rscale>  0 0.30000000E+03</rscale>
<asrwt>  1 0.39724161E+02</asrwt>
<pdfrwt beam="1">  1        1 0.84350605E+00 0.30000000E+03</pdfrwt>
<pdfrwt beam="2">0</pdfrwt>
<totfact> 0.45466159E-04</totfact>
</mgrwt>
<clustering>
<clus scale="   39.724">  1  6  2 -1</clus>
<clus scale="  463.703">  4  5 -1 -1</clus>
<clus scale="  300.000">  1  4  2 -1</clus>
</clustering>
</event>
<event>
 6    1  0.9964252E-012  0.3000000E+03  0.7818608E-02  0.1093470E+00
          1   -1    0    0  502    0  0.00000000000E+00  0.00000000000E+00  0.23224227583E+03  0.23224227583E+03  0.00000000000E+00 0.  1.
         13   -1    0    0    0    0 -0.00000000000E+00 -0.00000000000E+00 -0.27500000000E+03  0.27500000000E+03  0.00000000000E+00 0.  1.
    9000005    2    1    2  501    0  0.10774111762E+02  0.31451763303E+02 -0.66984438658E+02  0.46610556967E+03  0.46006759520E+03 0.  0.
         13    1    3    3    0    0 -0.16728296368E+03  0.15695336800E+03  0.22738323109E+02  0.23051026225E+03  0.00000000000E+00 0.  1.
          1    1    3    3  501    0  0.17805707544E+03 -0.12550160470E+03 -0.89722761767E+02  0.23559530742E+03  0.00000000000E+00 0.  1.
         21    1    1    2  502  501 -0.10774111762E+02 -0.31451763303E+02  0.24226714489E+02  0.41136706165E+02  0.00000000000E+00 0. -1.
<scales pt_clust_4="550.00000" pt_clust_5="550.00000" pt_clust_6="33.24598"></scales>
<mgrwt>
<rscale>  0 0.30000000E+03</rscale>
<asrwt>  1 0.33245976E+02</asrwt>
<pdfrwt beam="1">  1        1 0.84451737E+00 0.30000000E+03</pdfrwt>
<pdfrwt beam="2">0</pdfrwt>
<totfact> 0.46064396E-04</totfact>
</mgrwt>
<clustering>
<clus scale="   33.246">  1  6  2 -1</clus>
<clus scale="  460.068">  4  5 -1 -1</clus>
<clus scale="  300.000">  1  4  2 -1</clus>
</clustering>
</event>
<event>
 6    1  0.9964252E-012  0.3000000E+03  0.7818608E-02  0.1093470E+00
          1   -1    0    0  502    0  0.00000000000E+00  0.00000000000E+00  0.22621953110E+03  0.22621953110E+03  0.00000000000E+00 0.  1.
         13   -1    0    0    0    0 -0.00000000000E+00 -0.00000000000E+00 -0.27500000000E+03  0.27500000000E+03  0.00000000000E+00 0.  1.
    9000005    2    1    2  501    0 -0.14573217564E+02 -0.26906172255E+02 -0.54169582197E+02  0.47014923471E+03  0.46601463334E+03 0.  0.
         13    1    3    3    0    0  0.68564153922E+02 -0.20212330999E+03 -0.14291884173E+03  0.25686702973E+03  0.00000000000E+00 0.  1.
          3    1    3    3  501    0 -0.83137371485E+02  0.17521713773E+03  0.88749259533E+02  0.21328220498E+03  0.00000000000E+00 0.  1.
         21    1    1    2  502  501  0.14573217564E+02  0.26906172255E+02  0.53891132983E+01  0.31070296389E+02  0.00000000000E+00 0. -1.
<scales pt_clust_4="550.00000" pt_clust_5="550.00000" pt_clust_6="30.59936"></scales>
<mgrwt>
<rscale>  0 0.30000000E+03</rscale>
<asrwt>  1 0.30599359E+02</asrwt>
<pdfrwt beam="1">  1        1 0.82261648E+00 0.30000000E+03</pdfrwt>
<pdfrwt beam="2">0</pdfrwt>
<totfact> 0.70365262E-04</totfact>
</mgrwt>
<clustering>
<clus scale="   30.599">  1  6  2 -1</clus>
<clus scale="  466.015">  4  5 -1 -1</clus>
<clus scale="  300.000">  1  4  2 -1</clus>
</clustering>
</event>
<event>
 6    1  0.9964252E-012  0.3000000E+03  0.7818608E-02  0.1093470E+00
          1   -1    0    0  502    0  0.00000000000E+00  0.00000000000E+00  0.23915459973E+03  0.23915459973E+03  0.00000000000E+00 0.  1.
         13   -1    0    0    0    0 -0.00000000000E+00 -0.00000000000E+00 -0.27500000000E+03  0.27500000000E+03  0.00000000000E+00 0.  1.
    9000005    2    1    2  501    0 -0.42468566225E+01 -0.48325729591E+02 -0.44354209330E+02  0.46490206921E+03  0.46023170918E+03 0.  0.
         13    1    3    3    0    0 -0.39967552637E+02 -0.40241730973E+01 -0.24913921817E+03  0.25235678961E+03  0.00000000000E+00 0.  1.
          1    1    3    3  501    0  0.35720696015E+02 -0.44301556494E+02  0.20478500884E+03  0.21254527959E+03  0.00000000000E+00 0.  1.
         21    1    1    2  502  501  0.42468566225E+01  0.48325729591E+02  0.85088090647E+01  0.49252530528E+02  0.00000000000E+00 0.  1.
<scales pt_clust_4="550.00000" pt_clust_5="550.00000" pt_clust_6="48.51198"></scales>
<mgrwt>
<rscale>  0 0.30000000E+03</rscale>
<asrwt>  1 0.48511977E+02</asrwt>
<pdfrwt beam="1">  1        1 0.86965309E+00 0.30000000E+03</pdfrwt>
<pdfrwt beam="2">0</pdfrwt>
<totfact> 0.24063601E-04</totfact>
</mgrwt>
<clustering>
<clus scale="   48.512">  1  6  2 -1</clus>
<clus scale="  460.232">  4  5 -1 -1</clus>
<clus scale="  300.000">  1  4  2 -1</clus>
</clustering>
</event>
<event>
 6    1  0.9964252E-012  0.3000000E+03  0.7818608E-02  0.1093470E+00
          1   -1    0    0  502    0  0.00000000000E+00  0.00000000000E+00  0.23566779554E+03  0.23566779554E+03  0.00000000000E+00 0.  1.
         13   -1    0    0    0    0 -0.00000000000E+00 -0.00000000000E+00 -0.27500000000E+03  0.27500000000E+03  0.00000000000E+00 0.  1.
    9000005    2    1    2  501    0  0.15223937706E+02 -0.35656331045E+02 -0.31427840334E+02  0.47109986414E+03  0.46844874920E+03 0.  0.
         13    1    3    3    0    0 -0.23573144166E+02  0.79003776246E+02  0.19646048179E+03  0.21305870245E+03  0.00000000000E+00 0.  1.
          3    1    3    3  501    0  0.38797081872E+02 -0.11466010729E+03 -0.22788832212E+03  0.25804116169E+03  0.00000000000E+00 0.  1.
         21    1    1    2  502  501 -0.15223937706E+02  0.35656331045E+02 -0.79043641256E+01  0.39567931398E+02  0.00000000000E+00 0.  1.
<scales pt_clust_4="550.00000" pt_clust_5="550.00000" pt_clust_6="38.77040"></scales>
<mgrwt>
<rscale>  0 0.30000000E+03</rscale>
<asrwt>  1 0.38770398E+02</asrwt>
<pdfrwt beam="1">  1        1 0.85697380E+00 0.30000000E+03</pdfrwt>
<pdfrwt beam="2">0</pdfrwt>
<totfact> 0.34145455E-04</totfact>
</mgrwt>
<clustering>
<clus scale="   38.770">  1  6  2 -1</clus>
<clus scale="  468.449">  4  5 -1 -1</clus>
<clus scale="  300.000">  1  4  2 -1</clus>
</clustering>
</event>
<event>
 6    1  0.9964252E-012  0.3000000E+03  0.7818608E-02  0.1093470E+00
          1   -1    0    0  502    0  0.00000000000E+00  0.00000000000E+00  0.22736702515E+03  0.22736702515E+03  0.00000000000E+00 0.  1.
         13   -1    0    0    0    0 -0.00000000000E+00 -0.00000000000E+00 -0.27500000000E+03  0.27500000000E+03  0.00000000000E+00 0.  1.
    9000005    2    1    2  501    0  0.15601514645E+02  0.32298334658E+02 -0.64666335819E+02  0.46265902764E+03  0.45671112444E+03 0.  0.
         13    1    3    3    0    0  0.41270353438E+02  0.94263940453E+02 -0.24743101233E+03  0.26797581683E+03  0.00000000000E+00 0.  1.
          3    1    3    3  501    0 -0.25668838793E+02 -0.61965605795E+02  0.18276467652E+03  0.19468321080E+03  0.00000000000E+00 0.  1.
         21    1    1    2  502  501 -0.15601514645E+02 -0.32298334658E+02  0.17033360974E+02  0.39707997519E+02  0.00000000000E+00 0.  1.
<scales pt_clust_4="550.00000" pt_clust_5="550.00000" pt_clust_6="35.86906"></scales>
<mgrwt>
<rscale>  0 0.30000000E+03</rscale>
<asrwt>  1 0.35869063E+02</asrwt>
<pdfrwt beam="1">  1        1 0.82678918E+00 0.30000000E+03</pdfrwt>
<pdfrwt beam="2">0</pdfrwt>
<totfact> 0.62683357E-04</totfact>
</mgrwt>
<clustering>
<clus scale="   35.869">  1  6  2 -1</clus>
<clus scale="  456.711">  4  5 -1 -1</clus>
<clus scale="  300.000">  1  4  2 -1</clus>
</clustering>
</event>
<event>
 6    1  0.9964252E-012  0.3000000E+03  0.7818608E-02  0.1093470E+00
          1   -1    0    0  502    0  0.00000000000E+00  0.00000000000E+00  0.23140054188E+03  0.23140054188E+03  0.00000000000E+00 0.  1.
         13   -1    0    0    0    0 -0.00000000000E+00 -0.00000000000E+00 -0.27500000000E+03  0.27500000000E+03  0.00000000000E+00 0.  1.
    9000005    2    1    2  501    0 -0.25749632233E+02  0.32221849366E+02 -0.49962562539E+02  0.46466590118E+03  0.46012699434E+03 0.  0.
         13    1    3    3    0    0  0.14685641574E+03  0.16791225144E+03  0.41360994818E+02  0.22687455327E+03  0.00000000000E+00 0.  1.
          3    1    3    3  501    0 -0.17260604797E+03 -0.13569040207E+03 -0.91323557357E+02  0.23779134791E+03  0.00000000000E+00 0.  1.
         21    1    1    2  502  501  0.25749632233E+02 -0.32221849366E+02  0.63631044187E+01  0.41734640703E+02  0.00000000000E+00 0. -1.
<scales pt_clust_4="550.00000" pt_clust_5="550.00000" pt_clust_6="41.24671"></scales>
<mgrwt>
<rscale>  0 0.30000000E+03</rscale>
<asrwt>  1 0.41246711E+02</asrwt>
<pdfrwt beam="1">  1        1 0.84145652E+00 0.30000000E+03</pdfrwt>
<pdfrwt beam="2">0</pdfrwt>
<totfact> 0.46967155E-04</totfact>
</mgrwt>
<clustering>
<clus scale="   41.247">  1  6  2 -1</clus>
<clus scale="  460.127">  4  5 -1 -1</clus>
<clus scale="  300.000">  1  4  2 -1</clus>
</clustering>
</event>
<event>
 6    1  0.9964252E-012  0.3000000E+03  0.7818608E-02  0.1093470E+00
          1   -1    0    0  502    0  0.00000000000E+00  0.00000000000E+00  0.22515827953E+03  0.22515827953E+03  0.00000000000E+00 0.  1.
         13   -1    0    0    0    0 -0.00000000000E+00 -0.00000000000E+00 -0.27500000000E+03  0.27500000000E+03  0.00000000000E+00 0.  1.
    9000005    2    1    2  501    0 -0.32213831825E+02  0.94356039862E+00 -0.66754474142E+02  0.46376236625E+03  0.45779990308E+03 0.  0.
         13    1    3    3    0    0 -0.15746719653E+02  0.19519800761E+03 -0.15501793028E+03  0.24976144631E+03  0.00000000000E+00 0.  1.
          1    1    3    3  501    0 -0.16467112172E+02 -0.19425444721E+03  0.88263456141E+02  0.21400091994E+03  0.00000000000E+00 0.  1.
         21    1    1    2  502  501  0.32213831825E+02 -0.94356039862E+00  0.16912753675E+02  0.36395913286E+02  0.00000000000E+00 0. -1.
<scales pt_clust_4="550.00000" pt_clust_5="550.00000" pt_clust_6="32.22765"></scales>
<mgrwt>
<rscale>  0 0.30000000E+03</rscale>
<asrwt>  1 0.32227648E+02</asrwt>
<pdfrwt beam="1">  1        1 0.81875738E+00 0.30000000E+03</pdfrwt>
<pdfrwt beam="2">0</pdfrwt>
<totfact> 0.75287149E-04</totfact>
</mgrwt>
<clustering>
<clus scale="   32.228">  1  6  2 -1</clus>
<clus scale="  457.800">  4  5 -1 -1</clus>
<clus scale="  300.000">  1  4  2 -1</clus>
</clustering>
</event>
<event>
 6    1  0.9964252E-012  0.3000000E+03  0.7818608E-02  0.1093470E+00
          1   -1    0    0  502    0  0.00000000000E+00  0.00000000000E+00  0.25682308196E+03  0.25682308196E+03  0.00000000000E+00 0.  1.
         13   -1    0    0    0    0 -0.00000000000E+00 -0.00000000000E+00 -0.27500000000E+03  0.27500000000E+03  0.00000000000E+00 0.  1.
    9000005    2    1    2  501    0  0.38822149945E+02  0.79812331718E+01 -0.24862528304E+02  0.49162909244E+03  0.48939775215E+03 0.  0.
         13    1    3    3    0    0  0.25106939481E+03 -0.46124978984E+02 -0.76697185225E+02  0.26654420444E+03  0.00000000000E+00 0.  1.
          1    1    3    3  501    0 -0.21224724487E+03  0.54106212156E+02  0.51834656922E+02  0.22508488800E+03  0.00000000000E+00 0.  1.
         21    1    1    2  502  501 -0.38822149945E+02 -0.79812331718E+01  0.66856102630E+01  0.40193989524E+02  0.00000000000E+00 0.  1.
<scales pt_clust_4="550.00000" pt_clust_5="550.00000" pt_clust_6="39.63407"></scales>
<mgrwt>
<rscale>  0 0.30000000E+03</rscale>
<asrwt>  1 0.39634069E+02</asrwt>
<pdfrwt beam="1">  1        1 0.93390212E+00 0.30000000E+03</pdfrwt>
<pdfrwt beam="2">0</pdfrwt>
<totfact> 0.22702668E-05</totfact>
</mgrwt>
<clustering>
<clus scale="   39.634">  1  6  2 -1</clus>
<clus scale="  489.398">  4  5 -1 -1</clus>
<clus scale="  300.000">  1  4  2 -1</clus>
</clustering>
</event>
<event>
 6    1  0.9964252E-012  0.3000000E+03  0.7818608E-02  0.1093470E+00
          1   -1    0    0  502    0  0.00000000000E+00  0.00000000000E+00  0.24553378145E+03  0.24553378145E+03  0.00000000000E+00 0.  1.
         13   -1    0    0    0    0 -0.00000000000E+00 -0.00000000000E+00 -0.27500000000E+03  0.27500000000E+03  0.00000000000E+00 0.  1.
    9000005    2    1    2  501    0 -0.35916546099E+02 -0.24821446078E+02 -0.53974493356E+02  0.47046624703E+03  0.46531617336E+03 0.  0.
         13    1    3    3    0    0  0.14516558238E+03  0.15309603937E+03 -0.48824110710E+02  0.21655308210E+03  0.00000000000E+00 0.  1.
          3    1    3    3  501    0 -0.18108212848E+03 -0.17791748545E+03 -0.51503826463E+01  0.25391316493E+03  0.00000000000E+00 0.  1.
         21    1    1    2  502  501  0.35916546099E+02  0.24821446078E+02  0.24508274806E+02  0.50067534422E+02  0.00000000000E+00 0.  1.
<scales pt_clust_4="550.00000" pt_clust_5="550.00000" pt_clust_6="43.65893"></scales>
<mgrwt>
<rscale>  0 0.30000000E+03</rscale>
<asrwt>  1 0.43658933E+02</asrwt>
<pdfrwt beam="1">  1        1 0.89285011E+00 0.30000000E+03</pdfrwt>
<pdfrwt beam="2">0</pdfrwt>
<totfact> 0.12816957E-04</totfact>
</mgrwt>
<clustering>
<clus scale="   43.659">  1  6  2 -1</clus>
<clus scale="  465.316">  4  5 -1 -1</clus>
<clus scale="  300.000">  1  4  2 -1</clus>
</clustering>
</event>
<event>
 6    1  0.9964252E-012  0.3000000E+03  0.7818608E-02  0.1093470E+00
          1   -1    0    0  502    0  0.00000000000E+00  0.00000000000E+00  0.23871442573E+03  0.23871442573E+03  0.00000000000E+00 0.  1.
         13   -1    0    0    0    0 -0.00000000000E+00 -0.00000000000E+00 -0.27500000000E+03  0.27500000000E+03  0.00000000000E+00 0.  1.
    9000005    2    1    2  501    0 -0.37489922810E+02  0.13938766419E+02 -0.58720620796E+02  0.46785469575E+03  0.46242850421E+03 0.  0.
         13    1    3    3    0    0 -0.23267691099E+03  0.53313249786E+02 -0.10910676315E+03  0.26245977459E+03  0.00000000000E+00 0.  1.
          3    1    3    3  501    0  0.19518698818E+03 -0.39374483367E+02  0.50386142356E+02  0.20539492116E+03  0.00000000000E+00 0.  1.
         21    1    1    2  502  501  0.37489922810E+02 -0.13938766419E+02  0.22435046527E+02  0.45859729984E+02  0.00000000000E+00 0.  1.
<scales pt_clust_4="550.00000" pt_clust_5="550.00000" pt_clust_6="39.99729"></scales>
<mgrwt>
<rscale>  0 0.30000000E+03</rscale>
<asrwt>  1 0.39997294E+02</asrwt>
<pdfrwt beam="1">  1        1 0.86805246E+00 0.30000000E+03</pdfrwt>
<pdfrwt beam="2">0</pdfrwt>
<totfact> 0.25875567E-04</totfact>
</mgrwt>
<clustering>
<clus scale="   39.997">  1  6  2 -1</clus>
<clus scale="  462.429">  4  5 -1 -1</clus>
<clus scale="  300.000">  1  4  2 -1</clus>
</clustering>
</event>
<event>
 6    1  0.9964252E-012  0.3000000E+03  0.7818608E-02  0.1093470E+00
          1   -1    0    0  502    0  0.00000000000E+00  0.00000000000E+00  0.23244758902E+03  0.23244758902E+03  0.00000000000E+00 0.  1.
         13   -1    0    0    0    0 -0.00000000000E+00 -0.00000000000E+00 -0.27500000000E+03  0.27500000000E+03  0.00000000000E+00 0.  1.
    9000005    2    1    2  501    0  0.11826100829E+02 -0.42725114186E+02 -0.51204779447E+02  0.46227950822E+03  0.45729106949E+03 0.  0.
         13    1    3    3    0    0 -0.10231527931E+03 -0.14006498143E+03  0.13740755480E+03  0.22128590448E+03  0.00000000000E+00 0.  1.
          1    1    3    3  501    0  0.11414138014E+03  0.97339867248E+02 -0.18861233424E+03  0.24099360374E+03  0.00000000000E+00 0.  1.
         21    1    1    2  502  501 -0.11826100829E+02  0.42725114186E+02  0.86523684647E+01  0.45168080799E+02  0.00000000000E+00 0. -1.
<scales pt_clust_4="550.00000" pt_clust_5="550.00000" pt_clust_6="44.33161"></scales>
<mgrwt>
<rscale>  0 0.30000000E+03</rscale>
<asrwt>  1 0.44331614E+02</asrwt>
<pdfrwt beam="1">  1        1 0.84526396E+00 0.30000000E+03</pdfrwt>
<pdfrwt beam="2">0</pdfrwt>
<totfact> 0.43039925E-04</totfact>
</mgrwt>
<clustering>
<clus scale="   44.332">  1  6  2 -1</clus>
<clus scale="  457.291">  4  5 -1 -1</clus>
<clus scale="  300.000">  1  4  2 -1</clus>
</clustering>
</event>
<event>
 6    1  0.9964252E-012  0.3000000E+03  0.7818608E-02  0.1093470E+00
          1   -1    0    0  502    0  0.00000000000E+00  0.00000000000E+00  0.23398309483E+03  0.23398309483E+03  0.00000000000E+00 0.  1.
         13   -1    0    0    0    0 -0.00000000000E+00 -0.00000000000E+00 -0.27500000000E+03  0.27500000000E+03  0.00000000000E+00 0.  1.
    9000005    2    1    2  501    0 -0.27051280958E+02  0.27834005635E+02 -0.39028648850E+02  0.47011849868E+03  0.46688506476E+03 0.  0.
         13    1    3    3    0    0  0.10930995620E+03  0.21246889453E+03 -0.22385074077E+02  0.23998497705E+03  0.00000000000E+00 0.  1.
          1    1    3    3  501    0 -0.13636123716E+03 -0.18463488889E+03 -0.16643574773E+02  0.23013352163E+03  0.00000000000E+00 0.  1.
         21    1    1    2  502  501  0.27051280958E+02 -0.27834005635E+02 -0.19882563186E+01  0.38864596155E+02  0.00000000000E+00 0.  1.
<scales pt_clust_4="550.00000" pt_clust_5="550.00000" pt_clust_6="38.81370"></scales>
<mgrwt>
<rscale>  0 0.30000000E+03</rscale>
<asrwt>  1 0.38813705E+02</asrwt>
<pdfrwt beam="1">  1        1 0.85084762E+00 0.30000000E+03</pdfrwt>
<pdfrwt beam="2">0</pdfrwt>
<totfact> 0.39198325E-04</totfact>
</mgrwt>
<clustering>
<clus scale="   38.814">  1  6  2 -1</clus>
<clus scale="  466.885">  4  5 -1 -1</clus>
<clus scale="  300.000">  1  4  2 -1</clus>
</clustering>
</event>
<event>
 6    1  0.9964252E-012  0.3000000E+03  0.7818608E-02  0.1093470E+00
          1   -1    0    0  502    0  0.00000000000E+00  0.00000000000E+00  0.23153567836E+03  0.23153567836E+03  0.00000000000E+00 0.  1.
         13   -1    0    0    0    0 -0.00000000000E+00 -0.00000000000E+00 -0.27500000000E+03  0.27500000000E+03  0.00000000000E+00 0.  1.
    9000005    2    1    2  501    0 -0.23603373295E+02  0.20789356074E+02 -0.44031300156E+02  0.47507716565E+03  0.47198542496E+03 0.  0.
         13    1    3    3    0    0 -0.13964412520E+03 -0.13173081096E+03 -0.16100697332E+03  0.25055285613E+03  0.00000000000E+00 0.  1.
          1    1    3    3  501    0  0.11604075190E+03  0.15252016704E+03  0.11697567316E+03  0.22452430952E+03  0.00000000000E+00 0.  1.
         21    1    1    2  502  501  0.23603373295E+02 -0.20789356074E+02  0.56697851123E+00  0.31458512703E+02  0.00000000000E+00 0. -1.
<scales pt_clust_4="550.00000" pt_clust_5="550.00000" pt_clust_6="31.45340"></scales>
<mgrwt>
<rscale>  0 0.30000000E+03</rscale>
<asrwt>  1 0.31453403E+02</asrwt>
<pdfrwt beam="1">  1        1 0.84194792E+00 0.30000000E+03</pdfrwt>
<pdfrwt beam="2">0</pdfrwt>
<totfact> 0.48941896E-04</totfact>
</mgrwt>
<clustering>
<clus scale="   31.453">  1  6  2 -1</clus>
<clus scale="  471.985">  4  5 -1 -1</clus>
<clus scale="  300.000">  1  4  2 -1</clus>
</clustering>
</event>
<event>
 6    1  0.9964252E-012  0.3000000E+03  0.7818608E-02  0.1093470E+00
          1   -1    0    0  502    0  0.00000000000E+00  0.00000000000E+00  0.22658985995E+03  0.22658985995E+03  0.00000000000E+00 0.  1.
         13   -1    0    0    0    0 -0.00000000000E+00 -0.00000000000E+00 -0.27500000000E+03  0.27500000000E+03  0.00000000000E+00 0.  1.
    9000005    2    1    2  501    0  0.22339664091E+02 -0.25597382660E+02 -0.56652812336E+02  0.46662947899E+03  0.46192991127E+03 0.  0.
         13    1    3    3    0    0  0.54680795033E+02  0.97783462596E+02  0.17172977242E+03  0.20504318969E+03  0.00000000000E+00 0.  1.
          1    1    3    3  501    0 -0.32341130942E+02 -0.12338084526E+03 -0.22838258476E+03  0.26158628930E+03  0.00000000000E+00 0.  1.
         21    1    1    2  502  501 -0.22339664091E+02  0.25597382660E+02  0.82426722865E+01  0.34960380964E+02  0.00000000000E+00 0.  1.
<scales pt_clust_4="550.00000" pt_clust_5="550.00000" pt_clust_6="33.97479"></scales>
<mgrwt>
<rscale>  0 0.30000000E+03</rscale>
<asrwt>  1 0.33974793E+02</asrwt>
<pdfrwt beam="1">  1        1 0.82396313E+00 0.30000000E+03</pdfrwt>
<pdfrwt beam="2">0</pdfrwt>
<totfact> 0.67098546E-04</totfact>
</mgrwt>
<clustering>
<clus scale="   33.975">  1  6  2 -1</clus>
<clus scale="  461.930">  4  5 -1 -1</clus>
<clus scale="  300.000">  1  4  2 -1</clus>
</clustering>
</event>
<event>
 6    1  0.9964252E-012  0.3000000E+03  0.7818608E-02  0.1093470E+00
          1   -1    0    0  502    0  0.00000000000E+00  0.00000000000E+00  0.23580505688E+03  0.23580505688E+03  0.00000000000E+00 0.  1.
         13   -1    0    0    0    0 -0.00000000000E+00 -0.00000000000E+00 -0.27500000000E+03  0.27500000000E+03  0.00000000000E+00 0.  1.
    9000005    2    1    2  501    0 -0.34584135821E+02  0.68490023746E+01 -0.53257208740E+02  0.47284825778E+03  0.46851485923E+03 0.  0.
         13    1    3    3    0    0  0.15340936665E+03  0.25559457275E+02 -0.18562733602E+03  0.24216776729E+03  0.00000000000E+00 0.  1.
          1    1    3    3  501    0 -0.18799350247E+03 -0.18710454900E+02  0.13237012728E+03  0.23068049049E+03  0.00000000000E+00 0.  1.
         21    1    1    2  502  501  0.34584135821E+02 -0.68490023746E+01  0.14062265625E+02  0.37956799108E+02  0.00000000000E+00 0.  1.
<scales pt_clust_4="550.00000" pt_clust_5="550.00000" pt_clust_6="35.25580"></scales>
<mgrwt>
<rscale>  0 0.30000000E+03</rscale>
<asrwt>  1 0.35255798E+02</asrwt>
<pdfrwt beam="1">  1        1 0.85747293E+00 0.30000000E+03</pdfrwt>
<pdfrwt beam="2">0</pdfrwt>
<totfact> 0.34342161E-04</totfact>
</mgrwt>
<clustering>
<clus scale="   35.256">  1  6  2 -1</clus>
<clus scale="  468.515">  4  5 -1 -1</clus>
<clus scale="  300.000">  1  4  2 -1</clus>
</clustering>
</event>
<event>
 6    1  0.9964252E-012  0.3000000E+03  0.7818608E-02  0.1093470E+00
          1   -1    0    0  502    0  0.00000000000E+00  0.00000000000E+00  0.23840220214E+03  0.23840220214E+03  0.00000000000E+00 0.  1.
         13   -1    0    0    0    0 -0.00000000000E+00 -0.00000000000E+00 -0.27500000000E+03  0.27500000000E+03  0.00000000000E+00 0.  1.
    9000005    2    1    2  501    0  0.31581926025E+02 -0.78147149962E+01 -0.67473300029E+02  0.46854928188E+03  0.46252275134E+03 0.  0.
         13    1    3    3    0    0  0.18815576202E+03 -0.61465869941E+02  0.10952555412E+03  0.22622221588E+03  0.00000000000E+00 0.  1.
          1    1    3    3  501    0 -0.15657383600E+03  0.53651154945E+02 -0.17699885415E+03  0.24232706600E+03  0.00000000000E+00 0.  1.
         21    1    1    2  502  501 -0.31581926025E+02  0.78147149962E+01  0.30875502167E+02  0.44852920262E+02  0.00000000000E+00 0.  1.
<scales pt_clust_4="550.00000" pt_clust_5="550.00000" pt_clust_6="32.53441"></scales>
<mgrwt>
<rscale>  0 0.30000000E+03</rscale>
<asrwt>  1 0.32534410E+02</asrwt>
<pdfrwt beam="1">  1        1 0.86691710E+00 0.30000000E+03</pdfrwt>
<pdfrwt beam="2">0</pdfrwt>
<totfact> 0.27633916E-04</totfact>
</mgrwt>
<clustering>
<clus scale="   32.534">  1  6  2 -1</clus>
<clus scale="  462.523">  4  5 -1 -1</clus>
<clus scale="  300.000">  1  4  2 -1</clus>
</clustering>
</event>
<event>
 6    1  0.9964252E-012  0.3000000E+03  0.7818608E-02  0.1093470E+00
          1   -1    0    0  502    0  0.00000000000E+00  0.00000000000E+00  0.23431035442E+03  0.23431035442E+03  0.00000000000E+00 0.  1.
         13   -1    0    0    0    0 -0.00000000000E+00 -0.00000000000E+00 -0.27500000000E+03  0.27500000000E+03  0.00000000000E+00 0.  1.
    9000005    2    1    2  501    0 -0.33777555142E+02 -0.90887409193E+00 -0.50649881336E+02  0.47408315499E+03  0.47015707809E+03 0.  0.
         13    1    3    3    0    0 -0.47706297598E+02 -0.19911322178E+03  0.96973535844E+02  0.22655205268E+03  0.00000000000E+00 0.  1.
          1    1    3    3  501    0  0.13928742456E+02  0.19820434769E+03 -0.14762341718E+03  0.24753110231E+03  0.00000000000E+00 0.  1.
         21    1    1    2  502  501  0.33777555142E+02  0.90887409193E+00  0.99602357530E+01  0.35227199430E+02  0.00000000000E+00 0. -1.
<scales pt_clust_4="550.00000" pt_clust_5="550.00000" pt_clust_6="33.78978"></scales>
<mgrwt>
<rscale>  0 0.30000000E+03</rscale>
<asrwt>  1 0.33789781E+02</asrwt>
<pdfrwt beam="1">  1        1 0.85203765E+00 0.30000000E+03</pdfrwt>
<pdfrwt beam="2">0</pdfrwt>
<totfact> 0.39185275E-04</totfact>
</mgrwt>
<clustering>
<clus scale="   33.790">  1  6  2 -1</clus>
<clus scale="  470.157">  4  5 -1 -1</clus>
<clus scale="  300.000">  1  4  2 -1</clus>
</clustering>
</event>
<event>
 6    1  0.9964252E-012  0.3000000E+03  0.7818608E-02  0.1093470E+00
          1   -1    0    0  502    0  0.00000000000E+00  0.00000000000E+00  0.22661235620E+03  0.22661235620E+03  0.00000000000E+00 0.  1.
         13   -1    0    0    0    0 -0.00000000000E+00 -0.00000000000E+00 -0.27500000000E+03  0.27500000000E+03  0.00000000000E+00 0.  1.
    9000005    2    1    2  501    0  0.62964587780E+01 -0.33418801100E+02 -0.65300349010E+02  0.46363208161E+03  0.45774895943E+03 0.  0.
         13    1    3    3    0    0  0.13181624947E+02  0.14174318748E+03 -0.19793631523E+03  0.24381072848E+03  0.00000000000E+00 0.  1.
          3    1    3    3  501    0 -0.68851661686E+01 -0.17516198858E+03  0.13263596622E+03  0.21982135313E+03  0.00000000000E+00 0.  1.
         21    1    1    2  502  501 -0.62964587780E+01  0.33418801100E+02  0.16912705207E+02  0.37980274584E+02  0.00000000000E+00 0.  1.
<scales pt_clust_4="550.00000" pt_clust_5="550.00000" pt_clust_6="34.00679"></scales>
<mgrwt>
<rscale>  0 0.30000000E+03</rscale>
<asrwt>  1 0.34006788E+02</asrwt>
<pdfrwt beam="1">  1        1 0.82404493E+00 0.30000000E+03</pdfrwt>
<pdfrwt beam="2">0</pdfrwt>
<totfact> 0.66973835E-04</totfact>
</mgrwt>
<clustering>
<clus scale="   34.007">  1  6  2 -1</clus>
<clus scale="  457.749">  4  5 -1 -1</clus>
<clus scale="  300.000">  1  4  2 -1</clus>
</clustering>
</event>
<event>
 6    1  0.9964252E-012  0.3000000E+03  0.7818608E-02  0.1093470E+00
          1   -1    0    0  502    0  0.00000000000E+00  0.00000000000E+00  0.24306139868E+03  0.24306139868E+03  0.00000000000E+00 0.  1.
         13   -1    0    0    0    0 -0.00000000000E+00 -0.00000000000E+00 -0.27500000000E+03  0.27500000000E+03  0.00000000000E+00 0.  1.
    9000005    2    1    2  501    0  0.29793140750E+02 -0.85219806868E+01 -0.24253034936E+02  0.48613455541E+03  0.48453930787E+03 0.  0.
         13    1    3    3    0    0 -0.10384596769E+03 -0.11492010880E+03 -0.19202256040E+03  0.24670484413E+03  0.00000000000E+00 0.  1.
          1    1    3    3  501    0  0.13363910844E+03  0.10639812812E+03  0.16776952547E+03  0.23942971128E+03  0.00000000000E+00 0.  1.
         21    1    1    2  502  501 -0.29793140750E+02  0.85219806868E+01 -0.76855663830E+01  0.31926843270E+02  0.00000000000E+00 0.  1.
<scales pt_clust_4="550.00000" pt_clust_5="550.00000" pt_clust_6="30.98800"></scales>
<mgrwt>
<rscale>  0 0.30000000E+03</rscale>
<asrwt>  1 0.30988003E+02</asrwt>
<pdfrwt beam="1">  1        1 0.88385963E+00 0.30000000E+03</pdfrwt>
<pdfrwt beam="2">0</pdfrwt>
<totfact> 0.17998010E-04</totfact>
</mgrwt>
<clustering>
<clus scale="   30.988">  1  6  2 -1</clus>
<clus scale="  484.539">  4  5 -1 -1</clus>
<clus scale="  300.000">  1  4  2 -1</clus>
</clustering>
</event>
<event>
 6    1  0.9964252E-012  0.3000000E+03  0.7818608E-02  0.1093470E+00
          1   -1    0    0  502    0  0.00000000000E+00  0.00000000000E+00  0.23144334116E+03  0.23144334116E+03  0.00000000000E+00 0.  1.
         13   -1    0    0    0    0 -0.00000000000E+00 -0.00000000000E+00 -0.27500000000E+03  0.27500000000E+03  0.00000000000E+00 0.  1.
    9000005    2    1    2  501    0  0.11804468927E+02  0.29135830777E+02 -0.59679781013E+02  0.47111350688E+03  0.46625960363E+03 0.  0.
         13    1    3    3    0    0  0.65704415690E+02 -0.95442531969E+02 -0.22747648140E+03  0.25528787034E+03  0.00000000000E+00 0.  1.
          1    1    3    3  501    0 -0.53899946762E+02  0.12457836275E+03  0.16779670039E+03  0.21582563654E+03  0.00000000000E+00 0.  1.
         21    1    1    2  502  501 -0.11804468927E+02 -0.29135830777E+02  0.16123122170E+02  0.35329834280E+02  0.00000000000E+00 0.  1.
<scales pt_clust_4="550.00000" pt_clust_5="550.00000" pt_clust_6="31.43632"></scales>
<mgrwt>
<rscale>  0 0.30000000E+03</rscale>
<asrwt>  1 0.31436319E+02</asrwt>
<pdfrwt beam="1">  1        1 0.84161215E+00 0.30000000E+03</pdfrwt>
<pdfrwt beam="2">0</pdfrwt>
<totfact> 0.49258404E-04</totfact>
</mgrwt>
<clustering>
<clus scale="   31.436">  1  6  2 -1</clus>
<clus scale="  466.260">  4  5 -1 -1</clus>
<clus scale="  300.000">  1  4  2 -1</clus>
</clustering>
</event>
<event>
 6    1  0.9964252E-012  0.3000000E+03  0.7818608E-02  0.1093470E+00
          1   -1    0    0  502    0  0.00000000000E+00  0.00000000000E+00  0.24087565673E+03  0.24087565673E+03  0.00000000000E+00 0.  1.
         13   -1    0    0    0    0 -0.00000000000E+00 -0.00000000000E+00 -0.27500000000E+03  0.27500000000E+03  0.00000000000E+00 0.  1.
    9000005    2    1    2  501    0  0.30604962537E+02  0.10392321817E+02 -0.71337908680E+02  0.46658556102E+03  0.45996556877E+03 0.  0.
         13    1    3    3    0    0 -0.30301313589E+02 -0.19907716850E+03 -0.13124506521E+03  0.24036463085E+03  0.00000000000E+00 0.  1.
          1    1    3    3  501    0  0.60906276125E+02  0.20946949031E+03  0.59907156527E+02  0.22622093017E+03  0.00000000000E+00 0.  1.
         21    1    1    2  502  501 -0.30604962537E+02 -0.10392321817E+02  0.37213565410E+02  0.49290095710E+02  0.00000000000E+00 0.  1.
<scales pt_clust_4="550.00000" pt_clust_5="550.00000" pt_clust_6="32.32126"></scales>
<mgrwt>
<rscale>  0 0.30000000E+03</rscale>
<asrwt>  1 0.32321264E+02</asrwt>
<pdfrwt beam="1">  1        1 0.87591148E+00 0.30000000E+03</pdfrwt>
<pdfrwt beam="2">0</pdfrwt>
<totfact> 0.22326587E-04</totfact>
</mgrwt>
<clustering>
<clus scale="   32.321">  1  6  2 -1</clus>
<clus scale="  459.966">  4  5 -1 -1</clus>
<clus scale="  300.000">  1  4  2 -1</clus>
</clustering>
</event>
<event>
 6    1  0.9964252E-012  0.3000000E+03  0.7818608E-02  0.1093470E+00
          1   -1    0    0  502    0  0.00000000000E+00  0.00000000000E+00  0.23455253064E+03  0.23455253064E+03  0.00000000000E+00 0.  1.
         13   -1    0    0    0    0 -0.00000000000E+00 -0.00000000000E+00 -0.27500000000E+03  0.27500000000E+03  0.00000000000E+00 0.  1.
    9000005    2    1    2  501    0  0.15653169228E+02 -0.33100441177E+02 -0.32538605084E+02  0.47209307193E+03  0.46954493590E+03 0.  0.
         13    1    3    3    0    0  0.44105736709E+02  0.21430315245E+03  0.11929469019E+02  0.21911976039E+03  0.00000000000E+00 0.  1.
          3    1    3    3  501    0 -0.28452567481E+02 -0.24740359363E+03 -0.44468074104E+02  0.25297331154E+03  0.00000000000E+00 0.  1.
         21    1    1    2  502  501 -0.15653169228E+02  0.33100441177E+02 -0.79088642725E+01  0.37459458714E+02  0.00000000000E+00 0. -1.
<scales pt_clust_4="550.00000" pt_clust_5="550.00000" pt_clust_6="36.61506"></scales>
<mgrwt>
<rscale>  0 0.30000000E+03</rscale>
<asrwt>  1 0.36615055E+02</asrwt>
<pdfrwt beam="1">  1        1 0.85291829E+00 0.30000000E+03</pdfrwt>
<pdfrwt beam="2">0</pdfrwt>
<totfact> 0.37856501E-04</totfact>
</mgrwt>
<clustering>
<clus scale="   36.615">  1  6  2 -1</clus>
<clus scale="  469.545">  4  5 -1 -1</clus>
<clus scale="  300.000">  1  4  2 -1</clus>
</clustering>
</event>
<event>
 6    1  0.9964252E-012  0.3000000E+03  0.7818608E-02  0.1093470E+00
          1   -1    0    0  502    0  0.00000000000E+00  0.00000000000E+00  0.22765586332E+03  0.22765586332E+03  0.00000000000E+00 0.  1.
         13   -1    0    0    0    0 -0.00000000000E+00 -0.00000000000E+00 -0.27500000000E+03  0.27500000000E+03  0.00000000000E+00 0.  1.
    9000005    2    1    2  501    0 -0.90127111724E+01 -0.34914672814E+02 -0.64418434525E+02  0.46275855781E+03  0.45683200936E+03 0.  0.
         13    1    3    3    0    0 -0.11284351606E+03  0.16052571264E+03 -0.12581421092E+03  0.23309092476E+03  0.00000000000E+00 0.  1.
          3    1    3    3  501    0  0.10383080488E+03 -0.19544038545E+03  0.61395776398E+02  0.22966763305E+03  0.00000000000E+00 0.  1.
         21    1    1    2  502  501  0.90127111724E+01  0.34914672814E+02  0.17074297846E+02  0.39897305514E+02  0.00000000000E+00 0. -1.
<scales pt_clust_4="550.00000" pt_clust_5="550.00000" pt_clust_6="36.05916"></scales>
<mgrwt>
<rscale>  0 0.30000000E+03</rscale>
<asrwt>  1 0.36059164E+02</asrwt>
<pdfrwt beam="1">  1        1 0.82783950E+00 0.30000000E+03</pdfrwt>
<pdfrwt beam="2">0</pdfrwt>
<totfact> 0.61309984E-04</totfact>
</mgrwt>
<clustering>
<clus scale="   36.059">  1  6  2 -1</clus>
<clus scale="  456.832">  4  5 -1 -1</clus>
<clus scale="  300.000">  1  4  2 -1</clus>
</clustering>
</event>
<event>
 6    1  0.9964252E-012  0.3000000E+03  0.7818608E-02  0.1093470E+00
          1   -1    0    0  502    0  0.00000000000E+00  0.00000000000E+00  0.22570442790E+03  0.22570442790E+03  0.00000000000E+00 0.  1.
         13   -1    0    0    0    0 -0.00000000000E+00 -0.00000000000E+00 -0.27500000000E+03  0.27500000000E+03  0.00000000000E+00 0.  1.
    9000005    2    1    2  501    0  0.25376956352E+02  0.16957019854E+02 -0.59893860750E+02  0.46839569598E+03  0.46354689409E+03 0.  0.
         13    1    3    3    0    0 -0.15985402392E+03 -0.11736423441E+03 -0.12004298731E+03  0.23181456228E+03  0.00000000000E+00 0.  1.
          1    1    3    3  501    0  0.18523098027E+03  0.13432125427E+03  0.60149126560E+02  0.23658113370E+03  0.00000000000E+00 0.  1.
         21    1    1    2  502  501 -0.25376956352E+02 -0.16957019854E+02  0.10598288654E+02  0.32308731922E+02  0.00000000000E+00 0.  1.
<scales pt_clust_4="550.00000" pt_clust_5="550.00000" pt_clust_6="30.52098"></scales>
<mgrwt>
<rscale>  0 0.30000000E+03</rscale>
<asrwt>  1 0.30520984E+02</asrwt>
<pdfrwt beam="1">  1        1 0.82074337E+00 0.30000000E+03</pdfrwt>
<pdfrwt beam="2">0</pdfrwt>
<totfact> 0.73132443E-04</totfact>
</mgrwt>
<clustering>
<clus scale="   30.521">  1  6  2 -1</clus>
<clus scale="  463.547">  4  5 -1 -1</clus>
<clus scale="  300.000">  1  4  2 -1</clus>
</clustering>
</event>
<event>
 6    1  0.9964252E-012  0.3000000E+03  0.7818608E-02  0.1093470E+00
          1   -1    0    0  502    0  0.00000000000E+00  0.00000000000E+00  0.24338700605E+03  0.24338700605E+03  0.00000000000E+00 0.  1.
         13   -1    0    0    0    0 -0.00000000000E+00 -0.00000000000E+00 -0.27500000000E+03  0.27500000000E+03  0.00000000000E+00 0.  1.
    9000005    2    1    2  501    0 -0.26278134001E+02 -0.20801498151E+02 -0.60062815496E+02  0.47442526134E+03  0.46941297824E+03 0.  0.
         13    1    3    3    0    0 -0.19249176922E+03  0.91578880375E+02 -0.14367080397E+03  0.25706239021E+03  0.00000000000E+00 0.  1.
          1    1    3    3  501    0  0.16621363521E+03 -0.11238037853E+03  0.83607988476E+02  0.21736287113E+03  0.00000000000E+00 0.  1.
         21    1    1    2  502  501  0.26278134001E+02  0.20801498151E+02  0.28449821546E+02  0.43961744710E+02  0.00000000000E+00 0. -1.
<scales pt_clust_4="550.00000" pt_clust_5="550.00000" pt_clust_6="33.51481"></scales>
<mgrwt>
<rscale>  0 0.30000000E+03</rscale>
<asrwt>  1 0.33514812E+02</asrwt>
<pdfrwt beam="1">  1        1 0.88504366E+00 0.30000000E+03</pdfrwt>
<pdfrwt beam="2">0</pdfrwt>
<totfact> 0.17085992E-04</totfact>
</mgrwt>
<clustering>
<clus scale="   33.515">  1  6  2 -1</clus>
<clus scale="  469.413">  4  5 -1 -1</clus>
<clus scale="  300.000">  1  4  2 -1</clus>
</clustering>
</event>
<event>
 6    1  0.9964252E-012  0.3000000E+03  0.7818608E-02  0.1093470E+00
          1   -1    0    0  502    0  0.00000000000E+00  0.00000000000E+00  0.23761326401E+03  0.23761326401E+03  0.00000000000E+00 0.  1.
         13   -1    0    0    0    0 -0.00000000000E+00 -0.00000000000E+00 -0.27500000000E+03  0.27500000000E+03  0.00000000000E+00 0.  1.
    9000005    2    1    2  501    0  0.20097627541E+02  0.26437454239E+02 -0.35581064472E+02  0.47935497078E+03  0.47687768058E+03 0.  0.
         13    1    3    3    0    0  0.62122864098E+02 -0.21687341304E+03  0.19287515905E+02  0.22641849703E+03  0.00000000000E+00 0.  1.
          3    1    3    3  501    0 -0.42025236557E+02  0.24331086727E+03 -0.54868580377E+02  0.25293647375E+03  0.00000000000E+00 0.  1.
         21    1    1    2  502  501 -0.20097627541E+02 -0.26437454239E+02 -0.18056715148E+01  0.33258293237E+02  0.00000000000E+00 0.  1.
<scales pt_clust_4="550.00000" pt_clust_5="550.00000" pt_clust_6="33.20924"></scales>
<mgrwt>
<rscale>  0 0.30000000E+03</rscale>
<asrwt>  1 0.33209240E+02</asrwt>
<pdfrwt beam="1">  1        1 0.86404823E+00 0.30000000E+03</pdfrwt>
<pdfrwt beam="2">0</pdfrwt>
<totfact> 0.29543791E-04</totfact>
</mgrwt>
<clustering>
<clus scale="   33.209">  1  6  2 -1</clus>
<clus scale="  476.878">  4  5 -1 -1</clus>
<clus scale="  300.000">  1  4  2 -1</clus>
</clustering>
</event>
<event>
 6    1  0.9964252E-012  0.3000000E+03  0.7818608E-02  0.1093470E+00
          1   -1    0    0  502    0  0.00000000000E+00  0.00000000000E+00  0.22890464928E+03  0.22890464928E+03  0.00000000000E+00 0.  1.
         13   -1    0    0    0    0 -0.00000000000E+00 -0.00000000000E+00 -0.27500000000E+03  0.27500000000E+03  0.00000000000E+00 0.  1.
    9000005    2    1    2  501    0 -0.26654432394E+01  0.32001783399E+02 -0.42553657849E+02  0.47159733871E+03  0.46857445230E+03 0.  0.
         13    1    3    3    0    0 -0.18156611540E+03 -0.12901982853E+03 -0.58760315073E+02  0.23035873121E+03  0.00000000000E+00 0.  1.
          1    1    3    3  501    0  0.17890067216E+03  0.16102161193E+03  0.16206657223E+02  0.24123860750E+03  0.00000000000E+00 0.  1.
         21    1    1    2  502  501  0.26654432394E+01 -0.32001783399E+02 -0.35416928677E+01  0.32307310578E+02  0.00000000000E+00 0.  1.
<scales pt_clust_4="550.00000" pt_clust_5="550.00000" pt_clust_6="32.11261"></scales>
<mgrwt>
<rscale>  0 0.30000000E+03</rscale>
<asrwt>  1 0.32112611E+02</asrwt>
<pdfrwt beam="1">  1        1 0.83238054E+00 0.30000000E+03</pdfrwt>
<pdfrwt beam="2">0</pdfrwt>
<totfact> 0.57511597E-04</totfact>
</mgrwt>
<clustering>
<clus scale="   32.113">  1  6  2 -1</clus>
<clus scale="  468.574">  4  5 -1 -1</clus>
<clus scale="  300.000">  1  4  2 -1</clus>
</clustering>
</event>
<event>
 6    1  0.9964252E-012  0.3000000E+03  0.7818608E-02  0.1093470E+00
          1   -1    0    0  502    0  0.00000000000E+00  0.00000000000E+00  0.22223929852E+03  0.22223929852E+03  0.00000000000E+00 0.  1.
         13   -1    0    0    0    0 -0.00000000000E+00 -0.00000000000E+00 -0.27500000000E+03  0.27500000000E+03  0.00000000000E+00 0.  1.
    9000005    2    1    2  501    0  0.31551445807E+02 -0.35524230710E+01 -0.37019134193E+02  0.46180047260E+03  0.45921797303E+03 0.  0.
         13    1    3    3    0    0 -0.25750115175E+02 -0.11400218319E+03 -0.21495533326E+03  0.24467399024E+03  0.00000000000E+00 0.  1.
          3    1    3    3  501    0  0.57301560981E+02  0.11044976012E+03  0.17793619907E+03  0.21712648235E+03  0.00000000000E+00 0.  1.
         21    1    1    2  502  501 -0.31551445807E+02  0.35524230710E+01 -0.15741567288E+02  0.35438825924E+02  0.00000000000E+00 0.  1.
<scales pt_clust_4="550.00000" pt_clust_5="550.00000" pt_clust_6="31.75082"></scales>
<mgrwt>
<rscale>  0 0.30000000E+03</rscale>
<asrwt>  1 0.31750818E+02</asrwt>
<pdfrwt beam="1">  1        1 0.80814290E+00 0.30000000E+03</pdfrwt>
<pdfrwt beam="2">0</pdfrwt>
<totfact> 0.91829107E-04</totfact>
</mgrwt>
<clustering>
<clus scale="   31.751">  1  6  2 -1</clus>
<clus scale="  459.218">  4  5 -1 -1</clus>
<clus scale="  300.000">  1  4  2 -1</clus>
</clustering>
</event>
<event>
 6    1  0.9964252E-012  0.3000000E+03  0.7818608E-02  0.1093470E+00
          1   -1    0    0  502    0  0.00000000000E+00  0.00000000000E+00  0.22413452638E+03  0.22413452638E+03  0.00000000000E+00 0.  1.
         13   -1    0    0    0    0 -0.00000000000E+00 -0.00000000000E+00 -0.27500000000E+03  0.27500000000E+03  0.00000000000E+00 0.  1.
    9000005    2    1    2  501    0  0.20645483076E+02  0.31293102189E+02 -0.43852058847E+02  0.46099423006E+03  0.45736985348E+03 0.  0.
         13    1    3    3    0    0 -0.43013424427E+02  0.19191383235E+03 -0.15938522352E+03  0.25314960637E+03  0.00000000000E+00 0.  1.
          1    1    3    3  501    0  0.63658907503E+02 -0.16062073016E+03  0.11553316467E+03  0.20784462370E+03  0.00000000000E+00 0.  1.
         21    1    1    2  502  501 -0.20645483076E+02 -0.31293102189E+02 -0.70134147754E+01  0.38140296313E+02  0.00000000000E+00 0.  1.
<scales pt_clust_4="550.00000" pt_clust_5="550.00000" pt_clust_6="37.48994"></scales>
<mgrwt>
<rscale>  0 0.30000000E+03</rscale>
<asrwt>  1 0.37489940E+02</asrwt>
<pdfrwt beam="1">  1        1 0.81503464E+00 0.30000000E+03</pdfrwt>
<pdfrwt beam="2">0</pdfrwt>
<totfact> 0.78543059E-04</totfact>
</mgrwt>
<clustering>
<clus scale="   37.490">  1  6  2 -1</clus>
<clus scale="  457.370">  4  5 -1 -1</clus>
<clus scale="  300.000">  1  4  2 -1</clus>
</clustering>
</event>
<event>
 6    1  0.9964252E-012  0.3000000E+03  0.7818608E-02  0.1093470E+00
          1   -1    0    0  502    0  0.00000000000E+00  0.00000000000E+00  0.23138557165E+03  0.23138557165E+03  0.00000000000E+00 0.  1.
         13   -1    0    0    0    0 -0.00000000000E+00 -0.00000000000E+00 -0.27500000000E+03  0.27500000000E+03  0.00000000000E+00 0.  1.
    9000005    2    1    2  501    0  0.99552302232E+01  0.32000887996E+02 -0.45309160663E+02  0.47282911834E+03  0.46945850899E+03 0.  0.
         13    1    3    3    0    0  0.61686385830E+02 -0.21196311047E+03 -0.10316233223E+02  0.22099772638E+03  0.00000000000E+00 0.  1.
          1    1    3    3  501    0 -0.51731155607E+02  0.24396399846E+03 -0.34992927440E+02  0.25183139196E+03  0.00000000000E+00 0.  1.
         21    1    1    2  502  501 -0.99552302232E+01 -0.32000887996E+02  0.16947323132E+01  0.33556453313E+02  0.00000000000E+00 0. -1.
<scales pt_clust_4="550.00000" pt_clust_5="550.00000" pt_clust_6="33.51363"></scales>
<mgrwt>
<rscale>  0 0.30000000E+03</rscale>
<asrwt>  1 0.33513631E+02</asrwt>
<pdfrwt beam="1">  1        1 0.84140208E+00 0.30000000E+03</pdfrwt>
<pdfrwt beam="2">0</pdfrwt>
<totfact> 0.48855378E-04</totfact>
</mgrwt>
<clustering>
<clus scale="   33.514">  1  6  2 -1</clus>
<clus scale="  469.459">  4  5 -1 -1</clus>
<clus scale="  300.000">  1  4  2 -1</clus>
</clustering>
</event>
<event>
 6    1  0.9964252E-012  0.3000000E+03  0.7818608E-02  0.1093470E+00
          1   -1    0    0  502    0  0.00000000000E+00  0.00000000000E+00  0.23105845307E+03  0.23105845307E+03  0.00000000000E+00 0.  1.
         13   -1    0    0    0    0 -0.00000000000E+00 -0.00000000000E+00 -0.27500000000E+03  0.27500000000E+03  0.00000000000E+00 0.  1.
    9000005    2    1    2  501    0  0.35382336781E+02 -0.22135412343E+02 -0.33887218303E+02  0.46312855952E+03  0.45999764439E+03 0.  0.
         13    1    3    3    0    0 -0.19436078160E+03 -0.97624868305E+02 -0.40361703235E+02  0.22121436532E+03  0.00000000000E+00 0.  1.
          1    1    3    3  501    0  0.22974311838E+03  0.75489455962E+02  0.64744849322E+01  0.24191419421E+03  0.00000000000E+00 0.  1.
         21    1    1    2  502  501 -0.35382336781E+02  0.22135412343E+02 -0.10054328630E+02  0.42929893546E+02  0.00000000000E+00 0.  1.
<scales pt_clust_4="550.00000" pt_clust_5="550.00000" pt_clust_6="41.73593"></scales>
<mgrwt>
<rscale>  0 0.30000000E+03</rscale>
<asrwt>  1 0.41735931E+02</asrwt>
<pdfrwt beam="1">  1        1 0.84021256E+00 0.30000000E+03</pdfrwt>
<pdfrwt beam="2">0</pdfrwt>
<totfact> 0.47939127E-04</totfact>
</mgrwt>
<clustering>
<clus scale="   41.736">  1  6  2 -1</clus>
<clus scale="  459.998">  4  5 -1 -1</clus>
<clus scale="  300.000">  1  4  2 -1</clus>
</clustering>
</event>
<event>
 6    1  0.9964252E-012  0.3000000E+03  0.7818608E-02  0.1093470E+00
          1   -1    0    0  502    0  0.00000000000E+00  0.00000000000E+00  0.23479378872E+03  0.23479378872E+03  0.00000000000E+00 0.  1.
         13   -1    0    0    0    0 -0.00000000000E+00 -0.00000000000E+00 -0.27500000000E+03  0.27500000000E+03  0.00000000000E+00 0.  1.
    9000005    2    1    2  501    0 -0.41579097513E+02 -0.75336970166E+01 -0.41481797349E+02  0.46751844058E+03  0.46375335560E+03 0.  0.
         13    1    3    3    0    0 -0.25335356551E+03 -0.13729074314E+02 -0.27031167347E+02  0.25516112683E+03  0.00000000000E+00 0.  1.
          1    1    3    3  501    0  0.21177446800E+03  0.61953772979E+01 -0.14450630002E+02  0.21235731375E+03  0.00000000000E+00 0.  1.
         21    1    1    2  502  501  0.41579097513E+02  0.75336970166E+01  0.12755860708E+01  0.42275348142E+02  0.00000000000E+00 0. -1.
<scales pt_clust_4="550.00000" pt_clust_5="550.00000" pt_clust_6="42.25610"></scales>
<mgrwt>
<rscale>  0 0.30000000E+03</rscale>
<asrwt>  1 0.42256099E+02</asrwt>
<pdfrwt beam="1">  1        1 0.85379560E+00 0.30000000E+03</pdfrwt>
<pdfrwt beam="2">0</pdfrwt>
<totfact> 0.36162717E-04</totfact>
</mgrwt>
<clustering>
<clus scale="   42.256">  1  6  2 -1</clus>
<clus scale="  463.753">  4  5 -1 -1</clus>
<clus scale="  300.000">  1  4  2 -1</clus>
</clustering>
</event>
<event>
 6    1  0.9964252E-012  0.3000000E+03  0.7818608E-02  0.1093470E+00
          1   -1    0    0  502    0  0.00000000000E+00  0.00000000000E+00  0.25070816109E+03  0.25070816109E+03  0.00000000000E+00 0.  1.
         13   -1    0    0    0    0 -0.00000000000E+00 -0.00000000000E+00 -0.27500000000E+03  0.27500000000E+03  0.00000000000E+00 0.  1.
    9000005    2    1    2  501    0  0.29033855321E+02  0.22352016743E+02 -0.61733355682E+02  0.47332071426E+03  0.46784496784E+03 0.  0.
         13    1    3    3    0    0 -0.61886919574E+02  0.38662700789E+02  0.19087775098E+03  0.20435046138E+03  0.00000000000E+00 0.  1.
          3    1    3    3  501    0  0.90920774894E+02 -0.16310684047E+02 -0.25261110667E+03  0.26897025288E+03  0.00000000000E+00 0.  1.
         21    1    1    2  502  501 -0.29033855321E+02 -0.22352016743E+02  0.37441516775E+02  0.52387446833E+02  0.00000000000E+00 0.  1.
<scales pt_clust_4="550.00000" pt_clust_5="550.00000" pt_clust_6="36.64120"></scales>
<mgrwt>
<rscale>  0 0.30000000E+03</rscale>
<asrwt>  1 0.36641198E+02</asrwt>
<pdfrwt beam="1">  1        1 0.91166604E+00 0.30000000E+03</pdfrwt>
<pdfrwt beam="2">0</pdfrwt>
<totfact> 0.64799016E-05</totfact>
</mgrwt>
<clustering>
<clus scale="   36.641">  1  6  2 -1</clus>
<clus scale="  467.845">  4  5 -1 -1</clus>
<clus scale="  300.000">  1  4  2 -1</clus>
</clustering>
</event>
<event>
 6    1  0.9964252E-012  0.3000000E+03  0.7818608E-02  0.1093470E+00
          1   -1    0    0  502    0  0.00000000000E+00  0.00000000000E+00  0.22833476726E+03  0.22833476726E+03  0.00000000000E+00 0.  1.
         13   -1    0    0    0    0 -0.00000000000E+00 -0.00000000000E+00 -0.27500000000E+03  0.27500000000E+03  0.00000000000E+00 0.  1.
    9000005    2    1    2  501    0 -0.32765795813E+02 -0.20090267389E+02 -0.50764184866E+02  0.46468224305E+03  0.46029921608E+03 0.  0.
         13    1    3    3    0    0  0.16351130269E+03  0.31840405517E+02  0.11512872012E+03  0.20249538199E+03  0.00000000000E+00 0.  1.
          3    1    3    3  501    0 -0.19627709851E+03 -0.51930672906E+02 -0.16589290499E+03  0.26218686106E+03  0.00000000000E+00 0.  1.
         21    1    1    2  502  501  0.32765795813E+02  0.20090267389E+02  0.40989521213E+01  0.38652524206E+02  0.00000000000E+00 0.  1.
<scales pt_clust_4="550.00000" pt_clust_5="550.00000" pt_clust_6="38.43457"></scales>
<mgrwt>
<rscale>  0 0.30000000E+03</rscale>
<asrwt>  1 0.38434571E+02</asrwt>
<pdfrwt beam="1">  1        1 0.83030824E+00 0.30000000E+03</pdfrwt>
<pdfrwt beam="2">0</pdfrwt>
<totfact> 0.57746582E-04</totfact>
</mgrwt>
<clustering>
<clus scale="   38.435">  1  6  2 -1</clus>
<clus scale="  460.299">  4  5 -1 -1</clus>
<clus scale="  300.000">  1  4  2 -1</clus>
</clustering>
</event>
<event>
 6    1  0.9964252E-012  0.3000000E+03  0.7818608E-02  0.1093470E+00
          1   -1    0    0  502    0  0.00000000000E+00  0.00000000000E+00  0.24489436538E+03  0.24489436538E+03  0.00000000000E+00 0.  1.
         13   -1    0    0    0    0 -0.00000000000E+00 -0.00000000000E+00 -0.27500000000E+03  0.27500000000E+03  0.00000000000E+00 0.  1.
    9000005    2    1    2  501    0  0.30599592755E+02  0.18235966206E+02 -0.42048742094E+02  0.48232411976E+03  0.47916549776E+03 0.  0.
         13    1    3    3    0    0 -0.10806014867E+03  0.20681735309E+03 -0.76859599717E+02  0.24567826794E+03  0.00000000000E+00 0.  1.
          3    1    3    3  501    0  0.13865974142E+03 -0.18858138689E+03  0.34810857623E+02  0.23664585181E+03  0.00000000000E+00 0.  1.
         21    1    1    2  502  501 -0.30599592755E+02 -0.18235966206E+02  0.11943107478E+02  0.37570245627E+02  0.00000000000E+00 0.  1.
<scales pt_clust_4="550.00000" pt_clust_5="550.00000" pt_clust_6="35.62142"></scales>
<mgrwt>
<rscale>  0 0.30000000E+03</rscale>
<asrwt>  1 0.35621420E+02</asrwt>
<pdfrwt beam="1">  1        1 0.89052497E+00 0.30000000E+03</pdfrwt>
<pdfrwt beam="2">0</pdfrwt>
<totfact> 0.14219201E-04</totfact>
</mgrwt>
<clustering>
<clus scale="   35.621">  1  6  2 -1</clus>
<clus scale="  479.165">  4  5 -1 -1</clus>
<clus scale="  300.000">  1  4  2 -1</clus>
</clustering>
</event>
<event>
 6    1  0.9964252E-012  0.3000000E+03  0.7818608E-02  0.1093470E+00
          1   -1    0    0  502    0  0.00000000000E+00  0.00000000000E+00  0.22522538394E+03  0.22522538394E+03  0.00000000000E+00 0.  1.
         13   -1    0    0    0    0 -0.00000000000E+00 -0.00000000000E+00 -0.27500000000E+03  0.27500000000E+03  0.00000000000E+00 0.  1.
    9000005    2    1    2  501    0 -0.29803575503E+02 -0.75292410819E+01 -0.36621639518E+02  0.46678972370E+03  0.46433453359E+03 0.  0.
         13    1    3    3    0    0  0.12216190608E+03  0.18270181588E+03 -0.39463808919E+02  0.22329549265E+03  0.00000000000E+00 0.  1.
          1    1    3    3  501    0 -0.15196548158E+03 -0.19023105696E+03  0.28421694012E+01  0.24349423105E+03  0.00000000000E+00 0.  1.
         21    1    1    2  502  501  0.29803575503E+02  0.75292410819E+01 -0.13152976542E+02  0.33435660244E+02  0.00000000000E+00 0.  1.
<scales pt_clust_4="550.00000" pt_clust_5="550.00000" pt_clust_6="30.73993"></scales>
<mgrwt>
<rscale>  0 0.30000000E+03</rscale>
<asrwt>  1 0.30739934E+02</asrwt>
<pdfrwt beam="1">  1        1 0.81900140E+00 0.30000000E+03</pdfrwt>
<pdfrwt beam="2">0</pdfrwt>
<totfact> 0.75607255E-04</totfact>
</mgrwt>
<clustering>
<clus scale="   30.740">  1  6  2 -1</clus>
<clus scale="  464.335">  4  5 -1 -1</clus>
<clus scale="  300.000">  1  4  2 -1</clus>
</clustering>
</event>
<event>
 6    1  0.9964252E-012  0.3000000E+03  0.7818608E-02  0.1093470E+00
          1   -1    0    0  502    0  0.00000000000E+00  0.00000000000E+00  0.23660739399E+03  0.23660739399E+03  0.00000000000E+00 0.  1.
         13   -1    0    0    0    0 -0.00000000000E+00 -0.00000000000E+00 -0.27500000000E+03  0.27500000000E+03  0.00000000000E+00 0.  1.
    9000005    2    1    2  501    0 -0.67336341475E+01 -0.33362349640E+02 -0.62797400973E+02  0.46972682308E+03  0.46426434986E+03 0.  0.
         13    1    3    3    0    0  0.16578987388E+03 -0.10423018595E+03  0.10203215424E+03  0.22081841962E+03  0.00000000000E+00 0.  1.
          3    1    3    3  501    0 -0.17252350803E+03  0.70867836313E+02 -0.16482955521E+03  0.24890840347E+03  0.00000000000E+00 0.  1.
         21    1    1    2  502  501  0.67336341475E+01  0.33362349640E+02  0.24404794964E+02  0.41880570908E+02  0.00000000000E+00 0.  1.
<scales pt_clust_4="550.00000" pt_clust_5="550.00000" pt_clust_6="34.03510"></scales>
<mgrwt>
<rscale>  0 0.30000000E+03</rscale>
<asrwt>  1 0.34035103E+02</asrwt>
<pdfrwt beam="1">  1        1 0.86039052E+00 0.30000000E+03</pdfrwt>
<pdfrwt beam="2">0</pdfrwt>
<totfact> 0.32205410E-04</totfact>
</mgrwt>
<clustering>
<clus scale="   34.035">  1  6  2 -1</clus>
<clus scale="  464.264">  4  5 -1 -1</clus>
<clus scale="  300.000">  1  4  2 -1</clus>
</clustering>
</event>
<event>
 6    1  0.9964252E-012  0.3000000E+03  0.7818608E-02  0.1093470E+00
          1   -1    0    0  502    0  0.00000000000E+00  0.00000000000E+00  0.24146249009E+03  0.24146249009E+03  0.00000000000E+00 0.  1.
         13   -1    0    0    0    0 -0.00000000000E+00 -0.00000000000E+00 -0.27500000000E+03  0.27500000000E+03  0.00000000000E+00 0.  1.
    9000005    2    1    2  501    0  0.33455188732E+02 -0.30363508849E+01 -0.44889941397E+02  0.48100340408E+03  0.47772450096E+03 0.  0.
         13    1    3    3    0    0 -0.33025290792E+02  0.21617363451E+03 -0.10729550146E+03  0.24358578514E+03  0.00000000000E+00 0.  1.
          1    1    3    3  501    0  0.66480479523E+02 -0.21920998540E+03  0.62405560064E+02  0.23741761894E+03  0.00000000000E+00 0.  1.
         21    1    1    2  502  501 -0.33455188732E+02  0.30363508849E+01  0.11352431487E+02  0.35459086007E+02  0.00000000000E+00 0.  1.
<scales pt_clust_4="550.00000" pt_clust_5="550.00000" pt_clust_6="33.59269"></scales>
<mgrwt>
<rscale>  0 0.30000000E+03</rscale>
<asrwt>  1 0.33592694E+02</asrwt>
<pdfrwt beam="1">  1        1 0.87804542E+00 0.30000000E+03</pdfrwt>
<pdfrwt beam="2">0</pdfrwt>
<totfact> 0.20986157E-04</totfact>
</mgrwt>
<clustering>
<clus scale="   33.593">  1  6  2 -1</clus>
<clus scale="  477.725">  4  5 -1 -1</clus>
<clus scale="  300.000">  1  4  2 -1</clus>
</clustering>
</event>
<event>
 6    1  0.9964252E-012  0.3000000E+03  0.7818608E-02  0.1093470E+00
          1   -1    0    0  502    0  0.00000000000E+00  0.00000000000E+00  0.23138865150E+03  0.23138865150E+03  0.00000000000E+00 0.  1.
         13   -1    0    0    0    0 -0.00000000000E+00 -0.00000000000E+00 -0.27500000000E+03  0.27500000000E+03  0.00000000000E+00 0.  1.
    9000005    2    1    2  501    0  0.28321686339E+02 -0.20605231460E+02 -0.34361148689E+02  0.47016352656E+03  0.46759636406E+03 0.  0.
         13    1    3    3    0    0  0.61073645676E+02 -0.22106821279E+03  0.72646315849E+02  0.24057978325E+03  0.00000000000E+00 0.  1.
          1    1    3    3  501    0 -0.32751959337E+02  0.20046298133E+03 -0.10700746454E+03  0.22958374331E+03  0.00000000000E+00 0.  1.
         21    1    1    2  502  501 -0.28321686339E+02  0.20605231460E+02 -0.92501998107E+01  0.36225124943E+02  0.00000000000E+00 0. -1.
<scales pt_clust_4="550.00000" pt_clust_5="550.00000" pt_clust_6="35.02420"></scales>
<mgrwt>
<rscale>  0 0.30000000E+03</rscale>
<asrwt>  1 0.35024202E+02</asrwt>
<pdfrwt beam="1">  1        1 0.84141328E+00 0.30000000E+03</pdfrwt>
<pdfrwt beam="2">0</pdfrwt>
<totfact> 0.48442568E-04</totfact>
</mgrwt>
<clustering>
<clus scale="   35.024">  1  6  2 -1</clus>
<clus scale="  467.596">  4  5 -1 -1</clus>
<clus scale="  300.000">  1  4  2 -1</clus>
</clustering>
</event>
<event>
 6    1  0.9964252E-012  0.3000000E+03  0.7818608E-02  0.1093470E+00
          1   -1    0    0  502    0  0.00000000000E+00  0.00000000000E+00  0.22509530461E+03  0.22509530461E+03  0.00000000000E+00 0.  1.
         13   -1    0    0    0    0 -0.00000000000E+00 -0.00000000000E+00 -0.27500000000E+03  0.27500000000E+03  0.00000000000E+00 0.  1.
    9000005    2    1    2  501    0  0.12904626857E+02  0.28954162200E+02 -0.53172225030E+02  0.46822761481E+03  0.46411737831E+03 0.  0.
         13    1    3    3    0    0  0.19773355206E+03 -0.56307034088E+01  0.10369944419E+03  0.22334689870E+03  0.00000000000E+00 0.  1.
          3    1    3    3  501    0 -0.18482892520E+03  0.34584865609E+02 -0.15687166922E+03  0.24488071611E+03  0.00000000000E+00 0.  1.
         21    1    1    2  502  501 -0.12904626857E+02 -0.28954162200E+02  0.32675296364E+01  0.31867689796E+02  0.00000000000E+00 0.  1.
<scales pt_clust_4="550.00000" pt_clust_5="550.00000" pt_clust_6="31.69973"></scales>
<mgrwt>
<rscale>  0 0.30000000E+03</rscale>
<asrwt>  1 0.31699730E+02</asrwt>
<pdfrwt beam="1">  1        1 0.81852838E+00 0.30000000E+03</pdfrwt>
<pdfrwt beam="2">0</pdfrwt>
<totfact> 0.75861886E-04</totfact>
</mgrwt>
<clustering>
<clus scale="   31.700">  1  6  2 -1</clus>
<clus scale="  464.117">  4  5 -1 -1</clus>
<clus scale="  300.000">  1  4  2 -1</clus>
</clustering>
</event>
<event>
 6    1  0.9964252E-012  0.3000000E+03  0.7818608E-02  0.1093470E+00
          1   -1    0    0  502    0  0.00000000000E+00  0.00000000000E+00  0.22673059114E+03  0.22673059114E+03  0.00000000000E+00 0.  1.
         13   -1    0    0    0    0 -0.00000000000E+00 -0.00000000000E+00 -0.27500000000E+03  0.27500000000E+03  0.00000000000E+00 0.  1.
    9000005    2    1    2  501    0  0.46367655516E+01 -0.33162312997E+02 -0.51947225058E+02  0.46804431901E+03  0.46394582849E+03 0.  0.
         13    1    3    3    0    0 -0.23295221843E+02 -0.12218800475E+01  0.20565358868E+03  0.20697236262E+03  0.00000000000E+00 0.  1.
          1    1    3    3  501    0  0.27931987395E+02 -0.31940432950E+02 -0.25760081374E+03  0.26107195639E+03  0.00000000000E+00 0.  1.
         21    1    1    2  502  501 -0.46367655516E+01  0.33162312997E+02  0.36778162016E+01  0.33686272132E+02  0.00000000000E+00 0.  1.
<scales pt_clust_4="550.00000" pt_clust_5="550.00000" pt_clust_6="33.48490"></scales>
<mgrwt>
<rscale>  0 0.30000000E+03</rscale>
<asrwt>  1 0.33484901E+02</asrwt>
<pdfrwt beam="1">  1        1 0.82447488E+00 0.30000000E+03</pdfrwt>
<pdfrwt beam="2">0</pdfrwt>
<totfact> 0.66577457E-04</totfact>
</mgrwt>
<clustering>
<clus scale="   33.485">  1  6  2 -1</clus>
<clus scale="  463.946">  4  5 -1 -1</clus>
<clus scale="  300.000">  1  4  2 -1</clus>
</clustering>
</event>
<event>
 6    1  0.9964252E-012  0.3000000E+03  0.7818608E-02  0.1093470E+00
          1   -1    0    0  502    0  0.00000000000E+00  0.00000000000E+00  0.23490664178E+03  0.23490664178E+03  0.00000000000E+00 0.  1.
         13   -1    0    0    0    0 -0.00000000000E+00 -0.00000000000E+00 -0.27500000000E+03  0.27500000000E+03  0.00000000000E+00 0.  1.
    9000005    2    1    2  501    0  0.11733547840E+02  0.32210307745E+02 -0.53473420488E+02  0.47310710189E+03  0.46882378682E+03 0.  0.
         13    1    3    3    0    0 -0.92889186352E+02 -0.14778566790E+02 -0.23796106979E+03  0.25587551214E+03  0.00000000000E+00 0.  1.
          3    1    3    3  501    0  0.10462273419E+03  0.46988874535E+02  0.18448764930E+03  0.21723158975E+03  0.00000000000E+00 0.  1.
         21    1    1    2  502  501 -0.11733547840E+02 -0.32210307745E+02  0.13380062271E+02  0.36799539893E+02  0.00000000000E+00 0. -1.
<scales pt_clust_4="550.00000" pt_clust_5="550.00000" pt_clust_6="34.28090"></scales>
<mgrwt>
<rscale>  0 0.30000000E+03</rscale>
<asrwt>  1 0.34280899E+02</asrwt>
<pdfrwt beam="1">  1        1 0.85420597E+00 0.30000000E+03</pdfrwt>
<pdfrwt beam="2">0</pdfrwt>
<totfact> 0.37239298E-04</totfact>
</mgrwt>
<clustering>
<clus scale="   34.281">  1  6  2 -1</clus>
<clus scale="  468.824">  4  5 -1 -1</clus>
<clus scale="  300.000">  1  4  2 -1</clus>
</clustering>
</event>
<event>
 6    1  0.9964252E-012  0.3000000E+03  0.7818608E-02  0.1093470E+00
          1   -1    0    0  502    0  0.00000000000E+00  0.00000000000E+00  0.24896437316E+03  0.24896437316E+03  0.00000000000E+00 0.  1.
         13   -1    0    0    0    0 -0.00000000000E+00 -0.00000000000E+00 -0.27500000000E+03  0.27500000000E+03  0.00000000000E+00 0.  1.
    9000005    2    1    2  501    0 -0.66708295019E+01 -0.36056386528E+02 -0.47392069553E+02  0.48153018151E+03  0.47778734231E+03 0.  0.
         13    1    3    3    0    0 -0.93342078655E+02  0.95127819694E+02 -0.21421512363E+03  0.25228984308E+03  0.00000000000E+00 0.  1.
          1    1    3    3  501    0  0.86671249153E+02 -0.13118420622E+03  0.16682305408E+03  0.22924033843E+03  0.00000000000E+00 0.  1.
         21    1    1    2  502  501  0.66708295019E+01  0.36056386528E+02  0.21356442716E+02  0.42434191652E+02  0.00000000000E+00 0. -1.
<scales pt_clust_4="550.00000" pt_clust_5="550.00000" pt_clust_6="36.66828"></scales>
<mgrwt>
<rscale>  0 0.30000000E+03</rscale>
<asrwt>  1 0.36668283E+02</asrwt>
<pdfrwt beam="1">  1        1 0.90532499E+00 0.30000000E+03</pdfrwt>
<pdfrwt beam="2">0</pdfrwt>
<totfact> 0.90363824E-05</totfact>
</mgrwt>
<clustering>
<clus scale="   36.668">  1  6  2 -1</clus>
<clus scale="  477.787">  4  5 -1 -1</clus>
<clus scale="  300.000">  1  4  2 -1</clus>
</clustering>
</event>
<event>
 6    1  0.9964252E-012  0.3000000E+03  0.7818608E-02  0.1093470E+00
          1   -1    0    0  502    0  0.00000000000E+00  0.00000000000E+00  0.22438857346E+03  0.22438857346E+03  0.00000000000E+00 0.  1.
         13   -1    0    0    0    0 -0.00000000000E+00 -0.00000000000E+00 -0.27500000000E+03  0.27500000000E+03  0.00000000000E+00 0.  1.
    9000005    2    1    2  501    0 -0.33388714903E+02 -0.68688177671E+01 -0.40469416161E+02  0.46382388149E+03  0.46079586853E+03 0.  0.
         13    1    3    3    0    0  0.27066017861E+02  0.43434037066E+02  0.20227948211E+03  0.20865299849E+03  0.00000000000E+00 0.  1.
          1    1    3    3  501    0 -0.60454732763E+02 -0.50302854833E+02 -0.24274889827E+03  0.25517088299E+03  0.00000000000E+00 0.  1.
         21    1    1    2  502  501  0.33388714903E+02  0.68688177671E+01 -0.10142010382E+02  0.35564691970E+02  0.00000000000E+00 0. -1.
<scales pt_clust_4="550.00000" pt_clust_5="550.00000" pt_clust_6="34.08795"></scales>
<mgrwt>
<rscale>  0 0.30000000E+03</rscale>
<asrwt>  1 0.34087947E+02</asrwt>
<pdfrwt beam="1">  1        1 0.81595845E+00 0.30000000E+03</pdfrwt>
<pdfrwt beam="2">0</pdfrwt>
<totfact> 0.78579051E-04</totfact>
</mgrwt>
<clustering>
<clus scale="   34.088">  1  6  2 -1</clus>
<clus scale="  460.796">  4  5 -1 -1</clus>
<clus scale="  300.000">  1  4  2 -1</clus>
</clustering>
</event>
<event>
 6    1  0.9964252E-012  0.3000000E+03  0.7818608E-02  0.1093470E+00
          1   -1    0    0  502    0  0.00000000000E+00  0.00000000000E+00  0.22259386338E+03  0.22259386338E+03  0.00000000000E+00 0.  1.
         13   -1    0    0    0    0 -0.00000000000E+00 -0.00000000000E+00 -0.27500000000E+03  0.27500000000E+03  0.00000000000E+00 0.  1.
    9000005    2    1    2  501    0 -0.30114175290E+02 -0.46616124771E+00 -0.41076211878E+02  0.46541548470E+03  0.46261997077E+03 0.  0.
         13    1    3    3    0    0  0.91174130318E+02  0.19143879091E+03  0.54755423615E+02  0.21899700710E+03  0.00000000000E+00 0.  1.
          3    1    3    3  501    0 -0.12128830561E+03 -0.19190495216E+03 -0.95831635493E+02  0.24641847760E+03  0.00000000000E+00 0.  1.
         21    1    1    2  502  501  0.30114175290E+02  0.46616124771E+00 -0.11329924746E+02  0.32178378680E+02  0.00000000000E+00 0.  1.
<scales pt_clust_4="550.00000" pt_clust_5="550.00000" pt_clust_6="30.11780"></scales>
<mgrwt>
<rscale>  0 0.30000000E+03</rscale>
<asrwt>  1 0.30117798E+02</asrwt>
<pdfrwt beam="1">  1        1 0.80943223E+00 0.30000000E+03</pdfrwt>
<pdfrwt beam="2">0</pdfrwt>
<totfact> 0.90653955E-04</totfact>
</mgrwt>
<clustering>
<clus scale="   30.118">  1  6  2 -1</clus>
<clus scale="  462.620">  4  5 -1 -1</clus>
<clus scale="  300.000">  1  4  2 -1</clus>
</clustering>
</event>
<event>
 6    1  0.9964252E-012  0.3000000E+03  0.7818608E-02  0.1093470E+00
          1   -1    0    0  502    0  0.00000000000E+00  0.00000000000E+00  0.25350859690E+03  0.25350859690E+03  0.00000000000E+00 0.  1.
         13   -1    0    0    0    0 -0.00000000000E+00 -0.00000000000E+00 -0.27500000000E+03  0.27500000000E+03  0.00000000000E+00 0.  1.
    9000005    2    1    2  501    0 -0.23874154738E+02 -0.19302466762E+02 -0.53964274602E+02  0.48382025534E+03  0.47982010802E+03 0.  0.
         13    1    3    3    0    0  0.21641050915E+03 -0.82812201771E+02 -0.14466071682E+02  0.23216510604E+03  0.00000000000E+00 0.  1.
          3    1    3    3  501    0 -0.24028466388E+03  0.63509735009E+02 -0.39498202920E+02  0.25165514931E+03  0.00000000000E+00 0.  1.
         21    1    1    2  502  501  0.23874154738E+02  0.19302466762E+02  0.32472871506E+02  0.44688341560E+02  0.00000000000E+00 0. -1.
<scales pt_clust_4="550.00000" pt_clust_5="550.00000" pt_clust_6="30.70115"></scales>
<mgrwt>
<rscale>  0 0.30000000E+03</rscale>
<asrwt>  1 0.30701148E+02</asrwt>
<pdfrwt beam="1">  1        1 0.92184944E+00 0.30000000E+03</pdfrwt>
<pdfrwt beam="2">0</pdfrwt>
<totfact> 0.39111340E-05</totfact>
</mgrwt>
<clustering>
<clus scale="   30.701">  1  6  2 -1</clus>
<clus scale="  479.820">  4  5 -1 -1</clus>
<clus scale="  300.000">  1  4  2 -1</clus>
</clustering>
</event>
<event>
 6    1  0.9964252E-012  0.3000000E+03  0.7818608E-02  0.1093470E+00
          1   -1    0    0  502    0  0.00000000000E+00  0.00000000000E+00  0.25980663521E+03  0.25980663521E+03  0.00000000000E+00 0.  1.
         13   -1    0    0    0    0 -0.00000000000E+00 -0.00000000000E+00 -0.27500000000E+03  0.27500000000E+03  0.00000000000E+00 0.  1.
    9000005    2    1    2  501    0 -0.35948500957E+02  0.20062065991E+02 -0.54385680607E+02  0.47796634288E+03  0.47307424519E+03 0.  0.
         13    1    3    3    0    0 -0.12111687133E+03 -0.10857011445E+03 -0.20545409836E+03  0.26204608908E+03  0.00000000000E+00 0.  1.
          3    1    3    3  501    0  0.85168370369E+02  0.12863218044E+03  0.15106841775E+03  0.21592025380E+03  0.00000000000E+00 0.  1.
         21    1    1    2  502  501  0.35948500957E+02 -0.20062065991E+02  0.39192315812E+02  0.56840292325E+02  0.00000000000E+00 0.  1.
<scales pt_clust_4="550.00000" pt_clust_5="550.00000" pt_clust_6="41.16772"></scales>
<mgrwt>
<rscale>  0 0.30000000E+03</rscale>
<asrwt>  1 0.41167721E+02</asrwt>
<pdfrwt beam="1">  1        1 0.94475140E+00 0.30000000E+03</pdfrwt>
<pdfrwt beam="2">0</pdfrwt>
<totfact> 0.15256908E-05</totfact>
</mgrwt>
<clustering>
<clus scale="   41.168">  1  6  2 -1</clus>
<clus scale="  473.074">  4  5 -1 -1</clus>
<clus scale="  300.000">  1  4  2 -1</clus>
</clustering>
</event>
<event>
 6    1  0.9964252E-012  0.3000000E+03  0.7818608E-02  0.1093470E+00
          1   -1    0    0  502    0  0.00000000000E+00  0.00000000000E+00  0.24261996329E+03  0.24261996329E+03  0.00000000000E+00 0.  1.
         13   -1    0    0    0    0 -0.00000000000E+00 -0.00000000000E+00 -0.27500000000E+03  0.27500000000E+03  0.00000000000E+00 0.  1.
    9000005    2    1    2  501    0  0.34865696294E+02 -0.92095021491E+01 -0.48759528662E+02  0.47801289997E+03  0.47415019688E+03 0.  0.
         13    1    3    3    0    0  0.25136742836E+03  0.26503389241E+02  0.20951050401E+01  0.25276946640E+03  0.00000000000E+00 0.  1.
          3    1    3    3  501    0 -0.21650173206E+03 -0.35712891390E+02 -0.50854633702E+02  0.22524343357E+03  0.00000000000E+00 0.  1.
         21    1    1    2  502  501 -0.34865696294E+02  0.92095021491E+01  0.16379491951E+02  0.39607063316E+02  0.00000000000E+00 0. -1.
<scales pt_clust_4="550.00000" pt_clust_5="550.00000" pt_clust_6="36.06150"></scales>
<mgrwt>
<rscale>  0 0.30000000E+03</rscale>
<asrwt>  1 0.36061499E+02</asrwt>
<pdfrwt beam="1">  1        1 0.88225441E+00 0.30000000E+03</pdfrwt>
<pdfrwt beam="2">0</pdfrwt>
<totfact> 0.18372840E-04</totfact>
</mgrwt>
<clustering>
<clus scale="   36.061">  1  6  2 -1</clus>
<clus scale="  474.150">  4  5 -1 -1</clus>
<clus scale="  300.000">  1  4  2 -1</clus>
</clustering>
</event>
<event>
 6    1  0.9964252E-012  0.3000000E+03  0.7818608E-02  0.1093470E+00
          1   -1    0    0  502    0  0.00000000000E+00  0.00000000000E+00  0.24703114606E+03  0.24703114606E+03  0.00000000000E+00 0.  1.
         13   -1    0    0    0    0 -0.00000000000E+00 -0.00000000000E+00 -0.27500000000E+03  0.27500000000E+03  0.00000000000E+00 0.  1.
    9000005    2    1    2  501    0 -0.38971089710E+02  0.23407599468E+02  0.74808689816E+01  0.46438269073E+03  0.46209161267E+03 0.  0.
         13    1    3    3    0    0  0.32098643991E+02  0.17191708587E+03  0.16214690746E+03  0.23848988859E+03  0.00000000000E+00 0.  1.
          1    1    3    3  501    0 -0.71069733701E+02 -0.14850948640E+03 -0.15466603848E+03  0.22589280214E+03  0.00000000000E+00 0.  1.
         21    1    1    2  502  501  0.38971089710E+02 -0.23407599468E+02 -0.35449722925E+02  0.57648455326E+02  0.00000000000E+00 0.  1.
<scales pt_clust_4="550.00000" pt_clust_5="550.00000" pt_clust_6="45.46057"></scales>
<mgrwt>
<rscale>  0 0.30000000E+03</rscale>
<asrwt>  1 0.45460572E+02</asrwt>
<pdfrwt beam="1">  1        1 0.89829508E+00 0.30000000E+03</pdfrwt>
<pdfrwt beam="2">0</pdfrwt>
<totfact> 0.11037848E-04</totfact>
</mgrwt>
<clustering>
<clus scale="   45.461">  1  6  2 -1</clus>
<clus scale="  462.092">  4  5 -1 -1</clus>
<clus scale="  300.000">  1  4  2 -1</clus>
</clustering>
</event>
<event>
 6    1  0.9964252E-012  0.3000000E+03  0.7818608E-02  0.1093470E+00
          1   -1    0    0  502    0  0.00000000000E+00  0.00000000000E+00  0.23519171388E+03  0.23519171388E+03  0.00000000000E+00 0.  1.
         13   -1    0    0    0    0 -0.00000000000E+00 -0.00000000000E+00 -0.27500000000E+03  0.27500000000E+03  0.00000000000E+00 0.  1.
    9000005    2    1    2  501    0  0.17083817056E+02  0.27422807986E+02 -0.29899289941E+02  0.47639740358E+03  0.47435920082E+03 0.  0.
         13    1    3    3    0    0  0.27182172694E+02  0.23843306599E+03 -0.90738780964E+02  0.25655939632E+03  0.00000000000E+00 0.  1.
          3    1    3    3  501    0 -0.10098355638E+02 -0.21101025800E+03  0.60839491023E+02  0.21983800726E+03  0.00000000000E+00 0.  1.
         21    1    1    2  502  501 -0.17083817056E+02 -0.27422807986E+02 -0.99089961799E+01  0.33794310295E+02  0.00000000000E+00 0.  1.
<scales pt_clust_4="550.00000" pt_clust_5="550.00000" pt_clust_6="32.30895"></scales>
<mgrwt>
<rscale>  0 0.30000000E+03</rscale>
<asrwt>  1 0.32308950E+02</asrwt>
<pdfrwt beam="1">  1        1 0.85524260E+00 0.30000000E+03</pdfrwt>
<pdfrwt beam="2">0</pdfrwt>
<totfact> 0.36782241E-04</totfact>
</mgrwt>
<clustering>
<clus scale="   32.309">  1  6  2 -1</clus>
<clus scale="  474.359">  4  5 -1 -1</clus>
<clus scale="  300.000">  1  4  2 -1</clus>
</clustering>
</event>
<event>
 6    1  0.9964252E-012  0.3000000E+03  0.7818608E-02  0.1093470E+00
          1   -1    0    0  502    0  0.00000000000E+00  0.00000000000E+00  0.24665426955E+03  0.24665426955E+03  0.00000000000E+00 0.  1.
         13   -1    0    0    0    0 -0.00000000000E+00 -0.00000000000E+00 -0.27500000000E+03  0.27500000000E+03  0.00000000000E+00 0.  1.
    9000005    2    1    2  501    0  0.29995119411E+02  0.22421512860E+02 -0.29987658536E+02  0.48416924113E+03  0.48178642879E+03 0.  0.
         13    1    3    3    0    0  0.19041217110E+03  0.73652891079E+02 -0.16960545574E+03  0.26541958083E+03  0.00000000000E+00 0.  1.
          3    1    3    3  501    0 -0.16041705169E+03 -0.51231378219E+02  0.13961779721E+03  0.21874966031E+03  0.00000000000E+00 0.  1.
         21    1    1    2  502  501 -0.29995119411E+02 -0.22421512860E+02  0.16419280818E+01  0.37485028414E+02  0.00000000000E+00 0. -1.
<scales pt_clust_4="550.00000" pt_clust_5="550.00000" pt_clust_6="37.44905"></scales>
<mgrwt>
<rscale>  0 0.30000000E+03</rscale>
<asrwt>  1 0.37449051E+02</asrwt>
<pdfrwt beam="1">  1        1 0.89692462E+00 0.30000000E+03</pdfrwt>
<pdfrwt beam="2">0</pdfrwt>
<totfact> 0.11850573E-04</totfact>
</mgrwt>
<clustering>
<clus scale="   37.449">  1  6  2 -1</clus>
<clus scale="  481.786">  4  5 -1 -1</clus>
<clus scale="  300.000">  1  4  2 -1</clus>
</clustering>
</event>
<event>
 6    1  0.9964252E-012  0.3000000E+03  0.7818608E-02  0.1093470E+00
          1   -1    0    0  502    0  0.00000000000E+00  0.00000000000E+00  0.22937938991E+03  0.22937938991E+03  0.00000000000E+00 0.  1.
         13   -1    0    0    0    0 -0.00000000000E+00 -0.00000000000E+00 -0.27500000000E+03  0.27500000000E+03  0.00000000000E+00 0.  1.
    9000005    2    1    2  501    0 -0.29903691501E+02  0.69104498287E+01 -0.63922918714E+02  0.46864481865E+03  0.46324922173E+03 0.  0.
         13    1    3    3    0    0  0.87538529076E+02 -0.18234718088E+03 -0.12488441676E+03  0.23771749199E+03  0.00000000000E+00 0.  1.
          1    1    3    3  501    0 -0.11744222058E+03  0.18925763071E+03  0.60961498048E+02  0.23092732666E+03  0.00000000000E+00 0.  1.
         21    1    1    2  502  501  0.29903691501E+02 -0.69104498287E+01  0.18302308627E+02  0.35734571262E+02  0.00000000000E+00 0.  1.
<scales pt_clust_4="550.00000" pt_clust_5="550.00000" pt_clust_6="30.69178"></scales>
<mgrwt>
<rscale>  0 0.30000000E+03</rscale>
<asrwt>  1 0.30691775E+02</asrwt>
<pdfrwt beam="1">  1        1 0.83410687E+00 0.30000000E+03</pdfrwt>
<pdfrwt beam="2">0</pdfrwt>
<totfact> 0.56304769E-04</totfact>
</mgrwt>
<clustering>
<clus scale="   30.692">  1  6  2 -1</clus>
<clus scale="  463.249">  4  5 -1 -1</clus>
<clus scale="  300.000">  1  4  2 -1</clus>
</clustering>
</event>
<event>
 6    1  0.9964252E-012  0.3000000E+03  0.7818608E-02  0.1093470E+00
          1   -1    0    0  502    0  0.00000000000E+00  0.00000000000E+00  0.22611469991E+03  0.22611469991E+03  0.00000000000E+00 0.  1.
         13   -1    0    0    0    0 -0.00000000000E+00 -0.00000000000E+00 -0.27500000000E+03  0.27500000000E+03  0.00000000000E+00 0.  1.
    9000005    2    1    2  501    0  0.36674330970E+01  0.33186250594E+02 -0.50678391200E+02  0.46767830552E+03  0.46372397051E+03 0.  0.
         13    1    3    3    0    0  0.23159561398E+03 -0.13621695823E+02 -0.17731542299E+02  0.23267248785E+03  0.00000000000E+00 0.  1.
          1    1    3    3  501    0 -0.22792818088E+03  0.46807946417E+02 -0.32946848901E+02  0.23500581767E+03  0.00000000000E+00 0.  1.
         21    1    1    2  502  501 -0.36674330970E+01 -0.33186250594E+02  0.17930911109E+01  0.33436394389E+02  0.00000000000E+00 0. -1.
<scales pt_clust_4="550.00000" pt_clust_5="550.00000" pt_clust_6="33.38828"></scales>
<mgrwt>
<rscale>  0 0.30000000E+03</rscale>
<asrwt>  1 0.33388281E+02</asrwt>
<pdfrwt beam="1">  1        1 0.82223527E+00 0.30000000E+03</pdfrwt>
<pdfrwt beam="2">0</pdfrwt>
<totfact> 0.69749009E-04</totfact>
</mgrwt>
<clustering>
<clus scale="   33.388">  1  6  2 -1</clus>
<clus scale="  463.724">  4  5 -1 -1</clus>
<clus scale="  300.000">  1  4  2 -1</clus>
</clustering>
</event>
<event>
 6    1  0.9964252E-012  0.3000000E+03  0.7818608E-02  0.1093470E+00
          1   -1    0    0  502    0  0.00000000000E+00  0.00000000000E+00  0.23776371003E+03  0.23776371003E+03  0.00000000000E+00 0.  1.
         13   -1    0    0    0    0 -0.00000000000E+00 -0.00000000000E+00 -0.27500000000E+03  0.27500000000E+03  0.00000000000E+00 0.  1.
    9000005    2    1    2  501    0  0.45660772334E+00  0.35848645950E+02 -0.39975253855E+02  0.47680768369E+03  0.47377443198E+03 0.  0.
         13    1    3    3    0    0  0.17331049024E+03 -0.13229678731E+03 -0.80226092328E+02  0.23232561600E+03  0.00000000000E+00 0.  1.
          3    1    3    3  501    0 -0.17285388251E+03  0.16814543326E+03  0.40250838473E+02  0.24448206769E+03  0.00000000000E+00 0.  1.
         21    1    1    2  502  501 -0.45660772334E+00 -0.35848645950E+02  0.27389638861E+01  0.35956026341E+02  0.00000000000E+00 0. -1.
<scales pt_clust_4="550.00000" pt_clust_5="550.00000" pt_clust_6="35.85155"></scales>
<mgrwt>
<rscale>  0 0.30000000E+03</rscale>
<asrwt>  1 0.35851554E+02</asrwt>
<pdfrwt beam="1">  1        1 0.86459531E+00 0.30000000E+03</pdfrwt>
<pdfrwt beam="2">0</pdfrwt>
<totfact> 0.28729249E-04</totfact>
</mgrwt>
<clustering>
<clus scale="   35.852">  1  6  2 -1</clus>
<clus scale="  473.774">  4  5 -1 -1</clus>
<clus scale="  300.000">  1  4  2 -1</clus>
</clustering>
</event>
<event>
 6    1  0.9964252E-012  0.3000000E+03  0.7818608E-02  0.1093470E+00
          1   -1    0    0  502    0  0.00000000000E+00  0.00000000000E+00  0.24653932624E+03  0.24653932624E+03  0.00000000000E+00 0.  1.
         13   -1    0    0    0    0 -0.00000000000E+00 -0.00000000000E+00 -0.27500000000E+03  0.27500000000E+03  0.00000000000E+00 0.  1.
    9000005    2    1    2  501    0 -0.72187892813E+00 -0.42659917705E+02 -0.24594628157E+02  0.47869850462E+03  0.47615855858E+03 0.  0.
         13    1    3    3    0    0 -0.49327478690E+02 -0.60312287946E+02  0.21755623467E+03  0.23108761861E+03  0.00000000000E+00 0.  1.
          1    1    3    3  501    0  0.48605599762E+02  0.17652370241E+02 -0.24215086283E+03  0.24761088601E+03  0.00000000000E+00 0.  1.
         21    1    1    2  502  501  0.72187892813E+00  0.42659917705E+02 -0.38660456071E+01  0.42840821612E+02  0.00000000000E+00 0. -1.
<scales pt_clust_4="550.00000" pt_clust_5="550.00000" pt_clust_6="42.66605"></scales>
<mgrwt>
<rscale>  0 0.30000000E+03</rscale>
<asrwt>  1 0.42666046E+02</asrwt>
<pdfrwt beam="1">  1        1 0.89650664E+00 0.30000000E+03</pdfrwt>
<pdfrwt beam="2">0</pdfrwt>
<totfact> 0.11697067E-04</totfact>
</mgrwt>
<clustering>
<clus scale="   42.666">  1  6  2 -1</clus>
<clus scale="  476.159">  4  5 -1 -1</clus>
<clus scale="  300.000">  1  4  2 -1</clus>
</clustering>
</event>
<event>
 6    1  0.9964252E-012  0.3000000E+03  0.7818608E-02  0.1093470E+00
          1   -1    0    0  502    0  0.00000000000E+00  0.00000000000E+00  0.23443164575E+03  0.23443164575E+03  0.00000000000E+00 0.  1.
         13   -1    0    0    0    0 -0.00000000000E+00 -0.00000000000E+00 -0.27500000000E+03  0.27500000000E+03  0.00000000000E+00 0.  1.
    9000005    2    1    2  501    0  0.26186124479E+02  0.16456854241E+02 -0.48442561383E+02  0.47751700483E+03  0.47404563808E+03 0.  0.
         13    1    3    3    0    0 -0.47743717498E+02 -0.20941215904E+03 -0.95803811901E+02  0.23518351407E+03  0.00000000000E+00 0.  1.
          1    1    3    3  501    0  0.73929841977E+02  0.22586901328E+03  0.47361250519E+02  0.24233349076E+03  0.00000000000E+00 0.  1.
         21    1    1    2  502  501 -0.26186124479E+02 -0.16456854241E+02  0.78742071285E+01  0.31914640914E+02  0.00000000000E+00 0.  1.
<scales pt_clust_4="550.00000" pt_clust_5="550.00000" pt_clust_6="30.92800"></scales>
<mgrwt>
<rscale>  0 0.30000000E+03</rscale>
<asrwt>  1 0.30928000E+02</asrwt>
<pdfrwt beam="1">  1        1 0.85247871E+00 0.30000000E+03</pdfrwt>
<pdfrwt beam="2">0</pdfrwt>
<totfact> 0.39462698E-04</totfact>
</mgrwt>
<clustering>
<clus scale="   30.928">  1  6  2 -1</clus>
<clus scale="  474.046">  4  5 -1 -1</clus>
<clus scale="  300.000">  1  4  2 -1</clus>
</clustering>
</event>
<event>
 6    1  0.9964252E-012  0.3000000E+03  0.7818608E-02  0.1093470E+00
          1   -1    0    0  502    0  0.00000000000E+00  0.00000000000E+00  0.23848844851E+03  0.23848844851E+03  0.00000000000E+00 0.  1.
         13   -1    0    0    0    0 -0.00000000000E+00 -0.00000000000E+00 -0.27500000000E+03  0.27500000000E+03  0.00000000000E+00 0.  1.
    9000005    2    1    2  501    0  0.33826892863E+02 -0.10446016249E+01 -0.63189425033E+02  0.47039484330E+03  0.46490112421E+03 0.  0.
         13    1    3    3    0    0  0.12175137681E+03 -0.15382363721E+03 -0.17396830327E+03  0.26220236395E+03  0.00000000000E+00 0.  1.
          3    1    3    3  501    0 -0.87924483950E+02  0.15277903559E+03  0.11077887823E+03  0.20819247935E+03  0.00000000000E+00 0.  1.
         21    1    1    2  502  501 -0.33826892863E+02  0.10446016249E+01  0.26677873545E+02  0.43093605213E+02  0.00000000000E+00 0. -1.
<scales pt_clust_4="550.00000" pt_clust_5="550.00000" pt_clust_6="33.84302"></scales>
<mgrwt>
<rscale>  0 0.30000000E+03</rscale>
<asrwt>  1 0.33843018E+02</asrwt>
<pdfrwt beam="1">  1        1 0.86723072E+00 0.30000000E+03</pdfrwt>
<pdfrwt beam="2">0</pdfrwt>
<totfact> 0.27221472E-04</totfact>
</mgrwt>
<clustering>
<clus scale="   33.843">  1  6  2 -1</clus>
<clus scale="  464.901">  4  5 -1 -1</clus>
<clus scale="  300.000">  1  4  2 -1</clus>
</clustering>
</event>
<event>
 6    1  0.9964252E-012  0.3000000E+03  0.7818608E-02  0.1093470E+00
          1   -1    0    0  502    0  0.00000000000E+00  0.00000000000E+00  0.24749725740E+03  0.24749725740E+03  0.00000000000E+00 0.  1.
         13   -1    0    0    0    0 -0.00000000000E+00 -0.00000000000E+00 -0.27500000000E+03  0.27500000000E+03  0.00000000000E+00 0.  1.
    9000005    2    1    2  501    0  0.27260195806E+02  0.23330519742E+02 -0.55574460944E+02  0.47694011968E+03  0.47233031410E+03 0.  0.
         13    1    3    3    0    0 -0.78811867462E+02 -0.38223740244E+02 -0.23998671466E+03  0.25547208847E+03  0.00000000000E+00 0.  1.
          1    1    3    3  501    0  0.10607206327E+03  0.61554259986E+02  0.18441225372E+03  0.22146803121E+03  0.00000000000E+00 0.  1.
         21    1    1    2  502  501 -0.27260195806E+02 -0.23330519742E+02  0.28071718348E+02  0.45557137726E+02  0.00000000000E+00 0.  1.
<scales pt_clust_4="550.00000" pt_clust_5="550.00000" pt_clust_6="35.88079"></scales>
<mgrwt>
<rscale>  0 0.30000000E+03</rscale>
<asrwt>  1 0.35880795E+02</asrwt>
<pdfrwt beam="1">  1        1 0.89999003E+00 0.30000000E+03</pdfrwt>
<pdfrwt beam="2">0</pdfrwt>
<totfact> 0.10996295E-04</totfact>
</mgrwt>
<clustering>
<clus scale="   35.881">  1  6  2 -1</clus>
<clus scale="  472.330">  4  5 -1 -1</clus>
<clus scale="  300.000">  1  4  2 -1</clus>
</clustering>
</event>
<event>
 6    1  0.9964252E-012  0.3000000E+03  0.7818608E-02  0.1093470E+00
          1   -1    0    0  502    0  0.00000000000E+00  0.00000000000E+00  0.23305933256E+03  0.23305933256E+03  0.00000000000E+00 0.  1.
         13   -1    0    0    0    0 -0.00000000000E+00 -0.00000000000E+00 -0.27500000000E+03  0.27500000000E+03  0.00000000000E+00 0.  1.
    9000005    2    1    2  501    0  0.14421400667E+02  0.33680181415E+02 -0.28673013998E+02  0.46909316717E+03  0.46678038341E+03 0.  0.
         13    1    3    3    0    0  0.41660658592E+02  0.18631267325E+03 -0.17272851739E+03  0.25745516776E+03  0.00000000000E+00 0.  1.
          3    1    3    3  501    0 -0.27239257925E+02 -0.15263249184E+03  0.14405550339E+03  0.21163799941E+03  0.00000000000E+00 0.  1.
         21    1    1    2  502  501 -0.14421400667E+02 -0.33680181415E+02 -0.13267653441E+02  0.38966165390E+02  0.00000000000E+00 0.  1.
<scales pt_clust_4="550.00000" pt_clust_5="550.00000" pt_clust_6="36.63786"></scales>
<mgrwt>
<rscale>  0 0.30000000E+03</rscale>
<asrwt>  1 0.36637860E+02</asrwt>
<pdfrwt beam="1">  1        1 0.84748848E+00 0.30000000E+03</pdfrwt>
<pdfrwt beam="2">0</pdfrwt>
<totfact> 0.42568084E-04</totfact>
</mgrwt>
<clustering>
<clus scale="   36.638">  1  6  2 -1</clus>
<clus scale="  466.780">  4  5 -1 -1</clus>
<clus scale="  300.000">  1  4  2 -1</clus>
</clustering>
</event>
<event>
 6    1  0.9964252E-012  0.3000000E+03  0.7818608E-02  0.1093470E+00
          1   -1    0    0  502    0  0.00000000000E+00  0.00000000000E+00  0.23588335845E+03  0.23588335845E+03  0.00000000000E+00 0.  1.
         13   -1    0    0    0    0 -0.00000000000E+00 -0.00000000000E+00 -0.27500000000E+03  0.27500000000E+03  0.00000000000E+00 0.  1.
    9000005    2    1    2  501    0  0.30529235995E+02 -0.11426771916E+02 -0.62036636158E+02  0.47103450000E+03  0.46579217533E+03 0.  0.
         13    1    3    3    0    0 -0.11271974343E+03 -0.16822438765E+03 -0.13847433787E+03  0.24531678990E+03  0.00000000000E+00 0.  1.
          3    1    3    3  501    0  0.14324897943E+03  0.15679761574E+03  0.76437701712E+02  0.22571771009E+03  0.00000000000E+00 0.  1.
         21    1    1    2  502  501 -0.30529235995E+02  0.11426771916E+02  0.22919994603E+02  0.39848858446E+02  0.00000000000E+00 0.  1.
<scales pt_clust_4="550.00000" pt_clust_5="550.00000" pt_clust_6="32.59763"></scales>
<mgrwt>
<rscale>  0 0.30000000E+03</rscale>
<asrwt>  1 0.32597628E+02</asrwt>
<pdfrwt beam="1">  1        1 0.85775767E+00 0.30000000E+03</pdfrwt>
<pdfrwt beam="2">0</pdfrwt>
<totfact> 0.34616104E-04</totfact>
</mgrwt>
<clustering>
<clus scale="   32.598">  1  6  2 -1</clus>
<clus scale="  465.792">  4  5 -1 -1</clus>
<clus scale="  300.000">  1  4  2 -1</clus>
</clustering>
</event>
<event>
 6    1  0.9964252E-012  0.3000000E+03  0.7818608E-02  0.1093470E+00
          1   -1    0    0  502    0  0.00000000000E+00  0.00000000000E+00  0.22615819889E+03  0.22615819889E+03  0.00000000000E+00 0.  1.
         13   -1    0    0    0    0 -0.00000000000E+00 -0.00000000000E+00 -0.27500000000E+03  0.27500000000E+03  0.00000000000E+00 0.  1.
    9000005    2    1    2  501    0  0.33958884579E+02 -0.48926241530E+01 -0.47216664684E+02  0.46681020504E+03  0.46314707220E+03 0.  0.
         13    1    3    3    0    0  0.20764897596E+03 -0.13284055977E+03 -0.47716471150E+02  0.25108081001E+03  0.00000000000E+00 0.  1.
          1    1    3    3  501    0 -0.17369009138E+03  0.12794793561E+03  0.49980646568E+00  0.21572939503E+03  0.00000000000E+00 0.  1.
         21    1    1    2  502  501 -0.33958884579E+02  0.48926241530E+01 -0.16251364311E+01  0.34347993848E+02  0.00000000000E+00 0.  1.
<scales pt_clust_4="550.00000" pt_clust_5="550.00000" pt_clust_6="34.30953"></scales>
<mgrwt>
<rscale>  0 0.30000000E+03</rscale>
<asrwt>  1 0.34309527E+02</asrwt>
<pdfrwt beam="1">  1        1 0.82239345E+00 0.30000000E+03</pdfrwt>
<pdfrwt beam="2">0</pdfrwt>
<totfact> 0.69168666E-04</totfact>
</mgrwt>
<clustering>
<clus scale="   34.310">  1  6  2 -1</clus>
<clus scale="  463.147">  4  5 -1 -1</clus>
<clus scale="  300.000">  1  4  2 -1</clus>
</clustering>
</event>
<event>
 6    1  0.9964252E-012  0.3000000E+03  0.7818608E-02  0.1093470E+00
          1   -1    0    0  502    0  0.00000000000E+00  0.00000000000E+00  0.23637015536E+03  0.23637015536E+03  0.00000000000E+00 0.  1.
         13   -1    0    0    0    0 -0.00000000000E+00 -0.00000000000E+00 -0.27500000000E+03  0.27500000000E+03  0.00000000000E+00 0.  1.
    9000005    2    1    2  501    0  0.34019021211E+02  0.33670295055E+01 -0.41786785118E+02  0.47703945532E+03  0.47397455188E+03 0.  0.
         13    1    3    3    0    0  0.23127125177E+03  0.10079627125E+03  0.40431992382E+01  0.25231454110E+03  0.00000000000E+00 0.  1.
          1    1    3    3  501    0 -0.19725223056E+03 -0.97429241742E+02 -0.45829984357E+02  0.22472491422E+03  0.00000000000E+00 0.  1.
         21    1    1    2  502  501 -0.34019021211E+02 -0.33670295055E+01  0.31569404793E+01  0.34330700037E+02  0.00000000000E+00 0. -1.
<scales pt_clust_4="550.00000" pt_clust_5="550.00000" pt_clust_6="34.18524"></scales>
<mgrwt>
<rscale>  0 0.30000000E+03</rscale>
<asrwt>  1 0.34185241E+02</asrwt>
<pdfrwt beam="1">  1        1 0.85952784E+00 0.30000000E+03</pdfrwt>
<pdfrwt beam="2">0</pdfrwt>
<totfact> 0.32867703E-04</totfact>
</mgrwt>
<clustering>
<clus scale="   34.185">  1  6  2 -1</clus>
<clus scale="  473.975">  4  5 -1 -1</clus>
<clus scale="  300.000">  1  4  2 -1</clus>
</clustering>
</event>
<event>
 6    1  0.9964252E-012  0.3000000E+03  0.7818608E-02  0.1093470E+00
          1   -1    0    0  502    0  0.00000000000E+00  0.00000000000E+00  0.22749634033E+03  0.22749634033E+03  0.00000000000E+00 0.  1.
         13   -1    0    0    0    0 -0.00000000000E+00 -0.00000000000E+00 -0.27500000000E+03  0.27500000000E+03  0.00000000000E+00 0.  1.
    9000005    2    1    2  501    0 -0.11123079907E+02  0.32336007794E+02 -0.58051801397E+02  0.46671081811E+03  0.46182208239E+03 0.  0.
         13    1    3    3    0    0 -0.22295048830E+03 -0.15534222997E+02  0.42329738535E+02  0.22746436881E+03  0.00000000000E+00 0.  1.
          3    1    3    3  501    0  0.21182740839E+03  0.47870230791E+02 -0.10038153993E+03  0.23924644929E+03  0.00000000000E+00 0.  1.
         21    1    1    2  502  501  0.11123079907E+02 -0.32336007794E+02  0.10548141725E+02  0.35785522219E+02  0.00000000000E+00 0.  1.
<scales pt_clust_4="550.00000" pt_clust_5="550.00000" pt_clust_6="34.19562"></scales>
<mgrwt>
<rscale>  0 0.30000000E+03</rscale>
<asrwt>  1 0.34195618E+02</asrwt>
<pdfrwt beam="1">  1        1 0.82725942E+00 0.30000000E+03</pdfrwt>
<pdfrwt beam="2">0</pdfrwt>
<totfact> 0.62646981E-04</totfact>
</mgrwt>
<clustering>
<clus scale="   34.196">  1  6  2 -1</clus>
<clus scale="  461.822">  4  5 -1 -1</clus>
<clus scale="  300.000">  1  4  2 -1</clus>
</clustering>
</event>
<event>
 6    1  0.9964252E-012  0.3000000E+03  0.7818608E-02  0.1093470E+00
          1   -1    0    0  502    0  0.00000000000E+00  0.00000000000E+00  0.23912045763E+03  0.23912045763E+03  0.00000000000E+00 0.  1.
         13   -1    0    0    0    0 -0.00000000000E+00 -0.00000000000E+00 -0.27500000000E+03  0.27500000000E+03  0.00000000000E+00 0.  1.
    9000005    2    1    2  501    0  0.17895258662E+02  0.27938882381E+02 -0.71900473230E+02  0.46514772143E+03  0.45835783321E+03 0.  0.
         13    1    3    3    0    0  0.99976959050E+02 -0.18030162924E+03  0.47345388204E+02  0.21153168943E+03  0.00000000000E+00 0.  1.
          1    1    3    3  501    0 -0.82081700388E+02  0.20824051162E+03 -0.11924586143E+03  0.25361603200E+03  0.00000000000E+00 0.  1.
         21    1    1    2  502  501 -0.17895258662E+02 -0.27938882381E+02  0.36020930855E+02  0.48972736200E+02  0.00000000000E+00 0.  1.
<scales pt_clust_4="550.00000" pt_clust_5="550.00000" pt_clust_6="33.17863"></scales>
<mgrwt>
<rscale>  0 0.30000000E+03</rscale>
<asrwt>  1 0.33178629E+02</asrwt>
<pdfrwt beam="1">  1        1 0.86952894E+00 0.30000000E+03</pdfrwt>
<pdfrwt beam="2">0</pdfrwt>
<totfact> 0.25866450E-04</totfact>
</mgrwt>
<clustering>
<clus scale="   33.179">  1  6  2 -1</clus>
<clus scale="  458.358">  4  5 -1 -1</clus>
<clus scale="  300.000">  1  4  2 -1</clus>
</clustering>
</event>
<event>
 6    1  0.9964252E-012  0.3000000E+03  0.7818608E-02  0.1093470E+00
          1   -1    0    0  502    0  0.00000000000E+00  0.00000000000E+00  0.22548583260E+03  0.22548583260E+03  0.00000000000E+00 0.  1.
         13   -1    0    0    0    0 -0.00000000000E+00 -0.00000000000E+00 -0.27500000000E+03  0.27500000000E+03  0.00000000000E+00 0.  1.
    9000005    2    1    2  501    0 -0.14526995343E+02 -0.27273760074E+02 -0.69725086784E+02  0.46356195354E+03  0.45724523558E+03 0.  0.
         13    1    3    3    0    0  0.16142347252E+03 -0.11219819747E+03  0.85163923352E+02  0.21424020826E+03  0.00000000000E+00 0.  1.
          3    1    3    3  501    0 -0.17595046787E+03  0.84924437394E+02 -0.15488901014E+03  0.24932174528E+03  0.00000000000E+00 0.  1.
         21    1    1    2  502  501  0.14526995343E+02  0.27273760074E+02  0.20210919385E+02  0.36923879057E+02  0.00000000000E+00 0. -1.
<scales pt_clust_4="550.00000" pt_clust_5="550.00000" pt_clust_6="30.90132"></scales>
<mgrwt>
<rscale>  0 0.30000000E+03</rscale>
<asrwt>  1 0.30901320E+02</asrwt>
<pdfrwt beam="1">  1        1 0.81994848E+00 0.30000000E+03</pdfrwt>
<pdfrwt beam="2">0</pdfrwt>
<totfact> 0.74130056E-04</totfact>
</mgrwt>
<clustering>
<clus scale="   30.901">  1  6  2 -1</clus>
<clus scale="  457.245">  4  5 -1 -1</clus>
<clus scale="  300.000">  1  4  2 -1</clus>
</clustering>
</event>
<event>
 6    1  0.9964252E-012  0.3000000E+03  0.7818608E-02  0.1093470E+00
          1   -1    0    0  502    0  0.00000000000E+00  0.00000000000E+00  0.24345193827E+03  0.24345193827E+03  0.00000000000E+00 0.  1.
         13   -1    0    0    0    0 -0.00000000000E+00 -0.00000000000E+00 -0.27500000000E+03  0.27500000000E+03  0.00000000000E+00 0.  1.
    9000005    2    1    2  501    0  0.20101886859E+02 -0.35887221972E+02 -0.33178700104E+02  0.47728596278E+03  0.47435122596E+03 0.  0.
         13    1    3    3    0    0  0.57528634655E+02 -0.24949813382E+03 -0.45566167537E+02  0.26006756470E+03  0.00000000000E+00 0.  1.
          1    1    3    3  501    0 -0.37426747796E+02  0.21361091185E+03  0.12387467433E+02  0.21721839808E+03  0.00000000000E+00 0.  1.
         21    1    1    2  502  501 -0.20101886859E+02  0.35887221972E+02  0.16306383698E+01  0.41165975485E+02  0.00000000000E+00 0. -1.
<scales pt_clust_4="550.00000" pt_clust_5="550.00000" pt_clust_6="41.13367"></scales>
<mgrwt>
<rscale>  0 0.30000000E+03</rscale>
<asrwt>  1 0.41133667E+02</asrwt>
<pdfrwt beam="1">  1        1 0.88527978E+00 0.30000000E+03</pdfrwt>
<pdfrwt beam="2">0</pdfrwt>
<totfact> 0.16328329E-04</totfact>
</mgrwt>
<clustering>
<clus scale="   41.134">  1  6  2 -1</clus>
<clus scale="  474.351">  4  5 -1 -1</clus>
<clus scale="  300.000">  1  4  2 -1</clus>
</clustering>
</event>
<event>
 6    1  0.9964252E-012  0.3000000E+03  0.7818608E-02  0.1093470E+00
          1   -1    0    0  502    0  0.00000000000E+00  0.00000000000E+00  0.24477199916E+03  0.24477199916E+03  0.00000000000E+00 0.  1.
         13   -1    0    0    0    0 -0.00000000000E+00 -0.00000000000E+00 -0.27500000000E+03  0.27500000000E+03  0.00000000000E+00 0.  1.
    9000005    2    1    2  501    0  0.34917817358E+02  0.24034352413E+01 -0.66438198305E+02  0.46941121213E+03  0.46336575338E+03 0.  0.
         13    1    3    3    0    0 -0.52002130988E+02  0.22164937430E+03 -0.49283460148E+02  0.23294103588E+03  0.00000000000E+00 0.  1.
          3    1    3    3  501    0  0.86919948346E+02 -0.21924593906E+03 -0.17154738157E+02  0.23647017625E+03  0.00000000000E+00 0.  1.
         21    1    1    2  502  501 -0.34917817358E+02 -0.24034352413E+01  0.36210197465E+02  0.50360787032E+02  0.00000000000E+00 0. -1.
<scales pt_clust_4="550.00000" pt_clust_5="550.00000" pt_clust_6="35.00044"></scales>
<mgrwt>
<rscale>  0 0.30000000E+03</rscale>
<asrwt>  1 0.35000435E+02</asrwt>
<pdfrwt beam="1">  1        1 0.89008000E+00 0.30000000E+03</pdfrwt>
<pdfrwt beam="2">0</pdfrwt>
<totfact> 0.14460146E-04</totfact>
</mgrwt>
<clustering>
<clus scale="   35.000">  1  6  2 -1</clus>
<clus scale="  463.366">  4  5 -1 -1</clus>
<clus scale="  300.000">  1  4  2 -1</clus>
</clustering>
</event>
<event>
 6    1  0.9964252E-012  0.3000000E+03  0.7818608E-02  0.1093470E+00
          1   -1    0    0  502    0  0.00000000000E+00  0.00000000000E+00  0.23787096903E+03  0.23787096903E+03  0.00000000000E+00 0.  1.
         13   -1    0    0    0    0 -0.00000000000E+00 -0.00000000000E+00 -0.27500000000E+03  0.27500000000E+03  0.00000000000E+00 0.  1.
    9000005    2    1    2  501    0  0.24460112844E+02  0.19883408635E+02 -0.33362139604E+02  0.48112452782E+03  0.47893019517E+03 0.  0.
         13    1    3    3    0    0 -0.20852557547E+03 -0.83199542300E+02 -0.28447074439E+02  0.22630580088E+03  0.00000000000E+00 0.  1.
          3    1    3    3  501    0  0.23298568832E+03  0.10308295094E+03 -0.49150651652E+01  0.25481872694E+03  0.00000000000E+00 0.  1.
         21    1    1    2  502  501 -0.24460112844E+02 -0.19883408635E+02 -0.37668913630E+01  0.31746441215E+02  0.00000000000E+00 0. -1.
<scales pt_clust_4="550.00000" pt_clust_5="550.00000" pt_clust_6="31.52218"></scales>
<mgrwt>
<rscale>  0 0.30000000E+03</rscale>
<asrwt>  1 0.31522184E+02</asrwt>
<pdfrwt beam="1">  1        1 0.86498534E+00 0.30000000E+03</pdfrwt>
<pdfrwt beam="2">0</pdfrwt>
<totfact> 0.29151061E-04</totfact>
</mgrwt>
<clustering>
<clus scale="   31.522">  1  6  2 -1</clus>
<clus scale="  478.930">  4  5 -1 -1</clus>
<clus scale="  300.000">  1  4  2 -1</clus>
</clustering>
</event>
<event>
 6    1  0.9964252E-012  0.3000000E+03  0.7818608E-02  0.1093470E+00
          1   -1    0    0  502    0  0.00000000000E+00  0.00000000000E+00  0.23017010782E+03  0.23017010782E+03  0.00000000000E+00 0.  1.
         13   -1    0    0    0    0 -0.00000000000E+00 -0.00000000000E+00 -0.27500000000E+03  0.27500000000E+03  0.00000000000E+00 0.  1.
    9000005    2    1    2  501    0 -0.27332338270E+02 -0.28351091817E+02 -0.61514864327E+02  0.46240061614E+03  0.45659545569E+03 0.  0.
         13    1    3    3    0    0  0.10217366526E+03 -0.65134987303E+02 -0.22200560761E+03  0.25291997599E+03  0.00000000000E+00 0.  1.
          1    1    3    3  501    0 -0.12950600353E+03  0.36783895486E+02  0.16049074328E+03  0.20948064015E+03  0.00000000000E+00 0.  1.
         21    1    1    2  502  501  0.27332338270E+02  0.28351091817E+02  0.16684972144E+02  0.42769491673E+02  0.00000000000E+00 0.  1.
<scales pt_clust_4="550.00000" pt_clust_5="550.00000" pt_clust_6="39.38072"></scales>
<mgrwt>
<rscale>  0 0.30000000E+03</rscale>
<asrwt>  1 0.39380720E+02</asrwt>
<pdfrwt beam="1">  1        1 0.83698221E+00 0.30000000E+03</pdfrwt>
<pdfrwt beam="2">0</pdfrwt>
<totfact> 0.51204962E-04</totfact>
</mgrwt>
<clustering>
<clus scale="   39.381">  1  6  2 -1</clus>
<clus scale="  456.595">  4  5 -1 -1</clus>
<clus scale="  300.000">  1  4  2 -1</clus>
</clustering>
</event>
<event>
 6    1  0.9964252E-012  0.3000000E+03  0.7818608E-02  0.1093470E+00
          1   -1    0    0  502    0  0.00000000000E+00  0.00000000000E+00  0.26383219947E+03  0.26383219947E+03  0.00000000000E+00 0.  1.
         13   -1    0    0    0    0 -0.00000000000E+00 -0.00000000000E+00 -0.27500000000E+03  0.27500000000E+03  0.00000000000E+00 0.  1.
    9000005    2    1    2  501    0 -0.25391046695E+02  0.21009982032E+02 -0.22669143476E+02  0.50392653393E+03  0.50233647781E+03 0.  0.
         13    1    3    3    0    0 -0.18970339050E+03  0.16295806644E+03  0.81589336822E+02  0.26305803099E+03  0.00000000000E+00 0.  1.
          1    1    3    3  501    0  0.16431234381E+03 -0.14194808441E+03 -0.10425848030E+03  0.24086850294E+03  0.00000000000E+00 0.  1.
         21    1    1    2  502  501  0.25391046695E+02 -0.21009982032E+02  0.11501342950E+02  0.34905665542E+02  0.00000000000E+00 0. -1.
<scales pt_clust_4="550.00000" pt_clust_5="550.00000" pt_clust_6="32.95640"></scales>
<mgrwt>
<rscale>  0 0.30000000E+03</rscale>
<asrwt>  1 0.32956404E+02</asrwt>
<pdfrwt beam="1">  1        1 0.95938982E+00 0.30000000E+03</pdfrwt>
<pdfrwt beam="2">0</pdfrwt>
<totfact> 0.79068642E-06</totfact>
</mgrwt>
<clustering>
<clus scale="   32.956">  1  6  2 -1</clus>
<clus scale="  502.336">  4  5 -1 -1</clus>
<clus scale="  300.000">  1  4  2 -1</clus>
</clustering>
</event>
<event>
 6    1  0.9964252E-012  0.3000000E+03  0.7818608E-02  0.1093470E+00
          1   -1    0    0  502    0  0.00000000000E+00  0.00000000000E+00  0.25267962977E+03  0.25267962977E+03  0.00000000000E+00 0.  1.
         13   -1    0    0    0    0 -0.00000000000E+00 -0.00000000000E+00 -0.27500000000E+03  0.27500000000E+03  0.00000000000E+00 0.  1.
    9000005    2    1    2  501    0 -0.13927940218E+02 -0.42810682568E+02 -0.53981789776E+02  0.47264157431E+03  0.46738558181E+03 0.  0.
         13    1    3    3    0    0  0.11329015897E+03 -0.18753996788E+03 -0.14169021129E+03  0.26092530665E+03  0.00000000000E+00 0.  1.
          3    1    3    3  501    0 -0.12721809919E+03  0.14472928532E+03  0.87708421512E+02  0.21171626767E+03  0.00000000000E+00 0.  1.
         21    1    1    2  502  501  0.13927940218E+02  0.42810682568E+02  0.31661419542E+02  0.55038055453E+02  0.00000000000E+00 0. -1.
<scales pt_clust_4="550.00000" pt_clust_5="550.00000" pt_clust_6="45.01935"></scales>
<mgrwt>
<rscale>  0 0.30000000E+03</rscale>
<asrwt>  1 0.45019352E+02</asrwt>
<pdfrwt beam="1">  1        1 0.91883502E+00 0.30000000E+03</pdfrwt>
<pdfrwt beam="2">0</pdfrwt>
<totfact> 0.42334077E-05</totfact>
</mgrwt>
<clustering>
<clus scale="   45.019">  1  6  2 -1</clus>
<clus scale="  467.386">  4  5 -1 -1</clus>
<clus scale="  300.000">  1  4  2 -1</clus>
</clustering>
</event>
<event>
 6    1  0.9964252E-012  0.3000000E+03  0.7818608E-02  0.1093470E+00
          1   -1    0    0  502    0  0.00000000000E+00  0.00000000000E+00  0.23752031198E+03  0.23752031198E+03  0.00000000000E+00 0.  1.
         13   -1    0    0    0    0 -0.00000000000E+00 -0.00000000000E+00 -0.27500000000E+03  0.27500000000E+03  0.00000000000E+00 0.  1.
    9000005    2    1    2  501    0 -0.34569365907E+01 -0.30955625110E+02 -0.49483927893E+02  0.47913913598E+03  0.47555804206E+03 0.  0.
         13    1    3    3    0    0 -0.14513344871E+03 -0.59122261061E+02 -0.21075551816E+03  0.26263481894E+03  0.00000000000E+00 0.  1.
          3    1    3    3  501    0  0.14167651212E+03  0.28166635951E+02  0.16127159026E+03  0.21650431703E+03  0.00000000000E+00 0.  1.
         21    1    1    2  502  501  0.34569365907E+01  0.30955625110E+02  0.12004239873E+02  0.33381176005E+02  0.00000000000E+00 0. -1.
<scales pt_clust_4="550.00000" pt_clust_5="550.00000" pt_clust_6="31.14805"></scales>
<mgrwt>
<rscale>  0 0.30000000E+03</rscale>
<asrwt>  1 0.31148052E+02</asrwt>
<pdfrwt beam="1">  1        1 0.86371023E+00 0.30000000E+03</pdfrwt>
<pdfrwt beam="2">0</pdfrwt>
<totfact> 0.30158451E-04</totfact>
</mgrwt>
<clustering>
<clus scale="   31.148">  1  6  2 -1</clus>
<clus scale="  475.558">  4  5 -1 -1</clus>
<clus scale="  300.000">  1  4  2 -1</clus>
</clustering>
</event>
<event>
 6    1  0.9964252E-012  0.3000000E+03  0.7818608E-02  0.1093470E+00
          1   -1    0    0  502    0  0.00000000000E+00  0.00000000000E+00  0.25170917661E+03  0.25170917661E+03  0.00000000000E+00 0.  1.
         13   -1    0    0    0    0 -0.00000000000E+00 -0.00000000000E+00 -0.27500000000E+03  0.27500000000E+03  0.00000000000E+00 0.  1.
    9000005    2    1    2  501    0  0.42735018660E+02  0.33528262716E+01 -0.40508687782E+02  0.48051417560E+03  0.47688090327E+03 0.  0.
         13    1    3    3    0    0  0.52310224958E+02  0.93676620018E+02 -0.23913700479E+03  0.26210336861E+03  0.00000000000E+00 0.  1.
          3    1    3    3  501    0 -0.95752062984E+01 -0.90323793747E+02  0.19862831701E+03  0.21841080699E+03  0.00000000000E+00 0.  1.
         21    1    1    2  502  501 -0.42735018660E+02 -0.33528262716E+01  0.17217864389E+02  0.46195001007E+02  0.00000000000E+00 0.  1.
<scales pt_clust_4="550.00000" pt_clust_5="550.00000" pt_clust_6="42.86634"></scales>
<mgrwt>
<rscale>  0 0.30000000E+03</rscale>
<asrwt>  1 0.42866342E+02</asrwt>
<pdfrwt beam="1">  1        1 0.91530610E+00 0.30000000E+03</pdfrwt>
<pdfrwt beam="2">0</pdfrwt>
<totfact> 0.51322502E-05</totfact>
</mgrwt>
<clustering>
<clus scale="   42.866">  1  6  2 -1</clus>
<clus scale="  476.881">  4  5 -1 -1</clus>
<clus scale="  300.000">  1  4  2 -1</clus>
</clustering>
</event>
<event>
 6    1  0.9964252E-012  0.3000000E+03  0.7818608E-02  0.1093470E+00
          1   -1    0    0  502    0  0.00000000000E+00  0.00000000000E+00  0.24937707249E+03  0.24937707249E+03  0.00000000000E+00 0.  1.
         13   -1    0    0    0    0 -0.00000000000E+00 -0.00000000000E+00 -0.27500000000E+03  0.27500000000E+03  0.00000000000E+00 0.  1.
    9000005    2    1    2  501    0  0.37407889687E+02  0.13398110389E+02 -0.30541449873E+02  0.48433894772E+03  0.48173911668E+03 0.  0.
         13    1    3    3    0    0  0.69051763670E+02  0.16138005421E+03  0.16239819975E+03  0.23913352597E+03  0.00000000000E+00 0.  1.
          1    1    3    3  501    0 -0.31643873983E+02 -0.14798194382E+03 -0.19293964962E+03  0.24520542175E+03  0.00000000000E+00 0.  1.
         21    1    1    2  502  501 -0.37407889687E+02 -0.13398110389E+02  0.49185223610E+01  0.40038124769E+02  0.00000000000E+00 0. -1.
<scales pt_clust_4="550.00000" pt_clust_5="550.00000" pt_clust_6="39.73487"></scales>
<mgrwt>
<rscale>  0 0.30000000E+03</rscale>
<asrwt>  1 0.39734866E+02</asrwt>
<pdfrwt beam="1">  1        1 0.90682572E+00 0.30000000E+03</pdfrwt>
<pdfrwt beam="2">0</pdfrwt>
<totfact> 0.82999125E-05</totfact>
</mgrwt>
<clustering>
<clus scale="   39.735">  1  6  2 -1</clus>
<clus scale="  481.739">  4  5 -1 -1</clus>
<clus scale="  300.000">  1  4  2 -1</clus>
</clustering>
</event>
<event>
 6    1  0.9964252E-012  0.3000000E+03  0.7818608E-02  0.1093470E+00
          1   -1    0    0  502    0  0.00000000000E+00  0.00000000000E+00  0.23641789972E+03  0.23641789972E+03  0.00000000000E+00 0.  1.
         13   -1    0    0    0    0 -0.00000000000E+00 -0.00000000000E+00 -0.27500000000E+03  0.27500000000E+03  0.00000000000E+00 0.  1.
    9000005    2    1    2  501    0  0.10372597198E+02  0.31601047347E+02 -0.48512778814E+02  0.47670716158E+03  0.47306448950E+03 0.  0.
         13    1    3    3    0    0 -0.15231840208E+03 -0.16059333317E+03 -0.38784915632E+02  0.22471177974E+03  0.00000000000E+00 0.  1.
          3    1    3    3  501    0  0.16269099928E+03  0.19219438052E+03 -0.97278631811E+01  0.25199538185E+03  0.00000000000E+00 0.  1.
         21    1    1    2  502  501 -0.10372597198E+02 -0.31601047347E+02  0.99306785369E+01  0.34710738141E+02  0.00000000000E+00 0.  1.
<scales pt_clust_4="550.00000" pt_clust_5="550.00000" pt_clust_6="33.25984"></scales>
<mgrwt>
<rscale>  0 0.30000000E+03</rscale>
<asrwt>  1 0.33259840E+02</asrwt>
<pdfrwt beam="1">  1        1 0.85970145E+00 0.30000000E+03</pdfrwt>
<pdfrwt beam="2">0</pdfrwt>
<totfact> 0.32897885E-04</totfact>
</mgrwt>
<clustering>
<clus scale="   33.260">  1  6  2 -1</clus>
<clus scale="  473.064">  4  5 -1 -1</clus>
<clus scale="  300.000">  1  4  2 -1</clus>
</clustering>
</event>
<event>
 6    1  0.9964252E-012  0.3000000E+03  0.7818608E-02  0.1093470E+00
          1   -1    0    0  502    0  0.00000000000E+00  0.00000000000E+00  0.23240424073E+03  0.23240424073E+03  0.00000000000E+00 0.  1.
         13   -1    0    0    0    0 -0.00000000000E+00 -0.00000000000E+00 -0.27500000000E+03  0.27500000000E+03  0.00000000000E+00 0.  1.
    9000005    2    1    2  501    0  0.42811972810E+02  0.15465622468E+02 -0.49408654885E+02  0.46137744374E+03  0.45646016247E+03 0.  0.
         13    1    3    3    0    0  0.22168789626E+03 -0.91552390582E+02 -0.75156083280E+02  0.25134796682E+03  0.00000000000E+00 0.  1.
          3    1    3    3  501    0 -0.17887592345E+03  0.10701801305E+03  0.25747428395E+02  0.21002947692E+03  0.00000000000E+00 0.  1.
         21    1    1    2  502  501 -0.42811972810E+02 -0.15465622468E+02  0.68128956114E+01  0.46026796986E+02  0.00000000000E+00 0.  1.
<scales pt_clust_4="550.00000" pt_clust_5="550.00000" pt_clust_6="45.51978"></scales>
<mgrwt>
<rscale>  0 0.30000000E+03</rscale>
<asrwt>  1 0.45519781E+02</asrwt>
<pdfrwt beam="1">  1        1 0.84510633E+00 0.30000000E+03</pdfrwt>
<pdfrwt beam="2">0</pdfrwt>
<totfact> 0.42973380E-04</totfact>
</mgrwt>
<clustering>
<clus scale="   45.520">  1  6  2 -1</clus>
<clus scale="  456.460">  4  5 -1 -1</clus>
<clus scale="  300.000">  1  4  2 -1</clus>
</clustering>
</event>
<event>
 6    1  0.9964252E-012  0.3000000E+03  0.7818608E-02  0.1093470E+00
          1   -1    0    0  502    0  0.00000000000E+00  0.00000000000E+00  0.23246238486E+03  0.23246238486E+03  0.00000000000E+00 0.  1.
         13   -1    0    0    0    0 -0.00000000000E+00 -0.00000000000E+00 -0.27500000000E+03  0.27500000000E+03  0.00000000000E+00 0.  1.
    9000005    2    1    2  501    0  0.36735027800E+02 -0.18639345920E+02 -0.40240397067E+02  0.46620508617E+03  0.46263485097E+03 0.  0.
         13    1    3    3    0    0  0.51314706886E+02  0.10309712671E+03  0.18026224102E+03  0.21390813967E+03  0.00000000000E+00 0.  1.
          1    1    3    3  501    0 -0.14579679086E+02 -0.12173647263E+03 -0.22050263809E+03  0.25229694650E+03  0.00000000000E+00 0.  1.
         21    1    1    2  502  501 -0.36735027800E+02  0.18639345920E+02 -0.22972180774E+01  0.41257298684E+02  0.00000000000E+00 0. -1.
<scales pt_clust_4="550.00000" pt_clust_5="550.00000" pt_clust_6="41.19329"></scales>
<mgrwt>
<rscale>  0 0.30000000E+03</rscale>
<asrwt>  1 0.41193294E+02</asrwt>
<pdfrwt beam="1">  1        1 0.84531776E+00 0.30000000E+03</pdfrwt>
<pdfrwt beam="2">0</pdfrwt>
<totfact> 0.43566079E-04</totfact>
</mgrwt>
<clustering>
<clus scale="   41.193">  1  6  2 -1</clus>
<clus scale="  462.635">  4  5 -1 -1</clus>
<clus scale="  300.000">  1  4  2 -1</clus>
</clustering>
</event>
<event>
 6    1  0.9964252E-012  0.3000000E+03  0.7818608E-02  0.1093470E+00
          1   -1    0    0  502    0  0.00000000000E+00  0.00000000000E+00  0.23062611893E+03  0.23062611893E+03  0.00000000000E+00 0.  1.
         13   -1    0    0    0    0 -0.00000000000E+00 -0.00000000000E+00 -0.27500000000E+03  0.27500000000E+03  0.00000000000E+00 0.  1.
    9000005    2    1    2  501    0 -0.30746972595E+02 -0.55839821054E+01 -0.67696169863E+02  0.46663270494E+03  0.46063733319E+03 0.  0.
         13    1    3    3    0    0 -0.11466782156E+03 -0.21049208368E+03 -0.46765049350E+02  0.24421833763E+03  0.00000000000E+00 0.  1.
          3    1    3    3  501    0  0.83920848961E+02  0.20490810158E+03 -0.20931120512E+02  0.22241436731E+03  0.00000000000E+00 0.  1.
         21    1    1    2  502  501  0.30746972595E+02  0.55839821054E+01  0.23322288795E+02  0.38993413989E+02  0.00000000000E+00 0.  1.
<scales pt_clust_4="550.00000" pt_clust_5="550.00000" pt_clust_6="31.24991"></scales>
<mgrwt>
<rscale>  0 0.30000000E+03</rscale>
<asrwt>  1 0.31249915E+02</asrwt>
<pdfrwt beam="1">  1        1 0.83864043E+00 0.30000000E+03</pdfrwt>
<pdfrwt beam="2">0</pdfrwt>
<totfact> 0.51992472E-04</totfact>
</mgrwt>
<clustering>
<clus scale="   31.250">  1  6  2 -1</clus>
<clus scale="  460.637">  4  5 -1 -1</clus>
<clus scale="  300.000">  1  4  2 -1</clus>
</clustering>
</event>
<event>
 6    1  0.9964252E-012  0.3000000E+03  0.7818608E-02  0.1093470E+00
          1   -1    0    0  502    0  0.00000000000E+00  0.00000000000E+00  0.22795638855E+03  0.22795638855E+03  0.00000000000E+00 0.  1.
         13   -1    0    0    0    0 -0.00000000000E+00 -0.00000000000E+00 -0.27500000000E+03  0.27500000000E+03  0.00000000000E+00 0.  1.
    9000005    2    1    2  501    0  0.11329838537E+02  0.32177328792E+02 -0.64744359375E+02  0.46452382154E+03  0.45872301335E+03 0.  0.
         13    1    3    3    0    0 -0.78042220212E+01  0.17192867052E+03  0.13587690223E+03  0.21927814799E+03  0.00000000000E+00 0.  1.
          3    1    3    3  501    0  0.19134060559E+02 -0.13975134173E+03 -0.20062126160E+03  0.24524567355E+03  0.00000000000E+00 0.  1.
         21    1    1    2  502  501 -0.11329838537E+02 -0.32177328792E+02  0.17700747921E+02  0.38432567003E+02  0.00000000000E+00 0. -1.
<scales pt_clust_4="550.00000" pt_clust_5="550.00000" pt_clust_6="34.11372"></scales>
<mgrwt>
<rscale>  0 0.30000000E+03</rscale>
<asrwt>  1 0.34113718E+02</asrwt>
<pdfrwt beam="1">  1        1 0.82893232E+00 0.30000000E+03</pdfrwt>
<pdfrwt beam="2">0</pdfrwt>
<totfact> 0.60623119E-04</totfact>
</mgrwt>
<clustering>
<clus scale="   34.114">  1  6  2 -1</clus>
<clus scale="  458.723">  4  5 -1 -1</clus>
<clus scale="  300.000">  1  4  2 -1</clus>
</clustering>
</event>
<event>
 6    1  0.9964252E-012  0.3000000E+03  0.7818608E-02  0.1093470E+00
          1   -1    0    0  502    0  0.00000000000E+00  0.00000000000E+00  0.23440972224E+03  0.23440972224E+03  0.00000000000E+00 0.  1.
         13   -1    0    0    0    0 -0.00000000000E+00 -0.00000000000E+00 -0.27500000000E+03  0.27500000000E+03  0.00000000000E+00 0.  1.
    9000005    2    1    2  501    0  0.11702441803E+02  0.29685609438E+02 -0.41489923405E+02  0.47748806949E+03  0.47461064064E+03 0.  0.
         13    1    3    3    0    0 -0.10674525754E+03 -0.19292101192E+03 -0.46263351469E+02  0.22528507393E+03  0.00000000000E+00 0.  1.
          1    1    3    3  501    0  0.11844769935E+03  0.22260662136E+03  0.47734280644E+01  0.25220299556E+03  0.00000000000E+00 0.  1.
         21    1    1    2  502  501 -0.11702441803E+02 -0.29685609438E+02  0.89964564107E+00  0.31921652748E+02  0.00000000000E+00 0. -1.
<scales pt_clust_4="550.00000" pt_clust_5="550.00000" pt_clust_6="31.90897"></scales>
<mgrwt>
<rscale>  0 0.30000000E+03</rscale>
<asrwt>  1 0.31908973E+02</asrwt>
<pdfrwt beam="1">  1        1 0.85239899E+00 0.30000000E+03</pdfrwt>
<pdfrwt beam="2">0</pdfrwt>
<totfact> 0.39297421E-04</totfact>
</mgrwt>
<clustering>
<clus scale="   31.909">  1  6  2 -1</clus>
<clus scale="  474.611">  4  5 -1 -1</clus>
<clus scale="  300.000">  1  4  2 -1</clus>
</clustering>
</event>
<event>
 6    1  0.9964252E-012  0.3000000E+03  0.7818608E-02  0.1093470E+00
          1   -1    0    0  502    0  0.00000000000E+00  0.00000000000E+00  0.23748097719E+03  0.23748097719E+03  0.00000000000E+00 0.  1.
         13   -1    0    0    0    0 -0.00000000000E+00 -0.00000000000E+00 -0.27500000000E+03  0.27500000000E+03  0.00000000000E+00 0.  1.
    9000005    2    1    2  501    0 -0.42488048374E+02 -0.12353164284E+01 -0.60796523208E+02  0.46401859708E+03  0.45805052226E+03 0.  0.
         13    1    3    3    0    0  0.19330095597E+03  0.31487761419E+02  0.48974771022E+02  0.20187933747E+03  0.00000000000E+00 0.  1.
          3    1    3    3  501    0 -0.23578900435E+03 -0.32723077848E+02 -0.10977129423E+03  0.26213925961E+03  0.00000000000E+00 0.  1.
         21    1    1    2  502  501  0.42488048374E+02  0.12353164284E+01  0.23277500400E+02  0.48462380112E+02  0.00000000000E+00 0. -1.
<scales pt_clust_4="550.00000" pt_clust_5="550.00000" pt_clust_6="42.50600"></scales>
<mgrwt>
<rscale>  0 0.30000000E+03</rscale>
<asrwt>  1 0.42506003E+02</asrwt>
<pdfrwt beam="1">  1        1 0.86356719E+00 0.30000000E+03</pdfrwt>
<pdfrwt beam="2">0</pdfrwt>
<totfact> 0.28567991E-04</totfact>
</mgrwt>
<clustering>
<clus scale="   42.506">  1  6  2 -1</clus>
<clus scale="  458.051">  4  5 -1 -1</clus>
<clus scale="  300.000">  1  4  2 -1</clus>
</clustering>
</event>
<event>
 6    1  0.9964252E-012  0.3000000E+03  0.7818608E-02  0.1093470E+00
          1   -1    0    0  502    0  0.00000000000E+00  0.00000000000E+00  0.23188615826E+03  0.23188615826E+03  0.00000000000E+00 0.  1.
         13   -1    0    0    0    0 -0.00000000000E+00 -0.00000000000E+00 -0.27500000000E+03  0.27500000000E+03  0.00000000000E+00 0.  1.
    9000005    2    1    2  501    0 -0.16960015783E+02 -0.40356501826E+02 -0.44417568845E+02  0.46309130606E+03  0.45887291045E+03 0.  0.
         13    1    3    3    0    0  0.14990048388E+03  0.14594791198E+03 -0.39669404607E+02  0.21294273817E+03  0.00000000000E+00 0.  1.
          3    1    3    3  501    0 -0.16686049966E+03 -0.18630441381E+03 -0.47481642377E+01  0.25014856788E+03  0.00000000000E+00 0.  1.
         21    1    1    2  502  501  0.16960015783E+02  0.40356501826E+02  0.13037271041E+01  0.43794852202E+02  0.00000000000E+00 0. -1.
<scales pt_clust_4="550.00000" pt_clust_5="550.00000" pt_clust_6="43.77544"></scales>
<mgrwt>
<rscale>  0 0.30000000E+03</rscale>
<asrwt>  1 0.43775443E+02</asrwt>
<pdfrwt beam="1">  1        1 0.84322239E+00 0.30000000E+03</pdfrwt>
<pdfrwt beam="2">0</pdfrwt>
<totfact> 0.44921913E-04</totfact>
</mgrwt>
<clustering>
<clus scale="   43.775">  1  6  2 -1</clus>
<clus scale="  458.873">  4  5 -1 -1</clus>
<clus scale="  300.000">  1  4  2 -1</clus>
</clustering>
</event>
<event>
 6    1  0.9964252E-012  0.3000000E+03  0.7818608E-02  0.1093470E+00
          1   -1    0    0  502    0  0.00000000000E+00  0.00000000000E+00  0.24527687764E+03  0.24527687764E+03  0.00000000000E+00 0.  1.
         13   -1    0    0    0    0 -0.00000000000E+00 -0.00000000000E+00 -0.27500000000E+03  0.27500000000E+03  0.00000000000E+00 0.  1.
    9000005    2    1    2  501    0 -0.38282977049E+02  0.25635800543E+02 -0.48317836408E+02  0.47059243348E+03  0.46583242108E+03 0.  0.
         13    1    3    3    0    0  0.15049455273E+03  0.36377330185E+02  0.13633802301E+03  0.20630069576E+03  0.00000000000E+00 0.  1.
          3    1    3    3  501    0 -0.18877752978E+03 -0.10741529642E+02 -0.18465585942E+03  0.26429173772E+03  0.00000000000E+00 0.  1.
         21    1    1    2  502  501  0.38282977049E+02 -0.25635800543E+02  0.18594714052E+02  0.49684444164E+02  0.00000000000E+00 0.  1.
<scales pt_clust_4="550.00000" pt_clust_5="550.00000" pt_clust_6="46.07364"></scales>
<mgrwt>
<rscale>  0 0.30000000E+03</rscale>
<asrwt>  1 0.46073643E+02</asrwt>
<pdfrwt beam="1">  1        1 0.89191592E+00 0.30000000E+03</pdfrwt>
<pdfrwt beam="2">0</pdfrwt>
<totfact> 0.13027913E-04</totfact>
</mgrwt>
<clustering>
<clus scale="   46.074">  1  6  2 -1</clus>
<clus scale="  465.832">  4  5 -1 -1</clus>
<clus scale="  300.000">  1  4  2 -1</clus>
</clustering>
</event>
<event>
 6    1  0.9964252E-012  0.3000000E+03  0.7818608E-02  0.1093470E+00
          1   -1    0    0  502    0  0.00000000000E+00  0.00000000000E+00  0.22847349603E+03  0.22847349603E+03  0.00000000000E+00 0.  1.
         13   -1    0    0    0    0 -0.00000000000E+00 -0.00000000000E+00 -0.27500000000E+03  0.27500000000E+03  0.00000000000E+00 0.  1.
    9000005    2    1    2  501    0 -0.95115924771E+01 -0.28470232101E+02 -0.41489274080E+02  0.47303670592E+03  0.47025667542E+03 0.  0.
         13    1    3    3    0    0  0.11876010918E+03 -0.15190262804E+03  0.12459997931E+03  0.22957248698E+03  0.00000000000E+00 0.  1.
          1    1    3    3  501    0 -0.12827170165E+03  0.12343239594E+03 -0.16608925339E+03  0.24346421894E+03  0.00000000000E+00 0.  1.
         21    1    1    2  502  501  0.95115924771E+01  0.28470232101E+02 -0.50372298880E+01  0.30436790111E+02  0.00000000000E+00 0.  1.
<scales pt_clust_4="550.00000" pt_clust_5="550.00000" pt_clust_6="30.01709"></scales>
<mgrwt>
<rscale>  0 0.30000000E+03</rscale>
<asrwt>  1 0.30017085E+02</asrwt>
<pdfrwt beam="1">  1        1 0.83081271E+00 0.30000000E+03</pdfrwt>
<pdfrwt beam="2">0</pdfrwt>
<totfact> 0.59929686E-04</totfact>
</mgrwt>
<clustering>
<clus scale="   30.017">  1  6  2 -1</clus>
<clus scale="  470.257">  4  5 -1 -1</clus>
<clus scale="  300.000">  1  4  2 -1</clus>
</clustering>
</event>
<event>
 6    1  0.9964252E-012  0.3000000E+03  0.7818608E-02  0.1093470E+00
          1   -1    0    0  502    0  0.00000000000E+00  0.00000000000E+00  0.22758250734E+03  0.22758250734E+03  0.00000000000E+00 0.  1.
         13   -1    0    0    0    0 -0.00000000000E+00 -0.00000000000E+00 -0.27500000000E+03  0.27500000000E+03  0.00000000000E+00 0.  1.
    9000005    2    1    2  501    0  0.32781695764E+02 -0.47628620938E+01 -0.43155810348E+02  0.46918360962E+03  0.46601878840E+03 0.  0.
         13    1    3    3    0    0  0.22317249062E+03  0.48119102290E+01  0.85675632538E+02  0.23910129456E+03  0.00000000000E+00 0.  1.
          1    1    3    3  501    0 -0.19039079485E+03 -0.95747723228E+01 -0.12883144289E+03  0.23008231506E+03  0.00000000000E+00 0.  1.
         21    1    1    2  502  501 -0.32781695764E+02  0.47628620938E+01 -0.42616823146E+01  0.33398897716E+02  0.00000000000E+00 0.  1.
<scales pt_clust_4="550.00000" pt_clust_5="550.00000" pt_clust_6="33.12590"></scales>
<mgrwt>
<rscale>  0 0.30000000E+03</rscale>
<asrwt>  1 0.33125904E+02</asrwt>
<pdfrwt beam="1">  1        1 0.82757275E+00 0.30000000E+03</pdfrwt>
<pdfrwt beam="2">0</pdfrwt>
<totfact> 0.62626877E-04</totfact>
</mgrwt>
<clustering>
<clus scale="   33.126">  1  6  2 -1</clus>
<clus scale="  466.019">  4  5 -1 -1</clus>
<clus scale="  300.000">  1  4  2 -1</clus>
</clustering>
</event>
<event>
 6    1  0.9964252E-012  0.3000000E+03  0.7818608E-02  0.1093470E+00
          1   -1    0    0  502    0  0.00000000000E+00  0.00000000000E+00  0.24349321023E+03  0.24349321023E+03  0.00000000000E+00 0.  1.
         13   -1    0    0    0    0 -0.00000000000E+00 -0.00000000000E+00 -0.27500000000E+03  0.27500000000E+03  0.00000000000E+00 0.  1.
    9000005    2    1    2  501    0 -0.59964572633E+01 -0.34525939659E+02 -0.42739319872E+02  0.48169419202E+03  0.47851295401E+03 0.  0.
         13    1    3    3    0    0 -0.20752743711E+03 -0.85836745247E+02  0.82129456640E+02  0.23912513802E+03  0.00000000000E+00 0.  1.
          1    1    3    3  501    0  0.20153097984E+03  0.51310805589E+02 -0.12486877651E+03  0.24256905399E+03  0.00000000000E+00 0.  1.
         21    1    1    2  502  501  0.59964572633E+01  0.34525939659E+02  0.11232530105E+02  0.36799018215E+02  0.00000000000E+00 0.  1.
<scales pt_clust_4="550.00000" pt_clust_5="550.00000" pt_clust_6="35.04280"></scales>
<mgrwt>
<rscale>  0 0.30000000E+03</rscale>
<asrwt>  1 0.35042803E+02</asrwt>
<pdfrwt beam="1">  1        1 0.88542986E+00 0.30000000E+03</pdfrwt>
<pdfrwt beam="2">0</pdfrwt>
<totfact> 0.16737996E-04</totfact>
</mgrwt>
<clustering>
<clus scale="   35.043">  1  6  2 -1</clus>
<clus scale="  478.513">  4  5 -1 -1</clus>
<clus scale="  300.000">  1  4  2 -1</clus>
</clustering>
</event>
<event>
 6    1  0.9964252E-012  0.3000000E+03  0.7818608E-02  0.1093470E+00
          1   -1    0    0  502    0  0.00000000000E+00  0.00000000000E+00  0.22282173388E+03  0.22282173388E+03  0.00000000000E+00 0.  1.
         13   -1    0    0    0    0 -0.00000000000E+00 -0.00000000000E+00 -0.27500000000E+03  0.27500000000E+03  0.00000000000E+00 0.  1.
    9000005    2    1    2  501    0 -0.27812367449E+02 -0.11897679398E+02 -0.68541975841E+02  0.46342909580E+03  0.45733296604E+03 0.  0.
         13    1    3    3    0    0  0.23045146583E+02  0.47316730358E+01 -0.26182330004E+03  0.26287812377E+03  0.00000000000E+00 0.  1.
          3    1    3    3  501    0 -0.50857514032E+02 -0.16629352434E+02  0.19328132420E+03  0.20055097203E+03  0.00000000000E+00 0.  1.
         21    1    1    2  502  501  0.27812367449E+02  0.11897679398E+02  0.16363709719E+02  0.34392638078E+02  0.00000000000E+00 0. -1.
<scales pt_clust_4="550.00000" pt_clust_5="550.00000" pt_clust_6="30.25033"></scales>
<mgrwt>
<rscale>  0 0.30000000E+03</rscale>
<asrwt>  1 0.30250332E+02</asrwt>
<pdfrwt beam="1">  1        1 0.81026085E+00 0.30000000E+03</pdfrwt>
<pdfrwt beam="2">0</pdfrwt>
<totfact> 0.89240968E-04</totfact>
</mgrwt>
<clustering>
<clus scale="   30.250">  1  6  2 -1</clus>
<clus scale="  457.333">  4  5 -1 -1</clus>
<clus scale="  300.000">  1  4  2 -1</clus>
</clustering>
</event>
<event>
 6    1  0.9964252E-012  0.3000000E+03  0.7818608E-02  0.1093470E+00
          1   -1    0    0  502    0  0.00000000000E+00  0.00000000000E+00  0.23574477597E+03  0.23574477597E+03  0.00000000000E+00 0.  1.
         13   -1    0    0    0    0 -0.00000000000E+00 -0.00000000000E+00 -0.27500000000E+03  0.27500000000E+03  0.00000000000E+00 0.  1.
    9000005    2    1    2  501    0 -0.23118660740E+02 -0.20601993976E+02 -0.70514266727E+02  0.46674429438E+03  0.46034667360E+03 0.  0.
         13    1    3    3    0    0 -0.17698888285E+03  0.37115427699E+02 -0.19095576564E+03  0.26299567308E+03  0.00000000000E+00 0.  1.
          3    1    3    3  501    0  0.15387022211E+03 -0.57717421674E+02  0.12044149892E+03  0.20374862129E+03  0.00000000000E+00 0.  1.
         21    1    1    2  502  501  0.23118660740E+02  0.20601993976E+02  0.31259042699E+02  0.44000481595E+02  0.00000000000E+00 0.  1.
<scales pt_clust_4="550.00000" pt_clust_5="550.00000" pt_clust_6="30.96635"></scales>
<mgrwt>
<rscale>  0 0.30000000E+03</rscale>
<asrwt>  1 0.30966347E+02</asrwt>
<pdfrwt beam="1">  1        1 0.85725373E+00 0.30000000E+03</pdfrwt>
<pdfrwt beam="2">0</pdfrwt>
<totfact> 0.35378931E-04</totfact>
</mgrwt>
<clustering>
<clus scale="   30.966">  1  6  2 -1</clus>
<clus scale="  460.347">  4  5 -1 -1</clus>
<clus scale="  300.000">  1  4  2 -1</clus>
</clustering>
</event>
<event>
 6    1  0.9964252E-012  0.3000000E+03  0.7818608E-02  0.1093470E+00
          1   -1    0    0  502    0  0.00000000000E+00  0.00000000000E+00  0.22817261872E+03  0.22817261872E+03  0.00000000000E+00 0.  1.
         13   -1    0    0    0    0 -0.00000000000E+00 -0.00000000000E+00 -0.27500000000E+03  0.27500000000E+03  0.00000000000E+00 0.  1.
    9000005    2    1    2  501    0  0.16753371783E+02 -0.33648672613E+02 -0.61592938329E+02  0.46278784053E+03  0.45712797623E+03 0.  0.
         13    1    3    3    0    0 -0.66887407532E+02 -0.23276265523E+03 -0.21554127772E+02  0.24313979390E+03  0.00000000000E+00 0.  1.
          3    1    3    3  501    0  0.83640779315E+02  0.19911398261E+03 -0.40038810557E+02  0.21964804663E+03  0.00000000000E+00 0.  1.
         21    1    1    2  502  501 -0.16753371783E+02  0.33648672613E+02  0.14765557053E+02  0.40384778194E+02  0.00000000000E+00 0. -1.
<scales pt_clust_4="550.00000" pt_clust_5="550.00000" pt_clust_6="37.58868"></scales>
<mgrwt>
<rscale>  0 0.30000000E+03</rscale>
<asrwt>  1 0.37588677E+02</asrwt>
<pdfrwt beam="1">  1        1 0.82971861E+00 0.30000000E+03</pdfrwt>
<pdfrwt beam="2">0</pdfrwt>
<totfact> 0.58636704E-04</totfact>
</mgrwt>
<clustering>
<clus scale="   37.589">  1  6  2 -1</clus>
<clus scale="  457.128">  4  5 -1 -1</clus>
<clus scale="  300.000">  1  4  2 -1</clus>
</clustering>
</event>
<event>
 6    1  0.9964252E-012  0.3000000E+03  0.7818608E-02  0.1093470E+00
          1   -1    0    0  502    0  0.00000000000E+00  0.00000000000E+00  0.23487389780E+03  0.23487389780E+03  0.00000000000E+00 0.  1.
         13   -1    0    0    0    0 -0.00000000000E+00 -0.00000000000E+00 -0.27500000000E+03  0.27500000000E+03  0.00000000000E+00 0.  1.
    9000005    2    1    2  501    0 -0.23304056105E+02 -0.27262928759E+02 -0.39778519865E+02  0.47400654316E+03  0.47097083349E+03 0.  0.
         13    1    3    3    0    0 -0.13391540012E+03  0.46365973466E+02 -0.21291059653E+03  0.25576172504E+03  0.00000000000E+00 0.  1.
          3    1    3    3  501    0  0.11061134401E+03 -0.73628902224E+02  0.17313207666E+03  0.21824481812E+03  0.00000000000E+00 0.  1.
         21    1    1    2  502  501  0.23304056105E+02  0.27262928759E+02 -0.34758233157E+00  0.35867354641E+02  0.00000000000E+00 0.  1.
<scales pt_clust_4="550.00000" pt_clust_5="550.00000" pt_clust_6="35.86567"></scales>
<mgrwt>
<rscale>  0 0.30000000E+03</rscale>
<asrwt>  1 0.35865670E+02</asrwt>
<pdfrwt beam="1">  1        1 0.85408690E+00 0.30000000E+03</pdfrwt>
<pdfrwt beam="2">0</pdfrwt>
<totfact> 0.37024698E-04</totfact>
</mgrwt>
<clustering>
<clus scale="   35.866">  1  6  2 -1</clus>
<clus scale="  470.971">  4  5 -1 -1</clus>
<clus scale="  300.000">  1  4  2 -1</clus>
</clustering>
</event>
<event>
 6    1  0.9964252E-012  0.3000000E+03  0.7818608E-02  0.1093470E+00
          1   -1    0    0  502    0  0.00000000000E+00  0.00000000000E+00  0.23089930970E+03  0.23089930970E+03  0.00000000000E+00 0.  1.
         13   -1    0    0    0    0 -0.00000000000E+00 -0.00000000000E+00 -0.27500000000E+03  0.27500000000E+03  0.00000000000E+00 0.  1.
    9000005    2    1    2  501    0 -0.33748812215E+02  0.22470177480E+02 -0.42381922713E+02  0.46531796714E+03  0.46160664203E+03 0.  0.
         13    1    3    3    0    0  0.71476505700E+02  0.24665128448E+02 -0.23442930710E+03  0.24632165852E+03  0.00000000000E+00 0.  1.
          1    1    3    3  501    0 -0.10522531792E+03 -0.21949509684E+01  0.19204738438E+03  0.21899630862E+03  0.00000000000E+00 0.  1.
         21    1    1    2  502  501  0.33748812215E+02 -0.22470177480E+02 -0.17187675917E+01  0.40581342560E+02  0.00000000000E+00 0.  1.
<scales pt_clust_4="550.00000" pt_clust_5="550.00000" pt_clust_6="40.54493"></scales>
<mgrwt>
<rscale>  0 0.30000000E+03</rscale>
<asrwt>  1 0.40544928E+02</asrwt>
<pdfrwt beam="1">  1        1 0.83963385E+00 0.30000000E+03</pdfrwt>
<pdfrwt beam="2">0</pdfrwt>
<totfact> 0.48685825E-04</totfact>
</mgrwt>
<clustering>
<clus scale="   40.545">  1  6  2 -1</clus>
<clus scale="  461.607">  4  5 -1 -1</clus>
<clus scale="  300.000">  1  4  2 -1</clus>
</clustering>
</event>
<event>
 6    1  0.9964252E-012  0.3000000E+03  0.7818608E-02  0.1093470E+00
          1   -1    0    0  502    0  0.00000000000E+00  0.00000000000E+00  0.22160283166E+03  0.22160283166E+03  0.00000000000E+00 0.  1.
         13   -1    0    0    0    0 -0.00000000000E+00 -0.00000000000E+00 -0.27500000000E+03  0.27500000000E+03  0.00000000000E+00 0.  1.
    9000005    2    1    2  501    0  0.31894567210E+02  0.27944472332E+01 -0.43770523852E+02  0.46317014351E+03  0.45998440270E+03 0.  0.
         13    1    3    3    0    0 -0.13870086953E+03  0.25396105393E+02  0.14874159259E+03  0.20495598246E+03  0.00000000000E+00 0.  1.
          1    1    3    3  501    0  0.17059543674E+03 -0.22601658160E+02 -0.19251211644E+03  0.25821416105E+03  0.00000000000E+00 0.  1.
         21    1    1    2  502  501 -0.31894567210E+02 -0.27944472332E+01 -0.96266444902E+01  0.33432688151E+02  0.00000000000E+00 0.  1.
<scales pt_clust_4="550.00000" pt_clust_5="550.00000" pt_clust_6="32.01677"></scales>
<mgrwt>
<rscale>  0 0.30000000E+03</rscale>
<asrwt>  1 0.32016767E+02</asrwt>
<pdfrwt beam="1">  1        1 0.80582848E+00 0.30000000E+03</pdfrwt>
<pdfrwt beam="2">0</pdfrwt>
<totfact> 0.95511888E-04</totfact>
</mgrwt>
<clustering>
<clus scale="   32.017">  1  6  2 -1</clus>
<clus scale="  459.984">  4  5 -1 -1</clus>
<clus scale="  300.000">  1  4  2 -1</clus>
</clustering>
</event>
<event>
 6    1  0.9964252E-012  0.3000000E+03  0.7818608E-02  0.1093470E+00
          1   -1    0    0  502    0  0.00000000000E+00  0.00000000000E+00  0.23740809227E+03  0.23740809227E+03  0.00000000000E+00 0.  1.
         13   -1    0    0    0    0 -0.00000000000E+00 -0.00000000000E+00 -0.27500000000E+03  0.27500000000E+03  0.00000000000E+00 0.  1.
    9000005    2    1    2  501    0  0.29426836815E+02 -0.82260000016E+01 -0.53872204398E+02  0.47778651142E+03  0.47375534856E+03 0.  0.
         13    1    3    3    0    0 -0.45199125205E+02 -0.20496548897E+03  0.84161055657E+02  0.22613468526E+03  0.00000000000E+00 0.  1.
          3    1    3    3  501    0  0.74625962021E+02  0.19673948897E+03 -0.13803326006E+03  0.25165182616E+03  0.00000000000E+00 0.  1.
         21    1    1    2  502  501 -0.29426836815E+02  0.82260000016E+01  0.16280296672E+02  0.34621580852E+02  0.00000000000E+00 0.  1.
<scales pt_clust_4="550.00000" pt_clust_5="550.00000" pt_clust_6="30.55496"></scales>
<mgrwt>
<rscale>  0 0.30000000E+03</rscale>
<asrwt>  1 0.30554964E+02</asrwt>
<pdfrwt beam="1">  1        1 0.86330215E+00 0.30000000E+03</pdfrwt>
<pdfrwt beam="2">0</pdfrwt>
<totfact> 0.30579080E-04</totfact>
</mgrwt>
<clustering>
<clus scale="   30.555">  1  6  2 -1</clus>
<clus scale="  473.755">  4  5 -1 -1</clus>
<clus scale="  300.000">  1  4  2 -1</clus>
</clustering>
</event>
<event>
 6    1  0.9964252E-012  0.3000000E+03  0.7818608E-02  0.1093470E+00
          1   -1    0    0  502    0  0.00000000000E+00  0.00000000000E+00  0.24821873595E+03  0.24821873595E+03  0.00000000000E+00 0.  1.
         13   -1    0    0    0    0 -0.00000000000E+00 -0.00000000000E+00 -0.27500000000E+03  0.27500000000E+03  0.00000000000E+00 0.  1.
    9000005    2    1    2  501    0 -0.39555320831E+02  0.26610743155E+02 -0.60744226381E+02  0.46468466154E+03  0.45822398297E+03 0.  0.
         13    1    3    3    0    0 -0.72372879530E+00 -0.21405377556E+03 -0.54242923919E+02  0.22082082649E+03  0.00000000000E+00 0.  1.
          3    1    3    3  501    0 -0.38831592035E+02  0.24066451872E+03 -0.65013024618E+01  0.24386383505E+03  0.00000000000E+00 0.  1.
         21    1    1    2  502  501  0.39555320831E+02 -0.26610743155E+02  0.33962962332E+02  0.58534074415E+02  0.00000000000E+00 0.  1.
<scales pt_clust_4="550.00000" pt_clust_5="550.00000" pt_clust_6="47.67342"></scales>
<mgrwt>
<rscale>  0 0.30000000E+03</rscale>
<asrwt>  1 0.47673421E+02</asrwt>
<pdfrwt beam="1">  1        1 0.90261359E+00 0.30000000E+03</pdfrwt>
<pdfrwt beam="2">0</pdfrwt>
<totfact> 0.96069794E-05</totfact>
</mgrwt>
<clustering>
<clus scale="   47.673">  1  6  2 -1</clus>
<clus scale="  458.224">  4  5 -1 -1</clus>
<clus scale="  300.000">  1  4  2 -1</clus>
</clustering>
</event>
<event>
 6    1  0.9964252E-012  0.3000000E+03  0.7818608E-02  0.1093470E+00
          1   -1    0    0  502    0  0.00000000000E+00  0.00000000000E+00  0.23697342856E+03  0.23697342856E+03  0.00000000000E+00 0.  1.
         13   -1    0    0    0    0 -0.00000000000E+00 -0.00000000000E+00 -0.27500000000E+03  0.27500000000E+03  0.00000000000E+00 0.  1.
    9000005    2    1    2  501    0  0.19952588758E+02 -0.42381957493E+02 -0.38106362441E+02  0.46512961909E+03  0.46119316080E+03 0.  0.
         13    1    3    3    0    0  0.18199803370E+03 -0.26398299581E+02 -0.17390173028E+03  0.25310465481E+03  0.00000000000E+00 0.  1.
          1    1    3    3  501    0 -0.16204544495E+03 -0.15983657912E+02  0.13579536784E+03  0.21202496427E+03  0.00000000000E+00 0.  1.
         21    1    1    2  502  501 -0.19952588758E+02  0.42381957493E+02  0.79790996780E-01  0.46843809470E+02  0.00000000000E+00 0.  1.
<scales pt_clust_4="550.00000" pt_clust_5="550.00000" pt_clust_6="46.84374"></scales>
<mgrwt>
<rscale>  0 0.30000000E+03</rscale>
<asrwt>  1 0.46843742E+02</asrwt>
<pdfrwt beam="1">  1        1 0.86172156E+00 0.30000000E+03</pdfrwt>
<pdfrwt beam="2">0</pdfrwt>
<totfact> 0.29395927E-04</totfact>
</mgrwt>
<clustering>
<clus scale="   46.844">  1  6  2 -1</clus>
<clus scale="  461.193">  4  5 -1 -1</clus>
<clus scale="  300.000">  1  4  2 -1</clus>
</clustering>
</event>
<event>
 6    1  0.9964252E-012  0.3000000E+03  0.7818608E-02  0.1093470E+00
          1   -1    0    0  502    0  0.00000000000E+00  0.00000000000E+00  0.23913110949E+03  0.23913110949E+03  0.00000000000E+00 0.  1.
         13   -1    0    0    0    0 -0.00000000000E+00 -0.00000000000E+00 -0.27500000000E+03  0.27500000000E+03  0.00000000000E+00 0.  1.
    9000005    2    1    2  501    0  0.19991928825E+01  0.31588377167E+02 -0.72229004355E+02  0.46592446863E+03  0.45920230733E+03 0.  0.
         13    1    3    3    0    0 -0.80225165448E+02  0.94956553188E+02 -0.23905097804E+03  0.26944052084E+03  0.00000000000E+00 0.  1.
          3    1    3    3  501    0  0.82224358330E+02 -0.63368176021E+02  0.16682197369E+03  0.19648394779E+03  0.00000000000E+00 0.  1.
         21    1    1    2  502  501 -0.19991928825E+01 -0.31588377167E+02  0.36360113841E+02  0.48206640857E+02  0.00000000000E+00 0.  1.
<scales pt_clust_4="550.00000" pt_clust_5="550.00000" pt_clust_6="31.65158"></scales>
<mgrwt>
<rscale>  0 0.30000000E+03</rscale>
<asrwt>  1 0.31651577E+02</asrwt>
<pdfrwt beam="1">  1        1 0.86956767E+00 0.30000000E+03</pdfrwt>
<pdfrwt beam="2">0</pdfrwt>
<totfact> 0.26074877E-04</totfact>
</mgrwt>
<clustering>
<clus scale="   31.652">  1  6  2 -1</clus>
<clus scale="  459.202">  4  5 -1 -1</clus>
<clus scale="  300.000">  1  4  2 -1</clus>
</clustering>
</event>
<event>
 6    1  0.9964252E-012  0.3000000E+03  0.7818608E-02  0.1093470E+00
          1   -1    0    0  502    0  0.00000000000E+00  0.00000000000E+00  0.24873726455E+03  0.24873726455E+03  0.00000000000E+00 0.  1.
         13   -1    0    0    0    0 -0.00000000000E+00 -0.00000000000E+00 -0.27500000000E+03  0.27500000000E+03  0.00000000000E+00 0.  1.
    9000005    2    1    2  501    0  0.19243093274E+02 -0.28308024947E+02 -0.35162030479E+02  0.48837007118E+03  0.48589846380E+03 0.  0.
         13    1    3    3    0    0 -0.28515561557E+02 -0.11816715232E+03  0.19892190824E+03  0.23312344094E+03  0.00000000000E+00 0.  1.
          3    1    3    3  501    0  0.47758654831E+02  0.89859127372E+02 -0.23408393872E+03  0.25524663024E+03  0.00000000000E+00 0.  1.
         21    1    1    2  502  501 -0.19243093274E+02  0.28308024947E+02  0.88992950323E+01  0.35367193375E+02  0.00000000000E+00 0.  1.
<scales pt_clust_4="550.00000" pt_clust_5="550.00000" pt_clust_6="34.22924"></scales>
<mgrwt>
<rscale>  0 0.30000000E+03</rscale>
<asrwt>  1 0.34229241E+02</asrwt>
<pdfrwt beam="1">  1        1 0.90449914E+00 0.30000000E+03</pdfrwt>
<pdfrwt beam="2">0</pdfrwt>
<totfact> 0.94859907E-05</totfact>
</mgrwt>
<clustering>
<clus scale="   34.229">  1  6  2 -1</clus>
<clus scale="  485.898">  4  5 -1 -1</clus>
<clus scale="  300.000">  1  4  2 -1</clus>
</clustering>
</event>
<event>
 6    1  0.9964252E-012  0.3000000E+03  0.7818608E-02  0.1093470E+00
          1   -1    0    0  502    0  0.00000000000E+00  0.00000000000E+00  0.22026858006E+03  0.22026858006E+03  0.00000000000E+00 0.  1.
         13   -1    0    0    0    0 -0.00000000000E+00 -0.00000000000E+00 -0.27500000000E+03  0.27500000000E+03  0.00000000000E+00 0.  1.
    9000005    2    1    2  501    0  0.96188997876E+01  0.30481269783E+02 -0.56636662397E+02  0.46324888316E+03  0.45866129680E+03 0.  0.
         13    1    3    3    0    0 -0.55502474656E+02  0.23681798263E+03 -0.36249072827E+02  0.24592128186E+03  0.00000000000E+00 0.  1.
          1    1    3    3  501    0  0.65121374444E+02 -0.20633671285E+03 -0.20387589569E+02  0.21732760130E+03  0.00000000000E+00 0.  1.
         21    1    1    2  502  501 -0.96188997876E+01 -0.30481269783E+02  0.19052424578E+01  0.32019696900E+02  0.00000000000E+00 0.  1.
<scales pt_clust_4="550.00000" pt_clust_5="550.00000" pt_clust_6="31.96296"></scales>
<mgrwt>
<rscale>  0 0.30000000E+03</rscale>
<asrwt>  1 0.31962964E+02</asrwt>
<pdfrwt beam="1">  1        1 0.80097665E+00 0.30000000E+03</pdfrwt>
<pdfrwt beam="2">0</pdfrwt>
<totfact> 0.10379020E-03</totfact>
</mgrwt>
<clustering>
<clus scale="   31.963">  1  6  2 -1</clus>
<clus scale="  458.661">  4  5 -1 -1</clus>
<clus scale="  300.000">  1  4  2 -1</clus>
</clustering>
</event>
<event>
 6    1  0.9964252E-012  0.3000000E+03  0.7818608E-02  0.1093470E+00
          1   -1    0    0  502    0  0.00000000000E+00  0.00000000000E+00  0.23427814371E+03  0.23427814371E+03  0.00000000000E+00 0.  1.
         13   -1    0    0    0    0 -0.00000000000E+00 -0.00000000000E+00 -0.27500000000E+03  0.27500000000E+03  0.00000000000E+00 0.  1.
    9000005    2    1    2  501    0 -0.32194689702E+02 -0.23005818993E+02 -0.33279011588E+02  0.46901449149E+03  0.46615591261E+03 0.  0.
         13    1    3    3    0    0 -0.28399819029E+02 -0.74417516086E+02  0.20776984025E+03  0.22251477016E+03  0.00000000000E+00 0.  1.
          3    1    3    3  501    0 -0.37948706732E+01  0.51411697092E+02 -0.24104885184E+03  0.24649972133E+03  0.00000000000E+00 0.  1.
         21    1    1    2  502  501  0.32194689702E+02  0.23005818993E+02 -0.74428447021E+01  0.40263652216E+02  0.00000000000E+00 0. -1.
<scales pt_clust_4="550.00000" pt_clust_5="550.00000" pt_clust_6="39.56978"></scales>
<mgrwt>
<rscale>  0 0.30000000E+03</rscale>
<asrwt>  1 0.39569778E+02</asrwt>
<pdfrwt beam="1">  1        1 0.85192052E+00 0.30000000E+03</pdfrwt>
<pdfrwt beam="2">0</pdfrwt>
<totfact> 0.38152204E-04</totfact>
</mgrwt>
<clustering>
<clus scale="   39.570">  1  6  2 -1</clus>
<clus scale="  466.156">  4  5 -1 -1</clus>
<clus scale="  300.000">  1  4  2 -1</clus>
</clustering>
</event>
<event>
 6    1  0.9964252E-012  0.3000000E+03  0.7818608E-02  0.1093470E+00
          1   -1    0    0  502    0  0.00000000000E+00  0.00000000000E+00  0.24138181864E+03  0.24138181864E+03  0.00000000000E+00 0.  1.
         13   -1    0    0    0    0 -0.00000000000E+00 -0.00000000000E+00 -0.27500000000E+03  0.27500000000E+03  0.00000000000E+00 0.  1.
    9000005    2    1    2  501    0 -0.14666347695E+02  0.31834464263E+02 -0.69445092168E+02  0.46626094068E+03  0.45972612402E+03 0.  0.
         13    1    3    3    0    0  0.19395610366E+03  0.95394829096E+02 -0.11294287784E+03  0.24387545432E+03  0.00000000000E+00 0.  1.
          1    1    3    3  501    0 -0.20862245135E+03 -0.63560364833E+02  0.43497785669E+02  0.22238548636E+03  0.00000000000E+00 0.  1.
         21    1    1    2  502  501  0.14666347695E+02 -0.31834464263E+02  0.35826910806E+02  0.50120877961E+02  0.00000000000E+00 0.  1.
<scales pt_clust_4="550.00000" pt_clust_5="550.00000" pt_clust_6="35.05046"></scales>
<mgrwt>
<rscale>  0 0.30000000E+03</rscale>
<asrwt>  1 0.35050462E+02</asrwt>
<pdfrwt beam="1">  1        1 0.87775207E+00 0.30000000E+03</pdfrwt>
<pdfrwt beam="2">0</pdfrwt>
<totfact> 0.20980956E-04</totfact>
</mgrwt>
<clustering>
<clus scale="   35.050">  1  6  2 -1</clus>
<clus scale="  459.726">  4  5 -1 -1</clus>
<clus scale="  300.000">  1  4  2 -1</clus>
</clustering>
</event>
<event>
 6    1  0.9964252E-012  0.3000000E+03  0.7818608E-02  0.1093470E+00
          1   -1    0    0  502    0  0.00000000000E+00  0.00000000000E+00  0.24544896201E+03  0.24544896201E+03  0.00000000000E+00 0.  1.
         13   -1    0    0    0    0 -0.00000000000E+00 -0.00000000000E+00 -0.27500000000E+03  0.27500000000E+03  0.00000000000E+00 0.  1.
    9000005    2    1    2  501    0  0.41324471944E+01  0.44596732940E+02 -0.35601647270E+02  0.47525432094E+03  0.47179788742E+03 0.  0.
         13    1    3    3    0    0 -0.12609428608E+03  0.13226095483E+03  0.14694523966E+03  0.23449015462E+03  0.00000000000E+00 0.  1.
          1    1    3    3  501    0  0.13022673327E+03 -0.87664221893E+02 -0.18254688693E+03  0.24076416632E+03  0.00000000000E+00 0.  1.
         21    1    1    2  502  501 -0.41324471944E+01 -0.44596732940E+02  0.60506092761E+01  0.45194641069E+02  0.00000000000E+00 0.  1.
<scales pt_clust_4="550.00000" pt_clust_5="550.00000" pt_clust_6="44.78779"></scales>
<mgrwt>
<rscale>  0 0.30000000E+03</rscale>
<asrwt>  1 0.44787785E+02</asrwt>
<pdfrwt beam="1">  1        1 0.89254168E+00 0.30000000E+03</pdfrwt>
<pdfrwt beam="2">0</pdfrwt>
<totfact> 0.12866876E-04</totfact>
</mgrwt>
<clustering>
<clus scale="   44.788">  1  6  2 -1</clus>
<clus scale="  471.798">  4  5 -1 -1</clus>
<clus scale="  300.000">  1  4  2 -1</clus>
</clustering>
</event>
<event>
 6    1  0.9964252E-012  0.3000000E+03  0.7818608E-02  0.1093470E+00
          1   -1    0    0  502    0  0.00000000000E+00  0.00000000000E+00  0.23587774249E+03  0.23587774249E+03  0.00000000000E+00 0.  1.
         13   -1    0    0    0    0 -0.00000000000E+00 -0.00000000000E+00 -0.27500000000E+03  0.27500000000E+03  0.00000000000E+00 0.  1.
    9000005    2    1    2  501    0  0.29016378643E+02 -0.12561418835E+02 -0.54195449260E+02  0.47585003086E+03  0.47169520421E+03 0.  0.
         13    1    3    3    0    0  0.16102687547E+03  0.13263450269E+03  0.95106055508E+02  0.22927435033E+03  0.00000000000E+00 0.  1.
          1    1    3    3  501    0 -0.13201049682E+03 -0.14519592153E+03 -0.14930150477E+03  0.24657568052E+03  0.00000000000E+00 0.  1.
         21    1    1    2  502  501 -0.29016378643E+02  0.12561418835E+02  0.15073191746E+02  0.35027711631E+02  0.00000000000E+00 0.  1.
<scales pt_clust_4="550.00000" pt_clust_5="550.00000" pt_clust_6="31.61866"></scales>
<mgrwt>
<rscale>  0 0.30000000E+03</rscale>
<asrwt>  1 0.31618657E+02</asrwt>
<pdfrwt beam="1">  1        1 0.85773725E+00 0.30000000E+03</pdfrwt>
<pdfrwt beam="2">0</pdfrwt>
<totfact> 0.34834340E-04</totfact>
</mgrwt>
<clustering>
<clus scale="   31.619">  1  6  2 -1</clus>
<clus scale="  471.695">  4  5 -1 -1</clus>
<clus scale="  300.000">  1  4  2 -1</clus>
</clustering>
</event>
<event>
 6    1  0.9964252E-012  0.3000000E+03  0.7818608E-02  0.1093470E+00
          1   -1    0    0  502    0  0.00000000000E+00  0.00000000000E+00  0.24246324616E+03  0.24246324616E+03  0.00000000000E+00 0.  1.
         13   -1    0    0    0    0 -0.00000000000E+00 -0.00000000000E+00 -0.27500000000E+03  0.27500000000E+03  0.00000000000E+00 0.  1.
    9000005    2    1    2  501    0 -0.39012665701E+02  0.10105484472E+02 -0.42201341114E+02  0.47602035595E+03  0.47243022468E+03 0.  0.
         13    1    3    3    0    0  0.18278807276E+03 -0.47760226872E+02  0.92281556229E+02  0.21025794738E+03  0.00000000000E+00 0.  1.
          1    1    3    3  501    0 -0.22180073846E+03  0.57865711345E+02 -0.13448289734E+03  0.26576240857E+03  0.00000000000E+00 0.  1.
         21    1    1    2  502  501  0.39012665701E+02 -0.10105484472E+02  0.96645872709E+01  0.41442890206E+02  0.00000000000E+00 0.  1.
<scales pt_clust_4="550.00000" pt_clust_5="550.00000" pt_clust_6="40.30023"></scales>
<mgrwt>
<rscale>  0 0.30000000E+03</rscale>
<asrwt>  1 0.40300235E+02</asrwt>
<pdfrwt beam="1">  1        1 0.88168453E+00 0.30000000E+03</pdfrwt>
<pdfrwt beam="2">0</pdfrwt>
<totfact> 0.18310799E-04</totfact>
</mgrwt>
<clustering>
<clus scale="   40.300">  1  6  2 -1</clus>
<clus scale="  472.430">  4  5 -1 -1</clus>
<clus scale="  300.000">  1  4  2 -1</clus>
</clustering>
</event>
<event>
 6    1  0.9964252E-012  0.3000000E+03  0.7818608E-02  0.1093470E+00
          1   -1    0    0  502    0  0.00000000000E+00  0.00000000000E+00  0.25316051078E+03  0.25316051078E+03  0.00000000000E+00 0.  1.
         13   -1    0    0    0    0 -0.00000000000E+00 -0.00000000000E+00 -0.27500000000E+03  0.27500000000E+03  0.00000000000E+00 0.  1.
    9000005    2    1    2  501    0  0.74320729800E+01 -0.33369720158E+02 -0.43663529785E+02  0.48760113851E+03  0.48443739793E+03 0.  0.
         13    1    3    3    0    0  0.10396294480E+03 -0.55174001483E+02  0.19582393779E+03  0.22847205287E+03  0.00000000000E+00 0.  1.
          1    1    3    3  501    0 -0.96530871819E+02  0.21804281325E+02 -0.23948746758E+03  0.25912908564E+03  0.00000000000E+00 0.  1.
         21    1    1    2  502  501 -0.74320729800E+01  0.33369720158E+02  0.21824040563E+02  0.40559372267E+02  0.00000000000E+00 0. -1.
<scales pt_clust_4="550.00000" pt_clust_5="550.00000" pt_clust_6="34.18734"></scales>
<mgrwt>
<rscale>  0 0.30000000E+03</rscale>
<asrwt>  1 0.34187336E+02</asrwt>
<pdfrwt beam="1">  1        1 0.92058368E+00 0.30000000E+03</pdfrwt>
<pdfrwt beam="2">0</pdfrwt>
<totfact> 0.40782298E-05</totfact>
</mgrwt>
<clustering>
<clus scale="   34.187">  1  6  2 -1</clus>
<clus scale="  484.437">  4  5 -1 -1</clus>
<clus scale="  300.000">  1  4  2 -1</clus>
</clustering>
</event>
<event>
 6    1  0.9964252E-012  0.3000000E+03  0.7818608E-02  0.1093470E+00
          1   -1    0    0  502    0  0.00000000000E+00  0.00000000000E+00  0.25056360609E+03  0.25056360609E+03  0.00000000000E+00 0.  1.
         13   -1    0    0    0    0 -0.00000000000E+00 -0.00000000000E+00 -0.27500000000E+03  0.27500000000E+03  0.00000000000E+00 0.  1.
    9000005    2    1    2  501    0  0.29897969974E+02 -0.87217319067E+01 -0.45968959150E+02  0.48770058215E+03  0.48452941645E+03 0.  0.
         13    1    3    3    0    0  0.53787855346E+02 -0.94781002054E+02  0.19903922957E+03  0.22692110224E+03  0.00000000000E+00 0.  1.
          1    1    3    3  501    0 -0.23889885372E+02  0.86059270147E+02 -0.24500818872E+03  0.26077947991E+03  0.00000000000E+00 0.  1.
         21    1    1    2  502  501 -0.29897969974E+02  0.87217319067E+01  0.21532565242E+02  0.37863023941E+02  0.00000000000E+00 0. -1.
<scales pt_clust_4="550.00000" pt_clust_5="550.00000" pt_clust_6="31.14414"></scales>
<mgrwt>
<rscale>  0 0.30000000E+03</rscale>
<asrwt>  1 0.31144136E+02</asrwt>
<pdfrwt beam="1">  1        1 0.91114039E+00 0.30000000E+03</pdfrwt>
<pdfrwt beam="2">0</pdfrwt>
<totfact> 0.68861903E-05</totfact>
</mgrwt>
<clustering>
<clus scale="   31.144">  1  6  2 -1</clus>
<clus scale="  484.529">  4  5 -1 -1</clus>
<clus scale="  300.000">  1  4  2 -1</clus>
</clustering>
</event>
<event>
 6    1  0.9964252E-012  0.3000000E+03  0.7818608E-02  0.1093470E+00
          1   -1    0    0  502    0  0.00000000000E+00  0.00000000000E+00  0.21938764025E+03  0.21938764025E+03  0.00000000000E+00 0.  1.
         13   -1    0    0    0    0 -0.00000000000E+00 -0.00000000000E+00 -0.27500000000E+03  0.27500000000E+03  0.00000000000E+00 0.  1.
    9000005    2    1    2  501    0  0.13506612419E+02  0.28726494660E+02 -0.58340668874E+02  0.46252726133E+03  0.45773375859E+03 0.  0.
         13    1    3    3    0    0  0.76685775740E+02 -0.81941564533E+02 -0.22576625274E+03  0.25212205194E+03  0.00000000000E+00 0.  1.
          3    1    3    3  501    0 -0.63179163321E+02  0.11066805919E+03  0.16742558387E+03  0.21040520939E+03  0.00000000000E+00 0.  1.
         21    1    1    2  502  501 -0.13506612419E+02 -0.28726494660E+02  0.27283091289E+01  0.31860378924E+02  0.00000000000E+00 0. -1.
<scales pt_clust_4="550.00000" pt_clust_5="550.00000" pt_clust_6="31.74335"></scales>
<mgrwt>
<rscale>  0 0.30000000E+03</rscale>
<asrwt>  1 0.31743347E+02</asrwt>
<pdfrwt beam="1">  1        1 0.79777324E+00 0.30000000E+03</pdfrwt>
<pdfrwt beam="2">0</pdfrwt>
<totfact> 0.10962991E-03</totfact>
</mgrwt>
<clustering>
<clus scale="   31.743">  1  6  2 -1</clus>
<clus scale="  457.734">  4  5 -1 -1</clus>
<clus scale="  300.000">  1  4  2 -1</clus>
</clustering>
</event>
<event>
 6    1  0.9964252E-012  0.3000000E+03  0.7818608E-02  0.1093470E+00
          1   -1    0    0  502    0  0.00000000000E+00  0.00000000000E+00  0.23920452961E+03  0.23920452961E+03  0.00000000000E+00 0.  1.
         13   -1    0    0    0    0 -0.00000000000E+00 -0.00000000000E+00 -0.27500000000E+03  0.27500000000E+03  0.00000000000E+00 0.  1.
    9000005    2    1    2  501    0 -0.34274178190E+02  0.19003132886E+02 -0.61641374815E+02  0.46725935813E+03  0.46151469134E+03 0.  0.
         13    1    3    3    0    0 -0.20132729305E+03 -0.57278252523E+02 -0.15574999872E+03  0.26090523038E+03  0.00000000000E+00 0.  1.
          3    1    3    3  501    0  0.16705311486E+03  0.76281385409E+02  0.94108623910E+02  0.20635412775E+03  0.00000000000E+00 0.  1.
         21    1    1    2  502  501  0.34274178190E+02 -0.19003132886E+02  0.25845904427E+02  0.46945171485E+02  0.00000000000E+00 0.  1.
<scales pt_clust_4="550.00000" pt_clust_5="550.00000" pt_clust_6="39.18977"></scales>
<mgrwt>
<rscale>  0 0.30000000E+03</rscale>
<asrwt>  1 0.39189774E+02</asrwt>
<pdfrwt beam="1">  1        1 0.86983465E+00 0.30000000E+03</pdfrwt>
<pdfrwt beam="2">0</pdfrwt>
<totfact> 0.24897340E-04</totfact>
</mgrwt>
<clustering>
<clus scale="   39.190">  1  6  2 -1</clus>
<clus scale="  461.515">  4  5 -1 -1</clus>
<clus scale="  300.000">  1  4  2 -1</clus>
</clustering>
</event>
<event>
 6    1  0.9964252E-012  0.3000000E+03  0.7818608E-02  0.1093470E+00
          1   -1    0    0  502    0  0.00000000000E+00  0.00000000000E+00  0.23304168069E+03  0.23304168069E+03  0.00000000000E+00 0.  1.
         13   -1    0    0    0    0 -0.00000000000E+00 -0.00000000000E+00 -0.27500000000E+03  0.27500000000E+03  0.00000000000E+00 0.  1.
    9000005    2    1    2  501    0  0.14251608573E+02 -0.33574756823E+02 -0.61941505701E+02  0.46645201393E+03  0.46087998279E+03 0.  0.
         13    1    3    3    0    0 -0.10564060746E+03 -0.21082981536E+03 -0.86222824729E+02  0.25108469586E+03  0.00000000000E+00 0.  1.
          1    1    3    3  501    0  0.11989221603E+03  0.17725505854E+03  0.24281319029E+02  0.21536731808E+03  0.00000000000E+00 0.  1.
         21    1    1    2  502  501 -0.14251608573E+02  0.33574756823E+02  0.19983186393E+02  0.41589666758E+02  0.00000000000E+00 0.  1.
<scales pt_clust_4="550.00000" pt_clust_5="550.00000" pt_clust_6="36.47427"></scales>
<mgrwt>
<rscale>  0 0.30000000E+03</rscale>
<asrwt>  1 0.36474274E+02</asrwt>
<pdfrwt beam="1">  1        1 0.84742429E+00 0.30000000E+03</pdfrwt>
<pdfrwt beam="2">0</pdfrwt>
<totfact> 0.42660680E-04</totfact>
</mgrwt>
<clustering>
<clus scale="   36.474">  1  6  2 -1</clus>
<clus scale="  460.880">  4  5 -1 -1</clus>
<clus scale="  300.000">  1  4  2 -1</clus>
</clustering>
</event>
<event>
 6    1  0.9964252E-012  0.3000000E+03  0.7818608E-02  0.1093470E+00
          1   -1    0    0  502    0  0.00000000000E+00  0.00000000000E+00  0.23359970349E+03  0.23359970349E+03  0.00000000000E+00 0.  1.
         13   -1    0    0    0    0 -0.00000000000E+00 -0.00000000000E+00 -0.27500000000E+03  0.27500000000E+03  0.00000000000E+00 0.  1.
    9000005    2    1    2  501    0  0.35939636743E+02 -0.24281632377E+02 -0.47825090674E+02  0.46475300304E+03  0.46024652022E+03 0.  0.
         13    1    3    3    0    0  0.23655960476E+03 -0.87026069781E+02 -0.23748045185E+02  0.25317573556E+03  0.00000000000E+00 0.  1.
          1    1    3    3  501    0 -0.20061996802E+03  0.62744437404E+02 -0.24077045489E+02  0.21157726748E+03  0.00000000000E+00 0.  1.
         21    1    1    2  502  501 -0.35939636743E+02  0.24281632377E+02  0.64247941594E+01  0.43846700447E+02  0.00000000000E+00 0.  1.
<scales pt_clust_4="550.00000" pt_clust_5="550.00000" pt_clust_6="43.37344"></scales>
<mgrwt>
<rscale>  0 0.30000000E+03</rscale>
<asrwt>  1 0.43373438E+02</asrwt>
<pdfrwt beam="1">  1        1 0.84945347E+00 0.30000000E+03</pdfrwt>
<pdfrwt beam="2">0</pdfrwt>
<totfact> 0.39592159E-04</totfact>
</mgrwt>
<clustering>
<clus scale="   43.373">  1  6  2 -1</clus>
<clus scale="  460.247">  4  5 -1 -1</clus>
<clus scale="  300.000">  1  4  2 -1</clus>
</clustering>
</event>
<event>
 6    1  0.9964252E-012  0.3000000E+03  0.7818608E-02  0.1093470E+00
          1   -1    0    0  502    0  0.00000000000E+00  0.00000000000E+00  0.22919945880E+03  0.22919945880E+03  0.00000000000E+00 0.  1.
         13   -1    0    0    0    0 -0.00000000000E+00 -0.00000000000E+00 -0.27500000000E+03  0.27500000000E+03  0.00000000000E+00 0.  1.
    9000005    2    1    2  501    0 -0.21003923620E+02  0.26557330211E+02 -0.43481381244E+02  0.47026076262E+03  0.46702044682E+03 0.  0.
         13    1    3    3    0    0 -0.12309004372E+03 -0.19004056077E+03 -0.44782584051E+02  0.23080739467E+03  0.00000000000E+00 0.  1.
          1    1    3    3  501    0  0.10208612010E+03  0.21659789098E+03  0.13012028063E+01  0.23945336795E+03  0.00000000000E+00 0.  1.
         21    1    1    2  502  501  0.21003923620E+02 -0.26557330211E+02 -0.23191599557E+01  0.33938696178E+02  0.00000000000E+00 0. -1.
<scales pt_clust_4="550.00000" pt_clust_5="550.00000" pt_clust_6="33.85936"></scales>
<mgrwt>
<rscale>  0 0.30000000E+03</rscale>
<asrwt>  1 0.33859365E+02</asrwt>
<pdfrwt beam="1">  1        1 0.83345258E+00 0.30000000E+03</pdfrwt>
<pdfrwt beam="2">0</pdfrwt>
<totfact> 0.55885779E-04</totfact>
</mgrwt>
<clustering>
<clus scale="   33.859">  1  6  2 -1</clus>
<clus scale="  467.020">  4  5 -1 -1</clus>
<clus scale="  300.000">  1  4  2 -1</clus>
</clustering>
</event>
<event>
 6    1  0.9964252E-012  0.3000000E+03  0.7818608E-02  0.1093470E+00
          1   -1    0    0  502    0  0.00000000000E+00  0.00000000000E+00  0.22060211499E+03  0.22060211499E+03  0.00000000000E+00 0.  1.
         13   -1    0    0    0    0 -0.00000000000E+00 -0.00000000000E+00 -0.27500000000E+03  0.27500000000E+03  0.00000000000E+00 0.  1.
    9000005    2    1    2  501    0  0.27771252553E+02  0.12724680713E+02 -0.57784427409E+02  0.46486730350E+03  0.46024929098E+03 0.  0.
         13    1    3    3    0    0  0.58485863404E+02  0.92365249922E+02  0.18090576832E+03  0.21137368007E+03  0.00000000000E+00 0.  1.
          1    1    3    3  501    0 -0.30714610852E+02 -0.79640569209E+02 -0.23869019573E+03  0.25349362344E+03  0.00000000000E+00 0.  1.
         21    1    1    2  502  501 -0.27771252553E+02 -0.12724680713E+02  0.33865423963E+01  0.30734811485E+02  0.00000000000E+00 0. -1.
<scales pt_clust_4="550.00000" pt_clust_5="550.00000" pt_clust_6="30.54767"></scales>
<mgrwt>
<rscale>  0 0.30000000E+03</rscale>
<asrwt>  1 0.30547667E+02</asrwt>
<pdfrwt beam="1">  1        1 0.80218951E+00 0.30000000E+03</pdfrwt>
<pdfrwt beam="2">0</pdfrwt>
<totfact> 0.10258862E-03</totfact>
</mgrwt>
<clustering>
<clus scale="   30.548">  1  6  2 -1</clus>
<clus scale="  460.249">  4  5 -1 -1</clus>
<clus scale="  300.000">  1  4  2 -1</clus>
</clustering>
</event>
<event>
 6    1  0.9964252E-012  0.3000000E+03  0.7818608E-02  0.1093470E+00
          1   -1    0    0  502    0  0.00000000000E+00  0.00000000000E+00  0.22710616978E+03  0.22710616978E+03  0.00000000000E+00 0.  1.
         13   -1    0    0    0    0 -0.00000000000E+00 -0.00000000000E+00 -0.27500000000E+03  0.27500000000E+03  0.00000000000E+00 0.  1.
    9000005    2    1    2  501    0 -0.18159668225E+02 -0.28424217552E+02 -0.53975410622E+02  0.46783234137E+03  0.46348251854E+03 0.  0.
         13    1    3    3    0    0 -0.18077073769E+03 -0.48886881828E+02 -0.18102814060E+03  0.26045954486E+03  0.00000000000E+00 0.  1.
          1    1    3    3  501    0  0.16261106946E+03  0.20462664276E+02  0.12705272997E+03  0.20737279652E+03  0.00000000000E+00 0.  1.
         21    1    1    2  502  501  0.18159668225E+02  0.28424217552E+02  0.60815804025E+01  0.34273828407E+02  0.00000000000E+00 0.  1.
<scales pt_clust_4="550.00000" pt_clust_5="550.00000" pt_clust_6="33.72995"></scales>
<mgrwt>
<rscale>  0 0.30000000E+03</rscale>
<asrwt>  1 0.33729952E+02</asrwt>
<pdfrwt beam="1">  1        1 0.82584062E+00 0.30000000E+03</pdfrwt>
<pdfrwt beam="2">0</pdfrwt>
<totfact> 0.64647351E-04</totfact>
</mgrwt>
<clustering>
<clus scale="   33.730">  1  6  2 -1</clus>
<clus scale="  463.483">  4  5 -1 -1</clus>
<clus scale="  300.000">  1  4  2 -1</clus>
</clustering>
</event>
<event>
 6    1  0.9964252E-012  0.3000000E+03  0.7818608E-02  0.1093470E+00
          1   -1    0    0  502    0  0.00000000000E+00  0.00000000000E+00  0.22088894942E+03  0.22088894942E+03  0.00000000000E+00 0.  1.
         13   -1    0    0    0    0 -0.00000000000E+00 -0.00000000000E+00 -0.27500000000E+03  0.27500000000E+03  0.00000000000E+00 0.  1.
    9000005    2    1    2  501    0 -0.18414719380E+02 -0.27368713201E+02 -0.60945117856E+02  0.46220137266E+03  0.45697664399E+03 0.  0.
         13    1    3    3    0    0  0.53280181188E+02 -0.23179906345E+03 -0.26541810357E+01  0.23785842050E+03  0.00000000000E+00 0.  1.
          1    1    3    3  501    0 -0.71694900568E+02  0.20443035025E+03 -0.58290936820E+02  0.22434295217E+03  0.00000000000E+00 0.  1.
         21    1    1    2  502  501  0.18414719380E+02  0.27368713201E+02  0.68340672743E+01  0.33687576755E+02  0.00000000000E+00 0. -1.
<scales pt_clust_4="550.00000" pt_clust_5="550.00000" pt_clust_6="32.98709"></scales>
<mgrwt>
<rscale>  0 0.30000000E+03</rscale>
<asrwt>  1 0.32987094E+02</asrwt>
<pdfrwt beam="1">  1        1 0.80323254E+00 0.30000000E+03</pdfrwt>
<pdfrwt beam="2">0</pdfrwt>
<totfact> 0.99333258E-04</totfact>
</mgrwt>
<clustering>
<clus scale="   32.987">  1  6  2 -1</clus>
<clus scale="  456.977">  4  5 -1 -1</clus>
<clus scale="  300.000">  1  4  2 -1</clus>
</clustering>
</event>
<event>
 6    1  0.9964252E-012  0.3000000E+03  0.7818608E-02  0.1093470E+00
          1   -1    0    0  502    0  0.00000000000E+00  0.00000000000E+00  0.24100409206E+03  0.24100409206E+03  0.00000000000E+00 0.  1.
         13   -1    0    0    0    0 -0.00000000000E+00 -0.00000000000E+00 -0.27500000000E+03  0.27500000000E+03  0.00000000000E+00 0.  1.
    9000005    2    1    2  501    0 -0.31029778091E+02 -0.71752594502E+01 -0.41662620757E+02  0.48324573493E+03  0.48039185555E+03 0.  0.
         13    1    3    3    0    0  0.82700163418E+02 -0.32245240267E+02  0.19788902805E+03  0.21688508472E+03  0.00000000000E+00 0.  1.
          3    1    3    3  501    0 -0.11372994151E+03  0.25069980817E+02 -0.23955164881E+03  0.26636065021E+03  0.00000000000E+00 0.  1.
         21    1    1    2  502  501  0.31029778091E+02  0.71752594502E+01  0.76667128172E+01  0.32758357132E+02  0.00000000000E+00 0. -1.
<scales pt_clust_4="550.00000" pt_clust_5="550.00000" pt_clust_6="31.84857"></scales>
<mgrwt>
<rscale>  0 0.30000000E+03</rscale>
<asrwt>  1 0.31848571E+02</asrwt>
<pdfrwt beam="1">  1        1 0.87637852E+00 0.30000000E+03</pdfrwt>
<pdfrwt beam="2">0</pdfrwt>
<totfact> 0.22129443E-04</totfact>
</mgrwt>
<clustering>
<clus scale="   31.849">  1  6  2 -1</clus>
<clus scale="  480.392">  4  5 -1 -1</clus>
<clus scale="  300.000">  1  4  2 -1</clus>
</clustering>
</event>
<event>
 6    1  0.9964252E-012  0.3000000E+03  0.7818608E-02  0.1093470E+00
          1   -1    0    0  502    0  0.00000000000E+00  0.00000000000E+00  0.23154172309E+03  0.23154172309E+03  0.00000000000E+00 0.  1.
         13   -1    0    0    0    0 -0.00000000000E+00 -0.00000000000E+00 -0.27500000000E+03  0.27500000000E+03  0.00000000000E+00 0.  1.
    9000005    2    1    2  501    0  0.16418786264E+02  0.28278360693E+02 -0.28611868426E+02  0.47062991346E+03  0.46861992511E+03 0.  0.
         13    1    3    3    0    0 -0.19103647825E+03 -0.10425759313E+03  0.23810017592E+02  0.21893263504E+03  0.00000000000E+00 0.  1.
          1    1    3    3  501    0  0.20745526452E+03  0.13253595382E+03 -0.52421886018E+02  0.25169727842E+03  0.00000000000E+00 0.  1.
         21    1    1    2  502  501 -0.16418786264E+02 -0.28278360693E+02 -0.14846408483E+02  0.35911809627E+02  0.00000000000E+00 0.  1.
<scales pt_clust_4="550.00000" pt_clust_5="550.00000" pt_clust_6="32.69929"></scales>
<mgrwt>
<rscale>  0 0.30000000E+03</rscale>
<asrwt>  1 0.32699286E+02</asrwt>
<pdfrwt beam="1">  1        1 0.84196990E+00 0.30000000E+03</pdfrwt>
<pdfrwt beam="2">0</pdfrwt>
<totfact> 0.48561475E-04</totfact>
</mgrwt>
<clustering>
<clus scale="   32.699">  1  6  2 -1</clus>
<clus scale="  468.620">  4  5 -1 -1</clus>
<clus scale="  300.000">  1  4  2 -1</clus>
</clustering>
</event>
<event>
 6    1  0.9964252E-012  0.3000000E+03  0.7818608E-02  0.1093470E+00
          1   -1    0    0  502    0  0.00000000000E+00  0.00000000000E+00  0.24904178933E+03  0.24904178933E+03  0.00000000000E+00 0.  1.
         13   -1    0    0    0    0 -0.00000000000E+00 -0.00000000000E+00 -0.27500000000E+03  0.27500000000E+03  0.00000000000E+00 0.  1.
    9000005    2    1    2  501    0  0.22027489388E+02  0.20700144176E+02 -0.42239284900E+02  0.48970842894E+03  0.48694607702E+03 0.  0.
         13    1    3    3    0    0 -0.11347081704E+03  0.11724845747E+03  0.15952664142E+03  0.22819197273E+03  0.00000000000E+00 0.  1.
          1    1    3    3  501    0  0.13549830643E+03 -0.96548313291E+02 -0.20176592632E+03  0.26151645620E+03  0.00000000000E+00 0.  1.
         21    1    1    2  502  501 -0.22027489388E+02 -0.20700144176E+02  0.16281074225E+02  0.34333360389E+02  0.00000000000E+00 0.  1.
<scales pt_clust_4="550.00000" pt_clust_5="550.00000" pt_clust_6="30.22757"></scales>
<mgrwt>
<rscale>  0 0.30000000E+03</rscale>
<asrwt>  1 0.30227574E+02</asrwt>
<pdfrwt beam="1">  1        1 0.90560651E+00 0.30000000E+03</pdfrwt>
<pdfrwt beam="2">0</pdfrwt>
<totfact> 0.92541236E-05</totfact>
</mgrwt>
<clustering>
<clus scale="   30.228">  1  6  2 -1</clus>
<clus scale="  486.946">  4  5 -1 -1</clus>
<clus scale="  300.000">  1  4  2 -1</clus>
</clustering>
</event>
<event>
 6    1  0.9964252E-012  0.3000000E+03  0.7818608E-02  0.1093470E+00
          1   -1    0    0  502    0  0.00000000000E+00  0.00000000000E+00  0.23754102640E+03  0.23754102640E+03  0.00000000000E+00 0.  1.
         13   -1    0    0    0    0 -0.00000000000E+00 -0.00000000000E+00 -0.27500000000E+03  0.27500000000E+03  0.00000000000E+00 0.  1.
    9000005    2    1    2  501    0  0.29926955492E+02  0.49571942318E+01 -0.51364499129E+02  0.47917097875E+03  0.47544328649E+03 0.  0.
         13    1    3    3    0    0  0.24163825300E+02  0.14695682021E+03 -0.21556590383E+03  0.26200926769E+03  0.00000000000E+00 0.  1.
          1    1    3    3  501    0  0.57631301927E+01 -0.14199962598E+03  0.16420140470E+03  0.21716171107E+03  0.00000000000E+00 0.  1.
         21    1    1    2  502  501 -0.29926955492E+02 -0.49571942318E+01  0.13905525525E+02  0.33370047645E+02  0.00000000000E+00 0. -1.
<scales pt_clust_4="550.00000" pt_clust_5="550.00000" pt_clust_6="30.33474"></scales>
<mgrwt>
<rscale>  0 0.30000000E+03</rscale>
<asrwt>  1 0.30334740E+02</asrwt>
<pdfrwt beam="1">  1        1 0.86378555E+00 0.30000000E+03</pdfrwt>
<pdfrwt beam="2">0</pdfrwt>
<totfact> 0.30255032E-04</totfact>
</mgrwt>
<clustering>
<clus scale="   30.335">  1  6  2 -1</clus>
<clus scale="  475.443">  4  5 -1 -1</clus>
<clus scale="  300.000">  1  4  2 -1</clus>
</clustering>
</event>
<event>
 6    1  0.9964252E-012  0.3000000E+03  0.7818608E-02  0.1093470E+00
          1   -1    0    0  502    0  0.00000000000E+00  0.00000000000E+00  0.23542917728E+03  0.23542917728E+03  0.00000000000E+00 0.  1.
         13   -1    0    0    0    0 -0.00000000000E+00 -0.00000000000E+00 -0.27500000000E+03  0.27500000000E+03  0.00000000000E+00 0.  1.
    9000005    2    1    2  501    0  0.37868148869E+01 -0.33023163873E+02 -0.61492988300E+02  0.47061145933E+03  0.46539111371E+03 0.  0.
         13    1    3    3    0    0  0.13909593410E+03  0.10799480378E+03 -0.17194801128E+03  0.24612329250E+03  0.00000000000E+00 0.  1.
          1    1    3    3  501    0 -0.13530911921E+03 -0.14101796766E+03  0.11045502298E+03  0.22448816683E+03  0.00000000000E+00 0.  1.
         21    1    1    2  502  501 -0.37868148869E+01  0.33023163873E+02  0.21922165582E+02  0.39817717953E+02  0.00000000000E+00 0. -1.
<scales pt_clust_4="550.00000" pt_clust_5="550.00000" pt_clust_6="33.23957"></scales>
<mgrwt>
<rscale>  0 0.30000000E+03</rscale>
<asrwt>  1 0.33239575E+02</asrwt>
<pdfrwt beam="1">  1        1 0.85610610E+00 0.30000000E+03</pdfrwt>
<pdfrwt beam="2">0</pdfrwt>
<totfact> 0.35861575E-04</totfact>
</mgrwt>
<clustering>
<clus scale="   33.240">  1  6  2 -1</clus>
<clus scale="  465.391">  4  5 -1 -1</clus>
<clus scale="  300.000">  1  4  2 -1</clus>
</clustering>
</event>
<event>
 6    1  0.9964252E-012  0.3000000E+03  0.7818608E-02  0.1093470E+00
          1   -1    0    0  502    0  0.00000000000E+00  0.00000000000E+00  0.22187553400E+03  0.22187553400E+03  0.00000000000E+00 0.  1.
         13   -1    0    0    0    0 -0.00000000000E+00 -0.00000000000E+00 -0.27500000000E+03  0.27500000000E+03  0.00000000000E+00 0.  1.
    9000005    2    1    2  501    0 -0.29420563125E+02 -0.74535270992E+01 -0.42790918309E+02  0.46481454823E+03  0.46184453765E+03 0.  0.
         13    1    3    3    0    0  0.17879006790E+03  0.11731545014E+03 -0.58114793685E+02  0.22159903534E+03  0.00000000000E+00 0.  1.
          3    1    3    3  501    0 -0.20821063102E+03 -0.12476897724E+03  0.15323875376E+02  0.24321551289E+03  0.00000000000E+00 0.  1.
         21    1    1    2  502  501  0.29420563125E+02  0.74535270992E+01 -0.10333547688E+02  0.32060985771E+02  0.00000000000E+00 0. -1.
<scales pt_clust_4="550.00000" pt_clust_5="550.00000" pt_clust_6="30.35005"></scales>
<mgrwt>
<rscale>  0 0.30000000E+03</rscale>
<asrwt>  1 0.30350050E+02</asrwt>
<pdfrwt beam="1">  1        1 0.80682012E+00 0.30000000E+03</pdfrwt>
<pdfrwt beam="2">0</pdfrwt>
<totfact> 0.94821629E-04</totfact>
</mgrwt>
<clustering>
<clus scale="   30.350">  1  6  2 -1</clus>
<clus scale="  461.845">  4  5 -1 -1</clus>
<clus scale="  300.000">  1  4  2 -1</clus>
</clustering>
</event>
<event>
 6    1  0.9964252E-012  0.3000000E+03  0.7818608E-02  0.1093470E+00
          1   -1    0    0  502    0  0.00000000000E+00  0.00000000000E+00  0.22738357995E+03  0.22738357995E+03  0.00000000000E+00 0.  1.
         13   -1    0    0    0    0 -0.00000000000E+00 -0.00000000000E+00 -0.27500000000E+03  0.27500000000E+03  0.00000000000E+00 0.  1.
    9000005    2    1    2  501    0  0.34395947697E+02  0.20444061350E+02 -0.51885523792E+02  0.46214347422E+03  0.45747507290E+03 0.  0.
         13    1    3    3    0    0  0.10782651584E+03 -0.52067584961E+02  0.17548769880E+03  0.21244651881E+03  0.00000000000E+00 0.  1.
          3    1    3    3  501    0 -0.73430568145E+02  0.72511646311E+02 -0.22737322260E+03  0.24969695541E+03  0.00000000000E+00 0.  1.
         21    1    1    2  502  501 -0.34395947697E+02 -0.20444061350E+02  0.42691037443E+01  0.40240105731E+02  0.00000000000E+00 0.  1.
<scales pt_clust_4="550.00000" pt_clust_5="550.00000" pt_clust_6="40.01301"></scales>
<mgrwt>
<rscale>  0 0.30000000E+03</rscale>
<asrwt>  1 0.40013009E+02</asrwt>
<pdfrwt beam="1">  1        1 0.82684938E+00 0.30000000E+03</pdfrwt>
<pdfrwt beam="2">0</pdfrwt>
<totfact> 0.61357736E-04</totfact>
</mgrwt>
<clustering>
<clus scale="   40.013">  1  6  2 -1</clus>
<clus scale="  457.475">  4  5 -1 -1</clus>
<clus scale="  300.000">  1  4  2 -1</clus>
</clustering>
</event>
<event>
 6    1  0.9964252E-012  0.3000000E+03  0.7818608E-02  0.1093470E+00
          1   -1    0    0  502    0  0.00000000000E+00  0.00000000000E+00  0.24505418311E+03  0.24505418311E+03  0.00000000000E+00 0.  1.
         13   -1    0    0    0    0 -0.00000000000E+00 -0.00000000000E+00 -0.27500000000E+03  0.27500000000E+03  0.00000000000E+00 0.  1.
    9000005    2    1    2  501    0  0.12539106445E+02 -0.32578508290E+02 -0.52068754455E+02  0.47872607210E+03  0.47460394913E+03 0.  0.
         13    1    3    3    0    0  0.21651514848E+03  0.53513226364E+02  0.59461835681E+02  0.23082067676E+03  0.00000000000E+00 0.  1.
          1    1    3    3  501    0 -0.20397604204E+03 -0.86091734654E+02 -0.11153059014E+03  0.24790539534E+03  0.00000000000E+00 0.  1.
         21    1    1    2  502  501 -0.12539106445E+02  0.32578508290E+02  0.22122937561E+02  0.41328111004E+02  0.00000000000E+00 0.  1.
<scales pt_clust_4="550.00000" pt_clust_5="550.00000" pt_clust_6="34.90829"></scales>
<mgrwt>
<rscale>  0 0.30000000E+03</rscale>
<asrwt>  1 0.34908285E+02</asrwt>
<pdfrwt beam="1">  1        1 0.89110612E+00 0.30000000E+03</pdfrwt>
<pdfrwt beam="2">0</pdfrwt>
<totfact> 0.14028172E-04</totfact>
</mgrwt>
<clustering>
<clus scale="   34.908">  1  6  2 -1</clus>
<clus scale="  474.604">  4  5 -1 -1</clus>
<clus scale="  300.000">  1  4  2 -1</clus>
</clustering>
</event>
<event>
 6    1  0.9964252E-012  0.3000000E+03  0.7818608E-02  0.1093470E+00
          1   -1    0    0  502    0  0.00000000000E+00  0.00000000000E+00  0.22600450305E+03  0.22600450305E+03  0.00000000000E+00 0.  1.
         13   -1    0    0    0    0 -0.00000000000E+00 -0.00000000000E+00 -0.27500000000E+03  0.27500000000E+03  0.00000000000E+00 0.  1.
    9000005    2    1    2  501    0 -0.32574901465E+02  0.20996116980E+01 -0.67121147025E+02  0.46366723259E+03  0.45762049957E+03 0.  0.
         13    1    3    3    0    0 -0.22205704609E+03 -0.15724473025E+02  0.65088489121E+02  0.23193340032E+03  0.00000000000E+00 0.  1.
          1    1    3    3  501    0  0.18948214462E+03  0.17824084723E+02 -0.13220963615E+03  0.23173383227E+03  0.00000000000E+00 0.  1.
         21    1    1    2  502  501  0.32574901465E+02 -0.20996116980E+01  0.18125650077E+02  0.37337270461E+02  0.00000000000E+00 0.  1.
<scales pt_clust_4="550.00000" pt_clust_5="550.00000" pt_clust_6="32.64250"></scales>
<mgrwt>
<rscale>  0 0.30000000E+03</rscale>
<asrwt>  1 0.32642496E+02</asrwt>
<pdfrwt beam="1">  1        1 0.82183456E+00 0.30000000E+03</pdfrwt>
<pdfrwt beam="2">0</pdfrwt>
<totfact> 0.70622497E-04</totfact>
</mgrwt>
<clustering>
<clus scale="   32.642">  1  6  2 -1</clus>
<clus scale="  457.620">  4  5 -1 -1</clus>
<clus scale="  300.000">  1  4  2 -1</clus>
</clustering>
</event>
<event>
 6    1  0.9964252E-012  0.3000000E+03  0.7818608E-02  0.1093470E+00
          1   -1    0    0  502    0  0.00000000000E+00  0.00000000000E+00  0.24095602400E+03  0.24095602400E+03  0.00000000000E+00 0.  1.
         13   -1    0    0    0    0 -0.00000000000E+00 -0.00000000000E+00 -0.27500000000E+03  0.27500000000E+03  0.00000000000E+00 0.  1.
    9000005    2    1    2  501    0 -0.12706475027E+02  0.28140828338E+02 -0.62571720007E+02  0.47391803041E+03  0.46875336657E+03 0.  0.
         13    1    3    3    0    0  0.13361878115E+03  0.15932915346E+02 -0.22047368600E+03  0.25829534004E+03  0.00000000000E+00 0.  1.
          3    1    3    3  501    0 -0.14632525618E+03  0.12207912992E+02  0.15790196599E+03  0.21562269037E+03  0.00000000000E+00 0.  1.
         21    1    1    2  502  501  0.12706475027E+02 -0.28140828338E+02  0.28527744003E+02  0.42037993590E+02  0.00000000000E+00 0.  1.
<scales pt_clust_4="550.00000" pt_clust_5="550.00000" pt_clust_6="30.87654"></scales>
<mgrwt>
<rscale>  0 0.30000000E+03</rscale>
<asrwt>  1 0.30876540E+02</asrwt>
<pdfrwt beam="1">  1        1 0.87620372E+00 0.30000000E+03</pdfrwt>
<pdfrwt beam="2">0</pdfrwt>
<totfact> 0.22358623E-04</totfact>
</mgrwt>
<clustering>
<clus scale="   30.877">  1  6  2 -1</clus>
<clus scale="  468.753">  4  5 -1 -1</clus>
<clus scale="  300.000">  1  4  2 -1</clus>
</clustering>
</event>
<event>
 6    1  0.9964252E-012  0.3000000E+03  0.7818608E-02  0.1093470E+00
          1   -1    0    0  502    0  0.00000000000E+00  0.00000000000E+00  0.22073486931E+03  0.22073486931E+03  0.00000000000E+00 0.  1.
         13   -1    0    0    0    0 -0.00000000000E+00 -0.00000000000E+00 -0.27500000000E+03  0.27500000000E+03  0.00000000000E+00 0.  1.
    9000005    2    1    2  501    0  0.10879992732E+02 -0.28698019542E+02 -0.53487367348E+02  0.46503380283E+03  0.46092688004E+03 0.  0.
         13    1    3    3    0    0 -0.21669800074E+03 -0.17278064805E+02  0.35774656634E+02  0.22030973902E+03  0.00000000000E+00 0.  1.
          3    1    3    3  501    0  0.22757799348E+03 -0.11419954737E+02 -0.89262023982E+02  0.24472406381E+03  0.00000000000E+00 0.  1.
         21    1    1    2  502  501 -0.10879992732E+02  0.28698019542E+02 -0.77776333838E+00  0.30701066485E+02  0.00000000000E+00 0. -1.
<scales pt_clust_4="550.00000" pt_clust_5="550.00000" pt_clust_6="30.69121"></scales>
<mgrwt>
<rscale>  0 0.30000000E+03</rscale>
<asrwt>  1 0.30691213E+02</asrwt>
<pdfrwt beam="1">  1        1 0.80267225E+00 0.30000000E+03</pdfrwt>
<pdfrwt beam="2">0</pdfrwt>
<totfact> 0.10166663E-03</totfact>
</mgrwt>
<clustering>
<clus scale="   30.691">  1  6  2 -1</clus>
<clus scale="  460.927">  4  5 -1 -1</clus>
<clus scale="  300.000">  1  4  2 -1</clus>
</clustering>
</event>
<event>
 6    1  0.9964252E-012  0.3000000E+03  0.7818608E-02  0.1093470E+00
          1   -1    0    0  502    0  0.00000000000E+00  0.00000000000E+00  0.25095655167E+03  0.25095655167E+03  0.00000000000E+00 0.  1.
         13   -1    0    0    0    0 -0.00000000000E+00 -0.00000000000E+00 -0.27500000000E+03  0.27500000000E+03  0.00000000000E+00 0.  1.
    9000005    2    1    2  501    0 -0.36606352822E+02 -0.80633841852E+01 -0.63139564984E+02  0.47179429942E+03  0.46604529079E+03 0.  0.
         13    1    3    3    0    0  0.10777174419E+03 -0.19959781265E+03 -0.16393718314E+02  0.22742644890E+03  0.00000000000E+00 0.  1.
          1    1    3    3  501    0 -0.14437809701E+03  0.19153442847E+03 -0.46745846670E+02  0.24436785052E+03  0.00000000000E+00 0.  1.
         21    1    1    2  502  501  0.36606352822E+02  0.80633841852E+01  0.39096116655E+02  0.54162252251E+02  0.00000000000E+00 0.  1.
<scales pt_clust_4="550.00000" pt_clust_5="550.00000" pt_clust_6="37.48391"></scales>
<mgrwt>
<rscale>  0 0.30000000E+03</rscale>
<asrwt>  1 0.37483906E+02</asrwt>
<pdfrwt beam="1">  1        1 0.91256928E+00 0.30000000E+03</pdfrwt>
<pdfrwt beam="2">0</pdfrwt>
<totfact> 0.61252597E-05</totfact>
</mgrwt>
<clustering>
<clus scale="   37.484">  1  6  2 -1</clus>
<clus scale="  466.045">  4  5 -1 -1</clus>
<clus scale="  300.000">  1  4  2 -1</clus>
</clustering>
</event>
<event>
 6    1  0.9964252E-012  0.3000000E+03  0.7818608E-02  0.1093470E+00
          1   -1    0    0  502    0  0.00000000000E+00  0.00000000000E+00  0.22977197180E+03  0.22977197180E+03  0.00000000000E+00 0.  1.
         13   -1    0    0    0    0 -0.00000000000E+00 -0.00000000000E+00 -0.27500000000E+03  0.27500000000E+03  0.00000000000E+00 0.  1.
    9000005    2    1    2  501    0  0.27948976432E+02 -0.15658116692E+02 -0.45879695457E+02  0.47272908535E+03  0.46940549611E+03 0.  0.
         13    1    3    3    0    0 -0.17988251636E+03 -0.13977798487E+03 -0.34347176802E+02  0.23038084405E+03  0.00000000000E+00 0.  1.
          1    1    3    3  501    0  0.20783149279E+03  0.12411986818E+03 -0.11532518656E+02  0.24234824130E+03  0.00000000000E+00 0.  1.
         21    1    1    2  502  501 -0.27948976432E+02  0.15658116692E+02  0.65166725396E+00  0.32042886451E+02  0.00000000000E+00 0.  1.
<scales pt_clust_4="550.00000" pt_clust_5="550.00000" pt_clust_6="32.03626"></scales>
<mgrwt>
<rscale>  0 0.30000000E+03</rscale>
<asrwt>  1 0.32036259E+02</asrwt>
<pdfrwt beam="1">  1        1 0.83553444E+00 0.30000000E+03</pdfrwt>
<pdfrwt beam="2">0</pdfrwt>
<totfact> 0.54518359E-04</totfact>
</mgrwt>
<clustering>
<clus scale="   32.036">  1  6  2 -1</clus>
<clus scale="  469.405">  4  5 -1 -1</clus>
<clus scale="  300.000">  1  4  2 -1</clus>
</clustering>
</event>
<event>
 6    1  0.9964252E-012  0.3000000E+03  0.7818608E-02  0.1093470E+00
          1   -1    0    0  502    0  0.00000000000E+00  0.00000000000E+00  0.23467128369E+03  0.23467128369E+03  0.00000000000E+00 0.  1.
         13   -1    0    0    0    0 -0.00000000000E+00 -0.00000000000E+00 -0.27500000000E+03  0.27500000000E+03  0.00000000000E+00 0.  1.
    9000005    2    1    2  501    0 -0.64981314110E+01  0.30892530015E+02 -0.64248658525E+02  0.47006398943E+03  0.46458119841E+03 0.  0.
         13    1    3    3    0    0  0.45595516068E+02  0.21581211675E+03  0.74792235777E+02  0.23291135514E+03  0.00000000000E+00 0.  1.
          1    1    3    3  501    0 -0.52093647479E+02 -0.18491958673E+03 -0.13904089430E+03  0.23715263430E+03  0.00000000000E+00 0.  1.
         21    1    1    2  502  501  0.64981314110E+01 -0.30892530015E+02  0.23919942210E+02  0.39607294251E+02  0.00000000000E+00 0.  1.
<scales pt_clust_4="550.00000" pt_clust_5="550.00000" pt_clust_6="31.56856"></scales>
<mgrwt>
<rscale>  0 0.30000000E+03</rscale>
<asrwt>  1 0.31568562E+02</asrwt>
<pdfrwt beam="1">  1        1 0.85335012E+00 0.30000000E+03</pdfrwt>
<pdfrwt beam="2">0</pdfrwt>
<totfact> 0.38554956E-04</totfact>
</mgrwt>
<clustering>
<clus scale="   31.569">  1  6  2 -1</clus>
<clus scale="  464.581">  4  5 -1 -1</clus>
<clus scale="  300.000">  1  4  2 -1</clus>
</clustering>
</event>
<event>
 6    1  0.9964252E-012  0.3000000E+03  0.7818608E-02  0.1093470E+00
          1   -1    0    0  502    0  0.00000000000E+00  0.00000000000E+00  0.22049532369E+03  0.22049532369E+03  0.00000000000E+00 0.  1.
         13   -1    0    0    0    0 -0.00000000000E+00 -0.00000000000E+00 -0.27500000000E+03  0.27500000000E+03  0.00000000000E+00 0.  1.
    9000005    2    1    2  501    0 -0.81641454010E+01  0.29333452529E+02 -0.54768553388E+02  0.46504578612E+03  0.46080460505E+03 0.  0.
         13    1    3    3    0    0  0.83216228854E+02 -0.18661348160E+03 -0.97992140264E+02  0.22660977872E+03  0.00000000000E+00 0.  1.
          3    1    3    3  501    0 -0.91380374255E+02  0.21594693413E+03  0.43223586876E+02  0.23843600739E+03  0.00000000000E+00 0.  1.
         21    1    1    2  502  501  0.81641454010E+01 -0.29333452529E+02  0.26387708046E+00  0.30449537575E+02  0.00000000000E+00 0.  1.
<scales pt_clust_4="550.00000" pt_clust_5="550.00000" pt_clust_6="30.44839"></scales>
<mgrwt>
<rscale>  0 0.30000000E+03</rscale>
<asrwt>  1 0.30448394E+02</asrwt>
<pdfrwt beam="1">  1        1 0.80180118E+00 0.30000000E+03</pdfrwt>
<pdfrwt beam="2">0</pdfrwt>
<totfact> 0.10332382E-03</totfact>
</mgrwt>
<clustering>
<clus scale="   30.448">  1  6  2 -1</clus>
<clus scale="  460.805">  4  5 -1 -1</clus>
<clus scale="  300.000">  1  4  2 -1</clus>
</clustering>
</event>
<event>
 6    1  0.9964252E-012  0.3000000E+03  0.7818608E-02  0.1093470E+00
          1   -1    0    0  502    0  0.00000000000E+00  0.00000000000E+00  0.24133564999E+03  0.24133564999E+03  0.00000000000E+00 0.  1.
         13   -1    0    0    0    0 -0.00000000000E+00 -0.00000000000E+00 -0.27500000000E+03  0.27500000000E+03  0.00000000000E+00 0.  1.
    9000005    2    1    2  501    0 -0.22672851800E+01  0.36832894815E+02 -0.49466974160E+02  0.47619183786E+03  0.47217568996E+03 0.  0.
         13    1    3    3    0    0  0.20974709960E+03  0.40222878720E+02  0.79643182731E+02  0.22793587326E+03  0.00000000000E+00 0.  1.
          3    1    3    3  501    0 -0.21201438478E+03 -0.33899839054E+01 -0.12911015689E+03  0.24825596460E+03  0.00000000000E+00 0.  1.
         21    1    1    2  502  501  0.22672851800E+01 -0.36832894815E+02  0.15802624148E+02  0.40143812132E+02  0.00000000000E+00 0. -1.
<scales pt_clust_4="550.00000" pt_clust_5="550.00000" pt_clust_6="36.90261"></scales>
<mgrwt>
<rscale>  0 0.30000000E+03</rscale>
<asrwt>  1 0.36902611E+02</asrwt>
<pdfrwt beam="1">  1        1 0.87758418E+00 0.30000000E+03</pdfrwt>
<pdfrwt beam="2">0</pdfrwt>
<totfact> 0.20872160E-04</totfact>
</mgrwt>
<clustering>
<clus scale="   36.903">  1  6  2 -1</clus>
<clus scale="  472.176">  4  5 -1 -1</clus>
<clus scale="  300.000">  1  4  2 -1</clus>
</clustering>
</event>
<event>
 6    1  0.9964252E-012  0.3000000E+03  0.7818608E-02  0.1093470E+00
          1   -1    0    0  502    0  0.00000000000E+00  0.00000000000E+00  0.24318475000E+03  0.24318475000E+03  0.00000000000E+00 0.  1.
         13   -1    0    0    0    0 -0.00000000000E+00 -0.00000000000E+00 -0.27500000000E+03  0.27500000000E+03  0.00000000000E+00 0.  1.
    9000005    2    1    2  501    0  0.22707020544E+02  0.29384677471E+02 -0.62331480125E+02  0.47011908291E+03  0.46448645906E+03 0.  0.
         13    1    3    3    0    0  0.10298036298E+03  0.22550517057E+03 -0.71489906549E+02  0.25800841818E+03  0.00000000000E+00 0.  1.
          1    1    3    3  501    0 -0.80273342432E+02 -0.19612049310E+03  0.91584264237E+01  0.21211066473E+03  0.00000000000E+00 0.  1.
         21    1    1    2  502  501 -0.22707020544E+02 -0.29384677471E+02  0.30516230129E+02  0.48065667096E+02  0.00000000000E+00 0.  1.
<scales pt_clust_4="550.00000" pt_clust_5="550.00000" pt_clust_6="37.13581"></scales>
<mgrwt>
<rscale>  0 0.30000000E+03</rscale>
<asrwt>  1 0.37135806E+02</asrwt>
<pdfrwt beam="1">  1        1 0.88430818E+00 0.30000000E+03</pdfrwt>
<pdfrwt beam="2">0</pdfrwt>
<totfact> 0.17153711E-04</totfact>
</mgrwt>
<clustering>
<clus scale="   37.136">  1  6  2 -1</clus>
<clus scale="  464.486">  4  5 -1 -1</clus>
<clus scale="  300.000">  1  4  2 -1</clus>
</clustering>
</event>
<event>
 6    1  0.9964252E-012  0.3000000E+03  0.7818608E-02  0.1093470E+00
          1   -1    0    0  502    0  0.00000000000E+00  0.00000000000E+00  0.23324880765E+03  0.23324880765E+03  0.00000000000E+00 0.  1.
         13   -1    0    0    0    0 -0.00000000000E+00 -0.00000000000E+00 -0.27500000000E+03  0.27500000000E+03  0.00000000000E+00 0.  1.
    9000005    2    1    2  501    0 -0.78827895266E+01 -0.32631049205E+02 -0.60390643912E+02  0.46985150439E+03  0.46474345887E+03 0.  0.
         13    1    3    3    0    0 -0.11091034721E+03  0.16039356757E+03  0.79025545150E+02  0.21040969185E+03  0.00000000000E+00 0.  1.
          3    1    3    3  501    0  0.10302755768E+03 -0.19302461678E+03 -0.13941618906E+03  0.25944181254E+03  0.00000000000E+00 0.  1.
         21    1    1    2  502  501  0.78827895266E+01  0.32631049205E+02  0.18639451558E+02  0.38397303256E+02  0.00000000000E+00 0.  1.
<scales pt_clust_4="550.00000" pt_clust_5="550.00000" pt_clust_6="33.56968"></scales>
<mgrwt>
<rscale>  0 0.30000000E+03</rscale>
<asrwt>  1 0.33569685E+02</asrwt>
<pdfrwt beam="1">  1        1 0.84817748E+00 0.30000000E+03</pdfrwt>
<pdfrwt beam="2">0</pdfrwt>
<totfact> 0.42647745E-04</totfact>
</mgrwt>
<clustering>
<clus scale="   33.570">  1  6  2 -1</clus>
<clus scale="  464.743">  4  5 -1 -1</clus>
<clus scale="  300.000">  1  4  2 -1</clus>
</clustering>
</event>
<event>
 6    1  0.9964252E-012  0.3000000E+03  0.7818608E-02  0.1093470E+00
          1   -1    0    0  502    0  0.00000000000E+00  0.00000000000E+00  0.22481356767E+03  0.22481356767E+03  0.00000000000E+00 0.  1.
         13   -1    0    0    0    0 -0.00000000000E+00 -0.00000000000E+00 -0.27500000000E+03  0.27500000000E+03  0.00000000000E+00 0.  1.
    9000005    2    1    2  501    0 -0.30052974684E+02 -0.34958016395E+01 -0.69042329792E+02  0.46416322706E+03  0.45800137133E+03 0.  0.
         13    1    3    3    0    0  0.52595487034E+02 -0.21770905678E+03 -0.69670774679E+02  0.23455817083E+03  0.00000000000E+00 0.  1.
          3    1    3    3  501    0 -0.82648461719E+02  0.21421325514E+03  0.62844488687E+00  0.22960505623E+03  0.00000000000E+00 0.  1.
         21    1    1    2  502  501  0.30052974684E+02  0.34958016395E+01  0.18855897463E+02  0.35650340610E+02  0.00000000000E+00 0.  1.
<scales pt_clust_4="550.00000" pt_clust_5="550.00000" pt_clust_6="30.25561"></scales>
<mgrwt>
<rscale>  0 0.30000000E+03</rscale>
<asrwt>  1 0.30255610E+02</asrwt>
<pdfrwt beam="1">  1        1 0.81750388E+00 0.30000000E+03</pdfrwt>
<pdfrwt beam="2">0</pdfrwt>
<totfact> 0.78066236E-04</totfact>
</mgrwt>
<clustering>
<clus scale="   30.256">  1  6  2 -1</clus>
<clus scale="  458.001">  4  5 -1 -1</clus>
<clus scale="  300.000">  1  4  2 -1</clus>
</clustering>
</event>
<event>
 6    1  0.9964252E-012  0.3000000E+03  0.7818608E-02  0.1093470E+00
          1   -1    0    0  502    0  0.00000000000E+00  0.00000000000E+00  0.24340139832E+03  0.24340139832E+03  0.00000000000E+00 0.  1.
         13   -1    0    0    0    0 -0.00000000000E+00 -0.00000000000E+00 -0.27500000000E+03  0.27500000000E+03  0.00000000000E+00 0.  1.
    9000005    2    1    2  501    0  0.26542068486E+02  0.14511662060E+02 -0.22426908310E+02  0.48679143637E+03  0.48533273800E+03 0.  0.
         13    1    3    3    0    0 -0.22380301866E+03 -0.45521194600E+02 -0.20953797008E+02  0.22934478832E+03  0.00000000000E+00 0.  1.
          3    1    3    3  501    0  0.25034508715E+03  0.60032856660E+02 -0.14731113023E+01  0.25744664805E+03  0.00000000000E+00 0.  1.
         21    1    1    2  502  501 -0.26542068486E+02 -0.14511662060E+02 -0.91716933707E+01  0.31609961951E+02  0.00000000000E+00 0. -1.
<scales pt_clust_4="550.00000" pt_clust_5="550.00000" pt_clust_6="30.25013"></scales>
<mgrwt>
<rscale>  0 0.30000000E+03</rscale>
<asrwt>  1 0.30250135E+02</asrwt>
<pdfrwt beam="1">  1        1 0.88509599E+00 0.30000000E+03</pdfrwt>
<pdfrwt beam="2">0</pdfrwt>
<totfact> 0.17393930E-04</totfact>
</mgrwt>
<clustering>
<clus scale="   30.250">  1  6  2 -1</clus>
<clus scale="  485.333">  4  5 -1 -1</clus>
<clus scale="  300.000">  1  4  2 -1</clus>
</clustering>
</event>
<event>
 6    1  0.9964252E-012  0.3000000E+03  0.7818608E-02  0.1093470E+00
          1   -1    0    0  502    0  0.00000000000E+00  0.00000000000E+00  0.23090476252E+03  0.23090476252E+03  0.00000000000E+00 0.  1.
         13   -1    0    0    0    0 -0.00000000000E+00 -0.00000000000E+00 -0.27500000000E+03  0.27500000000E+03  0.00000000000E+00 0.  1.
    9000005    2    1    2  501    0 -0.13002894705E+02  0.29076632866E+02 -0.55197491389E+02  0.47217368054E+03  0.46785328437E+03 0.  0.
         13    1    3    3    0    0 -0.59970110744E+02 -0.93205351345E+02 -0.22907399540E+03  0.25447700696E+03  0.00000000000E+00 0.  1.
          1    1    3    3  501    0  0.46967216039E+02  0.12228198421E+03  0.17387650401E+03  0.21769667359E+03  0.00000000000E+00 0.  1.
         21    1    1    2  502  501  0.13002894705E+02 -0.29076632866E+02  0.11102253910E+02  0.33731081978E+02  0.00000000000E+00 0.  1.
<scales pt_clust_4="550.00000" pt_clust_5="550.00000" pt_clust_6="31.85162"></scales>
<mgrwt>
<rscale>  0 0.30000000E+03</rscale>
<asrwt>  1 0.31851622E+02</asrwt>
<pdfrwt beam="1">  1        1 0.83965368E+00 0.30000000E+03</pdfrwt>
<pdfrwt beam="2">0</pdfrwt>
<totfact> 0.50905023E-04</totfact>
</mgrwt>
<clustering>
<clus scale="   31.852">  1  6  2 -1</clus>
<clus scale="  467.853">  4  5 -1 -1</clus>
<clus scale="  300.000">  1  4  2 -1</clus>
</clustering>
</event>
<event>
 6    1  0.9964252E-012  0.3000000E+03  0.7818608E-02  0.1093470E+00
          1   -1    0    0  502    0  0.00000000000E+00  0.00000000000E+00  0.22396283958E+03  0.22396283958E+03  0.00000000000E+00 0.  1.
         13   -1    0    0    0    0 -0.00000000000E+00 -0.00000000000E+00 -0.27500000000E+03  0.27500000000E+03  0.00000000000E+00 0.  1.
    9000005    2    1    2  501    0  0.34113718046E+02 -0.81940489442E+01 -0.54186582945E+02  0.46373774825E+03  0.45922284915E+03 0.  0.
         13    1    3    3    0    0  0.95922233734E+02 -0.14979171490E+03 -0.18838740796E+03  0.25909158276E+03  0.00000000000E+00 0.  1.
          3    1    3    3  501    0 -0.61808515689E+02  0.14159766596E+03  0.13420082501E+03  0.20464616549E+03  0.00000000000E+00 0.  1.
         21    1    1    2  502  501 -0.34113718046E+02  0.81940489442E+01  0.31494225242E+01  0.35225091330E+02  0.00000000000E+00 0.  1.
<scales pt_clust_4="550.00000" pt_clust_5="550.00000" pt_clust_6="35.08402"></scales>
<mgrwt>
<rscale>  0 0.30000000E+03</rscale>
<asrwt>  1 0.35084016E+02</asrwt>
<pdfrwt beam="1">  1        1 0.81441033E+00 0.30000000E+03</pdfrwt>
<pdfrwt beam="2">0</pdfrwt>
<totfact> 0.80444461E-04</totfact>
</mgrwt>
<clustering>
<clus scale="   35.084">  1  6  2 -1</clus>
<clus scale="  459.223">  4  5 -1 -1</clus>
<clus scale="  300.000">  1  4  2 -1</clus>
</clustering>
</event>
<event>
 6    1  0.9964252E-012  0.3000000E+03  0.7818608E-02  0.1093470E+00
          1   -1    0    0  502    0  0.00000000000E+00  0.00000000000E+00  0.23575797665E+03  0.23575797665E+03  0.00000000000E+00 0.  1.
         13   -1    0    0    0    0 -0.00000000000E+00 -0.00000000000E+00 -0.27500000000E+03  0.27500000000E+03  0.00000000000E+00 0.  1.
    9000005    2    1    2  501    0  0.20595124822E+02 -0.33243666935E+02 -0.29757131202E+02  0.47051790040E+03  0.46794476937E+03 0.  0.
         13    1    3    3    0    0 -0.16468134968E+03 -0.13471368400E+03  0.86177542433E+02  0.22955237400E+03  0.00000000000E+00 0.  1.
          3    1    3    3  501    0  0.18527647450E+03  0.10147001706E+03 -0.11593467363E+03  0.24096552641E+03  0.00000000000E+00 0.  1.
         21    1    1    2  502  501 -0.20595124822E+02  0.33243666935E+02 -0.94848921463E+01  0.40240076252E+02  0.00000000000E+00 0.  1.
<scales pt_clust_4="550.00000" pt_clust_5="550.00000" pt_clust_6="39.10629"></scales>
<mgrwt>
<rscale>  0 0.30000000E+03</rscale>
<asrwt>  1 0.39106292E+02</asrwt>
<pdfrwt beam="1">  1        1 0.85730173E+00 0.30000000E+03</pdfrwt>
<pdfrwt beam="2">0</pdfrwt>
<totfact> 0.33827364E-04</totfact>
</mgrwt>
<clustering>
<clus scale="   39.106">  1  6  2 -1</clus>
<clus scale="  467.945">  4  5 -1 -1</clus>
<clus scale="  300.000">  1  4  2 -1</clus>
</clustering>
</event>
<event>
 6    1  0.9964252E-012  0.3000000E+03  0.7818608E-02  0.1093470E+00
          1   -1    0    0  502    0  0.00000000000E+00  0.00000000000E+00  0.23453091769E+03  0.23453091769E+03  0.00000000000E+00 0.  1.
         13   -1    0    0    0    0 -0.00000000000E+00 -0.00000000000E+00 -0.27500000000E+03  0.27500000000E+03  0.00000000000E+00 0.  1.
    9000005    2    1    2  501    0  0.30135037243E+02  0.80749754704E+01 -0.58881180474E+02  0.47330480753E+03  0.46859056939E+03 0.  0.
         13    1    3    3    0    0  0.12081460276E+03  0.21329352840E+03 -0.36404571972E+02  0.24782169065E+03  0.00000000000E+00 0.  1.
          3    1    3    3  501    0 -0.90679565521E+02 -0.20521855293E+03 -0.22476608501E+02  0.22548311688E+03  0.00000000000E+00 0.  1.
         21    1    1    2  502  501 -0.30135037243E+02 -0.80749754704E+01  0.18412098165E+02  0.36226110160E+02  0.00000000000E+00 0.  1.
<scales pt_clust_4="550.00000" pt_clust_5="550.00000" pt_clust_6="31.19817"></scales>
<mgrwt>
<rscale>  0 0.30000000E+03</rscale>
<asrwt>  1 0.31198168E+02</asrwt>
<pdfrwt beam="1">  1        1 0.85283970E+00 0.30000000E+03</pdfrwt>
<pdfrwt beam="2">0</pdfrwt>
<totfact> 0.39083087E-04</totfact>
</mgrwt>
<clustering>
<clus scale="   31.198">  1  6  2 -1</clus>
<clus scale="  468.591">  4  5 -1 -1</clus>
<clus scale="  300.000">  1  4  2 -1</clus>
</clustering>
</event>
<event>
 6    1  0.9964252E-012  0.3000000E+03  0.7818608E-02  0.1093470E+00
          1   -1    0    0  502    0  0.00000000000E+00  0.00000000000E+00  0.22238084564E+03  0.22238084564E+03  0.00000000000E+00 0.  1.
         13   -1    0    0    0    0 -0.00000000000E+00 -0.00000000000E+00 -0.27500000000E+03  0.27500000000E+03  0.00000000000E+00 0.  1.
    9000005    2    1    2  501    0  0.98436465277E+01 -0.30448116499E+02 -0.46417213224E+02  0.46478561210E+03  0.46135357629E+03 0.  0.
         13    1    3    3    0    0 -0.16874838924E+03 -0.14764439115E+03 -0.98521252489E+02  0.24491084561E+03  0.00000000000E+00 0.  1.
          3    1    3    3  501    0  0.17859203577E+03  0.11719627465E+03  0.52104039265E+02  0.21987476649E+03  0.00000000000E+00 0.  1.
         21    1    1    2  502  501 -0.98436465277E+01  0.30448116499E+02 -0.62019411399E+01  0.32595233535E+02  0.00000000000E+00 0.  1.
<scales pt_clust_4="550.00000" pt_clust_5="550.00000" pt_clust_6="31.99978"></scales>
<mgrwt>
<rscale>  0 0.30000000E+03</rscale>
<asrwt>  1 0.31999784E+02</asrwt>
<pdfrwt beam="1">  1        1 0.80865762E+00 0.30000000E+03</pdfrwt>
<pdfrwt beam="2">0</pdfrwt>
<totfact> 0.90856619E-04</totfact>
</mgrwt>
<clustering>
<clus scale="   32.000">  1  6  2 -1</clus>
<clus scale="  461.354">  4  5 -1 -1</clus>
<clus scale="  300.000">  1  4  2 -1</clus>
</clustering>
</event>
<event>
 6    1  0.9964252E-012  0.3000000E+03  0.7818608E-02  0.1093470E+00
          1   -1    0    0  502    0  0.00000000000E+00  0.00000000000E+00  0.23722253121E+03  0.23722253121E+03  0.00000000000E+00 0.  1.
         13   -1    0    0    0    0 -0.00000000000E+00 -0.00000000000E+00 -0.27500000000E+03  0.27500000000E+03  0.00000000000E+00 0.  1.
    9000005    2    1    2  501    0  0.77812918413E+01 -0.30379230381E+02 -0.47562285794E+02  0.47937152232E+03  0.47597420018E+03 0.  0.
         13    1    3    3    0    0  0.16477030932E+03  0.43337405223E+02  0.14247073589E+03  0.22209298978E+03  0.00000000000E+00 0.  1.
          3    1    3    3  501    0 -0.15698901748E+03 -0.73716635605E+02 -0.19003302169E+03  0.25727853254E+03  0.00000000000E+00 0.  1.
         21    1    1    2  502  501 -0.77812918413E+01  0.30379230381E+02  0.97848170048E+01  0.32851008890E+02  0.00000000000E+00 0.  1.
<scales pt_clust_4="550.00000" pt_clust_5="550.00000" pt_clust_6="31.35994"></scales>
<mgrwt>
<rscale>  0 0.30000000E+03</rscale>
<asrwt>  1 0.31359945E+02</asrwt>
<pdfrwt beam="1">  1        1 0.86262739E+00 0.30000000E+03</pdfrwt>
<pdfrwt beam="2">0</pdfrwt>
<totfact> 0.30943146E-04</totfact>
</mgrwt>
<clustering>
<clus scale="   31.360">  1  6  2 -1</clus>
<clus scale="  475.974">  4  5 -1 -1</clus>
<clus scale="  300.000">  1  4  2 -1</clus>
</clustering>
</event>
<event>
 6    1  0.9964252E-012  0.3000000E+03  0.7818608E-02  0.1093470E+00
          1   -1    0    0  502    0  0.00000000000E+00  0.00000000000E+00  0.25491392623E+03  0.25491392623E+03  0.00000000000E+00 0.  1.
         13   -1    0    0    0    0 -0.00000000000E+00 -0.00000000000E+00 -0.27500000000E+03  0.27500000000E+03  0.00000000000E+00 0.  1.
    9000005    2    1    2  501    0 -0.38110699859E+02  0.73589751938E+01 -0.30034833467E+02  0.48984451421E+03  0.48737970508E+03 0.  0.
         13    1    3    3    0    0 -0.86004875266E+02 -0.21919335664E+03 -0.87612446117E+02  0.25123396840E+03  0.00000000000E+00 0.  1.
          1    1    3    3  501    0  0.47894175406E+02  0.22655233183E+03  0.57577612651E+02  0.23861054581E+03  0.00000000000E+00 0.  1.
         21    1    1    2  502  501  0.38110699859E+02 -0.73589751938E+01  0.99487596927E+01  0.40069412013E+02  0.00000000000E+00 0. -1.
<scales pt_clust_4="550.00000" pt_clust_5="550.00000" pt_clust_6="38.81469"></scales>
<mgrwt>
<rscale>  0 0.30000000E+03</rscale>
<asrwt>  1 0.38814687E+02</asrwt>
<pdfrwt beam="1">  1        1 0.92695973E+00 0.30000000E+03</pdfrwt>
<pdfrwt beam="2">0</pdfrwt>
<totfact> 0.29313622E-05</totfact>
</mgrwt>
<clustering>
<clus scale="   38.815">  1  6  2 -1</clus>
<clus scale="  487.380">  4  5 -1 -1</clus>
<clus scale="  300.000">  1  4  2 -1</clus>
</clustering>
</event>
<event>
 6    1  0.9964252E-012  0.3000000E+03  0.7818608E-02  0.1093470E+00
          1   -1    0    0  502    0  0.00000000000E+00  0.00000000000E+00  0.23433533341E+03  0.23433533341E+03  0.00000000000E+00 0.  1.
         13   -1    0    0    0    0 -0.00000000000E+00 -0.00000000000E+00 -0.27500000000E+03  0.27500000000E+03  0.00000000000E+00 0.  1.
    9000005    2    1    2  501    0 -0.26230940467E+02  0.19869119916E+02 -0.63823856931E+02  0.46909614528E+03  0.46356754054E+03 0.  0.
         13    1    3    3    0    0  0.21272932996E+03 -0.38387177604E+02 -0.51057085549E+01  0.21622537198E+03  0.00000000000E+00 0.  1.
          3    1    3    3  501    0 -0.23896027042E+03  0.58256297520E+02 -0.58718148377E+02  0.25287077330E+03  0.00000000000E+00 0.  1.
         21    1    1    2  502  501  0.26230940467E+02 -0.19869119916E+02  0.23159190346E+02  0.40239188132E+02  0.00000000000E+00 0.  1.
<scales pt_clust_4="550.00000" pt_clust_5="550.00000" pt_clust_6="32.90660"></scales>
<mgrwt>
<rscale>  0 0.30000000E+03</rscale>
<asrwt>  1 0.32906598E+02</asrwt>
<pdfrwt beam="1">  1        1 0.85212849E+00 0.30000000E+03</pdfrwt>
<pdfrwt beam="2">0</pdfrwt>
<totfact> 0.39302758E-04</totfact>
</mgrwt>
<clustering>
<clus scale="   32.907">  1  6  2 -1</clus>
<clus scale="  463.568">  4  5 -1 -1</clus>
<clus scale="  300.000">  1  4  2 -1</clus>
</clustering>
</event>
<event>
 6    1  0.9964252E-012  0.3000000E+03  0.7818608E-02  0.1093470E+00
          1   -1    0    0  502    0  0.00000000000E+00  0.00000000000E+00  0.23033343791E+03  0.23033343791E+03  0.00000000000E+00 0.  1.
         13   -1    0    0    0    0 -0.00000000000E+00 -0.00000000000E+00 -0.27500000000E+03  0.27500000000E+03  0.00000000000E+00 0.  1.
    9000005    2    1    2  501    0  0.42647018008E+02 -0.71915778104E+00 -0.35096940573E+02  0.46162001905E+03  0.45830335087E+03 0.  0.
         13    1    3    3    0    0  0.14029950132E+03 -0.12103872443E+03 -0.17350504272E+03  0.25384704594E+03  0.00000000000E+00 0.  1.
          3    1    3    3  501    0 -0.97652483313E+02  0.12031956664E+03  0.13840810215E+03  0.20777297311E+03  0.00000000000E+00 0.  1.
         21    1    1    2  502  501 -0.42647018008E+02  0.71915778104E+00 -0.95696215130E+01  0.43713418864E+02  0.00000000000E+00 0. -1.
<scales pt_clust_4="550.00000" pt_clust_5="550.00000" pt_clust_6="42.65310"></scales>
<mgrwt>
<rscale>  0 0.30000000E+03</rscale>
<asrwt>  1 0.42653102E+02</asrwt>
<pdfrwt beam="1">  1        1 0.83757614E+00 0.30000000E+03</pdfrwt>
<pdfrwt beam="2">0</pdfrwt>
<totfact> 0.49967792E-04</totfact>
</mgrwt>
<clustering>
<clus scale="   42.653">  1  6  2 -1</clus>
<clus scale="  458.303">  4  5 -1 -1</clus>
<clus scale="  300.000">  1  4  2 -1</clus>
</clustering>
</event>
<event>
 6    1  0.9964252E-012  0.3000000E+03  0.7818608E-02  0.1093470E+00
          1   -1    0    0  502    0  0.00000000000E+00  0.00000000000E+00  0.23787220729E+03  0.23787220729E+03  0.00000000000E+00 0.  1.
         13   -1    0    0    0    0 -0.00000000000E+00 -0.00000000000E+00 -0.27500000000E+03  0.27500000000E+03  0.00000000000E+00 0.  1.
    9000005    2    1    2  501    0  0.16765726804E+02  0.33742664960E+02 -0.28187408357E+02  0.47414769946E+03  0.47180700915E+03 0.  0.
         13    1    3    3    0    0  0.22323255568E+03  0.11465553697E+03 -0.26855200065E+02  0.25238832748E+03  0.00000000000E+00 0.  1.
          3    1    3    3  501    0 -0.20646682888E+03 -0.80912872013E+02 -0.13322082921E+01  0.22175937199E+03  0.00000000000E+00 0.  1.
         21    1    1    2  502  501 -0.16765726804E+02 -0.33742664960E+02 -0.89403843544E+01  0.38724507825E+02  0.00000000000E+00 0.  1.
<scales pt_clust_4="550.00000" pt_clust_5="550.00000" pt_clust_6="37.67836"></scales>
<mgrwt>
<rscale>  0 0.30000000E+03</rscale>
<asrwt>  1 0.37678355E+02</asrwt>
<pdfrwt beam="1">  1        1 0.86498984E+00 0.30000000E+03</pdfrwt>
<pdfrwt beam="2">0</pdfrwt>
<totfact> 0.28188482E-04</totfact>
</mgrwt>
<clustering>
<clus scale="   37.678">  1  6  2 -1</clus>
<clus scale="  471.807">  4  5 -1 -1</clus>
<clus scale="  300.000">  1  4  2 -1</clus>
</clustering>
</event>
<event>
 6    1  0.9964252E-012  0.3000000E+03  0.7818608E-02  0.1093470E+00
          1   -1    0    0  502    0  0.00000000000E+00  0.00000000000E+00  0.22331719146E+03  0.22331719146E+03  0.00000000000E+00 0.  1.
         13   -1    0    0    0    0 -0.00000000000E+00 -0.00000000000E+00 -0.27500000000E+03  0.27500000000E+03  0.00000000000E+00 0.  1.
    9000005    2    1    2  501    0 -0.29545513411E+02 -0.93698495604E+01 -0.67084073207E+02  0.46370606035E+03  0.45777975718E+03 0.  0.
         13    1    3    3    0    0 -0.10628697559E+03  0.19316570588E+03  0.36745450182E+02  0.22351764855E+03  0.00000000000E+00 0.  1.
          1    1    3    3  501    0  0.76741462178E+02 -0.20253555544E+03 -0.10382952339E+03  0.24018841179E+03  0.00000000000E+00 0.  1.
         21    1    1    2  502  501  0.29545513411E+02  0.93698495604E+01  0.15401264669E+02  0.34611131113E+02  0.00000000000E+00 0.  1.
<scales pt_clust_4="550.00000" pt_clust_5="550.00000" pt_clust_6="30.99567"></scales>
<mgrwt>
<rscale>  0 0.30000000E+03</rscale>
<asrwt>  1 0.30995668E+02</asrwt>
<pdfrwt beam="1">  1        1 0.81206251E+00 0.30000000E+03</pdfrwt>
<pdfrwt beam="2">0</pdfrwt>
<totfact> 0.85977466E-04</totfact>
</mgrwt>
<clustering>
<clus scale="   30.996">  1  6  2 -1</clus>
<clus scale="  457.780">  4  5 -1 -1</clus>
<clus scale="  300.000">  1  4  2 -1</clus>
</clustering>
</event>
<event>
 6    1  0.9964252E-012  0.3000000E+03  0.7818608E-02  0.1093470E+00
          1   -1    0    0  502    0  0.00000000000E+00  0.00000000000E+00  0.23397058944E+03  0.23397058944E+03  0.00000000000E+00 0.  1.
         13   -1    0    0    0    0 -0.00000000000E+00 -0.00000000000E+00 -0.27500000000E+03  0.27500000000E+03  0.00000000000E+00 0.  1.
    9000005    2    1    2  501    0 -0.34124333529E+02 -0.74697772164E+01 -0.60034340466E+02  0.46920307668E+03  0.46403355204E+03 0.  0.
         13    1    3    3    0    0 -0.23525450502E+03 -0.29684462398E+02 -0.10905639347E+03  0.26099644901E+03  0.00000000000E+00 0.  1.
          3    1    3    3  501    0  0.20113017149E+03  0.22214685181E+02  0.49022053003E+02  0.20820662766E+03  0.00000000000E+00 0.  1.
         21    1    1    2  502  501  0.34124333529E+02  0.74697772164E+01  0.19004929906E+02  0.39767512761E+02  0.00000000000E+00 0.  1.
<scales pt_clust_4="550.00000" pt_clust_5="550.00000" pt_clust_6="34.93233"></scales>
<mgrwt>
<rscale>  0 0.30000000E+03</rscale>
<asrwt>  1 0.34932330E+02</asrwt>
<pdfrwt beam="1">  1        1 0.85080214E+00 0.30000000E+03</pdfrwt>
<pdfrwt beam="2">0</pdfrwt>
<totfact> 0.40010874E-04</totfact>
</mgrwt>
<clustering>
<clus scale="   34.932">  1  6  2 -1</clus>
<clus scale="  464.034">  4  5 -1 -1</clus>
<clus scale="  300.000">  1  4  2 -1</clus>
</clustering>
</event>
<event>
 6    1  0.9964252E-012  0.3000000E+03  0.7818608E-02  0.1093470E+00
          1   -1    0    0  502    0  0.00000000000E+00  0.00000000000E+00  0.22422610614E+03  0.22422610614E+03  0.00000000000E+00 0.  1.
         13   -1    0    0    0    0 -0.00000000000E+00 -0.00000000000E+00 -0.27500000000E+03  0.27500000000E+03  0.00000000000E+00 0.  1.
    9000005    2    1    2  501    0 -0.26724502052E+02 -0.21732226797E+02 -0.44389194904E+02  0.46419393418E+03  0.46078098834E+03 0.  0.
         13    1    3    3    0    0  0.16988881518E+03 -0.38547280674E+02  0.11651246490E+03  0.20957876049E+03  0.00000000000E+00 0.  1.
          1    1    3    3  501    0 -0.19661331723E+03  0.16815053877E+02 -0.16090165980E+03  0.25461517370E+03  0.00000000000E+00 0.  1.
         21    1    1    2  502  501  0.26724502052E+02  0.21732226797E+02 -0.63846989542E+01  0.35032171960E+02  0.00000000000E+00 0.  1.
<scales pt_clust_4="550.00000" pt_clust_5="550.00000" pt_clust_6="34.44546"></scales>
<mgrwt>
<rscale>  0 0.30000000E+03</rscale>
<asrwt>  1 0.34445462E+02</asrwt>
<pdfrwt beam="1">  1        1 0.81536766E+00 0.30000000E+03</pdfrwt>
<pdfrwt beam="2">0</pdfrwt>
<totfact> 0.79297428E-04</totfact>
</mgrwt>
<clustering>
<clus scale="   34.445">  1  6  2 -1</clus>
<clus scale="  460.781">  4  5 -1 -1</clus>
<clus scale="  300.000">  1  4  2 -1</clus>
</clustering>
</event>
<event>
 6    1  0.9964252E-012  0.3000000E+03  0.7818608E-02  0.1093470E+00
          1   -1    0    0  502    0  0.00000000000E+00  0.00000000000E+00  0.22698430925E+03  0.22698430925E+03  0.00000000000E+00 0.  1.
         13   -1    0    0    0    0 -0.00000000000E+00 -0.00000000000E+00 -0.27500000000E+03  0.27500000000E+03  0.00000000000E+00 0.  1.
    9000005    2    1    2  501    0 -0.36086237705E+02 -0.17390092859E+02 -0.55384665107E+02  0.46125429987E+03  0.45616163378E+03 0.  0.
         13    1    3    3    0    0  0.75463809898E+02  0.10047230393E+03 -0.20505389873E+03  0.24049235299E+03  0.00000000000E+00 0.  1.
          1    1    3    3  501    0 -0.11155004760E+03 -0.11786239679E+03  0.14966923362E+03  0.22076194688E+03  0.00000000000E+00 0.  1.
         21    1    1    2  502  501  0.36086237705E+02  0.17390092859E+02  0.73689743573E+01  0.40730009384E+02  0.00000000000E+00 0.  1.
<scales pt_clust_4="550.00000" pt_clust_5="550.00000" pt_clust_6="40.05786"></scales>
<mgrwt>
<rscale>  0 0.30000000E+03</rscale>
<asrwt>  1 0.40057857E+02</asrwt>
<pdfrwt beam="1">  1        1 0.82539749E+00 0.30000000E+03</pdfrwt>
<pdfrwt beam="2">0</pdfrwt>
<totfact> 0.63190733E-04</totfact>
</mgrwt>
<clustering>
<clus scale="   40.058">  1  6  2 -1</clus>
<clus scale="  456.162">  4  5 -1 -1</clus>
<clus scale="  300.000">  1  4  2 -1</clus>
</clustering>
</event>
<event>
 6    1  0.9964252E-012  0.3000000E+03  0.7818608E-02  0.1093470E+00
          1   -1    0    0  502    0  0.00000000000E+00  0.00000000000E+00  0.23921800312E+03  0.23921800312E+03  0.00000000000E+00 0.  1.
         13   -1    0    0    0    0 -0.00000000000E+00 -0.00000000000E+00 -0.27500000000E+03  0.27500000000E+03  0.00000000000E+00 0.  1.
    9000005    2    1    2  501    0  0.38573129707E+01  0.35041698957E+02 -0.35417920829E+02  0.47896276123E+03  0.47634871471E+03 0.  0.
         13    1    3    3    0    0  0.70192255526E+02  0.11134257125E+03  0.19044542143E+03  0.23150287137E+03  0.00000000000E+00 0.  1.
          1    1    3    3  501    0 -0.66334942555E+02 -0.76300872292E+02 -0.22586334226E+03  0.24745988987E+03  0.00000000000E+00 0.  1.
         21    1    1    2  502  501 -0.38573129707E+01 -0.35041698957E+02 -0.36407604928E+00  0.35255241887E+02  0.00000000000E+00 0. -1.
<scales pt_clust_4="550.00000" pt_clust_5="550.00000" pt_clust_6="35.25336"></scales>
<mgrwt>
<rscale>  0 0.30000000E+03</rscale>
<asrwt>  1 0.35253362E+02</asrwt>
<pdfrwt beam="1">  1        1 0.86988365E+00 0.30000000E+03</pdfrwt>
<pdfrwt beam="2">0</pdfrwt>
<totfact> 0.25360419E-04</totfact>
</mgrwt>
<clustering>
<clus scale="   35.253">  1  6  2 -1</clus>
<clus scale="  476.349">  4  5 -1 -1</clus>
<clus scale="  300.000">  1  4  2 -1</clus>
</clustering>
</event>
<event>
 6    1  0.9964252E-012  0.3000000E+03  0.7818608E-02  0.1093470E+00
          1   -1    0    0  502    0  0.00000000000E+00  0.00000000000E+00  0.23449090193E+03  0.23449090193E+03  0.00000000000E+00 0.  1.
         13   -1    0    0    0    0 -0.00000000000E+00 -0.00000000000E+00 -0.27500000000E+03  0.27500000000E+03  0.00000000000E+00 0.  1.
    9000005    2    1    2  501    0  0.14229468231E+02 -0.41052266073E+02 -0.37202606132E+02  0.46591683619E+03  0.46239236372E+03 0.  0.
         13    1    3    3    0    0 -0.12629982884E+01  0.20708969022E+03  0.27757577372E+02  0.20894549065E+03  0.00000000000E+00 0.  1.
          3    1    3    3  501    0  0.15492466519E+02 -0.24814195629E+03 -0.64960183504E+02  0.25697134555E+03  0.00000000000E+00 0.  1.
         21    1    1    2  502  501 -0.14229468231E+02  0.41052266073E+02 -0.33064919387E+01  0.43574065736E+02  0.00000000000E+00 0.  1.
<scales pt_clust_4="550.00000" pt_clust_5="550.00000" pt_clust_6="43.44843"></scales>
<mgrwt>
<rscale>  0 0.30000000E+03</rscale>
<asrwt>  1 0.43448433E+02</asrwt>
<pdfrwt beam="1">  1        1 0.85269419E+00 0.30000000E+03</pdfrwt>
<pdfrwt beam="2">0</pdfrwt>
<totfact> 0.36875004E-04</totfact>
</mgrwt>
<clustering>
<clus scale="   43.448">  1  6  2 -1</clus>
<clus scale="  462.392">  4  5 -1 -1</clus>
<clus scale="  300.000">  1  4  2 -1</clus>
</clustering>
</event>
<event>
 6    1  0.9964252E-012  0.3000000E+03  0.7818608E-02  0.1093470E+00
          1   -1    0    0  502    0  0.00000000000E+00  0.00000000000E+00  0.22971611563E+03  0.22971611563E+03  0.00000000000E+00 0.  1.
         13   -1    0    0    0    0 -0.00000000000E+00 -0.00000000000E+00 -0.27500000000E+03  0.27500000000E+03  0.00000000000E+00 0.  1.
    9000005    2    1    2  501    0  0.25600401395E+02 -0.19337539171E+02 -0.41698357039E+02  0.47243334966E+03  0.46949461756E+03 0.  0.
         13    1    3    3    0    0 -0.51894872629E+02 -0.20809487574E+03 -0.12924241345E+03  0.25039999311E+03  0.00000000000E+00 0.  1.
          1    1    3    3  501    0  0.77495274025E+02  0.18875733657E+03  0.87544056412E+02  0.22203335655E+03  0.00000000000E+00 0.  1.
         21    1    1    2  502  501 -0.25600401395E+02  0.19337539171E+02 -0.35855273280E+01  0.32282765975E+02  0.00000000000E+00 0.  1.
<scales pt_clust_4="550.00000" pt_clust_5="550.00000" pt_clust_6="32.08305"></scales>
<mgrwt>
<rscale>  0 0.30000000E+03</rscale>
<asrwt>  1 0.32083049E+02</asrwt>
<pdfrwt beam="1">  1        1 0.83533133E+00 0.30000000E+03</pdfrwt>
<pdfrwt beam="2">0</pdfrwt>
<totfact> 0.54688968E-04</totfact>
</mgrwt>
<clustering>
<clus scale="   32.083">  1  6  2 -1</clus>
<clus scale="  469.495">  4  5 -1 -1</clus>
<clus scale="  300.000">  1  4  2 -1</clus>
</clustering>
</event>
<event>
 6    1  0.9964252E-012  0.3000000E+03  0.7818608E-02  0.1093470E+00
          1   -1    0    0  502    0  0.00000000000E+00  0.00000000000E+00  0.21810068698E+03  0.21810068698E+03  0.00000000000E+00 0.  1.
         13   -1    0    0    0    0 -0.00000000000E+00 -0.00000000000E+00 -0.27500000000E+03  0.27500000000E+03  0.00000000000E+00 0.  1.
    9000005    2    1    2  501    0 -0.20623630461E+02  0.23216528828E+02 -0.58153107410E+02  0.46202154052E+03  0.45729397400E+03 0.  0.
         13    1    3    3    0    0  0.67448998540E+02 -0.18768162275E+03  0.55164145249E+02  0.20692230871E+03  0.00000000000E+00 0.  1.
          1    1    3    3  501    0 -0.88072629001E+02  0.21089815158E+03 -0.11331725266E+03  0.25509923181E+03  0.00000000000E+00 0.  1.
         21    1    1    2  502  501  0.20623630461E+02 -0.23216528828E+02  0.12537943896E+01  0.31079146459E+02  0.00000000000E+00 0. -1.
<scales pt_clust_4="550.00000" pt_clust_5="550.00000" pt_clust_6="31.05385"></scales>
<mgrwt>
<rscale>  0 0.30000000E+03</rscale>
<asrwt>  1 0.31053846E+02</asrwt>
<pdfrwt beam="1">  1        1 0.79309341E+00 0.30000000E+03</pdfrwt>
<pdfrwt beam="2">0</pdfrwt>
<totfact> 0.11929415E-03</totfact>
</mgrwt>
<clustering>
<clus scale="   31.054">  1  6  2 -1</clus>
<clus scale="  457.294">  4  5 -1 -1</clus>
<clus scale="  300.000">  1  4  2 -1</clus>
</clustering>
</event>
<event>
 6    1  0.9964252E-012  0.3000000E+03  0.7818608E-02  0.1093470E+00
          1   -1    0    0  502    0  0.00000000000E+00  0.00000000000E+00  0.25016375471E+03  0.25016375471E+03  0.00000000000E+00 0.  1.
         13   -1    0    0    0    0 -0.00000000000E+00 -0.00000000000E+00 -0.27500000000E+03  0.27500000000E+03  0.00000000000E+00 0.  1.
    9000005    2    1    2  501    0  0.36223073831E+02  0.22969171094E+02 -0.45994164878E+02  0.47733749142E+03  0.47317641913E+03 0.  0.
         13    1    3    3    0    0 -0.57209572765E+02 -0.91016910259E+02 -0.22266671811E+03  0.24725994524E+03  0.00000000000E+00 0.  1.
          3    1    3    3  501    0  0.93432646596E+02  0.11398608135E+03  0.17667255323E+03  0.23007754618E+03  0.00000000000E+00 0.  1.
         21    1    1    2  502  501 -0.36223073831E+02 -0.22969171094E+02  0.21157919585E+02  0.47826263283E+02  0.00000000000E+00 0.  1.
<scales pt_clust_4="550.00000" pt_clust_5="550.00000" pt_clust_6="42.89165"></scales>
<mgrwt>
<rscale>  0 0.30000000E+03</rscale>
<asrwt>  1 0.42891653E+02</asrwt>
<pdfrwt beam="1">  1        1 0.90968638E+00 0.30000000E+03</pdfrwt>
<pdfrwt beam="2">0</pdfrwt>
<totfact> 0.70446285E-05</totfact>
</mgrwt>
<clustering>
<clus scale="   42.892">  1  6  2 -1</clus>
<clus scale="  473.176">  4  5 -1 -1</clus>
<clus scale="  300.000">  1  4  2 -1</clus>
</clustering>
</event>
<event>
 6    1  0.9964252E-012  0.3000000E+03  0.7818608E-02  0.1093470E+00
          1   -1    0    0  502    0  0.00000000000E+00  0.00000000000E+00  0.23406176051E+03  0.23406176051E+03  0.00000000000E+00 0.  1.
         13   -1    0    0    0    0 -0.00000000000E+00 -0.00000000000E+00 -0.27500000000E+03  0.27500000000E+03  0.00000000000E+00 0.  1.
    9000005    2    1    2  501    0  0.24567909908E+02  0.22074429524E+02 -0.48999569751E+02  0.47506400056E+03  0.47137456884E+03 0.  0.
         13    1    3    3    0    0  0.19460441599E+03  0.67782294258E+02  0.11367590772E+03  0.23534555473E+03  0.00000000000E+00 0.  1.
          3    1    3    3  501    0 -0.17003650608E+03 -0.45707864734E+02 -0.16267547747E+03  0.23971844582E+03  0.00000000000E+00 0.  1.
         21    1    1    2  502  501 -0.24567909908E+02 -0.22074429524E+02  0.80613302580E+01  0.33997759950E+02  0.00000000000E+00 0.  1.
<scales pt_clust_4="550.00000" pt_clust_5="550.00000" pt_clust_6="33.02821"></scales>
<mgrwt>
<rscale>  0 0.30000000E+03</rscale>
<asrwt>  1 0.33028210E+02</asrwt>
<pdfrwt beam="1">  1        1 0.85113367E+00 0.30000000E+03</pdfrwt>
<pdfrwt beam="2">0</pdfrwt>
<totfact> 0.40143235E-04</totfact>
</mgrwt>
<clustering>
<clus scale="   33.028">  1  6  2 -1</clus>
<clus scale="  471.375">  4  5 -1 -1</clus>
<clus scale="  300.000">  1  4  2 -1</clus>
</clustering>
</event>
<event>
 6    1  0.9964252E-012  0.3000000E+03  0.7818608E-02  0.1093470E+00
          1   -1    0    0  502    0  0.00000000000E+00  0.00000000000E+00  0.23203027618E+03  0.23203027618E+03  0.00000000000E+00 0.  1.
         13   -1    0    0    0    0 -0.00000000000E+00 -0.00000000000E+00 -0.27500000000E+03  0.27500000000E+03  0.00000000000E+00 0.  1.
    9000005    2    1    2  501    0  0.72437806096E+01  0.41606388630E+02 -0.50931688714E+02  0.46405404069E+03  0.45931313048E+03 0.  0.
         13    1    3    3    0    0  0.36484626890E+01  0.29958815804E+02 -0.25642729261E+03  0.25819720819E+03  0.00000000000E+00 0.  1.
          3    1    3    3  501    0  0.35953179206E+01  0.11647572826E+02  0.20549560390E+03  0.20585683249E+03  0.00000000000E+00 0.  1.
         21    1    1    2  502  501 -0.72437806096E+01 -0.41606388630E+02  0.79619648959E+01  0.42976235495E+02  0.00000000000E+00 0.  1.
<scales pt_clust_4="550.00000" pt_clust_5="550.00000" pt_clust_6="42.23226"></scales>
<mgrwt>
<rscale>  0 0.30000000E+03</rscale>
<asrwt>  1 0.42232262E+02</asrwt>
<pdfrwt beam="1">  1        1 0.84374646E+00 0.30000000E+03</pdfrwt>
<pdfrwt beam="2">0</pdfrwt>
<totfact> 0.44751568E-04</totfact>
</mgrwt>
<clustering>
<clus scale="   42.232">  1  6  2 -1</clus>
<clus scale="  459.313">  4  5 -1 -1</clus>
<clus scale="  300.000">  1  4  2 -1</clus>
</clustering>
</event>
<event>
 6    1  0.9964252E-012  0.3000000E+03  0.7818608E-02  0.1093470E+00
          1   -1    0    0  502    0  0.00000000000E+00  0.00000000000E+00  0.22922380309E+03  0.22922380309E+03  0.00000000000E+00 0.  1.
         13   -1    0    0    0    0 -0.00000000000E+00 -0.00000000000E+00 -0.27500000000E+03  0.27500000000E+03  0.00000000000E+00 0.  1.
    9000005    2    1    2  501    0 -0.17149361037E+02  0.27963793098E+02 -0.70509391526E+02  0.46314089637E+03  0.45656526510E+03 0.  0.
         13    1    3    3    0    0  0.67983990432E+02 -0.12700746325E+03  0.13123929210E+03  0.19487552557E+03  0.00000000000E+00 0.  1.
          1    1    3    3  501    0 -0.85133351469E+02  0.15497125635E+03 -0.20174868363E+03  0.26826537080E+03  0.00000000000E+00 0.  1.
         21    1    1    2  502  501  0.17149361037E+02 -0.27963793098E+02  0.24733194617E+02  0.41082906718E+02  0.00000000000E+00 0. -1.
<scales pt_clust_4="550.00000" pt_clust_5="550.00000" pt_clust_6="32.80357"></scales>
<mgrwt>
<rscale>  0 0.30000000E+03</rscale>
<asrwt>  1 0.32803572E+02</asrwt>
<pdfrwt beam="1">  1        1 0.83354110E+00 0.30000000E+03</pdfrwt>
<pdfrwt beam="2">0</pdfrwt>
<totfact> 0.56135394E-04</totfact>
</mgrwt>
<clustering>
<clus scale="   32.804">  1  6  2 -1</clus>
<clus scale="  456.565">  4  5 -1 -1</clus>
<clus scale="  300.000">  1  4  2 -1</clus>
</clustering>
</event>
<event>
 6    1  0.9964252E-012  0.3000000E+03  0.7818608E-02  0.1093470E+00
          1   -1    0    0  502    0  0.00000000000E+00  0.00000000000E+00  0.22440862562E+03  0.22440862562E+03  0.00000000000E+00 0.  1.
         13   -1    0    0    0    0 -0.00000000000E+00 -0.00000000000E+00 -0.27500000000E+03  0.27500000000E+03  0.00000000000E+00 0.  1.
    9000005    2    1    2  501    0 -0.74504839317E+01  0.32226551149E+02 -0.66641442115E+02  0.46264362890E+03  0.45662236612E+03 0.  0.
         13    1    3    3    0    0  0.16897971796E+03  0.15890051116E+03  0.10400559044E+02  0.23218890834E+03  0.00000000000E+00 0.  1.
          1    1    3    3  501    0 -0.17643020189E+03 -0.12667396001E+03 -0.77042001158E+02  0.23045472056E+03  0.00000000000E+00 0.  1.
         21    1    1    2  502  501  0.74504839317E+01 -0.32226551149E+02  0.16050067740E+02  0.36764996725E+02  0.00000000000E+00 0.  1.
<scales pt_clust_4="550.00000" pt_clust_5="550.00000" pt_clust_6="33.07658"></scales>
<mgrwt>
<rscale>  0 0.30000000E+03</rscale>
<asrwt>  1 0.33076582E+02</asrwt>
<pdfrwt beam="1">  1        1 0.81603137E+00 0.30000000E+03</pdfrwt>
<pdfrwt beam="2">0</pdfrwt>
<totfact> 0.78918190E-04</totfact>
</mgrwt>
<clustering>
<clus scale="   33.077">  1  6  2 -1</clus>
<clus scale="  456.622">  4  5 -1 -1</clus>
<clus scale="  300.000">  1  4  2 -1</clus>
</clustering>
</event>
<event>
 6    1  0.9964252E-012  0.3000000E+03  0.7818608E-02  0.1093470E+00
          1   -1    0    0  502    0  0.00000000000E+00  0.00000000000E+00  0.23846914998E+03  0.23846914998E+03  0.00000000000E+00 0.  1.
         13   -1    0    0    0    0 -0.00000000000E+00 -0.00000000000E+00 -0.27500000000E+03  0.27500000000E+03  0.00000000000E+00 0.  1.
    9000005    2    1    2  501    0  0.24413866737E+01 -0.36416677967E+02 -0.70597676542E+02  0.46354236887E+03  0.45667861894E+03 0.  0.
         13    1    3    3    0    0  0.78274312442E+02  0.16240170053E+03  0.85607139208E+02  0.19957395272E+03  0.00000000000E+00 0.  1.
          3    1    3    3  501    0 -0.75832925769E+02 -0.19881837849E+03 -0.15620481575E+03  0.26396841614E+03  0.00000000000E+00 0.  1.
         21    1    1    2  502  501 -0.24413866737E+01  0.36416677967E+02  0.34066826520E+02  0.49926781111E+02  0.00000000000E+00 0.  1.
<scales pt_clust_4="550.00000" pt_clust_5="550.00000" pt_clust_6="36.49842"></scales>
<mgrwt>
<rscale>  0 0.30000000E+03</rscale>
<asrwt>  1 0.36498422E+02</asrwt>
<pdfrwt beam="1">  1        1 0.86716055E+00 0.30000000E+03</pdfrwt>
<pdfrwt beam="2">0</pdfrwt>
<totfact> 0.26885405E-04</totfact>
</mgrwt>
<clustering>
<clus scale="   36.498">  1  6  2 -1</clus>
<clus scale="  456.679">  4  5 -1 -1</clus>
<clus scale="  300.000">  1  4  2 -1</clus>
</clustering>
</event>
<event>
 6    1  0.9964252E-012  0.3000000E+03  0.7818608E-02  0.1093470E+00
          1   -1    0    0  502    0  0.00000000000E+00  0.00000000000E+00  0.22927021191E+03  0.22927021191E+03  0.00000000000E+00 0.  1.
         13   -1    0    0    0    0 -0.00000000000E+00 -0.00000000000E+00 -0.27500000000E+03  0.27500000000E+03  0.00000000000E+00 0.  1.
    9000005    2    1    2  501    0 -0.98039914783E+01 -0.31477218561E+02 -0.61830350224E+02  0.46758013643E+03  0.46229996565E+03 0.  0.
         13    1    3    3    0    0 -0.16195429612E+03 -0.41986137219E+02 -0.20071789973E+03  0.26130385573E+03  0.00000000000E+00 0.  1.
          3    1    3    3  501    0  0.15215030464E+03  0.10508918657E+02  0.13888754950E+03  0.20627628070E+03  0.00000000000E+00 0.  1.
         21    1    1    2  502  501  0.98039914783E+01  0.31477218561E+02  0.16100562130E+02  0.36690075472E+02  0.00000000000E+00 0. -1.
<scales pt_clust_4="550.00000" pt_clust_5="550.00000" pt_clust_6="32.96868"></scales>
<mgrwt>
<rscale>  0 0.30000000E+03</rscale>
<asrwt>  1 0.32968675E+02</asrwt>
<pdfrwt beam="1">  1        1 0.83370986E+00 0.30000000E+03</pdfrwt>
<pdfrwt beam="2">0</pdfrwt>
<totfact> 0.55920074E-04</totfact>
</mgrwt>
<clustering>
<clus scale="   32.969">  1  6  2 -1</clus>
<clus scale="  462.300">  4  5 -1 -1</clus>
<clus scale="  300.000">  1  4  2 -1</clus>
</clustering>
</event>
<event>
 6    1  0.9964252E-012  0.3000000E+03  0.7818608E-02  0.1093470E+00
          1   -1    0    0  502    0  0.00000000000E+00  0.00000000000E+00  0.24892599399E+03  0.24892599399E+03  0.00000000000E+00 0.  1.
         13   -1    0    0    0    0 -0.00000000000E+00 -0.00000000000E+00 -0.27500000000E+03  0.27500000000E+03  0.00000000000E+00 0.  1.
    9000005    2    1    2  501    0 -0.35543363340E+02  0.42327739058E+01 -0.57287710137E+02  0.47643344323E+03  0.47162028905E+03 0.  0.
         13    1    3    3    0    0 -0.20724257560E+03  0.71027608600E+02 -0.15454714606E+03  0.26810301505E+03  0.00000000000E+00 0.  1.
          3    1    3    3  501    0  0.17169921225E+03 -0.66794834694E+02  0.97259435920E+02  0.20833042818E+03  0.00000000000E+00 0.  1.
         21    1    1    2  502  501  0.35543363340E+02 -0.42327739058E+01  0.31213704125E+02  0.47492550760E+02  0.00000000000E+00 0.  1.
<scales pt_clust_4="550.00000" pt_clust_5="550.00000" pt_clust_6="35.79451"></scales>
<mgrwt>
<rscale>  0 0.30000000E+03</rscale>
<asrwt>  1 0.35794511E+02</asrwt>
<pdfrwt beam="1">  1        1 0.90518543E+00 0.30000000E+03</pdfrwt>
<pdfrwt beam="2">0</pdfrwt>
<totfact> 0.91333210E-05</totfact>
</mgrwt>
<clustering>
<clus scale="   35.795">  1  6  2 -1</clus>
<clus scale="  471.620">  4  5 -1 -1</clus>
<clus scale="  300.000">  1  4  2 -1</clus>
</clustering>
</event>
<event>
 6    1  0.9964252E-012  0.3000000E+03  0.7818608E-02  0.1093470E+00
          1   -1    0    0  502    0  0.00000000000E+00  0.00000000000E+00  0.22640249788E+03  0.22640249788E+03  0.00000000000E+00 0.  1.
         13   -1    0    0    0    0 -0.00000000000E+00 -0.00000000000E+00 -0.27500000000E+03  0.27500000000E+03  0.00000000000E+00 0.  1.
    9000005    2    1    2  501    0 -0.15463001020E+02  0.29822967324E+02 -0.66843699604E+02  0.46317374557E+03  0.45709224958E+03 0.  0.
         13    1    3    3    0    0 -0.11220850552E+03 -0.19812605693E+02  0.16879655993E+03  0.20365550987E+03  0.00000000000E+00 0.  1.
          3    1    3    3  501    0  0.96745504504E+02  0.49635573018E+02 -0.23564025953E+03  0.25951823570E+03  0.00000000000E+00 0.  1.
         21    1    1    2  502  501  0.15463001020E+02 -0.29822967324E+02  0.18246197484E+02  0.38228752310E+02  0.00000000000E+00 0.  1.
<scales pt_clust_4="550.00000" pt_clust_5="550.00000" pt_clust_6="33.59336"></scales>
<mgrwt>
<rscale>  0 0.30000000E+03</rscale>
<asrwt>  1 0.33593359E+02</asrwt>
<pdfrwt beam="1">  1        1 0.82328181E+00 0.30000000E+03</pdfrwt>
<pdfrwt beam="2">0</pdfrwt>
<totfact> 0.68190064E-04</totfact>
</mgrwt>
<clustering>
<clus scale="   33.593">  1  6  2 -1</clus>
<clus scale="  457.092">  4  5 -1 -1</clus>
<clus scale="  300.000">  1  4  2 -1</clus>
</clustering>
</event>
<event>
 6    1  0.9964252E-012  0.3000000E+03  0.7818608E-02  0.1093470E+00
          1   -1    0    0  502    0  0.00000000000E+00  0.00000000000E+00  0.23243806378E+03  0.23243806378E+03  0.00000000000E+00 0.  1.
         13   -1    0    0    0    0 -0.00000000000E+00 -0.00000000000E+00 -0.27500000000E+03  0.27500000000E+03  0.00000000000E+00 0.  1.
    9000005    2    1    2  501    0  0.30952993950E+02  0.23208196486E+01 -0.74178558941E+02  0.46313135017E+03  0.45609726470E+03 0.  0.
         13    1    3    3    0    0 -0.37166700682E+02 -0.10555108442E+03  0.16070974323E+03  0.19583160274E+03  0.00000000000E+00 0.  1.
          1    1    3    3  501    0  0.68119694632E+02  0.10787190407E+03 -0.23488830217E+03  0.26729974744E+03  0.00000000000E+00 0.  1.
         21    1    1    2  502  501 -0.30952993950E+02 -0.23208196486E+01  0.31616622718E+02  0.44306713604E+02  0.00000000000E+00 0.  1.
<scales pt_clust_4="550.00000" pt_clust_5="550.00000" pt_clust_6="31.03988"></scales>
<mgrwt>
<rscale>  0 0.30000000E+03</rscale>
<asrwt>  1 0.31039878E+02</asrwt>
<pdfrwt beam="1">  1        1 0.84522932E+00 0.30000000E+03</pdfrwt>
<pdfrwt beam="2">0</pdfrwt>
<totfact> 0.46007159E-04</totfact>
</mgrwt>
<clustering>
<clus scale="   31.040">  1  6  2 -1</clus>
<clus scale="  456.097">  4  5 -1 -1</clus>
<clus scale="  300.000">  1  4  2 -1</clus>
</clustering>
</event>
<event>
 6    1  0.9964252E-012  0.3000000E+03  0.7818608E-02  0.1093470E+00
          1   -1    0    0  502    0  0.00000000000E+00  0.00000000000E+00  0.22236151637E+03  0.22236151637E+03  0.00000000000E+00 0.  1.
         13   -1    0    0    0    0 -0.00000000000E+00 -0.00000000000E+00 -0.27500000000E+03  0.27500000000E+03  0.00000000000E+00 0.  1.
    9000005    2    1    2  501    0 -0.22392671041E+02  0.22707636904E+02 -0.53717317195E+02  0.46545176281E+03  0.46124041979E+03 0.  0.
         13    1    3    3    0    0 -0.48476626240E+02 -0.18704580897E+03  0.86603300575E+02  0.21174571924E+03  0.00000000000E+00 0.  1.
          3    1    3    3  501    0  0.26083955199E+02  0.20975344587E+03 -0.14032061777E+03  0.25370604358E+03  0.00000000000E+00 0.  1.
         21    1    1    2  502  501  0.22392671041E+02 -0.22707636904E+02  0.10788335641E+01  0.31909753555E+02  0.00000000000E+00 0.  1.
<scales pt_clust_4="550.00000" pt_clust_5="550.00000" pt_clust_6="31.89151"></scales>
<mgrwt>
<rscale>  0 0.30000000E+03</rscale>
<asrwt>  1 0.31891511E+02</asrwt>
<pdfrwt beam="1">  1        1 0.80858733E+00 0.30000000E+03</pdfrwt>
<pdfrwt beam="2">0</pdfrwt>
<totfact> 0.91029152E-04</totfact>
</mgrwt>
<clustering>
<clus scale="   31.892">  1  6  2 -1</clus>
<clus scale="  461.240">  4  5 -1 -1</clus>
<clus scale="  300.000">  1  4  2 -1</clus>
</clustering>
</event>
<event>
 6    1  0.9964252E-012  0.3000000E+03  0.7818608E-02  0.1093470E+00
          1   -1    0    0  502    0  0.00000000000E+00  0.00000000000E+00  0.23946984083E+03  0.23946984083E+03  0.00000000000E+00 0.  1.
         13   -1    0    0    0    0 -0.00000000000E+00 -0.00000000000E+00 -0.27500000000E+03  0.27500000000E+03  0.00000000000E+00 0.  1.
    9000005    2    1    2  501    0  0.26503529616E+02  0.19662940776E+02 -0.32599257227E+02  0.48133891105E+03  0.47909849446E+03 0.  0.
         13    1    3    3    0    0 -0.22323348144E+03  0.38594059777E+02 -0.43347276724E+02  0.23065488307E+03  0.00000000000E+00 0.  1.
          1    1    3    3  501    0  0.24973701106E+03 -0.18931119001E+02  0.10748019496E+02  0.25068402797E+03  0.00000000000E+00 0.  1.
         21    1    1    2  502  501 -0.26503529616E+02 -0.19662940776E+02 -0.29309019419E+01  0.33130929783E+02  0.00000000000E+00 0. -1.
<scales pt_clust_4="550.00000" pt_clust_5="550.00000" pt_clust_6="33.00105"></scales>
<mgrwt>
<rscale>  0 0.30000000E+03</rscale>
<asrwt>  1 0.33001052E+02</asrwt>
<pdfrwt beam="1">  1        1 0.87079942E+00 0.30000000E+03</pdfrwt>
<pdfrwt beam="2">0</pdfrwt>
<totfact> 0.25129768E-04</totfact>
</mgrwt>
<clustering>
<clus scale="   33.001">  1  6  2 -1</clus>
<clus scale="  479.098">  4  5 -1 -1</clus>
<clus scale="  300.000">  1  4  2 -1</clus>
</clustering>
</event>
<event>
 6    1  0.9964252E-012  0.3000000E+03  0.7818608E-02  0.1093470E+00
          1   -1    0    0  502    0  0.00000000000E+00  0.00000000000E+00  0.24149235591E+03  0.24149235591E+03  0.00000000000E+00 0.  1.
         13   -1    0    0    0    0 -0.00000000000E+00 -0.00000000000E+00 -0.27500000000E+03  0.27500000000E+03  0.00000000000E+00 0.  1.
    9000005    2    1    2  501    0  0.22861817913E+02 -0.24018192400E+02 -0.54211159703E+02  0.47740051733E+03  0.47315205572E+03 0.  0.
         13    1    3    3    0    0 -0.16313011308E+03 -0.62849032883E+02  0.12602760881E+03  0.21550961210E+03  0.00000000000E+00 0.  1.
          3    1    3    3  501    0  0.18599193099E+03  0.38830840483E+02 -0.18023876851E+03  0.26189090523E+03  0.00000000000E+00 0.  1.
         21    1    1    2  502  501 -0.22861817913E+02  0.24018192400E+02  0.20703515611E+02  0.39091838574E+02  0.00000000000E+00 0. -1.
<scales pt_clust_4="550.00000" pt_clust_5="550.00000" pt_clust_6="33.15926"></scales>
<mgrwt>
<rscale>  0 0.30000000E+03</rscale>
<asrwt>  1 0.33159256E+02</asrwt>
<pdfrwt beam="1">  1        1 0.87815402E+00 0.30000000E+03</pdfrwt>
<pdfrwt beam="2">0</pdfrwt>
<totfact> 0.20977127E-04</totfact>
</mgrwt>
<clustering>
<clus scale="   33.159">  1  6  2 -1</clus>
<clus scale="  473.152">  4  5 -1 -1</clus>
<clus scale="  300.000">  1  4  2 -1</clus>
</clustering>
</event>
<event>
 6    1  0.9964252E-012  0.3000000E+03  0.7818608E-02  0.1093470E+00
          1   -1    0    0  502    0  0.00000000000E+00  0.00000000000E+00  0.22593568037E+03  0.22593568037E+03  0.00000000000E+00 0.  1.
         13   -1    0    0    0    0 -0.00000000000E+00 -0.00000000000E+00 -0.27500000000E+03  0.27500000000E+03  0.00000000000E+00 0.  1.
    9000005    2    1    2  501    0 -0.24500005861E+02  0.20880296810E+02 -0.61546227322E+02  0.46640981903E+03  0.46120921945E+03 0.  0.
         13    1    3    3    0    0 -0.24275537529E+03  0.24873332247E+02 -0.34232912940E+02  0.24641580147E+03  0.00000000000E+00 0.  1.
          1    1    3    3  501    0  0.21825536943E+03 -0.39930354372E+01 -0.27313314382E+02  0.21999401755E+03  0.00000000000E+00 0.  1.
         21    1    1    2  502  501  0.24500005861E+02 -0.20880296810E+02  0.12481907694E+02  0.34525861347E+02  0.00000000000E+00 0.  1.
<scales pt_clust_4="550.00000" pt_clust_5="550.00000" pt_clust_6="32.19064"></scales>
<mgrwt>
<rscale>  0 0.30000000E+03</rscale>
<asrwt>  1 0.32190637E+02</asrwt>
<pdfrwt beam="1">  1        1 0.82158429E+00 0.30000000E+03</pdfrwt>
<pdfrwt beam="2">0</pdfrwt>
<totfact> 0.71170963E-04</totfact>
</mgrwt>
<clustering>
<clus scale="   32.191">  1  6  2 -1</clus>
<clus scale="  461.209">  4  5 -1 -1</clus>
<clus scale="  300.000">  1  4  2 -1</clus>
</clustering>
</event>
<event>
 6    1  0.9964252E-012  0.3000000E+03  0.7818608E-02  0.1093470E+00
          1   -1    0    0  502    0  0.00000000000E+00  0.00000000000E+00  0.25749774001E+03  0.25749774001E+03  0.00000000000E+00 0.  1.
         13   -1    0    0    0    0 -0.00000000000E+00 -0.00000000000E+00 -0.27500000000E+03  0.27500000000E+03  0.00000000000E+00 0.  1.
    9000005    2    1    2  501    0 -0.34212624963E+01  0.61397482003E+02 -0.41287422770E+02  0.46656527607E+03  0.46064861849E+03 0.  0.
         13    1    3    3    0    0 -0.87112642120E+02  0.21775205400E+03 -0.13012863507E+03  0.26821266022E+03  0.00000000000E+00 0.  1.
          3    1    3    3  501    0  0.83691379624E+02 -0.15635457200E+03  0.88841212301E+02  0.19835261584E+03  0.00000000000E+00 0.  1.
         21    1    1    2  502  501  0.34212624963E+01 -0.61397482003E+02  0.23785162784E+02  0.65932463946E+02  0.00000000000E+00 0.  1.
<scales pt_clust_4="550.00000" pt_clust_5="550.00000" pt_clust_6="61.49273"></scales>
<mgrwt>
<rscale>  0 0.30000000E+03</rscale>
<asrwt>  1 0.61492730E+02</asrwt>
<pdfrwt beam="1">  1        1 0.93635542E+00 0.30000000E+03</pdfrwt>
<pdfrwt beam="2">0</pdfrwt>
<totfact> 0.19608609E-05</totfact>
</mgrwt>
<clustering>
<clus scale="   61.493">  1  6  2 -1</clus>
<clus scale="  460.649">  4  5 -1 -1</clus>
<clus scale="  300.000">  1  4  2 -1</clus>
</clustering>
</event>
<event>
 6    1  0.9964252E-012  0.3000000E+03  0.7818608E-02  0.1093470E+00
          1   -1    0    0  502    0  0.00000000000E+00  0.00000000000E+00  0.22500726516E+03  0.22500726516E+03  0.00000000000E+00 0.  1.
         13   -1    0    0    0    0 -0.00000000000E+00 -0.00000000000E+00 -0.27500000000E+03  0.27500000000E+03  0.00000000000E+00 0.  1.
    9000005    2    1    2  501    0 -0.90396311214E+01 -0.33566057051E+02 -0.52505311801E+02  0.46515460157E+03  0.46087265104E+03 0.  0.
         13    1    3    3    0    0 -0.16144885448E+03 -0.18031753236E+03 -0.72439282337E+02  0.25264123716E+03  0.00000000000E+00 0.  1.
          3    1    3    3  501    0  0.15240922336E+03  0.14675147530E+03  0.19933970537E+02  0.21251336441E+03  0.00000000000E+00 0.  1.
         21    1    1    2  502  501  0.90396311214E+01  0.33566057051E+02  0.25125769637E+01  0.34852663597E+02  0.00000000000E+00 0.  1.
<scales pt_clust_4="550.00000" pt_clust_5="550.00000" pt_clust_6="34.76198"></scales>
<mgrwt>
<rscale>  0 0.30000000E+03</rscale>
<asrwt>  1 0.34761978E+02</asrwt>
<pdfrwt beam="1">  1        1 0.81820824E+00 0.30000000E+03</pdfrwt>
<pdfrwt beam="2">0</pdfrwt>
<totfact> 0.75016158E-04</totfact>
</mgrwt>
<clustering>
<clus scale="   34.762">  1  6  2 -1</clus>
<clus scale="  460.873">  4  5 -1 -1</clus>
<clus scale="  300.000">  1  4  2 -1</clus>
</clustering>
</event>
<event>
 6    1  0.9964252E-012  0.3000000E+03  0.7818608E-02  0.1093470E+00
          1   -1    0    0  502    0  0.00000000000E+00  0.00000000000E+00  0.24167080567E+03  0.24167080567E+03  0.00000000000E+00 0.  1.
         13   -1    0    0    0    0 -0.00000000000E+00 -0.00000000000E+00 -0.27500000000E+03  0.27500000000E+03  0.00000000000E+00 0.  1.
    9000005    2    1    2  501    0 -0.41141002462E+02  0.11839751916E+02 -0.38231221007E+02  0.47358030005E+03  0.47008926017E+03 0.  0.
         13    1    3    3    0    0 -0.20259274663E+03  0.45172802553E+02 -0.16537260903E+03  0.26539122611E+03  0.00000000000E+00 0.  1.
          1    1    3    3  501    0  0.16145174417E+03 -0.33333050636E+02  0.12714138803E+03  0.20818907394E+03  0.00000000000E+00 0.  1.
         21    1    1    2  502  501  0.41141002462E+02 -0.11839751916E+02  0.49020266796E+01  0.43090505620E+02  0.00000000000E+00 0.  1.
<scales pt_clust_4="550.00000" pt_clust_5="550.00000" pt_clust_6="42.81077"></scales>
<mgrwt>
<rscale>  0 0.30000000E+03</rscale>
<asrwt>  1 0.42810767E+02</asrwt>
<pdfrwt beam="1">  1        1 0.87880293E+00 0.30000000E+03</pdfrwt>
<pdfrwt beam="2">0</pdfrwt>
<totfact> 0.19664966E-04</totfact>
</mgrwt>
<clustering>
<clus scale="   42.811">  1  6  2 -1</clus>
<clus scale="  470.089">  4  5 -1 -1</clus>
<clus scale="  300.000">  1  4  2 -1</clus>
</clustering>
</event>
<event>
 6    1  0.9964252E-012  0.3000000E+03  0.7818608E-02  0.1093470E+00
          1   -1    0    0  502    0  0.00000000000E+00  0.00000000000E+00  0.24824964525E+03  0.24824964525E+03  0.00000000000E+00 0.  1.
         13   -1    0    0    0    0 -0.00000000000E+00 -0.00000000000E+00 -0.27500000000E+03  0.27500000000E+03  0.00000000000E+00 0.  1.
    9000005    2    1    2  501    0  0.11580161361E+02 -0.31411705064E+02 -0.22318736848E+02  0.48947932412E+03  0.48782280325E+03 0.  0.
         13    1    3    3    0    0  0.85840807039E+02  0.11712617057E+03 -0.19942546819E+03  0.24669353730E+03  0.00000000000E+00 0.  1.
          1    1    3    3  501    0 -0.74260645678E+02 -0.14853787563E+03  0.17710673134E+03  0.24278578681E+03  0.00000000000E+00 0.  1.
         21    1    1    2  502  501 -0.11580161361E+02  0.31411705064E+02 -0.44316179040E+01  0.33770321133E+02  0.00000000000E+00 0.  1.
<scales pt_clust_4="550.00000" pt_clust_5="550.00000" pt_clust_6="33.47830"></scales>
<mgrwt>
<rscale>  0 0.30000000E+03</rscale>
<asrwt>  1 0.33478299E+02</asrwt>
<pdfrwt beam="1">  1        1 0.90272598E+00 0.30000000E+03</pdfrwt>
<pdfrwt beam="2">0</pdfrwt>
<totfact> 0.10206479E-04</totfact>
</mgrwt>
<clustering>
<clus scale="   33.478">  1  6  2 -1</clus>
<clus scale="  487.823">  4  5 -1 -1</clus>
<clus scale="  300.000">  1  4  2 -1</clus>
</clustering>
</event>
<event>
 6    1  0.9964252E-012  0.3000000E+03  0.7818608E-02  0.1093470E+00
          1   -1    0    0  502    0  0.00000000000E+00  0.00000000000E+00  0.23123231106E+03  0.23123231106E+03  0.00000000000E+00 0.  1.
         13   -1    0    0    0    0 -0.00000000000E+00 -0.00000000000E+00 -0.27500000000E+03  0.27500000000E+03  0.00000000000E+00 0.  1.
    9000005    2    1    2  501    0  0.32353420858E+02 -0.77794279763E+01 -0.63540813781E+02  0.46752520826E+03  0.46199039168E+03 0.  0.
         13    1    3    3    0    0 -0.21138096479E+03  0.13350087440E+02  0.10073109383E+02  0.21204151632E+03  0.00000000000E+00 0.  1.
          1    1    3    3  501    0  0.24373438565E+03 -0.21129515417E+02 -0.73613923163E+02  0.25548369195E+03  0.00000000000E+00 0.  1.
         21    1    1    2  502  501 -0.32353420858E+02  0.77794279763E+01  0.19773124841E+02  0.38707102796E+02  0.00000000000E+00 0. -1.
<scales pt_clust_4="550.00000" pt_clust_5="550.00000" pt_clust_6="33.27557"></scales>
<mgrwt>
<rscale>  0 0.30000000E+03</rscale>
<asrwt>  1 0.33275567E+02</asrwt>
<pdfrwt beam="1">  1        1 0.84084477E+00 0.30000000E+03</pdfrwt>
<pdfrwt beam="2">0</pdfrwt>
<totfact> 0.49424762E-04</totfact>
</mgrwt>
<clustering>
<clus scale="   33.276">  1  6  2 -1</clus>
<clus scale="  461.990">  4  5 -1 -1</clus>
<clus scale="  300.000">  1  4  2 -1</clus>
</clustering>
</event>
<event>
 6    1  0.9964252E-012  0.3000000E+03  0.7818608E-02  0.1093470E+00
          1   -1    0    0  502    0  0.00000000000E+00  0.00000000000E+00  0.25771893139E+03  0.25771893139E+03  0.00000000000E+00 0.  1.
         13   -1    0    0    0    0 -0.00000000000E+00 -0.00000000000E+00 -0.27500000000E+03  0.27500000000E+03  0.00000000000E+00 0.  1.
    9000005    2    1    2  501    0 -0.33954781708E+02  0.29670560987E+00 -0.36679822456E+02  0.49361232216E+03  0.49107504516E+03 0.  0.
         13    1    3    3    0    0 -0.67405918995E+02 -0.13804204741E+03 -0.21576095984E+03  0.26486214633E+03  0.00000000000E+00 0.  1.
          3    1    3    3  501    0  0.33451137287E+02  0.13833875302E+03  0.17908113738E+03  0.22875017582E+03  0.00000000000E+00 0.  1.
         21    1    1    2  502  501  0.33954781708E+02 -0.29670560987E+00  0.19398753849E+02  0.39106609237E+02  0.00000000000E+00 0.  1.
<scales pt_clust_4="550.00000" pt_clust_5="550.00000" pt_clust_6="33.95608"></scales>
<mgrwt>
<rscale>  0 0.30000000E+03</rscale>
<asrwt>  1 0.33956078E+02</asrwt>
<pdfrwt beam="1">  1        1 0.93715975E+00 0.30000000E+03</pdfrwt>
<pdfrwt beam="2">0</pdfrwt>
<totfact> 0.21283686E-05</totfact>
</mgrwt>
<clustering>
<clus scale="   33.956">  1  6  2 -1</clus>
<clus scale="  491.075">  4  5 -1 -1</clus>
<clus scale="  300.000">  1  4  2 -1</clus>
</clustering>
</event>
<event>
 6    1  0.9964252E-012  0.3000000E+03  0.7818608E-02  0.1093470E+00
          1   -1    0    0  502    0  0.00000000000E+00  0.00000000000E+00  0.22232899114E+03  0.22232899114E+03  0.00000000000E+00 0.  1.
         13   -1    0    0    0    0 -0.00000000000E+00 -0.00000000000E+00 -0.27500000000E+03  0.27500000000E+03  0.00000000000E+00 0.  1.
    9000005    2    1    2  501    0 -0.19373227106E+02 -0.25269179915E+02 -0.49136799587E+02  0.46529238680E+03  0.46159368146E+03 0.  0.
         13    1    3    3    0    0  0.21724395565E+03  0.21473227908E+02 -0.50634253672E+02  0.22409788805E+03  0.00000000000E+00 0.  1.
          1    1    3    3  501    0 -0.23661718275E+03 -0.46742407823E+02  0.14974540849E+01  0.24119449876E+03  0.00000000000E+00 0.  1.
         21    1    1    2  502  501  0.19373227106E+02  0.25269179915E+02 -0.35342092742E+01  0.32036604334E+02  0.00000000000E+00 0. -1.
<scales pt_clust_4="550.00000" pt_clust_5="550.00000" pt_clust_6="31.84108"></scales>
<mgrwt>
<rscale>  0 0.30000000E+03</rscale>
<asrwt>  1 0.31841080E+02</asrwt>
<pdfrwt beam="1">  1        1 0.80846906E+00 0.30000000E+03</pdfrwt>
<pdfrwt beam="2">0</pdfrwt>
<totfact> 0.91248564E-04</totfact>
</mgrwt>
<clustering>
<clus scale="   31.841">  1  6  2 -1</clus>
<clus scale="  461.594">  4  5 -1 -1</clus>
<clus scale="  300.000">  1  4  2 -1</clus>
</clustering>
</event>
<event>
 6    1  0.9964252E-012  0.3000000E+03  0.7818608E-02  0.1093470E+00
          1   -1    0    0  502    0  0.00000000000E+00  0.00000000000E+00  0.23926067776E+03  0.23926067776E+03  0.00000000000E+00 0.  1.
         13   -1    0    0    0    0 -0.00000000000E+00 -0.00000000000E+00 -0.27500000000E+03  0.27500000000E+03  0.00000000000E+00 0.  1.
    9000005    2    1    2  501    0  0.34986810865E+02 -0.36366718319E+01 -0.47375801753E+02  0.47721057693E+03  0.47354848308E+03 0.  0.
         13    1    3    3    0    0  0.20421823068E+03 -0.13245988892E+03  0.41094763006E+02  0.24685924625E+03  0.00000000000E+00 0.  1.
          3    1    3    3  501    0 -0.16923141981E+03  0.12882321709E+03 -0.88470564760E+02  0.23035133067E+03  0.00000000000E+00 0.  1.
         21    1    1    2  502  501 -0.34986810865E+02  0.36366718319E+01  0.11636479518E+02  0.37050100838E+02  0.00000000000E+00 0. -1.
<scales pt_clust_4="550.00000" pt_clust_5="550.00000" pt_clust_6="35.17531"></scales>
<mgrwt>
<rscale>  0 0.30000000E+03</rscale>
<asrwt>  1 0.35175308E+02</asrwt>
<pdfrwt beam="1">  1        1 0.87003883E+00 0.30000000E+03</pdfrwt>
<pdfrwt beam="2">0</pdfrwt>
<totfact> 0.25278361E-04</totfact>
</mgrwt>
<clustering>
<clus scale="   35.175">  1  6  2 -1</clus>
<clus scale="  473.548">  4  5 -1 -1</clus>
<clus scale="  300.000">  1  4  2 -1</clus>
</clustering>
</event>
<event>
 6    1  0.9964252E-012  0.3000000E+03  0.7818608E-02  0.1093470E+00
          1   -1    0    0  502    0  0.00000000000E+00  0.00000000000E+00  0.24246107689E+03  0.24246107689E+03  0.00000000000E+00 0.  1.
         13   -1    0    0    0    0 -0.00000000000E+00 -0.00000000000E+00 -0.27500000000E+03  0.27500000000E+03  0.00000000000E+00 0.  1.
    9000005    2    1    2  501    0  0.90145807568E+01  0.29467962918E+02 -0.69961112099E+02  0.46898382724E+03  0.46271119449E+03 0.  0.
         13    1    3    3    0    0 -0.77765018449E+02 -0.98551816331E+02  0.15282532454E+03  0.19777623320E+03  0.00000000000E+00 0.  1.
          3    1    3    3  501    0  0.86779599206E+02  0.12801977925E+03 -0.22278643664E+03  0.27120759405E+03  0.00000000000E+00 0.  1.
         21    1    1    2  502  501 -0.90145807568E+01 -0.29467962918E+02  0.37422188989E+02  0.48477249648E+02  0.00000000000E+00 0.  1.
<scales pt_clust_4="550.00000" pt_clust_5="550.00000" pt_clust_6="30.81596"></scales>
<mgrwt>
<rscale>  0 0.30000000E+03</rscale>
<asrwt>  1 0.30815962E+02</asrwt>
<pdfrwt beam="1">  1        1 0.88167664E+00 0.30000000E+03</pdfrwt>
<pdfrwt beam="2">0</pdfrwt>
<totfact> 0.19256676E-04</totfact>
</mgrwt>
<clustering>
<clus scale="   30.816">  1  6  2 -1</clus>
<clus scale="  462.711">  4  5 -1 -1</clus>
<clus scale="  300.000">  1  4  2 -1</clus>
</clustering>
</event>
<event>
 6    1  0.9964252E-012  0.3000000E+03  0.7818608E-02  0.1093470E+00
          1   -1    0    0  502    0  0.00000000000E+00  0.00000000000E+00  0.22851479591E+03  0.22851479591E+03  0.00000000000E+00 0.  1.
         13   -1    0    0    0    0 -0.00000000000E+00 -0.00000000000E+00 -0.27500000000E+03  0.27500000000E+03  0.00000000000E+00 0.  1.
    9000005    2    1    2  501    0  0.87570210137E+01 -0.31516238913E+02 -0.62399910624E+02  0.46713847646E+03  0.46179502879E+03 0.  0.
         13    1    3    3    0    0  0.16445566883E+03 -0.15009757820E+03 -0.13268026909E+03  0.25918912747E+03  0.00000000000E+00 0.  1.
          1    1    3    3  501    0 -0.15569864782E+03  0.11858133929E+03  0.70280358471E+02  0.20794934899E+03  0.00000000000E+00 0.  1.
         21    1    1    2  502  501 -0.87570210137E+01  0.31516238913E+02  0.15914706530E+02  0.36376319443E+02  0.00000000000E+00 0. -1.
<scales pt_clust_4="550.00000" pt_clust_5="550.00000" pt_clust_6="32.71022"></scales>
<mgrwt>
<rscale>  0 0.30000000E+03</rscale>
<asrwt>  1 0.32710224E+02</asrwt>
<pdfrwt beam="1">  1        1 0.83096289E+00 0.30000000E+03</pdfrwt>
<pdfrwt beam="2">0</pdfrwt>
<totfact> 0.58791222E-04</totfact>
</mgrwt>
<clustering>
<clus scale="   32.710">  1  6  2 -1</clus>
<clus scale="  461.795">  4  5 -1 -1</clus>
<clus scale="  300.000">  1  4  2 -1</clus>
</clustering>
</event>
<event>
 6    1  0.9964252E-012  0.3000000E+03  0.7818608E-02  0.1093470E+00
          1   -1    0    0  502    0  0.00000000000E+00  0.00000000000E+00  0.24561453764E+03  0.24561453764E+03  0.00000000000E+00 0.  1.
         13   -1    0    0    0    0 -0.00000000000E+00 -0.00000000000E+00 -0.27500000000E+03  0.27500000000E+03  0.00000000000E+00 0.  1.
    9000005    2    1    2  501    0  0.25001197146E+02 -0.17703996330E+02 -0.63580606717E+02  0.47470376284E+03  0.46942803236E+03 0.  0.
         13    1    3    3    0    0 -0.12646666834E+03 -0.18293981959E+03  0.42974042527E+02  0.22651173066E+03  0.00000000000E+00 0.  1.
          3    1    3    3  501    0  0.15146786549E+03  0.16523582326E+03 -0.10655464924E+03  0.24819203219E+03  0.00000000000E+00 0.  1.
         21    1    1    2  502  501 -0.25001197146E+02  0.17703996330E+02  0.34195144356E+02  0.45910774796E+02  0.00000000000E+00 0.  1.
<scales pt_clust_4="550.00000" pt_clust_5="550.00000" pt_clust_6="30.63481"></scales>
<mgrwt>
<rscale>  0 0.30000000E+03</rscale>
<asrwt>  1 0.30634806E+02</asrwt>
<pdfrwt beam="1">  1        1 0.89314377E+00 0.30000000E+03</pdfrwt>
<pdfrwt beam="2">0</pdfrwt>
<totfact> 0.13579218E-04</totfact>
</mgrwt>
<clustering>
<clus scale="   30.635">  1  6  2 -1</clus>
<clus scale="  469.428">  4  5 -1 -1</clus>
<clus scale="  300.000">  1  4  2 -1</clus>
</clustering>
</event>
<event>
 6    1  0.9964252E-012  0.3000000E+03  0.7818608E-02  0.1093470E+00
          1   -1    0    0  502    0  0.00000000000E+00  0.00000000000E+00  0.24608006579E+03  0.24608006579E+03  0.00000000000E+00 0.  1.
         13   -1    0    0    0    0 -0.00000000000E+00 -0.00000000000E+00 -0.27500000000E+03  0.27500000000E+03  0.00000000000E+00 0.  1.
    9000005    2    1    2  501    0 -0.36384791177E+02  0.15862172025E+02 -0.59996102278E+02  0.47066985103E+03  0.46513988740E+03 0.  0.
         13    1    3    3    0    0  0.11917257705E+03 -0.20540574417E+02  0.15889449184E+03  0.19967843613E+03  0.00000000000E+00 0.  1.
          3    1    3    3  501    0 -0.15555736823E+03  0.36402746441E+02 -0.21889059412E+03  0.27099141490E+03  0.00000000000E+00 0.  1.
         21    1    1    2  502  501  0.36384791177E+02 -0.15862172025E+02  0.31076168073E+02  0.50410214763E+02  0.00000000000E+00 0.  1.
<scales pt_clust_4="550.00000" pt_clust_5="550.00000" pt_clust_6="39.69208"></scales>
<mgrwt>
<rscale>  0 0.30000000E+03</rscale>
<asrwt>  1 0.39692084E+02</asrwt>
<pdfrwt beam="1">  1        1 0.89483660E+00 0.30000000E+03</pdfrwt>
<pdfrwt beam="2">0</pdfrwt>
<totfact> 0.12371493E-04</totfact>
</mgrwt>
<clustering>
<clus scale="   39.692">  1  6  2 -1</clus>
<clus scale="  465.140">  4  5 -1 -1</clus>
<clus scale="  300.000">  1  4  2 -1</clus>
</clustering>
</event>
<event>
 6    1  0.9964252E-012  0.3000000E+03  0.7818608E-02  0.1093470E+00
          1   -1    0    0  502    0  0.00000000000E+00  0.00000000000E+00  0.22466671830E+03  0.22466671830E+03  0.00000000000E+00 0.  1.
         13   -1    0    0    0    0 -0.00000000000E+00 -0.00000000000E+00 -0.27500000000E+03  0.27500000000E+03  0.00000000000E+00 0.  1.
    9000005    2    1    2  501    0 -0.18216910987E+02 -0.28729990734E+02 -0.65344763170E+02  0.46248321673E+03  0.45657805408E+03 0.  0.
         13    1    3    3    0    0  0.17275385961E+03 -0.29295521112E+02  0.10694537702E+03  0.20527892545E+03  0.00000000000E+00 0.  1.
          1    1    3    3  501    0 -0.19097077060E+03  0.56553037878E+00 -0.17229014019E+03  0.25720429128E+03  0.00000000000E+00 0.  1.
         21    1    1    2  502  501  0.18216910987E+02  0.28729990734E+02  0.15011481473E+02  0.37183501577E+02  0.00000000000E+00 0.  1.
<scales pt_clust_4="550.00000" pt_clust_5="550.00000" pt_clust_6="34.01865"></scales>
<mgrwt>
<rscale>  0 0.30000000E+03</rscale>
<asrwt>  1 0.34018645E+02</asrwt>
<pdfrwt beam="1">  1        1 0.81696988E+00 0.30000000E+03</pdfrwt>
<pdfrwt beam="2">0</pdfrwt>
<totfact> 0.77123978E-04</totfact>
</mgrwt>
<clustering>
<clus scale="   34.019">  1  6  2 -1</clus>
<clus scale="  456.578">  4  5 -1 -1</clus>
<clus scale="  300.000">  1  4  2 -1</clus>
</clustering>
</event>
<event>
 6    1  0.9964252E-012  0.3000000E+03  0.7818608E-02  0.1093470E+00
          1   -1    0    0  502    0  0.00000000000E+00  0.00000000000E+00  0.23160366768E+03  0.23160366768E+03  0.00000000000E+00 0.  1.
         13   -1    0    0    0    0 -0.00000000000E+00 -0.00000000000E+00 -0.27500000000E+03  0.27500000000E+03  0.00000000000E+00 0.  1.
    9000005    2    1    2  501    0  0.50849024491E+01  0.31906420308E+02 -0.44281728219E+02  0.47428247006E+03  0.47110414354E+03 0.  0.
         13    1    3    3    0    0 -0.12294893944E+02 -0.13323976955E+03 -0.20394304394E+03  0.24391958875E+03  0.00000000000E+00 0.  1.
          3    1    3    3  501    0  0.17379796393E+02  0.16514618986E+03  0.15966131572E+03  0.23036288131E+03  0.00000000000E+00 0.  1.
         21    1    1    2  502  501 -0.50849024491E+01 -0.31906420308E+02  0.88539590051E+00  0.32321197621E+02  0.00000000000E+00 0. -1.
<scales pt_clust_4="550.00000" pt_clust_5="550.00000" pt_clust_6="32.30907"></scales>
<mgrwt>
<rscale>  0 0.30000000E+03</rscale>
<asrwt>  1 0.32309068E+02</asrwt>
<pdfrwt beam="1">  1        1 0.84219516E+00 0.30000000E+03</pdfrwt>
<pdfrwt beam="2">0</pdfrwt>
<totfact> 0.48463636E-04</totfact>
</mgrwt>
<clustering>
<clus scale="   32.309">  1  6  2 -1</clus>
<clus scale="  471.104">  4  5 -1 -1</clus>
<clus scale="  300.000">  1  4  2 -1</clus>
</clustering>
</event>
<event>
 6    1  0.9964252E-012  0.3000000E+03  0.7818608E-02  0.1093470E+00
          1   -1    0    0  502    0  0.00000000000E+00  0.00000000000E+00  0.21875582879E+03  0.21875582879E+03  0.00000000000E+00 0.  1.
         13   -1    0    0    0    0 -0.00000000000E+00 -0.00000000000E+00 -0.27500000000E+03  0.27500000000E+03  0.00000000000E+00 0.  1.
    9000005    2    1    2  501    0 -0.31013131062E+02  0.32340666566E+01 -0.53211322956E+02  0.46242738079E+03  0.45829615330E+03 0.  0.
         13    1    3    3    0    0 -0.23099444230E+03  0.56160784249E+02  0.29684822660E+02  0.23956972838E+03  0.00000000000E+00 0.  1.
          3    1    3    3  501    0  0.19998131124E+03 -0.52926717593E+02 -0.82896145616E+02  0.22285765241E+03  0.00000000000E+00 0.  1.
         21    1    1    2  502  501  0.31013131062E+02 -0.32340666566E+01 -0.30328482585E+01  0.31328447998E+02  0.00000000000E+00 0.  1.
<scales pt_clust_4="550.00000" pt_clust_5="550.00000" pt_clust_6="31.18130"></scales>
<mgrwt>
<rscale>  0 0.30000000E+03</rscale>
<asrwt>  1 0.31181300E+02</asrwt>
<pdfrwt beam="1">  1        1 0.79547574E+00 0.30000000E+03</pdfrwt>
<pdfrwt beam="2">0</pdfrwt>
<totfact> 0.11436348E-03</totfact>
</mgrwt>
<clustering>
<clus scale="   31.181">  1  6  2 -1</clus>
<clus scale="  458.296">  4  5 -1 -1</clus>
<clus scale="  300.000">  1  4  2 -1</clus>
</clustering>
</event>
<event>
 6    1  0.9964252E-012  0.3000000E+03  0.7818608E-02  0.1093470E+00
          1   -1    0    0  502    0  0.00000000000E+00  0.00000000000E+00  0.23576100601E+03  0.23576100601E+03  0.00000000000E+00 0.  1.
         13   -1    0    0    0    0 -0.00000000000E+00 -0.00000000000E+00 -0.27500000000E+03  0.27500000000E+03  0.00000000000E+00 0.  1.
    9000005    2    1    2  501    0 -0.58868213669E+01 -0.35404579321E+02 -0.67369589655E+02  0.46515980740E+03  0.45885383937E+03 0.  0.
         13    1    3    3    0    0 -0.51407719260E+02 -0.46765861531E+02 -0.25884908481E+03  0.26801613405E+03  0.00000000000E+00 0.  1.
          1    1    3    3  501    0  0.45520897893E+02  0.11361282210E+02  0.19147949515E+03  0.19714367335E+03  0.00000000000E+00 0.  1.
         21    1    1    2  502  501  0.58868213669E+01  0.35404579321E+02  0.28130595669E+02  0.45601198618E+02  0.00000000000E+00 0.  1.
<scales pt_clust_4="550.00000" pt_clust_5="550.00000" pt_clust_6="35.89065"></scales>
<mgrwt>
<rscale>  0 0.30000000E+03</rscale>
<asrwt>  1 0.35890652E+02</asrwt>
<pdfrwt beam="1">  1        1 0.85731275E+00 0.30000000E+03</pdfrwt>
<pdfrwt beam="2">0</pdfrwt>
<totfact> 0.34358843E-04</totfact>
</mgrwt>
<clustering>
<clus scale="   35.891">  1  6  2 -1</clus>
<clus scale="  458.854">  4  5 -1 -1</clus>
<clus scale="  300.000">  1  4  2 -1</clus>
</clustering>
</event>
<event>
 6    1  0.9964252E-012  0.3000000E+03  0.7818608E-02  0.1093470E+00
          1   -1    0    0  502    0  0.00000000000E+00  0.00000000000E+00  0.23096847805E+03  0.23096847805E+03  0.00000000000E+00 0.  1.
         13   -1    0    0    0    0 -0.00000000000E+00 -0.00000000000E+00 -0.27500000000E+03  0.27500000000E+03  0.00000000000E+00 0.  1.
    9000005    2    1    2  501    0  0.81087212290E+01 -0.29003692613E+02 -0.69597362724E+02  0.46646432941E+03  0.46025885344E+03 0.  0.
         13    1    3    3    0    0  0.16386080233E+03 -0.89105709937E+02  0.11377214811E+03  0.21848178818E+03  0.00000000000E+00 0.  1.
          3    1    3    3  501    0 -0.15575208110E+03  0.60102017324E+02 -0.18336951083E+03  0.24798254123E+03  0.00000000000E+00 0.  1.
         21    1    1    2  502  501 -0.81087212290E+01  0.29003692613E+02  0.25565840776E+02  0.39504148639E+02  0.00000000000E+00 0. -1.
<scales pt_clust_4="550.00000" pt_clust_5="550.00000" pt_clust_6="30.11587"></scales>
<mgrwt>
<rscale>  0 0.30000000E+03</rscale>
<asrwt>  1 0.30115869E+02</asrwt>
<pdfrwt beam="1">  1        1 0.83988537E+00 0.30000000E+03</pdfrwt>
<pdfrwt beam="2">0</pdfrwt>
<totfact> 0.51245345E-04</totfact>
</mgrwt>
<clustering>
<clus scale="   30.116">  1  6  2 -1</clus>
<clus scale="  460.259">  4  5 -1 -1</clus>
<clus scale="  300.000">  1  4  2 -1</clus>
</clustering>
</event>
<event>
 6    1  0.9964252E-012  0.3000000E+03  0.7818608E-02  0.1093470E+00
          1   -1    0    0  502    0  0.00000000000E+00  0.00000000000E+00  0.23355819241E+03  0.23355819241E+03  0.00000000000E+00 0.  1.
         13   -1    0    0    0    0 -0.00000000000E+00 -0.00000000000E+00 -0.27500000000E+03  0.27500000000E+03  0.00000000000E+00 0.  1.
    9000005    2    1    2  501    0 -0.28131981341E+02 -0.23828963940E+02 -0.38061931198E+02  0.47153588209E+03  0.46854898313E+03 0.  0.
         13    1    3    3    0    0 -0.12493072831E+03  0.95077255258E+02 -0.19619419412E+03  0.25127581091E+03  0.00000000000E+00 0.  1.
          3    1    3    3  501    0  0.96798746972E+02 -0.11890621920E+03  0.15813226292E+03  0.22026007118E+03  0.00000000000E+00 0.  1.
         21    1    1    2  502  501  0.28131981341E+02  0.23828963940E+02 -0.33798763970E+01  0.37022310315E+02  0.00000000000E+00 0.  1.
<scales pt_clust_4="550.00000" pt_clust_5="550.00000" pt_clust_6="36.86773"></scales>
<mgrwt>
<rscale>  0 0.30000000E+03</rscale>
<asrwt>  1 0.36867726E+02</asrwt>
<pdfrwt beam="1">  1        1 0.84930252E+00 0.30000000E+03</pdfrwt>
<pdfrwt beam="2">0</pdfrwt>
<totfact> 0.40916145E-04</totfact>
</mgrwt>
<clustering>
<clus scale="   36.868">  1  6  2 -1</clus>
<clus scale="  468.549">  4  5 -1 -1</clus>
<clus scale="  300.000">  1  4  2 -1</clus>
</clustering>
</event>
<event>
 6    1  0.9964252E-012  0.3000000E+03  0.7818608E-02  0.1093470E+00
          1   -1    0    0  502    0  0.00000000000E+00  0.00000000000E+00  0.23440535107E+03  0.23440535107E+03  0.00000000000E+00 0.  1.
         13   -1    0    0    0    0 -0.00000000000E+00 -0.00000000000E+00 -0.27500000000E+03  0.27500000000E+03  0.00000000000E+00 0.  1.
    9000005    2    1    2  501    0 -0.37733433737E+02  0.14314548398E+02 -0.55736615158E+02  0.46630085642E+03  0.46119540340E+03 0.  0.
         13    1    3    3    0    0  0.22623264244E+02 -0.89174499605E+02 -0.23404797769E+03  0.25148033586E+03  0.00000000000E+00 0.  1.
          3    1    3    3  501    0 -0.60356697981E+02  0.10348904800E+03  0.17831136253E+03  0.21482052056E+03  0.00000000000E+00 0.  1.
         21    1    1    2  502  501  0.37733433737E+02 -0.14314548398E+02  0.15141966226E+02  0.43104494645E+02  0.00000000000E+00 0.  1.
<scales pt_clust_4="550.00000" pt_clust_5="550.00000" pt_clust_6="40.35738"></scales>
<mgrwt>
<rscale>  0 0.30000000E+03</rscale>
<asrwt>  1 0.40357382E+02</asrwt>
<pdfrwt beam="1">  1        1 0.85238309E+00 0.30000000E+03</pdfrwt>
<pdfrwt beam="2">0</pdfrwt>
<totfact> 0.37629059E-04</totfact>
</mgrwt>
<clustering>
<clus scale="   40.357">  1  6  2 -1</clus>
<clus scale="  461.195">  4  5 -1 -1</clus>
<clus scale="  300.000">  1  4  2 -1</clus>
</clustering>
</event>
<event>
 6    1  0.9964252E-012  0.3000000E+03  0.7818608E-02  0.1093470E+00
          1   -1    0    0  502    0  0.00000000000E+00  0.00000000000E+00  0.23048295170E+03  0.23048295170E+03  0.00000000000E+00 0.  1.
         13   -1    0    0    0    0 -0.00000000000E+00 -0.00000000000E+00 -0.27500000000E+03  0.27500000000E+03  0.00000000000E+00 0.  1.
    9000005    2    1    2  501    0  0.24633108463E+02  0.18747049919E+02 -0.67254406023E+02  0.46707423720E+03  0.46116910783E+03 0.  0.
         13    1    3    3    0    0  0.13137405821E+03  0.19543253237E+03 -0.10395899935E+03  0.25741113307E+03  0.00000000000E+00 0.  1.
          1    1    3    3  501    0 -0.10674094975E+03 -0.17668548245E+03  0.36704593329E+02  0.20966310413E+03  0.00000000000E+00 0.  1.
         21    1    1    2  502  501 -0.24633108463E+02 -0.18747049919E+02  0.22737357719E+02  0.38408714496E+02  0.00000000000E+00 0.  1.
<scales pt_clust_4="550.00000" pt_clust_5="550.00000" pt_clust_6="30.95548"></scales>
<mgrwt>
<rscale>  0 0.30000000E+03</rscale>
<asrwt>  1 0.30955483E+02</asrwt>
<pdfrwt beam="1">  1        1 0.83811982E+00 0.30000000E+03</pdfrwt>
<pdfrwt beam="2">0</pdfrwt>
<totfact> 0.52549735E-04</totfact>
</mgrwt>
<clustering>
<clus scale="   30.955">  1  6  2 -1</clus>
<clus scale="  461.169">  4  5 -1 -1</clus>
<clus scale="  300.000">  1  4  2 -1</clus>
</clustering>
</event>
<event>
 6    1  0.9964252E-012  0.3000000E+03  0.7818608E-02  0.1093470E+00
          1   -1    0    0  502    0  0.00000000000E+00  0.00000000000E+00  0.22396123051E+03  0.22396123051E+03  0.00000000000E+00 0.  1.
         13   -1    0    0    0    0 -0.00000000000E+00 -0.00000000000E+00 -0.27500000000E+03  0.27500000000E+03  0.00000000000E+00 0.  1.
    9000005    2    1    2  501    0  0.31695302958E+02  0.17129088138E+01 -0.66418201063E+02  0.46369009214E+03  0.45780956503E+03 0.  0.
         13    1    3    3    0    0 -0.17290592828E+03  0.20042854817E+01  0.10017920162E+03  0.19984081073E+03  0.00000000000E+00 0.  1.
          3    1    3    3  501    0  0.20460123124E+03 -0.29137666786E+00 -0.16659740268E+03  0.26384928142E+03  0.00000000000E+00 0.  1.
         21    1    1    2  502  501 -0.31695302958E+02 -0.17129088138E+01  0.15379431575E+02  0.35271138368E+02  0.00000000000E+00 0. -1.
<scales pt_clust_4="550.00000" pt_clust_5="550.00000" pt_clust_6="31.74155"></scales>
<mgrwt>
<rscale>  0 0.30000000E+03</rscale>
<asrwt>  1 0.31741555E+02</asrwt>
<pdfrwt beam="1">  1        1 0.81440447E+00 0.30000000E+03</pdfrwt>
<pdfrwt beam="2">0</pdfrwt>
<totfact> 0.81987455E-04</totfact>
</mgrwt>
<clustering>
<clus scale="   31.742">  1  6  2 -1</clus>
<clus scale="  457.810">  4  5 -1 -1</clus>
<clus scale="  300.000">  1  4  2 -1</clus>
</clustering>
</event>
<event>
 6    1  0.9964252E-012  0.3000000E+03  0.7818608E-02  0.1093470E+00
          1   -1    0    0  502    0  0.00000000000E+00  0.00000000000E+00  0.23423876339E+03  0.23423876339E+03  0.00000000000E+00 0.  1.
         13   -1    0    0    0    0 -0.00000000000E+00 -0.00000000000E+00 -0.27500000000E+03  0.27500000000E+03  0.00000000000E+00 0.  1.
    9000005    2    1    2  501    0  0.23538266725E+02  0.21390003933E+02 -0.64389712443E+02  0.46961696208E+03  0.46409317355E+03 0.  0.
         13    1    3    3    0    0  0.51476284994E+02  0.98117161829E+02  0.18032102351E+03  0.21164228520E+03  0.00000000000E+00 0.  1.
          3    1    3    3  501    0 -0.27938018268E+02 -0.76727157896E+02 -0.24471073596E+03  0.25797467689E+03  0.00000000000E+00 0.  1.
         21    1    1    2  502  501 -0.23538266725E+02 -0.21390003933E+02  0.23628475834E+02  0.39621801309E+02  0.00000000000E+00 0.  1.
<scales pt_clust_4="550.00000" pt_clust_5="550.00000" pt_clust_6="31.80538"></scales>
<mgrwt>
<rscale>  0 0.30000000E+03</rscale>
<asrwt>  1 0.31805381E+02</asrwt>
<pdfrwt beam="1">  1        1 0.85177732E+00 0.30000000E+03</pdfrwt>
<pdfrwt beam="2">0</pdfrwt>
<totfact> 0.39864773E-04</totfact>
</mgrwt>
<clustering>
<clus scale="   31.805">  1  6  2 -1</clus>
<clus scale="  464.093">  4  5 -1 -1</clus>
<clus scale="  300.000">  1  4  2 -1</clus>
</clustering>
</event>
<event>
 6    1  0.9964252E-012  0.3000000E+03  0.7818608E-02  0.1093470E+00
          1   -1    0    0  502    0  0.00000000000E+00  0.00000000000E+00  0.22733033278E+03  0.22733033278E+03  0.00000000000E+00 0.  1.
         13   -1    0    0    0    0 -0.00000000000E+00 -0.00000000000E+00 -0.27500000000E+03  0.27500000000E+03  0.00000000000E+00 0.  1.
    9000005    2    1    2  501    0  0.16885321271E+02  0.34079418470E+02 -0.56404021737E+02  0.46330713729E+03  0.45828546666E+03 0.  0.
         13    1    3    3    0    0  0.16629452168E+03  0.18195769134E+03 -0.34554789037E+01  0.24652466350E+03  0.00000000000E+00 0.  1.
          3    1    3    3  501    0 -0.14940920041E+03 -0.14787827287E+03 -0.52948542833E+02  0.21678247379E+03  0.00000000000E+00 0.  1.
         21    1    1    2  502  501 -0.16885321271E+02 -0.34079418470E+02  0.87343545161E+01  0.39023195493E+02  0.00000000000E+00 0.  1.
<scales pt_clust_4="550.00000" pt_clust_5="550.00000" pt_clust_6="38.03315"></scales>
<mgrwt>
<rscale>  0 0.30000000E+03</rscale>
<asrwt>  1 0.38033154E+02</asrwt>
<pdfrwt beam="1">  1        1 0.82665576E+00 0.30000000E+03</pdfrwt>
<pdfrwt beam="2">0</pdfrwt>
<totfact> 0.62175028E-04</totfact>
</mgrwt>
<clustering>
<clus scale="   38.033">  1  6  2 -1</clus>
<clus scale="  458.285">  4  5 -1 -1</clus>
<clus scale="  300.000">  1  4  2 -1</clus>
</clustering>
</event>
<event>
 6    1  0.9964252E-012  0.3000000E+03  0.7818608E-02  0.1093470E+00
          1   -1    0    0  502    0  0.00000000000E+00  0.00000000000E+00  0.24238072543E+03  0.24238072543E+03  0.00000000000E+00 0.  1.
         13   -1    0    0    0    0 -0.00000000000E+00 -0.00000000000E+00 -0.27500000000E+03  0.27500000000E+03  0.00000000000E+00 0.  1.
    9000005    2    1    2  501    0  0.10734281783E+02  0.28345366869E+02 -0.62109820644E+02  0.47509151952E+03  0.47003791068E+03 0.  0.
         13    1    3    3    0    0 -0.26310522662E+02  0.52176454752E+02 -0.26300790612E+03  0.26942120316E+03  0.00000000000E+00 0.  1.
          3    1    3    3  501    0  0.37044804445E+02 -0.23831087883E+02  0.20089808547E+03  0.20567031636E+03  0.00000000000E+00 0.  1.
         21    1    1    2  502  501 -0.10734281783E+02 -0.28345366869E+02  0.29490546071E+02  0.42289205903E+02  0.00000000000E+00 0.  1.
<scales pt_clust_4="550.00000" pt_clust_5="550.00000" pt_clust_6="30.30981"></scales>
<mgrwt>
<rscale>  0 0.30000000E+03</rscale>
<asrwt>  1 0.30309811E+02</asrwt>
<pdfrwt beam="1">  1        1 0.88138446E+00 0.30000000E+03</pdfrwt>
<pdfrwt beam="2">0</pdfrwt>
<totfact> 0.19486076E-04</totfact>
</mgrwt>
<clustering>
<clus scale="   30.310">  1  6  2 -1</clus>
<clus scale="  470.038">  4  5 -1 -1</clus>
<clus scale="  300.000">  1  4  2 -1</clus>
</clustering>
</event>
<event>
 6    1  0.9964252E-012  0.3000000E+03  0.7818608E-02  0.1093470E+00
          1   -1    0    0  502    0  0.00000000000E+00  0.00000000000E+00  0.22850453309E+03  0.22850453309E+03  0.00000000000E+00 0.  1.
         13   -1    0    0    0    0 -0.00000000000E+00 -0.00000000000E+00 -0.27500000000E+03  0.27500000000E+03  0.00000000000E+00 0.  1.
    9000005    2    1    2  501    0  0.30709494122E+02  0.21867217910E+02 -0.63605003644E+02  0.46210423725E+03  0.45615072218E+03 0.  0.
         13    1    3    3    0    0 -0.11931045276E+03  0.18412517908E+03  0.31263648595E+02  0.22161787255E+03  0.00000000000E+00 0.  1.
          1    1    3    3  501    0  0.15001994688E+03 -0.16225796117E+03 -0.94868652238E+02  0.24048636470E+03  0.00000000000E+00 0.  1.
         21    1    1    2  502  501 -0.30709494122E+02 -0.21867217910E+02  0.17109536730E+02  0.41400295839E+02  0.00000000000E+00 0.  1.
<scales pt_clust_4="550.00000" pt_clust_5="550.00000" pt_clust_6="37.69945"></scales>
<mgrwt>
<rscale>  0 0.30000000E+03</rscale>
<asrwt>  1 0.37699446E+02</asrwt>
<pdfrwt beam="1">  1        1 0.83092557E+00 0.30000000E+03</pdfrwt>
<pdfrwt beam="2">0</pdfrwt>
<totfact> 0.57290874E-04</totfact>
</mgrwt>
<clustering>
<clus scale="   37.699">  1  6  2 -1</clus>
<clus scale="  456.151">  4  5 -1 -1</clus>
<clus scale="  300.000">  1  4  2 -1</clus>
</clustering>
</event>
<event>
 6    1  0.9964252E-012  0.3000000E+03  0.7818608E-02  0.1093470E+00
          1   -1    0    0  502    0  0.00000000000E+00  0.00000000000E+00  0.22706072870E+03  0.22706072870E+03  0.00000000000E+00 0.  1.
         13   -1    0    0    0    0 -0.00000000000E+00 -0.00000000000E+00 -0.27500000000E+03  0.27500000000E+03  0.00000000000E+00 0.  1.
    9000005    2    1    2  501    0  0.33708148948E+02 -0.98220681026E+01 -0.52590332295E+02  0.46664399966E+03  0.46233988260E+03 0.  0.
         13    1    3    3    0    0  0.16929640177E+03 -0.94728561929E+02  0.12252912036E+03  0.22945186300E+03  0.00000000000E+00 0.  1.
          3    1    3    3  501    0 -0.13558825282E+03  0.84906493826E+02 -0.17511945265E+03  0.23719213666E+03  0.00000000000E+00 0.  1.
         21    1    1    2  502  501 -0.33708148948E+02  0.98220681026E+01  0.46510609943E+01  0.35416729037E+02  0.00000000000E+00 0.  1.
<scales pt_clust_4="550.00000" pt_clust_5="550.00000" pt_clust_6="35.11000"></scales>
<mgrwt>
<rscale>  0 0.30000000E+03</rscale>
<asrwt>  1 0.35110003E+02</asrwt>
<pdfrwt beam="1">  1        1 0.82567538E+00 0.30000000E+03</pdfrwt>
<pdfrwt beam="2">0</pdfrwt>
<totfact> 0.64380334E-04</totfact>
</mgrwt>
<clustering>
<clus scale="   35.110">  1  6  2 -1</clus>
<clus scale="  462.340">  4  5 -1 -1</clus>
<clus scale="  300.000">  1  4  2 -1</clus>
</clustering>
</event>
<event>
 6    1  0.9964252E-012  0.3000000E+03  0.7818608E-02  0.1093470E+00
          1   -1    0    0  502    0  0.00000000000E+00  0.00000000000E+00  0.26284104612E+03  0.26284104612E+03  0.00000000000E+00 0.  1.
         13   -1    0    0    0    0 -0.00000000000E+00 -0.00000000000E+00 -0.27500000000E+03  0.27500000000E+03  0.00000000000E+00 0.  1.
    9000005    2    1    2  501    0 -0.23460830248E+02 -0.19428308683E+02  0.12322503690E+02  0.49876149265E+03  0.49767792067E+03 0.  0.
         13    1    3    3    0    0 -0.10663148311E+03 -0.24013611139E+03  0.75286985289E+01  0.26285415440E+03  0.00000000000E+00 0.  1.
          3    1    3    3  501    0  0.83170652858E+02  0.22070780271E+03  0.47938051608E+01  0.23590733825E+03  0.00000000000E+00 0.  1.
         21    1    1    2  502  501  0.23460830248E+02  0.19428308683E+02 -0.24481457573E+02  0.39079553466E+02  0.00000000000E+00 0.  1.
<scales pt_clust_4="550.00000" pt_clust_5="550.00000" pt_clust_6="30.46097"></scales>
<mgrwt>
<rscale>  0 0.30000000E+03</rscale>
<asrwt>  1 0.30460969E+02</asrwt>
<pdfrwt beam="1">  1        1 0.95578562E+00 0.30000000E+03</pdfrwt>
<pdfrwt beam="2">0</pdfrwt>
<totfact> 0.95907342E-06</totfact>
</mgrwt>
<clustering>
<clus scale="   30.461">  1  6  2 -1</clus>
<clus scale="  497.678">  4  5 -1 -1</clus>
<clus scale="  300.000">  1  4  2 -1</clus>
</clustering>
</event>
<event>
 6    1  0.9964252E-012  0.3000000E+03  0.7818608E-02  0.1093470E+00
          1   -1    0    0  502    0  0.00000000000E+00  0.00000000000E+00  0.22109407640E+03  0.22109407640E+03  0.00000000000E+00 0.  1.
         13   -1    0    0    0    0 -0.00000000000E+00 -0.00000000000E+00 -0.27500000000E+03  0.27500000000E+03  0.00000000000E+00 0.  1.
    9000005    2    1    2  501    0 -0.41807970982E+01  0.31614690937E+02 -0.49137342371E+02  0.46384958673E+03  0.46013584184E+03 0.  0.
         13    1    3    3    0    0  0.61797372716E+02  0.15860370943E+03 -0.19545421677E+03  0.25918410980E+03  0.00000000000E+00 0.  1.
          1    1    3    3  501    0 -0.65978169815E+02 -0.12698901849E+03  0.14631687440E+03  0.20466547693E+03  0.00000000000E+00 0.  1.
         21    1    1    2  502  501  0.41807970982E+01 -0.31614690937E+02 -0.47685812269E+01  0.32244489674E+02  0.00000000000E+00 0. -1.
<scales pt_clust_4="550.00000" pt_clust_5="550.00000" pt_clust_6="31.88995"></scales>
<mgrwt>
<rscale>  0 0.30000000E+03</rscale>
<asrwt>  1 0.31889948E+02</asrwt>
<pdfrwt beam="1">  1        1 0.80397846E+00 0.30000000E+03</pdfrwt>
<pdfrwt beam="2">0</pdfrwt>
<totfact> 0.98709055E-04</totfact>
</mgrwt>
<clustering>
<clus scale="   31.890">  1  6  2 -1</clus>
<clus scale="  460.136">  4  5 -1 -1</clus>
<clus scale="  300.000">  1  4  2 -1</clus>
</clustering>
</event>
<event>
 6    1  0.9964252E-012  0.3000000E+03  0.7818608E-02  0.1093470E+00
          1   -1    0    0  502    0  0.00000000000E+00  0.00000000000E+00  0.22348515557E+03  0.22348515557E+03  0.00000000000E+00 0.  1.
         13   -1    0    0    0    0 -0.00000000000E+00 -0.00000000000E+00 -0.27500000000E+03  0.27500000000E+03  0.00000000000E+00 0.  1.
    9000005    2    1    2  501    0 -0.23268824138E+02 -0.22112615166E+02 -0.50811188281E+02  0.46637750760E+03  0.46248869912E+03 0.  0.
         13    1    3    3    0    0 -0.22675476319E+03  0.50232996406E+02 -0.85807468631E+02  0.24759644228E+03  0.00000000000E+00 0.  1.
          3    1    3    3  501    0  0.20348593905E+03 -0.72345611573E+02  0.34996280350E+02  0.21878106532E+03  0.00000000000E+00 0.  1.
         21    1    1    2  502  501  0.23268824138E+02  0.22112615166E+02 -0.70365614574E+00  0.32107647971E+02  0.00000000000E+00 0. -1.
<scales pt_clust_4="550.00000" pt_clust_5="550.00000" pt_clust_6="32.09994"></scales>
<mgrwt>
<rscale>  0 0.30000000E+03</rscale>
<asrwt>  1 0.32099937E+02</asrwt>
<pdfrwt beam="1">  1        1 0.81267329E+00 0.30000000E+03</pdfrwt>
<pdfrwt beam="2">0</pdfrwt>
<totfact> 0.84459447E-04</totfact>
</mgrwt>
<clustering>
<clus scale="   32.100">  1  6  2 -1</clus>
<clus scale="  462.489">  4  5 -1 -1</clus>
<clus scale="  300.000">  1  4  2 -1</clus>
</clustering>
</event>
<event>
 6    1  0.9964252E-012  0.3000000E+03  0.7818608E-02  0.1093470E+00
          1   -1    0    0  502    0  0.00000000000E+00  0.00000000000E+00  0.22048460608E+03  0.22048460608E+03  0.00000000000E+00 0.  1.
         13   -1    0    0    0    0 -0.00000000000E+00 -0.00000000000E+00 -0.27500000000E+03  0.27500000000E+03  0.00000000000E+00 0.  1.
    9000005    2    1    2  501    0  0.31227062673E+02  0.15844199901E+01 -0.55478926598E+02  0.46420253094E+03  0.45981348240E+03 0.  0.
         13    1    3    3    0    0 -0.16148717199E+03 -0.47480987205E+02 -0.16623916940E+03  0.23657559533E+03  0.00000000000E+00 0.  1.
          3    1    3    3  501    0  0.19271423466E+03  0.49065407195E+02  0.11076024281E+03  0.22762693560E+03  0.00000000000E+00 0.  1.
         21    1    1    2  502  501 -0.31227062673E+02 -0.15844199901E+01  0.96353267477E+00  0.31282075141E+02  0.00000000000E+00 0.  1.
<scales pt_clust_4="550.00000" pt_clust_5="550.00000" pt_clust_6="31.26723"></scales>
<mgrwt>
<rscale>  0 0.30000000E+03</rscale>
<asrwt>  1 0.31267233E+02</asrwt>
<pdfrwt beam="1">  1        1 0.80176220E+00 0.30000000E+03</pdfrwt>
<pdfrwt beam="2">0</pdfrwt>
<totfact> 0.10286694E-03</totfact>
</mgrwt>
<clustering>
<clus scale="   31.267">  1  6  2 -1</clus>
<clus scale="  459.813">  4  5 -1 -1</clus>
<clus scale="  300.000">  1  4  2 -1</clus>
</clustering>
</event>
<event>
 6    1  0.9964252E-012  0.3000000E+03  0.7818608E-02  0.1093470E+00
          1   -1    0    0  502    0  0.00000000000E+00  0.00000000000E+00  0.22361186131E+03  0.22361186131E+03  0.00000000000E+00 0.  1.
         13   -1    0    0    0    0 -0.00000000000E+00 -0.00000000000E+00 -0.27500000000E+03  0.27500000000E+03  0.00000000000E+00 0.  1.
    9000005    2    1    2  501    0 -0.21523621281E+02  0.25040191567E+02 -0.31653437326E+02  0.46014452576E+03  0.45786544642E+03 0.  0.
         13    1    3    3    0    0  0.11467980258E+03 -0.17950474337E+03 -0.63983469048E+01  0.21310642612E+03  0.00000000000E+00 0.  1.
          1    1    3    3  501    0 -0.13620342386E+03  0.20454493494E+03 -0.25255090421E+02  0.24703809964E+03  0.00000000000E+00 0.  1.
         21    1    1    2  502  501  0.21523621281E+02 -0.25040191567E+02 -0.19734701359E+02  0.38467335552E+02  0.00000000000E+00 0. -1.
<scales pt_clust_4="550.00000" pt_clust_5="550.00000" pt_clust_6="33.01937"></scales>
<mgrwt>
<rscale>  0 0.30000000E+03</rscale>
<asrwt>  1 0.33019366E+02</asrwt>
<pdfrwt beam="1">  1        1 0.81313404E+00 0.30000000E+03</pdfrwt>
<pdfrwt beam="2">0</pdfrwt>
<totfact> 0.83303028E-04</totfact>
</mgrwt>
<clustering>
<clus scale="   33.019">  1  6  2 -1</clus>
<clus scale="  457.865">  4  5 -1 -1</clus>
<clus scale="  300.000">  1  4  2 -1</clus>
</clustering>
</event>
<event>
 6    1  0.9964252E-012  0.3000000E+03  0.7818608E-02  0.1093470E+00
          1   -1    0    0  502    0  0.00000000000E+00  0.00000000000E+00  0.24570518366E+03  0.24570518366E+03  0.00000000000E+00 0.  1.
         13   -1    0    0    0    0 -0.00000000000E+00 -0.00000000000E+00 -0.27500000000E+03  0.27500000000E+03  0.00000000000E+00 0.  1.
    9000005    2    1    2  501    0  0.51476840601E+02 -0.24365797795E+02 -0.38304303613E+02  0.46304472856E+03  0.45792973670E+03 0.  0.
         13    1    3    3    0    0  0.30216557003E+01  0.14303635664E+03 -0.18596188760E+03  0.23462811717E+03  0.00000000000E+00 0.  1.
          3    1    3    3  501    0  0.48455184901E+02 -0.16740215443E+03  0.14765758399E+03  0.22841661140E+03  0.00000000000E+00 0.  1.
         21    1    1    2  502  501 -0.51476840601E+02  0.24365797795E+02  0.90094872687E+01  0.57660455091E+02  0.00000000000E+00 0.  1.
<scales pt_clust_4="550.00000" pt_clust_5="550.00000" pt_clust_6="56.95224"></scales>
<mgrwt>
<rscale>  0 0.30000000E+03</rscale>
<asrwt>  1 0.56952236E+02</asrwt>
<pdfrwt beam="1">  1        1 0.89347340E+00 0.30000000E+03</pdfrwt>
<pdfrwt beam="2">0</pdfrwt>
<totfact> 0.12028770E-04</totfact>
</mgrwt>
<clustering>
<clus scale="   56.952">  1  6  2 -1</clus>
<clus scale="  457.930">  4  5 -1 -1</clus>
<clus scale="  300.000">  1  4  2 -1</clus>
</clustering>
</event>
<event>
 6    1  0.9964252E-012  0.3000000E+03  0.7818608E-02  0.1093470E+00
          1   -1    0    0  502    0  0.00000000000E+00  0.00000000000E+00  0.23609780271E+03  0.23609780271E+03  0.00000000000E+00 0.  1.
         13   -1    0    0    0    0 -0.00000000000E+00 -0.00000000000E+00 -0.27500000000E+03  0.27500000000E+03  0.00000000000E+00 0.  1.
    9000005    2    1    2  501    0  0.29785744795E+02  0.11184016835E+02 -0.59262348823E+02  0.47332468269E+03  0.46852103094E+03 0.  0.
         13    1    3    3    0    0  0.21869636931E+03  0.20133734067E+02 -0.14757641855E+03  0.26459831539E+03  0.00000000000E+00 0.  1.
          1    1    3    3  501    0 -0.18891062452E+03 -0.89497172314E+01  0.88314069724E+02  0.20872636730E+03  0.00000000000E+00 0.  1.
         21    1    1    2  502  501 -0.29785744795E+02 -0.11184016835E+02  0.20360151529E+02  0.37773120017E+02  0.00000000000E+00 0.  1.
<scales pt_clust_4="550.00000" pt_clust_5="550.00000" pt_clust_6="31.81624"></scales>
<mgrwt>
<rscale>  0 0.30000000E+03</rscale>
<asrwt>  1 0.31816235E+02</asrwt>
<pdfrwt beam="1">  1        1 0.85853746E+00 0.30000000E+03</pdfrwt>
<pdfrwt beam="2">0</pdfrwt>
<totfact> 0.34129519E-04</totfact>
</mgrwt>
<clustering>
<clus scale="   31.816">  1  6  2 -1</clus>
<clus scale="  468.521">  4  5 -1 -1</clus>
<clus scale="  300.000">  1  4  2 -1</clus>
</clustering>
</event>
<event>
 6    1  0.9964252E-012  0.3000000E+03  0.7818608E-02  0.1093470E+00
          1   -1    0    0  502    0  0.00000000000E+00  0.00000000000E+00  0.23232731917E+03  0.23232731917E+03  0.00000000000E+00 0.  1.
         13   -1    0    0    0    0 -0.00000000000E+00 -0.00000000000E+00 -0.27500000000E+03  0.27500000000E+03  0.00000000000E+00 0.  1.
    9000005    2    1    2  501    0  0.92285995288E+01  0.30663244030E+02 -0.52131496154E+02  0.47393763856E+03  0.46997211701E+03 0.  0.
         13    1    3    3    0    0 -0.83941073123E+02  0.22526665829E+03  0.31675054211E+02  0.24247573106E+03  0.00000000000E+00 0.  1.
          3    1    3    3  501    0  0.93169672651E+02 -0.19460341426E+03 -0.83806550365E+02  0.23146190750E+03  0.00000000000E+00 0.  1.
         21    1    1    2  502  501 -0.92285995288E+01 -0.30663244030E+02  0.94588153212E+01  0.33389680606E+02  0.00000000000E+00 0. -1.
<scales pt_clust_4="550.00000" pt_clust_5="550.00000" pt_clust_6="32.02189"></scales>
<mgrwt>
<rscale>  0 0.30000000E+03</rscale>
<asrwt>  1 0.32021892E+02</asrwt>
<pdfrwt beam="1">  1        1 0.84482662E+00 0.30000000E+03</pdfrwt>
<pdfrwt beam="2">0</pdfrwt>
<totfact> 0.46106844E-04</totfact>
</mgrwt>
<clustering>
<clus scale="   32.022">  1  6  2 -1</clus>
<clus scale="  469.972">  4  5 -1 -1</clus>
<clus scale="  300.000">  1  4  2 -1</clus>
</clustering>
</event>
<event>
 6    1  0.9964252E-012  0.3000000E+03  0.7818608E-02  0.1093470E+00
          1   -1    0    0  502    0  0.00000000000E+00  0.00000000000E+00  0.23519373116E+03  0.23519373116E+03  0.00000000000E+00 0.  1.
         13   -1    0    0    0    0 -0.00000000000E+00 -0.00000000000E+00 -0.27500000000E+03  0.27500000000E+03  0.00000000000E+00 0.  1.
    9000005    2    1    2  501    0 -0.31443608105E+02  0.18136811590E+02 -0.36128406446E+02  0.47370851364E+03  0.47093189499E+03 0.  0.
         13    1    3    3    0    0  0.23212765815E+02 -0.17312936634E+03 -0.16205831845E+03  0.23827611832E+03  0.00000000000E+00 0.  1.
          1    1    3    3  501    0 -0.54656373921E+02  0.19126617793E+03  0.12592991200E+03  0.23543239532E+03  0.00000000000E+00 0.  1.
         21    1    1    2  502  501  0.31443608105E+02 -0.18136811590E+02 -0.36778623942E+01  0.36485217515E+02  0.00000000000E+00 0.  1.
<scales pt_clust_4="550.00000" pt_clust_5="550.00000" pt_clust_6="36.29939"></scales>
<mgrwt>
<rscale>  0 0.30000000E+03</rscale>
<asrwt>  1 0.36299390E+02</asrwt>
<pdfrwt beam="1">  1        1 0.85524993E+00 0.30000000E+03</pdfrwt>
<pdfrwt beam="2">0</pdfrwt>
<totfact> 0.35980515E-04</totfact>
</mgrwt>
<clustering>
<clus scale="   36.299">  1  6  2 -1</clus>
<clus scale="  470.932">  4  5 -1 -1</clus>
<clus scale="  300.000">  1  4  2 -1</clus>
</clustering>
</event>
<event>
 6    1  0.9964252E-012  0.3000000E+03  0.7818608E-02  0.1093470E+00
          1   -1    0    0  502    0  0.00000000000E+00  0.00000000000E+00  0.22936430008E+03  0.22936430008E+03  0.00000000000E+00 0.  1.
         13   -1    0    0    0    0 -0.00000000000E+00 -0.00000000000E+00 -0.27500000000E+03  0.27500000000E+03  0.00000000000E+00 0.  1.
    9000005    2    1    2  501    0 -0.34874564749E+02  0.45529265502E+01 -0.63376270691E+02  0.46497277488E+03  0.45928876024E+03 0.  0.
         13    1    3    3    0    0 -0.24613655801E+03  0.15256962968E+02 -0.58165465983E+02  0.25337561355E+03  0.00000000000E+00 0.  1.
          1    1    3    3  501    0  0.21126199327E+03 -0.10704036418E+02 -0.52108047084E+01  0.21159716132E+03  0.00000000000E+00 0.  1.
         21    1    1    2  502  501  0.34874564749E+02 -0.45529265502E+01  0.17740570771E+02  0.39391525204E+02  0.00000000000E+00 0.  1.
<scales pt_clust_4="550.00000" pt_clust_5="550.00000" pt_clust_6="35.17050"></scales>
<mgrwt>
<rscale>  0 0.30000000E+03</rscale>
<asrwt>  1 0.35170505E+02</asrwt>
<pdfrwt beam="1">  1        1 0.83405200E+00 0.30000000E+03</pdfrwt>
<pdfrwt beam="2">0</pdfrwt>
<totfact> 0.54923024E-04</totfact>
</mgrwt>
<clustering>
<clus scale="   35.171">  1  6  2 -1</clus>
<clus scale="  459.289">  4  5 -1 -1</clus>
<clus scale="  300.000">  1  4  2 -1</clus>
</clustering>
</event>
<event>
 6    1  0.9964252E-012  0.3000000E+03  0.7818608E-02  0.1093470E+00
          1   -1    0    0  502    0  0.00000000000E+00  0.00000000000E+00  0.21770599386E+03  0.21770599386E+03  0.00000000000E+00 0.  1.
         13   -1    0    0    0    0 -0.00000000000E+00 -0.00000000000E+00 -0.27500000000E+03  0.27500000000E+03  0.00000000000E+00 0.  1.
    9000005    2    1    2  501    0 -0.25861903706E+02  0.16706851538E+02 -0.60393902910E+02  0.46176142549E+03  0.45675839742E+03 0.  0.
         13    1    3    3    0    0 -0.13338237559E+03  0.20174974520E+03 -0.10902860556E+02  0.24210057863E+03  0.00000000000E+00 0.  1.
          3    1    3    3  501    0  0.10752047188E+03 -0.18504289366E+03 -0.49491042354E+02  0.21966084686E+03  0.00000000000E+00 0.  1.
         21    1    1    2  502  501  0.25861903706E+02 -0.16706851538E+02  0.30998967747E+01  0.30944568370E+02  0.00000000000E+00 0.  1.
<scales pt_clust_4="550.00000" pt_clust_5="550.00000" pt_clust_6="30.78891"></scales>
<mgrwt>
<rscale>  0 0.30000000E+03</rscale>
<asrwt>  1 0.30788910E+02</asrwt>
<pdfrwt beam="1">  1        1 0.79165816E+00 0.30000000E+03</pdfrwt>
<pdfrwt beam="2">0</pdfrwt>
<totfact> 0.12259702E-03</totfact>
</mgrwt>
<clustering>
<clus scale="   30.789">  1  6  2 -1</clus>
<clus scale="  456.758">  4  5 -1 -1</clus>
<clus scale="  300.000">  1  4  2 -1</clus>
</clustering>
</event>
<event>
 6    1  0.9964252E-012  0.3000000E+03  0.7818608E-02  0.1093470E+00
          1   -1    0    0  502    0  0.00000000000E+00  0.00000000000E+00  0.24804400465E+03  0.24804400465E+03  0.00000000000E+00 0.  1.
         13   -1    0    0    0    0 -0.00000000000E+00 -0.00000000000E+00 -0.27500000000E+03  0.27500000000E+03  0.00000000000E+00 0.  1.
    9000005    2    1    2  501    0  0.36289984944E+02  0.17305628030E+02 -0.34570203587E+02  0.48212427914E+03  0.47919961790E+03 0.  0.
         13    1    3    3    0    0  0.15018592104E+03 -0.99649956418E+02  0.15088104564E+03  0.23505534375E+03  0.00000000000E+00 0.  1.
          1    1    3    3  501    0 -0.11389593610E+03  0.11695558445E+03 -0.18545124923E+03  0.24706893539E+03  0.00000000000E+00 0.  1.
         21    1    1    2  502  501 -0.36289984944E+02 -0.17305628030E+02  0.76142082403E+01  0.40919725511E+02  0.00000000000E+00 0.  1.
<scales pt_clust_4="550.00000" pt_clust_5="550.00000" pt_clust_6="40.20507"></scales>
<mgrwt>
<rscale>  0 0.30000000E+03</rscale>
<asrwt>  1 0.40205071E+02</asrwt>
<pdfrwt beam="1">  1        1 0.90197820E+00 0.30000000E+03</pdfrwt>
<pdfrwt beam="2">0</pdfrwt>
<totfact> 0.10124662E-04</totfact>
</mgrwt>
<clustering>
<clus scale="   40.205">  1  6  2 -1</clus>
<clus scale="  479.200">  4  5 -1 -1</clus>
<clus scale="  300.000">  1  4  2 -1</clus>
</clustering>
</event>
<event>
 6    1  0.9964252E-012  0.3000000E+03  0.7818608E-02  0.1093470E+00
          1   -1    0    0  502    0  0.00000000000E+00  0.00000000000E+00  0.22860849348E+03  0.22860849348E+03  0.00000000000E+00 0.  1.
         13   -1    0    0    0    0 -0.00000000000E+00 -0.00000000000E+00 -0.27500000000E+03  0.27500000000E+03  0.00000000000E+00 0.  1.
    9000005    2    1    2  501    0 -0.13583191403E+02  0.28106635338E+02 -0.71582574147E+02  0.46349520482E+03  0.45686896801E+03 0.  0.
         13    1    3    3    0    0  0.12879419021E+03  0.15112564223E+03  0.87604933531E+02  0.21702886340E+03  0.00000000000E+00 0.  1.
          1    1    3    3  501    0 -0.14237738161E+03 -0.12301900689E+03 -0.15918750768E+03  0.24646634142E+03  0.00000000000E+00 0.  1.
         21    1    1    2  502  501  0.13583191403E+02 -0.28106635338E+02  0.25191067624E+02  0.40113288655E+02  0.00000000000E+00 0. -1.
<scales pt_clust_4="550.00000" pt_clust_5="550.00000" pt_clust_6="31.21676"></scales>
<mgrwt>
<rscale>  0 0.30000000E+03</rscale>
<asrwt>  1 0.31216759E+02</asrwt>
<pdfrwt beam="1">  1        1 0.83130361E+00 0.30000000E+03</pdfrwt>
<pdfrwt beam="2">0</pdfrwt>
<totfact> 0.58947946E-04</totfact>
</mgrwt>
<clustering>
<clus scale="   31.217">  1  6  2 -1</clus>
<clus scale="  456.869">  4  5 -1 -1</clus>
<clus scale="  300.000">  1  4  2 -1</clus>
</clustering>
</event>
<event>
 6    1  0.9964252E-012  0.3000000E+03  0.7818608E-02  0.1093470E+00
          1   -1    0    0  502    0  0.00000000000E+00  0.00000000000E+00  0.23683303397E+03  0.23683303397E+03  0.00000000000E+00 0.  1.
         13   -1    0    0    0    0 -0.00000000000E+00 -0.00000000000E+00 -0.27500000000E+03  0.27500000000E+03  0.00000000000E+00 0.  1.
    9000005    2    1    2  501    0 -0.84593469626E+01  0.31290887245E+02 -0.39558865052E+02  0.47938896581E+03  0.47665311975E+03 0.  0.
         13    1    3    3    0    0 -0.26828815315E+02 -0.17188014693E+03  0.12752581785E+03  0.21569748367E+03  0.00000000000E+00 0.  1.
          1    1    3    3  501    0  0.18369468353E+02  0.20317103418E+03 -0.16708468290E+03  0.26369148215E+03  0.00000000000E+00 0.  1.
         21    1    1    2  502  501  0.84593469626E+01 -0.31290887245E+02  0.13918990200E+01  0.32444068155E+02  0.00000000000E+00 0. -1.
<scales pt_clust_4="550.00000" pt_clust_5="550.00000" pt_clust_6="32.41420"></scales>
<mgrwt>
<rscale>  0 0.30000000E+03</rscale>
<asrwt>  1 0.32414197E+02</asrwt>
<pdfrwt beam="1">  1        1 0.86121103E+00 0.30000000E+03</pdfrwt>
<pdfrwt beam="2">0</pdfrwt>
<totfact> 0.31850958E-04</totfact>
</mgrwt>
<clustering>
<clus scale="   32.414">  1  6  2 -1</clus>
<clus scale="  476.653">  4  5 -1 -1</clus>
<clus scale="  300.000">  1  4  2 -1</clus>
</clustering>
</event>
<event>
 6    1  0.9964252E-012  0.3000000E+03  0.7818608E-02  0.1093470E+00
          1   -1    0    0  502    0  0.00000000000E+00  0.00000000000E+00  0.22853393052E+03  0.22853393052E+03  0.00000000000E+00 0.  1.
         13   -1    0    0    0    0 -0.00000000000E+00 -0.00000000000E+00 -0.27500000000E+03  0.27500000000E+03  0.00000000000E+00 0.  1.
    9000005    2    1    2  501    0  0.25607194280E+02 -0.18162681585E+02 -0.37196880987E+02  0.47079970903E+03  0.46827678425E+03 0.  0.
         13    1    3    3    0    0 -0.15600928967E+03  0.14242491042E+02 -0.17917796210E+03  0.23800522918E+03  0.00000000000E+00 0.  1.
          3    1    3    3  501    0  0.18161648395E+03 -0.32405172627E+02  0.14198108111E+03  0.23279447985E+03  0.00000000000E+00 0.  1.
         21    1    1    2  502  501 -0.25607194280E+02  0.18162681585E+02 -0.92691884915E+01  0.32734221489E+02  0.00000000000E+00 0. -1.
<scales pt_clust_4="550.00000" pt_clust_5="550.00000" pt_clust_6="31.39446"></scales>
<mgrwt>
<rscale>  0 0.30000000E+03</rscale>
<asrwt>  1 0.31394464E+02</asrwt>
<pdfrwt beam="1">  1        1 0.83103247E+00 0.30000000E+03</pdfrwt>
<pdfrwt beam="2">0</pdfrwt>
<totfact> 0.59176337E-04</totfact>
</mgrwt>
<clustering>
<clus scale="   31.394">  1  6  2 -1</clus>
<clus scale="  468.277">  4  5 -1 -1</clus>
<clus scale="  300.000">  1  4  2 -1</clus>
</clustering>
</event>
<event>
 6    1  0.9964252E-012  0.3000000E+03  0.7818608E-02  0.1093470E+00
          1   -1    0    0  502    0  0.00000000000E+00  0.00000000000E+00  0.22646861272E+03  0.22646861272E+03  0.00000000000E+00 0.  1.
         13   -1    0    0    0    0 -0.00000000000E+00 -0.00000000000E+00 -0.27500000000E+03  0.27500000000E+03  0.00000000000E+00 0.  1.
    9000005    2    1    2  501    0  0.25463100213E+02 -0.24044535528E+02 -0.52162396628E+02  0.46625933283E+03  0.46200686215E+03 0.  0.
         13    1    3    3    0    0  0.21647519951E+03  0.96964213752E+02 -0.28656924665E+02  0.23892423503E+03  0.00000000000E+00 0.  1.
          1    1    3    3  501    0 -0.19101209930E+03 -0.12100874928E+03 -0.23505471963E+02  0.22733509780E+03  0.00000000000E+00 0.  1.
         21    1    1    2  502  501 -0.25463100213E+02  0.24044535528E+02  0.36310093474E+01  0.35209279886E+02  0.00000000000E+00 0.  1.
<scales pt_clust_4="550.00000" pt_clust_5="550.00000" pt_clust_6="35.02155"></scales>
<mgrwt>
<rscale>  0 0.30000000E+03</rscale>
<asrwt>  1 0.35021553E+02</asrwt>
<pdfrwt beam="1">  1        1 0.82352223E+00 0.30000000E+03</pdfrwt>
<pdfrwt beam="2">0</pdfrwt>
<totfact> 0.67325687E-04</totfact>
</mgrwt>
<clustering>
<clus scale="   35.022">  1  6  2 -1</clus>
<clus scale="  462.007">  4  5 -1 -1</clus>
<clus scale="  300.000">  1  4  2 -1</clus>
</clustering>
</event>
<event>
 6    1  0.9964252E-012  0.3000000E+03  0.7818608E-02  0.1093470E+00
          1   -1    0    0  502    0  0.00000000000E+00  0.00000000000E+00  0.23149802624E+03  0.23149802624E+03  0.00000000000E+00 0.  1.
         13   -1    0    0    0    0 -0.00000000000E+00 -0.00000000000E+00 -0.27500000000E+03  0.27500000000E+03  0.00000000000E+00 0.  1.
    9000005    2    1    2  501    0  0.38843306682E+02 -0.15970190016E+02 -0.42552814288E+02  0.46448909449E+03  0.46062514853E+03 0.  0.
         13    1    3    3    0    0  0.14425238378E+03  0.32819717851E+02 -0.21232728971E+03  0.25878323373E+03  0.00000000000E+00 0.  1.
          3    1    3    3  501    0 -0.10540907710E+03 -0.48789907867E+02  0.16977447542E+03  0.20570586076E+03  0.00000000000E+00 0.  1.
         21    1    1    2  502  501 -0.38843306682E+02  0.15970190016E+02 -0.94915946970E+00  0.42008931751E+02  0.00000000000E+00 0. -1.
<scales pt_clust_4="550.00000" pt_clust_5="550.00000" pt_clust_6="41.99821"></scales>
<mgrwt>
<rscale>  0 0.30000000E+03</rscale>
<asrwt>  1 0.41998208E+02</asrwt>
<pdfrwt beam="1">  1        1 0.84181100E+00 0.30000000E+03</pdfrwt>
<pdfrwt beam="2">0</pdfrwt>
<totfact> 0.46503351E-04</totfact>
</mgrwt>
<clustering>
<clus scale="   41.998">  1  6  2 -1</clus>
<clus scale="  460.625">  4  5 -1 -1</clus>
<clus scale="  300.000">  1  4  2 -1</clus>
</clustering>
</event>
<event>
 6    1  0.9964252E-012  0.3000000E+03  0.7818608E-02  0.1093470E+00
          1   -1    0    0  502    0  0.00000000000E+00  0.00000000000E+00  0.24378170679E+03  0.24378170679E+03  0.00000000000E+00 0.  1.
         13   -1    0    0    0    0 -0.00000000000E+00 -0.00000000000E+00 -0.27500000000E+03  0.27500000000E+03  0.00000000000E+00 0.  1.
    9000005    2    1    2  501    0  0.38405027732E+01 -0.36075721611E+02 -0.41524461930E+02  0.48106666649E+03  0.47789606560E+03 0.  0.
         13    1    3    3    0    0 -0.78259672386E+02 -0.27869782325E+02 -0.24649241765E+03  0.26011499966E+03  0.00000000000E+00 0.  1.
          1    1    3    3  501    0  0.82100175159E+02 -0.82059392865E+01  0.20496795572E+03  0.22095166683E+03  0.00000000000E+00 0.  1.
         21    1    1    2  502  501 -0.38405027732E+01  0.36075721611E+02  0.10306168718E+02  0.37715040302E+02  0.00000000000E+00 0.  1.
<scales pt_clust_4="550.00000" pt_clust_5="550.00000" pt_clust_6="36.27957"></scales>
<mgrwt>
<rscale>  0 0.30000000E+03</rscale>
<asrwt>  1 0.36279569E+02</asrwt>
<pdfrwt beam="1">  1        1 0.88647893E+00 0.30000000E+03</pdfrwt>
<pdfrwt beam="2">0</pdfrwt>
<totfact> 0.16085329E-04</totfact>
</mgrwt>
<clustering>
<clus scale="   36.280">  1  6  2 -1</clus>
<clus scale="  477.896">  4  5 -1 -1</clus>
<clus scale="  300.000">  1  4  2 -1</clus>
</clustering>
</event>
<event>
 6    1  0.9964252E-012  0.3000000E+03  0.7818608E-02  0.1093470E+00
          1   -1    0    0  502    0  0.00000000000E+00  0.00000000000E+00  0.25279439221E+03  0.25279439221E+03  0.00000000000E+00 0.  1.
         13   -1    0    0    0    0 -0.00000000000E+00 -0.00000000000E+00 -0.27500000000E+03  0.27500000000E+03  0.00000000000E+00 0.  1.
    9000005    2    1    2  501    0 -0.57641635095E+02 -0.24803987743E+02  0.79936802443E+00  0.46095858731E+03  0.45666660083E+03 0.  0.
         13    1    3    3    0    0 -0.20359073981E+03 -0.15510358358E+03  0.46277166799E+02  0.26009207436E+03  0.00000000000E+00 0.  1.
          3    1    3    3  501    0  0.14594910472E+03  0.13029959583E+03 -0.45477798775E+02  0.20086651295E+03  0.00000000000E+00 0.  1.
         21    1    1    2  502  501  0.57641635095E+02  0.24803987743E+02 -0.23004975817E+02  0.66835804901E+02  0.00000000000E+00 0.  1.
<scales pt_clust_4="550.00000" pt_clust_5="550.00000" pt_clust_6="62.75189"></scales>
<mgrwt>
<rscale>  0 0.30000000E+03</rscale>
<asrwt>  1 0.62751891E+02</asrwt>
<pdfrwt beam="1">  1        1 0.91925234E+00 0.30000000E+03</pdfrwt>
<pdfrwt beam="2">0</pdfrwt>
<totfact> 0.39127483E-05</totfact>
</mgrwt>
<clustering>
<clus scale="   62.752">  1  6  2 -1</clus>
<clus scale="  456.667">  4  5 -1 -1</clus>
<clus scale="  300.000">  1  4  2 -1</clus>
</clustering>
</event>
<event>
 6    1  0.9964252E-012  0.3000000E+03  0.7818608E-02  0.1093470E+00
          1   -1    0    0  502    0  0.00000000000E+00  0.00000000000E+00  0.24729303450E+03  0.24729303450E+03  0.00000000000E+00 0.  1.
         13   -1    0    0    0    0 -0.00000000000E+00 -0.00000000000E+00 -0.27500000000E+03  0.27500000000E+03  0.00000000000E+00 0.  1.
    9000005    2    1    2  501    0  0.70615906175E+01 -0.36972430890E+02 -0.26241932571E+02  0.48462377608E+03  0.48244661737E+03 0.  0.
         13    1    3    3    0    0 -0.75393099537E+02 -0.77973416843E+01 -0.24105325930E+03  0.25268872515E+03  0.00000000000E+00 0.  1.
          1    1    3    3  501    0  0.82454690155E+02 -0.29175089205E+02  0.21481132673E+03  0.23193505093E+03  0.00000000000E+00 0.  1.
         21    1    1    2  502  501 -0.70615906175E+01  0.36972430890E+02 -0.14650329339E+01  0.37669258414E+02  0.00000000000E+00 0.  1.
<scales pt_clust_4="550.00000" pt_clust_5="550.00000" pt_clust_6="37.64076"></scales>
<mgrwt>
<rscale>  0 0.30000000E+03</rscale>
<asrwt>  1 0.37640759E+02</asrwt>
<pdfrwt beam="1">  1        1 0.89924740E+00 0.30000000E+03</pdfrwt>
<pdfrwt beam="2">0</pdfrwt>
<totfact> 0.11130549E-04</totfact>
</mgrwt>
<clustering>
<clus scale="   37.641">  1  6  2 -1</clus>
<clus scale="  482.447">  4  5 -1 -1</clus>
<clus scale="  300.000">  1  4  2 -1</clus>
</clustering>
</event>
<event>
 6    1  0.9964252E-012  0.3000000E+03  0.7818608E-02  0.1093470E+00
          1   -1    0    0  502    0  0.00000000000E+00  0.00000000000E+00  0.24904356049E+03  0.24904356049E+03  0.00000000000E+00 0.  1.
         13   -1    0    0    0    0 -0.00000000000E+00 -0.00000000000E+00 -0.27500000000E+03  0.27500000000E+03  0.00000000000E+00 0.  1.
    9000005    2    1    2  501    0 -0.53038830455E+01 -0.34437775278E+02 -0.54094063105E+02  0.47925720763E+03  0.47491811068E+03 0.  0.
         13    1    3    3    0    0  0.46065188270E+02  0.28612855829E+01  0.20621616988E+03  0.21131800029E+03  0.00000000000E+00 0.  1.
          3    1    3    3  501    0 -0.51369071315E+02 -0.37299060861E+02 -0.26031023299E+03  0.26793920733E+03  0.00000000000E+00 0.  1.
         21    1    1    2  502  501  0.53038830455E+01  0.34437775278E+02  0.28137623600E+02  0.44786352869E+02  0.00000000000E+00 0.  1.
<scales pt_clust_4="550.00000" pt_clust_5="550.00000" pt_clust_6="34.84382"></scales>
<mgrwt>
<rscale>  0 0.30000000E+03</rscale>
<asrwt>  1 0.34843816E+02</asrwt>
<pdfrwt beam="1">  1        1 0.90561295E+00 0.30000000E+03</pdfrwt>
<pdfrwt beam="2">0</pdfrwt>
<totfact> 0.90053082E-05</totfact>
</mgrwt>
<clustering>
<clus scale="   34.844">  1  6  2 -1</clus>
<clus scale="  474.918">  4  5 -1 -1</clus>
<clus scale="  300.000">  1  4  2 -1</clus>
</clustering>
</event>
<event>
 6    1  0.9964252E-012  0.3000000E+03  0.7818608E-02  0.1093470E+00
          1   -1    0    0  502    0  0.00000000000E+00  0.00000000000E+00  0.22518720364E+03  0.22518720364E+03  0.00000000000E+00 0.  1.
         13   -1    0    0    0    0 -0.00000000000E+00 -0.00000000000E+00 -0.27500000000E+03  0.27500000000E+03  0.00000000000E+00 0.  1.
    9000005    2    1    2  501    0  0.29940699815E+02 -0.25146633803E+01 -0.69404771564E+02  0.46431779426E+03  0.45811704040E+03 0.  0.
         13    1    3    3    0    0  0.90166892664E+02  0.71068105473E+02 -0.24166867266E+03  0.26755278263E+03  0.00000000000E+00 0.  1.
          3    1    3    3  501    0 -0.60226192850E+02 -0.73582768854E+02  0.17226390110E+03  0.19676501162E+03  0.00000000000E+00 0.  1.
         21    1    1    2  502  501 -0.29940699815E+02  0.25146633803E+01  0.19591975207E+02  0.35869409388E+02  0.00000000000E+00 0. -1.
<scales pt_clust_4="550.00000" pt_clust_5="550.00000" pt_clust_6="30.04612"></scales>
<mgrwt>
<rscale>  0 0.30000000E+03</rscale>
<asrwt>  1 0.30046115E+02</asrwt>
<pdfrwt beam="1">  1        1 0.81886256E+00 0.30000000E+03</pdfrwt>
<pdfrwt beam="2">0</pdfrwt>
<totfact> 0.76146588E-04</totfact>
</mgrwt>
<clustering>
<clus scale="   30.046">  1  6  2 -1</clus>
<clus scale="  458.117">  4  5 -1 -1</clus>
<clus scale="  300.000">  1  4  2 -1</clus>
</clustering>
</event>
<event>
 6    1  0.9964252E-012  0.3000000E+03  0.7818608E-02  0.1093470E+00
          1   -1    0    0  502    0  0.00000000000E+00  0.00000000000E+00  0.23709492312E+03  0.23709492312E+03  0.00000000000E+00 0.  1.
         13   -1    0    0    0    0 -0.00000000000E+00 -0.00000000000E+00 -0.27500000000E+03  0.27500000000E+03  0.00000000000E+00 0.  1.
    9000005    2    1    2  501    0 -0.12083990424E+02 -0.31687149745E+02 -0.70128829060E+02  0.46531385336E+03  0.45874702307E+03 0.  0.
         13    1    3    3    0    0  0.10959471573E+03 -0.16723681158E+03  0.93252480726E+02  0.22062451819E+03  0.00000000000E+00 0.  1.
          1    1    3    3  501    0 -0.12167870616E+03  0.13554966184E+03 -0.16338130979E+03  0.24468933517E+03  0.00000000000E+00 0.  1.
         21    1    1    2  502  501  0.12083990424E+02  0.31687149745E+02  0.32223752181E+02  0.46781069763E+02  0.00000000000E+00 0.  1.
<scales pt_clust_4="550.00000" pt_clust_5="550.00000" pt_clust_6="33.91310"></scales>
<mgrwt>
<rscale>  0 0.30000000E+03</rscale>
<asrwt>  1 0.33913099E+02</asrwt>
<pdfrwt beam="1">  1        1 0.86216336E+00 0.30000000E+03</pdfrwt>
<pdfrwt beam="2">0</pdfrwt>
<totfact> 0.30841867E-04</totfact>
</mgrwt>
<clustering>
<clus scale="   33.913">  1  6  2 -1</clus>
<clus scale="  458.747">  4  5 -1 -1</clus>
<clus scale="  300.000">  1  4  2 -1</clus>
</clustering>
</event>
<event>
 6    1  0.9964252E-012  0.3000000E+03  0.7818608E-02  0.1093470E+00
          1   -1    0    0  502    0  0.00000000000E+00  0.00000000000E+00  0.23433287505E+03  0.23433287505E+03  0.00000000000E+00 0.  1.
         13   -1    0    0    0    0 -0.00000000000E+00 -0.00000000000E+00 -0.27500000000E+03  0.27500000000E+03  0.00000000000E+00 0.  1.
    9000005    2    1    2  501    0 -0.41248993435E+02  0.21618260173E+02 -0.39915339108E+02  0.46275612318E+03  0.45867326782E+03 0.  0.
         13    1    3    3    0    0 -0.21203596587E+03 -0.78461365927E+01  0.10509481992E+03  0.23678203871E+03  0.00000000000E+00 0.  1.
          3    1    3    3  501    0  0.17078697244E+03  0.29464396766E+02 -0.14501015903E+03  0.22597408447E+03  0.00000000000E+00 0.  1.
         21    1    1    2  502  501  0.41248993435E+02 -0.21618260173E+02 -0.75178584285E+00  0.46576751865E+02  0.00000000000E+00 0. -1.
<scales pt_clust_4="550.00000" pt_clust_5="550.00000" pt_clust_6="46.57068"></scales>
<mgrwt>
<rscale>  0 0.30000000E+03</rscale>
<asrwt>  1 0.46570684E+02</asrwt>
<pdfrwt beam="1">  1        1 0.85211955E+00 0.30000000E+03</pdfrwt>
<pdfrwt beam="2">0</pdfrwt>
<totfact> 0.36886419E-04</totfact>
</mgrwt>
<clustering>
<clus scale="   46.571">  1  6  2 -1</clus>
<clus scale="  458.673">  4  5 -1 -1</clus>
<clus scale="  300.000">  1  4  2 -1</clus>
</clustering>
</event>
<event>
 6    1  0.9964252E-012  0.3000000E+03  0.7818608E-02  0.1093470E+00
          1   -1    0    0  502    0  0.00000000000E+00  0.00000000000E+00  0.23243340933E+03  0.23243340933E+03  0.00000000000E+00 0.  1.
         13   -1    0    0    0    0 -0.00000000000E+00 -0.00000000000E+00 -0.27500000000E+03  0.27500000000E+03  0.00000000000E+00 0.  1.
    9000005    2    1    2  501    0  0.44524471659E+01 -0.30580431680E+02 -0.58156549131E+02  0.47282078313E+03  0.46821183418E+03 0.  0.
         13    1    3    3    0    0 -0.12400712864E+03  0.15465813520E+03 -0.12901971640E+03  0.23652271341E+03  0.00000000000E+00 0.  1.
          3    1    3    3  501    0  0.12845957581E+03 -0.18523856688E+03  0.70863167273E+02  0.23629806972E+03  0.00000000000E+00 0.  1.
         21    1    1    2  502  501 -0.44524471659E+01  0.30580431680E+02  0.15589958462E+02  0.34612626198E+02  0.00000000000E+00 0. -1.
<scales pt_clust_4="550.00000" pt_clust_5="550.00000" pt_clust_6="30.90287"></scales>
<mgrwt>
<rscale>  0 0.30000000E+03</rscale>
<asrwt>  1 0.30902865E+02</asrwt>
<pdfrwt beam="1">  1        1 0.84521240E+00 0.30000000E+03</pdfrwt>
<pdfrwt beam="2">0</pdfrwt>
<totfact> 0.46061884E-04</totfact>
</mgrwt>
<clustering>
<clus scale="   30.903">  1  6  2 -1</clus>
<clus scale="  468.212">  4  5 -1 -1</clus>
<clus scale="  300.000">  1  4  2 -1</clus>
</clustering>
</event>
<event>
 6    1  0.9964252E-012  0.3000000E+03  0.7818608E-02  0.1093470E+00
          1   -1    0    0  502    0  0.00000000000E+00  0.00000000000E+00  0.22158590045E+03  0.22158590045E+03  0.00000000000E+00 0.  1.
         13   -1    0    0    0    0 -0.00000000000E+00 -0.00000000000E+00 -0.27500000000E+03  0.27500000000E+03  0.00000000000E+00 0.  1.
    9000005    2    1    2  501    0 -0.12436050660E+02  0.28432454135E+02 -0.59212679396E+02  0.46501560852E+03  0.46018508772E+03 0.  0.
         13    1    3    3    0    0 -0.66660145790E+02 -0.88893249388E+02 -0.22728623181E+03  0.25299133581E+03  0.00000000000E+00 0.  1.
          3    1    3    3  501    0  0.54224095130E+02  0.11732570352E+03  0.16807355241E+03  0.21202427272E+03  0.00000000000E+00 0.  1.
         21    1    1    2  502  501  0.12436050660E+02 -0.28432454135E+02  0.57985798468E+01  0.31570291928E+02  0.00000000000E+00 0. -1.
<scales pt_clust_4="550.00000" pt_clust_5="550.00000" pt_clust_6="31.03320"></scales>
<mgrwt>
<rscale>  0 0.30000000E+03</rscale>
<asrwt>  1 0.31033205E+02</asrwt>
<pdfrwt beam="1">  1        1 0.80576691E+00 0.30000000E+03</pdfrwt>
<pdfrwt beam="2">0</pdfrwt>
<totfact> 0.96186192E-04</totfact>
</mgrwt>
<clustering>
<clus scale="   31.033">  1  6  2 -1</clus>
<clus scale="  460.185">  4  5 -1 -1</clus>
<clus scale="  300.000">  1  4  2 -1</clus>
</clustering>
</event>
<event>
 6    1  0.9964252E-012  0.3000000E+03  0.7818608E-02  0.1093470E+00
          1   -1    0    0  502    0  0.00000000000E+00  0.00000000000E+00  0.23190924334E+03  0.23190924334E+03  0.00000000000E+00 0.  1.
         13   -1    0    0    0    0 -0.00000000000E+00 -0.00000000000E+00 -0.27500000000E+03  0.27500000000E+03  0.00000000000E+00 0.  1.
    9000005    2    1    2  501    0 -0.30019019517E+02 -0.64977052179E+01 -0.68694425002E+02  0.46692287643E+03  0.46081958162E+03 0.  0.
         13    1    3    3    0    0 -0.20965910227E+03 -0.17874734091E+01  0.89063221547E+02  0.22779901593E+03  0.00000000000E+00 0.  1.
          1    1    3    3  501    0  0.17964008276E+03 -0.47102318088E+01 -0.15775764655E+03  0.23912386050E+03  0.00000000000E+00 0.  1.
         21    1    1    2  502  501  0.30019019517E+02  0.64977052179E+01  0.25603668346E+02  0.39986366910E+02  0.00000000000E+00 0. -1.
<scales pt_clust_4="550.00000" pt_clust_5="550.00000" pt_clust_6="30.71419"></scales>
<mgrwt>
<rscale>  0 0.30000000E+03</rscale>
<asrwt>  1 0.30714194E+02</asrwt>
<pdfrwt beam="1">  1        1 0.84330634E+00 0.30000000E+03</pdfrwt>
<pdfrwt beam="2">0</pdfrwt>
<totfact> 0.47895116E-04</totfact>
</mgrwt>
<clustering>
<clus scale="   30.714">  1  6  2 -1</clus>
<clus scale="  460.820">  4  5 -1 -1</clus>
<clus scale="  300.000">  1  4  2 -1</clus>
</clustering>
</event>
<event>
 6    1  0.9964252E-012  0.3000000E+03  0.7818608E-02  0.1093470E+00
          1   -1    0    0  502    0  0.00000000000E+00  0.00000000000E+00  0.22349059469E+03  0.22349059469E+03  0.00000000000E+00 0.  1.
         13   -1    0    0    0    0 -0.00000000000E+00 -0.00000000000E+00 -0.27500000000E+03  0.27500000000E+03  0.00000000000E+00 0.  1.
    9000005    2    1    2  501    0 -0.19398062082E+02 -0.28745553823E+02 -0.50153341310E+02  0.46378568744E+03  0.45975995319E+03 0.  0.
         13    1    3    3    0    0 -0.14621516777E+02  0.15714968215E+03  0.13030013314E+03  0.20466542466E+03  0.00000000000E+00 0.  1.
          3    1    3    3  501    0 -0.47765453057E+01 -0.18589523598E+03 -0.18045347445E+03  0.25912026278E+03  0.00000000000E+00 0.  1.
         21    1    1    2  502  501  0.19398062082E+02  0.28745553823E+02 -0.13560640048E+01  0.34704907243E+02  0.00000000000E+00 0.  1.
<scales pt_clust_4="550.00000" pt_clust_5="550.00000" pt_clust_6="34.67840"></scales>
<mgrwt>
<rscale>  0 0.30000000E+03</rscale>
<asrwt>  1 0.34678404E+02</asrwt>
<pdfrwt beam="1">  1        1 0.81269307E+00 0.30000000E+03</pdfrwt>
<pdfrwt beam="2">0</pdfrwt>
<totfact> 0.83207032E-04</totfact>
</mgrwt>
<clustering>
<clus scale="   34.678">  1  6  2 -1</clus>
<clus scale="  459.760">  4  5 -1 -1</clus>
<clus scale="  300.000">  1  4  2 -1</clus>
</clustering>
</event>
<event>
 6    1  0.9964252E-012  0.3000000E+03  0.7818608E-02  0.1093470E+00
          1   -1    0    0  502    0  0.00000000000E+00  0.00000000000E+00  0.23183806905E+03  0.23183806905E+03  0.00000000000E+00 0.  1.
         13   -1    0    0    0    0 -0.00000000000E+00 -0.00000000000E+00 -0.27500000000E+03  0.27500000000E+03  0.00000000000E+00 0.  1.
    9000005    2    1    2  501    0  0.21445726214E+02 -0.29076758494E+02 -0.67429262173E+02  0.46331473712E+03  0.45695564684E+03 0.  0.
         13    1    3    3    0    0 -0.21709057141E+03 -0.33293958148E+02 -0.38796880650E+02  0.22302915010E+03  0.00000000000E+00 0.  1.
          1    1    3    3  501    0  0.23853629763E+03  0.42171996540E+01 -0.28632381524E+02  0.24028558702E+03  0.00000000000E+00 0.  1.
         21    1    1    2  502  501 -0.21445726214E+02  0.29076758494E+02  0.24267331219E+02  0.43523331925E+02  0.00000000000E+00 0. -1.
<scales pt_clust_4="550.00000" pt_clust_5="550.00000" pt_clust_6="36.13000"></scales>
<mgrwt>
<rscale>  0 0.30000000E+03</rscale>
<asrwt>  1 0.36130002E+02</asrwt>
<pdfrwt beam="1">  1        1 0.84304752E+00 0.30000000E+03</pdfrwt>
<pdfrwt beam="2">0</pdfrwt>
<totfact> 0.46683700E-04</totfact>
</mgrwt>
<clustering>
<clus scale="   36.130">  1  6  2 -1</clus>
<clus scale="  456.956">  4  5 -1 -1</clus>
<clus scale="  300.000">  1  4  2 -1</clus>
</clustering>
</event>
<event>
 6    1  0.9964252E-012  0.3000000E+03  0.7818608E-02  0.1093470E+00
          1   -1    0    0  502    0  0.00000000000E+00  0.00000000000E+00  0.23171862379E+03  0.23171862379E+03  0.00000000000E+00 0.  1.
         13   -1    0    0    0    0 -0.00000000000E+00 -0.00000000000E+00 -0.27500000000E+03  0.27500000000E+03  0.00000000000E+00 0.  1.
    9000005    2    1    2  501    0  0.78721571427E+00  0.32582126603E+02 -0.15440415181E+02  0.46385449201E+03  0.46245039588E+03 0.  0.
         13    1    3    3    0    0  0.43547662079E+02 -0.90666403377E+02 -0.20812856798E+03  0.23115859573E+03  0.00000000000E+00 0.  1.
          1    1    3    3  501    0 -0.42760446365E+02  0.12324852998E+03  0.19268815279E+03  0.23269589627E+03  0.00000000000E+00 0.  1.
         21    1    1    2  502  501 -0.78721571427E+00 -0.32582126603E+02 -0.27840961028E+02  0.42864131783E+02  0.00000000000E+00 0. -1.
<scales pt_clust_4="550.00000" pt_clust_5="550.00000" pt_clust_6="32.59165"></scales>
<mgrwt>
<rscale>  0 0.30000000E+03</rscale>
<asrwt>  1 0.32591651E+02</asrwt>
<pdfrwt beam="1">  1        1 0.84261318E+00 0.30000000E+03</pdfrwt>
<pdfrwt beam="2">0</pdfrwt>
<totfact> 0.47997241E-04</totfact>
</mgrwt>
<clustering>
<clus scale="   32.592">  1  6  2 -1</clus>
<clus scale="  462.450">  4  5 -1 -1</clus>
<clus scale="  300.000">  1  4  2 -1</clus>
</clustering>
</event>
<event>
 6    1  0.9964252E-012  0.3000000E+03  0.7818608E-02  0.1093470E+00
          1   -1    0    0  502    0  0.00000000000E+00  0.00000000000E+00  0.23851720133E+03  0.23851720133E+03  0.00000000000E+00 0.  1.
         13   -1    0    0    0    0 -0.00000000000E+00 -0.00000000000E+00 -0.27500000000E+03  0.27500000000E+03  0.00000000000E+00 0.  1.
    9000005    2    1    2  501    0 -0.41902231589E+02  0.14068064396E+00 -0.54851116742E+02  0.46776556844E+03  0.46264475055E+03 0.  0.
         13    1    3    3    0    0  0.57370296800E+02 -0.21274313293E+03 -0.73133133879E+02  0.23216254400E+03  0.00000000000E+00 0.  1.
          1    1    3    3  501    0 -0.99272528389E+02  0.21288381358E+03  0.18282017137E+02  0.23560302444E+03  0.00000000000E+00 0.  1.
         21    1    1    2  502  501  0.41902231589E+02 -0.14068064396E+00  0.18368318069E+02  0.45751632887E+02  0.00000000000E+00 0. -1.
<scales pt_clust_4="550.00000" pt_clust_5="550.00000" pt_clust_6="41.90247"></scales>
<mgrwt>
<rscale>  0 0.30000000E+03</rscale>
<asrwt>  1 0.41902468E+02</asrwt>
<pdfrwt beam="1">  1        1 0.86733528E+00 0.30000000E+03</pdfrwt>
<pdfrwt beam="2">0</pdfrwt>
<totfact> 0.26103370E-04</totfact>
</mgrwt>
<clustering>
<clus scale="   41.902">  1  6  2 -1</clus>
<clus scale="  462.645">  4  5 -1 -1</clus>
<clus scale="  300.000">  1  4  2 -1</clus>
</clustering>
</event>
<event>
 6    1  0.9964252E-012  0.3000000E+03  0.7818608E-02  0.1093470E+00
          1   -1    0    0  502    0  0.00000000000E+00  0.00000000000E+00  0.22506976049E+03  0.22506976049E+03  0.00000000000E+00 0.  1.
         13   -1    0    0    0    0 -0.00000000000E+00 -0.00000000000E+00 -0.27500000000E+03  0.27500000000E+03  0.00000000000E+00 0.  1.
    9000005    2    1    2  501    0  0.14755204392E+02  0.29842028526E+02 -0.33226970763E+02  0.46282379547E+03  0.46042759620E+03 0.  0.
         13    1    3    3    0    0 -0.15232420961E+03 -0.15022760436E+03 -0.37182799378E+02  0.21714870139E+03  0.00000000000E+00 0.  1.
          3    1    3    3  501    0  0.16707941400E+03  0.18006963289E+03  0.39558286151E+01  0.24567509408E+03  0.00000000000E+00 0.  1.
         21    1    1    2  502  501 -0.14755204392E+02 -0.29842028526E+02 -0.16703268751E+02  0.37245965019E+02  0.00000000000E+00 0.  1.
<scales pt_clust_4="550.00000" pt_clust_5="550.00000" pt_clust_6="33.29060"></scales>
<mgrwt>
<rscale>  0 0.30000000E+03</rscale>
<asrwt>  1 0.33290597E+02</asrwt>
<pdfrwt beam="1">  1        1 0.81843549E+00 0.30000000E+03</pdfrwt>
<pdfrwt beam="2">0</pdfrwt>
<totfact> 0.75296440E-04</totfact>
</mgrwt>
<clustering>
<clus scale="   33.291">  1  6  2 -1</clus>
<clus scale="  460.428">  4  5 -1 -1</clus>
<clus scale="  300.000">  1  4  2 -1</clus>
</clustering>
</event>
<event>
 6    1  0.9964252E-012  0.3000000E+03  0.7818608E-02  0.1093470E+00
          1   -1    0    0  502    0  0.00000000000E+00  0.00000000000E+00  0.25604813798E+03  0.25604813798E+03  0.00000000000E+00 0.  1.
         13   -1    0    0    0    0 -0.00000000000E+00 -0.00000000000E+00 -0.27500000000E+03  0.27500000000E+03  0.00000000000E+00 0.  1.
    9000005    2    1    2  501    0 -0.18355059044E+02  0.31700289978E+02 -0.69155128151E+02  0.46890166175E+03  0.46232512377E+03 0.  0.
         13    1    3    3    0    0 -0.17189867216E+03 -0.10362861912E+03  0.79556290817E+02  0.21591027673E+03  0.00000000000E+00 0.  1.
          1    1    3    3  501    0  0.15354361311E+03  0.13532890909E+03 -0.14871141897E+03  0.25299138502E+03  0.00000000000E+00 0.  1.
         21    1    1    2  502  501  0.18355059044E+02 -0.31700289978E+02  0.50203266136E+02  0.62146476231E+02  0.00000000000E+00 0.  1.
<scales pt_clust_4="550.00000" pt_clust_5="550.00000" pt_clust_6="36.63081"></scales>
<mgrwt>
<rscale>  0 0.30000000E+03</rscale>
<asrwt>  1 0.36630815E+02</asrwt>
<pdfrwt beam="1">  1        1 0.93108414E+00 0.30000000E+03</pdfrwt>
<pdfrwt beam="2">0</pdfrwt>
<totfact> 0.25099026E-05</totfact>
</mgrwt>
<clustering>
<clus scale="   36.631">  1  6  2 -1</clus>
<clus scale="  462.325">  4  5 -1 -1</clus>
<clus scale="  300.000">  1  4  2 -1</clus>
</clustering>
</event>
<event>
 6    1  0.9964252E-012  0.3000000E+03  0.7818608E-02  0.1093470E+00
          1   -1    0    0  502    0  0.00000000000E+00  0.00000000000E+00  0.24552362532E+03  0.24552362532E+03  0.00000000000E+00 0.  1.
         13   -1    0    0    0    0 -0.00000000000E+00 -0.00000000000E+00 -0.27500000000E+03  0.27500000000E+03  0.00000000000E+00 0.  1.
    9000005    2    1    2  501    0 -0.24946893557E+02  0.25080877652E+02 -0.47846345542E+02  0.48066319693E+03  0.47696586689E+03 0.  0.
         13    1    3    3    0    0  0.13839341775E+03 -0.16399874798E+01 -0.20833574155E+03  0.25011838965E+03  0.00000000000E+00 0.  1.
          3    1    3    3  501    0 -0.16334031131E+03  0.26720865132E+02  0.16048939600E+03  0.23054480728E+03  0.00000000000E+00 0.  1.
         21    1    1    2  502  501  0.24946893557E+02 -0.25080877652E+02  0.18369970858E+02  0.39860428388E+02  0.00000000000E+00 0. -1.
<scales pt_clust_4="550.00000" pt_clust_5="550.00000" pt_clust_6="35.37510"></scales>
<mgrwt>
<rscale>  0 0.30000000E+03</rscale>
<asrwt>  1 0.35375103E+02</asrwt>
<pdfrwt beam="1">  1        1 0.89281318E+00 0.30000000E+03</pdfrwt>
<pdfrwt beam="2">0</pdfrwt>
<totfact> 0.13333778E-04</totfact>
</mgrwt>
<clustering>
<clus scale="   35.375">  1  6  2 -1</clus>
<clus scale="  476.966">  4  5 -1 -1</clus>
<clus scale="  300.000">  1  4  2 -1</clus>
</clustering>
</event>
<event>
 6    1  0.9964252E-012  0.3000000E+03  0.7818608E-02  0.1093470E+00
          1   -1    0    0  502    0  0.00000000000E+00  0.00000000000E+00  0.23041380883E+03  0.23041380883E+03  0.00000000000E+00 0.  1.
         13   -1    0    0    0    0 -0.00000000000E+00 -0.00000000000E+00 -0.27500000000E+03  0.27500000000E+03  0.00000000000E+00 0.  1.
    9000005    2    1    2  501    0 -0.27782314081E+02 -0.21684461458E+02 -0.51016302451E+02  0.46958896863E+03  0.46547724272E+03 0.  0.
         13    1    3    3    0    0 -0.13834478436E+03 -0.10874868698E+03  0.14518820766E+03  0.22813410951E+03  0.00000000000E+00 0.  1.
          3    1    3    3  501    0  0.11056247028E+03  0.87064225523E+02 -0.19620451011E+03  0.24145485911E+03  0.00000000000E+00 0.  1.
         21    1    1    2  502  501  0.27782314081E+02  0.21684461458E+02  0.64301112771E+01  0.35824840201E+02  0.00000000000E+00 0.  1.
<scales pt_clust_4="550.00000" pt_clust_5="550.00000" pt_clust_6="35.24305"></scales>
<mgrwt>
<rscale>  0 0.30000000E+03</rscale>
<asrwt>  1 0.35243054E+02</asrwt>
<pdfrwt beam="1">  1        1 0.83786840E+00 0.30000000E+03</pdfrwt>
<pdfrwt beam="2">0</pdfrwt>
<totfact> 0.51494924E-04</totfact>
</mgrwt>
<clustering>
<clus scale="   35.243">  1  6  2 -1</clus>
<clus scale="  465.477">  4  5 -1 -1</clus>
<clus scale="  300.000">  1  4  2 -1</clus>
</clustering>
</event>
<event>
 6    1  0.9964252E-012  0.3000000E+03  0.7818608E-02  0.1093470E+00
          1   -1    0    0  502    0  0.00000000000E+00  0.00000000000E+00  0.24508489047E+03  0.24508489047E+03  0.00000000000E+00 0.  1.
         13   -1    0    0    0    0 -0.00000000000E+00 -0.00000000000E+00 -0.27500000000E+03  0.27500000000E+03  0.00000000000E+00 0.  1.
    9000005    2    1    2  501    0  0.32684027577E+02 -0.12044942960E+02  0.17680331326E+02  0.46110478959E+03  0.45944717493E+03 0.  0.
         13    1    3    3    0    0  0.99217216461E+02 -0.20104008300E+03 -0.80209390784E+02  0.23810652529E+03  0.00000000000E+00 0.  1.
          3    1    3    3  501    0 -0.66533188884E+02  0.18899514004E+03  0.97889722110E+02  0.22299826429E+03  0.00000000000E+00 0.  1.
         21    1    1    2  502  501 -0.32684027577E+02  0.12044942960E+02 -0.47595440858E+02  0.58980100882E+02  0.00000000000E+00 0.  1.
<scales pt_clust_4="550.00000" pt_clust_5="550.00000" pt_clust_6="34.83285"></scales>
<mgrwt>
<rscale>  0 0.30000000E+03</rscale>
<asrwt>  1 0.34832851E+02</asrwt>
<pdfrwt beam="1">  1        1 0.89121778E+00 0.30000000E+03</pdfrwt>
<pdfrwt beam="2">0</pdfrwt>
<totfact> 0.13988038E-04</totfact>
</mgrwt>
<clustering>
<clus scale="   34.833">  1  6  2 -1</clus>
<clus scale="  459.447">  4  5 -1 -1</clus>
<clus scale="  300.000">  1  4  2 -1</clus>
</clustering>
</event>
<event>
 6    1  0.9964252E-012  0.3000000E+03  0.7818608E-02  0.1093470E+00
          1   -1    0    0  502    0  0.00000000000E+00  0.00000000000E+00  0.22310587421E+03  0.22310587421E+03  0.00000000000E+00 0.  1.
         13   -1    0    0    0    0 -0.00000000000E+00 -0.00000000000E+00 -0.27500000000E+03  0.27500000000E+03  0.00000000000E+00 0.  1.
    9000005    2    1    2  501    0  0.31987449056E+02 -0.29179544881E+00 -0.65441752467E+02  0.46336655599E+03  0.45760535421E+03 0.  0.
         13    1    3    3    0    0  0.22730308570E+03 -0.66621850579E+02  0.24916548831E+02  0.23817220272E+03  0.00000000000E+00 0.  1.
          1    1    3    3  501    0 -0.19531563664E+03  0.66330055130E+02 -0.90358301298E+02  0.22519435327E+03  0.00000000000E+00 0.  1.
         21    1    1    2  502  501 -0.31987449056E+02  0.29179544881E+00  0.13547626676E+02  0.34739318218E+02  0.00000000000E+00 0.  1.
<scales pt_clust_4="550.00000" pt_clust_5="550.00000" pt_clust_6="31.98878"></scales>
<mgrwt>
<rscale>  0 0.30000000E+03</rscale>
<asrwt>  1 0.31988780E+02</asrwt>
<pdfrwt beam="1">  1        1 0.81129409E+00 0.30000000E+03</pdfrwt>
<pdfrwt beam="2">0</pdfrwt>
<totfact> 0.86661655E-04</totfact>
</mgrwt>
<clustering>
<clus scale="   31.989">  1  6  2 -1</clus>
<clus scale="  457.605">  4  5 -1 -1</clus>
<clus scale="  300.000">  1  4  2 -1</clus>
</clustering>
</event>
<event>
 6    1  0.9964252E-012  0.3000000E+03  0.7818608E-02  0.1093470E+00
          1   -1    0    0  502    0  0.00000000000E+00  0.00000000000E+00  0.22392215500E+03  0.22392215500E+03  0.00000000000E+00 0.  1.
         13   -1    0    0    0    0 -0.00000000000E+00 -0.00000000000E+00 -0.27500000000E+03  0.27500000000E+03  0.00000000000E+00 0.  1.
    9000005    2    1    2  501    0 -0.11312167387E+02  0.29713637445E+02 -0.58736909282E+02  0.46621853675E+03  0.46140961641E+03 0.  0.
         13    1    3    3    0    0 -0.95092071283E+02 -0.19247789583E+03  0.21037889491E+02  0.21571470789E+03  0.00000000000E+00 0.  1.
          1    1    3    3  501    0  0.83779903896E+02  0.22219153328E+03 -0.79774798773E+02  0.25050382886E+03  0.00000000000E+00 0.  1.
         21    1    1    2  502  501  0.11312167387E+02 -0.29713637445E+02  0.76590642867E+01  0.32703618254E+02  0.00000000000E+00 0.  1.
<scales pt_clust_4="550.00000" pt_clust_5="550.00000" pt_clust_6="31.79411"></scales>
<mgrwt>
<rscale>  0 0.30000000E+03</rscale>
<asrwt>  1 0.31794109E+02</asrwt>
<pdfrwt beam="1">  1        1 0.81426238E+00 0.30000000E+03</pdfrwt>
<pdfrwt beam="2">0</pdfrwt>
<totfact> 0.82177456E-04</totfact>
</mgrwt>
<clustering>
<clus scale="   31.794">  1  6  2 -1</clus>
<clus scale="  461.410">  4  5 -1 -1</clus>
<clus scale="  300.000">  1  4  2 -1</clus>
</clustering>
</event>
<event>
 6    1  0.9964252E-012  0.3000000E+03  0.7818608E-02  0.1093470E+00
          1   -1    0    0  502    0  0.00000000000E+00  0.00000000000E+00  0.23191204100E+03  0.23191204100E+03  0.00000000000E+00 0.  1.
         13   -1    0    0    0    0 -0.00000000000E+00 -0.00000000000E+00 -0.27500000000E+03  0.27500000000E+03  0.00000000000E+00 0.  1.
    9000005    2    1    2  501    0  0.25649689636E+02 -0.30295550740E+02 -0.55125853865E+02  0.46543146861E+03  0.46044746197E+03 0.  0.
         13    1    3    3    0    0 -0.98069079298E+02  0.18480588157E+03 -0.58591745687E+02  0.21726424197E+03  0.00000000000E+00 0.  1.
          1    1    3    3  501    0  0.12371876893E+03 -0.21510143231E+03  0.34658918220E+01  0.24816722663E+03  0.00000000000E+00 0.  1.
         21    1    1    2  502  501 -0.25649689636E+02  0.30295550740E+02  0.12037894866E+02  0.41480572390E+02  0.00000000000E+00 0. -1.
<scales pt_clust_4="550.00000" pt_clust_5="550.00000" pt_clust_6="39.69543"></scales>
<mgrwt>
<rscale>  0 0.30000000E+03</rscale>
<asrwt>  1 0.39695428E+02</asrwt>
<pdfrwt beam="1">  1        1 0.84331651E+00 0.30000000E+03</pdfrwt>
<pdfrwt beam="2">0</pdfrwt>
<totfact> 0.45641040E-04</totfact>
</mgrwt>
<clustering>
<clus scale="   39.695">  1  6  2 -1</clus>
<clus scale="  460.447">  4  5 -1 -1</clus>
<clus scale="  300.000">  1  4  2 -1</clus>
</clustering>
</event>
<event>
 6    1  0.9964252E-012  0.3000000E+03  0.7818608E-02  0.1093470E+00
          1   -1    0    0  502    0  0.00000000000E+00  0.00000000000E+00  0.24427155288E+03  0.24427155288E+03  0.00000000000E+00 0.  1.
         13   -1    0    0    0    0 -0.00000000000E+00 -0.00000000000E+00 -0.27500000000E+03  0.27500000000E+03  0.00000000000E+00 0.  1.
    9000005    2    1    2  501    0 -0.31599182773E+02 -0.46600439525E+01 -0.75978819709E+02  0.46388364282E+03  0.45650304344E+03 0.  0.
         13    1    3    3    0    0 -0.21633125266E+03 -0.97354750669E+02  0.15768042033E+02  0.23775152892E+03  0.00000000000E+00 0.  1.
          3    1    3    3  501    0  0.18473206988E+03  0.92694706716E+02 -0.91746861742E+02  0.22613211390E+03  0.00000000000E+00 0.  1.
         21    1    1    2  502  501  0.31599182773E+02  0.46600439525E+01  0.45250372588E+02  0.55387910061E+02  0.00000000000E+00 0.  1.
<scales pt_clust_4="550.00000" pt_clust_5="550.00000" pt_clust_6="31.94095"></scales>
<mgrwt>
<rscale>  0 0.30000000E+03</rscale>
<asrwt>  1 0.31940951E+02</asrwt>
<pdfrwt beam="1">  1        1 0.88826019E+00 0.30000000E+03</pdfrwt>
<pdfrwt beam="2">0</pdfrwt>
<totfact> 0.15569451E-04</totfact>
</mgrwt>
<clustering>
<clus scale="   31.941">  1  6  2 -1</clus>
<clus scale="  456.503">  4  5 -1 -1</clus>
<clus scale="  300.000">  1  4  2 -1</clus>
</clustering>
</event>
<event>
 6    1  0.9964252E-012  0.3000000E+03  0.7818608E-02  0.1093470E+00
          1   -1    0    0  502    0  0.00000000000E+00  0.00000000000E+00  0.23183575744E+03  0.23183575744E+03  0.00000000000E+00 0.  1.
         13   -1    0    0    0    0 -0.00000000000E+00 -0.00000000000E+00 -0.27500000000E+03  0.27500000000E+03  0.00000000000E+00 0.  1.
    9000005    2    1    2  501    0  0.10928626243E+02 -0.44148411707E+02 -0.30008036112E+02  0.45949018853E+03  0.45624799615E+03 0.  0.
         13    1    3    3    0    0 -0.21572859918E+03 -0.75079314342E+02 -0.32487168558E+02  0.23071876402E+03  0.00000000000E+00 0.  1.
          1    1    3    3  501    0  0.22665722543E+03  0.30930902635E+02  0.24791324453E+01  0.22877142451E+03  0.00000000000E+00 0.  1.
         21    1    1    2  502  501 -0.10928626243E+02  0.44148411707E+02 -0.13156206445E+02  0.47345568915E+02  0.00000000000E+00 0. -1.
<scales pt_clust_4="550.00000" pt_clust_5="550.00000" pt_clust_6="45.48098"></scales>
<mgrwt>
<rscale>  0 0.30000000E+03</rscale>
<asrwt>  1 0.45480976E+02</asrwt>
<pdfrwt beam="1">  1        1 0.84303912E+00 0.30000000E+03</pdfrwt>
<pdfrwt beam="2">0</pdfrwt>
<totfact> 0.44774994E-04</totfact>
</mgrwt>
<clustering>
<clus scale="   45.481">  1  6  2 -1</clus>
<clus scale="  456.248">  4  5 -1 -1</clus>
<clus scale="  300.000">  1  4  2 -1</clus>
</clustering>
</event>
<event>
 6    1  0.9964252E-012  0.3000000E+03  0.7818608E-02  0.1093470E+00
          1   -1    0    0  502    0  0.00000000000E+00  0.00000000000E+00  0.26337484512E+03  0.26337484512E+03  0.00000000000E+00 0.  1.
         13   -1    0    0    0    0 -0.00000000000E+00 -0.00000000000E+00 -0.27500000000E+03  0.27500000000E+03  0.00000000000E+00 0.  1.
    9000005    2    1    2  501    0 -0.59254483711E+02  0.29515682654E+02 -0.61797702617E+01  0.47195254784E+03  0.46724591864E+03 0.  0.
         13    1    3    3    0    0  0.16113513090E+03 -0.81583059085E+02 -0.10173373066E+03  0.20729225237E+03  0.00000000000E+00 0.  1.
          1    1    3    3  501    0 -0.22038961461E+03  0.11109874174E+03  0.95553960401E+02  0.26466029546E+03  0.00000000000E+00 0.  1.
         21    1    1    2  502  501  0.59254483711E+02 -0.29515682654E+02 -0.54453846222E+01  0.66422297281E+02  0.00000000000E+00 0.  1.
<scales pt_clust_4="550.00000" pt_clust_5="550.00000" pt_clust_6="66.19874"></scales>
<mgrwt>
<rscale>  0 0.30000000E+03</rscale>
<asrwt>  1 0.66198744E+02</asrwt>
<pdfrwt beam="1">  1        1 0.95772671E+00 0.30000000E+03</pdfrwt>
<pdfrwt beam="2">0</pdfrwt>
<totfact> 0.75855125E-06</totfact>
</mgrwt>
<clustering>
<clus scale="   66.199">  1  6  2 -1</clus>
<clus scale="  467.246">  4  5 -1 -1</clus>
<clus scale="  300.000">  1  4  2 -1</clus>
</clustering>
</event>
<event>
 6    1  0.9964252E-012  0.3000000E+03  0.7818608E-02  0.1093470E+00
          1   -1    0    0  502    0  0.00000000000E+00  0.00000000000E+00  0.22463730491E+03  0.22463730491E+03  0.00000000000E+00 0.  1.
         13   -1    0    0    0    0 -0.00000000000E+00 -0.00000000000E+00 -0.27500000000E+03  0.27500000000E+03  0.00000000000E+00 0.  1.
    9000005    2    1    2  501    0 -0.36089952297E+02  0.11821026673E+02 -0.49353448384E+02  0.46164730744E+03  0.45742786565E+03 0.  0.
         13    1    3    3    0    0  0.16602320317E+03 -0.12451426392E+03  0.19149888547E+02  0.20840879094E+03  0.00000000000E+00 0.  1.
          1    1    3    3  501    0 -0.20211315546E+03  0.13633529059E+03 -0.68503336932E+02  0.25323851651E+03  0.00000000000E+00 0.  1.
         21    1    1    2  502  501  0.36089952297E+02 -0.11821026673E+02 -0.10092467087E+01  0.37989997464E+02  0.00000000000E+00 0. -1.
<scales pt_clust_4="550.00000" pt_clust_5="550.00000" pt_clust_6="37.97659"></scales>
<mgrwt>
<rscale>  0 0.30000000E+03</rscale>
<asrwt>  1 0.37976589E+02</asrwt>
<pdfrwt beam="1">  1        1 0.81686293E+00 0.30000000E+03</pdfrwt>
<pdfrwt beam="2">0</pdfrwt>
<totfact> 0.75713163E-04</totfact>
</mgrwt>
<clustering>
<clus scale="   37.977">  1  6  2 -1</clus>
<clus scale="  457.428">  4  5 -1 -1</clus>
<clus scale="  300.000">  1  4  2 -1</clus>
</clustering>
</event>
<event>
 6    1  0.9964252E-012  0.3000000E+03  0.7818608E-02  0.1093470E+00
          1   -1    0    0  502    0  0.00000000000E+00  0.00000000000E+00  0.23428307617E+03  0.23428307617E+03  0.00000000000E+00 0.  1.
         13   -1    0    0    0    0 -0.00000000000E+00 -0.00000000000E+00 -0.27500000000E+03  0.27500000000E+03  0.00000000000E+00 0.  1.
    9000005    2    1    2  501    0  0.16989542364E+02 -0.30955082706E+02 -0.54874285796E+02  0.47123977724E+03  0.46669998792E+03 0.  0.
         13    1    3    3    0    0  0.88691607903E+02  0.50736862356E+02  0.18306416392E+03  0.20964951377E+03  0.00000000000E+00 0.  1.
          3    1    3    3  501    0 -0.71702065539E+02 -0.81691945061E+02 -0.23793844971E+03  0.26159026347E+03  0.00000000000E+00 0.  1.
         21    1    1    2  502  501 -0.16989542364E+02  0.30955082706E+02  0.14157361961E+02  0.38043298920E+02  0.00000000000E+00 0.  1.
<scales pt_clust_4="550.00000" pt_clust_5="550.00000" pt_clust_6="35.31093"></scales>
<mgrwt>
<rscale>  0 0.30000000E+03</rscale>
<asrwt>  1 0.35310929E+02</asrwt>
<pdfrwt beam="1">  1        1 0.85193846E+00 0.30000000E+03</pdfrwt>
<pdfrwt beam="2">0</pdfrwt>
<totfact> 0.38948194E-04</totfact>
</mgrwt>
<clustering>
<clus scale="   35.311">  1  6  2 -1</clus>
<clus scale="  466.700">  4  5 -1 -1</clus>
<clus scale="  300.000">  1  4  2 -1</clus>
</clustering>
</event>
<event>
 6    1  0.9964252E-012  0.3000000E+03  0.7818608E-02  0.1093470E+00
          1   -1    0    0  502    0  0.00000000000E+00  0.00000000000E+00  0.23048344432E+03  0.23048344432E+03  0.00000000000E+00 0.  1.
         13   -1    0    0    0    0 -0.00000000000E+00 -0.00000000000E+00 -0.27500000000E+03  0.27500000000E+03  0.00000000000E+00 0.  1.
    9000005    2    1    2  501    0  0.29196731713E+02 -0.77223474918E+01 -0.69287521935E+02  0.46642343200E+03  0.46025859408E+03 0.  0.
         13    1    3    3    0    0 -0.14469696930E+02 -0.20653594430E+03  0.71372662913E+02  0.21899891650E+03  0.00000000000E+00 0.  1.
          1    1    3    3  501    0  0.43666428643E+02  0.19881359681E+03 -0.14066018485E+03  0.24742451550E+03  0.00000000000E+00 0.  1.
         21    1    1    2  502  501 -0.29196731713E+02  0.77223474918E+01  0.24770966255E+02  0.39060012323E+02  0.00000000000E+00 0.  1.
<scales pt_clust_4="550.00000" pt_clust_5="550.00000" pt_clust_6="30.20073"></scales>
<mgrwt>
<rscale>  0 0.30000000E+03</rscale>
<asrwt>  1 0.30200725E+02</asrwt>
<pdfrwt beam="1">  1        1 0.83812162E+00 0.30000000E+03</pdfrwt>
<pdfrwt beam="2">0</pdfrwt>
<totfact> 0.52797729E-04</totfact>
</mgrwt>
<clustering>
<clus scale="   30.201">  1  6  2 -1</clus>
<clus scale="  460.259">  4  5 -1 -1</clus>
<clus scale="  300.000">  1  4  2 -1</clus>
</clustering>
</event>
<event>
 6    1  0.9964252E-012  0.3000000E+03  0.7818608E-02  0.1093470E+00
          1   -1    0    0  502    0  0.00000000000E+00  0.00000000000E+00  0.24585482783E+03  0.24585482783E+03  0.00000000000E+00 0.  1.
         13   -1    0    0    0    0 -0.00000000000E+00 -0.00000000000E+00 -0.27500000000E+03  0.27500000000E+03  0.00000000000E+00 0.  1.
    9000005    2    1    2  501    0 -0.18161805855E+02  0.25567524294E+02 -0.32696835174E+02  0.48929276515E+03  0.48719069932E+03 0.  0.
         13    1    3    3    0    0  0.38112652277E+02 -0.12543004894E+03  0.17985597778E+03  0.22256110213E+03  0.00000000000E+00 0.  1.
          1    1    3    3  501    0 -0.56274458132E+02  0.15099757323E+03 -0.21255281296E+03  0.26673166301E+03  0.00000000000E+00 0.  1.
         21    1    1    2  502  501  0.18161805855E+02 -0.25567524294E+02  0.35516630002E+01  0.31562062678E+02  0.00000000000E+00 0.  1.
<scales pt_clust_4="550.00000" pt_clust_5="550.00000" pt_clust_6="31.36159"></scales>
<mgrwt>
<rscale>  0 0.30000000E+03</rscale>
<asrwt>  1 0.31361593E+02</asrwt>
<pdfrwt beam="1">  1        1 0.89401756E+00 0.30000000E+03</pdfrwt>
<pdfrwt beam="2">0</pdfrwt>
<totfact> 0.13207253E-04</totfact>
</mgrwt>
<clustering>
<clus scale="   31.362">  1  6  2 -1</clus>
<clus scale="  487.191">  4  5 -1 -1</clus>
<clus scale="  300.000">  1  4  2 -1</clus>
</clustering>
</event>
<event>
 6    1  0.9964252E-012  0.3000000E+03  0.7818608E-02  0.1093470E+00
          1   -1    0    0  502    0  0.00000000000E+00  0.00000000000E+00  0.23442339893E+03  0.23442339893E+03  0.00000000000E+00 0.  1.
         13   -1    0    0    0    0 -0.00000000000E+00 -0.00000000000E+00 -0.27500000000E+03  0.27500000000E+03  0.00000000000E+00 0.  1.
    9000005    2    1    2  501    0  0.70928726010E-01 -0.30942402892E+02 -0.72500629181E+02  0.46496464390E+03  0.45823393755E+03 0.  0.
         13    1    3    3    0    0  0.58309759487E+02 -0.23309970394E+03 -0.83292120880E+02  0.25430901956E+03  0.00000000000E+00 0.  1.
          1    1    3    3  501    0 -0.58238830761E+02  0.20215730105E+03  0.10791491699E+02  0.21065562435E+03  0.00000000000E+00 0.  1.
         21    1    1    2  502  501 -0.70928726010E-01  0.30942402892E+02  0.31924028112E+02  0.44458755027E+02  0.00000000000E+00 0. -1.
<scales pt_clust_4="550.00000" pt_clust_5="550.00000" pt_clust_6="30.94248"></scales>
<mgrwt>
<rscale>  0 0.30000000E+03</rscale>
<asrwt>  1 0.30942484E+02</asrwt>
<pdfrwt beam="1">  1        1 0.85244872E+00 0.30000000E+03</pdfrwt>
<pdfrwt beam="2">0</pdfrwt>
<totfact> 0.39485358E-04</totfact>
</mgrwt>
<clustering>
<clus scale="   30.942">  1  6  2 -1</clus>
<clus scale="  458.234">  4  5 -1 -1</clus>
<clus scale="  300.000">  1  4  2 -1</clus>
</clustering>
</event>
<event>
 6    1  0.9964252E-012  0.3000000E+03  0.7818608E-02  0.1093470E+00
          1   -1    0    0  502    0  0.00000000000E+00  0.00000000000E+00  0.24382597998E+03  0.24382597998E+03  0.00000000000E+00 0.  1.
         13   -1    0    0    0    0 -0.00000000000E+00 -0.00000000000E+00 -0.27500000000E+03  0.27500000000E+03  0.00000000000E+00 0.  1.
    9000005    2    1    2  501    0 -0.33410920016E+01 -0.35787171652E+02 -0.60840160955E+02  0.47222164039E+03  0.46690455975E+03 0.  0.
         13    1    3    3    0    0 -0.21313983288E+03 -0.10426778771E+03 -0.80730619532E+02  0.25063477979E+03  0.00000000000E+00 0.  1.
          3    1    3    3  501    0  0.20979874087E+03  0.68480616054E+02  0.19890458577E+02  0.22158686060E+03  0.00000000000E+00 0.  1.
         21    1    1    2  502  501  0.33410920016E+01  0.35787171652E+02  0.29666140935E+02  0.46604339589E+02  0.00000000000E+00 0. -1.
<scales pt_clust_4="550.00000" pt_clust_5="550.00000" pt_clust_6="35.94280"></scales>
<mgrwt>
<rscale>  0 0.30000000E+03</rscale>
<asrwt>  1 0.35942796E+02</asrwt>
<pdfrwt beam="1">  1        1 0.88663993E+00 0.30000000E+03</pdfrwt>
<pdfrwt beam="2">0</pdfrwt>
<totfact> 0.16030950E-04</totfact>
</mgrwt>
<clustering>
<clus scale="   35.943">  1  6  2 -1</clus>
<clus scale="  466.905">  4  5 -1 -1</clus>
<clus scale="  300.000">  1  4  2 -1</clus>
</clustering>
</event>
<event>
 6    1  0.9964252E-012  0.3000000E+03  0.7818608E-02  0.1093470E+00
          1   -1    0    0  502    0  0.00000000000E+00  0.00000000000E+00  0.25781013190E+03  0.25781013190E+03  0.00000000000E+00 0.  1.
         13   -1    0    0    0    0 -0.00000000000E+00 -0.00000000000E+00 -0.27500000000E+03  0.27500000000E+03  0.00000000000E+00 0.  1.
    9000005    2    1    2  501    0 -0.77855005940E+01  0.29758318484E+02 -0.12883201295E+02  0.50175020728E+03  0.50064071158E+03 0.  0.
         13    1    3    3    0    0  0.11759825606E+03 -0.20403904955E+03  0.79545418191E+01  0.23563649612E+03  0.00000000000E+00 0.  1.
          3    1    3    3  501    0 -0.12538375665E+03  0.23379736803E+03 -0.20837743114E+02  0.26611371116E+03  0.00000000000E+00 0.  1.
         21    1    1    2  502  501  0.77855005940E+01 -0.29758318484E+02 -0.43066668051E+01  0.31059924621E+02  0.00000000000E+00 0. -1.
<scales pt_clust_4="550.00000" pt_clust_5="550.00000" pt_clust_6="30.75992"></scales>
<mgrwt>
<rscale>  0 0.30000000E+03</rscale>
<asrwt>  1 0.30759917E+02</asrwt>
<pdfrwt beam="1">  1        1 0.93749139E+00 0.30000000E+03</pdfrwt>
<pdfrwt beam="2">0</pdfrwt>
<totfact> 0.21465329E-05</totfact>
</mgrwt>
<clustering>
<clus scale="   30.760">  1  6  2 -1</clus>
<clus scale="  500.641">  4  5 -1 -1</clus>
<clus scale="  300.000">  1  4  2 -1</clus>
</clustering>
</event>
<event>
 6    1  0.9964252E-012  0.3000000E+03  0.7818608E-02  0.1093470E+00
          1   -1    0    0  502    0  0.00000000000E+00  0.00000000000E+00  0.23497349089E+03  0.23497349089E+03  0.00000000000E+00 0.  1.
         13   -1    0    0    0    0 -0.00000000000E+00 -0.00000000000E+00 -0.27500000000E+03  0.27500000000E+03  0.00000000000E+00 0.  1.
    9000005    2    1    2  501    0  0.24252596673E+02 -0.20870309974E+02 -0.63019763253E+02  0.47057237390E+03  0.46523446802E+03 0.  0.
         13    1    3    3    0    0 -0.22929065041E+02 -0.19371601723E+03  0.10792679433E+03  0.22293458747E+03  0.00000000000E+00 0.  1.
          3    1    3    3  501    0  0.47181661714E+02  0.17284570726E+03 -0.17094655758E+03  0.24763778643E+03  0.00000000000E+00 0.  1.
         21    1    1    2  502  501 -0.24252596673E+02  0.20870309974E+02  0.22993254138E+02  0.39401116985E+02  0.00000000000E+00 0.  1.
<scales pt_clust_4="550.00000" pt_clust_5="550.00000" pt_clust_6="31.99622"></scales>
<mgrwt>
<rscale>  0 0.30000000E+03</rscale>
<asrwt>  1 0.31996223E+02</asrwt>
<pdfrwt beam="1">  1        1 0.85444906E+00 0.30000000E+03</pdfrwt>
<pdfrwt beam="2">0</pdfrwt>
<totfact> 0.37521845E-04</totfact>
</mgrwt>
<clustering>
<clus scale="   31.996">  1  6  2 -1</clus>
<clus scale="  465.234">  4  5 -1 -1</clus>
<clus scale="  300.000">  1  4  2 -1</clus>
</clustering>
</event>
<event>
 6    1  0.9964252E-012  0.3000000E+03  0.7818608E-02  0.1093470E+00
          1   -1    0    0  502    0  0.00000000000E+00  0.00000000000E+00  0.23064269170E+03  0.23064269170E+03  0.00000000000E+00 0.  1.
         13   -1    0    0    0    0 -0.00000000000E+00 -0.00000000000E+00 -0.27500000000E+03  0.27500000000E+03  0.00000000000E+00 0.  1.
    9000005    2    1    2  501    0  0.28337835903E+02 -0.10309759853E+02 -0.71553853721E+02  0.46503510405E+03  0.45850667381E+03 0.  0.
         13    1    3    3    0    0  0.21996387198E+03  0.24750063090E+02  0.60763665214E+02  0.22954061429E+03  0.00000000000E+00 0.  1.
          3    1    3    3  501    0 -0.19162603608E+03 -0.35059822943E+02 -0.13231751894E+03  0.23549448976E+03  0.00000000000E+00 0.  1.
         21    1    1    2  502  501 -0.28337835903E+02  0.10309759853E+02  0.27196545419E+02  0.40607587648E+02  0.00000000000E+00 0.  1.
<scales pt_clust_4="550.00000" pt_clust_5="550.00000" pt_clust_6="30.15500"></scales>
<mgrwt>
<rscale>  0 0.30000000E+03</rscale>
<asrwt>  1 0.30155001E+02</asrwt>
<pdfrwt beam="1">  1        1 0.83870070E+00 0.30000000E+03</pdfrwt>
<pdfrwt beam="2">0</pdfrwt>
<totfact> 0.52295484E-04</totfact>
</mgrwt>
<clustering>
<clus scale="   30.155">  1  6  2 -1</clus>
<clus scale="  458.507">  4  5 -1 -1</clus>
<clus scale="  300.000">  1  4  2 -1</clus>
</clustering>
</event>
<event>
 6    1  0.9964252E-012  0.3000000E+03  0.7818608E-02  0.1093470E+00
          1   -1    0    0  502    0  0.00000000000E+00  0.00000000000E+00  0.23713968444E+03  0.23713968444E+03  0.00000000000E+00 0.  1.
         13   -1    0    0    0    0 -0.00000000000E+00 -0.00000000000E+00 -0.27500000000E+03  0.27500000000E+03  0.00000000000E+00 0.  1.
    9000005    2    1    2  501    0 -0.26915520497E+02  0.14287386315E+02 -0.61970115874E+02  0.47328280445E+03  0.46821762363E+03 0.  0.
         13    1    3    3    0    0 -0.95670534497E+02 -0.70962902954E+02 -0.23789637900E+03  0.26605125804E+03  0.00000000000E+00 0.  1.
          1    1    3    3  501    0  0.68755014000E+02  0.85250289268E+02  0.17592626312E+03  0.20723154641E+03  0.00000000000E+00 0.  1.
         21    1    1    2  502  501  0.26915520497E+02 -0.14287386315E+02  0.24109800311E+02  0.38856879987E+02  0.00000000000E+00 0. -1.
<scales pt_clust_4="550.00000" pt_clust_5="550.00000" pt_clust_6="30.47252"></scales>
<mgrwt>
<rscale>  0 0.30000000E+03</rscale>
<asrwt>  1 0.30472523E+02</asrwt>
<pdfrwt beam="1">  1        1 0.86232613E+00 0.30000000E+03</pdfrwt>
<pdfrwt beam="2">0</pdfrwt>
<totfact> 0.31348059E-04</totfact>
</mgrwt>
<clustering>
<clus scale="   30.473">  1  6  2 -1</clus>
<clus scale="  468.218">  4  5 -1 -1</clus>
<clus scale="  300.000">  1  4  2 -1</clus>
</clustering>
</event>
<event>
 6    1  0.9964252E-012  0.3000000E+03  0.7818608E-02  0.1093470E+00
          1   -1    0    0  502    0  0.00000000000E+00  0.00000000000E+00  0.23704643376E+03  0.23704643376E+03  0.00000000000E+00 0.  1.
         13   -1    0    0    0    0 -0.00000000000E+00 -0.00000000000E+00 -0.27500000000E+03  0.27500000000E+03  0.00000000000E+00 0.  1.
    9000005    2    1    2  501    0  0.33091577417E+02  0.20838953293E+02 -0.38395550137E+02  0.47293748568E+03  0.46975135191E+03 0.  0.
         13    1    3    3    0    0 -0.66904661520E+02 -0.11891293672E+02 -0.23788555649E+03  0.24740083788E+03  0.00000000000E+00 0.  1.
          1    1    3    3  501    0  0.99996238937E+02  0.32730246965E+02  0.19949000635E+03  0.22553664780E+03  0.00000000000E+00 0.  1.
         21    1    1    2  502  501 -0.33091577417E+02 -0.20838953293E+02  0.44198390126E+00  0.39108948082E+02  0.00000000000E+00 0.  1.
<scales pt_clust_4="550.00000" pt_clust_5="550.00000" pt_clust_6="39.10645"></scales>
<mgrwt>
<rscale>  0 0.30000000E+03</rscale>
<asrwt>  1 0.39106450E+02</asrwt>
<pdfrwt beam="1">  1        1 0.86198703E+00 0.30000000E+03</pdfrwt>
<pdfrwt beam="2">0</pdfrwt>
<totfact> 0.30168594E-04</totfact>
</mgrwt>
<clustering>
<clus scale="   39.106">  1  6  2 -1</clus>
<clus scale="  469.751">  4  5 -1 -1</clus>
<clus scale="  300.000">  1  4  2 -1</clus>
</clustering>
</event>
<event>
 6    1  0.9964252E-012  0.3000000E+03  0.7818608E-02  0.1093470E+00
          1   -1    0    0  502    0  0.00000000000E+00  0.00000000000E+00  0.23566554409E+03  0.23566554409E+03  0.00000000000E+00 0.  1.
         13   -1    0    0    0    0 -0.00000000000E+00 -0.00000000000E+00 -0.27500000000E+03  0.27500000000E+03  0.00000000000E+00 0.  1.
    9000005    2    1    2  501    0  0.30050576713E+02 -0.13594726018E+01 -0.58923285585E+02  0.47476836350E+03  0.47013632073E+03 0.  0.
         13    1    3    3    0    0 -0.64626855875E+02  0.21908449403E+03 -0.30744073283E+01  0.22843838995E+03  0.00000000000E+00 0.  1.
          3    1    3    3  501    0  0.94677432588E+02 -0.22044396663E+03 -0.55848878257E+02  0.24632997355E+03  0.00000000000E+00 0.  1.
         21    1    1    2  502  501 -0.30050576713E+02  0.13594726018E+01  0.19588829677E+02  0.35897180595E+02  0.00000000000E+00 0.  1.
<scales pt_clust_4="550.00000" pt_clust_5="550.00000" pt_clust_6="30.08131"></scales>
<mgrwt>
<rscale>  0 0.30000000E+03</rscale>
<asrwt>  1 0.30081312E+02</asrwt>
<pdfrwt beam="1">  1        1 0.85696561E+00 0.30000000E+03</pdfrwt>
<pdfrwt beam="2">0</pdfrwt>
<totfact> 0.35820320E-04</totfact>
</mgrwt>
<clustering>
<clus scale="   30.081">  1  6  2 -1</clus>
<clus scale="  470.136">  4  5 -1 -1</clus>
<clus scale="  300.000">  1  4  2 -1</clus>
</clustering>
</event>
<event>
 6    1  0.9964252E-012  0.3000000E+03  0.7818608E-02  0.1093470E+00
          1   -1    0    0  502    0  0.00000000000E+00  0.00000000000E+00  0.23296100165E+03  0.23296100165E+03  0.00000000000E+00 0.  1.
         13   -1    0    0    0    0 -0.00000000000E+00 -0.00000000000E+00 -0.27500000000E+03  0.27500000000E+03  0.00000000000E+00 0.  1.
    9000005    2    1    2  501    0  0.20564281370E+02 -0.35582698990E+02 -0.50807207208E+02  0.46593839318E+03  0.46133306385E+03 0.  0.
         13    1    3    3    0    0  0.21363051160E+02 -0.24882298110E+03 -0.33876656202E+02  0.25202556163E+03  0.00000000000E+00 0.  1.
          3    1    3    3  501    0 -0.79876979024E+00  0.21324028211E+03 -0.16930551006E+02  0.21391283156E+03  0.00000000000E+00 0.  1.
         21    1    1    2  502  501 -0.20564281370E+02  0.35582698990E+02  0.87682088546E+01  0.42022608465E+02  0.00000000000E+00 0.  1.
<scales pt_clust_4="550.00000" pt_clust_5="550.00000" pt_clust_6="41.09767"></scales>
<mgrwt>
<rscale>  0 0.30000000E+03</rscale>
<asrwt>  1 0.41097666E+02</asrwt>
<pdfrwt beam="1">  1        1 0.84713092E+00 0.30000000E+03</pdfrwt>
<pdfrwt beam="2">0</pdfrwt>
<totfact> 0.41992341E-04</totfact>
</mgrwt>
<clustering>
<clus scale="   41.098">  1  6  2 -1</clus>
<clus scale="  461.333">  4  5 -1 -1</clus>
<clus scale="  300.000">  1  4  2 -1</clus>
</clustering>
</event>
<event>
 6    1  0.9964252E-012  0.3000000E+03  0.7818608E-02  0.1093470E+00
          1   -1    0    0  502    0  0.00000000000E+00  0.00000000000E+00  0.26002310312E+03  0.26002310312E+03  0.00000000000E+00 0.  1.
         13   -1    0    0    0    0 -0.00000000000E+00 -0.00000000000E+00 -0.27500000000E+03  0.27500000000E+03  0.00000000000E+00 0.  1.
    9000005    2    1    2  501    0 -0.31997722153E+02  0.10733223468E+02 -0.60246995575E+02  0.47855684643E+03  0.47354820080E+03 0.  0.
         13    1    3    3    0    0 -0.77553846435E+02 -0.18600434407E+03 -0.15620478934E+03  0.25497480527E+03  0.00000000000E+00 0.  1.
          1    1    3    3  501    0  0.45556124282E+02  0.19673756754E+03  0.95957793765E+02  0.22358204115E+03  0.00000000000E+00 0.  1.
         21    1    1    2  502  501  0.31997722153E+02 -0.10733223468E+02  0.45270098699E+02  0.56466256696E+02  0.00000000000E+00 0.  1.
<scales pt_clust_4="550.00000" pt_clust_5="550.00000" pt_clust_6="33.74991"></scales>
<mgrwt>
<rscale>  0 0.30000000E+03</rscale>
<asrwt>  1 0.33749908E+02</asrwt>
<pdfrwt beam="1">  1        1 0.94553856E+00 0.30000000E+03</pdfrwt>
<pdfrwt beam="2">0</pdfrwt>
<totfact> 0.15282064E-05</totfact>
</mgrwt>
<clustering>
<clus scale="   33.750">  1  6  2 -1</clus>
<clus scale="  473.548">  4  5 -1 -1</clus>
<clus scale="  300.000">  1  4  2 -1</clus>
</clustering>
</event>
<event>
 6    1  0.9964252E-012  0.3000000E+03  0.7818608E-02  0.1093470E+00
          1   -1    0    0  502    0  0.00000000000E+00  0.00000000000E+00  0.24714547571E+03  0.24714547571E+03  0.00000000000E+00 0.  1.
         13   -1    0    0    0    0 -0.00000000000E+00 -0.00000000000E+00 -0.27500000000E+03  0.27500000000E+03  0.00000000000E+00 0.  1.
    9000005    2    1    2  501    0 -0.28870319945E+00  0.33242376332E+02 -0.66773949760E+02  0.47096090174E+03  0.46501642086E+03 0.  0.
         13    1    3    3    0    0 -0.17231870426E+03 -0.43422775079E+02 -0.17858166597E+03  0.25193388945E+03  0.00000000000E+00 0.  1.
          1    1    3    3  501    0  0.17203000106E+03  0.76665151411E+02  0.11180771621E+03  0.21902701229E+03  0.00000000000E+00 0.  1.
         21    1    1    2  502  501  0.28870319945E+00 -0.33242376332E+02  0.38919425465E+02  0.51184573968E+02  0.00000000000E+00 0.  1.
<scales pt_clust_4="550.00000" pt_clust_5="550.00000" pt_clust_6="33.24363"></scales>
<mgrwt>
<rscale>  0 0.30000000E+03</rscale>
<asrwt>  1 0.33243630E+02</asrwt>
<pdfrwt beam="1">  1        1 0.89871082E+00 0.30000000E+03</pdfrwt>
<pdfrwt beam="2">0</pdfrwt>
<totfact> 0.11560442E-04</totfact>
</mgrwt>
<clustering>
<clus scale="   33.244">  1  6  2 -1</clus>
<clus scale="  465.016">  4  5 -1 -1</clus>
<clus scale="  300.000">  1  4  2 -1</clus>
</clustering>
</event>
<event>
 6    1  0.9964252E-012  0.3000000E+03  0.7818608E-02  0.1093470E+00
          1   -1    0    0  502    0  0.00000000000E+00  0.00000000000E+00  0.24253727290E+03  0.24253727290E+03  0.00000000000E+00 0.  1.
         13   -1    0    0    0    0 -0.00000000000E+00 -0.00000000000E+00 -0.27500000000E+03  0.27500000000E+03  0.00000000000E+00 0.  1.
    9000005    2    1    2  501    0  0.27490519799E+02  0.17739566055E+02 -0.34869058295E+02  0.48473161314E+03  0.48236756179E+03 0.  0.
         13    1    3    3    0    0 -0.19790082533E+03  0.65401079411E+02  0.84932369686E+02  0.22506786815E+03  0.00000000000E+00 0.  1.
          3    1    3    3  501    0  0.22539134513E+03 -0.47661513357E+02 -0.11980142798E+03  0.25966374499E+03  0.00000000000E+00 0.  1.
         21    1    1    2  502  501 -0.27490519799E+02 -0.17739566055E+02  0.24063311992E+01  0.32805659763E+02  0.00000000000E+00 0.  1.
<scales pt_clust_4="550.00000" pt_clust_5="550.00000" pt_clust_6="32.71729"></scales>
<mgrwt>
<rscale>  0 0.30000000E+03</rscale>
<asrwt>  1 0.32717287E+02</asrwt>
<pdfrwt beam="1">  1        1 0.88195372E+00 0.30000000E+03</pdfrwt>
<pdfrwt beam="2">0</pdfrwt>
<totfact> 0.18881433E-04</totfact>
</mgrwt>
<clustering>
<clus scale="   32.717">  1  6  2 -1</clus>
<clus scale="  482.368">  4  5 -1 -1</clus>
<clus scale="  300.000">  1  4  2 -1</clus>
</clustering>
</event>
<event>
 6    1  0.9964252E-012  0.3000000E+03  0.7818608E-02  0.1093470E+00
          1   -1    0    0  502    0  0.00000000000E+00  0.00000000000E+00  0.21900763767E+03  0.21900763767E+03  0.00000000000E+00 0.  1.
         13   -1    0    0    0    0 -0.00000000000E+00 -0.00000000000E+00 -0.27500000000E+03  0.27500000000E+03  0.00000000000E+00 0.  1.
    9000005    2    1    2  501    0  0.27081265275E+02  0.14018661082E+02 -0.46013776533E+02  0.46192197168E+03  0.45861173393E+03 0.  0.
         13    1    3    3    0    0  0.48134610040E+02 -0.19883997289E+03 -0.11807568188E+03  0.23621207029E+03  0.00000000000E+00 0.  1.
          1    1    3    3  501    0 -0.21053344765E+02  0.21285863397E+03  0.72061905343E+02  0.22570990139E+03  0.00000000000E+00 0.  1.
         21    1    1    2  502  501 -0.27081265275E+02 -0.14018661082E+02 -0.99785857984E+01  0.32085665989E+02  0.00000000000E+00 0.  1.
<scales pt_clust_4="550.00000" pt_clust_5="550.00000" pt_clust_6="30.49457"></scales>
<mgrwt>
<rscale>  0 0.30000000E+03</rscale>
<asrwt>  1 0.30494569E+02</asrwt>
<pdfrwt beam="1">  1        1 0.79639141E+00 0.30000000E+03</pdfrwt>
<pdfrwt beam="2">0</pdfrwt>
<totfact> 0.11307612E-03</totfact>
</mgrwt>
<clustering>
<clus scale="   30.495">  1  6  2 -1</clus>
<clus scale="  458.612">  4  5 -1 -1</clus>
<clus scale="  300.000">  1  4  2 -1</clus>
</clustering>
</event>
<event>
 6    1  0.9964252E-012  0.3000000E+03  0.7818608E-02  0.1093470E+00
          1   -1    0    0  502    0  0.00000000000E+00  0.00000000000E+00  0.22785834519E+03  0.22785834519E+03  0.00000000000E+00 0.  1.
         13   -1    0    0    0    0 -0.00000000000E+00 -0.00000000000E+00 -0.27500000000E+03  0.27500000000E+03  0.00000000000E+00 0.  1.
    9000005    2    1    2  501    0  0.88984393582E+01  0.37626526132E+02 -0.51731995915E+02  0.46392238594E+03  0.45940487925E+03 0.  0.
         13    1    3    3    0    0  0.69870368589E+02  0.14221698173E+02 -0.24749033102E+03  0.25755696274E+03  0.00000000000E+00 0.  1.
          1    1    3    3  501    0 -0.60971929231E+02  0.23404827959E+02  0.19575833511E+03  0.20636542320E+03  0.00000000000E+00 0.  1.
         21    1    1    2  502  501 -0.88984393582E+01 -0.37626526132E+02  0.45903411080E+01  0.38935959257E+02  0.00000000000E+00 0.  1.
<scales pt_clust_4="550.00000" pt_clust_5="550.00000" pt_clust_6="38.66442"></scales>
<mgrwt>
<rscale>  0 0.30000000E+03</rscale>
<asrwt>  1 0.38664424E+02</asrwt>
<pdfrwt beam="1">  1        1 0.82857580E+00 0.30000000E+03</pdfrwt>
<pdfrwt beam="2">0</pdfrwt>
<totfact> 0.59645477E-04</totfact>
</mgrwt>
<clustering>
<clus scale="   38.664">  1  6  2 -1</clus>
<clus scale="  459.405">  4  5 -1 -1</clus>
<clus scale="  300.000">  1  4  2 -1</clus>
</clustering>
</event>
<event>
 6    1  0.9964252E-012  0.3000000E+03  0.7818608E-02  0.1093470E+00
          1   -1    0    0  502    0  0.00000000000E+00  0.00000000000E+00  0.23716785475E+03  0.23716785475E+03  0.00000000000E+00 0.  1.
         13   -1    0    0    0    0 -0.00000000000E+00 -0.00000000000E+00 -0.27500000000E+03  0.27500000000E+03  0.00000000000E+00 0.  1.
    9000005    2    1    2  501    0  0.10004821076E+02  0.36808903929E+02 -0.26506639550E+02  0.47237766837E+03  0.47008836167E+03 0.  0.
         13    1    3    3    0    0 -0.10310036806E+03  0.13620102634E+03  0.15905816858E+03  0.23340931100E+03  0.00000000000E+00 0.  1.
          1    1    3    3  501    0  0.11310518914E+03 -0.99392122408E+02 -0.18556480813E+03  0.23896835737E+03  0.00000000000E+00 0.  1.
         21    1    1    2  502  501 -0.10004821076E+02 -0.36808903929E+02 -0.11325505695E+02  0.39790186384E+02  0.00000000000E+00 0. -1.
<scales pt_clust_4="550.00000" pt_clust_5="550.00000" pt_clust_6="38.14437"></scales>
<mgrwt>
<rscale>  0 0.30000000E+03</rscale>
<asrwt>  1 0.38144375E+02</asrwt>
<pdfrwt beam="1">  1        1 0.86242856E+00 0.30000000E+03</pdfrwt>
<pdfrwt beam="2">0</pdfrwt>
<totfact> 0.29975696E-04</totfact>
</mgrwt>
<clustering>
<clus scale="   38.144">  1  6  2 -1</clus>
<clus scale="  470.088">  4  5 -1 -1</clus>
<clus scale="  300.000">  1  4  2 -1</clus>
</clustering>
</event>
<event>
 6    1  0.9964252E-012  0.3000000E+03  0.7818608E-02  0.1093470E+00
          1   -1    0    0  502    0  0.00000000000E+00  0.00000000000E+00  0.24434664358E+03  0.24434664358E+03  0.00000000000E+00 0.  1.
         13   -1    0    0    0    0 -0.00000000000E+00 -0.00000000000E+00 -0.27500000000E+03  0.27500000000E+03  0.00000000000E+00 0.  1.
    9000005    2    1    2  501    0  0.35854033803E+02 -0.25563344952E+02 -0.57483558223E+02  0.46778254683E+03  0.46214408500E+03 0.  0.
         13    1    3    3    0    0 -0.89935098513E+02 -0.21668649918E+03 -0.15164883934E+02  0.23509856353E+03  0.00000000000E+00 0.  1.
          3    1    3    3  501    0  0.12578913232E+03  0.19112315422E+03 -0.42318674289E+02  0.23268398330E+03  0.00000000000E+00 0.  1.
         21    1    1    2  502  501 -0.35854033803E+02  0.25563344952E+02  0.26830201798E+02  0.51564096749E+02  0.00000000000E+00 0. -1.
<scales pt_clust_4="550.00000" pt_clust_5="550.00000" pt_clust_6="44.03404"></scales>
<mgrwt>
<rscale>  0 0.30000000E+03</rscale>
<asrwt>  1 0.44034036E+02</asrwt>
<pdfrwt beam="1">  1        1 0.88853325E+00 0.30000000E+03</pdfrwt>
<pdfrwt beam="2">0</pdfrwt>
<totfact> 0.14547264E-04</totfact>
</mgrwt>
<clustering>
<clus scale="   44.034">  1  6  2 -1</clus>
<clus scale="  462.144">  4  5 -1 -1</clus>
<clus scale="  300.000">  1  4  2 -1</clus>
</clustering>
</event>
<event>
 6    1  0.9964252E-012  0.3000000E+03  0.7818608E-02  0.1093470E+00
          1   -1    0    0  502    0  0.00000000000E+00  0.00000000000E+00  0.22702449776E+03  0.22702449776E+03  0.00000000000E+00 0.  1.
         13   -1    0    0    0    0 -0.00000000000E+00 -0.00000000000E+00 -0.27500000000E+03  0.27500000000E+03  0.00000000000E+00 0.  1.
    9000005    2    1    2  501    0  0.34027357085E+02 -0.45327163090E+01 -0.53449691301E+02  0.46726283363E+03  0.46292470191E+03 0.  0.
         13    1    3    3    0    0  0.11889179252E+03  0.15389498842E+03  0.11077357882E+03  0.22380730899E+03  0.00000000000E+00 0.  1.
          3    1    3    3  501    0 -0.84864435437E+02 -0.15842770473E+03 -0.16422327012E+03  0.24345552464E+03  0.00000000000E+00 0.  1.
         21    1    1    2  502  501 -0.34027357085E+02  0.45327163090E+01  0.54741890592E+01  0.34761664132E+02  0.00000000000E+00 0. -1.
<scales pt_clust_4="550.00000" pt_clust_5="550.00000" pt_clust_6="34.32793"></scales>
<mgrwt>
<rscale>  0 0.30000000E+03</rscale>
<asrwt>  1 0.34327927E+02</asrwt>
<pdfrwt beam="1">  1        1 0.82554363E+00 0.30000000E+03</pdfrwt>
<pdfrwt beam="2">0</pdfrwt>
<totfact> 0.64827367E-04</totfact>
</mgrwt>
<clustering>
<clus scale="   34.328">  1  6  2 -1</clus>
<clus scale="  462.925">  4  5 -1 -1</clus>
<clus scale="  300.000">  1  4  2 -1</clus>
</clustering>
</event>
<event>
 6    1  0.9964252E-012  0.3000000E+03  0.7818608E-02  0.1093470E+00
          1   -1    0    0  502    0  0.00000000000E+00  0.00000000000E+00  0.24583321168E+03  0.24583321168E+03  0.00000000000E+00 0.  1.
         13   -1    0    0    0    0 -0.00000000000E+00 -0.00000000000E+00 -0.27500000000E+03  0.27500000000E+03  0.00000000000E+00 0.  1.
    9000005    2    1    2  501    0 -0.52799311395E+02 -0.34290096151E+01 -0.33123145782E+02  0.46777495921E+03  0.46359113914E+03 0.  0.
         13    1    3    3    0    0  0.18245966629E+03 -0.60223800277E+02 -0.10011090967E+03  0.21665786434E+03  0.00000000000E+00 0.  1.
          1    1    3    3  501    0 -0.23525897768E+03  0.56794790662E+02  0.66987763893E+02  0.25111709488E+03  0.00000000000E+00 0.  1.
         21    1    1    2  502  501  0.52799311395E+02  0.34290096151E+01  0.39563574628E+01  0.53058252470E+02  0.00000000000E+00 0.  1.
<scales pt_clust_4="550.00000" pt_clust_5="550.00000" pt_clust_6="52.91054"></scales>
<mgrwt>
<rscale>  0 0.30000000E+03</rscale>
<asrwt>  1 0.52910541E+02</asrwt>
<pdfrwt beam="1">  1        1 0.89393895E+00 0.30000000E+03</pdfrwt>
<pdfrwt beam="2">0</pdfrwt>
<totfact> 0.12032909E-04</totfact>
</mgrwt>
<clustering>
<clus scale="   52.911">  1  6  2 -1</clus>
<clus scale="  463.591">  4  5 -1 -1</clus>
<clus scale="  300.000">  1  4  2 -1</clus>
</clustering>
</event>
<event>
 6    1  0.9964252E-012  0.3000000E+03  0.7818608E-02  0.1093470E+00
          1   -1    0    0  502    0  0.00000000000E+00  0.00000000000E+00  0.23675763293E+03  0.23675763293E+03  0.00000000000E+00 0.  1.
         13   -1    0    0    0    0 -0.00000000000E+00 -0.00000000000E+00 -0.27500000000E+03  0.27500000000E+03  0.00000000000E+00 0.  1.
    9000005    2    1    2  501    0 -0.32901604789E+02  0.51892738569E+01 -0.50030030588E+02  0.47642502516E+03  0.47261861630E+03 0.  0.
         13    1    3    3    0    0  0.11945815058E+03  0.36691290786E+02  0.16750175296E+03  0.20898166858E+03  0.00000000000E+00 0.  1.
          1    1    3    3  501    0 -0.15235975537E+03 -0.31502016929E+02 -0.21753178354E+03  0.26744335658E+03  0.00000000000E+00 0.  1.
         21    1    1    2  502  501  0.32901604789E+02 -0.51892738569E+01  0.11787663518E+02  0.35332607773E+02  0.00000000000E+00 0. -1.
<scales pt_clust_4="550.00000" pt_clust_5="550.00000" pt_clust_6="33.30832"></scales>
<mgrwt>
<rscale>  0 0.30000000E+03</rscale>
<asrwt>  1 0.33308320E+02</asrwt>
<pdfrwt beam="1">  1        1 0.86093685E+00 0.30000000E+03</pdfrwt>
<pdfrwt beam="2">0</pdfrwt>
<totfact> 0.31903262E-04</totfact>
</mgrwt>
<clustering>
<clus scale="   33.308">  1  6  2 -1</clus>
<clus scale="  472.619">  4  5 -1 -1</clus>
<clus scale="  300.000">  1  4  2 -1</clus>
</clustering>
</event>
<event>
 6    1  0.9964252E-012  0.3000000E+03  0.7818608E-02  0.1093470E+00
          1   -1    0    0  502    0  0.00000000000E+00  0.00000000000E+00  0.23651053300E+03  0.23651053300E+03  0.00000000000E+00 0.  1.
         13   -1    0    0    0    0 -0.00000000000E+00 -0.00000000000E+00 -0.27500000000E+03  0.27500000000E+03  0.00000000000E+00 0.  1.
    9000005    2    1    2  501    0  0.47972901110E+02  0.13424991187E+02 -0.35523431986E+02  0.46160635488E+03  0.45753347748E+03 0.  0.
         13    1    3    3    0    0 -0.10429437895E+03 -0.23656990268E+02  0.17140434115E+03  0.20203073735E+03  0.00000000000E+00 0.  1.
          1    1    3    3  501    0  0.15226728006E+03  0.37081981454E+02 -0.20692777314E+03  0.25957561754E+03  0.00000000000E+00 0.  1.
         21    1    1    2  502  501 -0.47972901110E+02 -0.13424991187E+02 -0.29660350190E+01  0.49904178112E+02  0.00000000000E+00 0.  1.
<scales pt_clust_4="550.00000" pt_clust_5="550.00000" pt_clust_6="49.81596"></scales>
<mgrwt>
<rscale>  0 0.30000000E+03</rscale>
<asrwt>  1 0.49815958E+02</asrwt>
<pdfrwt beam="1">  1        1 0.86003830E+00 0.30000000E+03</pdfrwt>
<pdfrwt beam="2">0</pdfrwt>
<totfact> 0.30314463E-04</totfact>
</mgrwt>
<clustering>
<clus scale="   49.816">  1  6  2 -1</clus>
<clus scale="  457.533">  4  5 -1 -1</clus>
<clus scale="  300.000">  1  4  2 -1</clus>
</clustering>
</event>
<event>
 6    1  0.9964252E-012  0.3000000E+03  0.7818608E-02  0.1093470E+00
          1   -1    0    0  502    0  0.00000000000E+00  0.00000000000E+00  0.23939963240E+03  0.23939963240E+03  0.00000000000E+00 0.  1.
         13   -1    0    0    0    0 -0.00000000000E+00 -0.00000000000E+00 -0.27500000000E+03  0.27500000000E+03  0.00000000000E+00 0.  1.
    9000005    2    1    2  501    0  0.33147122892E+02  0.13926210400E+02 -0.47696977990E+02  0.47646549111E+03  0.47270677108E+03 0.  0.
         13    1    3    3    0    0  0.19556992589E+03  0.98131621395E+02 -0.15147917268E+03  0.26612656911E+03  0.00000000000E+00 0.  1.
          1    1    3    3  501    0 -0.16242280300E+03 -0.84205410995E+02  0.10378219469E+03  0.21033892200E+03  0.00000000000E+00 0.  1.
         21    1    1    2  502  501 -0.33147122892E+02 -0.13926210400E+02  0.12096610389E+02  0.37934141285E+02  0.00000000000E+00 0. -1.
<scales pt_clust_4="550.00000" pt_clust_5="550.00000" pt_clust_6="35.95374"></scales>
<mgrwt>
<rscale>  0 0.30000000E+03</rscale>
<asrwt>  1 0.35953735E+02</asrwt>
<pdfrwt beam="1">  1        1 0.87054412E+00 0.30000000E+03</pdfrwt>
<pdfrwt beam="2">0</pdfrwt>
<totfact> 0.24877887E-04</totfact>
</mgrwt>
<clustering>
<clus scale="   35.954">  1  6  2 -1</clus>
<clus scale="  472.707">  4  5 -1 -1</clus>
<clus scale="  300.000">  1  4  2 -1</clus>
</clustering>
</event>
<event>
 6    1  0.9964252E-012  0.3000000E+03  0.7818608E-02  0.1093470E+00
          1   -1    0    0  502    0  0.00000000000E+00  0.00000000000E+00  0.23466924241E+03  0.23466924241E+03  0.00000000000E+00 0.  1.
         13   -1    0    0    0    0 -0.00000000000E+00 -0.00000000000E+00 -0.27500000000E+03  0.27500000000E+03  0.00000000000E+00 0.  1.
    9000005    2    1    2  501    0  0.23108059162E+02 -0.19546404063E+02 -0.46155957247E+02  0.47884754127E+03  0.47565591669E+03 0.  0.
         13    1    3    3    0    0  0.15065493216E+03  0.13743509908E+03  0.10210953152E+03  0.22806067498E+03  0.00000000000E+00 0.  1.
          1    1    3    3  501    0 -0.12754687300E+03 -0.15698150315E+03 -0.14826548877E+03  0.25078686629E+03  0.00000000000E+00 0.  1.
         21    1    1    2  502  501 -0.23108059162E+02  0.19546404063E+02  0.58251996520E+01  0.30821701138E+02  0.00000000000E+00 0.  1.
<scales pt_clust_4="550.00000" pt_clust_5="550.00000" pt_clust_6="30.26622"></scales>
<mgrwt>
<rscale>  0 0.30000000E+03</rscale>
<asrwt>  1 0.30266224E+02</asrwt>
<pdfrwt beam="1">  1        1 0.85334270E+00 0.30000000E+03</pdfrwt>
<pdfrwt beam="2">0</pdfrwt>
<totfact> 0.38873751E-04</totfact>
</mgrwt>
<clustering>
<clus scale="   30.266">  1  6  2 -1</clus>
<clus scale="  475.656">  4  5 -1 -1</clus>
<clus scale="  300.000">  1  4  2 -1</clus>
</clustering>
</event>
<event>
 6    1  0.9964252E-012  0.3000000E+03  0.7818608E-02  0.1093470E+00
          1   -1    0    0  502    0  0.00000000000E+00  0.00000000000E+00  0.23830670586E+03  0.23830670586E+03  0.00000000000E+00 0.  1.
         13   -1    0    0    0    0 -0.00000000000E+00 -0.00000000000E+00 -0.27500000000E+03  0.27500000000E+03  0.00000000000E+00 0.  1.
    9000005    2    1    2  501    0  0.20025599382E+02 -0.37601037723E+02 -0.60279785403E+02  0.46461188849E+03  0.45871090213E+03 0.  0.
         13    1    3    3    0    0 -0.49466887246E+02  0.15440790488E+03  0.11231865858E+03  0.19724161602E+03  0.00000000000E+00 0.  1.
          1    1    3    3  501    0  0.69492486628E+02 -0.19200894260E+03 -0.17259844399E+03  0.26737027247E+03  0.00000000000E+00 0.  1.
         21    1    1    2  502  501 -0.20025599382E+02  0.37601037723E+02  0.23586491263E+02  0.48694817368E+02  0.00000000000E+00 0. -1.
<scales pt_clust_4="550.00000" pt_clust_5="550.00000" pt_clust_6="42.60121"></scales>
<mgrwt>
<rscale>  0 0.30000000E+03</rscale>
<asrwt>  1 0.42601205E+02</asrwt>
<pdfrwt beam="1">  1        1 0.86656984E+00 0.30000000E+03</pdfrwt>
<pdfrwt beam="2">0</pdfrwt>
<totfact> 0.26512952E-04</totfact>
</mgrwt>
<clustering>
<clus scale="   42.601">  1  6  2 -1</clus>
<clus scale="  458.711">  4  5 -1 -1</clus>
<clus scale="  300.000">  1  4  2 -1</clus>
</clustering>
</event>
<event>
 6    1  0.9964252E-012  0.3000000E+03  0.7818608E-02  0.1093470E+00
          1   -1    0    0  502    0  0.00000000000E+00  0.00000000000E+00  0.23186768919E+03  0.23186768919E+03  0.00000000000E+00 0.  1.
         13   -1    0    0    0    0 -0.00000000000E+00 -0.00000000000E+00 -0.27500000000E+03  0.27500000000E+03  0.00000000000E+00 0.  1.
    9000005    2    1    2  501    0  0.21907461667E+01  0.38550151530E+02 -0.17470947375E+02  0.46050586088E+03  0.45855152420E+03 0.  0.
         13    1    3    3    0    0 -0.87131854083E+02  0.22981938923E+03 -0.36811086337E+02  0.24852357582E+03  0.00000000000E+00 0.  1.
          3    1    3    3  501    0  0.89322600250E+02 -0.19126923770E+03  0.19340138963E+02  0.21198228506E+03  0.00000000000E+00 0.  1.
         21    1    1    2  502  501 -0.21907461667E+01 -0.38550151530E+02 -0.25661363431E+02  0.46361828317E+02  0.00000000000E+00 0. -1.
<scales pt_clust_4="550.00000" pt_clust_5="550.00000" pt_clust_6="38.61237"></scales>
<mgrwt>
<rscale>  0 0.30000000E+03</rscale>
<asrwt>  1 0.38612369E+02</asrwt>
<pdfrwt beam="1">  1        1 0.84315523E+00 0.30000000E+03</pdfrwt>
<pdfrwt beam="2">0</pdfrwt>
<totfact> 0.46017329E-04</totfact>
</mgrwt>
<clustering>
<clus scale="   38.612">  1  6  2 -1</clus>
<clus scale="  458.552">  4  5 -1 -1</clus>
<clus scale="  300.000">  1  4  2 -1</clus>
</clustering>
</event>
<event>
 6    1  0.9964252E-012  0.3000000E+03  0.7818608E-02  0.1093470E+00
          1   -1    0    0  502    0  0.00000000000E+00  0.00000000000E+00  0.26486455649E+03  0.26486455649E+03  0.00000000000E+00 0.  1.
         13   -1    0    0    0    0 -0.00000000000E+00 -0.00000000000E+00 -0.27500000000E+03  0.27500000000E+03  0.00000000000E+00 0.  1.
    9000005    2    1    2  501    0 -0.33081526360E+02 -0.18474327389E+00 -0.31267265624E+02  0.50060929669E+03  0.49853545964E+03 0.  0.
         13    1    3    3    0    0 -0.25608163617E+03 -0.39271831036E+02 -0.75662254482E+02  0.26989786559E+03  0.00000000000E+00 0.  1.
          1    1    3    3  501    0  0.22300010981E+03  0.39087087762E+02  0.44394988859E+02  0.23071143110E+03  0.00000000000E+00 0.  1.
         21    1    1    2  502  501  0.33081526360E+02  0.18474327389E+00  0.21131822118E+02  0.39255259805E+02  0.00000000000E+00 0. -1.
<scales pt_clust_4="550.00000" pt_clust_5="550.00000" pt_clust_6="33.08204"></scales>
<mgrwt>
<rscale>  0 0.30000000E+03</rscale>
<asrwt>  1 0.33082042E+02</asrwt>
<pdfrwt beam="1">  1        1 0.96314384E+00 0.30000000E+03</pdfrwt>
<pdfrwt beam="2">0</pdfrwt>
<totfact> 0.65620815E-06</totfact>
</mgrwt>
<clustering>
<clus scale="   33.082">  1  6  2 -1</clus>
<clus scale="  498.535">  4  5 -1 -1</clus>
<clus scale="  300.000">  1  4  2 -1</clus>
</clustering>
</event>
<event>
 6    1  0.9964252E-012  0.3000000E+03  0.7818608E-02  0.1093470E+00
          1   -1    0    0  502    0  0.00000000000E+00  0.00000000000E+00  0.22839710232E+03  0.22839710232E+03  0.00000000000E+00 0.  1.
         13   -1    0    0    0    0 -0.00000000000E+00 -0.00000000000E+00 -0.27500000000E+03  0.27500000000E+03  0.00000000000E+00 0.  1.
    9000005    2    1    2  501    0 -0.26761298913E+02  0.14462427401E+02 -0.66546532138E+02  0.46702297029E+03  0.46125555271E+03 0.  0.
         13    1    3    3    0    0 -0.16197430025E+03  0.52920259734E+02 -0.20712915202E+03  0.26821393224E+03  0.00000000000E+00 0.  1.
          3    1    3    3  501    0  0.13521300133E+03 -0.38457832333E+02  0.14058261988E+03  0.19880903805E+03  0.00000000000E+00 0.  1.
         21    1    1    2  502  501  0.26761298913E+02 -0.14462427401E+02  0.19943634459E+02  0.36374132035E+02  0.00000000000E+00 0.  1.
<scales pt_clust_4="550.00000" pt_clust_5="550.00000" pt_clust_6="30.41922"></scales>
<mgrwt>
<rscale>  0 0.30000000E+03</rscale>
<asrwt>  1 0.30419220E+02</asrwt>
<pdfrwt beam="1">  1        1 0.83053492E+00 0.30000000E+03</pdfrwt>
<pdfrwt beam="2">0</pdfrwt>
<totfact> 0.60085381E-04</totfact>
</mgrwt>
<clustering>
<clus scale="   30.419">  1  6  2 -1</clus>
<clus scale="  461.256">  4  5 -1 -1</clus>
<clus scale="  300.000">  1  4  2 -1</clus>
</clustering>
</event>
<event>
 6    1  0.9964252E-012  0.3000000E+03  0.7818608E-02  0.1093470E+00
          1   -1    0    0  502    0  0.00000000000E+00  0.00000000000E+00  0.24639331979E+03  0.24639331979E+03  0.00000000000E+00 0.  1.
         13   -1    0    0    0    0 -0.00000000000E+00 -0.00000000000E+00 -0.27500000000E+03  0.27500000000E+03  0.00000000000E+00 0.  1.
    9000005    2    1    2  501    0 -0.35247259138E+02 -0.18485202660E+02 -0.35532610187E+02  0.48099479877E+03  0.47802652444E+03 0.  0.
         13    1    3    3    0    0 -0.18187965789E+03  0.15451632562E+03 -0.76347284404E+02  0.25056817969E+03  0.00000000000E+00 0.  1.
          1    1    3    3  501    0  0.14663239875E+03 -0.17300152828E+03  0.40814674217E+02  0.23042661908E+03  0.00000000000E+00 0.  1.
         21    1    1    2  502  501  0.35247259138E+02  0.18485202660E+02  0.69259299757E+01  0.40398521014E+02  0.00000000000E+00 0. -1.
<scales pt_clust_4="550.00000" pt_clust_5="550.00000" pt_clust_6="39.80040"></scales>
<mgrwt>
<rscale>  0 0.30000000E+03</rscale>
<asrwt>  1 0.39800402E+02</asrwt>
<pdfrwt beam="1">  1        1 0.89597571E+00 0.30000000E+03</pdfrwt>
<pdfrwt beam="2">0</pdfrwt>
<totfact> 0.12008097E-04</totfact>
</mgrwt>
<clustering>
<clus scale="   39.800">  1  6  2 -1</clus>
<clus scale="  478.027">  4  5 -1 -1</clus>
<clus scale="  300.000">  1  4  2 -1</clus>
</clustering>
</event>
<event>
 6    1  0.9964252E-012  0.3000000E+03  0.7818608E-02  0.1093470E+00
          1   -1    0    0  502    0  0.00000000000E+00  0.00000000000E+00  0.22309950493E+03  0.22309950493E+03  0.00000000000E+00 0.  1.
         13   -1    0    0    0    0 -0.00000000000E+00 -0.00000000000E+00 -0.27500000000E+03  0.27500000000E+03  0.00000000000E+00 0.  1.
    9000005    2    1    2  501    0 -0.86057367457E+01 -0.34707119096E+02 -0.48245654826E+02  0.46215509399E+03  0.45823688728E+03 0.  0.
         13    1    3    3    0    0  0.41754280496E+02 -0.22104465241E+03  0.70243425043E+02  0.23566564676E+03  0.00000000000E+00 0.  1.
          1    1    3    3  501    0 -0.50360017241E+02  0.18633753332E+03 -0.11848907987E+03  0.22648944723E+03  0.00000000000E+00 0.  1.
         21    1    1    2  502  501  0.86057367457E+01  0.34707119096E+02 -0.36548402429E+01  0.35944410943E+02  0.00000000000E+00 0. -1.
<scales pt_clust_4="550.00000" pt_clust_5="550.00000" pt_clust_6="35.75812"></scales>
<mgrwt>
<rscale>  0 0.30000000E+03</rscale>
<asrwt>  1 0.35758115E+02</asrwt>
<pdfrwt beam="1">  1        1 0.81127093E+00 0.30000000E+03</pdfrwt>
<pdfrwt beam="2">0</pdfrwt>
<totfact> 0.84899203E-04</totfact>
</mgrwt>
<clustering>
<clus scale="   35.758">  1  6  2 -1</clus>
<clus scale="  458.237">  4  5 -1 -1</clus>
<clus scale="  300.000">  1  4  2 -1</clus>
</clustering>
</event>
<event>
 6    1  0.9964252E-012  0.3000000E+03  0.7818608E-02  0.1093470E+00
          1   -1    0    0  502    0  0.00000000000E+00  0.00000000000E+00  0.24264314886E+03  0.24264314886E+03  0.00000000000E+00 0.  1.
         13   -1    0    0    0    0 -0.00000000000E+00 -0.00000000000E+00 -0.27500000000E+03  0.27500000000E+03  0.00000000000E+00 0.  1.
    9000005    2    1    2  501    0 -0.55241950021E+01  0.37884823807E+02 -0.62840583157E+02  0.46870405893E+03  0.46289175772E+03 0.  0.
         13    1    3    3    0    0  0.15967906437E+02  0.11324750649E+03 -0.24501272303E+03  0.27039083973E+03  0.00000000000E+00 0.  1.
          1    1    3    3  501    0 -0.21492101440E+02 -0.75362682679E+02  0.18217213987E+03  0.19831321920E+03  0.00000000000E+00 0.  1.
         21    1    1    2  502  501  0.55241950021E+01 -0.37884823807E+02  0.30483732016E+02  0.48939089927E+02  0.00000000000E+00 0.  1.
<scales pt_clust_4="550.00000" pt_clust_5="550.00000" pt_clust_6="38.28546"></scales>
<mgrwt>
<rscale>  0 0.30000000E+03</rscale>
<asrwt>  1 0.38285462E+02</asrwt>
<pdfrwt beam="1">  1        1 0.88233872E+00 0.30000000E+03</pdfrwt>
<pdfrwt beam="2">0</pdfrwt>
<totfact> 0.18124315E-04</totfact>
</mgrwt>
<clustering>
<clus scale="   38.285">  1  6  2 -1</clus>
<clus scale="  462.892">  4  5 -1 -1</clus>
<clus scale="  300.000">  1  4  2 -1</clus>
</clustering>
</event>
<event>
 6    1  0.9964252E-012  0.3000000E+03  0.7818608E-02  0.1093470E+00
          1   -1    0    0  502    0  0.00000000000E+00  0.00000000000E+00  0.21844045018E+03  0.21844045018E+03  0.00000000000E+00 0.  1.
         13   -1    0    0    0    0 -0.00000000000E+00 -0.00000000000E+00 -0.27500000000E+03  0.27500000000E+03  0.00000000000E+00 0.  1.
    9000005    2    1    2  501    0 -0.13081086200E+02 -0.28608426844E+02 -0.44406746649E+02  0.45971734938E+03  0.45648496719E+03 0.  0.
         13    1    3    3    0    0  0.15827351001E+03  0.13702131206E+03 -0.68298363740E+02  0.22020447411E+03  0.00000000000E+00 0.  1.
          1    1    3    3  501    0 -0.17135459621E+03 -0.16562973890E+03  0.23891617091E+02  0.23951287527E+03  0.00000000000E+00 0.  1.
         21    1    1    2  502  501  0.13081086200E+02  0.28608426844E+02 -0.12152803169E+02  0.33723100799E+02  0.00000000000E+00 0. -1.
<scales pt_clust_4="550.00000" pt_clust_5="550.00000" pt_clust_6="31.45724"></scales>
<mgrwt>
<rscale>  0 0.30000000E+03</rscale>
<asrwt>  1 0.31457239E+02</asrwt>
<pdfrwt beam="1">  1        1 0.79432891E+00 0.30000000E+03</pdfrwt>
<pdfrwt beam="2">0</pdfrwt>
<totfact> 0.11645039E-03</totfact>
</mgrwt>
<clustering>
<clus scale="   31.457">  1  6  2 -1</clus>
<clus scale="  456.485">  4  5 -1 -1</clus>
<clus scale="  300.000">  1  4  2 -1</clus>
</clustering>
</event>
<event>
 6    1  0.9964252E-012  0.3000000E+03  0.7818608E-02  0.1093470E+00
          1   -1    0    0  502    0  0.00000000000E+00  0.00000000000E+00  0.22626912925E+03  0.22626912925E+03  0.00000000000E+00 0.  1.
         13   -1    0    0    0    0 -0.00000000000E+00 -0.00000000000E+00 -0.27500000000E+03  0.27500000000E+03  0.00000000000E+00 0.  1.
    9000005    2    1    2  501    0 -0.22808027980E+02 -0.29895790791E+02 -0.48259792326E+02  0.46366345997E+03  0.45960943431E+03 0.  0.
         13    1    3    3    0    0  0.10543210862E+03 -0.15073267816E+03  0.12032314266E+03  0.21980429580E+03  0.00000000000E+00 0.  1.
          3    1    3    3  501    0 -0.12824013660E+03  0.12083688737E+03 -0.16858293498E+03  0.24385916417E+03  0.00000000000E+00 0.  1.
         21    1    1    2  502  501  0.22808027980E+02  0.29895790791E+02 -0.47107842019E+00  0.37605669283E+02  0.00000000000E+00 0.  1.
<scales pt_clust_4="550.00000" pt_clust_5="550.00000" pt_clust_6="37.60272"></scales>
<mgrwt>
<rscale>  0 0.30000000E+03</rscale>
<asrwt>  1 0.37602719E+02</asrwt>
<pdfrwt beam="1">  1        1 0.82279683E+00 0.30000000E+03</pdfrwt>
<pdfrwt beam="2">0</pdfrwt>
<totfact> 0.67438951E-04</totfact>
</mgrwt>
<clustering>
<clus scale="   37.603">  1  6  2 -1</clus>
<clus scale="  459.609">  4  5 -1 -1</clus>
<clus scale="  300.000">  1  4  2 -1</clus>
</clustering>
</event>
<event>
 6    1  0.9964252E-012  0.3000000E+03  0.7818608E-02  0.1093470E+00
          1   -1    0    0  502    0  0.00000000000E+00  0.00000000000E+00  0.23249359464E+03  0.23249359464E+03  0.00000000000E+00 0.  1.
         13   -1    0    0    0    0 -0.00000000000E+00 -0.00000000000E+00 -0.27500000000E+03  0.27500000000E+03  0.00000000000E+00 0.  1.
    9000005    2    1    2  501    0  0.12650055686E+01  0.35220024708E+02 -0.49982189434E+02  0.47146669181E+03  0.46748323162E+03 0.  0.
         13    1    3    3    0    0  0.15627799324E+03  0.17323139295E+03 -0.10634693070E+03  0.25640124092E+03  0.00000000000E+00 0.  1.
          1    1    3    3  501    0 -0.15501298767E+03 -0.13801136824E+03  0.56364741265E+02  0.21506545090E+03  0.00000000000E+00 0.  1.
         21    1    1    2  502  501 -0.12650055686E+01 -0.35220024708E+02  0.74757840693E+01  0.36026902822E+02  0.00000000000E+00 0.  1.
<scales pt_clust_4="550.00000" pt_clust_5="550.00000" pt_clust_6="35.24274"></scales>
<mgrwt>
<rscale>  0 0.30000000E+03</rscale>
<asrwt>  1 0.35242735E+02</asrwt>
<pdfrwt beam="1">  1        1 0.84543125E+00 0.30000000E+03</pdfrwt>
<pdfrwt beam="2">0</pdfrwt>
<totfact> 0.44732893E-04</totfact>
</mgrwt>
<clustering>
<clus scale="   35.243">  1  6  2 -1</clus>
<clus scale="  467.483">  4  5 -1 -1</clus>
<clus scale="  300.000">  1  4  2 -1</clus>
</clustering>
</event>
<event>
 6    1  0.9964252E-012  0.3000000E+03  0.7818608E-02  0.1093470E+00
          1   -1    0    0  502    0  0.00000000000E+00  0.00000000000E+00  0.24342044941E+03  0.24342044941E+03  0.00000000000E+00 0.  1.
         13   -1    0    0    0    0 -0.00000000000E+00 -0.00000000000E+00 -0.27500000000E+03  0.27500000000E+03  0.00000000000E+00 0.  1.
    9000005    2    1    2  501    0  0.14687496846E+02  0.36902977163E+02 -0.62476202046E+02  0.46809992320E+03  0.46220851354E+03 0.  0.
         13    1    3    3    0    0 -0.12784750229E+03 -0.38147486890E+02 -0.21057314749E+03  0.24928149759E+03  0.00000000000E+00 0.  1.
          3    1    3    3  501    0  0.14253499914E+03  0.75050464053E+02  0.14809694544E+03  0.21881842561E+03  0.00000000000E+00 0.  1.
         21    1    1    2  502  501 -0.14687496846E+02 -0.36902977163E+02  0.30896651461E+02  0.50320526215E+02  0.00000000000E+00 0. -1.
<scales pt_clust_4="550.00000" pt_clust_5="550.00000" pt_clust_6="39.71841"></scales>
<mgrwt>
<rscale>  0 0.30000000E+03</rscale>
<asrwt>  1 0.39718412E+02</asrwt>
<pdfrwt beam="1">  1        1 0.88516527E+00 0.30000000E+03</pdfrwt>
<pdfrwt beam="2">0</pdfrwt>
<totfact> 0.16492334E-04</totfact>
</mgrwt>
<clustering>
<clus scale="   39.718">  1  6  2 -1</clus>
<clus scale="  462.209">  4  5 -1 -1</clus>
<clus scale="  300.000">  1  4  2 -1</clus>
</clustering>
</event>
<event>
 6    1  0.9964252E-012  0.3000000E+03  0.7818608E-02  0.1093470E+00
          1   -1    0    0  502    0  0.00000000000E+00  0.00000000000E+00  0.24961482944E+03  0.24961482944E+03  0.00000000000E+00 0.  1.
         13   -1    0    0    0    0 -0.00000000000E+00 -0.00000000000E+00 -0.27500000000E+03  0.27500000000E+03  0.00000000000E+00 0.  1.
    9000005    2    1    2  501    0  0.49981418943E+02  0.17551032339E+02 -0.25351131216E+02  0.47164141974E+03  0.46797090507E+03 0.  0.
         13    1    3    3    0    0 -0.10433031853E+03  0.17882123945E+03  0.83590974548E+02  0.22326957264E+03  0.00000000000E+00 0.  1.
          3    1    3    3  501    0  0.15431173747E+03 -0.16127020711E+03 -0.10894210576E+03  0.24837184710E+03  0.00000000000E+00 0.  1.
         21    1    1    2  502  501 -0.49981418943E+02 -0.17551032339E+02 -0.34039348503E-01  0.52973409692E+02  0.00000000000E+00 0. -1.
<scales pt_clust_4="550.00000" pt_clust_5="550.00000" pt_clust_6="52.97340"></scales>
<mgrwt>
<rscale>  0 0.30000000E+03</rscale>
<asrwt>  1 0.52973399E+02</asrwt>
<pdfrwt beam="1">  1        1 0.90769029E+00 0.30000000E+03</pdfrwt>
<pdfrwt beam="2">0</pdfrwt>
<totfact> 0.75512418E-05</totfact>
</mgrwt>
<clustering>
<clus scale="   52.973">  1  6  2 -1</clus>
<clus scale="  467.971">  4  5 -1 -1</clus>
<clus scale="  300.000">  1  4  2 -1</clus>
</clustering>
</event>
<event>
 6    1  0.9964252E-012  0.3000000E+03  0.7818608E-02  0.1093470E+00
          1   -1    0    0  502    0  0.00000000000E+00  0.00000000000E+00  0.22778987289E+03  0.22778987289E+03  0.00000000000E+00 0.  1.
         13   -1    0    0    0    0 -0.00000000000E+00 -0.00000000000E+00 -0.27500000000E+03  0.27500000000E+03  0.00000000000E+00 0.  1.
    9000005    2    1    2  501    0 -0.34363503010E+02 -0.52596946403E+01 -0.59737342565E+02  0.46583793310E+03  0.46068201082E+03 0.  0.
         13    1    3    3    0    0 -0.24192608845E+03 -0.50849158462E+02 -0.55093770916E+02  0.25327690929E+03  0.00000000000E+00 0.  1.
          3    1    3    3  501    0  0.20756258544E+03  0.45589463822E+02 -0.46435716491E+01  0.21256102381E+03  0.00000000000E+00 0.  1.
         21    1    1    2  502  501  0.34363503010E+02  0.52596946403E+01  0.12527215454E+02  0.36951939785E+02  0.00000000000E+00 0. -1.
<scales pt_clust_4="550.00000" pt_clust_5="550.00000" pt_clust_6="34.76370"></scales>
<mgrwt>
<rscale>  0 0.30000000E+03</rscale>
<asrwt>  1 0.34763698E+02</asrwt>
<pdfrwt beam="1">  1        1 0.82832681E+00 0.30000000E+03</pdfrwt>
<pdfrwt beam="2">0</pdfrwt>
<totfact> 0.61133939E-04</totfact>
</mgrwt>
<clustering>
<clus scale="   34.764">  1  6  2 -1</clus>
<clus scale="  460.682">  4  5 -1 -1</clus>
<clus scale="  300.000">  1  4  2 -1</clus>
</clustering>
</event>
<event>
 6    1  0.9964252E-012  0.3000000E+03  0.7818608E-02  0.1093470E+00
          1   -1    0    0  502    0  0.00000000000E+00  0.00000000000E+00  0.23836557661E+03  0.23836557661E+03  0.00000000000E+00 0.  1.
         13   -1    0    0    0    0 -0.00000000000E+00 -0.00000000000E+00 -0.27500000000E+03  0.27500000000E+03  0.00000000000E+00 0.  1.
    9000005    2    1    2  501    0 -0.38506612251E+02  0.57980087386E+01 -0.45409411861E+02  0.47344845604E+03  0.46965418102E+03 0.  0.
         13    1    3    3    0    0 -0.68092042810E+02 -0.22380077194E+03  0.14326382123E+02  0.23436842159E+03  0.00000000000E+00 0.  1.
          1    1    3    3  501    0  0.29585430559E+02  0.22959878068E+03 -0.59735793984E+02  0.23908003445E+03  0.00000000000E+00 0.  1.
         21    1    1    2  502  501  0.38506612251E+02 -0.57980087386E+01  0.87749884749E+01  0.39917120576E+02  0.00000000000E+00 0.  1.
<scales pt_clust_4="550.00000" pt_clust_5="550.00000" pt_clust_6="38.94067"></scales>
<mgrwt>
<rscale>  0 0.30000000E+03</rscale>
<asrwt>  1 0.38940674E+02</asrwt>
<pdfrwt beam="1">  1        1 0.86678391E+00 0.30000000E+03</pdfrwt>
<pdfrwt beam="2">0</pdfrwt>
<totfact> 0.26809606E-04</totfact>
</mgrwt>
<clustering>
<clus scale="   38.941">  1  6  2 -1</clus>
<clus scale="  469.654">  4  5 -1 -1</clus>
<clus scale="  300.000">  1  4  2 -1</clus>
</clustering>
</event>
<event>
 6    1  0.9964252E-012  0.3000000E+03  0.7818608E-02  0.1093470E+00
          1   -1    0    0  502    0  0.00000000000E+00  0.00000000000E+00  0.22292676524E+03  0.22292676524E+03  0.00000000000E+00 0.  1.
         13   -1    0    0    0    0 -0.00000000000E+00 -0.00000000000E+00 -0.27500000000E+03  0.27500000000E+03  0.00000000000E+00 0.  1.
    9000005    2    1    2  501    0 -0.30579403471E+02 -0.36079458894E+01 -0.46724358353E+02  0.46667412264E+03  0.46330708379E+03 0.  0.
         13    1    3    3    0    0 -0.18498947449E+03 -0.14200204829E+03  0.48987326379E+02  0.23829696922E+03  0.00000000000E+00 0.  1.
          3    1    3    3  501    0  0.15441007102E+03  0.13839410240E+03 -0.95711684732E+02  0.22837715343E+03  0.00000000000E+00 0.  1.
         21    1    1    2  502  501  0.30579403471E+02  0.36079458894E+01 -0.53488764121E+01  0.31252642593E+02  0.00000000000E+00 0.  1.
<scales pt_clust_4="550.00000" pt_clust_5="550.00000" pt_clust_6="30.79153"></scales>
<mgrwt>
<rscale>  0 0.30000000E+03</rscale>
<asrwt>  1 0.30791527E+02</asrwt>
<pdfrwt beam="1">  1        1 0.81064278E+00 0.30000000E+03</pdfrwt>
<pdfrwt beam="2">0</pdfrwt>
<totfact> 0.88328152E-04</totfact>
</mgrwt>
<clustering>
<clus scale="   30.792">  1  6  2 -1</clus>
<clus scale="  463.307">  4  5 -1 -1</clus>
<clus scale="  300.000">  1  4  2 -1</clus>
</clustering>
</event>
<event>
 6    1  0.9964252E-012  0.3000000E+03  0.7818608E-02  0.1093470E+00
          1   -1    0    0  502    0  0.00000000000E+00  0.00000000000E+00  0.24022412858E+03  0.24022412858E+03  0.00000000000E+00 0.  1.
         13   -1    0    0    0    0 -0.00000000000E+00 -0.00000000000E+00 -0.27500000000E+03  0.27500000000E+03  0.00000000000E+00 0.  1.
    9000005    2    1    2  501    0 -0.28561102280E+02  0.15073665828E+02 -0.35211592610E+02  0.48292642250E+03  0.48055709477E+03 0.  0.
         13    1    3    3    0    0 -0.25337387948E+02 -0.22247702855E+03  0.51961883991E+02  0.22986528413E+03  0.00000000000E+00 0.  1.
          1    1    3    3  501    0 -0.32237143318E+01  0.23755069437E+03 -0.87173476601E+02  0.25306113837E+03  0.00000000000E+00 0.  1.
         21    1    1    2  502  501  0.28561102280E+02 -0.15073665828E+02  0.43572118878E+00  0.32297706077E+02  0.00000000000E+00 0.  1.
<scales pt_clust_4="550.00000" pt_clust_5="550.00000" pt_clust_6="32.29477"></scales>
<mgrwt>
<rscale>  0 0.30000000E+03</rscale>
<asrwt>  1 0.32294767E+02</asrwt>
<pdfrwt beam="1">  1        1 0.87354229E+00 0.30000000E+03</pdfrwt>
<pdfrwt beam="2">0</pdfrwt>
<totfact> 0.23651755E-04</totfact>
</mgrwt>
<clustering>
<clus scale="   32.295">  1  6  2 -1</clus>
<clus scale="  480.557">  4  5 -1 -1</clus>
<clus scale="  300.000">  1  4  2 -1</clus>
</clustering>
</event>
<event>
 6    1  0.9964252E-012  0.3000000E+03  0.7818608E-02  0.1093470E+00
          1   -1    0    0  502    0  0.00000000000E+00  0.00000000000E+00  0.22612223189E+03  0.22612223189E+03  0.00000000000E+00 0.  1.
         13   -1    0    0    0    0 -0.00000000000E+00 -0.00000000000E+00 -0.27500000000E+03  0.27500000000E+03  0.00000000000E+00 0.  1.
    9000005    2    1    2  501    0  0.27989503264E+02 -0.15569609056E+02 -0.68375727877E+02  0.46362562599E+03  0.45743595824E+03 0.  0.
         13    1    3    3    0    0 -0.16580406624E+03  0.14140370402E+02  0.10925509754E+03  0.19906686011E+03  0.00000000000E+00 0.  1.
          1    1    3    3  501    0  0.19379356951E+03 -0.29709979458E+02 -0.17763082541E+03  0.26455876587E+03  0.00000000000E+00 0.  1.
         21    1    1    2  502  501 -0.27989503264E+02  0.15569609056E+02  0.19497959763E+02  0.37496605901E+02  0.00000000000E+00 0. -1.
<scales pt_clust_4="550.00000" pt_clust_5="550.00000" pt_clust_6="32.02850"></scales>
<mgrwt>
<rscale>  0 0.30000000E+03</rscale>
<asrwt>  1 0.32028503E+02</asrwt>
<pdfrwt beam="1">  1        1 0.82226266E+00 0.30000000E+03</pdfrwt>
<pdfrwt beam="2">0</pdfrwt>
<totfact> 0.70261110E-04</totfact>
</mgrwt>
<clustering>
<clus scale="   32.029">  1  6  2 -1</clus>
<clus scale="  457.436">  4  5 -1 -1</clus>
<clus scale="  300.000">  1  4  2 -1</clus>
</clustering>
</event>
<event>
 6    1  0.9964252E-012  0.3000000E+03  0.7818608E-02  0.1093470E+00
          1   -1    0    0  502    0  0.00000000000E+00  0.00000000000E+00  0.22417645001E+03  0.22417645001E+03  0.00000000000E+00 0.  1.
         13   -1    0    0    0    0 -0.00000000000E+00 -0.00000000000E+00 -0.27500000000E+03  0.27500000000E+03  0.00000000000E+00 0.  1.
    9000005    2    1    2  501    0 -0.29438279647E+02  0.15670233869E+02 -0.53910108616E+02  0.46568472891E+03  0.46134997387E+03 0.  0.
         13    1    3    3    0    0 -0.33502046115E+02  0.18526973185E+03  0.11957566062E+03  0.22303721493E+03  0.00000000000E+00 0.  1.
          3    1    3    3  501    0  0.40637664689E+01 -0.16959949798E+03 -0.17348576924E+03  0.24264751398E+03  0.00000000000E+00 0.  1.
         21    1    1    2  502  501  0.29438279647E+02 -0.15670233869E+02  0.30865586290E+01  0.33491721100E+02  0.00000000000E+00 0.  1.
<scales pt_clust_4="550.00000" pt_clust_5="550.00000" pt_clust_6="33.34919"></scales>
<mgrwt>
<rscale>  0 0.30000000E+03</rscale>
<asrwt>  1 0.33349191E+02</asrwt>
<pdfrwt beam="1">  1        1 0.81518709E+00 0.30000000E+03</pdfrwt>
<pdfrwt beam="2">0</pdfrwt>
<totfact> 0.80050593E-04</totfact>
</mgrwt>
<clustering>
<clus scale="   33.349">  1  6  2 -1</clus>
<clus scale="  461.350">  4  5 -1 -1</clus>
<clus scale="  300.000">  1  4  2 -1</clus>
</clustering>
</event>
<event>
 6    1  0.9964252E-012  0.3000000E+03  0.7818608E-02  0.1093470E+00
          1   -1    0    0  502    0  0.00000000000E+00  0.00000000000E+00  0.22880490878E+03  0.22880490878E+03  0.00000000000E+00 0.  1.
         13   -1    0    0    0    0 -0.00000000000E+00 -0.00000000000E+00 -0.27500000000E+03  0.27500000000E+03  0.00000000000E+00 0.  1.
    9000005    2    1    2  501    0  0.24797414564E+02 -0.26456320308E+02 -0.47176287539E+02  0.46753079405E+03  0.46372900774E+03 0.  0.
         13    1    3    3    0    0  0.18779663385E+03  0.13515528919E+03 -0.55144439848E+02  0.23785591674E+03  0.00000000000E+00 0.  1.
          1    1    3    3  501    0 -0.16299921929E+03 -0.16161160950E+03  0.79681523084E+01  0.22967487730E+03  0.00000000000E+00 0.  1.
         21    1    1    2  502  501 -0.24797414564E+02  0.26456320308E+02  0.98119631684E+00  0.36274114731E+02  0.00000000000E+00 0.  1.
<scales pt_clust_4="550.00000" pt_clust_5="550.00000" pt_clust_6="36.26084"></scales>
<mgrwt>
<rscale>  0 0.30000000E+03</rscale>
<asrwt>  1 0.36260842E+02</asrwt>
<pdfrwt beam="1">  1        1 0.83201785E+00 0.30000000E+03</pdfrwt>
<pdfrwt beam="2">0</pdfrwt>
<totfact> 0.56575892E-04</totfact>
</mgrwt>
<clustering>
<clus scale="   36.261">  1  6  2 -1</clus>
<clus scale="  463.729">  4  5 -1 -1</clus>
<clus scale="  300.000">  1  4  2 -1</clus>
</clustering>
</event>
<event>
 6    1  0.9964252E-012  0.3000000E+03  0.7818608E-02  0.1093470E+00
          1   -1    0    0  502    0  0.00000000000E+00  0.00000000000E+00  0.21884629255E+03  0.21884629255E+03  0.00000000000E+00 0.  1.
         13   -1    0    0    0    0 -0.00000000000E+00 -0.00000000000E+00 -0.27500000000E+03  0.27500000000E+03  0.00000000000E+00 0.  1.
    9000005    2    1    2  501    0  0.12845110226E+02 -0.27120718126E+02 -0.42297892225E+02  0.46079309567E+03  0.45786530238E+03 0.  0.
         13    1    3    3    0    0 -0.99821765271E+02  0.18462078230E+03 -0.65399781669E+02  0.21983254883E+03  0.00000000000E+00 0.  1.
          3    1    3    3  501    0  0.11266687550E+03 -0.21174150043E+03  0.23101889443E+02  0.24096054684E+03  0.00000000000E+00 0.  1.
         21    1    1    2  502  501 -0.12845110226E+02  0.27120718126E+02 -0.13855815227E+02  0.33053196880E+02  0.00000000000E+00 0. -1.
<scales pt_clust_4="550.00000" pt_clust_5="550.00000" pt_clust_6="30.00885"></scales>
<mgrwt>
<rscale>  0 0.30000000E+03</rscale>
<asrwt>  1 0.30008851E+02</asrwt>
<pdfrwt beam="1">  1        1 0.79580470E+00 0.30000000E+03</pdfrwt>
<pdfrwt beam="2">0</pdfrwt>
<totfact> 0.11456247E-03</totfact>
</mgrwt>
<clustering>
<clus scale="   30.009">  1  6  2 -1</clus>
<clus scale="  457.865">  4  5 -1 -1</clus>
<clus scale="  300.000">  1  4  2 -1</clus>
</clustering>
</event>
<event>
 6    1  0.9964252E-012  0.3000000E+03  0.7818608E-02  0.1093470E+00
          1   -1    0    0  502    0  0.00000000000E+00  0.00000000000E+00  0.23239083663E+03  0.23239083663E+03  0.00000000000E+00 0.  1.
         13   -1    0    0    0    0 -0.00000000000E+00 -0.00000000000E+00 -0.27500000000E+03  0.27500000000E+03  0.00000000000E+00 0.  1.
    9000005    2    1    2  501    0 -0.28380646053E+02  0.14700309499E+02 -0.62033787465E+02  0.46998928331E+03  0.46477970638E+03 0.  0.
         13    1    3    3    0    0 -0.10526560832E+03 -0.17419604287E+03 -0.14491140904E+03  0.24984880652E+03  0.00000000000E+00 0.  1.
          1    1    3    3  501    0  0.76884962267E+02  0.18889635237E+03  0.82877621579E+02  0.22014047679E+03  0.00000000000E+00 0.  1.
         21    1    1    2  502  501  0.28380646053E+02 -0.14700309499E+02  0.19424624096E+02  0.37401553324E+02  0.00000000000E+00 0.  1.
<scales pt_clust_4="550.00000" pt_clust_5="550.00000" pt_clust_6="31.96185"></scales>
<mgrwt>
<rscale>  0 0.30000000E+03</rscale>
<asrwt>  1 0.31961855E+02</asrwt>
<pdfrwt beam="1">  1        1 0.84505759E+00 0.30000000E+03</pdfrwt>
<pdfrwt beam="2">0</pdfrwt>
<totfact> 0.45909673E-04</totfact>
</mgrwt>
<clustering>
<clus scale="   31.962">  1  6  2 -1</clus>
<clus scale="  464.780">  4  5 -1 -1</clus>
<clus scale="  300.000">  1  4  2 -1</clus>
</clustering>
</event>
<event>
 6    1  0.9964252E-012  0.3000000E+03  0.7818608E-02  0.1093470E+00
          1   -1    0    0  502    0  0.00000000000E+00  0.00000000000E+00  0.24686072823E+03  0.24686072823E+03  0.00000000000E+00 0.  1.
         13   -1    0    0    0    0 -0.00000000000E+00 -0.00000000000E+00 -0.27500000000E+03  0.27500000000E+03  0.00000000000E+00 0.  1.
    9000005    2    1    2  501    0  0.70190794219E+01 -0.33792953611E+02 -0.52527518122E+02  0.47959942501E+03  0.47546318167E+03 0.  0.
         13    1    3    3    0    0  0.10669728890E+03  0.16823861925E+03 -0.13393762127E+03  0.24005797396E+03  0.00000000000E+00 0.  1.
          3    1    3    3  501    0 -0.99678209479E+02 -0.20203157286E+03  0.81410103152E+02  0.23954145106E+03  0.00000000000E+00 0.  1.
         21    1    1    2  502  501 -0.70190794219E+01  0.33792953611E+02  0.24388246356E+02  0.42261303222E+02  0.00000000000E+00 0.  1.
<scales pt_clust_4="550.00000" pt_clust_5="550.00000" pt_clust_6="34.51422"></scales>
<mgrwt>
<rscale>  0 0.30000000E+03</rscale>
<asrwt>  1 0.34514217E+02</asrwt>
<pdfrwt beam="1">  1        1 0.89767538E+00 0.30000000E+03</pdfrwt>
<pdfrwt beam="2">0</pdfrwt>
<totfact> 0.11799620E-04</totfact>
</mgrwt>
<clustering>
<clus scale="   34.514">  1  6  2 -1</clus>
<clus scale="  475.463">  4  5 -1 -1</clus>
<clus scale="  300.000">  1  4  2 -1</clus>
</clustering>
</event>
<event>
 6    1  0.9964252E-012  0.3000000E+03  0.7818608E-02  0.1093470E+00
          1   -1    0    0  502    0  0.00000000000E+00  0.00000000000E+00  0.23446219008E+03  0.23446219008E+03  0.00000000000E+00 0.  1.
         13   -1    0    0    0    0 -0.00000000000E+00 -0.00000000000E+00 -0.27500000000E+03  0.27500000000E+03  0.00000000000E+00 0.  1.
    9000005    2    1    2  501    0 -0.33892532305E+02 -0.32675348551E-01 -0.49018068503E+02  0.47452482327E+03  0.47076781118E+03 0.  0.
         13    1    3    3    0    0 -0.24131504102E+03 -0.40178437811E+02 -0.87427488436E+02  0.25978995674E+03  0.00000000000E+00 0.  1.
          3    1    3    3  501    0  0.20742250872E+03  0.40145762462E+02  0.38409419933E+02  0.21473486653E+03  0.00000000000E+00 0.  1.
         21    1    1    2  502  501  0.33892532305E+02  0.32675348551E-01  0.84802585791E+01  0.34937366806E+02  0.00000000000E+00 0.  1.
<scales pt_clust_4="550.00000" pt_clust_5="550.00000" pt_clust_6="33.89255"></scales>
<mgrwt>
<rscale>  0 0.30000000E+03</rscale>
<asrwt>  1 0.33892548E+02</asrwt>
<pdfrwt beam="1">  1        1 0.85258978E+00 0.30000000E+03</pdfrwt>
<pdfrwt beam="2">0</pdfrwt>
<totfact> 0.38687834E-04</totfact>
</mgrwt>
<clustering>
<clus scale="   33.893">  1  6  2 -1</clus>
<clus scale="  470.768">  4  5 -1 -1</clus>
<clus scale="  300.000">  1  4  2 -1</clus>
</clustering>
</event>
<event>
 6    1  0.9964252E-012  0.3000000E+03  0.7818608E-02  0.1093470E+00
          1   -1    0    0  502    0  0.00000000000E+00  0.00000000000E+00  0.24289830021E+03  0.24289830021E+03  0.00000000000E+00 0.  1.
         13   -1    0    0    0    0 -0.00000000000E+00 -0.00000000000E+00 -0.27500000000E+03  0.27500000000E+03  0.00000000000E+00 0.  1.
    9000005    2    1    2  501    0  0.17156008940E+02  0.25373931379E+02 -0.33029339285E+02  0.48725477640E+03  0.48516813048E+03 0.  0.
         13    1    3    3    0    0 -0.14715390967E+03  0.19422247438E+03  0.23994066020E+02  0.24485170592E+03  0.00000000000E+00 0.  1.
          3    1    3    3  501    0  0.16430991861E+03 -0.16884854300E+03 -0.57023405305E+02  0.24240307049E+03  0.00000000000E+00 0.  1.
         21    1    1    2  502  501 -0.17156008940E+02 -0.25373931379E+02  0.92763949556E+00  0.30643523809E+02  0.00000000000E+00 0.  1.
<scales pt_clust_4="550.00000" pt_clust_5="550.00000" pt_clust_6="30.62948"></scales>
<mgrwt>
<rscale>  0 0.30000000E+03</rscale>
<asrwt>  1 0.30629480E+02</asrwt>
<pdfrwt beam="1">  1        1 0.88326655E+00 0.30000000E+03</pdfrwt>
<pdfrwt beam="2">0</pdfrwt>
<totfact> 0.18372355E-04</totfact>
</mgrwt>
<clustering>
<clus scale="   30.629">  1  6  2 -1</clus>
<clus scale="  485.168">  4  5 -1 -1</clus>
<clus scale="  300.000">  1  4  2 -1</clus>
</clustering>
</event>
<event>
 6    1  0.9964252E-012  0.3000000E+03  0.7818608E-02  0.1093470E+00
          1   -1    0    0  502    0  0.00000000000E+00  0.00000000000E+00  0.24280826326E+03  0.24280826326E+03  0.00000000000E+00 0.  1.
         13   -1    0    0    0    0 -0.00000000000E+00 -0.00000000000E+00 -0.27500000000E+03  0.27500000000E+03  0.00000000000E+00 0.  1.
    9000005    2    1    2  501    0  0.28178022891E+02 -0.37719886959E+02 -0.13159539807E+02  0.46702425627E+03  0.46445849288E+03 0.  0.
         13    1    3    3    0    0 -0.21610493904E+02  0.10277354059E+03 -0.20126775184E+03  0.22702009167E+03  0.00000000000E+00 0.  1.
          1    1    3    3  501    0  0.49788516795E+02 -0.14049342755E+03  0.18810821203E+03  0.24000416460E+03  0.00000000000E+00 0.  1.
         21    1    1    2  502  501 -0.28178022891E+02  0.37719886959E+02 -0.19032196932E+02  0.50784006994E+02  0.00000000000E+00 0. -1.
<scales pt_clust_4="550.00000" pt_clust_5="550.00000" pt_clust_6="47.08283"></scales>
<mgrwt>
<rscale>  0 0.30000000E+03</rscale>
<asrwt>  1 0.47082832E+02</asrwt>
<pdfrwt beam="1">  1        1 0.88293914E+00 0.30000000E+03</pdfrwt>
<pdfrwt beam="2">0</pdfrwt>
<totfact> 0.17144003E-04</totfact>
</mgrwt>
<clustering>
<clus scale="   47.083">  1  6  2 -1</clus>
<clus scale="  464.458">  4  5 -1 -1</clus>
<clus scale="  300.000">  1  4  2 -1</clus>
</clustering>
</event>
<event>
 6    1  0.9964252E-012  0.3000000E+03  0.7818608E-02  0.1093470E+00
          1   -1    0    0  502    0  0.00000000000E+00  0.00000000000E+00  0.23424444191E+03  0.23424444191E+03  0.00000000000E+00 0.  1.
         13   -1    0    0    0    0 -0.00000000000E+00 -0.00000000000E+00 -0.27500000000E+03  0.27500000000E+03  0.00000000000E+00 0.  1.
    9000005    2    1    2  501    0 -0.17569055061E+02 -0.26661271979E+02 -0.73944346054E+02  0.46319022640E+03  0.45613366945E+03 0.  0.
         13    1    3    3    0    0 -0.22476033234E+03 -0.42120719421E+02 -0.10758522490E+03  0.25271711975E+03  0.00000000000E+00 0.  1.
          1    1    3    3  501    0  0.20719127728E+03  0.15459447442E+02  0.33640878850E+02  0.21047310665E+03  0.00000000000E+00 0.  1.
         21    1    1    2  502  501  0.17569055061E+02  0.26661271979E+02  0.33188787964E+02  0.46054215505E+02  0.00000000000E+00 0. -1.
<scales pt_clust_4="550.00000" pt_clust_5="550.00000" pt_clust_6="31.92953"></scales>
<mgrwt>
<rscale>  0 0.30000000E+03</rscale>
<asrwt>  1 0.31929534E+02</asrwt>
<pdfrwt beam="1">  1        1 0.85179797E+00 0.30000000E+03</pdfrwt>
<pdfrwt beam="2">0</pdfrwt>
<totfact> 0.39817124E-04</totfact>
</mgrwt>
<clustering>
<clus scale="   31.930">  1  6  2 -1</clus>
<clus scale="  456.134">  4  5 -1 -1</clus>
<clus scale="  300.000">  1  4  2 -1</clus>
</clustering>
</event>
<event>
 6    1  0.9964252E-012  0.3000000E+03  0.7818608E-02  0.1093470E+00
          1   -1    0    0  502    0  0.00000000000E+00  0.00000000000E+00  0.23073414388E+03  0.23073414388E+03  0.00000000000E+00 0.  1.
         13   -1    0    0    0    0 -0.00000000000E+00 -0.00000000000E+00 -0.27500000000E+03  0.27500000000E+03  0.00000000000E+00 0.  1.
    9000005    2    1    2  501    0  0.35707814341E+02 -0.22698504570E+01 -0.40821219258E+02  0.46978882779E+03  0.46664222971E+03 0.  0.
         13    1    3    3    0    0 -0.53333984857E+02 -0.27596166202E+01 -0.24303755407E+03  0.24883605469E+03  0.00000000000E+00 0.  1.
          1    1    3    3  501    0  0.89041799199E+02  0.48976616319E+00  0.20221633481E+03  0.22095277310E+03  0.00000000000E+00 0.  1.
         21    1    1    2  502  501 -0.35707814341E+02  0.22698504570E+01 -0.34446368579E+01  0.35945316096E+02  0.00000000000E+00 0.  1.
<scales pt_clust_4="550.00000" pt_clust_5="550.00000" pt_clust_6="35.77990"></scales>
<mgrwt>
<rscale>  0 0.30000000E+03</rscale>
<asrwt>  1 0.35779904E+02</asrwt>
<pdfrwt beam="1">  1        1 0.83903325E+00 0.30000000E+03</pdfrwt>
<pdfrwt beam="2">0</pdfrwt>
<totfact> 0.50341433E-04</totfact>
</mgrwt>
<clustering>
<clus scale="   35.780">  1  6  2 -1</clus>
<clus scale="  466.642">  4  5 -1 -1</clus>
<clus scale="  300.000">  1  4  2 -1</clus>
</clustering>
</event>
<event>
 6    1  0.9964252E-012  0.3000000E+03  0.7818608E-02  0.1093470E+00
          1   -1    0    0  502    0  0.00000000000E+00  0.00000000000E+00  0.22647788467E+03  0.22647788467E+03  0.00000000000E+00 0.  1.
         13   -1    0    0    0    0 -0.00000000000E+00 -0.00000000000E+00 -0.27500000000E+03  0.27500000000E+03  0.00000000000E+00 0.  1.
    9000005    2    1    2  501    0  0.29887530694E+02  0.10715351311E+02 -0.34008686209E+02  0.46656767313E+03  0.46424209162E+03 0.  0.
         13    1    3    3    0    0  0.66977632495E+02 -0.16693804846E+03 -0.16393483784E+03  0.24336997830E+03  0.00000000000E+00 0.  1.
          3    1    3    3  501    0 -0.37090101801E+02  0.17765339977E+03  0.12992615163E+03  0.22319769484E+03  0.00000000000E+00 0.  1.
         21    1    1    2  502  501 -0.29887530694E+02 -0.10715351311E+02 -0.14513429121E+02  0.34910211537E+02  0.00000000000E+00 0. -1.
<scales pt_clust_4="550.00000" pt_clust_5="550.00000" pt_clust_6="31.75034"></scales>
<mgrwt>
<rscale>  0 0.30000000E+03</rscale>
<asrwt>  1 0.31750343E+02</asrwt>
<pdfrwt beam="1">  1        1 0.82355594E+00 0.30000000E+03</pdfrwt>
<pdfrwt beam="2">0</pdfrwt>
<totfact> 0.68535612E-04</totfact>
</mgrwt>
<clustering>
<clus scale="   31.750">  1  6  2 -1</clus>
<clus scale="  464.242">  4  5 -1 -1</clus>
<clus scale="  300.000">  1  4  2 -1</clus>
</clustering>
</event>
<event>
 6    1  0.9964252E-012  0.3000000E+03  0.7818608E-02  0.1093470E+00
          1   -1    0    0  502    0  0.00000000000E+00  0.00000000000E+00  0.22458525295E+03  0.22458525295E+03  0.00000000000E+00 0.  1.
         13   -1    0    0    0    0 -0.00000000000E+00 -0.00000000000E+00 -0.27500000000E+03  0.27500000000E+03  0.00000000000E+00 0.  1.
    9000005    2    1    2  501    0  0.16890452406E+02 -0.25826622538E+02 -0.50898438468E+02  0.46872207470E+03  0.46492733890E+03 0.  0.
         13    1    3    3    0    0 -0.10053331403E+03 -0.11257891737E+03 -0.20622260389E+03  0.25555571256E+03  0.00000000000E+00 0.  1.
          3    1    3    3  501    0  0.11742376644E+03  0.86752294830E+02  0.15532416542E+03  0.21316636214E+03  0.00000000000E+00 0.  1.
         21    1    1    2  502  501 -0.16890452406E+02  0.25826622538E+02  0.48369141432E+00  0.30863178248E+02  0.00000000000E+00 0. -1.
<scales pt_clust_4="550.00000" pt_clust_5="550.00000" pt_clust_6="30.85939"></scales>
<mgrwt>
<rscale>  0 0.30000000E+03</rscale>
<asrwt>  1 0.30859388E+02</asrwt>
<pdfrwt beam="1">  1        1 0.81667365E+00 0.30000000E+03</pdfrwt>
<pdfrwt beam="2">0</pdfrwt>
<totfact> 0.79005251E-04</totfact>
</mgrwt>
<clustering>
<clus scale="   30.859">  1  6  2 -1</clus>
<clus scale="  464.927">  4  5 -1 -1</clus>
<clus scale="  300.000">  1  4  2 -1</clus>
</clustering>
</event>
<event>
 6    1  0.9964252E-012  0.3000000E+03  0.7818608E-02  0.1093470E+00
          1   -1    0    0  502    0  0.00000000000E+00  0.00000000000E+00  0.23066695878E+03  0.23066695878E+03  0.00000000000E+00 0.  1.
         13   -1    0    0    0    0 -0.00000000000E+00 -0.00000000000E+00 -0.27500000000E+03  0.27500000000E+03  0.00000000000E+00 0.  1.
    9000005    2    1    2  501    0  0.29600776628E+02  0.71711321800E+01 -0.32524543691E+02  0.47300089493E+03  0.47089740873E+03 0.  0.
         13    1    3    3    0    0  0.33358381393E+02  0.27325279975E+02  0.21770419836E+03  0.22193370748E+03  0.00000000000E+00 0.  1.
          3    1    3    3  501    0 -0.37576047648E+01 -0.20154147795E+02 -0.25022874205E+03  0.25106718745E+03  0.00000000000E+00 0.  1.
         21    1    1    2  502  501 -0.29600776628E+02 -0.71711321800E+01 -0.11808497525E+02  0.32666063851E+02  0.00000000000E+00 0. -1.
<scales pt_clust_4="550.00000" pt_clust_5="550.00000" pt_clust_6="30.45705"></scales>
<mgrwt>
<rscale>  0 0.30000000E+03</rscale>
<asrwt>  1 0.30457052E+02</asrwt>
<pdfrwt beam="1">  1        1 0.83878894E+00 0.30000000E+03</pdfrwt>
<pdfrwt beam="2">0</pdfrwt>
<totfact> 0.52116576E-04</totfact>
</mgrwt>
<clustering>
<clus scale="   30.457">  1  6  2 -1</clus>
<clus scale="  470.897">  4  5 -1 -1</clus>
<clus scale="  300.000">  1  4  2 -1</clus>
</clustering>
</event>
<event>
 6    1  0.9964252E-012  0.3000000E+03  0.7818608E-02  0.1093470E+00
          1   -1    0    0  502    0  0.00000000000E+00  0.00000000000E+00  0.22790408912E+03  0.22790408912E+03  0.00000000000E+00 0.  1.
         13   -1    0    0    0    0 -0.00000000000E+00 -0.00000000000E+00 -0.27500000000E+03  0.27500000000E+03  0.00000000000E+00 0.  1.
    9000005    2    1    2  501    0  0.86251940936E+01 -0.28826036663E+02 -0.52643185748E+02  0.47230822957E+03  0.46839985520E+03 0.  0.
         13    1    3    3    0    0  0.85564620843E+01 -0.22053154362E+03 -0.14029491509E+03  0.26151489054E+03  0.00000000000E+00 0.  1.
          3    1    3    3  501    0  0.68732009321E-01  0.19170550696E+03  0.87651729345E+02  0.21079333903E+03  0.00000000000E+00 0.  1.
         21    1    1    2  502  501 -0.86251940936E+01  0.28826036663E+02  0.55472748657E+01  0.30595859545E+02  0.00000000000E+00 0.  1.
<scales pt_clust_4="550.00000" pt_clust_5="550.00000" pt_clust_6="30.08877"></scales>
<mgrwt>
<rscale>  0 0.30000000E+03</rscale>
<asrwt>  1 0.30088775E+02</asrwt>
<pdfrwt beam="1">  1        1 0.82874214E+00 0.30000000E+03</pdfrwt>
<pdfrwt beam="2">0</pdfrwt>
<totfact> 0.62320128E-04</totfact>
</mgrwt>
<clustering>
<clus scale="   30.089">  1  6  2 -1</clus>
<clus scale="  468.400">  4  5 -1 -1</clus>
<clus scale="  300.000">  1  4  2 -1</clus>
</clustering>
</event>
<event>
 6    1  0.9964252E-012  0.3000000E+03  0.7818608E-02  0.1093470E+00
          1   -1    0    0  502    0  0.00000000000E+00  0.00000000000E+00  0.25466184458E+03  0.25466184458E+03  0.00000000000E+00 0.  1.
         13   -1    0    0    0    0 -0.00000000000E+00 -0.00000000000E+00 -0.27500000000E+03  0.27500000000E+03  0.00000000000E+00 0.  1.
    9000005    2    1    2  501    0  0.25579635373E+02 -0.44404308562E+02 -0.20597261544E+02  0.47841608866E+03  0.47521747268E+03 0.  0.
         13    1    3    3    0    0 -0.10601032120E+03  0.13001226836E+03 -0.14952878871E+03  0.22472257736E+03  0.00000000000E+00 0.  1.
          1    1    3    3  501    0  0.13158995658E+03 -0.17441657692E+03  0.12893152716E+03  0.25369351129E+03  0.00000000000E+00 0.  1.
         21    1    1    2  502  501 -0.25579635373E+02  0.44404308562E+02  0.25910612877E+00  0.51245755929E+02  0.00000000000E+00 0.  1.
<scales pt_clust_4="550.00000" pt_clust_5="550.00000" pt_clust_6="51.24510"></scales>
<mgrwt>
<rscale>  0 0.30000000E+03</rscale>
<asrwt>  1 0.51245101E+02</asrwt>
<pdfrwt beam="1">  1        1 0.92604307E+00 0.30000000E+03</pdfrwt>
<pdfrwt beam="2">0</pdfrwt>
<totfact> 0.29132997E-05</totfact>
</mgrwt>
<clustering>
<clus scale="   51.245">  1  6  2 -1</clus>
<clus scale="  475.217">  4  5 -1 -1</clus>
<clus scale="  300.000">  1  4  2 -1</clus>
</clustering>
</event>
<event>
 6    1  0.9964252E-012  0.3000000E+03  0.7818608E-02  0.1093470E+00
          1   -1    0    0  502    0  0.00000000000E+00  0.00000000000E+00  0.27059077812E+03  0.27059077812E+03  0.00000000000E+00 0.  1.
         13   -1    0    0    0    0 -0.00000000000E+00 -0.00000000000E+00 -0.27500000000E+03  0.27500000000E+03  0.00000000000E+00 0.  1.
    9000005    2    1    2  501    0 -0.67635626521E+01 -0.42380518204E+02  0.17361391889E+02  0.49746787582E+03  0.49530901005E+03 0.  0.
         13    1    3    3    0    0 -0.18931981420E+03 -0.12852012511E+03  0.13316611651E+03  0.26475012595E+03  0.00000000000E+00 0.  1.
          1    1    3    3  501    0  0.18255625155E+03  0.86139606902E+02 -0.11580472462E+03  0.23271774986E+03  0.00000000000E+00 0.  1.
         21    1    1    2  502  501  0.67635626521E+01  0.42380518204E+02 -0.21770613764E+02  0.48122902309E+02  0.00000000000E+00 0.  1.
<scales pt_clust_4="550.00000" pt_clust_5="550.00000" pt_clust_6="42.91685"></scales>
<mgrwt>
<rscale>  0 0.30000000E+03</rscale>
<asrwt>  1 0.42916849E+02</asrwt>
<pdfrwt beam="1">  1        1 0.98396647E+00 0.30000000E+03</pdfrwt>
<pdfrwt beam="2">0</pdfrwt>
<totfact> 0.17721856E-06</totfact>
</mgrwt>
<clustering>
<clus scale="   42.917">  1  6  2 -1</clus>
<clus scale="  495.309">  4  5 -1 -1</clus>
<clus scale="  300.000">  1  4  2 -1</clus>
</clustering>
</event>
<event>
 6    1  0.9964252E-012  0.3000000E+03  0.7818608E-02  0.1093470E+00
          1   -1    0    0  502    0  0.00000000000E+00  0.00000000000E+00  0.23448069323E+03  0.23448069323E+03  0.00000000000E+00 0.  1.
         13   -1    0    0    0    0 -0.00000000000E+00 -0.00000000000E+00 -0.27500000000E+03  0.27500000000E+03  0.00000000000E+00 0.  1.
    9000005    2    1    2  501    0 -0.22454580669E+02  0.21157624841E+02 -0.74685765268E+02  0.46344592193E+03  0.45634669468E+03 0.  0.
         13    1    3    3    0    0 -0.12833329353E+03 -0.17624300178E+03  0.22689235815E+02  0.21919359326E+03  0.00000000000E+00 0.  1.
          3    1    3    3  501    0  0.10587871286E+03  0.19740062662E+03 -0.97375001083E+02  0.24425232867E+03  0.00000000000E+00 0.  1.
         21    1    1    2  502  501  0.22454580669E+02 -0.21157624841E+02  0.34166458497E+02  0.46034771295E+02  0.00000000000E+00 0.  1.
<scales pt_clust_4="550.00000" pt_clust_5="550.00000" pt_clust_6="30.85212"></scales>
<mgrwt>
<rscale>  0 0.30000000E+03</rscale>
<asrwt>  1 0.30852120E+02</asrwt>
<pdfrwt beam="1">  1        1 0.85265707E+00 0.30000000E+03</pdfrwt>
<pdfrwt beam="2">0</pdfrwt>
<totfact> 0.39325602E-04</totfact>
</mgrwt>
<clustering>
<clus scale="   30.852">  1  6  2 -1</clus>
<clus scale="  456.347">  4  5 -1 -1</clus>
<clus scale="  300.000">  1  4  2 -1</clus>
</clustering>
</event>
<event>
 6    1  0.9964252E-012  0.3000000E+03  0.7818608E-02  0.1093470E+00
          1   -1    0    0  502    0  0.00000000000E+00  0.00000000000E+00  0.22522459474E+03  0.22522459474E+03  0.00000000000E+00 0.  1.
         13   -1    0    0    0    0 -0.00000000000E+00 -0.00000000000E+00 -0.27500000000E+03  0.27500000000E+03  0.00000000000E+00 0.  1.
    9000005    2    1    2  501    0 -0.31404921744E+02 -0.11097039026E+02 -0.25208262466E+02  0.45883669928E+03  0.45693133699E+03 0.  0.
         13    1    3    3    0    0 -0.20828219217E+03 -0.92176035705E+02  0.75228090931E+02  0.23986904510E+03  0.00000000000E+00 0.  1.
          1    1    3    3  501    0  0.17687727042E+03  0.81078996679E+02 -0.10043635340E+03  0.21896765418E+03  0.00000000000E+00 0.  1.
         21    1    1    2  502  501  0.31404921744E+02  0.11097039026E+02 -0.24567142799E+02  0.41387895455E+02  0.00000000000E+00 0. -1.
<scales pt_clust_4="550.00000" pt_clust_5="550.00000" pt_clust_6="33.30787"></scales>
<mgrwt>
<rscale>  0 0.30000000E+03</rscale>
<asrwt>  1 0.33307874E+02</asrwt>
<pdfrwt beam="1">  1        1 0.81899853E+00 0.30000000E+03</pdfrwt>
<pdfrwt beam="2">0</pdfrwt>
<totfact> 0.74466359E-04</totfact>
</mgrwt>
<clustering>
<clus scale="   33.308">  1  6  2 -1</clus>
<clus scale="  456.931">  4  5 -1 -1</clus>
<clus scale="  300.000">  1  4  2 -1</clus>
</clustering>
</event>
<event>
 6    1  0.9964252E-012  0.3000000E+03  0.7818608E-02  0.1093470E+00
          1   -1    0    0  502    0  0.00000000000E+00  0.00000000000E+00  0.24399182138E+03  0.24399182138E+03  0.00000000000E+00 0.  1.
         13   -1    0    0    0    0 -0.00000000000E+00 -0.00000000000E+00 -0.27500000000E+03  0.27500000000E+03  0.00000000000E+00 0.  1.
    9000005    2    1    2  501    0 -0.31237110308E+02 -0.17456420355E+02 -0.42864454229E+02  0.48129493897E+03  0.47804494890E+03 0.  0.
         13    1    3    3    0    0 -0.58147035947E+02 -0.16756652297E+03  0.15218124711E+03  0.23370654544E+03  0.00000000000E+00 0.  1.
          1    1    3    3  501    0  0.26909925639E+02  0.15011010261E+03 -0.19504570134E+03  0.24758839354E+03  0.00000000000E+00 0.  1.
         21    1    1    2  502  501  0.31237110308E+02  0.17456420355E+02  0.11856275612E+02  0.37696882409E+02  0.00000000000E+00 0.  1.
<scales pt_clust_4="550.00000" pt_clust_5="550.00000" pt_clust_6="35.78385"></scales>
<mgrwt>
<rscale>  0 0.30000000E+03</rscale>
<asrwt>  1 0.35783847E+02</asrwt>
<pdfrwt beam="1">  1        1 0.88724299E+00 0.30000000E+03</pdfrwt>
<pdfrwt beam="2">0</pdfrwt>
<totfact> 0.15739390E-04</totfact>
</mgrwt>
<clustering>
<clus scale="   35.784">  1  6  2 -1</clus>
<clus scale="  478.045">  4  5 -1 -1</clus>
<clus scale="  300.000">  1  4  2 -1</clus>
</clustering>
</event>
<event>
 6    1  0.9964252E-012  0.3000000E+03  0.7818608E-02  0.1093470E+00
          1   -1    0    0  502    0  0.00000000000E+00  0.00000000000E+00  0.23771022383E+03  0.23771022383E+03  0.00000000000E+00 0.  1.
         13   -1    0    0    0    0 -0.00000000000E+00 -0.00000000000E+00 -0.27500000000E+03  0.27500000000E+03  0.00000000000E+00 0.  1.
    9000005    2    1    2  501    0  0.72699522513E+01  0.29538798412E+02 -0.23774219316E+02  0.47942264215E+03  0.47786552866E+03 0.  0.
         13    1    3    3    0    0  0.19971392555E+03 -0.27831857445E+02 -0.14178379437E+03  0.24650133609E+03  0.00000000000E+00 0.  1.
          3    1    3    3  501    0 -0.19244397330E+03  0.57370655857E+02  0.11800957505E+03  0.23292130606E+03  0.00000000000E+00 0.  1.
         21    1    1    2  502  501 -0.72699522513E+01 -0.29538798412E+02 -0.13515556849E+02  0.33287581683E+02  0.00000000000E+00 0.  1.
<scales pt_clust_4="550.00000" pt_clust_5="550.00000" pt_clust_6="30.42029"></scales>
<mgrwt>
<rscale>  0 0.30000000E+03</rscale>
<asrwt>  1 0.30420285E+02</asrwt>
<pdfrwt beam="1">  1        1 0.86440081E+00 0.30000000E+03</pdfrwt>
<pdfrwt beam="2">0</pdfrwt>
<totfact> 0.29779245E-04</totfact>
</mgrwt>
<clustering>
<clus scale="   30.420">  1  6  2 -1</clus>
<clus scale="  477.866">  4  5 -1 -1</clus>
<clus scale="  300.000">  1  4  2 -1</clus>
</clustering>
</event>
<event>
 6    1  0.9964252E-012  0.3000000E+03  0.7818608E-02  0.1093470E+00
          1   -1    0    0  502    0  0.00000000000E+00  0.00000000000E+00  0.23840029667E+03  0.23840029667E+03  0.00000000000E+00 0.  1.
         13   -1    0    0    0    0 -0.00000000000E+00 -0.00000000000E+00 -0.27500000000E+03  0.27500000000E+03  0.00000000000E+00 0.  1.
    9000005    2    1    2  501    0 -0.91668410775E+01 -0.28711098737E+02 -0.45454839468E+02  0.48198737573E+03  0.47889177249E+03 0.  0.
         13    1    3    3    0    0 -0.12985199945E+03  0.18667029198E+03  0.14729008202E+02  0.22786900481E+03  0.00000000000E+00 0.  1.
          1    1    3    3  501    0  0.12068515837E+03 -0.21538139072E+03 -0.60183847670E+02  0.25411837092E+03  0.00000000000E+00 0.  1.
         21    1    1    2  502  501  0.91668410775E+01  0.28711098737E+02  0.88551361365E+01  0.31412920941E+02  0.00000000000E+00 0. -1.
<scales pt_clust_4="550.00000" pt_clust_5="550.00000" pt_clust_6="30.13898"></scales>
<mgrwt>
<rscale>  0 0.30000000E+03</rscale>
<asrwt>  1 0.30138981E+02</asrwt>
<pdfrwt beam="1">  1        1 0.86691017E+00 0.30000000E+03</pdfrwt>
<pdfrwt beam="2">0</pdfrwt>
<totfact> 0.28045333E-04</totfact>
</mgrwt>
<clustering>
<clus scale="   30.139">  1  6  2 -1</clus>
<clus scale="  478.892">  4  5 -1 -1</clus>
<clus scale="  300.000">  1  4  2 -1</clus>
</clustering>
</event>
<event>
 6    1  0.9964252E-012  0.3000000E+03  0.7818608E-02  0.1093470E+00
          1   -1    0    0  502    0  0.00000000000E+00  0.00000000000E+00  0.24986600166E+03  0.24986600166E+03  0.00000000000E+00 0.  1.
         13   -1    0    0    0    0 -0.00000000000E+00 -0.00000000000E+00 -0.27500000000E+03  0.27500000000E+03  0.00000000000E+00 0.  1.
    9000005    2    1    2  501    0  0.47070126975E+02 -0.10949740881E+02 -0.53356005968E+02  0.46890194718E+03  0.46334293889E+03 0.  0.
         13    1    3    3    0    0 -0.19812217401E+03 -0.15998627071E+02  0.46456915184E+02  0.20412397427E+03  0.00000000000E+00 0.  1.
          3    1    3    3  501    0  0.24519230098E+03  0.50488861901E+01 -0.99812921152E+02  0.26477797292E+03  0.00000000000E+00 0.  1.
         21    1    1    2  502  501 -0.47070126975E+02  0.10949740881E+02  0.28222007629E+02  0.55964054476E+02  0.00000000000E+00 0.  1.
<scales pt_clust_4="550.00000" pt_clust_5="550.00000" pt_clust_6="48.32695"></scales>
<mgrwt>
<rscale>  0 0.30000000E+03</rscale>
<asrwt>  1 0.48326946E+02</asrwt>
<pdfrwt beam="1">  1        1 0.90860364E+00 0.30000000E+03</pdfrwt>
<pdfrwt beam="2">0</pdfrwt>
<totfact> 0.73153187E-05</totfact>
</mgrwt>
<clustering>
<clus scale="   48.327">  1  6  2 -1</clus>
<clus scale="  463.343">  4  5 -1 -1</clus>
<clus scale="  300.000">  1  4  2 -1</clus>
</clustering>
</event>
<event>
 6    1  0.9964252E-012  0.3000000E+03  0.7818608E-02  0.1093470E+00
          1   -1    0    0  502    0  0.00000000000E+00  0.00000000000E+00  0.23110442527E+03  0.23110442527E+03  0.00000000000E+00 0.  1.
         13   -1    0    0    0    0 -0.00000000000E+00 -0.00000000000E+00 -0.27500000000E+03  0.27500000000E+03  0.00000000000E+00 0.  1.
    9000005    2    1    2  501    0 -0.34683833603E+02 -0.18360582909E+01 -0.67013557664E+02  0.46438176286E+03  0.45820657497E+03 0.  0.
         13    1    3    3    0    0 -0.14999965833E+03  0.17308656417E+03 -0.10414330811E+03  0.25160422258E+03  0.00000000000E+00 0.  1.
          3    1    3    3  501    0  0.11531582472E+03 -0.17492262246E+03  0.37129750443E+02  0.21277754028E+03  0.00000000000E+00 0.  1.
         21    1    1    2  502  501  0.34683833603E+02  0.18360582909E+01  0.23117982932E+02  0.41722662406E+02  0.00000000000E+00 0. -1.
<scales pt_clust_4="550.00000" pt_clust_5="550.00000" pt_clust_6="34.73240"></scales>
<mgrwt>
<rscale>  0 0.30000000E+03</rscale>
<asrwt>  1 0.34732397E+02</asrwt>
<pdfrwt beam="1">  1        1 0.84037973E+00 0.30000000E+03</pdfrwt>
<pdfrwt beam="2">0</pdfrwt>
<totfact> 0.49440952E-04</totfact>
</mgrwt>
<clustering>
<clus scale="   34.732">  1  6  2 -1</clus>
<clus scale="  458.207">  4  5 -1 -1</clus>
<clus scale="  300.000">  1  4  2 -1</clus>
</clustering>
</event>
<event>
 6    1  0.9964252E-012  0.3000000E+03  0.7818608E-02  0.1093470E+00
          1   -1    0    0  502    0  0.00000000000E+00  0.00000000000E+00  0.26137262514E+03  0.26137262514E+03  0.00000000000E+00 0.  1.
         13   -1    0    0    0    0 -0.00000000000E+00 -0.00000000000E+00 -0.27500000000E+03  0.27500000000E+03  0.00000000000E+00 0.  1.
    9000005    2    1    2  501    0 -0.13684971511E+02 -0.28673218908E+02 -0.87233287191E+01  0.50422481656E+03  0.50314723217E+03 0.  0.
         13    1    3    3    0    0 -0.22323341865E+03 -0.87369734581E+02 -0.11052727569E+03  0.26397520413E+03  0.00000000000E+00 0.  1.
          1    1    3    3  501    0  0.20954844714E+03  0.58696515673E+02  0.10180394697E+03  0.24024961243E+03  0.00000000000E+00 0.  1.
         21    1    1    2  502  501  0.13684971511E+02  0.28673218908E+02 -0.49040461446E+01  0.32147808578E+02  0.00000000000E+00 0.  1.
<scales pt_clust_4="550.00000" pt_clust_5="550.00000" pt_clust_6="31.77157"></scales>
<mgrwt>
<rscale>  0 0.30000000E+03</rscale>
<asrwt>  1 0.31771574E+02</asrwt>
<pdfrwt beam="1">  1        1 0.95044591E+00 0.30000000E+03</pdfrwt>
<pdfrwt beam="2">0</pdfrwt>
<totfact> 0.12300506E-05</totfact>
</mgrwt>
<clustering>
<clus scale="   31.772">  1  6  2 -1</clus>
<clus scale="  503.147">  4  5 -1 -1</clus>
<clus scale="  300.000">  1  4  2 -1</clus>
</clustering>
</event>
<event>
 6    1  0.9964252E-012  0.3000000E+03  0.7818608E-02  0.1093470E+00
          1   -1    0    0  502    0  0.00000000000E+00  0.00000000000E+00  0.22519231905E+03  0.22519231905E+03  0.00000000000E+00 0.  1.
         13   -1    0    0    0    0 -0.00000000000E+00 -0.00000000000E+00 -0.27500000000E+03  0.27500000000E+03  0.00000000000E+00 0.  1.
    9000005    2    1    2  501    0  0.30820078159E+02  0.10777090439E+02 -0.32870349348E+02  0.46341058312E+03  0.46108880466E+03 0.  0.
         13    1    3    3    0    0 -0.76369642656E+02  0.16832825214E+03  0.11891561910E+03  0.21979000718E+03  0.00000000000E+00 0.  1.
          3    1    3    3  501    0  0.10718972081E+03 -0.15755116170E+03 -0.15178596845E+03  0.24362057594E+03  0.00000000000E+00 0.  1.
         21    1    1    2  502  501 -0.30820078159E+02 -0.10777090439E+02 -0.16937331607E+02  0.36781735929E+02  0.00000000000E+00 0.  1.
<scales pt_clust_4="550.00000" pt_clust_5="550.00000" pt_clust_6="32.65002"></scales>
<mgrwt>
<rscale>  0 0.30000000E+03</rscale>
<asrwt>  1 0.32650022E+02</asrwt>
<pdfrwt beam="1">  1        1 0.81888116E+00 0.30000000E+03</pdfrwt>
<pdfrwt beam="2">0</pdfrwt>
<totfact> 0.74919883E-04</totfact>
</mgrwt>
<clustering>
<clus scale="   32.650">  1  6  2 -1</clus>
<clus scale="  461.089">  4  5 -1 -1</clus>
<clus scale="  300.000">  1  4  2 -1</clus>
</clustering>
</event>
<event>
 6    1  0.9964252E-012  0.3000000E+03  0.7818608E-02  0.1093470E+00
          1   -1    0    0  502    0  0.00000000000E+00  0.00000000000E+00  0.24243575729E+03  0.24243575729E+03  0.00000000000E+00 0.  1.
         13   -1    0    0    0    0 -0.00000000000E+00 -0.00000000000E+00 -0.27500000000E+03  0.27500000000E+03  0.00000000000E+00 0.  1.
    9000005    2    1    2  501    0 -0.30340053179E+02  0.11976853085E+02 -0.60699720523E+02  0.47435944189E+03  0.46932766827E+03 0.  0.
         13    1    3    3    0    0  0.21099770088E+03 -0.17106447909E+02  0.32207101249E+02  0.21412603230E+03  0.00000000000E+00 0.  1.
          1    1    3    3  501    0 -0.24133775406E+03  0.29083300995E+02 -0.92906821771E+02  0.26023340959E+03  0.00000000000E+00 0.  1.
         21    1    1    2  502  501  0.30340053179E+02 -0.11976853085E+02  0.28135477809E+02  0.43076315398E+02  0.00000000000E+00 0.  1.
<scales pt_clust_4="550.00000" pt_clust_5="550.00000" pt_clust_6="32.61846"></scales>
<mgrwt>
<rscale>  0 0.30000000E+03</rscale>
<asrwt>  1 0.32618459E+02</asrwt>
<pdfrwt beam="1">  1        1 0.88158457E+00 0.30000000E+03</pdfrwt>
<pdfrwt beam="2">0</pdfrwt>
<totfact> 0.19101412E-04</totfact>
</mgrwt>
<clustering>
<clus scale="   32.618">  1  6  2 -1</clus>
<clus scale="  469.328">  4  5 -1 -1</clus>
<clus scale="  300.000">  1  4  2 -1</clus>
</clustering>
</event>
<event>
 6    1  0.9964252E-012  0.3000000E+03  0.7818608E-02  0.1093470E+00
          1   -1    0    0  502    0  0.00000000000E+00  0.00000000000E+00  0.23219744404E+03  0.23219744404E+03  0.00000000000E+00 0.  1.
         13   -1    0    0    0    0 -0.00000000000E+00 -0.00000000000E+00 -0.27500000000E+03  0.27500000000E+03  0.00000000000E+00 0.  1.
    9000005    2    1    2  501    0 -0.31570857596E+02 -0.51809854074E+01 -0.43693243687E+02  0.47519189790E+03  0.47209604810E+03 0.  0.
         13    1    3    3    0    0 -0.22088085989E+03 -0.46732260271E+02  0.86427453596E+02  0.24174772626E+03  0.00000000000E+00 0.  1.
          1    1    3    3  501    0  0.18931000230E+03  0.41551274864E+02 -0.13012069728E+03  0.23344417164E+03  0.00000000000E+00 0.  1.
         21    1    1    2  502  501  0.31570857596E+02  0.51809854074E+01  0.89068773146E+00  0.32005546140E+02  0.00000000000E+00 0. -1.
<scales pt_clust_4="550.00000" pt_clust_5="550.00000" pt_clust_6="31.99315"></scales>
<mgrwt>
<rscale>  0 0.30000000E+03</rscale>
<asrwt>  1 0.31993150E+02</asrwt>
<pdfrwt beam="1">  1        1 0.84435434E+00 0.30000000E+03</pdfrwt>
<pdfrwt beam="2">0</pdfrwt>
<totfact> 0.46551878E-04</totfact>
</mgrwt>
<clustering>
<clus scale="   31.993">  1  6  2 -1</clus>
<clus scale="  472.096">  4  5 -1 -1</clus>
<clus scale="  300.000">  1  4  2 -1</clus>
</clustering>
</event>
<event>
 6    1  0.9964252E-012  0.3000000E+03  0.7818608E-02  0.1093470E+00
          1   -1    0    0  502    0  0.00000000000E+00  0.00000000000E+00  0.22793893498E+03  0.22793893498E+03  0.00000000000E+00 0.  1.
         13   -1    0    0    0    0 -0.00000000000E+00 -0.00000000000E+00 -0.27500000000E+03  0.27500000000E+03  0.00000000000E+00 0.  1.
    9000005    2    1    2  501    0  0.17256168240E+02  0.26473316840E+02 -0.68958747638E+02  0.46449260419E+03  0.45825697881E+03 0.  0.
         13    1    3    3    0    0 -0.13479430560E+03 -0.10890721321E+03  0.99870443829E+02  0.20001097836E+03  0.00000000000E+00 0.  1.
          3    1    3    3  501    0  0.15205047384E+03  0.13538053005E+03 -0.16882919147E+03  0.26448162584E+03  0.00000000000E+00 0.  1.
         21    1    1    2  502  501 -0.17256168240E+02 -0.26473316840E+02  0.21897682616E+02  0.38446330785E+02  0.00000000000E+00 0. -1.
<scales pt_clust_4="550.00000" pt_clust_5="550.00000" pt_clust_6="31.60082"></scales>
<mgrwt>
<rscale>  0 0.30000000E+03</rscale>
<asrwt>  1 0.31600820E+02</asrwt>
<pdfrwt beam="1">  1        1 0.82886885E+00 0.30000000E+03</pdfrwt>
<pdfrwt beam="2">0</pdfrwt>
<totfact> 0.61583938E-04</totfact>
</mgrwt>
<clustering>
<clus scale="   31.601">  1  6  2 -1</clus>
<clus scale="  458.257">  4  5 -1 -1</clus>
<clus scale="  300.000">  1  4  2 -1</clus>
</clustering>
</event>
<event>
 6    1  0.9964252E-012  0.3000000E+03  0.7818608E-02  0.1093470E+00
          1   -1    0    0  502    0  0.00000000000E+00  0.00000000000E+00  0.23791767035E+03  0.23791767035E+03  0.00000000000E+00 0.  1.
         13   -1    0    0    0    0 -0.00000000000E+00 -0.00000000000E+00 -0.27500000000E+03  0.27500000000E+03  0.00000000000E+00 0.  1.
    9000005    2    1    2  501    0 -0.37947777533E+02  0.18693762137E+02 -0.52722625374E+02  0.46781656822E+03  0.46290730791E+03 0.  0.
         13    1    3    3    0    0 -0.15900177351E+03  0.19393239240E+03 -0.44306408911E+02  0.25466526004E+03  0.00000000000E+00 0.  1.
          3    1    3    3  501    0  0.12105399598E+03 -0.17523863027E+03 -0.84162164628E+01  0.21315130818E+03  0.00000000000E+00 0.  1.
         21    1    1    2  502  501  0.37947777533E+02 -0.18693762137E+02  0.15640295721E+02  0.45101102124E+02  0.00000000000E+00 0. -1.
<scales pt_clust_4="550.00000" pt_clust_5="550.00000" pt_clust_6="42.30237"></scales>
<mgrwt>
<rscale>  0 0.30000000E+03</rscale>
<asrwt>  1 0.42302371E+02</asrwt>
<pdfrwt beam="1">  1        1 0.86515516E+00 0.30000000E+03</pdfrwt>
<pdfrwt beam="2">0</pdfrwt>
<totfact> 0.27486409E-04</totfact>
</mgrwt>
<clustering>
<clus scale="   42.302">  1  6  2 -1</clus>
<clus scale="  462.907">  4  5 -1 -1</clus>
<clus scale="  300.000">  1  4  2 -1</clus>
</clustering>
</event>
<event>
 6    1  0.9964252E-012  0.3000000E+03  0.7818608E-02  0.1093470E+00
          1   -1    0    0  502    0  0.00000000000E+00  0.00000000000E+00  0.24618350844E+03  0.24618350844E+03  0.00000000000E+00 0.  1.
         13   -1    0    0    0    0 -0.00000000000E+00 -0.00000000000E+00 -0.27500000000E+03  0.27500000000E+03  0.00000000000E+00 0.  1.
    9000005    2    1    2  501    0  0.45542078772E+02 -0.42744450040E+01 -0.23938364628E+02  0.47518190041E+03  0.47236896739E+03 0.  0.
         13    1    3    3    0    0  0.22540484150E+03 -0.12515682124E+03 -0.96440700936E+01  0.25800112512E+03  0.00000000000E+00 0.  1.
          3    1    3    3  501    0 -0.17986276273E+03  0.12088237624E+03 -0.14294294534E+02  0.21718077529E+03  0.00000000000E+00 0.  1.
         21    1    1    2  502  501 -0.45542078772E+02  0.42744450040E+01 -0.48781269350E+01  0.46001608030E+02  0.00000000000E+00 0.  1.
<scales pt_clust_4="550.00000" pt_clust_5="550.00000" pt_clust_6="45.74226"></scales>
<mgrwt>
<rscale>  0 0.30000000E+03</rscale>
<asrwt>  1 0.45742255E+02</asrwt>
<pdfrwt beam="1">  1        1 0.89521276E+00 0.30000000E+03</pdfrwt>
<pdfrwt beam="2">0</pdfrwt>
<totfact> 0.11942284E-04</totfact>
</mgrwt>
<clustering>
<clus scale="   45.742">  1  6  2 -1</clus>
<clus scale="  472.369">  4  5 -1 -1</clus>
<clus scale="  300.000">  1  4  2 -1</clus>
</clustering>
</event>
<event>
 6    1  0.9964252E-012  0.3000000E+03  0.7818608E-02  0.1093470E+00
          1   -1    0    0  502    0  0.00000000000E+00  0.00000000000E+00  0.23038752674E+03  0.23038752674E+03  0.00000000000E+00 0.  1.
         13   -1    0    0    0    0 -0.00000000000E+00 -0.00000000000E+00 -0.27500000000E+03  0.27500000000E+03  0.00000000000E+00 0.  1.
    9000005    2    1    2  501    0  0.22448022713E+02  0.29770188873E+02 -0.56733505691E+02  0.46618169431E+03  0.46121199418E+03 0.  0.
         13    1    3    3    0    0  0.15346358607E+03  0.69027441527E+02 -0.20450075895E+03  0.26483281584E+03  0.00000000000E+00 0.  1.
          3    1    3    3  501    0 -0.13101556336E+03 -0.39257252654E+02  0.14776725326E+03  0.20134887847E+03  0.00000000000E+00 0.  1.
         21    1    1    2  502  501 -0.22448022713E+02 -0.29770188873E+02  0.12121032429E+02  0.39205832429E+02  0.00000000000E+00 0.  1.
<scales pt_clust_4="550.00000" pt_clust_5="550.00000" pt_clust_6="37.28509"></scales>
<mgrwt>
<rscale>  0 0.30000000E+03</rscale>
<asrwt>  1 0.37285089E+02</asrwt>
<pdfrwt beam="1">  1        1 0.83777282E+00 0.30000000E+03</pdfrwt>
<pdfrwt beam="2">0</pdfrwt>
<totfact> 0.51040757E-04</totfact>
</mgrwt>
<clustering>
<clus scale="   37.285">  1  6  2 -1</clus>
<clus scale="  461.212">  4  5 -1 -1</clus>
<clus scale="  300.000">  1  4  2 -1</clus>
</clustering>
</event>
<event>
 6    1  0.9964252E-012  0.3000000E+03  0.7818608E-02  0.1093470E+00
          1   -1    0    0  502    0  0.00000000000E+00  0.00000000000E+00  0.23295710845E+03  0.23295710845E+03  0.00000000000E+00 0.  1.
         13   -1    0    0    0    0 -0.00000000000E+00 -0.00000000000E+00 -0.27500000000E+03  0.27500000000E+03  0.00000000000E+00 0.  1.
    9000005    2    1    2  501    0 -0.29629232313E+02 -0.24824852202E+02 -0.18038419034E+02  0.46245568655E+03  0.46048421555E+03 0.  0.
         13    1    3    3    0    0  0.19112856939E+03 -0.10789439439E+03  0.30660893259E+02  0.22161096713E+03  0.00000000000E+00 0.  1.
          3    1    3    3  501    0 -0.22075780170E+03  0.83069542190E+02 -0.48699312293E+02  0.24084471942E+03  0.00000000000E+00 0.  1.
         21    1    1    2  502  501  0.29629232313E+02  0.24824852202E+02 -0.24004472514E+02  0.45501421901E+02  0.00000000000E+00 0. -1.
<scales pt_clust_4="550.00000" pt_clust_5="550.00000" pt_clust_6="38.65445"></scales>
<mgrwt>
<rscale>  0 0.30000000E+03</rscale>
<asrwt>  1 0.38654446E+02</asrwt>
<pdfrwt beam="1">  1        1 0.84711676E+00 0.30000000E+03</pdfrwt>
<pdfrwt beam="2">0</pdfrwt>
<totfact> 0.42477334E-04</totfact>
</mgrwt>
<clustering>
<clus scale="   38.654">  1  6  2 -1</clus>
<clus scale="  460.484">  4  5 -1 -1</clus>
<clus scale="  300.000">  1  4  2 -1</clus>
</clustering>
</event>
<event>
 6    1  0.9964252E-012  0.3000000E+03  0.7818608E-02  0.1093470E+00
          1   -1    0    0  502    0  0.00000000000E+00  0.00000000000E+00  0.23070082792E+03  0.23070082792E+03  0.00000000000E+00 0.  1.
         13   -1    0    0    0    0 -0.00000000000E+00 -0.00000000000E+00 -0.27500000000E+03  0.27500000000E+03  0.00000000000E+00 0.  1.
    9000005    2    1    2  501    0  0.21089762205E+02 -0.23921040002E+02 -0.25618478173E+02  0.46874189735E+03  0.46695360121E+03 0.  0.
         13    1    3    3    0    0 -0.63584405611E+02 -0.23102560267E+03 -0.46280595161E+02  0.24404446155E+03  0.00000000000E+00 0.  1.
          1    1    3    3  501    0  0.84674167816E+02  0.20710456267E+03  0.20662116987E+02  0.22469743579E+03  0.00000000000E+00 0.  1.
         21    1    1    2  502  501 -0.21089762205E+02  0.23921040002E+02 -0.18680693903E+02  0.36958930576E+02  0.00000000000E+00 0.  1.
<scales pt_clust_4="550.00000" pt_clust_5="550.00000" pt_clust_6="31.89036"></scales>
<mgrwt>
<rscale>  0 0.30000000E+03</rscale>
<asrwt>  1 0.31890363E+02</asrwt>
<pdfrwt beam="1">  1        1 0.83891210E+00 0.30000000E+03</pdfrwt>
<pdfrwt beam="2">0</pdfrwt>
<totfact> 0.51551304E-04</totfact>
</mgrwt>
<clustering>
<clus scale="   31.890">  1  6  2 -1</clus>
<clus scale="  466.954">  4  5 -1 -1</clus>
<clus scale="  300.000">  1  4  2 -1</clus>
</clustering>
</event>
<event>
 6    1  0.9964252E-012  0.3000000E+03  0.7818608E-02  0.1093470E+00
          1   -1    0    0  502    0  0.00000000000E+00  0.00000000000E+00  0.23588427806E+03  0.23588427806E+03  0.00000000000E+00 0.  1.
         13   -1    0    0    0    0 -0.00000000000E+00 -0.00000000000E+00 -0.27500000000E+03  0.27500000000E+03  0.00000000000E+00 0.  1.
    9000005    2    1    2  501    0  0.20244635145E+02  0.39746761671E+02 -0.43968434066E+02  0.46601559042E+03  0.46178745869E+03 0.  0.
         13    1    3    3    0    0  0.17782249116E+03 -0.13063533243E+03 -0.72346240837E+02  0.23220768077E+03  0.00000000000E+00 0.  1.
          1    1    3    3  501    0 -0.15757785602E+03  0.17038209410E+03  0.28377806771E+02  0.23380790965E+03  0.00000000000E+00 0.  1.
         21    1    1    2  502  501 -0.20244635145E+02 -0.39746761671E+02  0.48527121225E+01  0.44868687639E+02  0.00000000000E+00 0.  1.
<scales pt_clust_4="550.00000" pt_clust_5="550.00000" pt_clust_6="44.60550"></scales>
<mgrwt>
<rscale>  0 0.30000000E+03</rscale>
<asrwt>  1 0.44605496E+02</asrwt>
<pdfrwt beam="1">  1        1 0.85776101E+00 0.30000000E+03</pdfrwt>
<pdfrwt beam="2">0</pdfrwt>
<totfact> 0.32671119E-04</totfact>
</mgrwt>
<clustering>
<clus scale="   44.605">  1  6  2 -1</clus>
<clus scale="  461.787">  4  5 -1 -1</clus>
<clus scale="  300.000">  1  4  2 -1</clus>
</clustering>
</event>
<event>
 6    1  0.9964252E-012  0.3000000E+03  0.7818608E-02  0.1093470E+00
          1   -1    0    0  502    0  0.00000000000E+00  0.00000000000E+00  0.24961514202E+03  0.24961514202E+03  0.00000000000E+00 0.  1.
         13   -1    0    0    0    0 -0.00000000000E+00 -0.00000000000E+00 -0.27500000000E+03  0.27500000000E+03  0.00000000000E+00 0.  1.
    9000005    2    1    2  501    0  0.12367948789E+02 -0.30642007037E+02 -0.24546222190E+02  0.49156061037E+03  0.48983407179E+03 0.  0.
         13    1    3    3    0    0  0.10825969477E+03  0.20574868957E+03  0.16944268270E+02  0.23310897237E+03  0.00000000000E+00 0.  1.
          1    1    3    3  501    0 -0.95891745977E+02 -0.23639069661E+03 -0.41490490460E+02  0.25845163800E+03  0.00000000000E+00 0.  1.
         21    1    1    2  502  501 -0.12367948789E+02  0.30642007037E+02 -0.83863579159E+00  0.33054531649E+02  0.00000000000E+00 0. -1.
<scales pt_clust_4="550.00000" pt_clust_5="550.00000" pt_clust_6="33.04389"></scales>
<mgrwt>
<rscale>  0 0.30000000E+03</rscale>
<asrwt>  1 0.33043891E+02</asrwt>
<pdfrwt beam="1">  1        1 0.90769143E+00 0.30000000E+03</pdfrwt>
<pdfrwt beam="2">0</pdfrwt>
<totfact> 0.82245627E-05</totfact>
</mgrwt>
<clustering>
<clus scale="   33.044">  1  6  2 -1</clus>
<clus scale="  489.834">  4  5 -1 -1</clus>
<clus scale="  300.000">  1  4  2 -1</clus>
</clustering>
</event>
<event>
 6    1  0.9964252E-012  0.3000000E+03  0.7818608E-02  0.1093470E+00
          1   -1    0    0  502    0  0.00000000000E+00  0.00000000000E+00  0.24579390414E+03  0.24579390414E+03  0.00000000000E+00 0.  1.
         13   -1    0    0    0    0 -0.00000000000E+00 -0.00000000000E+00 -0.27500000000E+03  0.27500000000E+03  0.00000000000E+00 0.  1.
    9000005    2    1    2  501    0 -0.28763779585E+02 -0.20478707373E+02 -0.23255903133E+02  0.48498695977E+03  0.48314054026E+03 0.  0.
         13    1    3    3    0    0  0.16296830283E+03  0.15428511103E+03  0.10804926870E+01  0.22441865047E+03  0.00000000000E+00 0.  1.
          1    1    3    3  501    0 -0.19173208242E+03 -0.17476381840E+03 -0.24336395820E+02  0.26056830930E+03  0.00000000000E+00 0.  1.
         21    1    1    2  502  501  0.28763779585E+02  0.20478707373E+02 -0.59501927291E+01  0.35806944371E+02  0.00000000000E+00 0.  1.
<scales pt_clust_4="550.00000" pt_clust_5="550.00000" pt_clust_6="35.30912"></scales>
<mgrwt>
<rscale>  0 0.30000000E+03</rscale>
<asrwt>  1 0.35309117E+02</asrwt>
<pdfrwt beam="1">  1        1 0.89379602E+00 0.30000000E+03</pdfrwt>
<pdfrwt beam="2">0</pdfrwt>
<totfact> 0.12990682E-04</totfact>
</mgrwt>
<clustering>
<clus scale="   35.309">  1  6  2 -1</clus>
<clus scale="  483.141">  4  5 -1 -1</clus>
<clus scale="  300.000">  1  4  2 -1</clus>
</clustering>
</event>
<event>
 6    1  0.9964252E-012  0.3000000E+03  0.7818608E-02  0.1093470E+00
          1   -1    0    0  502    0  0.00000000000E+00  0.00000000000E+00  0.22808647974E+03  0.22808647974E+03  0.00000000000E+00 0.  1.
         13   -1    0    0    0    0 -0.00000000000E+00 -0.00000000000E+00 -0.27500000000E+03  0.27500000000E+03  0.00000000000E+00 0.  1.
    9000005    2    1    2  501    0  0.31938270614E+02  0.19424905202E+02 -0.53302894188E+02  0.46516281732E+03  0.46058426809E+03 0.  0.
         13    1    3    3    0    0  0.86264952668E+02 -0.77623793835E+02  0.17570897675E+03  0.21057241020E+03  0.00000000000E+00 0.  1.
          1    1    3    3  501    0 -0.54326682054E+02  0.97048699037E+02 -0.22901187094E+03  0.25459040712E+03  0.00000000000E+00 0.  1.
         21    1    1    2  502  501 -0.31938270614E+02 -0.19424905202E+02  0.63893739235E+01  0.37923662416E+02  0.00000000000E+00 0. -1.
<scales pt_clust_4="550.00000" pt_clust_5="550.00000" pt_clust_6="37.38155"></scales>
<mgrwt>
<rscale>  0 0.30000000E+03</rscale>
<asrwt>  1 0.37381547E+02</asrwt>
<pdfrwt beam="1">  1        1 0.82940538E+00 0.30000000E+03</pdfrwt>
<pdfrwt beam="2">0</pdfrwt>
<totfact> 0.59052003E-04</totfact>
</mgrwt>
<clustering>
<clus scale="   37.382">  1  6  2 -1</clus>
<clus scale="  460.584">  4  5 -1 -1</clus>
<clus scale="  300.000">  1  4  2 -1</clus>
</clustering>
</event>
<event>
 6    1  0.9964252E-012  0.3000000E+03  0.7818608E-02  0.1093470E+00
          1   -1    0    0  502    0  0.00000000000E+00  0.00000000000E+00  0.23956968534E+03  0.23956968534E+03  0.00000000000E+00 0.  1.
         13   -1    0    0    0    0 -0.00000000000E+00 -0.00000000000E+00 -0.27500000000E+03  0.27500000000E+03  0.00000000000E+00 0.  1.
    9000005    2    1    2  501    0 -0.34149969539E+01 -0.29958055811E+02 -0.53917605319E+02  0.47920123573E+03  0.47520266082E+03 0.  0.
         13    1    3    3    0    0  0.15062222425E+03  0.13327407387E+03 -0.13313602437E+03  0.24119335436E+03  0.00000000000E+00 0.  1.
          3    1    3    3  501    0 -0.15403722120E+03 -0.16323212968E+03  0.79218419050E+02  0.23800788137E+03  0.00000000000E+00 0.  1.
         21    1    1    2  502  501  0.34149969539E+01  0.29958055811E+02  0.18487290662E+02  0.35368449615E+02  0.00000000000E+00 0. -1.
<scales pt_clust_4="550.00000" pt_clust_5="550.00000" pt_clust_6="30.15207"></scales>
<mgrwt>
<rscale>  0 0.30000000E+03</rscale>
<asrwt>  1 0.30152070E+02</asrwt>
<pdfrwt beam="1">  1        1 0.87116249E+00 0.30000000E+03</pdfrwt>
<pdfrwt beam="2">0</pdfrwt>
<totfact> 0.25349148E-04</totfact>
</mgrwt>
<clustering>
<clus scale="   30.152">  1  6  2 -1</clus>
<clus scale="  475.203">  4  5 -1 -1</clus>
<clus scale="  300.000">  1  4  2 -1</clus>
</clustering>
</event>
<event>
 6    1  0.9964252E-012  0.3000000E+03  0.7818608E-02  0.1093470E+00
          1   -1    0    0  502    0  0.00000000000E+00  0.00000000000E+00  0.21913060940E+03  0.21913060940E+03  0.00000000000E+00 0.  1.
         13   -1    0    0    0    0 -0.00000000000E+00 -0.00000000000E+00 -0.27500000000E+03  0.27500000000E+03  0.00000000000E+00 0.  1.
    9000005    2    1    2  501    0  0.93439552470E+01  0.30445958090E+02 -0.62621002476E+02  0.46157526995E+03  0.45619740685E+03 0.  0.
         13    1    3    3    0    0  0.93763056679E+02 -0.79508228499E+02  0.15850426380E+03  0.20059080447E+03  0.00000000000E+00 0.  1.
          3    1    3    3  501    0 -0.84419101432E+02  0.10995418659E+03 -0.22112526628E+03  0.26098446548E+03  0.00000000000E+00 0.  1.
         21    1    1    2  502  501 -0.93439552470E+01 -0.30445958090E+02  0.67516118778E+01  0.32555339449E+02  0.00000000000E+00 0.  1.
<scales pt_clust_4="550.00000" pt_clust_5="550.00000" pt_clust_6="31.84754"></scales>
<mgrwt>
<rscale>  0 0.30000000E+03</rscale>
<asrwt>  1 0.31847541E+02</asrwt>
<pdfrwt beam="1">  1        1 0.79683858E+00 0.30000000E+03</pdfrwt>
<pdfrwt beam="2">0</pdfrwt>
<totfact> 0.11129672E-03</totfact>
</mgrwt>
<clustering>
<clus scale="   31.848">  1  6  2 -1</clus>
<clus scale="  456.197">  4  5 -1 -1</clus>
<clus scale="  300.000">  1  4  2 -1</clus>
</clustering>
</event>
<event>
 6    1  0.9964252E-012  0.3000000E+03  0.7818608E-02  0.1093470E+00
          1   -1    0    0  502    0  0.00000000000E+00  0.00000000000E+00  0.22647675274E+03  0.22647675274E+03  0.00000000000E+00 0.  1.
         13   -1    0    0    0    0 -0.00000000000E+00 -0.00000000000E+00 -0.27500000000E+03  0.27500000000E+03  0.00000000000E+00 0.  1.
    9000005    2    1    2  501    0 -0.23970095643E+02  0.22528844012E+02 -0.35202731287E+02  0.46598660702E+03  0.46348912753E+03 0.  0.
         13    1    3    3    0    0  0.20217237718E+03 -0.35913451240E+02 -0.92928959401E+02  0.22538686201E+03  0.00000000000E+00 0.  1.
          3    1    3    3  501    0 -0.22614247282E+03  0.58442295252E+02  0.57726228114E+02  0.24059974501E+03  0.00000000000E+00 0.  1.
         21    1    1    2  502  501  0.23970095643E+02 -0.22528844012E+02 -0.13320515968E+02  0.35490145721E+02  0.00000000000E+00 0. -1.
<scales pt_clust_4="550.00000" pt_clust_5="550.00000" pt_clust_6="32.89552"></scales>
<mgrwt>
<rscale>  0 0.30000000E+03</rscale>
<asrwt>  1 0.32895522E+02</asrwt>
<pdfrwt beam="1">  1        1 0.82355183E+00 0.30000000E+03</pdfrwt>
<pdfrwt beam="2">0</pdfrwt>
<totfact> 0.68081930E-04</totfact>
</mgrwt>
<clustering>
<clus scale="   32.896">  1  6  2 -1</clus>
<clus scale="  463.489">  4  5 -1 -1</clus>
<clus scale="  300.000">  1  4  2 -1</clus>
</clustering>
</event>
<event>
 6    1  0.9964252E-012  0.3000000E+03  0.7818608E-02  0.1093470E+00
          1   -1    0    0  502    0  0.00000000000E+00  0.00000000000E+00  0.23145751849E+03  0.23145751849E+03  0.00000000000E+00 0.  1.
         13   -1    0    0    0    0 -0.00000000000E+00 -0.00000000000E+00 -0.27500000000E+03  0.27500000000E+03  0.00000000000E+00 0.  1.
    9000005    2    1    2  501    0 -0.34358590276E+02 -0.76754360866E+01 -0.66791840194E+02  0.46426797329E+03  0.45808752009E+03 0.  0.
         13    1    3    3    0    0  0.77855020447E+02  0.36710274452E+02 -0.23897750900E+03  0.25400649257E+03  0.00000000000E+00 0.  1.
          1    1    3    3  501    0 -0.11221361072E+03 -0.44385710539E+02  0.17218566881E+03  0.21026148072E+03  0.00000000000E+00 0.  1.
         21    1    1    2  502  501  0.34358590276E+02  0.76754360866E+01  0.23249358686E+02  0.42189545200E+02  0.00000000000E+00 0.  1.
<scales pt_clust_4="550.00000" pt_clust_5="550.00000" pt_clust_6="35.20547"></scales>
<mgrwt>
<rscale>  0 0.30000000E+03</rscale>
<asrwt>  1 0.35205469E+02</asrwt>
<pdfrwt beam="1">  1        1 0.84166370E+00 0.30000000E+03</pdfrwt>
<pdfrwt beam="2">0</pdfrwt>
<totfact> 0.48169828E-04</totfact>
</mgrwt>
<clustering>
<clus scale="   35.205">  1  6  2 -1</clus>
<clus scale="  458.088">  4  5 -1 -1</clus>
<clus scale="  300.000">  1  4  2 -1</clus>
</clustering>
</event>
<event>
 6    1  0.9964252E-012  0.3000000E+03  0.7818608E-02  0.1093470E+00
          1   -1    0    0  502    0  0.00000000000E+00  0.00000000000E+00  0.23498872572E+03  0.23498872572E+03  0.00000000000E+00 0.  1.
         13   -1    0    0    0    0 -0.00000000000E+00 -0.00000000000E+00 -0.27500000000E+03  0.27500000000E+03  0.00000000000E+00 0.  1.
    9000005    2    1    2  501    0  0.16224879737E+02  0.34809312212E+02 -0.59776473921E+02  0.46679615627E+03  0.46135722573E+03 0.  0.
         13    1    3    3    0    0  0.58905072625E+02 -0.14021001480E+03  0.13365710616E+03  0.20246697968E+03  0.00000000000E+00 0.  1.
          3    1    3    3  501    0 -0.42680192888E+02  0.17501932702E+03 -0.19343358008E+03  0.26432917659E+03  0.00000000000E+00 0.  1.
         21    1    1    2  502  501 -0.16224879737E+02 -0.34809312212E+02  0.19765199640E+02  0.43192569453E+02  0.00000000000E+00 0.  1.
<scales pt_clust_4="550.00000" pt_clust_5="550.00000" pt_clust_6="38.40488"></scales>
<mgrwt>
<rscale>  0 0.30000000E+03</rscale>
<asrwt>  1 0.38404882E+02</asrwt>
<pdfrwt beam="1">  1        1 0.85450446E+00 0.30000000E+03</pdfrwt>
<pdfrwt beam="2">0</pdfrwt>
<totfact> 0.36217099E-04</totfact>
</mgrwt>
<clustering>
<clus scale="   38.405">  1  6  2 -1</clus>
<clus scale="  461.357">  4  5 -1 -1</clus>
<clus scale="  300.000">  1  4  2 -1</clus>
</clustering>
</event>
<event>
 6    1  0.9964252E-012  0.3000000E+03  0.7818608E-02  0.1093470E+00
          1   -1    0    0  502    0  0.00000000000E+00  0.00000000000E+00  0.26826320845E+03  0.26826320845E+03  0.00000000000E+00 0.  1.
         13   -1    0    0    0    0 -0.00000000000E+00 -0.00000000000E+00 -0.27500000000E+03  0.27500000000E+03  0.00000000000E+00 0.  1.
    9000005    2    1    2  501    0  0.18650778387E+02  0.23969902620E+02 -0.23703079731E+02  0.50847437833E+03  0.50701277071E+03 0.  0.
         13    1    3    3    0    0  0.21723422280E+03 -0.29707214476E+02 -0.15131148258E+03  0.26639893188E+03  0.00000000000E+00 0.  1.
          1    1    3    3  501    0 -0.19858344442E+03  0.53677117096E+02  0.12760840285E+03  0.24207544645E+03  0.00000000000E+00 0.  1.
         21    1    1    2  502  501 -0.18650778387E+02 -0.23969902620E+02  0.16966288177E+02  0.34788830112E+02  0.00000000000E+00 0. -1.
<scales pt_clust_4="550.00000" pt_clust_5="550.00000" pt_clust_6="30.37117"></scales>
<mgrwt>
<rscale>  0 0.30000000E+03</rscale>
<asrwt>  1 0.30371167E+02</asrwt>
<pdfrwt beam="1">  1        1 0.97550258E+00 0.30000000E+03</pdfrwt>
<pdfrwt beam="2">0</pdfrwt>
<totfact> 0.40837004E-06</totfact>
</mgrwt>
<clustering>
<clus scale="   30.371">  1  6  2 -1</clus>
<clus scale="  507.013">  4  5 -1 -1</clus>
<clus scale="  300.000">  1  4  2 -1</clus>
</clustering>
</event>
<event>
 6    1  0.9964252E-012  0.3000000E+03  0.7818608E-02  0.1093470E+00
          1   -1    0    0  502    0  0.00000000000E+00  0.00000000000E+00  0.23405199088E+03  0.23405199088E+03  0.00000000000E+00 0.  1.
         13   -1    0    0    0    0 -0.00000000000E+00 -0.00000000000E+00 -0.27500000000E+03  0.27500000000E+03  0.00000000000E+00 0.  1.
    9000005    2    1    2  501    0  0.32631488060E+02  0.60421554430E+01 -0.48548735323E+02  0.47500654046E+03  0.47135221664E+03 0.  0.
         13    1    3    3    0    0  0.15597637922E+03  0.80724176163E+02  0.14907866473E+03  0.23036812229E+03  0.00000000000E+00 0.  1.
          3    1    3    3  501    0 -0.12334489116E+03 -0.74682020720E+02 -0.19762740005E+03  0.24463841817E+03  0.00000000000E+00 0.  1.
         21    1    1    2  502  501 -0.32631488060E+02 -0.60421554430E+01  0.76007262076E+01  0.34045450420E+02  0.00000000000E+00 0.  1.
<scales pt_clust_4="550.00000" pt_clust_5="550.00000" pt_clust_6="33.18617"></scales>
<mgrwt>
<rscale>  0 0.30000000E+03</rscale>
<asrwt>  1 0.33186167E+02</asrwt>
<pdfrwt beam="1">  1        1 0.85109815E+00 0.30000000E+03</pdfrwt>
<pdfrwt beam="2">0</pdfrwt>
<totfact> 0.40138227E-04</totfact>
</mgrwt>
<clustering>
<clus scale="   33.186">  1  6  2 -1</clus>
<clus scale="  471.352">  4  5 -1 -1</clus>
<clus scale="  300.000">  1  4  2 -1</clus>
</clustering>
</event>
<event>
 6    1  0.9964252E-012  0.3000000E+03  0.7818608E-02  0.1093470E+00
          1   -1    0    0  502    0  0.00000000000E+00  0.00000000000E+00  0.25262102698E+03  0.25262102698E+03  0.00000000000E+00 0.  1.
         13   -1    0    0    0    0 -0.00000000000E+00 -0.00000000000E+00 -0.27500000000E+03  0.27500000000E+03  0.00000000000E+00 0.  1.
    9000005    2    1    2  501    0 -0.10383755491E+02 -0.49703107223E+02 -0.60319944284E+02  0.46423539338E+03  0.45749074695E+03 0.  0.
         13    1    3    3    0    0  0.11716743957E+03 -0.17136051575E+02 -0.22448813887E+03  0.25380460526E+03  0.00000000000E+00 0.  1.
          3    1    3    3  501    0 -0.12755119506E+03 -0.32567055648E+02  0.16416819459E+03  0.21043078812E+03  0.00000000000E+00 0.  1.
         21    1    1    2  502  501  0.10383755491E+02  0.49703107223E+02  0.37940971259E+02  0.63385633592E+02  0.00000000000E+00 0.  1.
<scales pt_clust_4="550.00000" pt_clust_5="550.00000" pt_clust_6="50.77619"></scales>
<mgrwt>
<rscale>  0 0.30000000E+03</rscale>
<asrwt>  1 0.50776188E+02</asrwt>
<pdfrwt beam="1">  1        1 0.91862192E+00 0.30000000E+03</pdfrwt>
<pdfrwt beam="2">0</pdfrwt>
<totfact> 0.41895132E-05</totfact>
</mgrwt>
<clustering>
<clus scale="   50.776">  1  6  2 -1</clus>
<clus scale="  457.491">  4  5 -1 -1</clus>
<clus scale="  300.000">  1  4  2 -1</clus>
</clustering>
</event>
<event>
 6    1  0.9964252E-012  0.3000000E+03  0.7818608E-02  0.1093470E+00
          1   -1    0    0  502    0  0.00000000000E+00  0.00000000000E+00  0.22161202264E+03  0.22161202264E+03  0.00000000000E+00 0.  1.
         13   -1    0    0    0    0 -0.00000000000E+00 -0.00000000000E+00 -0.27500000000E+03  0.27500000000E+03  0.00000000000E+00 0.  1.
    9000005    2    1    2  501    0 -0.97622821448E+01  0.29018927997E+02 -0.62085725215E+02  0.46478355814E+03  0.45959951948E+03 0.  0.
         13    1    3    3    0    0 -0.12189582573E+03 -0.13351330332E+02 -0.22871672147E+03  0.25951529634E+03  0.00000000000E+00 0.  1.
          1    1    3    3  501    0  0.11213354359E+03  0.42370258329E+02  0.16663099626E+03  0.20526826180E+03  0.00000000000E+00 0.  1.
         21    1    1    2  502  501  0.97622821448E+01 -0.29018927997E+02  0.86977478559E+01  0.31828464502E+02  0.00000000000E+00 0. -1.
<scales pt_clust_4="550.00000" pt_clust_5="550.00000" pt_clust_6="30.61699"></scales>
<mgrwt>
<rscale>  0 0.30000000E+03</rscale>
<asrwt>  1 0.30616994E+02</asrwt>
<pdfrwt beam="1">  1        1 0.80586190E+00 0.30000000E+03</pdfrwt>
<pdfrwt beam="2">0</pdfrwt>
<totfact> 0.96274460E-04</totfact>
</mgrwt>
<clustering>
<clus scale="   30.617">  1  6  2 -1</clus>
<clus scale="  459.600">  4  5 -1 -1</clus>
<clus scale="  300.000">  1  4  2 -1</clus>
</clustering>
</event>
<event>
 6    1  0.9964252E-012  0.3000000E+03  0.7818608E-02  0.1093470E+00
          1   -1    0    0  502    0  0.00000000000E+00  0.00000000000E+00  0.22731602360E+03  0.22731602360E+03  0.00000000000E+00 0.  1.
         13   -1    0    0    0    0 -0.00000000000E+00 -0.00000000000E+00 -0.27500000000E+03  0.27500000000E+03  0.00000000000E+00 0.  1.
    9000005    2    1    2  501    0  0.39817848219E+02 -0.85775223397E+01 -0.34814138912E+02  0.45959989499E+03  0.45646577559E+03 0.  0.
         13    1    3    3    0    0 -0.63306747302E+01 -0.21839797760E+03 -0.92331762873E+02  0.23719803645E+03  0.00000000000E+00 0.  1.
          3    1    3    3  501    0  0.46148522949E+02  0.20982045526E+03  0.57517623961E+02  0.22240185854E+03  0.00000000000E+00 0.  1.
         21    1    1    2  502  501 -0.39817848219E+02  0.85775223397E+01 -0.12869837487E+02  0.42716128608E+02  0.00000000000E+00 0.  1.
<scales pt_clust_4="550.00000" pt_clust_5="550.00000" pt_clust_6="40.73127"></scales>
<mgrwt>
<rscale>  0 0.30000000E+03</rscale>
<asrwt>  1 0.40731273E+02</asrwt>
<pdfrwt beam="1">  1        1 0.82660372E+00 0.30000000E+03</pdfrwt>
<pdfrwt beam="2">0</pdfrwt>
<totfact> 0.61465100E-04</totfact>
</mgrwt>
<clustering>
<clus scale="   40.731">  1  6  2 -1</clus>
<clus scale="  456.466">  4  5 -1 -1</clus>
<clus scale="  300.000">  1  4  2 -1</clus>
</clustering>
</event>
<event>
 6    1  0.9964252E-012  0.3000000E+03  0.7818608E-02  0.1093470E+00
          1   -1    0    0  502    0  0.00000000000E+00  0.00000000000E+00  0.24388747320E+03  0.24388747320E+03  0.00000000000E+00 0.  1.
         13   -1    0    0    0    0 -0.00000000000E+00 -0.00000000000E+00 -0.27500000000E+03  0.27500000000E+03  0.00000000000E+00 0.  1.
    9000005    2    1    2  501    0  0.17939677391E+01 -0.36618038988E+02 -0.50559034832E+02  0.47738728315E+03  0.47328458987E+03 0.  0.
         13    1    3    3    0    0 -0.17161523747E+03 -0.17773230994E+03  0.46221598280E+01  0.24710711865E+03  0.00000000000E+00 0.  1.
          1    1    3    3  501    0  0.17340920520E+03  0.14111427095E+03 -0.55181194660E+02  0.23028016450E+03  0.00000000000E+00 0.  1.
         21    1    1    2  502  501 -0.17939677391E+01  0.36618038988E+02  0.19446508031E+02  0.41500190050E+02  0.00000000000E+00 0. -1.
<scales pt_clust_4="550.00000" pt_clust_5="550.00000" pt_clust_6="36.66196"></scales>
<mgrwt>
<rscale>  0 0.30000000E+03</rscale>
<asrwt>  1 0.36661957E+02</asrwt>
<pdfrwt beam="1">  1        1 0.88686354E+00 0.30000000E+03</pdfrwt>
<pdfrwt beam="2">0</pdfrwt>
<totfact> 0.15858818E-04</totfact>
</mgrwt>
<clustering>
<clus scale="   36.662">  1  6  2 -1</clus>
<clus scale="  473.285">  4  5 -1 -1</clus>
<clus scale="  300.000">  1  4  2 -1</clus>
</clustering>
</event>
<event>
 6    1  0.9964252E-012  0.3000000E+03  0.7818608E-02  0.1093470E+00
          1   -1    0    0  502    0  0.00000000000E+00  0.00000000000E+00  0.24875542005E+03  0.24875542005E+03  0.00000000000E+00 0.  1.
         13   -1    0    0    0    0 -0.00000000000E+00 -0.00000000000E+00 -0.27500000000E+03  0.27500000000E+03  0.00000000000E+00 0.  1.
    9000005    2    1    2  501    0 -0.32398845787E+02  0.39237289366E+02 -0.37273165359E+02  0.47168931033E+03  0.46745295650E+03 0.  0.
         13    1    3    3    0    0  0.82762314530E+02  0.71338742889E+02  0.18754940416E+03  0.21705666528E+03  0.00000000000E+00 0.  1.
          3    1    3    3  501    0 -0.11516116032E+03 -0.32101453522E+02 -0.22482256951E+03  0.25463264505E+03  0.00000000000E+00 0.  1.
         21    1    1    2  502  501  0.32398845787E+02 -0.39237289366E+02  0.11028585411E+02  0.52066109720E+02  0.00000000000E+00 0.  1.
<scales pt_clust_4="550.00000" pt_clust_5="550.00000" pt_clust_6="50.88467"></scales>
<mgrwt>
<rscale>  0 0.30000000E+03</rscale>
<asrwt>  1 0.50884674E+02</asrwt>
<pdfrwt beam="1">  1        1 0.90456516E+00 0.30000000E+03</pdfrwt>
<pdfrwt beam="2">0</pdfrwt>
<totfact> 0.88040892E-05</totfact>
</mgrwt>
<clustering>
<clus scale="   50.885">  1  6  2 -1</clus>
<clus scale="  467.453">  4  5 -1 -1</clus>
<clus scale="  300.000">  1  4  2 -1</clus>
</clustering>
</event>
<event>
 6    1  0.9964252E-012  0.3000000E+03  0.7818608E-02  0.1093470E+00
          1   -1    0    0  502    0  0.00000000000E+00  0.00000000000E+00  0.24851422058E+03  0.24851422058E+03  0.00000000000E+00 0.  1.
         13   -1    0    0    0    0 -0.00000000000E+00 -0.00000000000E+00 -0.27500000000E+03  0.27500000000E+03  0.00000000000E+00 0.  1.
    9000005    2    1    2  501    0 -0.20114013765E+02  0.38473027010E+02 -0.63560258907E+02  0.46642425310E+03  0.46002927082E+03 0.  0.
         13    1    3    3    0    0  0.42796559452E+02 -0.10676339064E+03 -0.21724181337E+03  0.24581288119E+03  0.00000000000E+00 0.  1.
          3    1    3    3  501    0 -0.62910573217E+02  0.14523641765E+03  0.15368155446E+03  0.22061137191E+03  0.00000000000E+00 0.  1.
         21    1    1    2  502  501  0.20114013765E+02 -0.38473027010E+02  0.37074479484E+02  0.57089967473E+02  0.00000000000E+00 0. -1.
<scales pt_clust_4="550.00000" pt_clust_5="550.00000" pt_clust_6="43.41368"></scales>
<mgrwt>
<rscale>  0 0.30000000E+03</rscale>
<asrwt>  1 0.43413677E+02</asrwt>
<pdfrwt beam="1">  1        1 0.90368807E+00 0.30000000E+03</pdfrwt>
<pdfrwt beam="2">0</pdfrwt>
<totfact> 0.93843818E-05</totfact>
</mgrwt>
<clustering>
<clus scale="   43.414">  1  6  2 -1</clus>
<clus scale="  460.029">  4  5 -1 -1</clus>
<clus scale="  300.000">  1  4  2 -1</clus>
</clustering>
</event>
<event>
 6    1  0.9964252E-012  0.3000000E+03  0.7818608E-02  0.1093470E+00
          1   -1    0    0  502    0  0.00000000000E+00  0.00000000000E+00  0.24016586037E+03  0.24016586037E+03  0.00000000000E+00 0.  1.
         13   -1    0    0    0    0 -0.00000000000E+00 -0.00000000000E+00 -0.27500000000E+03  0.27500000000E+03  0.00000000000E+00 0.  1.
    9000005    2    1    2  501    0  0.62968677413E+01  0.34797380992E+02 -0.60154887313E+02  0.47167277436E+03  0.46648267636E+03 0.  0.
         13    1    3    3    0    0  0.18746547461E+03  0.69514787357E+00 -0.17336062528E+03  0.25533839076E+03  0.00000000000E+00 0.  1.
          1    1    3    3  501    0 -0.18116860687E+03  0.34102233119E+02  0.11320573796E+03  0.21633438360E+03  0.00000000000E+00 0.  1.
         21    1    1    2  502  501 -0.62968677413E+01 -0.34797380992E+02  0.25320747686E+02  0.43493086010E+02  0.00000000000E+00 0. -1.
<scales pt_clust_4="550.00000" pt_clust_5="550.00000" pt_clust_6="35.36253"></scales>
<mgrwt>
<rscale>  0 0.30000000E+03</rscale>
<asrwt>  1 0.35362526E+02</asrwt>
<pdfrwt beam="1">  1        1 0.87333040E+00 0.30000000E+03</pdfrwt>
<pdfrwt beam="2">0</pdfrwt>
<totfact> 0.23368703E-04</totfact>
</mgrwt>
<clustering>
<clus scale="   35.363">  1  6  2 -1</clus>
<clus scale="  466.483">  4  5 -1 -1</clus>
<clus scale="  300.000">  1  4  2 -1</clus>
</clustering>
</event>
<event>
 6    1  0.9964252E-012  0.3000000E+03  0.7818608E-02  0.1093470E+00
          1   -1    0    0  502    0  0.00000000000E+00  0.00000000000E+00  0.24558018404E+03  0.24558018404E+03  0.00000000000E+00 0.  1.
         13   -1    0    0    0    0 -0.00000000000E+00 -0.00000000000E+00 -0.27500000000E+03  0.27500000000E+03  0.00000000000E+00 0.  1.
    9000005    2    1    2  501    0  0.18803451145E+02  0.26759175323E+02 -0.25696376680E+02  0.48766381670E+03  0.48588689127E+03 0.  0.
         13    1    3    3    0    0 -0.97294060793E+02 -0.23903615534E+02  0.20291733052E+03  0.22630280627E+03  0.00000000000E+00 0.  1.
          3    1    3    3  501    0  0.11609751194E+03  0.50662790857E+02 -0.22861370720E+03  0.26136101043E+03  0.00000000000E+00 0.  1.
         21    1    1    2  502  501 -0.18803451145E+02 -0.26759175323E+02 -0.37234392784E+01  0.32916367342E+02  0.00000000000E+00 0. -1.
<scales pt_clust_4="550.00000" pt_clust_5="550.00000" pt_clust_6="32.70511"></scales>
<mgrwt>
<rscale>  0 0.30000000E+03</rscale>
<asrwt>  1 0.32705111E+02</asrwt>
<pdfrwt beam="1">  1        1 0.89301885E+00 0.30000000E+03</pdfrwt>
<pdfrwt beam="2">0</pdfrwt>
<totfact> 0.13456417E-04</totfact>
</mgrwt>
<clustering>
<clus scale="   32.705">  1  6  2 -1</clus>
<clus scale="  485.887">  4  5 -1 -1</clus>
<clus scale="  300.000">  1  4  2 -1</clus>
</clustering>
</event>
<event>
 6    1  0.9964252E-012  0.3000000E+03  0.7818608E-02  0.1093470E+00
          1   -1    0    0  502    0  0.00000000000E+00  0.00000000000E+00  0.23232439364E+03  0.23232439364E+03  0.00000000000E+00 0.  1.
         13   -1    0    0    0    0 -0.00000000000E+00 -0.00000000000E+00 -0.27500000000E+03  0.27500000000E+03  0.00000000000E+00 0.  1.
    9000005    2    1    2  501    0  0.44033914448E+01  0.36071623482E+02 -0.44699007946E+02  0.47092870666E+03  0.46739201274E+03 0.  0.
         13    1    3    3    0    0 -0.93990784731E+02 -0.16456312900E+03 -0.13206938767E+03  0.23099267131E+03  0.00000000000E+00 0.  1.
          1    1    3    3  501    0  0.98394176176E+02  0.20063475248E+03  0.87370379723E+02  0.23993603535E+03  0.00000000000E+00 0.  1.
         21    1    1    2  502  501 -0.44033914448E+01 -0.36071623482E+02  0.20234015869E+01  0.36395686981E+02  0.00000000000E+00 0. -1.
<scales pt_clust_4="550.00000" pt_clust_5="550.00000" pt_clust_6="36.33940"></scales>
<mgrwt>
<rscale>  0 0.30000000E+03</rscale>
<asrwt>  1 0.36339398E+02</asrwt>
<pdfrwt beam="1">  1        1 0.84481598E+00 0.30000000E+03</pdfrwt>
<pdfrwt beam="2">0</pdfrwt>
<totfact> 0.45033428E-04</totfact>
</mgrwt>
<clustering>
<clus scale="   36.339">  1  6  2 -1</clus>
<clus scale="  467.392">  4  5 -1 -1</clus>
<clus scale="  300.000">  1  4  2 -1</clus>
</clustering>
</event>
<event>
 6    1  0.9964252E-012  0.3000000E+03  0.7818608E-02  0.1093470E+00
          1   -1    0    0  502    0  0.00000000000E+00  0.00000000000E+00  0.23999891986E+03  0.23999891986E+03  0.00000000000E+00 0.  1.
         13   -1    0    0    0    0 -0.00000000000E+00 -0.00000000000E+00 -0.27500000000E+03  0.27500000000E+03  0.00000000000E+00 0.  1.
    9000005    2    1    2  501    0  0.42735845402E+02 -0.31116419818E+02 -0.25452611780E+02  0.46127967459E+03  0.45753307933E+03 0.  0.
         13    1    3    3    0    0 -0.10415042550E+03 -0.16682137433E+03 -0.12987629945E+03  0.23567888158E+03  0.00000000000E+00 0.  1.
          3    1    3    3  501    0  0.14688627090E+03  0.13570495451E+03  0.10442368767E+03  0.22560079301E+03  0.00000000000E+00 0.  1.
         21    1    1    2  502  501 -0.42735845402E+02  0.31116419818E+02 -0.95484683573E+01  0.53719245271E+02  0.00000000000E+00 0. -1.
<scales pt_clust_4="550.00000" pt_clust_5="550.00000" pt_clust_6="52.86385"></scales>
<mgrwt>
<rscale>  0 0.30000000E+03</rscale>
<asrwt>  1 0.52863852E+02</asrwt>
<pdfrwt beam="1">  1        1 0.87272334E+00 0.30000000E+03</pdfrwt>
<pdfrwt beam="2">0</pdfrwt>
<totfact> 0.22052194E-04</totfact>
</mgrwt>
<clustering>
<clus scale="   52.864">  1  6  2 -1</clus>
<clus scale="  457.533">  4  5 -1 -1</clus>
<clus scale="  300.000">  1  4  2 -1</clus>
</clustering>
</event>
<event>
 6    1  0.9964252E-012  0.3000000E+03  0.7818608E-02  0.1093470E+00
          1   -1    0    0  502    0  0.00000000000E+00  0.00000000000E+00  0.22235790418E+03  0.22235790418E+03  0.00000000000E+00 0.  1.
         13   -1    0    0    0    0 -0.00000000000E+00 -0.00000000000E+00 -0.27500000000E+03  0.27500000000E+03  0.00000000000E+00 0.  1.
    9000005    2    1    2  501    0 -0.24397184766E+02 -0.19330542430E+02 -0.56410191504E+02  0.46600362153E+03  0.46152830149E+03 0.  0.
         13    1    3    3    0    0 -0.46070543184E+02 -0.22954614843E+03  0.33188499009E+02  0.23646438564E+03  0.00000000000E+00 0.  1.
          1    1    3    3  501    0  0.21673358418E+02  0.21021560600E+03 -0.89598690513E+02  0.22953923589E+03  0.00000000000E+00 0.  1.
         21    1    1    2  502  501  0.24397184766E+02  0.19330542430E+02  0.37680956815E+01  0.31354282645E+02  0.00000000000E+00 0.  1.
<scales pt_clust_4="550.00000" pt_clust_5="550.00000" pt_clust_6="31.12704"></scales>
<mgrwt>
<rscale>  0 0.30000000E+03</rscale>
<asrwt>  1 0.31127038E+02</asrwt>
<pdfrwt beam="1">  1        1 0.80857420E+00 0.30000000E+03</pdfrwt>
<pdfrwt beam="2">0</pdfrwt>
<totfact> 0.91472915E-04</totfact>
</mgrwt>
<clustering>
<clus scale="   31.127">  1  6  2 -1</clus>
<clus scale="  461.528">  4  5 -1 -1</clus>
<clus scale="  300.000">  1  4  2 -1</clus>
</clustering>
</event>
<event>
 6    1  0.9964252E-012  0.3000000E+03  0.7818608E-02  0.1093470E+00
          1   -1    0    0  502    0  0.00000000000E+00  0.00000000000E+00  0.22909145387E+03  0.22909145387E+03  0.00000000000E+00 0.  1.
         13   -1    0    0    0    0 -0.00000000000E+00 -0.00000000000E+00 -0.27500000000E+03  0.27500000000E+03  0.00000000000E+00 0.  1.
    9000005    2    1    2  501    0 -0.37946308129E+02  0.17166830608E+02 -0.44255792049E+02  0.46240987557E+03  0.45839905707E+03 0.  0.
         13    1    3    3    0    0  0.69333071783E+02 -0.20318059829E+03 -0.31710465990E+02  0.21701378762E+03  0.00000000000E+00 0.  1.
          1    1    3    3  501    0 -0.10727937991E+03  0.22034742890E+03 -0.12545326059E+02  0.24539608795E+03  0.00000000000E+00 0.  1.
         21    1    1    2  502  501  0.37946308129E+02 -0.17166830608E+02 -0.16527540758E+01  0.41681578303E+02  0.00000000000E+00 0. -1.
<scales pt_clust_4="550.00000" pt_clust_5="550.00000" pt_clust_6="41.64880"></scales>
<mgrwt>
<rscale>  0 0.30000000E+03</rscale>
<asrwt>  1 0.41648798E+02</asrwt>
<pdfrwt beam="1">  1        1 0.83305983E+00 0.30000000E+03</pdfrwt>
<pdfrwt beam="2">0</pdfrwt>
<totfact> 0.54155797E-04</totfact>
</mgrwt>
<clustering>
<clus scale="   41.649">  1  6  2 -1</clus>
<clus scale="  458.399">  4  5 -1 -1</clus>
<clus scale="  300.000">  1  4  2 -1</clus>
</clustering>
</event>
<event>
 6    1  0.9964252E-012  0.3000000E+03  0.7818608E-02  0.1093470E+00
          1   -1    0    0  502    0  0.00000000000E+00  0.00000000000E+00  0.22689407742E+03  0.22689407742E+03  0.00000000000E+00 0.  1.
         13   -1    0    0    0    0 -0.00000000000E+00 -0.00000000000E+00 -0.27500000000E+03  0.27500000000E+03  0.00000000000E+00 0.  1.
    9000005    2    1    2  501    0  0.30793921369E+02  0.10972644029E+02 -0.69278520820E+02  0.46294611950E+03  0.45656426886E+03 0.  0.
         13    1    3    3    0    0  0.23323414827E+03 -0.60009512421E+02 -0.60148401487E+02  0.24822799943E+03  0.00000000000E+00 0.  1.
          3    1    3    3  501    0 -0.20244022691E+03  0.70982156450E+02 -0.91301193334E+01  0.21471812006E+03  0.00000000000E+00 0.  1.
         21    1    1    2  502  501 -0.30793921369E+02 -0.10972644029E+02  0.21172598242E+02  0.38947957926E+02  0.00000000000E+00 0.  1.
<scales pt_clust_4="550.00000" pt_clust_5="550.00000" pt_clust_6="32.69043"></scales>
<mgrwt>
<rscale>  0 0.30000000E+03</rscale>
<asrwt>  1 0.32690435E+02</asrwt>
<pdfrwt beam="1">  1        1 0.82506937E+00 0.30000000E+03</pdfrwt>
<pdfrwt beam="2">0</pdfrwt>
<totfact> 0.66067573E-04</totfact>
</mgrwt>
<clustering>
<clus scale="   32.690">  1  6  2 -1</clus>
<clus scale="  456.564">  4  5 -1 -1</clus>
<clus scale="  300.000">  1  4  2 -1</clus>
</clustering>
</event>
<event>
 6    1  0.9964252E-012  0.3000000E+03  0.7818608E-02  0.1093470E+00
          1   -1    0    0  502    0  0.00000000000E+00  0.00000000000E+00  0.25218004854E+03  0.25218004854E+03  0.00000000000E+00 0.  1.
         13   -1    0    0    0    0 -0.00000000000E+00 -0.00000000000E+00 -0.27500000000E+03  0.27500000000E+03  0.00000000000E+00 0.  1.
    9000005    2    1    2  501    0 -0.27503553127E+02  0.45960202642E+02 -0.42359845014E+02  0.47016607568E+03  0.46518060642E+03 0.  0.
         13    1    3    3    0    0 -0.24523059462E+03  0.16396323558E+02 -0.47756182243E+02  0.25037479287E+03  0.00000000000E+00 0.  1.
          3    1    3    3  501    0  0.21772704149E+03  0.29563879084E+02  0.53963372286E+01  0.21979128281E+03  0.00000000000E+00 0.  1.
         21    1    1    2  502  501  0.27503553127E+02 -0.45960202642E+02  0.19539893552E+02  0.57013972863E+02  0.00000000000E+00 0.  1.
<scales pt_clust_4="550.00000" pt_clust_5="550.00000" pt_clust_6="53.56105"></scales>
<mgrwt>
<rscale>  0 0.30000000E+03</rscale>
<asrwt>  1 0.53561046E+02</asrwt>
<pdfrwt beam="1">  1        1 0.91701836E+00 0.30000000E+03</pdfrwt>
<pdfrwt beam="2">0</pdfrwt>
<totfact> 0.45083727E-05</totfact>
</mgrwt>
<clustering>
<clus scale="   53.561">  1  6  2 -1</clus>
<clus scale="  465.181">  4  5 -1 -1</clus>
<clus scale="  300.000">  1  4  2 -1</clus>
</clustering>
</event>
<event>
 6    1  0.9964252E-012  0.3000000E+03  0.7818608E-02  0.1093470E+00
          1   -1    0    0  502    0  0.00000000000E+00  0.00000000000E+00  0.23859282277E+03  0.23859282277E+03  0.00000000000E+00 0.  1.
         13   -1    0    0    0    0 -0.00000000000E+00 -0.00000000000E+00 -0.27500000000E+03  0.27500000000E+03  0.00000000000E+00 0.  1.
    9000005    2    1    2  501    0  0.27397344251E+02  0.12560191731E+02 -0.58509144295E+02  0.47621810088E+03  0.47164815991E+03 0.  0.
         13    1    3    3    0    0 -0.20477622550E+03 -0.30298865282E+02  0.55094524229E+02  0.21421188195E+03  0.00000000000E+00 0.  1.
          1    1    3    3  501    0  0.23217356975E+03  0.42859057013E+02 -0.11360366852E+03  0.26200621893E+03  0.00000000000E+00 0.  1.
         21    1    1    2  502  501 -0.27397344251E+02 -0.12560191731E+02  0.22101967067E+02  0.37374721893E+02  0.00000000000E+00 0.  1.
<scales pt_clust_4="550.00000" pt_clust_5="550.00000" pt_clust_6="30.13923"></scales>
<mgrwt>
<rscale>  0 0.30000000E+03</rscale>
<asrwt>  1 0.30139225E+02</asrwt>
<pdfrwt beam="1">  1        1 0.86761026E+00 0.30000000E+03</pdfrwt>
<pdfrwt beam="2">0</pdfrwt>
<totfact> 0.27575283E-04</totfact>
</mgrwt>
<clustering>
<clus scale="   30.139">  1  6  2 -1</clus>
<clus scale="  471.648">  4  5 -1 -1</clus>
<clus scale="  300.000">  1  4  2 -1</clus>
</clustering>
</event>
<event>
 6    1  0.9964252E-012  0.3000000E+03  0.7818608E-02  0.1093470E+00
          1   -1    0    0  502    0  0.00000000000E+00  0.00000000000E+00  0.22715115348E+03  0.22715115348E+03  0.00000000000E+00 0.  1.
         13   -1    0    0    0    0 -0.00000000000E+00 -0.00000000000E+00 -0.27500000000E+03  0.27500000000E+03  0.00000000000E+00 0.  1.
    9000005    2    1    2  501    0  0.28174376040E+02 -0.22748512660E+02 -0.31210773655E+02  0.46229998334E+03  0.45982156529E+03 0.  0.
         13    1    3    3    0    0  0.10237582024E+03 -0.11119864630E+03  0.17175717487E+03  0.22879351964E+03  0.00000000000E+00 0.  1.
          3    1    3    3  501    0 -0.74201444203E+02  0.88450133643E+02 -0.20296794852E+03  0.23350646370E+03  0.00000000000E+00 0.  1.
         21    1    1    2  502  501 -0.28174376040E+02  0.22748512660E+02 -0.16638072861E+02  0.39851170146E+02  0.00000000000E+00 0.  1.
<scales pt_clust_4="550.00000" pt_clust_5="550.00000" pt_clust_6="36.21176"></scales>
<mgrwt>
<rscale>  0 0.30000000E+03</rscale>
<asrwt>  1 0.36211761E+02</asrwt>
<pdfrwt beam="1">  1        1 0.82600419E+00 0.30000000E+03</pdfrwt>
<pdfrwt beam="2">0</pdfrwt>
<totfact> 0.63581242E-04</totfact>
</mgrwt>
<clustering>
<clus scale="   36.212">  1  6  2 -1</clus>
<clus scale="  459.822">  4  5 -1 -1</clus>
<clus scale="  300.000">  1  4  2 -1</clus>
</clustering>
</event>
<event>
 6    1  0.9964252E-012  0.3000000E+03  0.7818608E-02  0.1093470E+00
          1   -1    0    0  502    0  0.00000000000E+00  0.00000000000E+00  0.24197474365E+03  0.24197474365E+03  0.00000000000E+00 0.  1.
         13   -1    0    0    0    0 -0.00000000000E+00 -0.00000000000E+00 -0.27500000000E+03  0.27500000000E+03  0.00000000000E+00 0.  1.
    9000005    2    1    2  501    0 -0.40427473199E+02 -0.18391905363E+02 -0.52783474825E+02  0.46836373698E+03  0.46325570923E+03 0.  0.
         13    1    3    3    0    0  0.90357043260E+02  0.55683872106E+02 -0.21954921286E+03  0.24385845433E+03  0.00000000000E+00 0.  1.
          1    1    3    3  501    0 -0.13078451646E+03 -0.74075777468E+02  0.16676573804E+03  0.22450528265E+03  0.00000000000E+00 0.  1.
         21    1    1    2  502  501  0.40427473199E+02  0.18391905363E+02  0.19758218473E+02  0.48611006669E+02  0.00000000000E+00 0. -1.
<scales pt_clust_4="550.00000" pt_clust_5="550.00000" pt_clust_6="44.41444"></scales>
<mgrwt>
<rscale>  0 0.30000000E+03</rscale>
<asrwt>  1 0.44414443E+02</asrwt>
<pdfrwt beam="1">  1        1 0.87990816E+00 0.30000000E+03</pdfrwt>
<pdfrwt beam="2">0</pdfrwt>
<totfact> 0.18945020E-04</totfact>
</mgrwt>
<clustering>
<clus scale="   44.414">  1  6  2 -1</clus>
<clus scale="  463.256">  4  5 -1 -1</clus>
<clus scale="  300.000">  1  4  2 -1</clus>
</clustering>
</event>
<event>
 6    1  0.9964252E-012  0.3000000E+03  0.7818608E-02  0.1093470E+00
          1   -1    0    0  502    0  0.00000000000E+00  0.00000000000E+00  0.23658113638E+03  0.23658113638E+03  0.00000000000E+00 0.  1.
         13   -1    0    0    0    0 -0.00000000000E+00 -0.00000000000E+00 -0.27500000000E+03  0.27500000000E+03  0.00000000000E+00 0.  1.
    9000005    2    1    2  501    0 -0.12765315204E+02  0.27969001778E+02 -0.43265942913E+02  0.48045698964E+03  0.47751623924E+03 0.  0.
         13    1    3    3    0    0 -0.20113046156E+02 -0.14170422837E+03 -0.20228522223E+03  0.24779817210E+03  0.00000000000E+00 0.  1.
          1    1    3    3  501    0  0.73477309519E+01  0.16967323015E+03  0.15901927932E+03  0.23265881753E+03  0.00000000000E+00 0.  1.
         21    1    1    2  502  501  0.12765315204E+02 -0.27969001778E+02  0.48470792908E+01  0.31124146741E+02  0.00000000000E+00 0.  1.
<scales pt_clust_4="550.00000" pt_clust_5="550.00000" pt_clust_6="30.74440"></scales>
<mgrwt>
<rscale>  0 0.30000000E+03</rscale>
<asrwt>  1 0.30744403E+02</asrwt>
<pdfrwt beam="1">  1        1 0.86029504E+00 0.30000000E+03</pdfrwt>
<pdfrwt beam="2">0</pdfrwt>
<totfact> 0.32910378E-04</totfact>
</mgrwt>
<clustering>
<clus scale="   30.744">  1  6  2 -1</clus>
<clus scale="  477.516">  4  5 -1 -1</clus>
<clus scale="  300.000">  1  4  2 -1</clus>
</clustering>
</event>
<event>
 6    1  0.9964252E-012  0.3000000E+03  0.7818608E-02  0.1093470E+00
          1   -1    0    0  502    0  0.00000000000E+00  0.00000000000E+00  0.22820079372E+03  0.22820079372E+03  0.00000000000E+00 0.  1.
         13   -1    0    0    0    0 -0.00000000000E+00 -0.00000000000E+00 -0.27500000000E+03  0.27500000000E+03  0.00000000000E+00 0.  1.
    9000005    2    1    2  501    0 -0.23631758463E+02  0.23038634685E+02 -0.70399613482E+02  0.46262718264E+03  0.45604667068E+03 0.  0.
         13    1    3    3    0    0  0.73082540254E+02 -0.10618535334E+03 -0.21186592323E+03  0.24799910560E+03  0.00000000000E+00 0.  1.
          1    1    3    3  501    0 -0.96714298717E+02  0.12922398803E+03  0.14146630975E+03  0.21462807704E+03  0.00000000000E+00 0.  1.
         21    1    1    2  502  501  0.23631758463E+02 -0.23038634685E+02  0.23600407206E+02  0.40573611085E+02  0.00000000000E+00 0. -1.
<scales pt_clust_4="550.00000" pt_clust_5="550.00000" pt_clust_6="33.00362"></scales>
<mgrwt>
<rscale>  0 0.30000000E+03</rscale>
<asrwt>  1 0.33003616E+02</asrwt>
<pdfrwt beam="1">  1        1 0.82982107E+00 0.30000000E+03</pdfrwt>
<pdfrwt beam="2">0</pdfrwt>
<totfact> 0.59961519E-04</totfact>
</mgrwt>
<clustering>
<clus scale="   33.004">  1  6  2 -1</clus>
<clus scale="  456.047">  4  5 -1 -1</clus>
<clus scale="  300.000">  1  4  2 -1</clus>
</clustering>
</event>
<event>
 6    1  0.9964252E-012  0.3000000E+03  0.7818608E-02  0.1093470E+00
          1   -1    0    0  502    0  0.00000000000E+00  0.00000000000E+00  0.22119198236E+03  0.22119198236E+03  0.00000000000E+00 0.  1.
         13   -1    0    0    0    0 -0.00000000000E+00 -0.00000000000E+00 -0.27500000000E+03  0.27500000000E+03  0.00000000000E+00 0.  1.
    9000005    2    1    2  501    0  0.64440196884E+01 -0.31504962631E+02 -0.63414124573E+02  0.46263061542E+03  0.45713416747E+03 0.  0.
         13    1    3    3    0    0 -0.89639074437E+02  0.19313261733E+03 -0.14156501175E+02  0.21339113868E+03  0.00000000000E+00 0.  1.
          1    1    3    3  501    0  0.96083094125E+02 -0.22463757996E+03 -0.49257623399E+02  0.24923947675E+03  0.00000000000E+00 0.  1.
         21    1    1    2  502  501 -0.64440196884E+01  0.31504962631E+02  0.96061069312E+01  0.33561366935E+02  0.00000000000E+00 0.  1.
<scales pt_clust_4="550.00000" pt_clust_5="550.00000" pt_clust_6="32.15724"></scales>
<mgrwt>
<rscale>  0 0.30000000E+03</rscale>
<asrwt>  1 0.32157240E+02</asrwt>
<pdfrwt beam="1">  1        1 0.80433448E+00 0.30000000E+03</pdfrwt>
<pdfrwt beam="2">0</pdfrwt>
<totfact> 0.97951425E-04</totfact>
</mgrwt>
<clustering>
<clus scale="   32.157">  1  6  2 -1</clus>
<clus scale="  457.134">  4  5 -1 -1</clus>
<clus scale="  300.000">  1  4  2 -1</clus>
</clustering>
</event>
<event>
 6    1  0.9964252E-012  0.3000000E+03  0.7818608E-02  0.1093470E+00
          1   -1    0    0  502    0  0.00000000000E+00  0.00000000000E+00  0.23004630476E+03  0.23004630476E+03  0.00000000000E+00 0.  1.
         13   -1    0    0    0    0 -0.00000000000E+00 -0.00000000000E+00 -0.27500000000E+03  0.27500000000E+03  0.00000000000E+00 0.  1.
    9000005    2    1    2  501    0 -0.18215963323E+02 -0.36532772785E+02 -0.53912932856E+02  0.46325237284E+03  0.45828996476E+03 0.  0.
         13    1    3    3    0    0  0.68025862931E+02 -0.45839759889E+02 -0.24232457559E+03  0.25583197914E+03  0.00000000000E+00 0.  1.
          3    1    3    3  501    0 -0.86241826254E+02  0.93069871041E+01  0.18841164273E+03  0.20742039370E+03  0.00000000000E+00 0.  1.
         21    1    1    2  502  501  0.18215963323E+02  0.36532772785E+02  0.89592376182E+01  0.41793931926E+02  0.00000000000E+00 0. -1.
<scales pt_clust_4="550.00000" pt_clust_5="550.00000" pt_clust_6="40.82236"></scales>
<mgrwt>
<rscale>  0 0.30000000E+03</rscale>
<asrwt>  1 0.40822357E+02</asrwt>
<pdfrwt beam="1">  1        1 0.83653202E+00 0.30000000E+03</pdfrwt>
<pdfrwt beam="2">0</pdfrwt>
<totfact> 0.51254639E-04</totfact>
</mgrwt>
<clustering>
<clus scale="   40.822">  1  6  2 -1</clus>
<clus scale="  458.290">  4  5 -1 -1</clus>
<clus scale="  300.000">  1  4  2 -1</clus>
</clustering>
</event>
<event>
 6    1  0.9964252E-012  0.3000000E+03  0.7818608E-02  0.1093470E+00
          1   -1    0    0  502    0  0.00000000000E+00  0.00000000000E+00  0.23191957282E+03  0.23191957282E+03  0.00000000000E+00 0.  1.
         13   -1    0    0    0    0 -0.00000000000E+00 -0.00000000000E+00 -0.27500000000E+03  0.27500000000E+03  0.00000000000E+00 0.  1.
    9000005    2    1    2  501    0 -0.26507694096E+02  0.14092740693E+02 -0.53000117895E+02  0.47530211798E+03  0.47138288861E+03 0.  0.
         13    1    3    3    0    0  0.21011687974E+03  0.14479026031E+02 -0.10143864321E+03  0.23377027972E+03  0.00000000000E+00 0.  1.
          1    1    3    3  501    0 -0.23662457383E+03 -0.38628533745E+00  0.48438525317E+02  0.24153183826E+03  0.00000000000E+00 0.  1.
         21    1    1    2  502  501  0.26507694096E+02 -0.14092740693E+02  0.99196907191E+01  0.31617454839E+02  0.00000000000E+00 0.  1.
<scales pt_clust_4="550.00000" pt_clust_5="550.00000" pt_clust_6="30.02105"></scales>
<mgrwt>
<rscale>  0 0.30000000E+03</rscale>
<asrwt>  1 0.30021046E+02</asrwt>
<pdfrwt beam="1">  1        1 0.84334390E+00 0.30000000E+03</pdfrwt>
<pdfrwt beam="2">0</pdfrwt>
<totfact> 0.48070473E-04</totfact>
</mgrwt>
<clustering>
<clus scale="   30.021">  1  6  2 -1</clus>
<clus scale="  471.383">  4  5 -1 -1</clus>
<clus scale="  300.000">  1  4  2 -1</clus>
</clustering>
</event>
<event>
 6    1  0.9964252E-012  0.3000000E+03  0.7818608E-02  0.1093470E+00
          1   -1    0    0  502    0  0.00000000000E+00  0.00000000000E+00  0.23235413405E+03  0.23235413405E+03  0.00000000000E+00 0.  1.
         13   -1    0    0    0    0 -0.00000000000E+00 -0.00000000000E+00 -0.27500000000E+03  0.27500000000E+03  0.00000000000E+00 0.  1.
    9000005    2    1    2  501    0  0.32159373326E+02 -0.12186970955E+02 -0.60012453321E+02  0.46882692405E+03  0.46369649837E+03 0.  0.
         13    1    3    3    0    0  0.14833628605E+03  0.14696196988E+03  0.83683301236E+02  0.22495414923E+03  0.00000000000E+00 0.  1.
          1    1    3    3  501    0 -0.11617691273E+03 -0.15914894083E+03 -0.14369575456E+03  0.24387277482E+03  0.00000000000E+00 0.  1.
         21    1    1    2  502  501 -0.32159373326E+02  0.12186970955E+02  0.17366587372E+02  0.38527210004E+02  0.00000000000E+00 0.  1.
<scales pt_clust_4="550.00000" pt_clust_5="550.00000" pt_clust_6="34.39110"></scales>
<mgrwt>
<rscale>  0 0.30000000E+03</rscale>
<asrwt>  1 0.34391097E+02</asrwt>
<pdfrwt beam="1">  1        1 0.84492412E+00 0.30000000E+03</pdfrwt>
<pdfrwt beam="2">0</pdfrwt>
<totfact> 0.45400467E-04</totfact>
</mgrwt>
<clustering>
<clus scale="   34.391">  1  6  2 -1</clus>
<clus scale="  463.696">  4  5 -1 -1</clus>
<clus scale="  300.000">  1  4  2 -1</clus>
</clustering>
</event>
<event>
 6    1  0.9964252E-012  0.3000000E+03  0.7818608E-02  0.1093470E+00
          1   -1    0    0  502    0  0.00000000000E+00  0.00000000000E+00  0.24025115265E+03  0.24025115265E+03  0.00000000000E+00 0.  1.
         13   -1    0    0    0    0 -0.00000000000E+00 -0.00000000000E+00 -0.27500000000E+03  0.27500000000E+03  0.00000000000E+00 0.  1.
    9000005    2    1    2  501    0  0.24363455398E+02  0.20970604504E+02 -0.50011716647E+02  0.47966605196E+03  0.47596744152E+03 0.  0.
         13    1    3    3    0    0 -0.41981015455E+02  0.93964909343E+02  0.19226604967E+03  0.21807806790E+03  0.00000000000E+00 0.  1.
          1    1    3    3  501    0  0.66344470854E+02 -0.72994304839E+02 -0.24227776631E+03  0.26158798405E+03  0.00000000000E+00 0.  1.
         21    1    1    2  502  501 -0.24363455398E+02 -0.20970604504E+02  0.15262869296E+02  0.35585100693E+02  0.00000000000E+00 0. -1.
<scales pt_clust_4="550.00000" pt_clust_5="550.00000" pt_clust_6="32.14567"></scales>
<mgrwt>
<rscale>  0 0.30000000E+03</rscale>
<asrwt>  1 0.32145672E+02</asrwt>
<pdfrwt beam="1">  1        1 0.87364056E+00 0.30000000E+03</pdfrwt>
<pdfrwt beam="2">0</pdfrwt>
<totfact> 0.23617160E-04</totfact>
</mgrwt>
<clustering>
<clus scale="   32.146">  1  6  2 -1</clus>
<clus scale="  475.967">  4  5 -1 -1</clus>
<clus scale="  300.000">  1  4  2 -1</clus>
</clustering>
</event>
<event>
 6    1  0.9964252E-012  0.3000000E+03  0.7818608E-02  0.1093470E+00
          1   -1    0    0  502    0  0.00000000000E+00  0.00000000000E+00  0.25497432741E+03  0.25497432741E+03  0.00000000000E+00 0.  1.
         13   -1    0    0    0    0 -0.00000000000E+00 -0.00000000000E+00 -0.27500000000E+03  0.27500000000E+03  0.00000000000E+00 0.  1.
    9000005    2    1    2  501    0 -0.88540529022E+01 -0.56758209354E+02 -0.34545523123E+02  0.47072304353E+03  0.46592585458E+03 0.  0.
         13    1    3    3    0    0 -0.11461614519E+03  0.96835783876E+02 -0.17991501318E+03  0.23427215315E+03  0.00000000000E+00 0.  1.
          3    1    3    3  501    0  0.10576209229E+03 -0.15359399323E+03  0.14536949005E+03  0.23645089038E+03  0.00000000000E+00 0.  1.
         21    1    1    2  502  501  0.88540529022E+01  0.56758209354E+02  0.14519850533E+02  0.59251283879E+02  0.00000000000E+00 0. -1.
<scales pt_clust_4="550.00000" pt_clust_5="550.00000" pt_clust_6="57.44466"></scales>
<mgrwt>
<rscale>  0 0.30000000E+03</rscale>
<asrwt>  1 0.57444657E+02</asrwt>
<pdfrwt beam="1">  1        1 0.92717937E+00 0.30000000E+03</pdfrwt>
<pdfrwt beam="2">0</pdfrwt>
<totfact> 0.27063356E-05</totfact>
</mgrwt>
<clustering>
<clus scale="   57.445">  1  6  2 -1</clus>
<clus scale="  465.926">  4  5 -1 -1</clus>
<clus scale="  300.000">  1  4  2 -1</clus>
</clustering>
</event>
<event>
 6    1  0.9964252E-012  0.3000000E+03  0.7818608E-02  0.1093470E+00
          1   -1    0    0  502    0  0.00000000000E+00  0.00000000000E+00  0.24404486889E+03  0.24404486889E+03  0.00000000000E+00 0.  1.
         13   -1    0    0    0    0 -0.00000000000E+00 -0.00000000000E+00 -0.27500000000E+03  0.27500000000E+03  0.00000000000E+00 0.  1.
    9000005    2    1    2  501    0 -0.32747763457E+02 -0.11514582579E+01 -0.49030640103E+02  0.48162206978E+03  0.47799798385E+03 0.  0.
         13    1    3    3    0    0 -0.11969524639E+02  0.15240839709E+03 -0.20897416978E+03  0.25892429909E+03  0.00000000000E+00 0.  1.
          3    1    3    3  501    0 -0.20778238818E+02 -0.15355985535E+03  0.15994352968E+03  0.22269777069E+03  0.00000000000E+00 0.  1.
         21    1    1    2  502  501  0.32747763457E+02  0.11514582579E+01  0.18075508995E+02  0.37422799107E+02  0.00000000000E+00 0.  1.
<scales pt_clust_4="550.00000" pt_clust_5="550.00000" pt_clust_6="32.76800"></scales>
<mgrwt>
<rscale>  0 0.30000000E+03</rscale>
<asrwt>  1 0.32768001E+02</asrwt>
<pdfrwt beam="1">  1        1 0.88743589E+00 0.30000000E+03</pdfrwt>
<pdfrwt beam="2">0</pdfrwt>
<totfact> 0.15903993E-04</totfact>
</mgrwt>
<clustering>
<clus scale="   32.768">  1  6  2 -1</clus>
<clus scale="  477.998">  4  5 -1 -1</clus>
<clus scale="  300.000">  1  4  2 -1</clus>
</clustering>
</event>
<event>
 6    1  0.9964252E-012  0.3000000E+03  0.7818608E-02  0.1093470E+00
          1   -1    0    0  502    0  0.00000000000E+00  0.00000000000E+00  0.24689949056E+03  0.24689949056E+03  0.00000000000E+00 0.  1.
         13   -1    0    0    0    0 -0.00000000000E+00 -0.00000000000E+00 -0.27500000000E+03  0.27500000000E+03  0.00000000000E+00 0.  1.
    9000005    2    1    2  501    0  0.32629668837E+02 -0.17470264834E+02 -0.47613289284E+02  0.48005867294E+03  0.47625560229E+03 0.  0.
         13    1    3    3    0    0  0.43877157450E+02  0.12431495464E+03  0.17304036219E+03  0.21753707693E+03  0.00000000000E+00 0.  1.
          1    1    3    3  501    0 -0.11247488613E+02 -0.14178521948E+03 -0.22065365147E+03  0.26252159601E+03  0.00000000000E+00 0.  1.
         21    1    1    2  502  501 -0.32629668837E+02  0.17470264834E+02  0.19512779846E+02  0.41840817620E+02  0.00000000000E+00 0.  1.
<scales pt_clust_4="550.00000" pt_clust_5="550.00000" pt_clust_6="37.01223"></scales>
<mgrwt>
<rscale>  0 0.30000000E+03</rscale>
<asrwt>  1 0.37012234E+02</asrwt>
<pdfrwt beam="1">  1        1 0.89781633E+00 0.30000000E+03</pdfrwt>
<pdfrwt beam="2">0</pdfrwt>
<totfact> 0.11603990E-04</totfact>
</mgrwt>
<clustering>
<clus scale="   37.012">  1  6  2 -1</clus>
<clus scale="  476.256">  4  5 -1 -1</clus>
<clus scale="  300.000">  1  4  2 -1</clus>
</clustering>
</event>
<event>
 6    1  0.9964252E-012  0.3000000E+03  0.7818608E-02  0.1093470E+00
          1   -1    0    0  502    0  0.00000000000E+00  0.00000000000E+00  0.24379360196E+03  0.24379360196E+03  0.00000000000E+00 0.  1.
         13   -1    0    0    0    0 -0.00000000000E+00 -0.00000000000E+00 -0.27500000000E+03  0.27500000000E+03  0.00000000000E+00 0.  1.
    9000005    2    1    2  501    0 -0.17599725298E+02 -0.27493358995E+02 -0.22052188255E+02  0.48489028831E+03  0.48328734473E+03 0.  0.
         13    1    3    3    0    0  0.15940068699E+03  0.13043287323E+03 -0.10803063934E+03  0.23257672383E+03  0.00000000000E+00 0.  1.
          3    1    3    3  501    0 -0.17700041228E+03 -0.15792623222E+03  0.85978451081E+02  0.25231356449E+03  0.00000000000E+00 0.  1.
         21    1    1    2  502  501  0.17599725298E+02  0.27493358995E+02 -0.91542097861E+01  0.33903313647E+02  0.00000000000E+00 0.  1.
<scales pt_clust_4="550.00000" pt_clust_5="550.00000" pt_clust_6="32.64408"></scales>
<mgrwt>
<rscale>  0 0.30000000E+03</rscale>
<asrwt>  1 0.32644083E+02</asrwt>
<pdfrwt beam="1">  1        1 0.88652219E+00 0.30000000E+03</pdfrwt>
<pdfrwt beam="2">0</pdfrwt>
<totfact> 0.16384611E-04</totfact>
</mgrwt>
<clustering>
<clus scale="   32.644">  1  6  2 -1</clus>
<clus scale="  483.287">  4  5 -1 -1</clus>
<clus scale="  300.000">  1  4  2 -1</clus>
</clustering>
</event>
<event>
 6    1  0.9964252E-012  0.3000000E+03  0.7818608E-02  0.1093470E+00
          1   -1    0    0  502    0  0.00000000000E+00  0.00000000000E+00  0.24151961374E+03  0.24151961374E+03  0.00000000000E+00 0.  1.
         13   -1    0    0    0    0 -0.00000000000E+00 -0.00000000000E+00 -0.27500000000E+03  0.27500000000E+03  0.00000000000E+00 0.  1.
    9000005    2    1    2  501    0 -0.17739355560E+01 -0.33351615869E+02 -0.59624099507E+02  0.47410533701E+03  0.46915387690E+03 0.  0.
         13    1    3    3    0    0 -0.70025634661E+02  0.20746129756E+03 -0.43867498041E+02  0.22331174819E+03  0.00000000000E+00 0.  1.
          1    1    3    3  501    0  0.68251699105E+02 -0.24081291343E+03 -0.15756601466E+02  0.25079358882E+03  0.00000000000E+00 0.  1.
         21    1    1    2  502  501  0.17739355560E+01  0.33351615869E+02  0.26143713250E+02  0.42414276735E+02  0.00000000000E+00 0.  1.
<scales pt_clust_4="550.00000" pt_clust_5="550.00000" pt_clust_6="33.39876"></scales>
<mgrwt>
<rscale>  0 0.30000000E+03</rscale>
<asrwt>  1 0.33398759E+02</asrwt>
<pdfrwt beam="1">  1        1 0.87825314E+00 0.30000000E+03</pdfrwt>
<pdfrwt beam="2">0</pdfrwt>
<totfact> 0.20893443E-04</totfact>
</mgrwt>
<clustering>
<clus scale="   33.399">  1  6  2 -1</clus>
<clus scale="  469.154">  4  5 -1 -1</clus>
<clus scale="  300.000">  1  4  2 -1</clus>
</clustering>
</event>
<event>
 6    1  0.9964252E-012  0.3000000E+03  0.7818608E-02  0.1093470E+00
          1   -1    0    0  502    0  0.00000000000E+00  0.00000000000E+00  0.24495322774E+03  0.24495322774E+03  0.00000000000E+00 0.  1.
         13   -1    0    0    0    0 -0.00000000000E+00 -0.00000000000E+00 -0.27500000000E+03  0.27500000000E+03  0.00000000000E+00 0.  1.
    9000005    2    1    2  501    0 -0.37345235633E+02 -0.19062708203E+02 -0.52227153434E+02  0.47251882274E+03  0.46774812541E+03 0.  0.
         13    1    3    3    0    0 -0.23567371334E+03 -0.53968462994E+01  0.61316920258E+02  0.24357953489E+03  0.00000000000E+00 0.  1.
          3    1    3    3  501    0  0.19832847771E+03 -0.13665861904E+02 -0.11354407369E+03  0.22893928785E+03  0.00000000000E+00 0.  1.
         21    1    1    2  502  501  0.37345235633E+02  0.19062708203E+02  0.22180381177E+02  0.47434405000E+02  0.00000000000E+00 0. -1.
<scales pt_clust_4="550.00000" pt_clust_5="550.00000" pt_clust_6="41.92915"></scales>
<mgrwt>
<rscale>  0 0.30000000E+03</rscale>
<asrwt>  1 0.41929148E+02</asrwt>
<pdfrwt beam="1">  1        1 0.89073901E+00 0.30000000E+03</pdfrwt>
<pdfrwt beam="2">0</pdfrwt>
<totfact> 0.13711330E-04</totfact>
</mgrwt>
<clustering>
<clus scale="   41.929">  1  6  2 -1</clus>
<clus scale="  467.748">  4  5 -1 -1</clus>
<clus scale="  300.000">  1  4  2 -1</clus>
</clustering>
</event>
<event>
 6    1  0.9964252E-012  0.3000000E+03  0.7818608E-02  0.1093470E+00
          1   -1    0    0  502    0  0.00000000000E+00  0.00000000000E+00  0.23951380556E+03  0.23951380556E+03  0.00000000000E+00 0.  1.
         13   -1    0    0    0    0 -0.00000000000E+00 -0.00000000000E+00 -0.27500000000E+03  0.27500000000E+03  0.00000000000E+00 0.  1.
    9000005    2    1    2  501    0 -0.12326253638E+02 -0.33060158903E+02 -0.13942809640E+02  0.47317341292E+03  0.47165004624E+03 0.  0.
         13    1    3    3    0    0  0.11465086227E+03 -0.21793011935E+03 -0.31280903161E+02  0.24822742001E+03  0.00000000000E+00 0.  1.
          1    1    3    3  501    0 -0.12697711591E+03  0.18486996045E+03  0.17338093522E+02  0.22494599291E+03  0.00000000000E+00 0.  1.
         21    1    1    2  502  501  0.12326253638E+02  0.33060158903E+02 -0.21543384796E+02  0.41340392643E+02  0.00000000000E+00 0. -1.
<scales pt_clust_4="550.00000" pt_clust_5="550.00000" pt_clust_6="35.28331"></scales>
<mgrwt>
<rscale>  0 0.30000000E+03</rscale>
<asrwt>  1 0.35283309E+02</asrwt>
<pdfrwt beam="1">  1        1 0.87095929E+00 0.30000000E+03</pdfrwt>
<pdfrwt beam="2">0</pdfrwt>
<totfact> 0.24722952E-04</totfact>
</mgrwt>
<clustering>
<clus scale="   35.283">  1  6  2 -1</clus>
<clus scale="  471.650">  4  5 -1 -1</clus>
<clus scale="  300.000">  1  4  2 -1</clus>
</clustering>
</event>
<event>
 6    1  0.9964252E-012  0.3000000E+03  0.7818608E-02  0.1093470E+00
          1   -1    0    0  502    0  0.00000000000E+00  0.00000000000E+00  0.25421121428E+03  0.25421121428E+03  0.00000000000E+00 0.  1.
         13   -1    0    0    0    0 -0.00000000000E+00 -0.00000000000E+00 -0.27500000000E+03  0.27500000000E+03  0.00000000000E+00 0.  1.
    9000005    2    1    2  501    0 -0.17767275723E+02  0.32910355412E+02 -0.64445963735E+02  0.47172454824E+03  0.46580253283E+03 0.  0.
         13    1    3    3    0    0 -0.46596142399E+02  0.16736814055E+03 -0.20928820219E+03  0.27200155613E+03  0.00000000000E+00 0.  1.
          3    1    3    3  501    0  0.28828866676E+02 -0.13445778514E+03  0.14484223846E+03  0.19972299212E+03  0.00000000000E+00 0.  1.
         21    1    1    2  502  501  0.17767275723E+02 -0.32910355412E+02  0.43657178019E+02  0.57486666042E+02  0.00000000000E+00 0.  1.
<scales pt_clust_4="550.00000" pt_clust_5="550.00000" pt_clust_6="37.40010"></scales>
<mgrwt>
<rscale>  0 0.30000000E+03</rscale>
<asrwt>  1 0.37400101E+02</asrwt>
<pdfrwt beam="1">  1        1 0.92440442E+00 0.30000000E+03</pdfrwt>
<pdfrwt beam="2">0</pdfrwt>
<totfact> 0.33323138E-05</totfact>
</mgrwt>
<clustering>
<clus scale="   37.400">  1  6  2 -1</clus>
<clus scale="  465.803">  4  5 -1 -1</clus>
<clus scale="  300.000">  1  4  2 -1</clus>
</clustering>
</event>
<event>
 6    1  0.9964252E-012  0.3000000E+03  0.7818608E-02  0.1093470E+00
          1   -1    0    0  502    0  0.00000000000E+00  0.00000000000E+00  0.22958358405E+03  0.22958358405E+03  0.00000000000E+00 0.  1.
         13   -1    0    0    0    0 -0.00000000000E+00 -0.00000000000E+00 -0.27500000000E+03  0.27500000000E+03  0.00000000000E+00 0.  1.
    9000005    2    1    2  501    0  0.24043816764E+01  0.35823059547E+02 -0.45683401755E+02  0.46867893354E+03  0.46506332569E+03 0.  0.
         13    1    3    3    0    0  0.23262771556E+03  0.35468662762E+02 -0.37699970460E+02  0.23831694832E+03  0.00000000000E+00 0.  1.
          1    1    3    3  501    0 -0.23022333388E+03  0.35439678436E+00 -0.79834312956E+01  0.23036198522E+03  0.00000000000E+00 0.  1.
         21    1    1    2  502  501 -0.24043816764E+01 -0.35823059547E+02  0.26698580430E+00  0.35904650506E+02  0.00000000000E+00 0.  1.
<scales pt_clust_4="550.00000" pt_clust_5="550.00000" pt_clust_6="35.90366"></scales>
<mgrwt>
<rscale>  0 0.30000000E+03</rscale>
<asrwt>  1 0.35903658E+02</asrwt>
<pdfrwt beam="1">  1        1 0.83484940E+00 0.30000000E+03</pdfrwt>
<pdfrwt beam="2">0</pdfrwt>
<totfact> 0.53978890E-04</totfact>
</mgrwt>
<clustering>
<clus scale="   35.904">  1  6  2 -1</clus>
<clus scale="  465.063">  4  5 -1 -1</clus>
<clus scale="  300.000">  1  4  2 -1</clus>
</clustering>
</event>
<event>
 6    1  0.9964252E-012  0.3000000E+03  0.7818608E-02  0.1093470E+00
          1   -1    0    0  502    0  0.00000000000E+00  0.00000000000E+00  0.24970973435E+03  0.24970973435E+03  0.00000000000E+00 0.  1.
         13   -1    0    0    0    0 -0.00000000000E+00 -0.00000000000E+00 -0.27500000000E+03  0.27500000000E+03  0.00000000000E+00 0.  1.
    9000005    2    1    2  501    0  0.23691277421E+02  0.31424550163E+02 -0.69954361290E+02  0.46518108227E+03  0.45820415500E+03 0.  0.
         13    1    3    3    0    0  0.23512565622E+03  0.29750774099E+02  0.14624654616E+02  0.23745118086E+03  0.00000000000E+00 0.  1.
          3    1    3    3  501    0 -0.21143437880E+03  0.16737760647E+01 -0.84579015906E+02  0.22772990141E+03  0.00000000000E+00 0.  1.
         21    1    1    2  502  501 -0.23691277421E+02 -0.31424550163E+02  0.44664095640E+02  0.59528652078E+02  0.00000000000E+00 0.  1.
<scales pt_clust_4="550.00000" pt_clust_5="550.00000" pt_clust_6="39.35453"></scales>
<mgrwt>
<rscale>  0 0.30000000E+03</rscale>
<asrwt>  1 0.39354529E+02</asrwt>
<pdfrwt beam="1">  1        1 0.90803540E+00 0.30000000E+03</pdfrwt>
<pdfrwt beam="2">0</pdfrwt>
<totfact> 0.78212252E-05</totfact>
</mgrwt>
<clustering>
<clus scale="   39.355">  1  6  2 -1</clus>
<clus scale="  458.204">  4  5 -1 -1</clus>
<clus scale="  300.000">  1  4  2 -1</clus>
</clustering>
</event>
<event>
 6    1  0.9964252E-012  0.3000000E+03  0.7818608E-02  0.1093470E+00
          1   -1    0    0  502    0  0.00000000000E+00  0.00000000000E+00  0.24050749499E+03  0.24050749499E+03  0.00000000000E+00 0.  1.
         13   -1    0    0    0    0 -0.00000000000E+00 -0.00000000000E+00 -0.27500000000E+03  0.27500000000E+03  0.00000000000E+00 0.  1.
    9000005    2    1    2  501    0  0.35217441810E+02  0.27090358553E+01 -0.60515991677E+02  0.47163462249E+03  0.46640049829E+03 0.  0.
         13    1    3    3    0    0  0.11367623752E+03 -0.20719816004E+03  0.10481772697E+02  0.23656549211E+03  0.00000000000E+00 0.  1.
          1    1    3    3  501    0 -0.78458795709E+02  0.20990719589E+03 -0.70997764374E+02  0.23506913038E+03  0.00000000000E+00 0.  1.
         21    1    1    2  502  501 -0.35217441810E+02 -0.27090358553E+01  0.26023486664E+02  0.43872872497E+02  0.00000000000E+00 0.  1.
<scales pt_clust_4="550.00000" pt_clust_5="550.00000" pt_clust_6="35.32148"></scales>
<mgrwt>
<rscale>  0 0.30000000E+03</rscale>
<asrwt>  1 0.35321482E+02</asrwt>
<pdfrwt beam="1">  1        1 0.87457271E+00 0.30000000E+03</pdfrwt>
<pdfrwt beam="2">0</pdfrwt>
<totfact> 0.22688379E-04</totfact>
</mgrwt>
<clustering>
<clus scale="   35.321">  1  6  2 -1</clus>
<clus scale="  466.400">  4  5 -1 -1</clus>
<clus scale="  300.000">  1  4  2 -1</clus>
</clustering>
</event>
<event>
 6    1  0.9964252E-012  0.3000000E+03  0.7818608E-02  0.1093470E+00
          1   -1    0    0  502    0  0.00000000000E+00  0.00000000000E+00  0.25534939714E+03  0.25534939714E+03  0.00000000000E+00 0.  1.
         13   -1    0    0    0    0 -0.00000000000E+00 -0.00000000000E+00 -0.27500000000E+03  0.27500000000E+03  0.00000000000E+00 0.  1.
    9000005    2    1    2  501    0 -0.40659601805E+02  0.22594970991E+01 -0.30739255224E+02  0.48814434108E+03  0.48547058342E+03 0.  0.
         13    1    3    3    0    0 -0.13444230927E+03  0.19704765594E+03 -0.10351570706E+03  0.26003464162E+03  0.00000000000E+00 0.  1.
          1    1    3    3  501    0  0.93782707469E+02 -0.19478815884E+03  0.72776451833E+02  0.22810969946E+03  0.00000000000E+00 0.  1.
         21    1    1    2  502  501  0.40659601805E+02 -0.22594970991E+01  0.11088652366E+02  0.42205056065E+02  0.00000000000E+00 0. -1.
<scales pt_clust_4="550.00000" pt_clust_5="550.00000" pt_clust_6="40.72233"></scales>
<mgrwt>
<rscale>  0 0.30000000E+03</rscale>
<asrwt>  1 0.40722335E+02</asrwt>
<pdfrwt beam="1">  1        1 0.92854326E+00 0.30000000E+03</pdfrwt>
<pdfrwt beam="2">0</pdfrwt>
<totfact> 0.27069015E-05</totfact>
</mgrwt>
<clustering>
<clus scale="   40.722">  1  6  2 -1</clus>
<clus scale="  485.471">  4  5 -1 -1</clus>
<clus scale="  300.000">  1  4  2 -1</clus>
</clustering>
</event>
<event>
 6    1  0.9964252E-012  0.3000000E+03  0.7818608E-02  0.1093470E+00
          1   -1    0    0  502    0  0.00000000000E+00  0.00000000000E+00  0.22382119639E+03  0.22382119639E+03  0.00000000000E+00 0.  1.
         13   -1    0    0    0    0 -0.00000000000E+00 -0.00000000000E+00 -0.27500000000E+03  0.27500000000E+03  0.00000000000E+00 0.  1.
    9000005    2    1    2  501    0 -0.72044262075E+01  0.32532805098E+02 -0.48416172210E+02  0.46538589623E+03  0.46165963600E+03 0.  0.
         13    1    3    3    0    0  0.18200208961E+03  0.59433160486E+02 -0.15520333792E+03  0.24646528617E+03  0.00000000000E+00 0.  1.
          3    1    3    3  501    0 -0.18920651581E+03 -0.26900355388E+02  0.10678716572E+03  0.21892061006E+03  0.00000000000E+00 0.  1.
         21    1    1    2  502  501  0.72044262075E+01 -0.32532805098E+02 -0.27626313995E+01  0.33435300160E+02  0.00000000000E+00 0.  1.
<scales pt_clust_4="550.00000" pt_clust_5="550.00000" pt_clust_6="33.32097"></scales>
<mgrwt>
<rscale>  0 0.30000000E+03</rscale>
<asrwt>  1 0.33320972E+02</asrwt>
<pdfrwt beam="1">  1        1 0.81389526E+00 0.30000000E+03</pdfrwt>
<pdfrwt beam="2">0</pdfrwt>
<totfact> 0.82004146E-04</totfact>
</mgrwt>
<clustering>
<clus scale="   33.321">  1  6  2 -1</clus>
<clus scale="  461.660">  4  5 -1 -1</clus>
<clus scale="  300.000">  1  4  2 -1</clus>
</clustering>
</event>
<event>
 6    1  0.9964252E-012  0.3000000E+03  0.7818608E-02  0.1093470E+00
          1   -1    0    0  502    0  0.00000000000E+00  0.00000000000E+00  0.24754093513E+03  0.24754093513E+03  0.00000000000E+00 0.  1.
         13   -1    0    0    0    0 -0.00000000000E+00 -0.00000000000E+00 -0.27500000000E+03  0.27500000000E+03  0.00000000000E+00 0.  1.
    9000005    2    1    2  501    0  0.48265221516E+02  0.25023701134E+01 -0.42037484964E+02  0.47206001005E+03  0.46769403405E+03 0.  0.
         13    1    3    3    0    0  0.19286609788E+03 -0.15578178277E+03 -0.65392907562E+02  0.25640110747E+03  0.00000000000E+00 0.  1.
          3    1    3    3  501    0 -0.14460087636E+03  0.15828415288E+03  0.23355422598E+02  0.21565890258E+03  0.00000000000E+00 0.  1.
         21    1    1    2  502  501 -0.48265221516E+02 -0.25023701134E+01  0.14578420090E+02  0.50480925076E+02  0.00000000000E+00 0. -1.
<scales pt_clust_4="550.00000" pt_clust_5="550.00000" pt_clust_6="48.33005"></scales>
<mgrwt>
<rscale>  0 0.30000000E+03</rscale>
<asrwt>  1 0.48330047E+02</asrwt>
<pdfrwt beam="1">  1        1 0.90014886E+00 0.30000000E+03</pdfrwt>
<pdfrwt beam="2">0</pdfrwt>
<totfact> 0.10370597E-04</totfact>
</mgrwt>
<clustering>
<clus scale="   48.330">  1  6  2 -1</clus>
<clus scale="  467.694">  4  5 -1 -1</clus>
<clus scale="  300.000">  1  4  2 -1</clus>
</clustering>
</event>
<event>
 6    1  0.9964252E-012  0.3000000E+03  0.7818608E-02  0.1093470E+00
          1   -1    0    0  502    0  0.00000000000E+00  0.00000000000E+00  0.22981067892E+03  0.22981067892E+03  0.00000000000E+00 0.  1.
         13   -1    0    0    0    0 -0.00000000000E+00 -0.00000000000E+00 -0.27500000000E+03  0.27500000000E+03  0.00000000000E+00 0.  1.
    9000005    2    1    2  501    0 -0.28372760403E+02 -0.10686377379E+02 -0.63933255451E+02  0.46916594200E+03  0.46379953405E+03 0.  0.
         13    1    3    3    0    0 -0.23637495718E+03  0.23414460651E+02 -0.95548639709E+02  0.25602909971E+03  0.00000000000E+00 0.  1.
          1    1    3    3  501    0  0.20800219678E+03 -0.34100838030E+02  0.31615384258E+02  0.21313684229E+03  0.00000000000E+00 0.  1.
         21    1    1    2  502  501  0.28372760403E+02  0.10686377379E+02  0.18743934372E+02  0.35644736920E+02  0.00000000000E+00 0.  1.
<scales pt_clust_4="550.00000" pt_clust_5="550.00000" pt_clust_6="30.31851"></scales>
<mgrwt>
<rscale>  0 0.30000000E+03</rscale>
<asrwt>  1 0.30318512E+02</asrwt>
<pdfrwt beam="1">  1        1 0.83567520E+00 0.30000000E+03</pdfrwt>
<pdfrwt beam="2">0</pdfrwt>
<totfact> 0.54966301E-04</totfact>
</mgrwt>
<clustering>
<clus scale="   30.319">  1  6  2 -1</clus>
<clus scale="  463.800">  4  5 -1 -1</clus>
<clus scale="  300.000">  1  4  2 -1</clus>
</clustering>
</event>
<event>
 6    1  0.9964252E-012  0.3000000E+03  0.7818608E-02  0.1093470E+00
          1   -1    0    0  502    0  0.00000000000E+00  0.00000000000E+00  0.22299817312E+03  0.22299817312E+03  0.00000000000E+00 0.  1.
         13   -1    0    0    0    0 -0.00000000000E+00 -0.00000000000E+00 -0.27500000000E+03  0.27500000000E+03  0.00000000000E+00 0.  1.
    9000005    2    1    2  501    0 -0.27931243202E+02 -0.17332473300E+02 -0.64762441511E+02  0.46273626360E+03  0.45700121098E+03 0.  0.
         13    1    3    3    0    0  0.14393467133E+03  0.10057159013E+03  0.95447538306E+02  0.19985511482E+03  0.00000000000E+00 0.  1.
          3    1    3    3  501    0 -0.17186591453E+03 -0.11790406343E+03 -0.16020997982E+03  0.26288114878E+03  0.00000000000E+00 0.  1.
         21    1    1    2  502  501  0.27931243202E+02  0.17332473300E+02  0.12760614634E+02  0.35261909525E+02  0.00000000000E+00 0.  1.
<scales pt_clust_4="550.00000" pt_clust_5="550.00000" pt_clust_6="32.87201"></scales>
<mgrwt>
<rscale>  0 0.30000000E+03</rscale>
<asrwt>  1 0.32872009E+02</asrwt>
<pdfrwt beam="1">  1        1 0.81090245E+00 0.30000000E+03</pdfrwt>
<pdfrwt beam="2">0</pdfrwt>
<totfact> 0.86827575E-04</totfact>
</mgrwt>
<clustering>
<clus scale="   32.872">  1  6  2 -1</clus>
<clus scale="  457.001">  4  5 -1 -1</clus>
<clus scale="  300.000">  1  4  2 -1</clus>
</clustering>
</event>
<event>
 6    1  0.9964252E-012  0.3000000E+03  0.7818608E-02  0.1093470E+00
          1   -1    0    0  502    0  0.00000000000E+00  0.00000000000E+00  0.21822455845E+03  0.21822455845E+03  0.00000000000E+00 0.  1.
         13   -1    0    0    0    0 -0.00000000000E+00 -0.00000000000E+00 -0.27500000000E+03  0.27500000000E+03  0.00000000000E+00 0.  1.
    9000005    2    1    2  501    0  0.26207720150E+02  0.16194066463E+02 -0.61122058068E+02  0.46211209376E+03  0.45701486719E+03 0.  0.
         13    1    3    3    0    0 -0.18068966305E+01 -0.19843809499E+03 -0.12730172518E+03  0.23576825836E+03  0.00000000000E+00 0.  1.
          1    1    3    3  501    0  0.28014616781E+02  0.21463216145E+03  0.66179667115E+02  0.22634383539E+03  0.00000000000E+00 0.  1.
         21    1    1    2  502  501 -0.26207720150E+02 -0.16194066463E+02  0.43466165195E+01  0.31112464693E+02  0.00000000000E+00 0. -1.
<scales pt_clust_4="550.00000" pt_clust_5="550.00000" pt_clust_6="30.80734"></scales>
<mgrwt>
<rscale>  0 0.30000000E+03</rscale>
<asrwt>  1 0.30807343E+02</asrwt>
<pdfrwt beam="1">  1        1 0.79354385E+00 0.30000000E+03</pdfrwt>
<pdfrwt beam="2">0</pdfrwt>
<totfact> 0.11853085E-03</totfact>
</mgrwt>
<clustering>
<clus scale="   30.807">  1  6  2 -1</clus>
<clus scale="  457.015">  4  5 -1 -1</clus>
<clus scale="  300.000">  1  4  2 -1</clus>
</clustering>
</event>
<event>
 6    1  0.9964252E-012  0.3000000E+03  0.7818608E-02  0.1093470E+00
          1   -1    0    0  502    0  0.00000000000E+00  0.00000000000E+00  0.24890564031E+03  0.24890564031E+03  0.00000000000E+00 0.  1.
         13   -1    0    0    0    0 -0.00000000000E+00 -0.00000000000E+00 -0.27500000000E+03  0.27500000000E+03  0.00000000000E+00 0.  1.
    9000005    2    1    2  501    0  0.57828863426E+01 -0.40292346044E+02 -0.53896520547E+01  0.47823727224E+03  0.47647132682E+03 0.  0.
         13    1    3    3    0    0  0.45626780634E+02  0.20676661405E+03  0.59053707385E+02  0.21982169172E+03  0.00000000000E+00 0.  1.
          3    1    3    3  501    0 -0.39843894291E+02 -0.24705896009E+03 -0.64443359439E+02  0.25841558051E+03  0.00000000000E+00 0.  1.
         21    1    1    2  502  501 -0.57828863426E+01  0.40292346044E+02 -0.20704707636E+02  0.45668368073E+02  0.00000000000E+00 0.  1.
<scales pt_clust_4="550.00000" pt_clust_5="550.00000" pt_clust_6="40.70524"></scales>
<mgrwt>
<rscale>  0 0.30000000E+03</rscale>
<asrwt>  1 0.40705240E+02</asrwt>
<pdfrwt beam="1">  1        1 0.90511142E+00 0.30000000E+03</pdfrwt>
<pdfrwt beam="2">0</pdfrwt>
<totfact> 0.89488098E-05</totfact>
</mgrwt>
<clustering>
<clus scale="   40.705">  1  6  2 -1</clus>
<clus scale="  476.471">  4  5 -1 -1</clus>
<clus scale="  300.000">  1  4  2 -1</clus>
</clustering>
</event>
<event>
 6    1  0.9964252E-012  0.3000000E+03  0.7818608E-02  0.1093470E+00
          1   -1    0    0  502    0  0.00000000000E+00  0.00000000000E+00  0.23515895377E+03  0.23515895377E+03  0.00000000000E+00 0.  1.
         13   -1    0    0    0    0 -0.00000000000E+00 -0.00000000000E+00 -0.27500000000E+03  0.27500000000E+03  0.00000000000E+00 0.  1.
    9000005    2    1    2  501    0  0.30901614440E+02  0.17042189340E+02 -0.56092531433E+02  0.47130722583E+03  0.46662488473E+03 0.  0.
         13    1    3    3    0    0 -0.16151138698E+03  0.15099459247E+03  0.26618712247E+02  0.22269676899E+03  0.00000000000E+00 0.  1.
          3    1    3    3  501    0  0.19241300142E+03 -0.13395240313E+03 -0.82711243680E+02  0.24861045684E+03  0.00000000000E+00 0.  1.
         21    1    1    2  502  501 -0.30901614440E+02 -0.17042189340E+02  0.16251485205E+02  0.38851727940E+02  0.00000000000E+00 0. -1.
<scales pt_clust_4="550.00000" pt_clust_5="550.00000" pt_clust_6="35.28946"></scales>
<mgrwt>
<rscale>  0 0.30000000E+03</rscale>
<asrwt>  1 0.35289460E+02</asrwt>
<pdfrwt beam="1">  1        1 0.85512347E+00 0.30000000E+03</pdfrwt>
<pdfrwt beam="2">0</pdfrwt>
<totfact> 0.36275130E-04</totfact>
</mgrwt>
<clustering>
<clus scale="   35.289">  1  6  2 -1</clus>
<clus scale="  466.625">  4  5 -1 -1</clus>
<clus scale="  300.000">  1  4  2 -1</clus>
</clustering>
</event>
<event>
 6    1  0.9964252E-012  0.3000000E+03  0.7818608E-02  0.1093470E+00
          1   -1    0    0  502    0  0.00000000000E+00  0.00000000000E+00  0.24167886649E+03  0.24167886649E+03  0.00000000000E+00 0.  1.
         13   -1    0    0    0    0 -0.00000000000E+00 -0.00000000000E+00 -0.27500000000E+03  0.27500000000E+03  0.00000000000E+00 0.  1.
    9000005    2    1    2  501    0  0.29689165223E+02 -0.20642631803E+02 -0.57872614763E+02  0.47297142993E+03  0.46802261613E+03 0.  0.
         13    1    3    3    0    0 -0.15977197598E+03  0.13561477914E+03 -0.84470045698E+02  0.22595052832E+03  0.00000000000E+00 0.  1.
          3    1    3    3  501    0  0.18946114120E+03 -0.15625741094E+03  0.26597430935E+02  0.24702090161E+03  0.00000000000E+00 0.  1.
         21    1    1    2  502  501 -0.29689165223E+02  0.20642631803E+02  0.24551481255E+02  0.43707436566E+02  0.00000000000E+00 0. -1.
<scales pt_clust_4="550.00000" pt_clust_5="550.00000" pt_clust_6="36.16027"></scales>
<mgrwt>
<rscale>  0 0.30000000E+03</rscale>
<asrwt>  1 0.36160265E+02</asrwt>
<pdfrwt beam="1">  1        1 0.87883224E+00 0.30000000E+03</pdfrwt>
<pdfrwt beam="2">0</pdfrwt>
<totfact> 0.20265963E-04</totfact>
</mgrwt>
<clustering>
<clus scale="   36.160">  1  6  2 -1</clus>
<clus scale="  468.023">  4  5 -1 -1</clus>
<clus scale="  300.000">  1  4  2 -1</clus>
</clustering>
</event>
<event>
 6    1  0.9964252E-012  0.3000000E+03  0.7818608E-02  0.1093470E+00
          1   -1    0    0  502    0  0.00000000000E+00  0.00000000000E+00  0.25392775914E+03  0.25392775914E+03  0.00000000000E+00 0.  1.
         13   -1    0    0    0    0 -0.00000000000E+00 -0.00000000000E+00 -0.27500000000E+03  0.27500000000E+03  0.00000000000E+00 0.  1.
    9000005    2    1    2  501    0  0.31386133964E+02  0.14192606972E+02 -0.15153919920E+01  0.48931728281E+03  0.48810100118E+03 0.  0.
         13    1    3    3    0    0  0.16159817353E+03  0.13328390514E+03  0.14926444833E+03  0.25721283909E+03  0.00000000000E+00 0.  1.
          3    1    3    3  501    0 -0.13021203956E+03 -0.11909129817E+03 -0.15077984032E+03  0.23210444372E+03  0.00000000000E+00 0.  1.
         21    1    1    2  502  501 -0.31386133964E+02 -0.14192606972E+02 -0.19556848863E+02  0.39610476333E+02  0.00000000000E+00 0.  1.
<scales pt_clust_4="550.00000" pt_clust_5="550.00000" pt_clust_6="34.44591"></scales>
<mgrwt>
<rscale>  0 0.30000000E+03</rscale>
<asrwt>  1 0.34445910E+02</asrwt>
<pdfrwt beam="1">  1        1 0.92337367E+00 0.30000000E+03</pdfrwt>
<pdfrwt beam="2">0</pdfrwt>
<totfact> 0.35546916E-05</totfact>
</mgrwt>
<clustering>
<clus scale="   34.446">  1  6  2 -1</clus>
<clus scale="  488.101">  4  5 -1 -1</clus>
<clus scale="  300.000">  1  4  2 -1</clus>
</clustering>
</event>
<event>
 6    1  0.9964252E-012  0.3000000E+03  0.7818608E-02  0.1093470E+00
          1   -1    0    0  502    0  0.00000000000E+00  0.00000000000E+00  0.23705487195E+03  0.23705487195E+03  0.00000000000E+00 0.  1.
         13   -1    0    0    0    0 -0.00000000000E+00 -0.00000000000E+00 -0.27500000000E+03  0.27500000000E+03  0.00000000000E+00 0.  1.
    9000005    2    1    2  501    0 -0.25773832899E+02  0.24095920204E+02 -0.28815153264E+02  0.47560956673E+03  0.47342290088E+03 0.  0.
         13    1    3    3    0    0  0.16052509401E+03  0.32538862415E+02  0.14642914579E+03  0.21970111085E+03  0.00000000000E+00 0.  1.
          1    1    3    3  501    0 -0.18629892691E+03 -0.84429422114E+01 -0.17524429906E+03  0.25590845588E+03  0.00000000000E+00 0.  1.
         21    1    1    2  502  501  0.25773832899E+02 -0.24095920204E+02 -0.91299747853E+01  0.36445305217E+02  0.00000000000E+00 0. -1.
<scales pt_clust_4="550.00000" pt_clust_5="550.00000" pt_clust_6="35.28321"></scales>
<mgrwt>
<rscale>  0 0.30000000E+03</rscale>
<asrwt>  1 0.35283212E+02</asrwt>
<pdfrwt beam="1">  1        1 0.86201772E+00 0.30000000E+03</pdfrwt>
<pdfrwt beam="2">0</pdfrwt>
<totfact> 0.30724904E-04</totfact>
</mgrwt>
<clustering>
<clus scale="   35.283">  1  6  2 -1</clus>
<clus scale="  473.423">  4  5 -1 -1</clus>
<clus scale="  300.000">  1  4  2 -1</clus>
</clustering>
</event>
<event>
 6    1  0.9964252E-012  0.3000000E+03  0.7818608E-02  0.1093470E+00
          1   -1    0    0  502    0  0.00000000000E+00  0.00000000000E+00  0.23084282256E+03  0.23084282256E+03  0.00000000000E+00 0.  1.
         13   -1    0    0    0    0 -0.00000000000E+00 -0.00000000000E+00 -0.27500000000E+03  0.27500000000E+03  0.00000000000E+00 0.  1.
    9000005    2    1    2  501    0  0.31324336184E+02  0.17999351411E+02 -0.66641201949E+02  0.46329024277E+03  0.45704661531E+03 0.  0.
         13    1    3    3    0    0  0.22700849913E+03 -0.21950396985E+02  0.47917863672E+02  0.23304677698E+03  0.00000000000E+00 0.  1.
          3    1    3    3  501    0 -0.19568416294E+03  0.39949748396E+02 -0.11455906562E+03  0.23024346579E+03  0.00000000000E+00 0.  1.
         21    1    1    2  502  501 -0.31324336184E+02 -0.17999351411E+02  0.22484024513E+02  0.42552579791E+02  0.00000000000E+00 0.  1.
<scales pt_clust_4="550.00000" pt_clust_5="550.00000" pt_clust_6="36.12742"></scales>
<mgrwt>
<rscale>  0 0.30000000E+03</rscale>
<asrwt>  1 0.36127423E+02</asrwt>
<pdfrwt beam="1">  1        1 0.83942845E+00 0.30000000E+03</pdfrwt>
<pdfrwt beam="2">0</pdfrwt>
<totfact> 0.49908549E-04</totfact>
</mgrwt>
<clustering>
<clus scale="   36.127">  1  6  2 -1</clus>
<clus scale="  457.047">  4  5 -1 -1</clus>
<clus scale="  300.000">  1  4  2 -1</clus>
</clustering>
</event>
<event>
 6    1  0.9964252E-012  0.3000000E+03  0.7818608E-02  0.1093470E+00
          1   -1    0    0  502    0  0.00000000000E+00  0.00000000000E+00  0.24173896675E+03  0.24173896675E+03  0.00000000000E+00 0.  1.
         13   -1    0    0    0    0 -0.00000000000E+00 -0.00000000000E+00 -0.27500000000E+03  0.27500000000E+03  0.00000000000E+00 0.  1.
    9000005    2    1    2  501    0 -0.14499932695E+02 -0.28751399247E+02 -0.49841214031E+02  0.48052027818E+03  0.47684242693E+03 0.  0.
         13    1    3    3    0    0 -0.59522122372E+02 -0.14924840992E+03  0.16487515081E+03  0.23022116816E+03  0.00000000000E+00 0.  1.
          3    1    3    3  501    0  0.45022189677E+02  0.12049701068E+03 -0.21471636484E+03  0.25029911002E+03  0.00000000000E+00 0.  1.
         21    1    1    2  502  501  0.14499932695E+02  0.28751399247E+02  0.16580180782E+02  0.36218688569E+02  0.00000000000E+00 0. -1.
<scales pt_clust_4="550.00000" pt_clust_5="550.00000" pt_clust_6="32.20079"></scales>
<mgrwt>
<rscale>  0 0.30000000E+03</rscale>
<asrwt>  1 0.32200792E+02</asrwt>
<pdfrwt beam="1">  1        1 0.87905079E+00 0.30000000E+03</pdfrwt>
<pdfrwt beam="2">0</pdfrwt>
<totfact> 0.20588939E-04</totfact>
</mgrwt>
<clustering>
<clus scale="   32.201">  1  6  2 -1</clus>
<clus scale="  476.842">  4  5 -1 -1</clus>
<clus scale="  300.000">  1  4  2 -1</clus>
</clustering>
</event>
<event>
 6    1  0.9964252E-012  0.3000000E+03  0.7818608E-02  0.1093470E+00
          1   -1    0    0  502    0  0.00000000000E+00  0.00000000000E+00  0.22238740186E+03  0.22238740186E+03  0.00000000000E+00 0.  1.
         13   -1    0    0    0    0 -0.00000000000E+00 -0.00000000000E+00 -0.27500000000E+03  0.27500000000E+03  0.00000000000E+00 0.  1.
    9000005    2    1    2  501    0 -0.28098709480E+02  0.11937626922E+02 -0.42298619222E+02  0.46516283713E+03  0.46222856624E+03 0.  0.
         13    1    3    3    0    0  0.14764305762E+03  0.21557029452E+02  0.14506052316E+03  0.20810029640E+03  0.00000000000E+00 0.  1.
          3    1    3    3  501    0 -0.17574176710E+03 -0.96194025298E+01 -0.18735914238E+03  0.25706254073E+03  0.00000000000E+00 0.  1.
         21    1    1    2  502  501  0.28098709480E+02 -0.11937626922E+02 -0.10313978919E+02  0.32224564731E+02  0.00000000000E+00 0.  1.
<scales pt_clust_4="550.00000" pt_clust_5="550.00000" pt_clust_6="30.52942"></scales>
<mgrwt>
<rscale>  0 0.30000000E+03</rscale>
<asrwt>  1 0.30529418E+02</asrwt>
<pdfrwt beam="1">  1        1 0.80868146E+00 0.30000000E+03</pdfrwt>
<pdfrwt beam="2">0</pdfrwt>
<totfact> 0.91638079E-04</totfact>
</mgrwt>
<clustering>
<clus scale="   30.529">  1  6  2 -1</clus>
<clus scale="  462.229">  4  5 -1 -1</clus>
<clus scale="  300.000">  1  4  2 -1</clus>
</clustering>
</event>
<event>
 6    1  0.9964252E-012  0.3000000E+03  0.7818608E-02  0.1093470E+00
          1   -1    0    0  502    0  0.00000000000E+00  0.00000000000E+00  0.23756523014E+03  0.23756523014E+03  0.00000000000E+00 0.  1.
         13   -1    0    0    0    0 -0.00000000000E+00 -0.00000000000E+00 -0.27500000000E+03  0.27500000000E+03  0.00000000000E+00 0.  1.
    9000005    2    1    2  501    0 -0.30233678985E+02 -0.77063025335E+01 -0.60518071111E+02  0.47375413327E+03  0.46883587684E+03 0.  0.
         13    1    3    3    0    0 -0.12354630155E+03  0.19354343476E+03 -0.96420056777E+02  0.24903730065E+03  0.00000000000E+00 0.  1.
          1    1    3    3  501    0  0.93312622565E+02 -0.20124973729E+03  0.35901985666E+02  0.22471683262E+03  0.00000000000E+00 0.  1.
         21    1    1    2  502  501  0.30233678985E+02  0.77063025335E+01  0.23083301247E+02  0.38811096869E+02  0.00000000000E+00 0.  1.
<scales pt_clust_4="550.00000" pt_clust_5="550.00000" pt_clust_6="31.20036"></scales>
<mgrwt>
<rscale>  0 0.30000000E+03</rscale>
<asrwt>  1 0.31200360E+02</asrwt>
<pdfrwt beam="1">  1        1 0.86387356E+00 0.30000000E+03</pdfrwt>
<pdfrwt beam="2">0</pdfrwt>
<totfact> 0.30026387E-04</totfact>
</mgrwt>
<clustering>
<clus scale="   31.200">  1  6  2 -1</clus>
<clus scale="  468.836">  4  5 -1 -1</clus>
<clus scale="  300.000">  1  4  2 -1</clus>
</clustering>
</event>
<event>
 6    1  0.9964252E-012  0.3000000E+03  0.7818608E-02  0.1093470E+00
          1   -1    0    0  502    0  0.00000000000E+00  0.00000000000E+00  0.24366678778E+03  0.24366678778E+03  0.00000000000E+00 0.  1.
         13   -1    0    0    0    0 -0.00000000000E+00 -0.00000000000E+00 -0.27500000000E+03  0.27500000000E+03  0.00000000000E+00 0.  1.
    9000005    2    1    2  501    0 -0.16327125038E+02  0.37072973492E+02 -0.33184644045E+02  0.47811548478E+03  0.47523911435E+03 0.  0.
         13    1    3    3    0    0  0.75503582736E+02 -0.15068661479E+03  0.13007280729E+03  0.21289946472E+03  0.00000000000E+00 0.  1.
          3    1    3    3  501    0 -0.91830707774E+02  0.18775958828E+03 -0.16325745133E+03  0.26521602006E+03  0.00000000000E+00 0.  1.
         21    1    1    2  502  501  0.16327125038E+02 -0.37072973492E+02  0.18514318288E+01  0.40551303004E+02  0.00000000000E+00 0. -1.
<scales pt_clust_4="550.00000" pt_clust_5="550.00000" pt_clust_6="40.50902"></scales>
<mgrwt>
<rscale>  0 0.30000000E+03</rscale>
<asrwt>  1 0.40509016E+02</asrwt>
<pdfrwt beam="1">  1        1 0.88606105E+00 0.30000000E+03</pdfrwt>
<pdfrwt beam="2">0</pdfrwt>
<totfact> 0.15973196E-04</totfact>
</mgrwt>
<clustering>
<clus scale="   40.509">  1  6  2 -1</clus>
<clus scale="  475.239">  4  5 -1 -1</clus>
<clus scale="  300.000">  1  4  2 -1</clus>
</clustering>
</event>
<event>
 6    1  0.9964252E-012  0.3000000E+03  0.7818608E-02  0.1093470E+00
          1   -1    0    0  502    0  0.00000000000E+00  0.00000000000E+00  0.24478617855E+03  0.24478617855E+03  0.00000000000E+00 0.  1.
         13   -1    0    0    0    0 -0.00000000000E+00 -0.00000000000E+00 -0.27500000000E+03  0.27500000000E+03  0.00000000000E+00 0.  1.
    9000005    2    1    2  501    0  0.36991542527E+01  0.31689300159E+02 -0.74926564098E+02  0.46485781755E+03  0.45766899070E+03 0.  0.
         13    1    3    3    0    0  0.59316419254E+02 -0.13278468702E+03 -0.20256617180E+03  0.24936572471E+03  0.00000000000E+00 0.  1.
          1    1    3    3  501    0 -0.55617265002E+02  0.16447398718E+03  0.12763960770E+03  0.21549209285E+03  0.00000000000E+00 0.  1.
         21    1    1    2  502  501 -0.36991542527E+01 -0.31689300159E+02  0.44712742653E+02  0.54928361002E+02  0.00000000000E+00 0.  1.
<scales pt_clust_4="550.00000" pt_clust_5="550.00000" pt_clust_6="31.90447"></scales>
<mgrwt>
<rscale>  0 0.30000000E+03</rscale>
<asrwt>  1 0.31904474E+02</asrwt>
<pdfrwt beam="1">  1        1 0.89013156E+00 0.30000000E+03</pdfrwt>
<pdfrwt beam="2">0</pdfrwt>
<totfact> 0.14691827E-04</totfact>
</mgrwt>
<clustering>
<clus scale="   31.904">  1  6  2 -1</clus>
<clus scale="  457.669">  4  5 -1 -1</clus>
<clus scale="  300.000">  1  4  2 -1</clus>
</clustering>
</event>
<event>
 6    1  0.9964252E-012  0.3000000E+03  0.7818608E-02  0.1093470E+00
          1   -1    0    0  502    0  0.00000000000E+00  0.00000000000E+00  0.25093674769E+03  0.25093674769E+03  0.00000000000E+00 0.  1.
         13   -1    0    0    0    0 -0.00000000000E+00 -0.00000000000E+00 -0.27500000000E+03  0.27500000000E+03  0.00000000000E+00 0.  1.
    9000005    2    1    2  501    0  0.17318921546E+02  0.24854204876E+02 -0.33651338157E+02  0.49416241947E+03  0.49208374055E+03 0.  0.
         13    1    3    3    0    0  0.13333461653E+03  0.62192442010E+02 -0.22408528068E+03  0.26806759003E+03  0.00000000000E+00 0.  1.
          1    1    3    3  501    0 -0.11601569498E+03 -0.37338237134E+02  0.19043394252E+03  0.22609482944E+03  0.00000000000E+00 0.  1.
         21    1    1    2  502  501 -0.17318921546E+02 -0.24854204876E+02  0.95880858418E+01  0.31774328217E+02  0.00000000000E+00 0. -1.
<scales pt_clust_4="550.00000" pt_clust_5="550.00000" pt_clust_6="30.29318"></scales>
<mgrwt>
<rscale>  0 0.30000000E+03</rscale>
<asrwt>  1 0.30293177E+02</asrwt>
<pdfrwt beam="1">  1        1 0.91249726E+00 0.30000000E+03</pdfrwt>
<pdfrwt beam="2">0</pdfrwt>
<totfact> 0.64025589E-05</totfact>
</mgrwt>
<clustering>
<clus scale="   30.293">  1  6  2 -1</clus>
<clus scale="  492.084">  4  5 -1 -1</clus>
<clus scale="  300.000">  1  4  2 -1</clus>
</clustering>
</event>
<event>
 6    1  0.9964252E-012  0.3000000E+03  0.7818608E-02  0.1093470E+00
          1   -1    0    0  502    0  0.00000000000E+00  0.00000000000E+00  0.23466224170E+03  0.23466224170E+03  0.00000000000E+00 0.  1.
         13   -1    0    0    0    0 -0.00000000000E+00 -0.00000000000E+00 -0.27500000000E+03  0.27500000000E+03  0.00000000000E+00 0.  1.
    9000005    2    1    2  501    0  0.30166061260E+01  0.39740448122E+02 -0.60021432643E+02  0.46521170554E+03  0.45959868958E+03 0.  0.
         13    1    3    3    0    0  0.17942684121E+03  0.64726036240E+01 -0.17605393227E+03  0.25145749742E+03  0.00000000000E+00 0.  1.
          1    1    3    3  501    0 -0.17641023508E+03  0.33267844498E+02  0.11603249962E+03  0.21375420812E+03  0.00000000000E+00 0.  1.
         21    1    1    2  502  501 -0.30166061260E+01 -0.39740448122E+02  0.19683674348E+02  0.44450536164E+02  0.00000000000E+00 0. -1.
<scales pt_clust_4="550.00000" pt_clust_5="550.00000" pt_clust_6="39.85478"></scales>
<mgrwt>
<rscale>  0 0.30000000E+03</rscale>
<asrwt>  1 0.39854775E+02</asrwt>
<pdfrwt beam="1">  1        1 0.85331724E+00 0.30000000E+03</pdfrwt>
<pdfrwt beam="2">0</pdfrwt>
<totfact> 0.36941110E-04</totfact>
</mgrwt>
<clustering>
<clus scale="   39.855">  1  6  2 -1</clus>
<clus scale="  459.599">  4  5 -1 -1</clus>
<clus scale="  300.000">  1  4  2 -1</clus>
</clustering>
</event>
<event>
 6    1  0.9964252E-012  0.3000000E+03  0.7818608E-02  0.1093470E+00
          1   -1    0    0  502    0  0.00000000000E+00  0.00000000000E+00  0.22734219925E+03  0.22734219925E+03  0.00000000000E+00 0.  1.
         13   -1    0    0    0    0 -0.00000000000E+00 -0.00000000000E+00 -0.27500000000E+03  0.27500000000E+03  0.00000000000E+00 0.  1.
    9000005    2    1    2  501    0 -0.12007563203E+02  0.33682004009E+02 -0.49518393928E+02  0.46653548515E+03  0.46251986833E+03 0.  0.
         13    1    3    3    0    0  0.59448763017E+02  0.21196480874E+03 -0.13289846678E+03  0.25714828026E+03  0.00000000000E+00 0.  1.
          1    1    3    3  501    0 -0.71456326221E+02 -0.17828280473E+03  0.83380072851E+02  0.20938720488E+03  0.00000000000E+00 0.  1.
         21    1    1    2  502  501  0.12007563203E+02 -0.33682004009E+02  0.18605931823E+01  0.35806714107E+02  0.00000000000E+00 0. -1.
<scales pt_clust_4="550.00000" pt_clust_5="550.00000" pt_clust_6="35.75834"></scales>
<mgrwt>
<rscale>  0 0.30000000E+03</rscale>
<asrwt>  1 0.35758341E+02</asrwt>
<pdfrwt beam="1">  1        1 0.82669891E+00 0.30000000E+03</pdfrwt>
<pdfrwt beam="2">0</pdfrwt>
<totfact> 0.62834528E-04</totfact>
</mgrwt>
<clustering>
<clus scale="   35.758">  1  6  2 -1</clus>
<clus scale="  462.520">  4  5 -1 -1</clus>
<clus scale="  300.000">  1  4  2 -1</clus>
</clustering>
</event>
<event>
 6    1  0.9964252E-012  0.3000000E+03  0.7818608E-02  0.1093470E+00
          1   -1    0    0  502    0  0.00000000000E+00  0.00000000000E+00  0.24032196524E+03  0.24032196524E+03  0.00000000000E+00 0.  1.
         13   -1    0    0    0    0 -0.00000000000E+00 -0.00000000000E+00 -0.27500000000E+03  0.27500000000E+03  0.00000000000E+00 0.  1.
    9000005    2    1    2  501    0 -0.19998336321E+02 -0.33852752054E+02 -0.66843048920E+02  0.46452304386E+03  0.45800406419E+03 0.  0.
         13    1    3    3    0    0 -0.11391454631E+02 -0.96003919417E+02  0.18297539429E+03  0.20694567571E+03  0.00000000000E+00 0.  1.
          3    1    3    3  501    0 -0.86068816899E+01  0.62151167363E+02 -0.24981844321E+03  0.25757736815E+03  0.00000000000E+00 0.  1.
         21    1    1    2  502  501  0.19998336321E+02  0.33852752054E+02  0.32165014163E+02  0.50798921380E+02  0.00000000000E+00 0.  1.
<scales pt_clust_4="550.00000" pt_clust_5="550.00000" pt_clust_6="39.31847"></scales>
<mgrwt>
<rscale>  0 0.30000000E+03</rscale>
<asrwt>  1 0.39318472E+02</asrwt>
<pdfrwt beam="1">  1        1 0.87389806E+00 0.30000000E+03</pdfrwt>
<pdfrwt beam="2">0</pdfrwt>
<totfact> 0.22606883E-04</totfact>
</mgrwt>
<clustering>
<clus scale="   39.318">  1  6  2 -1</clus>
<clus scale="  458.004">  4  5 -1 -1</clus>
<clus scale="  300.000">  1  4  2 -1</clus>
</clustering>
</event>
<event>
 6    1  0.9964252E-012  0.3000000E+03  0.7818608E-02  0.1093470E+00
          1   -1    0    0  502    0  0.00000000000E+00  0.00000000000E+00  0.23313652382E+03  0.23313652382E+03  0.00000000000E+00 0.  1.
         13   -1    0    0    0    0 -0.00000000000E+00 -0.00000000000E+00 -0.27500000000E+03  0.27500000000E+03  0.00000000000E+00 0.  1.
    9000005    2    1    2  501    0  0.16068699349E+02  0.30285964114E+02 -0.35498794108E+02  0.47326602198E+03  0.47068579802E+03 0.  0.
         13    1    3    3    0    0  0.89485444721E+01  0.38311915242E+01  0.21803708673E+03  0.21825426838E+03  0.00000000000E+00 0.  1.
          3    1    3    3  501    0  0.71201548768E+01  0.26454772590E+02 -0.25353588084E+03  0.25501175360E+03  0.00000000000E+00 0.  1.
         21    1    1    2  502  501 -0.16068699349E+02 -0.30285964114E+02 -0.63646820693E+01  0.34870501845E+02  0.00000000000E+00 0.  1.
<scales pt_clust_4="550.00000" pt_clust_5="550.00000" pt_clust_6="34.28475"></scales>
<mgrwt>
<rscale>  0 0.30000000E+03</rscale>
<asrwt>  1 0.34284747E+02</asrwt>
<pdfrwt beam="1">  1        1 0.84776918E+00 0.30000000E+03</pdfrwt>
<pdfrwt beam="2">0</pdfrwt>
<totfact> 0.42845889E-04</totfact>
</mgrwt>
<clustering>
<clus scale="   34.285">  1  6  2 -1</clus>
<clus scale="  470.686">  4  5 -1 -1</clus>
<clus scale="  300.000">  1  4  2 -1</clus>
</clustering>
</event>
<event>
 6    1  0.9964252E-012  0.3000000E+03  0.7818608E-02  0.1093470E+00
          1   -1    0    0  502    0  0.00000000000E+00  0.00000000000E+00  0.24188005963E+03  0.24188005963E+03  0.00000000000E+00 0.  1.
         13   -1    0    0    0    0 -0.00000000000E+00 -0.00000000000E+00 -0.27500000000E+03  0.27500000000E+03  0.00000000000E+00 0.  1.
    9000005    2    1    2  501    0 -0.30972036297E+02  0.25766121874E+02 -0.40323306015E+02  0.47595270270E+03  0.47252708508E+03 0.  0.
         13    1    3    3    0    0 -0.23061027080E+03 -0.84018646724E+00  0.76684634594E+02  0.24302743897E+03  0.00000000000E+00 0.  1.
          3    1    3    3  501    0  0.19963823450E+03  0.26606308341E+02 -0.11700794061E+03  0.23292526373E+03  0.00000000000E+00 0.  1.
         21    1    1    2  502  501  0.30972036297E+02 -0.25766121874E+02  0.72033656470E+01  0.40927356932E+02  0.00000000000E+00 0.  1.
<scales pt_clust_4="550.00000" pt_clust_5="550.00000" pt_clust_6="40.28846"></scales>
<mgrwt>
<rscale>  0 0.30000000E+03</rscale>
<asrwt>  1 0.40288461E+02</asrwt>
<pdfrwt beam="1">  1        1 0.87956385E+00 0.30000000E+03</pdfrwt>
<pdfrwt beam="2">0</pdfrwt>
<totfact> 0.19469281E-04</totfact>
</mgrwt>
<clustering>
<clus scale="   40.288">  1  6  2 -1</clus>
<clus scale="  472.527">  4  5 -1 -1</clus>
<clus scale="  300.000">  1  4  2 -1</clus>
</clustering>
</event>
<event>
 6    1  0.9964252E-012  0.3000000E+03  0.7818608E-02  0.1093470E+00
          1   -1    0    0  502    0  0.00000000000E+00  0.00000000000E+00  0.25451071405E+03  0.25451071405E+03  0.00000000000E+00 0.  1.
         13   -1    0    0    0    0 -0.00000000000E+00 -0.00000000000E+00 -0.27500000000E+03  0.27500000000E+03  0.00000000000E+00 0.  1.
    9000005    2    1    2  501    0  0.24596355359E+02 -0.21061623543E+02 -0.67816598234E+02  0.47216573021E+03  0.46614677207E+03 0.  0.
         13    1    3    3    0    0  0.18981884540E+03 -0.24379135927E+02 -0.18765649862E+03  0.26803077773E+03  0.00000000000E+00 0.  1.
          1    1    3    3  501    0 -0.16522249004E+03  0.33175123848E+01  0.11983990038E+03  0.20413495249E+03  0.00000000000E+00 0.  1.
         21    1    1    2  502  501 -0.24596355359E+02  0.21061623543E+02  0.47327312281E+02  0.57344983835E+02  0.00000000000E+00 0. -1.
<scales pt_clust_4="550.00000" pt_clust_5="550.00000" pt_clust_6="32.38167"></scales>
<mgrwt>
<rscale>  0 0.30000000E+03</rscale>
<asrwt>  1 0.32381672E+02</asrwt>
<pdfrwt beam="1">  1        1 0.92549351E+00 0.30000000E+03</pdfrwt>
<pdfrwt beam="2">0</pdfrwt>
<totfact> 0.32507558E-05</totfact>
</mgrwt>
<clustering>
<clus scale="   32.382">  1  6  2 -1</clus>
<clus scale="  466.147">  4  5 -1 -1</clus>
<clus scale="  300.000">  1  4  2 -1</clus>
</clustering>
</event>
<event>
 6    1  0.9964252E-012  0.3000000E+03  0.7818608E-02  0.1093470E+00
          1   -1    0    0  502    0  0.00000000000E+00  0.00000000000E+00  0.21887816238E+03  0.21887816238E+03  0.00000000000E+00 0.  1.
         13   -1    0    0    0    0 -0.00000000000E+00 -0.00000000000E+00 -0.27500000000E+03  0.27500000000E+03  0.00000000000E+00 0.  1.
    9000005    2    1    2  501    0  0.11344505947E+02  0.31051710770E+02 -0.53252439215E+02  0.46069473272E+03  0.45641089811E+03 0.  0.
         13    1    3    3    0    0 -0.60880863971E+02  0.17067368745E+03  0.12718488828E+03  0.22138650138E+03  0.00000000000E+00 0.  1.
          3    1    3    3  501    0  0.72225369918E+02 -0.13962197668E+03 -0.18043732750E+03  0.23930823134E+03  0.00000000000E+00 0.  1.
         21    1    1    2  502  501 -0.11344505947E+02 -0.31051710770E+02 -0.28693984049E+01  0.33183429662E+02  0.00000000000E+00 0. -1.
<scales pt_clust_4="550.00000" pt_clust_5="550.00000" pt_clust_6="33.05914"></scales>
<mgrwt>
<rscale>  0 0.30000000E+03</rscale>
<asrwt>  1 0.33059137E+02</asrwt>
<pdfrwt beam="1">  1        1 0.79592059E+00 0.30000000E+03</pdfrwt>
<pdfrwt beam="2">0</pdfrwt>
<totfact> 0.11224385E-03</totfact>
</mgrwt>
<clustering>
<clus scale="   33.059">  1  6  2 -1</clus>
<clus scale="  456.411">  4  5 -1 -1</clus>
<clus scale="  300.000">  1  4  2 -1</clus>
</clustering>
</event>
<event>
 6    1  0.9964252E-012  0.3000000E+03  0.7818608E-02  0.1093470E+00
          1   -1    0    0  502    0  0.00000000000E+00  0.00000000000E+00  0.23403472178E+03  0.23403472178E+03  0.00000000000E+00 0.  1.
         13   -1    0    0    0    0 -0.00000000000E+00 -0.00000000000E+00 -0.27500000000E+03  0.27500000000E+03  0.00000000000E+00 0.  1.
    9000005    2    1    2  501    0  0.23918713301E+01  0.36303352413E+02 -0.52527339694E+02  0.47085965517E+03  0.46650406109E+03 0.  0.
         13    1    3    3    0    0  0.14028529652E+03  0.18313825675E+03  0.62351394973E+02  0.23897129945E+03  0.00000000000E+00 0.  1.
          3    1    3    3  501    0 -0.13789342519E+03 -0.14683490433E+03 -0.11487873467E+03  0.23188835573E+03  0.00000000000E+00 0.  1.
         21    1    1    2  502  501 -0.23918713301E+01 -0.36303352413E+02  0.11562061475E+02  0.38175066607E+02  0.00000000000E+00 0.  1.
<scales pt_clust_4="550.00000" pt_clust_5="550.00000" pt_clust_6="36.38206"></scales>
<mgrwt>
<rscale>  0 0.30000000E+03</rscale>
<asrwt>  1 0.36382062E+02</asrwt>
<pdfrwt beam="1">  1        1 0.85103535E+00 0.30000000E+03</pdfrwt>
<pdfrwt beam="2">0</pdfrwt>
<totfact> 0.39507154E-04</totfact>
</mgrwt>
<clustering>
<clus scale="   36.382">  1  6  2 -1</clus>
<clus scale="  466.504">  4  5 -1 -1</clus>
<clus scale="  300.000">  1  4  2 -1</clus>
</clustering>
</event>
<event>
 6    1  0.9964252E-012  0.3000000E+03  0.7818608E-02  0.1093470E+00
          1   -1    0    0  502    0  0.00000000000E+00  0.00000000000E+00  0.25267925529E+03  0.25267925529E+03  0.00000000000E+00 0.  1.
         13   -1    0    0    0    0 -0.00000000000E+00 -0.00000000000E+00 -0.27500000000E+03  0.27500000000E+03  0.00000000000E+00 0.  1.
    9000005    2    1    2  501    0 -0.29900106612E+02 -0.14697275816E+02 -0.35693858706E+02  0.49177846881E+03  0.48934853075E+03 0.  0.
         13    1    3    3    0    0 -0.17010139677E+03  0.15752167757E+03  0.74977178338E+02  0.24365783664E+03  0.00000000000E+00 0.  1.
          3    1    3    3  501    0  0.14020129015E+03 -0.17221895338E+03 -0.11067103704E+03  0.24812063217E+03  0.00000000000E+00 0.  1.
         21    1    1    2  502  501  0.29900106612E+02  0.14697275816E+02  0.13373113994E+02  0.35900786478E+02  0.00000000000E+00 0. -1.
<scales pt_clust_4="550.00000" pt_clust_5="550.00000" pt_clust_6="33.31706"></scales>
<mgrwt>
<rscale>  0 0.30000000E+03</rscale>
<asrwt>  1 0.33317057E+02</asrwt>
<pdfrwt beam="1">  1        1 0.91883366E+00 0.30000000E+03</pdfrwt>
<pdfrwt beam="2">0</pdfrwt>
<totfact> 0.44742898E-05</totfact>
</mgrwt>
<clustering>
<clus scale="   33.317">  1  6  2 -1</clus>
<clus scale="  489.349">  4  5 -1 -1</clus>
<clus scale="  300.000">  1  4  2 -1</clus>
</clustering>
</event>
<event>
 6    1  0.9964252E-012  0.3000000E+03  0.7818608E-02  0.1093470E+00
          1   -1    0    0  502    0  0.00000000000E+00  0.00000000000E+00  0.24043498166E+03  0.24043498166E+03  0.00000000000E+00 0.  1.
         13   -1    0    0    0    0 -0.00000000000E+00 -0.00000000000E+00 -0.27500000000E+03  0.27500000000E+03  0.00000000000E+00 0.  1.
    9000005    2    1    2  501    0  0.25703039727E+02  0.34012113654E+02 -0.20153212430E+02  0.47043308975E+03  0.46806374548E+03 0.  0.
         13    1    3    3    0    0  0.19999749687E+03  0.15263379445E+03 -0.52860264253E+02  0.25708030166E+03  0.00000000000E+00 0.  1.
          1    1    3    3  501    0 -0.17429445714E+03 -0.11862168080E+03  0.32707051823E+02  0.21335278809E+03  0.00000000000E+00 0.  1.
         21    1    1    2  502  501 -0.25703039727E+02 -0.34012113654E+02 -0.14411805907E+02  0.45001891915E+02  0.00000000000E+00 0. -1.
<scales pt_clust_4="550.00000" pt_clust_5="550.00000" pt_clust_6="42.63182"></scales>
<mgrwt>
<rscale>  0 0.30000000E+03</rscale>
<asrwt>  1 0.42631818E+02</asrwt>
<pdfrwt beam="1">  1        1 0.87430902E+00 0.30000000E+03</pdfrwt>
<pdfrwt beam="2">0</pdfrwt>
<totfact> 0.22058389E-04</totfact>
</mgrwt>
<clustering>
<clus scale="   42.632">  1  6  2 -1</clus>
<clus scale="  468.064">  4  5 -1 -1</clus>
<clus scale="  300.000">  1  4  2 -1</clus>
</clustering>
</event>
<event>
 6    1  0.9964252E-012  0.3000000E+03  0.7818608E-02  0.1093470E+00
          1   -1    0    0  502    0  0.00000000000E+00  0.00000000000E+00  0.23036069352E+03  0.23036069352E+03  0.00000000000E+00 0.  1.
         13   -1    0    0    0    0 -0.00000000000E+00 -0.00000000000E+00 -0.27500000000E+03  0.27500000000E+03  0.00000000000E+00 0.  1.
    9000005    2    1    2  501    0 -0.83702740832E+01  0.33260415919E+02 -0.69011954111E+02  0.46328525285E+03  0.45683066769E+03 0.  0.
         13    1    3    3    0    0  0.21232206084E+03  0.28257639650E+02 -0.10677008638E+03  0.23933032207E+03  0.00000000000E+00 0.  1.
          3    1    3    3  501    0 -0.22069233493E+03  0.50027762686E+01  0.37758132265E+02  0.22395493077E+03  0.00000000000E+00 0.  1.
         21    1    1    2  502  501  0.83702740832E+01 -0.33260415919E+02  0.24372647630E+02  0.42075440673E+02  0.00000000000E+00 0.  1.
<scales pt_clust_4="550.00000" pt_clust_5="550.00000" pt_clust_6="34.29747"></scales>
<mgrwt>
<rscale>  0 0.30000000E+03</rscale>
<asrwt>  1 0.34297474E+02</asrwt>
<pdfrwt beam="1">  1        1 0.83767525E+00 0.30000000E+03</pdfrwt>
<pdfrwt beam="2">0</pdfrwt>
<totfact> 0.51926549E-04</totfact>
</mgrwt>
<clustering>
<clus scale="   34.297">  1  6  2 -1</clus>
<clus scale="  456.831">  4  5 -1 -1</clus>
<clus scale="  300.000">  1  4  2 -1</clus>
</clustering>
</event>
<event>
 6    1  0.9964252E-012  0.3000000E+03  0.7818608E-02  0.1093470E+00
          1   -1    0    0  502    0  0.00000000000E+00  0.00000000000E+00  0.23337303505E+03  0.23337303505E+03  0.00000000000E+00 0.  1.
         13   -1    0    0    0    0 -0.00000000000E+00 -0.00000000000E+00 -0.27500000000E+03  0.27500000000E+03  0.00000000000E+00 0.  1.
    9000005    2    1    2  501    0 -0.28830153378E+02  0.17160552177E+02 -0.56242840517E+02  0.47177677686E+03  0.46720916920E+03 0.  0.
         13    1    3    3    0    0  0.12958335698E+02  0.18672556247E+03  0.12105788392E+03  0.22291111547E+03  0.00000000000E+00 0.  1.
          3    1    3    3  501    0 -0.41788489076E+02 -0.16956501029E+03 -0.17730072444E+03  0.24886566139E+03  0.00000000000E+00 0.  1.
         21    1    1    2  502  501  0.28830153378E+02 -0.17160552177E+02  0.14615875570E+02  0.36596258190E+02  0.00000000000E+00 0. -1.
<scales pt_clust_4="550.00000" pt_clust_5="550.00000" pt_clust_6="33.55089"></scales>
<mgrwt>
<rscale>  0 0.30000000E+03</rscale>
<asrwt>  1 0.33550891E+02</asrwt>
<pdfrwt beam="1">  1        1 0.84862922E+00 0.30000000E+03</pdfrwt>
<pdfrwt beam="2">0</pdfrwt>
<totfact> 0.42246023E-04</totfact>
</mgrwt>
<clustering>
<clus scale="   33.551">  1  6  2 -1</clus>
<clus scale="  467.209">  4  5 -1 -1</clus>
<clus scale="  300.000">  1  4  2 -1</clus>
</clustering>
</event>
<event>
 6    1  0.9964252E-012  0.3000000E+03  0.7818608E-02  0.1093470E+00
          1   -1    0    0  502    0  0.00000000000E+00  0.00000000000E+00  0.23559473803E+03  0.23559473803E+03  0.00000000000E+00 0.  1.
         13   -1    0    0    0    0 -0.00000000000E+00 -0.00000000000E+00 -0.27500000000E+03  0.27500000000E+03  0.00000000000E+00 0.  1.
    9000005    2    1    2  501    0 -0.24610495882E+01 -0.32463093519E+02 -0.46172969962E+02  0.47734250386E+03  0.47398735598E+03 0.  0.
         13    1    3    3    0    0  0.21181269593E+03  0.27176038111E+02  0.72151488730E+02  0.22540850146E+03  0.00000000000E+00 0.  1.
          3    1    3    3  501    0 -0.21427374552E+03 -0.59639131631E+02 -0.11832445869E+03  0.25193400240E+03  0.00000000000E+00 0.  1.
         21    1    1    2  502  501  0.24610495882E+01  0.32463093519E+02  0.67677079940E+01  0.33252234172E+02  0.00000000000E+00 0.  1.
<scales pt_clust_4="550.00000" pt_clust_5="550.00000" pt_clust_6="32.55625"></scales>
<mgrwt>
<rscale>  0 0.30000000E+03</rscale>
<asrwt>  1 0.32556247E+02</asrwt>
<pdfrwt beam="1">  1        1 0.85670814E+00 0.30000000E+03</pdfrwt>
<pdfrwt beam="2">0</pdfrwt>
<totfact> 0.35498366E-04</totfact>
</mgrwt>
<clustering>
<clus scale="   32.556">  1  6  2 -1</clus>
<clus scale="  473.987">  4  5 -1 -1</clus>
<clus scale="  300.000">  1  4  2 -1</clus>
</clustering>
</event>
<event>
 6    1  0.9964252E-012  0.3000000E+03  0.7818608E-02  0.1093470E+00
          1   -1    0    0  502    0  0.00000000000E+00  0.00000000000E+00  0.27052113636E+03  0.27052113636E+03  0.00000000000E+00 0.  1.
         13   -1    0    0    0    0 -0.00000000000E+00 -0.00000000000E+00 -0.27500000000E+03  0.27500000000E+03  0.00000000000E+00 0.  1.
    9000005    2    1    2  501    0  0.46176059266E+02 -0.11116898558E+02 -0.32638252934E+01  0.49801018814E+03  0.49572944339E+03 0.  0.
         13    1    3    3    0    0  0.11008897657E+03 -0.16675226378E+03 -0.16910488167E+03  0.26176776204E+03  0.00000000000E+00 0.  1.
          3    1    3    3  501    0 -0.63912917304E+02  0.15563536522E+03  0.16584105638E+03  0.23624242609E+03  0.00000000000E+00 0.  1.
         21    1    1    2  502  501 -0.46176059266E+02  0.11116898558E+02 -0.12150383481E+01  0.47510948223E+02  0.00000000000E+00 0. -1.
<scales pt_clust_4="550.00000" pt_clust_5="550.00000" pt_clust_6="47.49543"></scales>
<mgrwt>
<rscale>  0 0.30000000E+03</rscale>
<asrwt>  1 0.47495433E+02</asrwt>
<pdfrwt beam="1">  1        1 0.98371322E+00 0.30000000E+03</pdfrwt>
<pdfrwt beam="2">0</pdfrwt>
<totfact> 0.17985648E-06</totfact>
</mgrwt>
<clustering>
<clus scale="   47.495">  1  6  2 -1</clus>
<clus scale="  495.729">  4  5 -1 -1</clus>
<clus scale="  300.000">  1  4  2 -1</clus>
</clustering>
</event>
<event>
 6    1  0.9964252E-012  0.3000000E+03  0.7818608E-02  0.1093470E+00
          1   -1    0    0  502    0  0.00000000000E+00  0.00000000000E+00  0.25171186892E+03  0.25171186892E+03  0.00000000000E+00 0.  1.
         13   -1    0    0    0    0 -0.00000000000E+00 -0.00000000000E+00 -0.27500000000E+03  0.27500000000E+03  0.00000000000E+00 0.  1.
    9000005    2    1    2  501    0  0.45384799911E+02  0.75473294083E+01 -0.50502137520E+02  0.47325773540E+03  0.46830083918E+03 0.  0.
         13    1    3    3    0    0 -0.47961730673E+02  0.18819843045E+03 -0.15140418013E+03  0.24625637575E+03  0.00000000000E+00 0.  1.
          1    1    3    3  501    0  0.93346530584E+02 -0.18065110104E+03  0.10090204261E+03  0.22700135965E+03  0.00000000000E+00 0.  1.
         21    1    1    2  502  501 -0.45384799911E+02 -0.75473294083E+01  0.27214006441E+02  0.53454133524E+02  0.00000000000E+00 0. -1.
<scales pt_clust_4="550.00000" pt_clust_5="550.00000" pt_clust_6="46.00807"></scales>
<mgrwt>
<rscale>  0 0.30000000E+03</rscale>
<asrwt>  1 0.46008067E+02</asrwt>
<pdfrwt beam="1">  1        1 0.91531589E+00 0.30000000E+03</pdfrwt>
<pdfrwt beam="2">0</pdfrwt>
<totfact> 0.50649948E-05</totfact>
</mgrwt>
<clustering>
<clus scale="   46.008">  1  6  2 -1</clus>
<clus scale="  468.301">  4  5 -1 -1</clus>
<clus scale="  300.000">  1  4  2 -1</clus>
</clustering>
</event>
<event>
 6    1  0.9964252E-012  0.3000000E+03  0.7818608E-02  0.1093470E+00
          1   -1    0    0  502    0  0.00000000000E+00  0.00000000000E+00  0.24374412096E+03  0.24374412096E+03  0.00000000000E+00 0.  1.
         13   -1    0    0    0    0 -0.00000000000E+00 -0.00000000000E+00 -0.27500000000E+03  0.27500000000E+03  0.00000000000E+00 0.  1.
    9000005    2    1    2  501    0  0.11345402791E+02 -0.40415774083E+02 -0.16973952602E+02  0.47440309727E+03  0.47223726100E+03 0.  0.
         13    1    3    3    0    0  0.43731734810E+02  0.19982240906E+03 -0.86693668019E+02  0.22216492042E+03  0.00000000000E+00 0.  1.
          3    1    3    3  501    0 -0.32386332019E+02 -0.24023818314E+03  0.69719715418E+02  0.25223817685E+03  0.00000000000E+00 0.  1.
         21    1    1    2  502  501 -0.11345402791E+02  0.40415774083E+02 -0.14281926436E+02  0.44341023690E+02  0.00000000000E+00 0.  1.
<scales pt_clust_4="550.00000" pt_clust_5="550.00000" pt_clust_6="41.97803"></scales>
<mgrwt>
<rscale>  0 0.30000000E+03</rscale>
<asrwt>  1 0.41978027E+02</asrwt>
<pdfrwt beam="1">  1        1 0.88634226E+00 0.30000000E+03</pdfrwt>
<pdfrwt beam="2">0</pdfrwt>
<totfact> 0.15729071E-04</totfact>
</mgrwt>
<clustering>
<clus scale="   41.978">  1  6  2 -1</clus>
<clus scale="  472.237">  4  5 -1 -1</clus>
<clus scale="  300.000">  1  4  2 -1</clus>
</clustering>
</event>
<event>
 6    1  0.9964252E-012  0.3000000E+03  0.7818608E-02  0.1093470E+00
          1   -1    0    0  502    0  0.00000000000E+00  0.00000000000E+00  0.24159400279E+03  0.24159400279E+03  0.00000000000E+00 0.  1.
         13   -1    0    0    0    0 -0.00000000000E+00 -0.00000000000E+00 -0.27500000000E+03  0.27500000000E+03  0.00000000000E+00 0.  1.
    9000005    2    1    2  501    0 -0.20175864216E+02 -0.25246759979E+02 -0.69049492859E+02  0.46848035433E+03  0.46223537894E+03 0.  0.
         13    1    3    3    0    0  0.38245182931E+02  0.19227887200E+03  0.64798761889E+02  0.20647696767E+03  0.00000000000E+00 0.  1.
          3    1    3    3  501    0 -0.58421047147E+02 -0.21752563198E+03 -0.13384825475E+03  0.26200338665E+03  0.00000000000E+00 0.  1.
         21    1    1    2  502  501  0.20175864216E+02  0.25246759979E+02  0.35643495649E+02  0.48113648462E+02  0.00000000000E+00 0.  1.
<scales pt_clust_4="550.00000" pt_clust_5="550.00000" pt_clust_6="32.31817"></scales>
<mgrwt>
<rscale>  0 0.30000000E+03</rscale>
<asrwt>  1 0.32318174E+02</asrwt>
<pdfrwt beam="1">  1        1 0.87852365E+00 0.30000000E+03</pdfrwt>
<pdfrwt beam="2">0</pdfrwt>
<totfact> 0.20871979E-04</totfact>
</mgrwt>
<clustering>
<clus scale="   32.318">  1  6  2 -1</clus>
<clus scale="  462.235">  4  5 -1 -1</clus>
<clus scale="  300.000">  1  4  2 -1</clus>
</clustering>
</event>
<event>
 6    1  0.9964252E-012  0.3000000E+03  0.7818608E-02  0.1093470E+00
          1   -1    0    0  502    0  0.00000000000E+00  0.00000000000E+00  0.23357220666E+03  0.23357220666E+03  0.00000000000E+00 0.  1.
         13   -1    0    0    0    0 -0.00000000000E+00 -0.00000000000E+00 -0.27500000000E+03  0.27500000000E+03  0.00000000000E+00 0.  1.
    9000005    2    1    2  501    0  0.19792299824E+02  0.29087986554E+02 -0.16668910129E+02  0.46555071910E+03  0.46392000754E+03 0.  0.
         13    1    3    3    0    0 -0.52535058303E+02  0.23364598877E+03  0.36288128882E+02  0.24221314728E+03  0.00000000000E+00 0.  1.
          1    1    3    3  501    0  0.72327358127E+02 -0.20455800222E+03 -0.52957039011E+02  0.22333757182E+03  0.00000000000E+00 0.  1.
         21    1    1    2  502  501 -0.19792299824E+02 -0.29087986554E+02 -0.24758883208E+02  0.43021487559E+02  0.00000000000E+00 0.  1.
<scales pt_clust_4="550.00000" pt_clust_5="550.00000" pt_clust_6="35.18305"></scales>
<mgrwt>
<rscale>  0 0.30000000E+03</rscale>
<asrwt>  1 0.35183055E+02</asrwt>
<pdfrwt beam="1">  1        1 0.84935348E+00 0.30000000E+03</pdfrwt>
<pdfrwt beam="2">0</pdfrwt>
<totfact> 0.41228792E-04</totfact>
</mgrwt>
<clustering>
<clus scale="   35.183">  1  6  2 -1</clus>
<clus scale="  463.920">  4  5 -1 -1</clus>
<clus scale="  300.000">  1  4  2 -1</clus>
</clustering>
</event>
<event>
 6    1  0.9964252E-012  0.3000000E+03  0.7818608E-02  0.1093470E+00
          1   -1    0    0  502    0  0.00000000000E+00  0.00000000000E+00  0.22494829021E+03  0.22494829021E+03  0.00000000000E+00 0.  1.
         13   -1    0    0    0    0 -0.00000000000E+00 -0.00000000000E+00 -0.27500000000E+03  0.27500000000E+03  0.00000000000E+00 0.  1.
    9000005    2    1    2  501    0 -0.82026623616E+01 -0.30032198020E+02 -0.68458260942E+02  0.46378176269E+03  0.45764371876E+03 0.  0.
         13    1    3    3    0    0  0.16300368679E+03 -0.88367749759E+02 -0.17408026402E+03  0.25432852657E+03  0.00000000000E+00 0.  1.
          1    1    3    3  501    0 -0.17120634915E+03  0.58335551739E+02  0.10562200308E+03  0.20945323612E+03  0.00000000000E+00 0.  1.
         21    1    1    2  502  501  0.82026623616E+01  0.30032198020E+02  0.18406551153E+02  0.36166527523E+02  0.00000000000E+00 0. -1.
<scales pt_clust_4="550.00000" pt_clust_5="550.00000" pt_clust_6="31.13224"></scales>
<mgrwt>
<rscale>  0 0.30000000E+03</rscale>
<asrwt>  1 0.31132244E+02</asrwt>
<pdfrwt beam="1">  1        1 0.81799378E+00 0.30000000E+03</pdfrwt>
<pdfrwt beam="2">0</pdfrwt>
<totfact> 0.76915199E-04</totfact>
</mgrwt>
<clustering>
<clus scale="   31.132">  1  6  2 -1</clus>
<clus scale="  457.644">  4  5 -1 -1</clus>
<clus scale="  300.000">  1  4  2 -1</clus>
</clustering>
</event>
<event>
 6    1  0.9964252E-012  0.3000000E+03  0.7818608E-02  0.1093470E+00
          1   -1    0    0  502    0  0.00000000000E+00  0.00000000000E+00  0.25708195103E+03  0.25708195103E+03  0.00000000000E+00 0.  1.
         13   -1    0    0    0    0 -0.00000000000E+00 -0.00000000000E+00 -0.27500000000E+03  0.27500000000E+03  0.00000000000E+00 0.  1.
    9000005    2    1    2  501    0 -0.44686434983E+02 -0.23565995876E+02 -0.32921620094E+02  0.47938146925E+03  0.47557389158E+03 0.  0.
         13    1    3    3    0    0 -0.23766508391E+03  0.80218505415E+02  0.26817632247E+02  0.25226748923E+03  0.00000000000E+00 0.  1.
          3    1    3    3  501    0  0.19297864893E+03 -0.10378450129E+03 -0.59739252342E+02  0.22711398002E+03  0.00000000000E+00 0.  1.
         21    1    1    2  502  501  0.44686434983E+02  0.23565995876E+02  0.15003571120E+02  0.52700481777E+02  0.00000000000E+00 0. -1.
<scales pt_clust_4="550.00000" pt_clust_5="550.00000" pt_clust_6="50.51964"></scales>
<mgrwt>
<rscale>  0 0.30000000E+03</rscale>
<asrwt>  1 0.50519636E+02</asrwt>
<pdfrwt beam="1">  1        1 0.93484346E+00 0.30000000E+03</pdfrwt>
<pdfrwt beam="2">0</pdfrwt>
<totfact> 0.21170866E-05</totfact>
</mgrwt>
<clustering>
<clus scale="   50.520">  1  6  2 -1</clus>
<clus scale="  475.574">  4  5 -1 -1</clus>
<clus scale="  300.000">  1  4  2 -1</clus>
</clustering>
</event>
<event>
 6    1  0.9964252E-012  0.3000000E+03  0.7818608E-02  0.1093470E+00
          1   -1    0    0  502    0  0.00000000000E+00  0.00000000000E+00  0.22900918309E+03  0.22900918309E+03  0.00000000000E+00 0.  1.
         13   -1    0    0    0    0 -0.00000000000E+00 -0.00000000000E+00 -0.27500000000E+03  0.27500000000E+03  0.00000000000E+00 0.  1.
    9000005    2    1    2  501    0 -0.31126173114E+02  0.90530888536E+01 -0.52988085618E+02  0.47084657101E+03  0.46673114225E+03 0.  0.
         13    1    3    3    0    0  0.68405320276E+02  0.19249757638E+03 -0.13688266403E+03  0.24590947210E+03  0.00000000000E+00 0.  1.
          3    1    3    3  501    0 -0.99531493389E+02 -0.18344448753E+03  0.83894578415E+02  0.22493709891E+03  0.00000000000E+00 0.  1.
         21    1    1    2  502  501  0.31126173114E+02 -0.90530888536E+01  0.69972687054E+01  0.33162612078E+02  0.00000000000E+00 0. -1.
<scales pt_clust_4="550.00000" pt_clust_5="550.00000" pt_clust_6="32.41600"></scales>
<mgrwt>
<rscale>  0 0.30000000E+03</rscale>
<asrwt>  1 0.32416000E+02</asrwt>
<pdfrwt beam="1">  1        1 0.83276067E+00 0.30000000E+03</pdfrwt>
<pdfrwt beam="2">0</pdfrwt>
<totfact> 0.57027336E-04</totfact>
</mgrwt>
<clustering>
<clus scale="   32.416">  1  6  2 -1</clus>
<clus scale="  466.731">  4  5 -1 -1</clus>
<clus scale="  300.000">  1  4  2 -1</clus>
</clustering>
</event>
<event>
 6    1  0.9964252E-012  0.3000000E+03  0.7818608E-02  0.1093470E+00
          1   -1    0    0  502    0  0.00000000000E+00  0.00000000000E+00  0.23759458843E+03  0.23759458843E+03  0.00000000000E+00 0.  1.
         13   -1    0    0    0    0 -0.00000000000E+00 -0.00000000000E+00 -0.27500000000E+03  0.27500000000E+03  0.00000000000E+00 0.  1.
    9000005    2    1    2  501    0 -0.15400101676E+02  0.32686871580E+02 -0.59547692709E+02  0.47021681927E+03  0.46502939123E+03 0.  0.
         13    1    3    3    0    0 -0.11776822412E+03  0.14459273038E+03 -0.19287119677E+03  0.26828289329E+03  0.00000000000E+00 0.  1.
          1    1    3    3  501    0  0.10236812244E+03 -0.11190585880E+03  0.13332350406E+03  0.20193392598E+03  0.00000000000E+00 0.  1.
         21    1    1    2  502  501  0.15400101676E+02 -0.32686871580E+02  0.22142281139E+02  0.42377769165E+02  0.00000000000E+00 0. -1.
<scales pt_clust_4="550.00000" pt_clust_5="550.00000" pt_clust_6="36.13301"></scales>
<mgrwt>
<rscale>  0 0.30000000E+03</rscale>
<asrwt>  1 0.36133014E+02</asrwt>
<pdfrwt beam="1">  1        1 0.86398032E+00 0.30000000E+03</pdfrwt>
<pdfrwt beam="2">0</pdfrwt>
<totfact> 0.29129529E-04</totfact>
</mgrwt>
<clustering>
<clus scale="   36.133">  1  6  2 -1</clus>
<clus scale="  465.029">  4  5 -1 -1</clus>
<clus scale="  300.000">  1  4  2 -1</clus>
</clustering>
</event>
<event>
 6    1  0.9964252E-012  0.3000000E+03  0.7818608E-02  0.1093470E+00
          1   -1    0    0  502    0  0.00000000000E+00  0.00000000000E+00  0.23156805619E+03  0.23156805619E+03  0.00000000000E+00 0.  1.
         13   -1    0    0    0    0 -0.00000000000E+00 -0.00000000000E+00 -0.27500000000E+03  0.27500000000E+03  0.00000000000E+00 0.  1.
    9000005    2    1    2  501    0 -0.42287010015E+02 -0.10510415825E+01 -0.49313214659E+02  0.46386108660E+03  0.45928860058E+03 0.  0.
         13    1    3    3    0    0 -0.98120671400E+02  0.19532528173E+03 -0.11806902190E+03  0.24843495279E+03  0.00000000000E+00 0.  1.
          3    1    3    3  501    0  0.55833661384E+02 -0.19637632331E+03  0.68755807238E+02  0.21542613381E+03  0.00000000000E+00 0.  1.
         21    1    1    2  502  501  0.42287010015E+02  0.10510415825E+01  0.58812708497E+01  0.42706969586E+02  0.00000000000E+00 0. -1.
<scales pt_clust_4="550.00000" pt_clust_5="550.00000" pt_clust_6="42.30007"></scales>
<mgrwt>
<rscale>  0 0.30000000E+03</rscale>
<asrwt>  1 0.42300070E+02</asrwt>
<pdfrwt beam="1">  1        1 0.84206566E+00 0.30000000E+03</pdfrwt>
<pdfrwt beam="2">0</pdfrwt>
<totfact> 0.46219056E-04</totfact>
</mgrwt>
<clustering>
<clus scale="   42.300">  1  6  2 -1</clus>
<clus scale="  459.289">  4  5 -1 -1</clus>
<clus scale="  300.000">  1  4  2 -1</clus>
</clustering>
</event>
<event>
 6    1  0.9964252E-012  0.3000000E+03  0.7818608E-02  0.1093470E+00
          1   -1    0    0  502    0  0.00000000000E+00  0.00000000000E+00  0.24445787789E+03  0.24445787789E+03  0.00000000000E+00 0.  1.
         13   -1    0    0    0    0 -0.00000000000E+00 -0.00000000000E+00 -0.27500000000E+03  0.27500000000E+03  0.00000000000E+00 0.  1.
    9000005    2    1    2  501    0  0.21764616859E+02  0.23535805380E+02 -0.70614647003E+02  0.46814082484E+03  0.46167279629E+03 0.  0.
         13    1    3    3    0    0  0.99749206736E+02  0.17612751777E+03 -0.17492559432E+03  0.26752527041E+03  0.00000000000E+00 0.  1.
          1    1    3    3  501    0 -0.77984589877E+02 -0.15259171239E+03  0.10431094732E+03  0.20061555443E+03  0.00000000000E+00 0.  1.
         21    1    1    2  502  501 -0.21764616859E+02 -0.23535805380E+02  0.40072524889E+02  0.51317053042E+02  0.00000000000E+00 0.  1.
<scales pt_clust_4="550.00000" pt_clust_5="550.00000" pt_clust_6="32.05671"></scales>
<mgrwt>
<rscale>  0 0.30000000E+03</rscale>
<asrwt>  1 0.32056710E+02</asrwt>
<pdfrwt beam="1">  1        1 0.88893774E+00 0.30000000E+03</pdfrwt>
<pdfrwt beam="2">0</pdfrwt>
<totfact> 0.15230830E-04</totfact>
</mgrwt>
<clustering>
<clus scale="   32.057">  1  6  2 -1</clus>
<clus scale="  461.673">  4  5 -1 -1</clus>
<clus scale="  300.000">  1  4  2 -1</clus>
</clustering>
</event>
<event>
 6    1  0.9964252E-012  0.3000000E+03  0.7818608E-02  0.1093470E+00
          1   -1    0    0  502    0  0.00000000000E+00  0.00000000000E+00  0.24489720067E+03  0.24489720067E+03  0.00000000000E+00 0.  1.
         13   -1    0    0    0    0 -0.00000000000E+00 -0.00000000000E+00 -0.27500000000E+03  0.27500000000E+03  0.00000000000E+00 0.  1.
    9000005    2    1    2  501    0  0.16086018556E+01 -0.31332615204E+02 -0.42194122234E+02  0.48627398748E+03  0.48342292723E+03 0.  0.
         13    1    3    3    0    0 -0.23000455109E+03 -0.68756578489E+02  0.27229825908E+02  0.24160096032E+03  0.00000000000E+00 0.  1.
          3    1    3    3  501    0  0.23161315295E+03  0.37423963285E+02 -0.69423948141E+02  0.24467302716E+03  0.00000000000E+00 0.  1.
         21    1    1    2  502  501 -0.16086018556E+01  0.31332615204E+02  0.12091322901E+02  0.33623213186E+02  0.00000000000E+00 0. -1.
<scales pt_clust_4="550.00000" pt_clust_5="550.00000" pt_clust_6="31.37388"></scales>
<mgrwt>
<rscale>  0 0.30000000E+03</rscale>
<asrwt>  1 0.31373880E+02</asrwt>
<pdfrwt beam="1">  1        1 0.89053528E+00 0.30000000E+03</pdfrwt>
<pdfrwt beam="2">0</pdfrwt>
<totfact> 0.14559347E-04</totfact>
</mgrwt>
<clustering>
<clus scale="   31.374">  1  6  2 -1</clus>
<clus scale="  483.423">  4  5 -1 -1</clus>
<clus scale="  300.000">  1  4  2 -1</clus>
</clustering>
</event>
<event>
 6    1  0.9964252E-012  0.3000000E+03  0.7818608E-02  0.1093470E+00
          1   -1    0    0  502    0  0.00000000000E+00  0.00000000000E+00  0.23775253128E+03  0.23775253128E+03  0.00000000000E+00 0.  1.
         13   -1    0    0    0    0 -0.00000000000E+00 -0.00000000000E+00 -0.27500000000E+03  0.27500000000E+03  0.00000000000E+00 0.  1.
    9000005    2    1    2  501    0 -0.31264559312E+02  0.99297084983E+01 -0.45774259793E+02  0.47885890436E+03  0.47553600877E+03 0.  0.
         13    1    3    3    0    0  0.61482004101E+01 -0.21711045219E+03 -0.10501580106E+03  0.24125311872E+03  0.00000000000E+00 0.  1.
          1    1    3    3  501    0 -0.37412759722E+02  0.22704016069E+03  0.59241541270E+02  0.23760578564E+03  0.00000000000E+00 0.  1.
         21    1    1    2  502  501  0.31264559312E+02 -0.99297084983E+01  0.85267910681E+01  0.33893626920E+02  0.00000000000E+00 0.  1.
<scales pt_clust_4="550.00000" pt_clust_5="550.00000" pt_clust_6="32.80353"></scales>
<mgrwt>
<rscale>  0 0.30000000E+03</rscale>
<asrwt>  1 0.32803533E+02</asrwt>
<pdfrwt beam="1">  1        1 0.86455466E+00 0.30000000E+03</pdfrwt>
<pdfrwt beam="2">0</pdfrwt>
<totfact> 0.29241977E-04</totfact>
</mgrwt>
<clustering>
<clus scale="   32.804">  1  6  2 -1</clus>
<clus scale="  475.536">  4  5 -1 -1</clus>
<clus scale="  300.000">  1  4  2 -1</clus>
</clustering>
</event>
<event>
 6    1  0.9964252E-012  0.3000000E+03  0.7818608E-02  0.1093470E+00
          1   -1    0    0  502    0  0.00000000000E+00  0.00000000000E+00  0.23854117223E+03  0.23854117223E+03  0.00000000000E+00 0.  1.
         13   -1    0    0    0    0 -0.00000000000E+00 -0.00000000000E+00 -0.27500000000E+03  0.27500000000E+03  0.00000000000E+00 0.  1.
    9000005    2    1    2  501    0 -0.30576418593E+02 -0.38397198797E+02 -0.15258102301E+02  0.46007405140E+03  0.45719367978E+03 0.  0.
         13    1    3    3    0    0  0.11180814320E+03  0.65626428998E+02 -0.17793853748E+03  0.22015906111E+03  0.00000000000E+00 0.  1.
          3    1    3    3  501    0 -0.14238456179E+03 -0.10402362779E+03  0.16268043518E+03  0.23991499029E+03  0.00000000000E+00 0.  1.
         21    1    1    2  502  501  0.30576418593E+02  0.38397198797E+02 -0.21200725472E+02  0.53467120831E+02  0.00000000000E+00 0. -1.
<scales pt_clust_4="550.00000" pt_clust_5="550.00000" pt_clust_6="49.08426"></scales>
<mgrwt>
<rscale>  0 0.30000000E+03</rscale>
<asrwt>  1 0.49084261E+02</asrwt>
<pdfrwt beam="1">  1        1 0.86742244E+00 0.30000000E+03</pdfrwt>
<pdfrwt beam="2">0</pdfrwt>
<totfact> 0.25323645E-04</totfact>
</mgrwt>
<clustering>
<clus scale="   49.084">  1  6  2 -1</clus>
<clus scale="  457.194">  4  5 -1 -1</clus>
<clus scale="  300.000">  1  4  2 -1</clus>
</clustering>
</event>
<event>
 6    1  0.9964252E-012  0.3000000E+03  0.7818608E-02  0.1093470E+00
          1   -1    0    0  502    0  0.00000000000E+00  0.00000000000E+00  0.22775188961E+03  0.22775188961E+03  0.00000000000E+00 0.  1.
         13   -1    0    0    0    0 -0.00000000000E+00 -0.00000000000E+00 -0.27500000000E+03  0.27500000000E+03  0.00000000000E+00 0.  1.
    9000005    2    1    2  501    0 -0.34803369630E+02  0.15962716662E+02 -0.26759119308E+02  0.45932515112E+03  0.45694360825E+03 0.  0.
         13    1    3    3    0    0  0.11915352188E+03 -0.73103111187E+02  0.15244669853E+03  0.20683718847E+03  0.00000000000E+00 0.  1.
          3    1    3    3  501    0 -0.15395689151E+03  0.89065827848E+02 -0.17920581784E+03  0.25248796265E+03  0.00000000000E+00 0.  1.
         21    1    1    2  502  501  0.34803369630E+02 -0.15962716662E+02 -0.20488991081E+02  0.43426738495E+02  0.00000000000E+00 0.  1.
<scales pt_clust_4="550.00000" pt_clust_5="550.00000" pt_clust_6="38.28948"></scales>
<mgrwt>
<rscale>  0 0.30000000E+03</rscale>
<asrwt>  1 0.38289481E+02</asrwt>
<pdfrwt beam="1">  1        1 0.82818869E+00 0.30000000E+03</pdfrwt>
<pdfrwt beam="2">0</pdfrwt>
<totfact> 0.60212232E-04</totfact>
</mgrwt>
<clustering>
<clus scale="   38.289">  1  6  2 -1</clus>
<clus scale="  456.944">  4  5 -1 -1</clus>
<clus scale="  300.000">  1  4  2 -1</clus>
</clustering>
</event>
<event>
 6    1  0.9964252E-012  0.3000000E+03  0.7818608E-02  0.1093470E+00
          1   -1    0    0  502    0  0.00000000000E+00  0.00000000000E+00  0.23425870341E+03  0.23425870341E+03  0.00000000000E+00 0.  1.
         13   -1    0    0    0    0 -0.00000000000E+00 -0.00000000000E+00 -0.27500000000E+03  0.27500000000E+03  0.00000000000E+00 0.  1.
    9000005    2    1    2  501    0  0.55208016964E+01  0.37859013465E+02 -0.61668131910E+02  0.46565002780E+03  0.45996000451E+03 0.  0.
         13    1    3    3    0    0  0.94945001539E+01  0.23891519351E+03 -0.10300969882E+03  0.26034902203E+03  0.00000000000E+00 0.  1.
          1    1    3    3  501    0 -0.39736984576E+01 -0.20105618005E+03  0.41341566908E+02  0.20530100577E+03  0.00000000000E+00 0.  1.
         21    1    1    2  502  501 -0.55208016964E+01 -0.37859013465E+02  0.20926835322E+02  0.43608675611E+02  0.00000000000E+00 0.  1.
<scales pt_clust_4="550.00000" pt_clust_5="550.00000" pt_clust_6="38.25943"></scales>
<mgrwt>
<rscale>  0 0.30000000E+03</rscale>
<asrwt>  1 0.38259432E+02</asrwt>
<pdfrwt beam="1">  1        1 0.85184983E+00 0.30000000E+03</pdfrwt>
<pdfrwt beam="2">0</pdfrwt>
<totfact> 0.38448351E-04</totfact>
</mgrwt>
<clustering>
<clus scale="   38.259">  1  6  2 -1</clus>
<clus scale="  459.960">  4  5 -1 -1</clus>
<clus scale="  300.000">  1  4  2 -1</clus>
</clustering>
</event>
<event>
 6    1  0.9964252E-012  0.3000000E+03  0.7818608E-02  0.1093470E+00
          1   -1    0    0  502    0  0.00000000000E+00  0.00000000000E+00  0.23600624414E+03  0.23600624414E+03  0.00000000000E+00 0.  1.
         13   -1    0    0    0    0 -0.00000000000E+00 -0.00000000000E+00 -0.27500000000E+03  0.27500000000E+03  0.00000000000E+00 0.  1.
    9000005    2    1    2  501    0  0.34611511527E+02 -0.12426499236E+02 -0.46166252453E+02  0.47353866721E+03  0.46984590225E+03 0.  0.
         13    1    3    3    0    0  0.20837326383E+03  0.10876492282E+03 -0.99238056611E+02  0.25514195538E+03  0.00000000000E+00 0.  1.
          3    1    3    3  501    0 -0.17376175230E+03 -0.12119142205E+03  0.53071804158E+02  0.21839671183E+03  0.00000000000E+00 0.  1.
         21    1    1    2  502  501 -0.34611511527E+02  0.12426499236E+02  0.71724965917E+01  0.37467576927E+02  0.00000000000E+00 0. -1.
<scales pt_clust_4="550.00000" pt_clust_5="550.00000" pt_clust_6="36.77465"></scales>
<mgrwt>
<rscale>  0 0.30000000E+03</rscale>
<asrwt>  1 0.36774646E+02</asrwt>
<pdfrwt beam="1">  1        1 0.85820452E+00 0.30000000E+03</pdfrwt>
<pdfrwt beam="2">0</pdfrwt>
<totfact> 0.33481477E-04</totfact>
</mgrwt>
<clustering>
<clus scale="   36.775">  1  6  2 -1</clus>
<clus scale="  469.846">  4  5 -1 -1</clus>
<clus scale="  300.000">  1  4  2 -1</clus>
</clustering>
</event>
<event>
 6    1  0.9964252E-012  0.3000000E+03  0.7818608E-02  0.1093470E+00
          1   -1    0    0  502    0  0.00000000000E+00  0.00000000000E+00  0.22637136869E+03  0.22637136869E+03  0.00000000000E+00 0.  1.
         13   -1    0    0    0    0 -0.00000000000E+00 -0.00000000000E+00 -0.27500000000E+03  0.27500000000E+03  0.00000000000E+00 0.  1.
    9000005    2    1    2  501    0 -0.29003122049E+02  0.81752680524E+01 -0.51129880223E+02  0.47113443197E+03  0.46738139911E+03 0.  0.
         13    1    3    3    0    0  0.20403480492E+03 -0.76951852843E+02 -0.46633385152E+02  0.22299430908E+03  0.00000000000E+00 0.  1.
          1    1    3    3  501    0 -0.23303792697E+03  0.85127120895E+02 -0.44964950702E+01  0.24814012288E+03  0.00000000000E+00 0.  1.
         21    1    1    2  502  501  0.29003122049E+02 -0.81752680524E+01  0.25012489131E+01  0.30236936723E+02  0.00000000000E+00 0.  1.
<scales pt_clust_4="550.00000" pt_clust_5="550.00000" pt_clust_6="30.13331"></scales>
<mgrwt>
<rscale>  0 0.30000000E+03</rscale>
<asrwt>  1 0.30133305E+02</asrwt>
<pdfrwt beam="1">  1        1 0.82316861E+00 0.30000000E+03</pdfrwt>
<pdfrwt beam="2">0</pdfrwt>
<totfact> 0.69778399E-04</totfact>
</mgrwt>
<clustering>
<clus scale="   30.133">  1  6  2 -1</clus>
<clus scale="  467.381">  4  5 -1 -1</clus>
<clus scale="  300.000">  1  4  2 -1</clus>
</clustering>
</event>
<event>
 6    1  0.9964252E-012  0.3000000E+03  0.7818608E-02  0.1093470E+00
          1   -1    0    0  502    0  0.00000000000E+00  0.00000000000E+00  0.23567092579E+03  0.23567092579E+03  0.00000000000E+00 0.  1.
         13   -1    0    0    0    0 -0.00000000000E+00 -0.00000000000E+00 -0.27500000000E+03  0.27500000000E+03  0.00000000000E+00 0.  1.
    9000005    2    1    2  501    0 -0.40763017907E+02 -0.87781394271E-01 -0.10243902710E+02  0.46059519778E+03  0.45867348664E+03 0.  0.
         13    1    3    3    0    0  0.77823259229E+02  0.81821159187E+02  0.18571045644E+03  0.21734657899E+03  0.00000000000E+00 0.  1.
          3    1    3    3  501    0 -0.11858627714E+03 -0.81908940581E+02 -0.19595435915E+03  0.24324861879E+03  0.00000000000E+00 0.  1.
         21    1    1    2  502  501  0.40763017907E+02  0.87781394271E-01 -0.29085171499E+02  0.50075728009E+02  0.00000000000E+00 0.  1.
<scales pt_clust_4="550.00000" pt_clust_5="550.00000" pt_clust_6="40.76313"></scales>
<mgrwt>
<rscale>  0 0.30000000E+03</rscale>
<asrwt>  1 0.40763133E+02</asrwt>
<pdfrwt beam="1">  1        1 0.85698518E+00 0.30000000E+03</pdfrwt>
<pdfrwt beam="2">0</pdfrwt>
<totfact> 0.33825197E-04</totfact>
</mgrwt>
<clustering>
<clus scale="   40.763">  1  6  2 -1</clus>
<clus scale="  458.673">  4  5 -1 -1</clus>
<clus scale="  300.000">  1  4  2 -1</clus>
</clustering>
</event>
<event>
 6    1  0.9964252E-012  0.3000000E+03  0.7818608E-02  0.1093470E+00
          1   -1    0    0  502    0  0.00000000000E+00  0.00000000000E+00  0.23770748593E+03  0.23770748593E+03  0.00000000000E+00 0.  1.
         13   -1    0    0    0    0 -0.00000000000E+00 -0.00000000000E+00 -0.27500000000E+03  0.27500000000E+03  0.00000000000E+00 0.  1.
    9000005    2    1    2  501    0  0.31874791218E+02  0.12771541078E+02 -0.43536583289E+02  0.47780615391E+03  0.47457788829E+03 0.  0.
         13    1    3    3    0    0 -0.54729137913E+02  0.15535475662E+03 -0.19306280162E+03  0.25377869161E+03  0.00000000000E+00 0.  1.
          3    1    3    3  501    0  0.86603929132E+02 -0.14258321555E+03  0.14952621833E+03  0.22402746230E+03  0.00000000000E+00 0.  1.
         21    1    1    2  502  501 -0.31874791218E+02 -0.12771541078E+02  0.62440692238E+01  0.34901332026E+02  0.00000000000E+00 0.  1.
<scales pt_clust_4="550.00000" pt_clust_5="550.00000" pt_clust_6="34.33824"></scales>
<mgrwt>
<rscale>  0 0.30000000E+03</rscale>
<asrwt>  1 0.34338238E+02</asrwt>
<pdfrwt beam="1">  1        1 0.86439086E+00 0.30000000E+03</pdfrwt>
<pdfrwt beam="2">0</pdfrwt>
<totfact> 0.29109311E-04</totfact>
</mgrwt>
<clustering>
<clus scale="   34.338">  1  6  2 -1</clus>
<clus scale="  474.578">  4  5 -1 -1</clus>
<clus scale="  300.000">  1  4  2 -1</clus>
</clustering>
</event>
<event>
 6    1  0.9964252E-012  0.3000000E+03  0.7818608E-02  0.1093470E+00
          1   -1    0    0  502    0  0.00000000000E+00  0.00000000000E+00  0.23308387987E+03  0.23308387987E+03  0.00000000000E+00 0.  1.
         13   -1    0    0    0    0 -0.00000000000E+00 -0.00000000000E+00 -0.27500000000E+03  0.27500000000E+03  0.00000000000E+00 0.  1.
    9000005    2    1    2  501    0  0.29365775810E+02 -0.14454565855E+02 -0.64161668987E+02  0.46850929577E+03  0.46293947465E+03 0.  0.
         13    1    3    3    0    0 -0.26808552374E+02 -0.22338631470E+03 -0.10508655660E+03  0.24832101895E+03  0.00000000000E+00 0.  1.
          3    1    3    3  501    0  0.56174328184E+02  0.20893174884E+03  0.40924887616E+02  0.22018827682E+03  0.00000000000E+00 0.  1.
         21    1    1    2  502  501 -0.29365775810E+02  0.14454565855E+02  0.22245548861E+02  0.39574584105E+02  0.00000000000E+00 0.  1.
<scales pt_clust_4="550.00000" pt_clust_5="550.00000" pt_clust_6="32.73046"></scales>
<mgrwt>
<rscale>  0 0.30000000E+03</rscale>
<asrwt>  1 0.32730464E+02</asrwt>
<pdfrwt beam="1">  1        1 0.84757775E+00 0.30000000E+03</pdfrwt>
<pdfrwt beam="2">0</pdfrwt>
<totfact> 0.43396190E-04</totfact>
</mgrwt>
<clustering>
<clus scale="   32.730">  1  6  2 -1</clus>
<clus scale="  462.939">  4  5 -1 -1</clus>
<clus scale="  300.000">  1  4  2 -1</clus>
</clustering>
</event>
<event>
 6    1  0.9964252E-012  0.3000000E+03  0.7818608E-02  0.1093470E+00
          1   -1    0    0  502    0  0.00000000000E+00  0.00000000000E+00  0.23977684587E+03  0.23977684587E+03  0.00000000000E+00 0.  1.
         13   -1    0    0    0    0 -0.00000000000E+00 -0.00000000000E+00 -0.27500000000E+03  0.27500000000E+03  0.00000000000E+00 0.  1.
    9000005    2    1    2  501    0 -0.31074737690E+02  0.65786815048E+01 -0.38258912124E+02  0.48286863064E+03  0.48030141758E+03 0.  0.
         13    1    3    3    0    0  0.22326391122E+03 -0.26656385112E+02 -0.18000824328E+02  0.22556898412E+03  0.00000000000E+00 0.  1.
          3    1    3    3  501    0 -0.25433864891E+03  0.33235066617E+02 -0.20258087796E+02  0.25729964652E+03  0.00000000000E+00 0.  1.
         21    1    1    2  502  501  0.31074737690E+02 -0.65786815048E+01  0.30357579986E+01  0.31908215235E+02  0.00000000000E+00 0.  1.
<scales pt_clust_4="550.00000" pt_clust_5="550.00000" pt_clust_6="31.76348"></scales>
<mgrwt>
<rscale>  0 0.30000000E+03</rscale>
<asrwt>  1 0.31763475E+02</asrwt>
<pdfrwt beam="1">  1        1 0.87191580E+00 0.30000000E+03</pdfrwt>
<pdfrwt beam="2">0</pdfrwt>
<totfact> 0.24657108E-04</totfact>
</mgrwt>
<clustering>
<clus scale="   31.763">  1  6  2 -1</clus>
<clus scale="  480.301">  4  5 -1 -1</clus>
<clus scale="  300.000">  1  4  2 -1</clus>
</clustering>
</event>
<event>
 6    1  0.9964252E-012  0.3000000E+03  0.7818608E-02  0.1093470E+00
          1   -1    0    0  502    0  0.00000000000E+00  0.00000000000E+00  0.23937932215E+03  0.23937932215E+03  0.00000000000E+00 0.  1.
         13   -1    0    0    0    0 -0.00000000000E+00 -0.00000000000E+00 -0.27500000000E+03  0.27500000000E+03  0.00000000000E+00 0.  1.
    9000005    2    1    2  501    0 -0.12202368450E+02  0.32099454255E+02 -0.22907307641E+02  0.47776098601E+03  0.47597430840E+03 0.  0.
         13    1    3    3    0    0  0.72004935092E+02  0.10251501216E+03 -0.21942271011E+03  0.25266650769E+03  0.00000000000E+00 0.  1.
          3    1    3    3  501    0 -0.84207303541E+02 -0.70415557902E+02  0.19651540247E+03  0.22509447832E+03  0.00000000000E+00 0.  1.
         21    1    1    2  502  501  0.12202368450E+02 -0.32099454255E+02 -0.12713370210E+02  0.36618336136E+02  0.00000000000E+00 0. -1.
<scales pt_clust_4="550.00000" pt_clust_5="550.00000" pt_clust_6="34.34056"></scales>
<mgrwt>
<rscale>  0 0.30000000E+03</rscale>
<asrwt>  1 0.34340558E+02</asrwt>
<pdfrwt beam="1">  1        1 0.87047026E+00 0.30000000E+03</pdfrwt>
<pdfrwt beam="2">0</pdfrwt>
<totfact> 0.25135863E-04</totfact>
</mgrwt>
<clustering>
<clus scale="   34.341">  1  6  2 -1</clus>
<clus scale="  475.974">  4  5 -1 -1</clus>
<clus scale="  300.000">  1  4  2 -1</clus>
</clustering>
</event>
<event>
 6    1  0.9964252E-012  0.3000000E+03  0.7818608E-02  0.1093470E+00
          1   -1    0    0  502    0  0.00000000000E+00  0.00000000000E+00  0.22850869117E+03  0.22850869117E+03  0.00000000000E+00 0.  1.
         13   -1    0    0    0    0 -0.00000000000E+00 -0.00000000000E+00 -0.27500000000E+03  0.27500000000E+03  0.00000000000E+00 0.  1.
    9000005    2    1    2  501    0  0.22736867004E+02  0.20311696249E+02 -0.52433250059E+02  0.47244686909E+03  0.46853737126E+03 0.  0.
         13    1    3    3    0    0  0.13524836785E+03  0.23399561153E+02 -0.22668723417E+03  0.26500332565E+03  0.00000000000E+00 0.  1.
          1    1    3    3  501    0 -0.11251150085E+03 -0.30878649043E+01  0.17425398412E+03  0.20744354343E+03  0.00000000000E+00 0.  1.
         21    1    1    2  502  501 -0.22736867004E+02 -0.20311696249E+02  0.59419412304E+01  0.31061822085E+02  0.00000000000E+00 0.  1.
<scales pt_clust_4="550.00000" pt_clust_5="550.00000" pt_clust_6="30.48820"></scales>
<mgrwt>
<rscale>  0 0.30000000E+03</rscale>
<asrwt>  1 0.30488196E+02</asrwt>
<pdfrwt beam="1">  1        1 0.83094070E+00 0.30000000E+03</pdfrwt>
<pdfrwt beam="2">0</pdfrwt>
<totfact> 0.59609613E-04</totfact>
</mgrwt>
<clustering>
<clus scale="   30.488">  1  6  2 -1</clus>
<clus scale="  468.537">  4  5 -1 -1</clus>
<clus scale="  300.000">  1  4  2 -1</clus>
</clustering>
</event>
<event>
 6    1  0.9964252E-012  0.3000000E+03  0.7818608E-02  0.1093470E+00
          1   -1    0    0  502    0  0.00000000000E+00  0.00000000000E+00  0.22568702333E+03  0.22568702333E+03  0.00000000000E+00 0.  1.
         13   -1    0    0    0    0 -0.00000000000E+00 -0.00000000000E+00 -0.27500000000E+03  0.27500000000E+03  0.00000000000E+00 0.  1.
    9000005    2    1    2  501    0  0.28881207993E+02  0.19024239068E+02 -0.49174939416E+02  0.46610285208E+03  0.46220952846E+03 0.  0.
         13    1    3    3    0    0  0.86395498560E+02 -0.80540111378E+02 -0.22610275560E+03  0.25509478200E+03  0.00000000000E+00 0.  1.
          3    1    3    3  501    0 -0.57514290567E+02  0.99564350446E+02  0.17692781618E+03  0.21100807008E+03  0.00000000000E+00 0.  1.
         21    1    1    2  502  501 -0.28881207993E+02 -0.19024239068E+02 -0.13803724957E+00  0.34584171257E+02  0.00000000000E+00 0.  1.
<scales pt_clust_4="550.00000" pt_clust_5="550.00000" pt_clust_6="34.58390"></scales>
<mgrwt>
<rscale>  0 0.30000000E+03</rscale>
<asrwt>  1 0.34583896E+02</asrwt>
<pdfrwt beam="1">  1        1 0.82068008E+00 0.30000000E+03</pdfrwt>
<pdfrwt beam="2">0</pdfrwt>
<totfact> 0.71510400E-04</totfact>
</mgrwt>
<clustering>
<clus scale="   34.584">  1  6  2 -1</clus>
<clus scale="  462.210">  4  5 -1 -1</clus>
<clus scale="  300.000">  1  4  2 -1</clus>
</clustering>
</event>
<event>
 6    1  0.9964252E-012  0.3000000E+03  0.7818608E-02  0.1093470E+00
          1   -1    0    0  502    0  0.00000000000E+00  0.00000000000E+00  0.22587453676E+03  0.22587453676E+03  0.00000000000E+00 0.  1.
         13   -1    0    0    0    0 -0.00000000000E+00 -0.00000000000E+00 -0.27500000000E+03  0.27500000000E+03  0.00000000000E+00 0.  1.
    9000005    2    1    2  501    0 -0.32970728625E+02  0.17441952666E+02 -0.47025515011E+02  0.46351546234E+03  0.45961276539E+03 0.  0.
         13    1    3    3    0    0  0.53641345295E+02 -0.98900068754E+02  0.16917386794E+03  0.20317090126E+03  0.00000000000E+00 0.  1.
          1    1    3    3  501    0 -0.86612073920E+02  0.11634202142E+03 -0.21619938295E+03  0.26034456108E+03  0.00000000000E+00 0.  1.
         21    1    1    2  502  501  0.32970728625E+02 -0.17441952666E+02 -0.20999482284E+01  0.37359074419E+02  0.00000000000E+00 0.  1.
<scales pt_clust_4="550.00000" pt_clust_5="550.00000" pt_clust_6="37.30001"></scales>
<mgrwt>
<rscale>  0 0.30000000E+03</rscale>
<asrwt>  1 0.37300009E+02</asrwt>
<pdfrwt beam="1">  1        1 0.82136195E+00 0.30000000E+03</pdfrwt>
<pdfrwt beam="2">0</pdfrwt>
<totfact> 0.69546183E-04</totfact>
</mgrwt>
<clustering>
<clus scale="   37.300">  1  6  2 -1</clus>
<clus scale="  459.613">  4  5 -1 -1</clus>
<clus scale="  300.000">  1  4  2 -1</clus>
</clustering>
</event>
<event>
 6    1  0.9964252E-012  0.3000000E+03  0.7818608E-02  0.1093470E+00
          1   -1    0    0  502    0  0.00000000000E+00  0.00000000000E+00  0.22150271090E+03  0.22150271090E+03  0.00000000000E+00 0.  1.
         13   -1    0    0    0    0 -0.00000000000E+00 -0.00000000000E+00 -0.27500000000E+03  0.27500000000E+03  0.00000000000E+00 0.  1.
    9000005    2    1    2  501    0 -0.20336832073E+02  0.23555112547E+02 -0.51087343839E+02  0.46528992663E+03  0.46142861751E+03 0.  0.
         13    1    3    3    0    0  0.10230456543E+01  0.15125358726E+03  0.15840174640E+03  0.21902010763E+03  0.00000000000E+00 0.  1.
          1    1    3    3  501    0 -0.21359877728E+02 -0.12769847472E+03 -0.20948909024E+03  0.24626981900E+03  0.00000000000E+00 0.  1.
         21    1    1    2  502  501  0.20336832073E+02 -0.23555112547E+02 -0.24099452616E+01  0.31212784273E+02  0.00000000000E+00 0.  1.
<scales pt_clust_4="550.00000" pt_clust_5="550.00000" pt_clust_6="31.11961"></scales>
<mgrwt>
<rscale>  0 0.30000000E+03</rscale>
<asrwt>  1 0.31119609E+02</asrwt>
<pdfrwt beam="1">  1        1 0.80546440E+00 0.30000000E+03</pdfrwt>
<pdfrwt beam="2">0</pdfrwt>
<totfact> 0.96647385E-04</totfact>
</mgrwt>
<clustering>
<clus scale="   31.120">  1  6  2 -1</clus>
<clus scale="  461.429">  4  5 -1 -1</clus>
<clus scale="  300.000">  1  4  2 -1</clus>
</clustering>
</event>
<event>
 6    1  0.9964252E-012  0.3000000E+03  0.7818608E-02  0.1093470E+00
          1   -1    0    0  502    0  0.00000000000E+00  0.00000000000E+00  0.23168256590E+03  0.23168256590E+03  0.00000000000E+00 0.  1.
         13   -1    0    0    0    0 -0.00000000000E+00 -0.00000000000E+00 -0.27500000000E+03  0.27500000000E+03  0.00000000000E+00 0.  1.
    9000005    2    1    2  501    0  0.24205708889E+02 -0.25867698903E+02 -0.33970363612E+02  0.47004348955E+03  0.46747389475E+03 0.  0.
         13    1    3    3    0    0  0.48097060003E+02  0.20470473455E+03 -0.94388940059E+02  0.23049214202E+03  0.00000000000E+00 0.  1.
          1    1    3    3  501    0 -0.23891351114E+02 -0.23057243345E+03  0.60418576447E+02  0.23955134753E+03  0.00000000000E+00 0.  1.
         21    1    1    2  502  501 -0.24205708889E+02  0.25867698903E+02 -0.93470704850E+01  0.36639076353E+02  0.00000000000E+00 0.  1.
<scales pt_clust_4="550.00000" pt_clust_5="550.00000" pt_clust_6="35.42676"></scales>
<mgrwt>
<rscale>  0 0.30000000E+03</rscale>
<asrwt>  1 0.35426762E+02</asrwt>
<pdfrwt beam="1">  1        1 0.84248206E+00 0.30000000E+03</pdfrwt>
<pdfrwt beam="2">0</pdfrwt>
<totfact> 0.47369606E-04</totfact>
</mgrwt>
<clustering>
<clus scale="   35.427">  1  6  2 -1</clus>
<clus scale="  467.474">  4  5 -1 -1</clus>
<clus scale="  300.000">  1  4  2 -1</clus>
</clustering>
</event>
<event>
 6    1  0.9964252E-012  0.3000000E+03  0.7818608E-02  0.1093470E+00
          1   -1    0    0  502    0  0.00000000000E+00  0.00000000000E+00  0.23727668094E+03  0.23727668094E+03  0.00000000000E+00 0.  1.
         13   -1    0    0    0    0 -0.00000000000E+00 -0.00000000000E+00 -0.27500000000E+03  0.27500000000E+03  0.00000000000E+00 0.  1.
    9000005    2    1    2  501    0 -0.37814268127E+02 -0.16529934145E+01 -0.43310924974E+02  0.47401609285E+03  0.47051330353E+03 0.  0.
         13    1    3    3    0    0  0.17641474756E+03  0.46671559666E+02 -0.14396609271E+03  0.23243629985E+03  0.00000000000E+00 0.  1.
          1    1    3    3  501    0 -0.21422901569E+03 -0.48324553081E+02  0.10065516773E+03  0.24157979300E+03  0.00000000000E+00 0.  1.
         21    1    1    2  502  501  0.37814268127E+02  0.16529934145E+01  0.55876059131E+01  0.38260588091E+02  0.00000000000E+00 0. -1.
<scales pt_clust_4="550.00000" pt_clust_5="550.00000" pt_clust_6="37.85038"></scales>
<mgrwt>
<rscale>  0 0.30000000E+03</rscale>
<asrwt>  1 0.37850380E+02</asrwt>
<pdfrwt beam="1">  1        1 0.86282429E+00 0.30000000E+03</pdfrwt>
<pdfrwt beam="2">0</pdfrwt>
<totfact> 0.29723981E-04</totfact>
</mgrwt>
<clustering>
<clus scale="   37.850">  1  6  2 -1</clus>
<clus scale="  470.513">  4  5 -1 -1</clus>
<clus scale="  300.000">  1  4  2 -1</clus>
</clustering>
</event>
<event>
 6    1  0.9964252E-012  0.3000000E+03  0.7818608E-02  0.1093470E+00
          1   -1    0    0  502    0  0.00000000000E+00  0.00000000000E+00  0.24069682345E+03  0.24069682345E+03  0.00000000000E+00 0.  1.
         13   -1    0    0    0    0 -0.00000000000E+00 -0.00000000000E+00 -0.27500000000E+03  0.27500000000E+03  0.00000000000E+00 0.  1.
    9000005    2    1    2  501    0  0.23465949140E+02  0.25752957146E+02 -0.41120913056E+02  0.48019545584E+03  0.47716127331E+03 0.  0.
         13    1    3    3    0    0 -0.20513506684E+02 -0.27291366168E+02 -0.25408144578E+03  0.25636498145E+03  0.00000000000E+00 0.  1.
          3    1    3    3  501    0  0.43979455824E+02  0.53044323314E+02  0.21296053272E+03  0.22383047439E+03  0.00000000000E+00 0.  1.
         21    1    1    2  502  501 -0.23465949140E+02 -0.25752957146E+02  0.68177365023E+01  0.35501367604E+02  0.00000000000E+00 0.  1.
<scales pt_clust_4="550.00000" pt_clust_5="550.00000" pt_clust_6="34.84057"></scales>
<mgrwt>
<rscale>  0 0.30000000E+03</rscale>
<asrwt>  1 0.34840574E+02</asrwt>
<pdfrwt beam="1">  1        1 0.87526118E+00 0.30000000E+03</pdfrwt>
<pdfrwt beam="2">0</pdfrwt>
<totfact> 0.22368820E-04</totfact>
</mgrwt>
<clustering>
<clus scale="   34.841">  1  6  2 -1</clus>
<clus scale="  477.161">  4  5 -1 -1</clus>
<clus scale="  300.000">  1  4  2 -1</clus>
</clustering>
</event>
<event>
 6    1  0.9964252E-012  0.3000000E+03  0.7818608E-02  0.1093470E+00
          1   -1    0    0  502    0  0.00000000000E+00  0.00000000000E+00  0.22810215037E+03  0.22810215037E+03  0.00000000000E+00 0.  1.
         13   -1    0    0    0    0 -0.00000000000E+00 -0.00000000000E+00 -0.27500000000E+03  0.27500000000E+03  0.00000000000E+00 0.  1.
    9000005    2    1    2  501    0 -0.14348149269E+02 -0.32102937304E+02 -0.38138468135E+02  0.46686412152E+03  0.46397316435E+03 0.  0.
         13    1    3    3    0    0 -0.10639095459E+03  0.17426068853E+03  0.70690303089E+02  0.21606235613E+03  0.00000000000E+00 0.  1.
          3    1    3    3  501    0  0.92042805322E+02 -0.20636362583E+03 -0.10882877122E+03  0.25080176539E+03  0.00000000000E+00 0.  1.
         21    1    1    2  502  501  0.14348149269E+02  0.32102937304E+02 -0.87593814938E+01  0.36238028853E+02  0.00000000000E+00 0.  1.
<scales pt_clust_4="550.00000" pt_clust_5="550.00000" pt_clust_6="35.16346"></scales>
<mgrwt>
<rscale>  0 0.30000000E+03</rscale>
<asrwt>  1 0.35163464E+02</asrwt>
<pdfrwt beam="1">  1        1 0.82946236E+00 0.30000000E+03</pdfrwt>
<pdfrwt beam="2">0</pdfrwt>
<totfact> 0.59661476E-04</totfact>
</mgrwt>
<clustering>
<clus scale="   35.163">  1  6  2 -1</clus>
<clus scale="  463.973">  4  5 -1 -1</clus>
<clus scale="  300.000">  1  4  2 -1</clus>
</clustering>
</event>
<event>
 6    1  0.9964252E-012  0.3000000E+03  0.7818608E-02  0.1093470E+00
          1   -1    0    0  502    0  0.00000000000E+00  0.00000000000E+00  0.23151951010E+03  0.23151951010E+03  0.00000000000E+00 0.  1.
         13   -1    0    0    0    0 -0.00000000000E+00 -0.00000000000E+00 -0.27500000000E+03  0.27500000000E+03  0.00000000000E+00 0.  1.
    9000005    2    1    2  501    0  0.25688216143E+02  0.20544574023E+02 -0.51368591666E+02  0.47269368978E+03  0.46874153665E+03 0.  0.
         13    1    3    3    0    0  0.58706171088E+02  0.16789111909E+03  0.14183034244E+03  0.22748557851E+03  0.00000000000E+00 0.  1.
          1    1    3    3  501    0 -0.33017954946E+02 -0.14734654507E+03 -0.19319893411E+03  0.24520811127E+03  0.00000000000E+00 0.  1.
         21    1    1    2  502  501 -0.25688216143E+02 -0.20544574023E+02  0.78881017618E+01  0.33825820312E+02  0.00000000000E+00 0.  1.
<scales pt_clust_4="550.00000" pt_clust_5="550.00000" pt_clust_6="32.89322"></scales>
<mgrwt>
<rscale>  0 0.30000000E+03</rscale>
<asrwt>  1 0.32893221E+02</asrwt>
<pdfrwt beam="1">  1        1 0.84188913E+00 0.30000000E+03</pdfrwt>
<pdfrwt beam="2">0</pdfrwt>
<totfact> 0.48581653E-04</totfact>
</mgrwt>
<clustering>
<clus scale="   32.893">  1  6  2 -1</clus>
<clus scale="  468.742">  4  5 -1 -1</clus>
<clus scale="  300.000">  1  4  2 -1</clus>
</clustering>
</event>
<event>
 6    1  0.9964252E-012  0.3000000E+03  0.7818608E-02  0.1093470E+00
          1   -1    0    0  502    0  0.00000000000E+00  0.00000000000E+00  0.24869181717E+03  0.24869181717E+03  0.00000000000E+00 0.  1.
         13   -1    0    0    0    0 -0.00000000000E+00 -0.00000000000E+00 -0.27500000000E+03  0.27500000000E+03  0.00000000000E+00 0.  1.
    9000005    2    1    2  501    0 -0.33643299741E+02  0.93657150819E+01 -0.49794994750E+02  0.48160596954E+03  0.47775012314E+03 0.  0.
         13    1    3    3    0    0  0.25279204745E+02  0.69407151054E+02 -0.25199824781E+03  0.26260142366E+03  0.00000000000E+00 0.  1.
          1    1    3    3  501    0 -0.58922504486E+02 -0.60041435972E+02  0.20220325306E+03  0.21900454588E+03  0.00000000000E+00 0.  1.
         21    1    1    2  502  501  0.33643299741E+02 -0.93657150819E+01  0.23486811925E+02  0.42085847631E+02  0.00000000000E+00 0. -1.
<scales pt_clust_4="550.00000" pt_clust_5="550.00000" pt_clust_6="34.92260"></scales>
<mgrwt>
<rscale>  0 0.30000000E+03</rscale>
<asrwt>  1 0.34922604E+02</asrwt>
<pdfrwt beam="1">  1        1 0.90433388E+00 0.30000000E+03</pdfrwt>
<pdfrwt beam="2">0</pdfrwt>
<totfact> 0.95156643E-05</totfact>
</mgrwt>
<clustering>
<clus scale="   34.923">  1  6  2 -1</clus>
<clus scale="  477.750">  4  5 -1 -1</clus>
<clus scale="  300.000">  1  4  2 -1</clus>
</clustering>
</event>
<event>
 6    1  0.9964252E-012  0.3000000E+03  0.7818608E-02  0.1093470E+00
          1   -1    0    0  502    0  0.00000000000E+00  0.00000000000E+00  0.23330283012E+03  0.23330283012E+03  0.00000000000E+00 0.  1.
         13   -1    0    0    0    0 -0.00000000000E+00 -0.00000000000E+00 -0.27500000000E+03  0.27500000000E+03  0.00000000000E+00 0.  1.
    9000005    2    1    2  501    0 -0.25930724672E+02  0.18019180942E+02 -0.45469527867E+02  0.47650150863E+03  0.47327488461E+03 0.  0.
         13    1    3    3    0    0 -0.15531048920E+03 -0.15302513222E+03  0.74934060301E+02  0.23054967477E+03  0.00000000000E+00 0.  1.
          1    1    3    3  501    0  0.12937976452E+03  0.17104431316E+03 -0.12040358817E+03  0.24595183386E+03  0.00000000000E+00 0.  1.
         21    1    1    2  502  501  0.25930724672E+02 -0.18019180942E+02  0.37723579903E+01  0.31801321492E+02  0.00000000000E+00 0.  1.
<scales pt_clust_4="550.00000" pt_clust_5="550.00000" pt_clust_6="31.57679"></scales>
<mgrwt>
<rscale>  0 0.30000000E+03</rscale>
<asrwt>  1 0.31576785E+02</asrwt>
<pdfrwt beam="1">  1        1 0.84837393E+00 0.30000000E+03</pdfrwt>
<pdfrwt beam="2">0</pdfrwt>
<totfact> 0.42966526E-04</totfact>
</mgrwt>
<clustering>
<clus scale="   31.577">  1  6  2 -1</clus>
<clus scale="  473.275">  4  5 -1 -1</clus>
<clus scale="  300.000">  1  4  2 -1</clus>
</clustering>
</event>
<event>
 6    1  0.9964252E-012  0.3000000E+03  0.7818608E-02  0.1093470E+00
          1   -1    0    0  502    0  0.00000000000E+00  0.00000000000E+00  0.23517916478E+03  0.23517916478E+03  0.00000000000E+00 0.  1.
         13   -1    0    0    0    0 -0.00000000000E+00 -0.00000000000E+00 -0.27500000000E+03  0.27500000000E+03  0.00000000000E+00 0.  1.
    9000005    2    1    2  501    0  0.30426521101E+02 -0.23567558795E+02 -0.60032285330E+02  0.46670841911E+03  0.46122843599E+03 0.  0.
         13    1    3    3    0    0  0.41102018064E+02  0.89852627369E+02 -0.23670004508E+03  0.25649518879E+03  0.00000000000E+00 0.  1.
          1    1    3    3  501    0 -0.10675496963E+02 -0.11342018616E+03  0.17666775975E+03  0.21021323031E+03  0.00000000000E+00 0.  1.
         21    1    1    2  502  501 -0.30426521101E+02  0.23567558795E+02  0.20211450108E+02  0.43470745672E+02  0.00000000000E+00 0. -1.
<scales pt_clust_4="550.00000" pt_clust_5="550.00000" pt_clust_6="38.48640"></scales>
<mgrwt>
<rscale>  0 0.30000000E+03</rscale>
<asrwt>  1 0.38486400E+02</asrwt>
<pdfrwt beam="1">  1        1 0.85519696E+00 0.30000000E+03</pdfrwt>
<pdfrwt beam="2">0</pdfrwt>
<totfact> 0.35636820E-04</totfact>
</mgrwt>
<clustering>
<clus scale="   38.486">  1  6  2 -1</clus>
<clus scale="  461.228">  4  5 -1 -1</clus>
<clus scale="  300.000">  1  4  2 -1</clus>
</clustering>
</event>
<event>
 6    1  0.9964252E-012  0.3000000E+03  0.7818608E-02  0.1093470E+00
          1   -1    0    0  502    0  0.00000000000E+00  0.00000000000E+00  0.23091337859E+03  0.23091337859E+03  0.00000000000E+00 0.  1.
         13   -1    0    0    0    0 -0.00000000000E+00 -0.00000000000E+00 -0.27500000000E+03  0.27500000000E+03  0.00000000000E+00 0.  1.
    9000005    2    1    2  501    0  0.19601403864E+02  0.25519813963E+02 -0.30613776916E+02  0.47102794500E+03  0.46892925446E+03 0.  0.
         13    1    3    3    0    0 -0.78910013553E+01  0.24681438066E+03 -0.20834402570E+02  0.24781783376E+03  0.00000000000E+00 0.  1.
          1    1    3    3  501    0  0.27492405219E+02 -0.22129456669E+03 -0.97793743456E+01  0.22321011123E+03  0.00000000000E+00 0.  1.
         21    1    1    2  502  501 -0.19601403864E+02 -0.25519813963E+02 -0.13472844496E+02  0.34885433593E+02  0.00000000000E+00 0.  1.
<scales pt_clust_4="550.00000" pt_clust_5="550.00000" pt_clust_6="32.17883"></scales>
<mgrwt>
<rscale>  0 0.30000000E+03</rscale>
<asrwt>  1 0.32178828E+02</asrwt>
<pdfrwt beam="1">  1        1 0.83968501E+00 0.30000000E+03</pdfrwt>
<pdfrwt beam="2">0</pdfrwt>
<totfact> 0.50778329E-04</totfact>
</mgrwt>
<clustering>
<clus scale="   32.179">  1  6  2 -1</clus>
<clus scale="  468.929">  4  5 -1 -1</clus>
<clus scale="  300.000">  1  4  2 -1</clus>
</clustering>
</event>
<event>
 6    1  0.9964252E-012  0.3000000E+03  0.7818608E-02  0.1093470E+00
          1   -1    0    0  502    0  0.00000000000E+00  0.00000000000E+00  0.23261190385E+03  0.23261190385E+03  0.00000000000E+00 0.  1.
         13   -1    0    0    0    0 -0.00000000000E+00 -0.00000000000E+00 -0.27500000000E+03  0.27500000000E+03  0.00000000000E+00 0.  1.
    9000005    2    1    2  501    0  0.36823846358E+02 -0.88118363580E+00 -0.67145219180E+02  0.46323074472E+03  0.45685607170E+03 0.  0.
         13    1    3    3    0    0 -0.12808458193E+03  0.17457512577E+03 -0.16332041686E+02  0.21713790607E+03  0.00000000000E+00 0.  1.
          3    1    3    3  501    0  0.16490842828E+03 -0.17545630941E+03 -0.50813177494E+02  0.24609283865E+03  0.00000000000E+00 0.  1.
         21    1    1    2  502  501 -0.36823846358E+02  0.88118363580E+00  0.24757123031E+02  0.44381159133E+02  0.00000000000E+00 0. -1.
<scales pt_clust_4="550.00000" pt_clust_5="550.00000" pt_clust_6="36.83439"></scales>
<mgrwt>
<rscale>  0 0.30000000E+03</rscale>
<asrwt>  1 0.36834388E+02</asrwt>
<pdfrwt beam="1">  1        1 0.84586147E+00 0.30000000E+03</pdfrwt>
<pdfrwt beam="2">0</pdfrwt>
<totfact> 0.43980198E-04</totfact>
</mgrwt>
<clustering>
<clus scale="   36.834">  1  6  2 -1</clus>
<clus scale="  456.856">  4  5 -1 -1</clus>
<clus scale="  300.000">  1  4  2 -1</clus>
</clustering>
</event>
<event>
 6    1  0.9964252E-012  0.3000000E+03  0.7818608E-02  0.1093470E+00
          1   -1    0    0  502    0  0.00000000000E+00  0.00000000000E+00  0.23878378104E+03  0.23878378104E+03  0.00000000000E+00 0.  1.
         13   -1    0    0    0    0 -0.00000000000E+00 -0.00000000000E+00 -0.27500000000E+03  0.27500000000E+03  0.00000000000E+00 0.  1.
    9000005    2    1    2  501    0  0.13790547999E+02 -0.27601086905E+02 -0.38432846632E+02  0.48284977628E+03  0.48032782924E+03 0.  0.
         13    1    3    3    0    0  0.13201968699E+03  0.11613588625E+03 -0.17801283042E+03  0.25021053060E+03  0.00000000000E+00 0.  1.
          3    1    3    3  501    0 -0.11822913899E+03 -0.14373697316E+03  0.13957998379E+03  0.23263924568E+03  0.00000000000E+00 0.  1.
         21    1    1    2  502  501 -0.13790547999E+02  0.27601086905E+02  0.22166276749E+01  0.30934004763E+02  0.00000000000E+00 0.  1.
<scales pt_clust_4="550.00000" pt_clust_5="550.00000" pt_clust_6="30.85448"></scales>
<mgrwt>
<rscale>  0 0.30000000E+03</rscale>
<asrwt>  1 0.30854484E+02</asrwt>
<pdfrwt beam="1">  1        1 0.86830466E+00 0.30000000E+03</pdfrwt>
<pdfrwt beam="2">0</pdfrwt>
<totfact> 0.26998864E-04</totfact>
</mgrwt>
<clustering>
<clus scale="   30.854">  1  6  2 -1</clus>
<clus scale="  480.328">  4  5 -1 -1</clus>
<clus scale="  300.000">  1  4  2 -1</clus>
</clustering>
</event>
<event>
 6    1  0.9964252E-012  0.3000000E+03  0.7818608E-02  0.1093470E+00
          1   -1    0    0  502    0  0.00000000000E+00  0.00000000000E+00  0.25680101740E+03  0.25680101740E+03  0.00000000000E+00 0.  1.
         13   -1    0    0    0    0 -0.00000000000E+00 -0.00000000000E+00 -0.27500000000E+03  0.27500000000E+03  0.00000000000E+00 0.  1.
    9000005    2    1    2  501    0  0.23669623074E+02  0.36067404003E+02 -0.32698637818E+02  0.48628894549E+03  0.48326662300E+03 0.  0.
         13    1    3    3    0    0 -0.37194373589E+01  0.22679254720E+03  0.10451431265E+03  0.24974373912E+03  0.00000000000E+00 0.  1.
          3    1    3    3  501    0  0.27389060433E+02 -0.19072514320E+03 -0.13721295047E+03  0.23654520637E+03  0.00000000000E+00 0.  1.
         21    1    1    2  502  501 -0.23669623074E+02 -0.36067404003E+02  0.14499655213E+02  0.45512071907E+02  0.00000000000E+00 0. -1.
<scales pt_clust_4="550.00000" pt_clust_5="550.00000" pt_clust_6="43.14057"></scales>
<mgrwt>
<rscale>  0 0.30000000E+03</rscale>
<asrwt>  1 0.43140569E+02</asrwt>
<pdfrwt beam="1">  1        1 0.93382188E+00 0.30000000E+03</pdfrwt>
<pdfrwt beam="2">0</pdfrwt>
<totfact> 0.22407302E-05</totfact>
</mgrwt>
<clustering>
<clus scale="   43.141">  1  6  2 -1</clus>
<clus scale="  483.267">  4  5 -1 -1</clus>
<clus scale="  300.000">  1  4  2 -1</clus>
</clustering>
</event>
<event>
 6    1  0.9964252E-012  0.3000000E+03  0.7818608E-02  0.1093470E+00
          1   -1    0    0  502    0  0.00000000000E+00  0.00000000000E+00  0.22656105334E+03  0.22656105334E+03  0.00000000000E+00 0.  1.
         13   -1    0    0    0    0 -0.00000000000E+00 -0.00000000000E+00 -0.27500000000E+03  0.27500000000E+03  0.00000000000E+00 0.  1.
    9000005    2    1    2  501    0  0.17796471641E+02 -0.24324051829E+02 -0.47033627946E+02  0.47138906599E+03  0.46806742620E+03 0.  0.
         13    1    3    3    0    0 -0.11777149328E+03  0.10423023686E+03 -0.18227741130E+03  0.24074700740E+03  0.00000000000E+00 0.  1.
          3    1    3    3  501    0  0.13556796492E+03 -0.12855428869E+03  0.13524378335E+03  0.23064205858E+03  0.00000000000E+00 0.  1.
         21    1    1    2  502  501 -0.17796471641E+02  0.24324051829E+02 -0.14053187141E+01  0.30171987355E+02  0.00000000000E+00 0.  1.
<scales pt_clust_4="550.00000" pt_clust_5="550.00000" pt_clust_6="30.13924"></scales>
<mgrwt>
<rscale>  0 0.30000000E+03</rscale>
<asrwt>  1 0.30139242E+02</asrwt>
<pdfrwt beam="1">  1        1 0.82385838E+00 0.30000000E+03</pdfrwt>
<pdfrwt beam="2">0</pdfrwt>
<totfact> 0.68793229E-04</totfact>
</mgrwt>
<clustering>
<clus scale="   30.139">  1  6  2 -1</clus>
<clus scale="  468.067">  4  5 -1 -1</clus>
<clus scale="  300.000">  1  4  2 -1</clus>
</clustering>
</event>
<event>
 6    1  0.9964252E-012  0.3000000E+03  0.7818608E-02  0.1093470E+00
          1   -1    0    0  502    0  0.00000000000E+00  0.00000000000E+00  0.23431923812E+03  0.23431923812E+03  0.00000000000E+00 0.  1.
         13   -1    0    0    0    0 -0.00000000000E+00 -0.00000000000E+00 -0.27500000000E+03  0.27500000000E+03  0.00000000000E+00 0.  1.
    9000005    2    1    2  501    0  0.32165411895E+02 -0.18897210782E+01 -0.44784962932E+02  0.47683802456E+03  0.47363553920E+03 0.  0.
         13    1    3    3    0    0 -0.11447664378E+03  0.18983430244E+03 -0.73991622540E+02  0.23370221343E+03  0.00000000000E+00 0.  1.
          1    1    3    3  501    0  0.14664205568E+03 -0.19172402352E+03  0.29206659608E+02  0.24313581113E+03  0.00000000000E+00 0.  1.
         21    1    1    2  502  501 -0.32165411895E+02  0.18897210782E+01  0.41042010565E+01  0.32481213562E+02  0.00000000000E+00 0. -1.
<scales pt_clust_4="550.00000" pt_clust_5="550.00000" pt_clust_6="32.22087"></scales>
<mgrwt>
<rscale>  0 0.30000000E+03</rscale>
<asrwt>  1 0.32220875E+02</asrwt>
<pdfrwt beam="1">  1        1 0.85206996E+00 0.30000000E+03</pdfrwt>
<pdfrwt beam="2">0</pdfrwt>
<totfact> 0.39510948E-04</totfact>
</mgrwt>
<clustering>
<clus scale="   32.221">  1  6  2 -1</clus>
<clus scale="  473.636">  4  5 -1 -1</clus>
<clus scale="  300.000">  1  4  2 -1</clus>
</clustering>
</event>
<event>
 6    1  0.9964252E-012  0.3000000E+03  0.7818608E-02  0.1093470E+00
          1   -1    0    0  502    0  0.00000000000E+00  0.00000000000E+00  0.24364571328E+03  0.24364571328E+03  0.00000000000E+00 0.  1.
         13   -1    0    0    0    0 -0.00000000000E+00 -0.00000000000E+00 -0.27500000000E+03  0.27500000000E+03  0.00000000000E+00 0.  1.
    9000005    2    1    2  501    0  0.27097168191E+02  0.20608519528E+02 -0.30815370105E+02  0.48459783475E+03  0.48241735749E+03 0.  0.
         13    1    3    3    0    0  0.89507559840E+02  0.62183375690E+02 -0.23934663376E+03  0.26299275003E+03  0.00000000000E+00 0.  1.
          1    1    3    3  501    0 -0.62410391649E+02 -0.41574856161E+02  0.20853126365E+03  0.22160508471E+03  0.00000000000E+00 0.  1.
         21    1    1    2  502  501 -0.27097168191E+02 -0.20608519528E+02 -0.53891662010E+00  0.34047878528E+02  0.00000000000E+00 0.  1.
<scales pt_clust_4="550.00000" pt_clust_5="550.00000" pt_clust_6="34.04361"></scales>
<mgrwt>
<rscale>  0 0.30000000E+03</rscale>
<asrwt>  1 0.34043613E+02</asrwt>
<pdfrwt beam="1">  1        1 0.88598441E+00 0.30000000E+03</pdfrwt>
<pdfrwt beam="2">0</pdfrwt>
<totfact> 0.16535620E-04</totfact>
</mgrwt>
<clustering>
<clus scale="   34.044">  1  6  2 -1</clus>
<clus scale="  482.417">  4  5 -1 -1</clus>
<clus scale="  300.000">  1  4  2 -1</clus>
</clustering>
</event>
<event>
 6    1  0.9964252E-012  0.3000000E+03  0.7818608E-02  0.1093470E+00
          1   -1    0    0  502    0  0.00000000000E+00  0.00000000000E+00  0.23937111222E+03  0.23937111222E+03  0.00000000000E+00 0.  1.
         13   -1    0    0    0    0 -0.00000000000E+00 -0.00000000000E+00 -0.27500000000E+03  0.27500000000E+03  0.00000000000E+00 0.  1.
    9000005    2    1    2  501    0  0.10542664602E+02  0.37655958418E+02 -0.65921698008E+02  0.46490624254E+03  0.45854446360E+03 0.  0.
         13    1    3    3    0    0  0.98062106311E+02  0.18945442869E+03  0.88875392034E+02  0.23110169310E+03  0.00000000000E+00 0.  1.
          3    1    3    3  501    0 -0.87519441709E+02 -0.15179847027E+03 -0.15479709004E+03  0.23380454944E+03  0.00000000000E+00 0.  1.
         21    1    1    2  502  501 -0.10542664602E+02 -0.37655958418E+02  0.30292810229E+02  0.49464869684E+02  0.00000000000E+00 0.  1.
<scales pt_clust_4="550.00000" pt_clust_5="550.00000" pt_clust_6="39.10395"></scales>
<mgrwt>
<rscale>  0 0.30000000E+03</rscale>
<asrwt>  1 0.39103951E+02</asrwt>
<pdfrwt beam="1">  1        1 0.87044041E+00 0.30000000E+03</pdfrwt>
<pdfrwt beam="2">0</pdfrwt>
<totfact> 0.24554725E-04</totfact>
</mgrwt>
<clustering>
<clus scale="   39.104">  1  6  2 -1</clus>
<clus scale="  458.544">  4  5 -1 -1</clus>
<clus scale="  300.000">  1  4  2 -1</clus>
</clustering>
</event>
<event>
 6    1  0.9964252E-012  0.3000000E+03  0.7818608E-02  0.1093470E+00
          1   -1    0    0  502    0  0.00000000000E+00  0.00000000000E+00  0.21816265512E+03  0.21816265512E+03  0.00000000000E+00 0.  1.
         13   -1    0    0    0    0 -0.00000000000E+00 -0.00000000000E+00 -0.27500000000E+03  0.27500000000E+03  0.00000000000E+00 0.  1.
    9000005    2    1    2  501    0  0.29224639796E+02 -0.79444281925E+01 -0.62857845020E+02  0.46228483246E+03  0.45698901970E+03 0.  0.
         13    1    3    3    0    0 -0.66415104997E+02  0.17860437129E+03 -0.14259132179E+03  0.23799742155E+03  0.00000000000E+00 0.  1.
          3    1    3    3  501    0  0.95639744793E+02 -0.18654879948E+03  0.79733476774E+02  0.22428741090E+03  0.00000000000E+00 0.  1.
         21    1    1    2  502  501 -0.29224639796E+02  0.79444281925E+01  0.60205001404E+01  0.30877822663E+02  0.00000000000E+00 0. -1.
<scales pt_clust_4="550.00000" pt_clust_5="550.00000" pt_clust_6="30.28520"></scales>
<mgrwt>
<rscale>  0 0.30000000E+03</rscale>
<asrwt>  1 0.30285203E+02</asrwt>
<pdfrwt beam="1">  1        1 0.79331875E+00 0.30000000E+03</pdfrwt>
<pdfrwt beam="2">0</pdfrwt>
<totfact> 0.11939277E-03</totfact>
</mgrwt>
<clustering>
<clus scale="   30.285">  1  6  2 -1</clus>
<clus scale="  456.989">  4  5 -1 -1</clus>
<clus scale="  300.000">  1  4  2 -1</clus>
</clustering>
</event>
<event>
 6    1  0.9964252E-012  0.3000000E+03  0.7818608E-02  0.1093470E+00
          1   -1    0    0  502    0  0.00000000000E+00  0.00000000000E+00  0.23736006428E+03  0.23736006428E+03  0.00000000000E+00 0.  1.
         13   -1    0    0    0    0 -0.00000000000E+00 -0.00000000000E+00 -0.27500000000E+03  0.27500000000E+03  0.00000000000E+00 0.  1.
    9000005    2    1    2  501    0 -0.13292162214E+01 -0.44398440618E+02 -0.38913586973E+02  0.46792347426E+03  0.46418220794E+03 0.  0.
         13    1    3    3    0    0  0.14710247284E+03 -0.16646093854E+03 -0.12769573975E+03  0.25623150377E+03  0.00000000000E+00 0.  1.
          1    1    3    3  501    0 -0.14843168906E+03  0.12206249793E+03  0.88782152773E+02  0.21169197049E+03  0.00000000000E+00 0.  1.
         21    1    1    2  502  501  0.13292162214E+01  0.44398440618E+02  0.12736512538E+01  0.44436590020E+02  0.00000000000E+00 0. -1.
<scales pt_clust_4="550.00000" pt_clust_5="550.00000" pt_clust_6="44.41833"></scales>
<mgrwt>
<rscale>  0 0.30000000E+03</rscale>
<asrwt>  1 0.44418333E+02</asrwt>
<pdfrwt beam="1">  1        1 0.86312751E+00 0.30000000E+03</pdfrwt>
<pdfrwt beam="2">0</pdfrwt>
<totfact> 0.28655096E-04</totfact>
</mgrwt>
<clustering>
<clus scale="   44.418">  1  6  2 -1</clus>
<clus scale="  464.182">  4  5 -1 -1</clus>
<clus scale="  300.000">  1  4  2 -1</clus>
</clustering>
</event>
<event>
 6    1  0.9964252E-012  0.3000000E+03  0.7818608E-02  0.1093470E+00
          1   -1    0    0  502    0  0.00000000000E+00  0.00000000000E+00  0.25131486979E+03  0.25131486979E+03  0.00000000000E+00 0.  1.
         13   -1    0    0    0    0 -0.00000000000E+00 -0.00000000000E+00 -0.27500000000E+03  0.27500000000E+03  0.00000000000E+00 0.  1.
    9000005    2    1    2  501    0  0.28756969798E+02  0.36043157580E+02 -0.59788685318E+02  0.46775260197E+03  0.46161860582E+03 0.  0.
         13    1    3    3    0    0 -0.11645467134E+03  0.46354215031E+02 -0.21880510841E+03  0.25216280295E+03  0.00000000000E+00 0.  1.
          3    1    3    3  501    0  0.14521164114E+03 -0.10311057451E+02  0.15901642309E+03  0.21558979902E+03  0.00000000000E+00 0.  1.
         21    1    1    2  502  501 -0.28756969798E+02 -0.36043157580E+02  0.36103555108E+02  0.58562267816E+02  0.00000000000E+00 0.  1.
<scales pt_clust_4="550.00000" pt_clust_5="550.00000" pt_clust_6="46.10935"></scales>
<mgrwt>
<rscale>  0 0.30000000E+03</rscale>
<asrwt>  1 0.46109354E+02</asrwt>
<pdfrwt beam="1">  1        1 0.91387225E+00 0.30000000E+03</pdfrwt>
<pdfrwt beam="2">0</pdfrwt>
<totfact> 0.54773012E-05</totfact>
</mgrwt>
<clustering>
<clus scale="   46.109">  1  6  2 -1</clus>
<clus scale="  461.619">  4  5 -1 -1</clus>
<clus scale="  300.000">  1  4  2 -1</clus>
</clustering>
</event>
<event>
 6    1  0.9964252E-012  0.3000000E+03  0.7818608E-02  0.1093470E+00
          1   -1    0    0  502    0  0.00000000000E+00  0.00000000000E+00  0.23525163880E+03  0.23525163880E+03  0.00000000000E+00 0.  1.
         13   -1    0    0    0    0 -0.00000000000E+00 -0.00000000000E+00 -0.27500000000E+03  0.27500000000E+03  0.00000000000E+00 0.  1.
    9000005    2    1    2  501    0  0.17562950147E+02  0.39163760811E+02 -0.61058800961E+02  0.46233095202E+03  0.45626688970E+03 0.  0.
         13    1    3    3    0    0  0.18226209164E+03 -0.10170989409E+03 -0.11594220152E+03  0.23876131743E+03  0.00000000000E+00 0.  1.
          1    1    3    3  501    0 -0.16469914150E+03  0.14087365491E+03  0.54883400554E+02  0.22356963459E+03  0.00000000000E+00 0.  1.
         21    1    1    2  502  501 -0.17562950147E+02 -0.39163760811E+02  0.21310439761E+02  0.47920686781E+02  0.00000000000E+00 0. -1.
<scales pt_clust_4="550.00000" pt_clust_5="550.00000" pt_clust_6="42.92153"></scales>
<mgrwt>
<rscale>  0 0.30000000E+03</rscale>
<asrwt>  1 0.42921526E+02</asrwt>
<pdfrwt beam="1">  1        1 0.85546050E+00 0.30000000E+03</pdfrwt>
<pdfrwt beam="2">0</pdfrwt>
<totfact> 0.34725765E-04</totfact>
</mgrwt>
<clustering>
<clus scale="   42.922">  1  6  2 -1</clus>
<clus scale="  456.267">  4  5 -1 -1</clus>
<clus scale="  300.000">  1  4  2 -1</clus>
</clustering>
</event>
<event>
 6    1  0.9964252E-012  0.3000000E+03  0.7818608E-02  0.1093470E+00
          1   -1    0    0  502    0  0.00000000000E+00  0.00000000000E+00  0.22837794421E+03  0.22837794421E+03  0.00000000000E+00 0.  1.
         13   -1    0    0    0    0 -0.00000000000E+00 -0.00000000000E+00 -0.27500000000E+03  0.27500000000E+03  0.00000000000E+00 0.  1.
    9000005    2    1    2  501    0 -0.22396314827E+02  0.32412160153E+02 -0.40565356091E+02  0.46351785571E+03  0.46005555252E+03 0.  0.
         13    1    3    3    0    0  0.26717325579E+02  0.17706719624E+03  0.13977974203E+03  0.22716730344E+03  0.00000000000E+00 0.  1.
          3    1    3    3  501    0 -0.49113640406E+02 -0.14465503609E+03 -0.18034509812E+03  0.23635055227E+03  0.00000000000E+00 0.  1.
         21    1    1    2  502  501  0.22396314827E+02 -0.32412160153E+02 -0.60566997018E+01  0.39860088495E+02  0.00000000000E+00 0.  1.
<scales pt_clust_4="550.00000" pt_clust_5="550.00000" pt_clust_6="39.39727"></scales>
<mgrwt>
<rscale>  0 0.30000000E+03</rscale>
<asrwt>  1 0.39397266E+02</asrwt>
<pdfrwt beam="1">  1        1 0.83046525E+00 0.30000000E+03</pdfrwt>
<pdfrwt beam="2">0</pdfrwt>
<totfact> 0.57316307E-04</totfact>
</mgrwt>
<clustering>
<clus scale="   39.397">  1  6  2 -1</clus>
<clus scale="  460.056">  4  5 -1 -1</clus>
<clus scale="  300.000">  1  4  2 -1</clus>
</clustering>
</event>
<event>
 6    1  0.9964252E-012  0.3000000E+03  0.7818608E-02  0.1093470E+00
          1   -1    0    0  502    0  0.00000000000E+00  0.00000000000E+00  0.25007332177E+03  0.25007332177E+03  0.00000000000E+00 0.  1.
         13   -1    0    0    0    0 -0.00000000000E+00 -0.00000000000E+00 -0.27500000000E+03  0.27500000000E+03  0.00000000000E+00 0.  1.
    9000005    2    1    2  501    0 -0.81602932061E+01 -0.59120791958E+02 -0.10289686915E+02  0.46362334259E+03  0.45965081062E+03 0.  0.
         13    1    3    3    0    0  0.32057450631E+02 -0.13399516034E+03 -0.20738721711E+03  0.24898160767E+03  0.00000000000E+00 0.  1.
          3    1    3    3  501    0 -0.40217743837E+02  0.74874368386E+02  0.19709753019E+03  0.21464173492E+03  0.00000000000E+00 0.  1.
         21    1    1    2  502  501  0.81602932061E+01  0.59120791958E+02 -0.14636991315E+02  0.61449979184E+02  0.00000000000E+00 0. -1.
<scales pt_clust_4="550.00000" pt_clust_5="550.00000" pt_clust_6="59.68134"></scales>
<mgrwt>
<rscale>  0 0.30000000E+03</rscale>
<asrwt>  1 0.59681337E+02</asrwt>
<pdfrwt beam="1">  1        1 0.90935753E+00 0.30000000E+03</pdfrwt>
<pdfrwt beam="2">0</pdfrwt>
<totfact> 0.67706149E-05</totfact>
</mgrwt>
<clustering>
<clus scale="   59.681">  1  6  2 -1</clus>
<clus scale="  459.651">  4  5 -1 -1</clus>
<clus scale="  300.000">  1  4  2 -1</clus>
</clustering>
</event>
<event>
 6    1  0.9964252E-012  0.3000000E+03  0.7818608E-02  0.1093470E+00
          1   -1    0    0  502    0  0.00000000000E+00  0.00000000000E+00  0.23303804863E+03  0.23303804863E+03  0.00000000000E+00 0.  1.
         13   -1    0    0    0    0 -0.00000000000E+00 -0.00000000000E+00 -0.27500000000E+03  0.27500000000E+03  0.00000000000E+00 0.  1.
    9000005    2    1    2  501    0 -0.51635338148E+01 -0.36313816061E+02 -0.39068253963E+02  0.47124499489E+03  0.46818816882E+03 0.  0.
         13    1    3    3    0    0  0.14200641447E+03 -0.17051796304E+03  0.83824123264E+02  0.23721020448E+03  0.00000000000E+00 0.  1.
          3    1    3    3  501    0 -0.14716994828E+03  0.13420414698E+03 -0.12289237723E+03  0.23403479041E+03  0.00000000000E+00 0.  1.
         21    1    1    2  502  501  0.51635338148E+01  0.36313816061E+02 -0.28936974092E+01  0.36793053734E+02  0.00000000000E+00 0. -1.
<scales pt_clust_4="550.00000" pt_clust_5="550.00000" pt_clust_6="36.67909"></scales>
<mgrwt>
<rscale>  0 0.30000000E+03</rscale>
<asrwt>  1 0.36679086E+02</asrwt>
<pdfrwt beam="1">  1        1 0.84741109E+00 0.30000000E+03</pdfrwt>
<pdfrwt beam="2">0</pdfrwt>
<totfact> 0.42628127E-04</totfact>
</mgrwt>
<clustering>
<clus scale="   36.679">  1  6  2 -1</clus>
<clus scale="  468.188">  4  5 -1 -1</clus>
<clus scale="  300.000">  1  4  2 -1</clus>
</clustering>
</event>
<event>
 6    1  0.9964252E-012  0.3000000E+03  0.7818608E-02  0.1093470E+00
          1   -1    0    0  502    0  0.00000000000E+00  0.00000000000E+00  0.23231207645E+03  0.23231207645E+03  0.00000000000E+00 0.  1.
         13   -1    0    0    0    0 -0.00000000000E+00 -0.00000000000E+00 -0.27500000000E+03  0.27500000000E+03  0.00000000000E+00 0.  1.
    9000005    2    1    2  501    0  0.34074018915E+02 -0.24906736942E+02 -0.44771185877E+02  0.46505424531E+03  0.46096595068E+03 0.  0.
         13    1    3    3    0    0  0.15618520695E+03  0.16895403203E+03  0.68890596383E+01  0.23018849439E+03  0.00000000000E+00 0.  1.
          3    1    3    3  501    0 -0.12211118803E+03 -0.19386076897E+03 -0.51660245515E+02  0.23486575092E+03  0.00000000000E+00 0.  1.
         21    1    1    2  502  501 -0.34074018915E+02  0.24906736942E+02  0.20832623236E+01  0.42257831133E+02  0.00000000000E+00 0. -1.
<scales pt_clust_4="550.00000" pt_clust_5="550.00000" pt_clust_6="42.20645"></scales>
<mgrwt>
<rscale>  0 0.30000000E+03</rscale>
<asrwt>  1 0.42206449E+02</asrwt>
<pdfrwt beam="1">  1        1 0.84477119E+00 0.30000000E+03</pdfrwt>
<pdfrwt beam="2">0</pdfrwt>
<totfact> 0.43854818E-04</totfact>
</mgrwt>
<clustering>
<clus scale="   42.206">  1  6  2 -1</clus>
<clus scale="  460.966">  4  5 -1 -1</clus>
<clus scale="  300.000">  1  4  2 -1</clus>
</clustering>
</event>
<event>
 6    1  0.9964252E-012  0.3000000E+03  0.7818608E-02  0.1093470E+00
          1   -1    0    0  502    0  0.00000000000E+00  0.00000000000E+00  0.24823966448E+03  0.24823966448E+03  0.00000000000E+00 0.  1.
         13   -1    0    0    0    0 -0.00000000000E+00 -0.00000000000E+00 -0.27500000000E+03  0.27500000000E+03  0.00000000000E+00 0.  1.
    9000005    2    1    2  501    0 -0.35267154002E+02 -0.11770156223E+02 -0.19957474909E+02  0.48544300270E+03  0.48360552037E+03 0.  0.
         13    1    3    3    0    0 -0.17697419732E+03  0.15267887577E+03  0.79201634574E+02  0.24678655665E+03  0.00000000000E+00 0.  1.
          3    1    3    3  501    0  0.14170704332E+03 -0.16444903199E+03 -0.99159109483E+02  0.23865644605E+03  0.00000000000E+00 0.  1.
         21    1    1    2  502  501  0.35267154002E+02  0.11770156223E+02 -0.68028606145E+01  0.37796661776E+02  0.00000000000E+00 0. -1.
<scales pt_clust_4="550.00000" pt_clust_5="550.00000" pt_clust_6="37.17943"></scales>
<mgrwt>
<rscale>  0 0.30000000E+03</rscale>
<asrwt>  1 0.37179431E+02</asrwt>
<pdfrwt beam="1">  1        1 0.90268969E+00 0.30000000E+03</pdfrwt>
<pdfrwt beam="2">0</pdfrwt>
<totfact> 0.10021537E-04</totfact>
</mgrwt>
<clustering>
<clus scale="   37.179">  1  6  2 -1</clus>
<clus scale="  483.606">  4  5 -1 -1</clus>
<clus scale="  300.000">  1  4  2 -1</clus>
</clustering>
</event>
<event>
 6    1  0.9964252E-012  0.3000000E+03  0.7818608E-02  0.1093470E+00
          1   -1    0    0  502    0  0.00000000000E+00  0.00000000000E+00  0.25070356076E+03  0.25070356076E+03  0.00000000000E+00 0.  1.
         13   -1    0    0    0    0 -0.00000000000E+00 -0.00000000000E+00 -0.27500000000E+03  0.27500000000E+03  0.00000000000E+00 0.  1.
    9000005    2    1    2  501    0  0.31683782676E+02  0.92575523618E+01 -0.43630847512E+02  0.48744936225E+03  0.48436934827E+03 0.  0.
         13    1    3    3    0    0 -0.17345482555E+03  0.13067068720E+03 -0.10511985143E+03  0.24127077768E+03  0.00000000000E+00 0.  1.
          3    1    3    3  501    0  0.20513860823E+03 -0.12141313484E+03  0.61489003921E+02  0.24617858457E+03  0.00000000000E+00 0.  1.
         21    1    1    2  502  501 -0.31683782676E+02 -0.92575523618E+01  0.19334408270E+02  0.38254198509E+02  0.00000000000E+00 0. -1.
<scales pt_clust_4="550.00000" pt_clust_5="550.00000" pt_clust_6="33.00855"></scales>
<mgrwt>
<rscale>  0 0.30000000E+03</rscale>
<asrwt>  1 0.33008550E+02</asrwt>
<pdfrwt beam="1">  1        1 0.91164931E+00 0.30000000E+03</pdfrwt>
<pdfrwt beam="2">0</pdfrwt>
<totfact> 0.66142099E-05</totfact>
</mgrwt>
<clustering>
<clus scale="   33.009">  1  6  2 -1</clus>
<clus scale="  484.369">  4  5 -1 -1</clus>
<clus scale="  300.000">  1  4  2 -1</clus>
</clustering>
</event>
<event>
 6    1  0.9964252E-012  0.3000000E+03  0.7818608E-02  0.1093470E+00
          1   -1    0    0  502    0  0.00000000000E+00  0.00000000000E+00  0.23750145418E+03  0.23750145418E+03  0.00000000000E+00 0.  1.
         13   -1    0    0    0    0 -0.00000000000E+00 -0.00000000000E+00 -0.27500000000E+03  0.27500000000E+03  0.00000000000E+00 0.  1.
    9000005    2    1    2  501    0 -0.44215604133E+02 -0.10455595809E+02 -0.42596765400E+02  0.46678131665E+03  0.46260779719E+03 0.  0.
         13    1    3    3    0    0  0.17034152270E+03 -0.37262601419E+02 -0.14570280589E+03  0.22723125547E+03  0.00000000000E+00 0.  1.
          1    1    3    3  501    0 -0.21455712683E+03  0.26807005611E+02  0.10310604049E+03  0.23955006118E+03  0.00000000000E+00 0.  1.
         21    1    1    2  502  501  0.44215604133E+02  0.10455595809E+02  0.50982195747E+01  0.45720137526E+02  0.00000000000E+00 0.  1.
<scales pt_clust_4="550.00000" pt_clust_5="550.00000" pt_clust_6="45.43500"></scales>
<mgrwt>
<rscale>  0 0.30000000E+03</rscale>
<asrwt>  1 0.45434999E+02</asrwt>
<pdfrwt beam="1">  1        1 0.86364165E+00 0.30000000E+03</pdfrwt>
<pdfrwt beam="2">0</pdfrwt>
<totfact> 0.28176087E-04</totfact>
</mgrwt>
<clustering>
<clus scale="   45.435">  1  6  2 -1</clus>
<clus scale="  462.608">  4  5 -1 -1</clus>
<clus scale="  300.000">  1  4  2 -1</clus>
</clustering>
</event>
<event>
 6    1  0.9964252E-012  0.3000000E+03  0.7818608E-02  0.1093470E+00
          1   -1    0    0  502    0  0.00000000000E+00  0.00000000000E+00  0.23956426652E+03  0.23956426652E+03  0.00000000000E+00 0.  1.
         13   -1    0    0    0    0 -0.00000000000E+00 -0.00000000000E+00 -0.27500000000E+03  0.27500000000E+03  0.00000000000E+00 0.  1.
    9000005    2    1    2  501    0 -0.29038673074E+02  0.92375221779E+01 -0.60088544848E+02  0.47536812566E+03  0.47056949043E+03 0.  0.
         13    1    3    3    0    0  0.38839915085E+02  0.23079999005E+03  0.69186911358E+01  0.23414748066E+03  0.00000000000E+00 0.  1.
          3    1    3    3  501    0 -0.67878588159E+02 -0.22156246787E+03 -0.67007235984E+02  0.24122064500E+03  0.00000000000E+00 0.  1.
         21    1    1    2  502  501  0.29038673074E+02 -0.92375221779E+01  0.24652811368E+02  0.39196140859E+02  0.00000000000E+00 0.  1.
<scales pt_clust_4="550.00000" pt_clust_5="550.00000" pt_clust_6="30.47255"></scales>
<mgrwt>
<rscale>  0 0.30000000E+03</rscale>
<asrwt>  1 0.30472551E+02</asrwt>
<pdfrwt beam="1">  1        1 0.87114279E+00 0.30000000E+03</pdfrwt>
<pdfrwt beam="2">0</pdfrwt>
<totfact> 0.25309375E-04</totfact>
</mgrwt>
<clustering>
<clus scale="   30.473">  1  6  2 -1</clus>
<clus scale="  470.569">  4  5 -1 -1</clus>
<clus scale="  300.000">  1  4  2 -1</clus>
</clustering>
</event>
<event>
 6    1  0.9964252E-012  0.3000000E+03  0.7818608E-02  0.1093470E+00
          1   -1    0    0  502    0  0.00000000000E+00  0.00000000000E+00  0.22886028523E+03  0.22886028523E+03  0.00000000000E+00 0.  1.
         13   -1    0    0    0    0 -0.00000000000E+00 -0.00000000000E+00 -0.27500000000E+03  0.27500000000E+03  0.00000000000E+00 0.  1.
    9000005    2    1    2  501    0 -0.23694862757E+02  0.20061492367E+02 -0.65433300113E+02  0.46730686634E+03  0.46166035196E+03 0.  0.
         13    1    3    3    0    0 -0.19132622261E+03 -0.90934577273E+02  0.72040168358E+02  0.22375121600E+03  0.00000000000E+00 0.  1.
          1    1    3    3  501    0  0.16763135985E+03  0.11099606964E+03 -0.13747346847E+03  0.24355565035E+03  0.00000000000E+00 0.  1.
         21    1    1    2  502  501  0.23694862757E+02 -0.20061492367E+02  0.19293585344E+02  0.36553418889E+02  0.00000000000E+00 0. -1.
<scales pt_clust_4="550.00000" pt_clust_5="550.00000" pt_clust_6="31.04690"></scales>
<mgrwt>
<rscale>  0 0.30000000E+03</rscale>
<asrwt>  1 0.31046900E+02</asrwt>
<pdfrwt beam="1">  1        1 0.83221922E+00 0.30000000E+03</pdfrwt>
<pdfrwt beam="2">0</pdfrwt>
<totfact> 0.58048189E-04</totfact>
</mgrwt>
<clustering>
<clus scale="   31.047">  1  6  2 -1</clus>
<clus scale="  461.660">  4  5 -1 -1</clus>
<clus scale="  300.000">  1  4  2 -1</clus>
</clustering>
</event>
<event>
 6    1  0.9964252E-012  0.3000000E+03  0.7818608E-02  0.1093470E+00
          1   -1    0    0  502    0  0.00000000000E+00  0.00000000000E+00  0.22325516561E+03  0.22325516561E+03  0.00000000000E+00 0.  1.
         13   -1    0    0    0    0 -0.00000000000E+00 -0.00000000000E+00 -0.27500000000E+03  0.27500000000E+03  0.00000000000E+00 0.  1.
    9000005    2    1    2  501    0  0.76930997248E+01  0.31766018050E+02 -0.66352633384E+02  0.46245500531E+03  0.45650158411E+03 0.  0.
         13    1    3    3    0    0  0.15009990796E+03  0.42336804499E+02 -0.20889363705E+03  0.26068935342E+03  0.00000000000E+00 0.  1.
          1    1    3    3  501    0 -0.14240680824E+03 -0.10570786449E+02  0.14254100366E+03  0.20176565189E+03  0.00000000000E+00 0.  1.
         21    1    1    2  502  501 -0.76930997248E+01 -0.31766018050E+02  0.14607798995E+02  0.35800160302E+02  0.00000000000E+00 0.  1.
<scales pt_clust_4="550.00000" pt_clust_5="550.00000" pt_clust_6="32.68430"></scales>
<mgrwt>
<rscale>  0 0.30000000E+03</rscale>
<asrwt>  1 0.32684303E+02</asrwt>
<pdfrwt beam="1">  1        1 0.81183697E+00 0.30000000E+03</pdfrwt>
<pdfrwt beam="2">0</pdfrwt>
<totfact> 0.85463129E-04</totfact>
</mgrwt>
<clustering>
<clus scale="   32.684">  1  6  2 -1</clus>
<clus scale="  456.502">  4  5 -1 -1</clus>
<clus scale="  300.000">  1  4  2 -1</clus>
</clustering>
</event>
<event>
 6    1  0.9964252E-012  0.3000000E+03  0.7818608E-02  0.1093470E+00
          1   -1    0    0  502    0  0.00000000000E+00  0.00000000000E+00  0.24373674724E+03  0.24373674724E+03  0.00000000000E+00 0.  1.
         13   -1    0    0    0    0 -0.00000000000E+00 -0.00000000000E+00 -0.27500000000E+03  0.27500000000E+03  0.00000000000E+00 0.  1.
    9000005    2    1    2  501    0 -0.14382915436E+02  0.37092822957E+02 -0.54236609607E+02  0.47279634132E+03  0.46798720578E+03 0.  0.
         13    1    3    3    0    0  0.12373010535E+03  0.57202828941E+02  0.16430546158E+03  0.21348908008E+03  0.00000000000E+00 0.  1.
          3    1    3    3  501    0 -0.13811302078E+03 -0.20110005984E+02 -0.21854207119E+03  0.25930726124E+03  0.00000000000E+00 0.  1.
         21    1    1    2  502  501  0.14382915436E+02 -0.37092822957E+02  0.22973356850E+02  0.45940405923E+02  0.00000000000E+00 0.  1.
<scales pt_clust_4="550.00000" pt_clust_5="550.00000" pt_clust_6="39.78374"></scales>
<mgrwt>
<rscale>  0 0.30000000E+03</rscale>
<asrwt>  1 0.39783738E+02</asrwt>
<pdfrwt beam="1">  1        1 0.88631544E+00 0.30000000E+03</pdfrwt>
<pdfrwt beam="2">0</pdfrwt>
<totfact> 0.15896826E-04</totfact>
</mgrwt>
<clustering>
<clus scale="   39.784">  1  6  2 -1</clus>
<clus scale="  467.987">  4  5 -1 -1</clus>
<clus scale="  300.000">  1  4  2 -1</clus>
</clustering>
</event>
<event>
 6    1  0.9964252E-012  0.3000000E+03  0.7818608E-02  0.1093470E+00
          1   -1    0    0  502    0  0.00000000000E+00  0.00000000000E+00  0.24333707189E+03  0.24333707189E+03  0.00000000000E+00 0.  1.
         13   -1    0    0    0    0 -0.00000000000E+00 -0.00000000000E+00 -0.27500000000E+03  0.27500000000E+03  0.00000000000E+00 0.  1.
    9000005    2    1    2  501    0  0.47598736134E+01 -0.30450163786E+02 -0.54001205319E+02  0.48027307972E+03  0.47623128001E+03 0.  0.
         13    1    3    3    0    0 -0.99493690200E+02 -0.26830995840E+02  0.18931183726E+03  0.21554087421E+03  0.00000000000E+00 0.  1.
          3    1    3    3  501    0  0.10425356381E+03 -0.36191679464E+01 -0.24331304258E+03  0.26473220551E+03  0.00000000000E+00 0.  1.
         21    1    1    2  502  501 -0.47598736134E+01  0.30450163786E+02  0.22338277214E+02  0.38063992175E+02  0.00000000000E+00 0. -1.
<scales pt_clust_4="550.00000" pt_clust_5="550.00000" pt_clust_6="30.81994"></scales>
<mgrwt>
<rscale>  0 0.30000000E+03</rscale>
<asrwt>  1 0.30819943E+02</asrwt>
<pdfrwt beam="1">  1        1 0.88486208E+00 0.30000000E+03</pdfrwt>
<pdfrwt beam="2">0</pdfrwt>
<totfact> 0.17460041E-04</totfact>
</mgrwt>
<clustering>
<clus scale="   30.820">  1  6  2 -1</clus>
<clus scale="  476.231">  4  5 -1 -1</clus>
<clus scale="  300.000">  1  4  2 -1</clus>
</clustering>
</event>
<event>
 6    1  0.9964252E-012  0.3000000E+03  0.7818608E-02  0.1093470E+00
          1   -1    0    0  502    0  0.00000000000E+00  0.00000000000E+00  0.23793135051E+03  0.23793135051E+03  0.00000000000E+00 0.  1.
         13   -1    0    0    0    0 -0.00000000000E+00 -0.00000000000E+00 -0.27500000000E+03  0.27500000000E+03  0.00000000000E+00 0.  1.
    9000005    2    1    2  501    0 -0.28918130543E+02  0.13967985774E+02 -0.43911291897E+02  0.48009562826E+03  0.47700340441E+03 0.  0.
         13    1    3    3    0    0  0.20820801239E+03 -0.79229332691E+02 -0.92465245317E+01  0.22296493401E+03  0.00000000000E+00 0.  1.
          1    1    3    3  501    0 -0.23712614293E+03  0.93197318465E+02 -0.34664767365E+02  0.25713069425E+03  0.00000000000E+00 0.  1.
         21    1    1    2  502  501  0.28918130543E+02 -0.13967985774E+02  0.68426424071E+01  0.32835722251E+02  0.00000000000E+00 0. -1.
<scales pt_clust_4="550.00000" pt_clust_5="550.00000" pt_clust_6="32.11484"></scales>
<mgrwt>
<rscale>  0 0.30000000E+03</rscale>
<asrwt>  1 0.32114839E+02</asrwt>
<pdfrwt beam="1">  1        1 0.86520491E+00 0.30000000E+03</pdfrwt>
<pdfrwt beam="2">0</pdfrwt>
<totfact> 0.28890358E-04</totfact>
</mgrwt>
<clustering>
<clus scale="   32.115">  1  6  2 -1</clus>
<clus scale="  477.003">  4  5 -1 -1</clus>
<clus scale="  300.000">  1  4  2 -1</clus>
</clustering>
</event>
<event>
 6    1  0.9964252E-012  0.3000000E+03  0.7818608E-02  0.1093470E+00
          1   -1    0    0  502    0  0.00000000000E+00  0.00000000000E+00  0.23189249328E+03  0.23189249328E+03  0.00000000000E+00 0.  1.
         13   -1    0    0    0    0 -0.00000000000E+00 -0.00000000000E+00 -0.27500000000E+03  0.27500000000E+03  0.00000000000E+00 0.  1.
    9000005    2    1    2  501    0 -0.30707961795E+02 -0.94964385222E+01 -0.49923061525E+02  0.47403502762E+03  0.47030174790E+03 0.  0.
         13    1    3    3    0    0 -0.17027670451E+03 -0.10382263920E+03 -0.17411934368E+03  0.26474675136E+03  0.00000000000E+00 0.  1.
          1    1    3    3  501    0  0.13956874272E+03  0.94326200680E+02  0.12419628216E+03  0.20928827626E+03  0.00000000000E+00 0.  1.
         21    1    1    2  502  501  0.30707961795E+02  0.94964385222E+01  0.68155548044E+01  0.32857465658E+02  0.00000000000E+00 0.  1.
<scales pt_clust_4="550.00000" pt_clust_5="550.00000" pt_clust_6="32.14283"></scales>
<mgrwt>
<rscale>  0 0.30000000E+03</rscale>
<asrwt>  1 0.32142826E+02</asrwt>
<pdfrwt beam="1">  1        1 0.84324543E+00 0.30000000E+03</pdfrwt>
<pdfrwt beam="2">0</pdfrwt>
<totfact> 0.47537679E-04</totfact>
</mgrwt>
<clustering>
<clus scale="   32.143">  1  6  2 -1</clus>
<clus scale="  470.302">  4  5 -1 -1</clus>
<clus scale="  300.000">  1  4  2 -1</clus>
</clustering>
</event>
<event>
 6    1  0.9964252E-012  0.3000000E+03  0.7818608E-02  0.1093470E+00
          1   -1    0    0  502    0  0.00000000000E+00  0.00000000000E+00  0.22331675581E+03  0.22331675581E+03  0.00000000000E+00 0.  1.
         13   -1    0    0    0    0 -0.00000000000E+00 -0.00000000000E+00 -0.27500000000E+03  0.27500000000E+03  0.00000000000E+00 0.  1.
    9000005    2    1    2  501    0  0.48371512510E+00  0.34400706155E+02 -0.43761095266E+02  0.46301232255E+03  0.45965392940E+03 0.  0.
         13    1    3    3    0    0  0.37863711603E+02 -0.16150357184E+03 -0.16141527278E+03  0.23145616142E+03  0.00000000000E+00 0.  1.
          3    1    3    3  501    0 -0.37379996478E+02  0.19590427799E+03  0.11765417751E+03  0.23155616113E+03  0.00000000000E+00 0.  1.
         21    1    1    2  502  501 -0.48371512510E+00 -0.34400706155E+02 -0.79221489220E+01  0.35304433260E+02  0.00000000000E+00 0.  1.
<scales pt_clust_4="550.00000" pt_clust_5="550.00000" pt_clust_6="34.40412"></scales>
<mgrwt>
<rscale>  0 0.30000000E+03</rscale>
<asrwt>  1 0.34404124E+02</asrwt>
<pdfrwt beam="1">  1        1 0.81206093E+00 0.30000000E+03</pdfrwt>
<pdfrwt beam="2">0</pdfrwt>
<totfact> 0.84297067E-04</totfact>
</mgrwt>
<clustering>
<clus scale="   34.404">  1  6  2 -1</clus>
<clus scale="  459.654">  4  5 -1 -1</clus>
<clus scale="  300.000">  1  4  2 -1</clus>
</clustering>
</event>
<event>
 6    1  0.9964252E-012  0.3000000E+03  0.7818608E-02  0.1093470E+00
          1   -1    0    0  502    0  0.00000000000E+00  0.00000000000E+00  0.23842594628E+03  0.23842594628E+03  0.00000000000E+00 0.  1.
         13   -1    0    0    0    0 -0.00000000000E+00 -0.00000000000E+00 -0.27500000000E+03  0.27500000000E+03  0.00000000000E+00 0.  1.
    9000005    2    1    2  501    0 -0.36039500136E+01  0.46802403106E+02 -0.35353991013E+02  0.46646913692E+03  0.46275273919E+03 0.  0.
         13    1    3    3    0    0 -0.16218229295E+03 -0.61697119929E+02 -0.16114905719E+03  0.23680931018E+03  0.00000000000E+00 0.  1.
          3    1    3    3  501    0  0.15857834294E+03  0.10849952304E+03  0.12579506618E+03  0.22965982675E+03  0.00000000000E+00 0.  1.
         21    1    1    2  502  501  0.36039500136E+01 -0.46802403106E+02 -0.12200627033E+01  0.46956809359E+02  0.00000000000E+00 0. -1.
<scales pt_clust_4="550.00000" pt_clust_5="550.00000" pt_clust_6="46.94096"></scales>
<mgrwt>
<rscale>  0 0.30000000E+03</rscale>
<asrwt>  1 0.46940956E+02</asrwt>
<pdfrwt beam="1">  1        1 0.86700344E+00 0.30000000E+03</pdfrwt>
<pdfrwt beam="2">0</pdfrwt>
<totfact> 0.25783719E-04</totfact>
</mgrwt>
<clustering>
<clus scale="   46.941">  1  6  2 -1</clus>
<clus scale="  462.753">  4  5 -1 -1</clus>
<clus scale="  300.000">  1  4  2 -1</clus>
</clustering>
</event>
<event>
 6    1  0.9964252E-012  0.3000000E+03  0.7818608E-02  0.1093470E+00
          1   -1    0    0  502    0  0.00000000000E+00  0.00000000000E+00  0.22481021685E+03  0.22481021685E+03  0.00000000000E+00 0.  1.
         13   -1    0    0    0    0 -0.00000000000E+00 -0.00000000000E+00 -0.27500000000E+03  0.27500000000E+03  0.00000000000E+00 0.  1.
    9000005    2    1    2  501    0 -0.33525929781E+02  0.12208174783E+02 -0.56304609474E+02  0.46361051243E+03  0.45879349460E+03 0.  0.
         13    1    3    3    0    0 -0.46756769547E+02  0.18797434923E+02 -0.25724129283E+03  0.26213092491E+03  0.00000000000E+00 0.  1.
          3    1    3    3  501    0  0.13230839766E+02 -0.65892601394E+01  0.20093668335E+03  0.20147958752E+03  0.00000000000E+00 0.  1.
         21    1    1    2  502  501  0.33525929781E+02 -0.12208174783E+02  0.61148263260E+01  0.36199704421E+02  0.00000000000E+00 0.  1.
<scales pt_clust_4="550.00000" pt_clust_5="550.00000" pt_clust_6="35.67951"></scales>
<mgrwt>
<rscale>  0 0.30000000E+03</rscale>
<asrwt>  1 0.35679511E+02</asrwt>
<pdfrwt beam="1">  1        1 0.81749170E+00 0.30000000E+03</pdfrwt>
<pdfrwt beam="2">0</pdfrwt>
<totfact> 0.75684896E-04</totfact>
</mgrwt>
<clustering>
<clus scale="   35.680">  1  6  2 -1</clus>
<clus scale="  458.793">  4  5 -1 -1</clus>
<clus scale="  300.000">  1  4  2 -1</clus>
</clustering>
</event>
<event>
 6    1  0.9964252E-012  0.3000000E+03  0.7818608E-02  0.1093470E+00
          1   -1    0    0  502    0  0.00000000000E+00  0.00000000000E+00  0.22470619589E+03  0.22470619589E+03  0.00000000000E+00 0.  1.
         13   -1    0    0    0    0 -0.00000000000E+00 -0.00000000000E+00 -0.27500000000E+03  0.27500000000E+03  0.00000000000E+00 0.  1.
    9000005    2    1    2  501    0  0.13202398306E+02  0.28018827768E+02 -0.34527099862E+02  0.46495066406E+03  0.46263121528E+03 0.  0.
         13    1    3    3    0    0  0.10556190107E+03 -0.15978262478E+03 -0.13350018543E+03  0.23344400110E+03  0.00000000000E+00 0.  1.
          3    1    3    3  501    0 -0.92359502760E+02  0.18780145255E+03  0.98973085566E+02  0.23150666296E+03  0.00000000000E+00 0.  1.
         21    1    1    2  502  501 -0.13202398306E+02 -0.28018827768E+02 -0.15766704243E+02  0.34755531836E+02  0.00000000000E+00 0. -1.
<scales pt_clust_4="550.00000" pt_clust_5="550.00000" pt_clust_6="30.97352"></scales>
<mgrwt>
<rscale>  0 0.30000000E+03</rscale>
<asrwt>  1 0.30973521E+02</asrwt>
<pdfrwt beam="1">  1        1 0.81711344E+00 0.30000000E+03</pdfrwt>
<pdfrwt beam="2">0</pdfrwt>
<totfact> 0.78294706E-04</totfact>
</mgrwt>
<clustering>
<clus scale="   30.974">  1  6  2 -1</clus>
<clus scale="  462.631">  4  5 -1 -1</clus>
<clus scale="  300.000">  1  4  2 -1</clus>
</clustering>
</event>
<event>
 6    1  0.9964252E-012  0.3000000E+03  0.7818608E-02  0.1093470E+00
          1   -1    0    0  502    0  0.00000000000E+00  0.00000000000E+00  0.22720923770E+03  0.22720923770E+03  0.00000000000E+00 0.  1.
         13   -1    0    0    0    0 -0.00000000000E+00 -0.00000000000E+00 -0.27500000000E+03  0.27500000000E+03  0.00000000000E+00 0.  1.
    9000005    2    1    2  501    0 -0.39693653753E+01 -0.34789384375E+02 -0.65467356891E+02  0.46298527662E+03  0.45699380129E+03 0.  0.
         13    1    3    3    0    0 -0.23410373433E+01  0.20785383324E+03  0.12158602074E+02  0.20822230440E+03  0.00000000000E+00 0.  1.
          1    1    3    3  501    0 -0.16283280321E+01 -0.24264321761E+03 -0.77625958965E+02  0.25476297221E+03  0.00000000000E+00 0.  1.
         21    1    1    2  502  501  0.39693653753E+01  0.34789384375E+02  0.17676594588E+02  0.39223961081E+02  0.00000000000E+00 0.  1.
<scales pt_clust_4="550.00000" pt_clust_5="550.00000" pt_clust_6="35.01510"></scales>
<mgrwt>
<rscale>  0 0.30000000E+03</rscale>
<asrwt>  1 0.35015099E+02</asrwt>
<pdfrwt beam="1">  1        1 0.82621541E+00 0.30000000E+03</pdfrwt>
<pdfrwt beam="2">0</pdfrwt>
<totfact> 0.63705476E-04</totfact>
</mgrwt>
<clustering>
<clus scale="   35.015">  1  6  2 -1</clus>
<clus scale="  456.994">  4  5 -1 -1</clus>
<clus scale="  300.000">  1  4  2 -1</clus>
</clustering>
</event>
<event>
 6    1  0.9964252E-012  0.3000000E+03  0.7818608E-02  0.1093470E+00
          1   -1    0    0  502    0  0.00000000000E+00  0.00000000000E+00  0.22467479073E+03  0.22467479073E+03  0.00000000000E+00 0.  1.
         13   -1    0    0    0    0 -0.00000000000E+00 -0.00000000000E+00 -0.27500000000E+03  0.27500000000E+03  0.00000000000E+00 0.  1.
    9000005    2    1    2  501    0  0.13937758697E+02  0.35672404753E+02 -0.53360641047E+02  0.46125610485E+03  0.45655564247E+03 0.  0.
         13    1    3    3    0    0 -0.76516194055E+02  0.18286267070E+03  0.10724078063E+03  0.22537539644E+03  0.00000000000E+00 0.  1.
          1    1    3    3  501    0  0.90453952753E+02 -0.14719026595E+03 -0.16060142167E+03  0.23588070842E+03  0.00000000000E+00 0.  1.
         21    1    1    2  502  501 -0.13937758697E+02 -0.35672404753E+02  0.30354317767E+01  0.38418685876E+02  0.00000000000E+00 0.  1.
<scales pt_clust_4="550.00000" pt_clust_5="550.00000" pt_clust_6="38.29858"></scales>
<mgrwt>
<rscale>  0 0.30000000E+03</rscale>
<asrwt>  1 0.38298585E+02</asrwt>
<pdfrwt beam="1">  1        1 0.81699924E+00 0.30000000E+03</pdfrwt>
<pdfrwt beam="2">0</pdfrwt>
<totfact> 0.75400644E-04</totfact>
</mgrwt>
<clustering>
<clus scale="   38.299">  1  6  2 -1</clus>
<clus scale="  456.556">  4  5 -1 -1</clus>
<clus scale="  300.000">  1  4  2 -1</clus>
</clustering>
</event>
<event>
 6    1  0.9964252E-012  0.3000000E+03  0.7818608E-02  0.1093470E+00
          1   -1    0    0  502    0  0.00000000000E+00  0.00000000000E+00  0.24657229450E+03  0.24657229450E+03  0.00000000000E+00 0.  1.
         13   -1    0    0    0    0 -0.00000000000E+00 -0.00000000000E+00 -0.27500000000E+03  0.27500000000E+03  0.00000000000E+00 0.  1.
    9000005    2    1    2  501    0 -0.34247688099E+02  0.10415573159E+02 -0.61062572328E+02  0.47313240559E+03  0.46780791697E+03 0.  0.
         13    1    3    3    0    0 -0.19375166072E+02  0.26818828629E+02 -0.26547276154E+03  0.26752651036E+03  0.00000000000E+00 0.  1.
          1    1    3    3  501    0 -0.14872522027E+02 -0.16403255470E+02  0.20441018921E+03  0.20560589523E+03  0.00000000000E+00 0.  1.
         21    1    1    2  502  501  0.34247688099E+02 -0.10415573159E+02  0.32634866824E+02  0.48439888903E+02  0.00000000000E+00 0. -1.
<scales pt_clust_4="550.00000" pt_clust_5="550.00000" pt_clust_6="35.79648"></scales>
<mgrwt>
<rscale>  0 0.30000000E+03</rscale>
<asrwt>  1 0.35796485E+02</asrwt>
<pdfrwt beam="1">  1        1 0.89662653E+00 0.30000000E+03</pdfrwt>
<pdfrwt beam="2">0</pdfrwt>
<totfact> 0.12042356E-04</totfact>
</mgrwt>
<clustering>
<clus scale="   35.796">  1  6  2 -1</clus>
<clus scale="  467.808">  4  5 -1 -1</clus>
<clus scale="  300.000">  1  4  2 -1</clus>
</clustering>
</event>
<event>
 6    1  0.9964252E-012  0.3000000E+03  0.7818608E-02  0.1093470E+00
          1   -1    0    0  502    0  0.00000000000E+00  0.00000000000E+00  0.23938411104E+03  0.23938411104E+03  0.00000000000E+00 0.  1.
         13   -1    0    0    0    0 -0.00000000000E+00 -0.00000000000E+00 -0.27500000000E+03  0.27500000000E+03  0.00000000000E+00 0.  1.
    9000005    2    1    2  501    0  0.30869831500E+02  0.62886067524E+01 -0.75052690295E+02  0.46390882628E+03  0.45671216287E+03 0.  0.
         13    1    3    3    0    0  0.26837276350E+02 -0.11130947620E+03  0.16251398697E+03  0.19879847800E+03  0.00000000000E+00 0.  1.
          3    1    3    3  501    0  0.40325551500E+01  0.11759808296E+03 -0.23756667727E+03  0.26511034828E+03  0.00000000000E+00 0.  1.
         21    1    1    2  502  501 -0.30869831500E+02 -0.62886067524E+01  0.39436801334E+02  0.50475284756E+02  0.00000000000E+00 0.  1.
<scales pt_clust_4="550.00000" pt_clust_5="550.00000" pt_clust_6="31.50386"></scales>
<mgrwt>
<rscale>  0 0.30000000E+03</rscale>
<asrwt>  1 0.31503858E+02</asrwt>
<pdfrwt beam="1">  1        1 0.87048768E+00 0.30000000E+03</pdfrwt>
<pdfrwt beam="2">0</pdfrwt>
<totfact> 0.25538785E-04</totfact>
</mgrwt>
<clustering>
<clus scale="   31.504">  1  6  2 -1</clus>
<clus scale="  456.712">  4  5 -1 -1</clus>
<clus scale="  300.000">  1  4  2 -1</clus>
</clustering>
</event>
<event>
 6    1  0.9964252E-012  0.3000000E+03  0.7818608E-02  0.1093470E+00
          1   -1    0    0  502    0  0.00000000000E+00  0.00000000000E+00  0.24104488070E+03  0.24104488070E+03  0.00000000000E+00 0.  1.
         13   -1    0    0    0    0 -0.00000000000E+00 -0.00000000000E+00 -0.27500000000E+03  0.27500000000E+03  0.00000000000E+00 0.  1.
    9000005    2    1    2  501    0 -0.77793339528E-01 -0.41446413339E+02 -0.14772330448E+02  0.47037442396E+03  0.46831193209E+03 0.  0.
         13    1    3    3    0    0 -0.17688721711E+03  0.11934854467E+03 -0.70947389061E+02  0.22487039535E+03  0.00000000000E+00 0.  1.
          3    1    3    3  501    0  0.17680942377E+03 -0.16079495801E+03  0.56175058613E+02  0.24550402861E+03  0.00000000000E+00 0.  1.
         21    1    1    2  502  501  0.77793339528E-01  0.41446413339E+02 -0.19182788852E+02  0.45670456738E+02  0.00000000000E+00 0.  1.
<scales pt_clust_4="550.00000" pt_clust_5="550.00000" pt_clust_6="41.44651"></scales>
<mgrwt>
<rscale>  0 0.30000000E+03</rscale>
<asrwt>  1 0.41446507E+02</asrwt>
<pdfrwt beam="1">  1        1 0.87652684E+00 0.30000000E+03</pdfrwt>
<pdfrwt beam="2">0</pdfrwt>
<totfact> 0.20994079E-04</totfact>
</mgrwt>
<clustering>
<clus scale="   41.447">  1  6  2 -1</clus>
<clus scale="  468.312">  4  5 -1 -1</clus>
<clus scale="  300.000">  1  4  2 -1</clus>
</clustering>
</event>
<event>
 6    1  0.9964252E-012  0.3000000E+03  0.7818608E-02  0.1093470E+00
          1   -1    0    0  502    0  0.00000000000E+00  0.00000000000E+00  0.22771833132E+03  0.22771833132E+03  0.00000000000E+00 0.  1.
         13   -1    0    0    0    0 -0.00000000000E+00 -0.00000000000E+00 -0.27500000000E+03  0.27500000000E+03  0.00000000000E+00 0.  1.
    9000005    2    1    2  501    0  0.11408310635E+02  0.36511128100E+02 -0.49688744578E+02  0.46439071672E+03  0.46013753858E+03 0.  0.
         13    1    3    3    0    0 -0.58793887244E+02 -0.19328436903E+03 -0.89270299836E+02  0.22087271203E+03  0.00000000000E+00 0.  1.
          3    1    3    3  501    0  0.70202197879E+02  0.22979549713E+03  0.39581555258E+02  0.24351800468E+03  0.00000000000E+00 0.  1.
         21    1    1    2  502  501 -0.11408310635E+02 -0.36511128100E+02  0.24070758952E+01  0.38327614601E+02  0.00000000000E+00 0.  1.
<scales pt_clust_4="550.00000" pt_clust_5="550.00000" pt_clust_6="38.25195"></scales>
<mgrwt>
<rscale>  0 0.30000000E+03</rscale>
<asrwt>  1 0.38251955E+02</asrwt>
<pdfrwt beam="1">  1        1 0.82806666E+00 0.30000000E+03</pdfrwt>
<pdfrwt beam="2">0</pdfrwt>
<totfact> 0.60369517E-04</totfact>
</mgrwt>
<clustering>
<clus scale="   38.252">  1  6  2 -1</clus>
<clus scale="  460.138">  4  5 -1 -1</clus>
<clus scale="  300.000">  1  4  2 -1</clus>
</clustering>
</event>
<event>
 6    1  0.9964252E-012  0.3000000E+03  0.7818608E-02  0.1093470E+00
          1   -1    0    0  502    0  0.00000000000E+00  0.00000000000E+00  0.22848534403E+03  0.22848534403E+03  0.00000000000E+00 0.  1.
         13   -1    0    0    0    0 -0.00000000000E+00 -0.00000000000E+00 -0.27500000000E+03  0.27500000000E+03  0.00000000000E+00 0.  1.
    9000005    2    1    2  501    0 -0.20124085108E+02  0.28728830253E+02 -0.40486184701E+02  0.46789507914E+03  0.46481861994E+03 0.  0.
         13    1    3    3    0    0 -0.40986095218E+02  0.20398319865E+03  0.11054394518E+03  0.23560341498E+03  0.00000000000E+00 0.  1.
          3    1    3    3  501    0  0.20862010109E+02 -0.17525436840E+03 -0.15103012988E+03  0.23229166416E+03  0.00000000000E+00 0.  1.
         21    1    1    2  502  501  0.20124085108E+02 -0.28728830253E+02 -0.60284712688E+01  0.35590264891E+02  0.00000000000E+00 0.  1.
<scales pt_clust_4="550.00000" pt_clust_5="550.00000" pt_clust_6="35.07600"></scales>
<mgrwt>
<rscale>  0 0.30000000E+03</rscale>
<asrwt>  1 0.35075999E+02</asrwt>
<pdfrwt beam="1">  1        1 0.83085580E+00 0.30000000E+03</pdfrwt>
<pdfrwt beam="2">0</pdfrwt>
<totfact> 0.58138396E-04</totfact>
</mgrwt>
<clustering>
<clus scale="   35.076">  1  6  2 -1</clus>
<clus scale="  464.819">  4  5 -1 -1</clus>
<clus scale="  300.000">  1  4  2 -1</clus>
</clustering>
</event>
<event>
 6    1  0.9964252E-012  0.3000000E+03  0.7818608E-02  0.1093470E+00
          1   -1    0    0  502    0  0.00000000000E+00  0.00000000000E+00  0.23283759367E+03  0.23283759367E+03  0.00000000000E+00 0.  1.
         13   -1    0    0    0    0 -0.00000000000E+00 -0.00000000000E+00 -0.27500000000E+03  0.27500000000E+03  0.00000000000E+00 0.  1.
    9000005    2    1    2  501    0  0.36405725001E+02 -0.20007674095E+01 -0.60657787448E+02  0.46695411282E+03  0.46155974307E+03 0.  0.
         13    1    3    3    0    0  0.19592286531E+03 -0.99234109816E+02  0.79330058400E+02  0.23350896314E+03  0.00000000000E+00 0.  1.
          1    1    3    3  501    0 -0.15951714030E+03  0.97233342406E+02 -0.13998784585E+03  0.23344514969E+03  0.00000000000E+00 0.  1.
         21    1    1    2  502  501 -0.36405725001E+02  0.20007674095E+01  0.18495381113E+02  0.40883480840E+02  0.00000000000E+00 0.  1.
<scales pt_clust_4="550.00000" pt_clust_5="550.00000" pt_clust_6="36.46066"></scales>
<mgrwt>
<rscale>  0 0.30000000E+03</rscale>
<asrwt>  1 0.36460662E+02</asrwt>
<pdfrwt beam="1">  1        1 0.84668216E+00 0.30000000E+03</pdfrwt>
<pdfrwt beam="2">0</pdfrwt>
<totfact> 0.43326898E-04</totfact>
</mgrwt>
<clustering>
<clus scale="   36.461">  1  6  2 -1</clus>
<clus scale="  461.560">  4  5 -1 -1</clus>
<clus scale="  300.000">  1  4  2 -1</clus>
</clustering>
</event>
<event>
 6    1  0.9964252E-012  0.3000000E+03  0.7818608E-02  0.1093470E+00
          1   -1    0    0  502    0  0.00000000000E+00  0.00000000000E+00  0.22703117861E+03  0.22703117861E+03  0.00000000000E+00 0.  1.
         13   -1    0    0    0    0 -0.00000000000E+00 -0.00000000000E+00 -0.27500000000E+03  0.27500000000E+03  0.00000000000E+00 0.  1.
    9000005    2    1    2  501    0  0.23332375562E+02 -0.27111276995E+02 -0.55751416887E+02  0.46542530637E+03  0.46068761025E+03 0.  0.
         13    1    3    3    0    0  0.22077598070E+03  0.43852480326E+02 -0.10733078865E+03  0.24936914781E+03  0.00000000000E+00 0.  1.
          1    1    3    3  501    0 -0.19744360514E+03 -0.70963757321E+02  0.51579371761E+02  0.21605615857E+03  0.00000000000E+00 0.  1.
         21    1    1    2  502  501 -0.23332375562E+02  0.27111276995E+02  0.77825955005E+01  0.36605872239E+02  0.00000000000E+00 0.  1.
<scales pt_clust_4="550.00000" pt_clust_5="550.00000" pt_clust_6="35.76900"></scales>
<mgrwt>
<rscale>  0 0.30000000E+03</rscale>
<asrwt>  1 0.35768996E+02</asrwt>
<pdfrwt beam="1">  1        1 0.82556792E+00 0.30000000E+03</pdfrwt>
<pdfrwt beam="2">0</pdfrwt>
<totfact> 0.64298751E-04</totfact>
</mgrwt>
<clustering>
<clus scale="   35.769">  1  6  2 -1</clus>
<clus scale="  460.688">  4  5 -1 -1</clus>
<clus scale="  300.000">  1  4  2 -1</clus>
</clustering>
</event>
<event>
 6    1  0.9964252E-012  0.3000000E+03  0.7818608E-02  0.1093470E+00
          1   -1    0    0  502    0  0.00000000000E+00  0.00000000000E+00  0.24308288154E+03  0.24308288154E+03  0.00000000000E+00 0.  1.
         13   -1    0    0    0    0 -0.00000000000E+00 -0.00000000000E+00 -0.27500000000E+03  0.27500000000E+03  0.00000000000E+00 0.  1.
    9000005    2    1    2  501    0 -0.14153452277E+02  0.34336310796E+02  0.44664398461E+00  0.46882117663E+03  0.46734761550E+03 0.  0.
         13    1    3    3    0    0 -0.80332627089E+02 -0.19630688182E+03 -0.61802514847E+02  0.22092820930E+03  0.00000000000E+00 0.  1.
          1    1    3    3  501    0  0.66179174812E+02  0.23064319261E+03  0.62249158832E+02  0.24789296733E+03  0.00000000000E+00 0.  1.
         21    1    1    2  502  501  0.14153452277E+02 -0.34336310796E+02 -0.32363762448E+02  0.49261704906E+02  0.00000000000E+00 0. -1.
<scales pt_clust_4="550.00000" pt_clust_5="550.00000" pt_clust_6="37.13898"></scales>
<mgrwt>
<rscale>  0 0.30000000E+03</rscale>
<asrwt>  1 0.37138980E+02</asrwt>
<pdfrwt beam="1">  1        1 0.88393775E+00 0.30000000E+03</pdfrwt>
<pdfrwt beam="2">0</pdfrwt>
<totfact> 0.17352948E-04</totfact>
</mgrwt>
<clustering>
<clus scale="   37.139">  1  6  2 -1</clus>
<clus scale="  467.348">  4  5 -1 -1</clus>
<clus scale="  300.000">  1  4  2 -1</clus>
</clustering>
</event>
<event>
 6    1  0.9964252E-012  0.3000000E+03  0.7818608E-02  0.1093470E+00
          1   -1    0    0  502    0  0.00000000000E+00  0.00000000000E+00  0.24496195190E+03  0.24496195190E+03  0.00000000000E+00 0.  1.
         13   -1    0    0    0    0 -0.00000000000E+00 -0.00000000000E+00 -0.27500000000E+03  0.27500000000E+03  0.00000000000E+00 0.  1.
    9000005    2    1    2  501    0 -0.38282802994E+02  0.40095565430E+01 -0.42936104337E+02  0.47936626982E+03  0.47588534547E+03 0.  0.
         13    1    3    3    0    0  0.15852203430E+02  0.13173444938E+03  0.17585936437E+03  0.22029928176E+03  0.00000000000E+00 0.  1.
          1    1    3    3  501    0 -0.54135006424E+02 -0.12772489284E+03 -0.21879546871E+03  0.25906698806E+03  0.00000000000E+00 0.  1.
         21    1    1    2  502  501  0.38282802994E+02 -0.40095565430E+01  0.12898056235E+02  0.40595682078E+02  0.00000000000E+00 0.  1.
<scales pt_clust_4="550.00000" pt_clust_5="550.00000" pt_clust_6="38.49220"></scales>
<mgrwt>
<rscale>  0 0.30000000E+03</rscale>
<asrwt>  1 0.38492201E+02</asrwt>
<pdfrwt beam="1">  1        1 0.89077073E+00 0.30000000E+03</pdfrwt>
<pdfrwt beam="2">0</pdfrwt>
<totfact> 0.13913591E-04</totfact>
</mgrwt>
<clustering>
<clus scale="   38.492">  1  6  2 -1</clus>
<clus scale="  475.885">  4  5 -1 -1</clus>
<clus scale="  300.000">  1  4  2 -1</clus>
</clustering>
</event>
<event>
 6    1  0.9964252E-012  0.3000000E+03  0.7818608E-02  0.1093470E+00
          1   -1    0    0  502    0  0.00000000000E+00  0.00000000000E+00  0.23586697711E+03  0.23586697711E+03  0.00000000000E+00 0.  1.
         13   -1    0    0    0    0 -0.00000000000E+00 -0.00000000000E+00 -0.27500000000E+03  0.27500000000E+03  0.00000000000E+00 0.  1.
    9000005    2    1    2  501    0  0.10507787505E+02 -0.38575241788E+02 -0.60216803385E+02  0.46566754484E+03  0.46002362552E+03 0.  0.
         13    1    3    3    0    0  0.14952747990E+02 -0.20825744479E+03  0.10066946414E+03  0.23179536016E+03  0.00000000000E+00 0.  1.
          1    1    3    3  501    0 -0.44449604851E+01  0.16968220300E+03 -0.16088626753E+03  0.23387218468E+03  0.00000000000E+00 0.  1.
         21    1    1    2  502  501 -0.10507787505E+02  0.38575241788E+02  0.21083780497E+02  0.45199432268E+02  0.00000000000E+00 0. -1.
<scales pt_clust_4="550.00000" pt_clust_5="550.00000" pt_clust_6="39.98078"></scales>
<mgrwt>
<rscale>  0 0.30000000E+03</rscale>
<asrwt>  1 0.39980781E+02</asrwt>
<pdfrwt beam="1">  1        1 0.85769810E+00 0.30000000E+03</pdfrwt>
<pdfrwt beam="2">0</pdfrwt>
<totfact> 0.33373907E-04</totfact>
</mgrwt>
<clustering>
<clus scale="   39.981">  1  6  2 -1</clus>
<clus scale="  460.024">  4  5 -1 -1</clus>
<clus scale="  300.000">  1  4  2 -1</clus>
</clustering>
</event>
<event>
 6    1  0.9964252E-012  0.3000000E+03  0.7818608E-02  0.1093470E+00
          1   -1    0    0  502    0  0.00000000000E+00  0.00000000000E+00  0.23659704050E+03  0.23659704050E+03  0.00000000000E+00 0.  1.
         13   -1    0    0    0    0 -0.00000000000E+00 -0.00000000000E+00 -0.27500000000E+03  0.27500000000E+03  0.00000000000E+00 0.  1.
    9000005    2    1    2  501    0 -0.13830250722E+02  0.32474500725E+02 -0.50112711368E+02  0.47440850300E+03  0.47043200874E+03 0.  0.
         13    1    3    3    0    0 -0.17738799231E+03  0.13397019691E+02 -0.18859136336E+03  0.25925408828E+03  0.00000000000E+00 0.  1.
          3    1    3    3  501    0  0.16355774159E+03  0.19077481033E+02  0.13847865200E+03  0.21515441473E+03  0.00000000000E+00 0.  1.
         21    1    1    2  502  501  0.13830250722E+02 -0.32474500725E+02  0.11709751870E+02  0.37188537497E+02  0.00000000000E+00 0. -1.
<scales pt_clust_4="550.00000" pt_clust_5="550.00000" pt_clust_6="35.29687"></scales>
<mgrwt>
<rscale>  0 0.30000000E+03</rscale>
<asrwt>  1 0.35296870E+02</asrwt>
<pdfrwt beam="1">  1        1 0.86035287E+00 0.30000000E+03</pdfrwt>
<pdfrwt beam="2">0</pdfrwt>
<totfact> 0.32016203E-04</totfact>
</mgrwt>
<clustering>
<clus scale="   35.297">  1  6  2 -1</clus>
<clus scale="  470.432">  4  5 -1 -1</clus>
<clus scale="  300.000">  1  4  2 -1</clus>
</clustering>
</event>
<event>
 6    1  0.9964252E-012  0.3000000E+03  0.7818608E-02  0.1093470E+00
          1   -1    0    0  502    0  0.00000000000E+00  0.00000000000E+00  0.22653226363E+03  0.22653226363E+03  0.00000000000E+00 0.  1.
         13   -1    0    0    0    0 -0.00000000000E+00 -0.00000000000E+00 -0.27500000000E+03  0.27500000000E+03  0.00000000000E+00 0.  1.
    9000005    2    1    2  501    0  0.84244445945E+01  0.32347074715E+02 -0.53194368915E+02  0.46777362674E+03  0.46353556549E+03 0.  0.
         13    1    3    3    0    0 -0.17190552125E+03 -0.12985209175E+03 -0.64743443195E+02  0.22495507864E+03  0.00000000000E+00 0.  1.
          1    1    3    3  501    0  0.18032996584E+03  0.16219916647E+03  0.11549074280E+02  0.24281854810E+03  0.00000000000E+00 0.  1.
         21    1    1    2  502  501 -0.84244445945E+01 -0.32347074715E+02  0.47266325416E+01  0.33758636888E+02  0.00000000000E+00 0.  1.
<scales pt_clust_4="550.00000" pt_clust_5="550.00000" pt_clust_6="33.42611"></scales>
<mgrwt>
<rscale>  0 0.30000000E+03</rscale>
<asrwt>  1 0.33426105E+02</asrwt>
<pdfrwt beam="1">  1        1 0.82375369E+00 0.30000000E+03</pdfrwt>
<pdfrwt beam="2">0</pdfrwt>
<totfact> 0.67595250E-04</totfact>
</mgrwt>
<clustering>
<clus scale="   33.426">  1  6  2 -1</clus>
<clus scale="  463.536">  4  5 -1 -1</clus>
<clus scale="  300.000">  1  4  2 -1</clus>
</clustering>
</event>
<event>
 6    1  0.9964252E-012  0.3000000E+03  0.7818608E-02  0.1093470E+00
          1   -1    0    0  502    0  0.00000000000E+00  0.00000000000E+00  0.23566970741E+03  0.23566970741E+03  0.00000000000E+00 0.  1.
         13   -1    0    0    0    0 -0.00000000000E+00 -0.00000000000E+00 -0.27500000000E+03  0.27500000000E+03  0.00000000000E+00 0.  1.
    9000005    2    1    2  501    0  0.30500410754E+02 -0.32795094110E+01 -0.18378514806E+02  0.47352125884E+03  0.47216901903E+03 0.  0.
         13    1    3    3    0    0  0.96207860632E+02 -0.18063222653E+03  0.12175092603E+03  0.23813282364E+03  0.00000000000E+00 0.  1.
          3    1    3    3  501    0 -0.65707449879E+02  0.17735271712E+03 -0.14012944083E+03  0.23538843520E+03  0.00000000000E+00 0.  1.
         21    1    1    2  502  501 -0.30500410754E+02  0.32795094110E+01 -0.20951777788E+02  0.37148448562E+02  0.00000000000E+00 0.  1.
<scales pt_clust_4="550.00000" pt_clust_5="550.00000" pt_clust_6="30.67623"></scales>
<mgrwt>
<rscale>  0 0.30000000E+03</rscale>
<asrwt>  1 0.30676232E+02</asrwt>
<pdfrwt beam="1">  1        1 0.85698075E+00 0.30000000E+03</pdfrwt>
<pdfrwt beam="2">0</pdfrwt>
<totfact> 0.35672951E-04</totfact>
</mgrwt>
<clustering>
<clus scale="   30.676">  1  6  2 -1</clus>
<clus scale="  472.169">  4  5 -1 -1</clus>
<clus scale="  300.000">  1  4  2 -1</clus>
</clustering>
</event>
<event>
 6    1  0.9964252E-012  0.3000000E+03  0.7818608E-02  0.1093470E+00
          1   -1    0    0  502    0  0.00000000000E+00  0.00000000000E+00  0.23149903111E+03  0.23149903111E+03  0.00000000000E+00 0.  1.
         13   -1    0    0    0    0 -0.00000000000E+00 -0.00000000000E+00 -0.27500000000E+03  0.27500000000E+03  0.00000000000E+00 0.  1.
    9000005    2    1    2  501    0  0.28771540451E+02 -0.21288674746E+02 -0.59994657723E+02  0.46709026326E+03  0.46183649256E+03 0.  0.
         13    1    3    3    0    0  0.51676480334E+02  0.61628630421E+02 -0.24779786296E+03  0.26052318053E+03  0.00000000000E+00 0.  1.
          1    1    3    3  501    0 -0.22904939883E+02 -0.82917305168E+02  0.18780320524E+03  0.20656708272E+03  0.00000000000E+00 0.  1.
         21    1    1    2  502  501 -0.28771540451E+02  0.21288674746E+02  0.16493688834E+02  0.39408767853E+02  0.00000000000E+00 0.  1.
<scales pt_clust_4="550.00000" pt_clust_5="550.00000" pt_clust_6="35.79119"></scales>
<mgrwt>
<rscale>  0 0.30000000E+03</rscale>
<asrwt>  1 0.35791189E+02</asrwt>
<pdfrwt beam="1">  1        1 0.84181466E+00 0.30000000E+03</pdfrwt>
<pdfrwt beam="2">0</pdfrwt>
<totfact> 0.47885270E-04</totfact>
</mgrwt>
<clustering>
<clus scale="   35.791">  1  6  2 -1</clus>
<clus scale="  461.836">  4  5 -1 -1</clus>
<clus scale="  300.000">  1  4  2 -1</clus>
</clustering>
</event>
<event>
 6    1  0.9964252E-012  0.3000000E+03  0.7818608E-02  0.1093470E+00
          1   -1    0    0  502    0  0.00000000000E+00  0.00000000000E+00  0.24803620583E+03  0.24803620583E+03  0.00000000000E+00 0.  1.
         13   -1    0    0    0    0 -0.00000000000E+00 -0.00000000000E+00 -0.27500000000E+03  0.27500000000E+03  0.00000000000E+00 0.  1.
    9000005    2    1    2  501    0 -0.24314181415E+02 -0.24641940095E+02 -0.40215039549E+02  0.48596869804E+03  0.48306306156E+03 0.  0.
         13    1    3    3    0    0 -0.12205202804E+03 -0.19241366870E+03  0.97583284452E+02  0.24787540188E+03  0.00000000000E+00 0.  1.
          1    1    3    3  501    0  0.97737846622E+02  0.16777172861E+03 -0.13779832400E+03  0.23809329617E+03  0.00000000000E+00 0.  1.
         21    1    1    2  502  501  0.24314181415E+02  0.24641940095E+02  0.13251245380E+02  0.37067507788E+02  0.00000000000E+00 0. -1.
<scales pt_clust_4="550.00000" pt_clust_5="550.00000" pt_clust_6="34.61798"></scales>
<mgrwt>
<rscale>  0 0.30000000E+03</rscale>
<asrwt>  1 0.34617981E+02</asrwt>
<pdfrwt beam="1">  1        1 0.90194984E+00 0.30000000E+03</pdfrwt>
<pdfrwt beam="2">0</pdfrwt>
<totfact> 0.10418481E-04</totfact>
</mgrwt>
<clustering>
<clus scale="   34.618">  1  6  2 -1</clus>
<clus scale="  483.063">  4  5 -1 -1</clus>
<clus scale="  300.000">  1  4  2 -1</clus>
</clustering>
</event>
<event>
 6    1  0.9964252E-012  0.3000000E+03  0.7818608E-02  0.1093470E+00
          1   -1    0    0  502    0  0.00000000000E+00  0.00000000000E+00  0.24211497004E+03  0.24211497004E+03  0.00000000000E+00 0.  1.
         13   -1    0    0    0    0 -0.00000000000E+00 -0.00000000000E+00 -0.27500000000E+03  0.27500000000E+03  0.00000000000E+00 0.  1.
    9000005    2    1    2  501    0 -0.30969813667E+02 -0.14206415208E+02 -0.60198907642E+02  0.47344576458E+03  0.46836527617E+03 0.  0.
         13    1    3    3    0    0 -0.32313171045E+02 -0.24044297963E+03 -0.17710998491E+02  0.24325017358E+03  0.00000000000E+00 0.  1.
          1    1    3    3  501    0  0.13433573781E+01  0.22623656443E+03 -0.42487909151E+02  0.23019559100E+03  0.00000000000E+00 0.  1.
         21    1    1    2  502  501  0.30969813667E+02  0.14206415208E+02  0.27313877687E+02  0.43669205464E+02  0.00000000000E+00 0. -1.
<scales pt_clust_4="550.00000" pt_clust_5="550.00000" pt_clust_6="34.07274"></scales>
<mgrwt>
<rscale>  0 0.30000000E+03</rscale>
<asrwt>  1 0.34072740E+02</asrwt>
<pdfrwt beam="1">  1        1 0.88041807E+00 0.30000000E+03</pdfrwt>
<pdfrwt beam="2">0</pdfrwt>
<totfact> 0.19601883E-04</totfact>
</mgrwt>
<clustering>
<clus scale="   34.073">  1  6  2 -1</clus>
<clus scale="  468.365">  4  5 -1 -1</clus>
<clus scale="  300.000">  1  4  2 -1</clus>
</clustering>
</event>
<event>
 6    1  0.9964252E-012  0.3000000E+03  0.7818608E-02  0.1093470E+00
          1   -1    0    0  502    0  0.00000000000E+00  0.00000000000E+00  0.22924303331E+03  0.22924303331E+03  0.00000000000E+00 0.  1.
         13   -1    0    0    0    0 -0.00000000000E+00 -0.00000000000E+00 -0.27500000000E+03  0.27500000000E+03  0.00000000000E+00 0.  1.
    9000005    2    1    2  501    0  0.20949348050E+02  0.21984950979E+02 -0.70660329535E+02  0.46496975061E+03  0.45856490659E+03 0.  0.
         13    1    3    3    0    0 -0.12368619247E+03  0.19086968423E+03 -0.83401610355E+02  0.24225057105E+03  0.00000000000E+00 0.  1.
          1    1    3    3  501    0  0.14463554052E+03 -0.16888473325E+03  0.12741280820E+02  0.22271917956E+03  0.00000000000E+00 0.  1.
         21    1    1    2  502  501 -0.20949348050E+02 -0.21984950979E+02  0.24903362845E+02  0.39273282702E+02  0.00000000000E+00 0.  1.
<scales pt_clust_4="550.00000" pt_clust_5="550.00000" pt_clust_6="30.36796"></scales>
<mgrwt>
<rscale>  0 0.30000000E+03</rscale>
<asrwt>  1 0.30367964E+02</asrwt>
<pdfrwt beam="1">  1        1 0.83361103E+00 0.30000000E+03</pdfrwt>
<pdfrwt beam="2">0</pdfrwt>
<totfact> 0.56899208E-04</totfact>
</mgrwt>
<clustering>
<clus scale="   30.368">  1  6  2 -1</clus>
<clus scale="  458.565">  4  5 -1 -1</clus>
<clus scale="  300.000">  1  4  2 -1</clus>
</clustering>
</event>
<event>
 6    1  0.9964252E-012  0.3000000E+03  0.7818608E-02  0.1093470E+00
          1   -1    0    0  502    0  0.00000000000E+00  0.00000000000E+00  0.24422162900E+03  0.24422162900E+03  0.00000000000E+00 0.  1.
         13   -1    0    0    0    0 -0.00000000000E+00 -0.00000000000E+00 -0.27500000000E+03  0.27500000000E+03  0.00000000000E+00 0.  1.
    9000005    2    1    2  501    0  0.73870592591E+01 -0.29425169186E+02 -0.48955217064E+02  0.48385487966E+03  0.48041494779E+03 0.  0.
         13    1    3    3    0    0  0.48576876533E+02 -0.12939175414E+03  0.18218485238E+03  0.22867719478E+03  0.00000000000E+00 0.  1.
          1    1    3    3  501    0 -0.41189817274E+02  0.99966584958E+02 -0.23114006945E+03  0.25517768488E+03  0.00000000000E+00 0.  1.
         21    1    1    2  502  501 -0.73870592591E+01  0.29425169186E+02  0.18176846059E+02  0.35366749339E+02  0.00000000000E+00 0. -1.
<scales pt_clust_4="550.00000" pt_clust_5="550.00000" pt_clust_6="30.33825"></scales>
<mgrwt>
<rscale>  0 0.30000000E+03</rscale>
<asrwt>  1 0.30338247E+02</asrwt>
<pdfrwt beam="1">  1        1 0.88807865E+00 0.30000000E+03</pdfrwt>
<pdfrwt beam="2">0</pdfrwt>
<totfact> 0.15813953E-04</totfact>
</mgrwt>
<clustering>
<clus scale="   30.338">  1  6  2 -1</clus>
<clus scale="  480.415">  4  5 -1 -1</clus>
<clus scale="  300.000">  1  4  2 -1</clus>
</clustering>
</event>
<event>
 6    1  0.9964252E-012  0.3000000E+03  0.7818608E-02  0.1093470E+00
          1   -1    0    0  502    0  0.00000000000E+00  0.00000000000E+00  0.24489522519E+03  0.24489522519E+03  0.00000000000E+00 0.  1.
         13   -1    0    0    0    0 -0.00000000000E+00 -0.00000000000E+00 -0.27500000000E+03  0.27500000000E+03  0.00000000000E+00 0.  1.
    9000005    2    1    2  501    0 -0.28343704752E+02 -0.25694427748E+02 -0.29952489357E+02  0.48163829892E+03  0.47918131240E+03 0.  0.
         13    1    3    3    0    0  0.14141710912E+03  0.15874739192E+03 -0.77891623005E+02  0.22642137295E+03  0.00000000000E+00 0.  1.
          1    1    3    3  501    0 -0.16976081387E+03 -0.18444181967E+03  0.47939133647E+02  0.25521692598E+03  0.00000000000E+00 0.  1.
         21    1    1    2  502  501  0.28343704752E+02  0.25694427748E+02 -0.15228545330E+00  0.38256926265E+02  0.00000000000E+00 0.  1.
<scales pt_clust_4="550.00000" pt_clust_5="550.00000" pt_clust_6="38.25662"></scales>
<mgrwt>
<rscale>  0 0.30000000E+03</rscale>
<asrwt>  1 0.38256623E+02</asrwt>
<pdfrwt beam="1">  1        1 0.89052809E+00 0.30000000E+03</pdfrwt>
<pdfrwt beam="2">0</pdfrwt>
<totfact> 0.14031115E-04</totfact>
</mgrwt>
<clustering>
<clus scale="   38.257">  1  6  2 -1</clus>
<clus scale="  479.181">  4  5 -1 -1</clus>
<clus scale="  300.000">  1  4  2 -1</clus>
</clustering>
</event>
<event>
 6    1  0.9964252E-012  0.3000000E+03  0.7818608E-02  0.1093470E+00
          1   -1    0    0  502    0  0.00000000000E+00  0.00000000000E+00  0.23546605092E+03  0.23546605092E+03  0.00000000000E+00 0.  1.
         13   -1    0    0    0    0 -0.00000000000E+00 -0.00000000000E+00 -0.27500000000E+03  0.27500000000E+03  0.00000000000E+00 0.  1.
    9000005    2    1    2  501    0 -0.10545324494E+02 -0.28389771690E+02 -0.49920142254E+02  0.47844955496E+03  0.47487342843E+03 0.  0.
         13    1    3    3    0    0 -0.18167772395E+03  0.75981457822E+02  0.10678582074E+03  0.22401604590E+03  0.00000000000E+00 0.  1.
          1    1    3    3  501    0  0.17113239945E+03 -0.10437122951E+03 -0.15670596299E+03  0.25443350905E+03  0.00000000000E+00 0.  1.
         21    1    1    2  502  501  0.10545324494E+02  0.28389771690E+02  0.10386193178E+02  0.32016495967E+02  0.00000000000E+00 0.  1.
<scales pt_clust_4="550.00000" pt_clust_5="550.00000" pt_clust_6="30.28503"></scales>
<mgrwt>
<rscale>  0 0.30000000E+03</rscale>
<asrwt>  1 0.30285029E+02</asrwt>
<pdfrwt beam="1">  1        1 0.85624019E+00 0.30000000E+03</pdfrwt>
<pdfrwt beam="2">0</pdfrwt>
<totfact> 0.36389252E-04</totfact>
</mgrwt>
<clustering>
<clus scale="   30.285">  1  6  2 -1</clus>
<clus scale="  474.873">  4  5 -1 -1</clus>
<clus scale="  300.000">  1  4  2 -1</clus>
</clustering>
</event>
<event>
 6    1  0.9964252E-012  0.3000000E+03  0.7818608E-02  0.1093470E+00
          1   -1    0    0  502    0  0.00000000000E+00  0.00000000000E+00  0.24828625661E+03  0.24828625661E+03  0.00000000000E+00 0.  1.
         13   -1    0    0    0    0 -0.00000000000E+00 -0.00000000000E+00 -0.27500000000E+03  0.27500000000E+03  0.00000000000E+00 0.  1.
    9000005    2    1    2  501    0 -0.33006932375E+02  0.11364629332E+02 -0.44688562097E+02  0.48402168616E+03  0.48068837380E+03 0.  0.
         13    1    3    3    0    0 -0.12093616197E+03 -0.16432384809E+03 -0.15725148962E+03  0.25759641556E+03  0.00000000000E+00 0.  1.
          3    1    3    3  501    0  0.87929229591E+02  0.17568847742E+03  0.11256292753E+03  0.22642527060E+03  0.00000000000E+00 0.  1.
         21    1    1    2  502  501  0.33006932375E+02 -0.11364629332E+02  0.17974818707E+02  0.39264570445E+02  0.00000000000E+00 0.  1.
<scales pt_clust_4="550.00000" pt_clust_5="550.00000" pt_clust_6="34.90863"></scales>
<mgrwt>
<rscale>  0 0.30000000E+03</rscale>
<asrwt>  1 0.34908629E+02</asrwt>
<pdfrwt beam="1">  1        1 0.90285911E+00 0.30000000E+03</pdfrwt>
<pdfrwt beam="2">0</pdfrwt>
<totfact> 0.10078037E-04</totfact>
</mgrwt>
<clustering>
<clus scale="   34.909">  1  6  2 -1</clus>
<clus scale="  480.688">  4  5 -1 -1</clus>
<clus scale="  300.000">  1  4  2 -1</clus>
</clustering>
</event>
<event>
 6    1  0.9964252E-012  0.3000000E+03  0.7818608E-02  0.1093470E+00
          1   -1    0    0  502    0  0.00000000000E+00  0.00000000000E+00  0.22512968175E+03  0.22512968175E+03  0.00000000000E+00 0.  1.
         13   -1    0    0    0    0 -0.00000000000E+00 -0.00000000000E+00 -0.27500000000E+03  0.27500000000E+03  0.00000000000E+00 0.  1.
    9000005    2    1    2  501    0 -0.18159001767E+02 -0.23922175094E+02 -0.65052756771E+02  0.46647665446E+03  0.46094098124E+03 0.  0.
         13    1    3    3    0    0  0.15109965367E+03  0.34548238177E+02 -0.19215796416E+03  0.24687926055E+03  0.00000000000E+00 0.  1.
          1    1    3    3  501    0 -0.16925865544E+03 -0.58470413271E+02  0.12710520739E+03  0.21959739391E+03  0.00000000000E+00 0.  1.
         21    1    1    2  502  501  0.18159001767E+02  0.23922175094E+02  0.15182438525E+02  0.33653027293E+02  0.00000000000E+00 0. -1.
<scales pt_clust_4="550.00000" pt_clust_5="550.00000" pt_clust_6="30.03364"></scales>
<mgrwt>
<rscale>  0 0.30000000E+03</rscale>
<asrwt>  1 0.30033645E+02</asrwt>
<pdfrwt beam="1">  1        1 0.81865339E+00 0.30000000E+03</pdfrwt>
<pdfrwt beam="2">0</pdfrwt>
<totfact> 0.76464410E-04</totfact>
</mgrwt>
<clustering>
<clus scale="   30.034">  1  6  2 -1</clus>
<clus scale="  460.941">  4  5 -1 -1</clus>
<clus scale="  300.000">  1  4  2 -1</clus>
</clustering>
</event>
<event>
 6    1  0.9964252E-012  0.3000000E+03  0.7818608E-02  0.1093470E+00
          1   -1    0    0  502    0  0.00000000000E+00  0.00000000000E+00  0.22910104720E+03  0.22910104720E+03  0.00000000000E+00 0.  1.
         13   -1    0    0    0    0 -0.00000000000E+00 -0.00000000000E+00 -0.27500000000E+03  0.27500000000E+03  0.00000000000E+00 0.  1.
    9000005    2    1    2  501    0 -0.14930790643E+02  0.29681433069E+02 -0.27812484910E+02  0.46627200678E+03  0.46425438502E+03 0.  0.
         13    1    3    3    0    0  0.13963272207E+03  0.10486950495E+03  0.14168367931E+03  0.22487591050E+03  0.00000000000E+00 0.  1.
          1    1    3    3  501    0 -0.15456351271E+03 -0.75188071881E+02 -0.16949616422E+03  0.24139609628E+03  0.00000000000E+00 0.  1.
         21    1    1    2  502  501  0.14930790643E+02 -0.29681433069E+02 -0.18086467891E+02  0.37829040419E+02  0.00000000000E+00 0. -1.
<scales pt_clust_4="550.00000" pt_clust_5="550.00000" pt_clust_6="33.22525"></scales>
<mgrwt>
<rscale>  0 0.30000000E+03</rscale>
<asrwt>  1 0.33225248E+02</asrwt>
<pdfrwt beam="1">  1        1 0.83309472E+00 0.30000000E+03</pdfrwt>
<pdfrwt beam="2">0</pdfrwt>
<totfact> 0.56432887E-04</totfact>
</mgrwt>
<clustering>
<clus scale="   33.225">  1  6  2 -1</clus>
<clus scale="  464.254">  4  5 -1 -1</clus>
<clus scale="  300.000">  1  4  2 -1</clus>
</clustering>
</event>
<event>
 6    1  0.9964252E-012  0.3000000E+03  0.7818608E-02  0.1093470E+00
          1   -1    0    0  502    0  0.00000000000E+00  0.00000000000E+00  0.24173534266E+03  0.24173534266E+03  0.00000000000E+00 0.  1.
         13   -1    0    0    0    0 -0.00000000000E+00 -0.00000000000E+00 -0.27500000000E+03  0.27500000000E+03  0.00000000000E+00 0.  1.
    9000005    2    1    2  501    0 -0.30167735830E+02 -0.27174491191E+02 -0.27726377054E+02  0.47575708250E+03  0.47320978890E+03 0.  0.
         13    1    3    3    0    0 -0.52362237090E+02 -0.23389530699E+03 -0.94123354320E+02  0.25750344528E+03  0.00000000000E+00 0.  1.
          1    1    3    3  501    0  0.22194501260E+02  0.20672081580E+03  0.66396977266E+02  0.21825363722E+03  0.00000000000E+00 0.  1.
         21    1    1    2  502  501  0.30167735830E+02  0.27174491191E+02 -0.55382802888E+01  0.40978260153E+02  0.00000000000E+00 0.  1.
<scales pt_clust_4="550.00000" pt_clust_5="550.00000" pt_clust_6="40.60230"></scales>
<mgrwt>
<rscale>  0 0.30000000E+03</rscale>
<asrwt>  1 0.40602302E+02</asrwt>
<pdfrwt beam="1">  1        1 0.87903761E+00 0.30000000E+03</pdfrwt>
<pdfrwt beam="2">0</pdfrwt>
<totfact> 0.19727462E-04</totfact>
</mgrwt>
<clustering>
<clus scale="   40.602">  1  6  2 -1</clus>
<clus scale="  473.210">  4  5 -1 -1</clus>
<clus scale="  300.000">  1  4  2 -1</clus>
</clustering>
</event>
<event>
 6    1  0.9964252E-012  0.3000000E+03  0.7818608E-02  0.1093470E+00
          1   -1    0    0  502    0  0.00000000000E+00  0.00000000000E+00  0.25204491189E+03  0.25204491189E+03  0.00000000000E+00 0.  1.
         13   -1    0    0    0    0 -0.00000000000E+00 -0.00000000000E+00 -0.27500000000E+03  0.27500000000E+03  0.00000000000E+00 0.  1.
    9000005    2    1    2  501    0 -0.18457865802E+02  0.42864696295E+02  0.15398790551E+02  0.46663717226E+03  0.46404208083E+03 0.  0.
         13    1    3    3    0    0 -0.23614939688E+03 -0.27003608030E+02  0.11767279945E+02  0.23797941376E+03  0.00000000000E+00 0.  1.
          1    1    3    3  501    0  0.21769153108E+03  0.69868304325E+02  0.36315106064E+01  0.22865775850E+03  0.00000000000E+00 0.  1.
         21    1    1    2  502  501  0.18457865802E+02 -0.42864696295E+02 -0.38353878665E+02  0.60407739629E+02  0.00000000000E+00 0. -1.
<scales pt_clust_4="550.00000" pt_clust_5="550.00000" pt_clust_6="46.66987"></scales>
<mgrwt>
<rscale>  0 0.30000000E+03</rscale>
<asrwt>  1 0.46669874E+02</asrwt>
<pdfrwt beam="1">  1        1 0.91652695E+00 0.30000000E+03</pdfrwt>
<pdfrwt beam="2">0</pdfrwt>
<totfact> 0.47387644E-05</totfact>
</mgrwt>
<clustering>
<clus scale="   46.670">  1  6  2 -1</clus>
<clus scale="  464.042">  4  5 -1 -1</clus>
<clus scale="  300.000">  1  4  2 -1</clus>
</clustering>
</event>
<event>
 6    1  0.9964252E-012  0.3000000E+03  0.7818608E-02  0.1093470E+00
          1   -1    0    0  502    0  0.00000000000E+00  0.00000000000E+00  0.23499698275E+03  0.23499698275E+03  0.00000000000E+00 0.  1.
         13   -1    0    0    0    0 -0.00000000000E+00 -0.00000000000E+00 -0.27500000000E+03  0.27500000000E+03  0.00000000000E+00 0.  1.
    9000005    2    1    2  501    0  0.24461066454E+02 -0.26387557193E+02 -0.33986540997E+02  0.47351623532E+03  0.47092238553E+03 0.  0.
         13    1    3    3    0    0  0.19538909115E+03  0.23945315786E+02  0.12626858421E+03  0.23386754894E+03  0.00000000000E+00 0.  1.
          3    1    3    3  501    0 -0.17092802470E+03 -0.50332872979E+02 -0.16025512521E+03  0.23964868638E+03  0.00000000000E+00 0.  1.
         21    1    1    2  502  501 -0.24461066454E+02  0.26387557193E+02 -0.60164762514E+01  0.36480747431E+02  0.00000000000E+00 0. -1.
<scales pt_clust_4="550.00000" pt_clust_5="550.00000" pt_clust_6="35.98122"></scales>
<mgrwt>
<rscale>  0 0.30000000E+03</rscale>
<asrwt>  1 0.35981221E+02</asrwt>
<pdfrwt beam="1">  1        1 0.85453448E+00 0.30000000E+03</pdfrwt>
<pdfrwt beam="2">0</pdfrwt>
<totfact> 0.36631671E-04</totfact>
</mgrwt>
<clustering>
<clus scale="   35.981">  1  6  2 -1</clus>
<clus scale="  470.922">  4  5 -1 -1</clus>
<clus scale="  300.000">  1  4  2 -1</clus>
</clustering>
</event>
<event>
 6    1  0.9964252E-012  0.3000000E+03  0.7818608E-02  0.1093470E+00
          1   -1    0    0  502    0  0.00000000000E+00  0.00000000000E+00  0.22082470160E+03  0.22082470160E+03  0.00000000000E+00 0.  1.
         13   -1    0    0    0    0 -0.00000000000E+00 -0.00000000000E+00 -0.27500000000E+03  0.27500000000E+03  0.00000000000E+00 0.  1.
    9000005    2    1    2  501    0 -0.73418776110E+00 -0.34605399119E+02 -0.51063284075E+02  0.46107189864E+03  0.45692643178E+03 0.  0.
         13    1    3    3    0    0 -0.98375790163E+02  0.14572632820E+03 -0.15208209961E+03  0.23247133983E+03  0.00000000000E+00 0.  1.
          1    1    3    3  501    0  0.97641602402E+02 -0.18033172732E+03  0.10101881554E+03  0.22860055881E+03  0.00000000000E+00 0.  1.
         21    1    1    2  502  501  0.73418776110E+00  0.34605399119E+02 -0.31120143282E+01  0.34752802952E+02  0.00000000000E+00 0.  1.
<scales pt_clust_4="550.00000" pt_clust_5="550.00000" pt_clust_6="34.61319"></scales>
<mgrwt>
<rscale>  0 0.30000000E+03</rscale>
<asrwt>  1 0.34613187E+02</asrwt>
<pdfrwt beam="1">  1        1 0.80299891E+00 0.30000000E+03</pdfrwt>
<pdfrwt beam="2">0</pdfrwt>
<totfact> 0.98828267E-04</totfact>
</mgrwt>
<clustering>
<clus scale="   34.613">  1  6  2 -1</clus>
<clus scale="  456.926">  4  5 -1 -1</clus>
<clus scale="  300.000">  1  4  2 -1</clus>
</clustering>
</event>
<event>
 6    1  0.9964252E-012  0.3000000E+03  0.7818608E-02  0.1093470E+00
          1   -1    0    0  502    0  0.00000000000E+00  0.00000000000E+00  0.24455824433E+03  0.24455824433E+03  0.00000000000E+00 0.  1.
         13   -1    0    0    0    0 -0.00000000000E+00 -0.00000000000E+00 -0.27500000000E+03  0.27500000000E+03  0.00000000000E+00 0.  1.
    9000005    2    1    2  501    0  0.94625316283E+01  0.29494666728E+02 -0.20011225897E+02  0.48687383181E+03  0.48547523528E+03 0.  0.
         13    1    3    3    0    0  0.45091586416E+02 -0.14476761962E+03  0.16919106468E+03  0.22719271824E+03  0.00000000000E+00 0.  1.
          1    1    3    3  501    0 -0.35629054788E+02  0.17426228635E+03 -0.18920229057E+03  0.25968111357E+03  0.00000000000E+00 0.  1.
         21    1    1    2  502  501 -0.94625316283E+01 -0.29494666728E+02 -0.10430529773E+02  0.32684412517E+02  0.00000000000E+00 0.  1.
<scales pt_clust_4="550.00000" pt_clust_5="550.00000" pt_clust_6="30.97541"></scales>
<mgrwt>
<rscale>  0 0.30000000E+03</rscale>
<asrwt>  1 0.30975407E+02</asrwt>
<pdfrwt beam="1">  1        1 0.88930271E+00 0.30000000E+03</pdfrwt>
<pdfrwt beam="2">0</pdfrwt>
<totfact> 0.15157301E-04</totfact>
</mgrwt>
<clustering>
<clus scale="   30.975">  1  6  2 -1</clus>
<clus scale="  485.475">  4  5 -1 -1</clus>
<clus scale="  300.000">  1  4  2 -1</clus>
</clustering>
</event>
<event>
 6    1  0.9964252E-012  0.3000000E+03  0.7818608E-02  0.1093470E+00
          1   -1    0    0  502    0  0.00000000000E+00  0.00000000000E+00  0.22791694912E+03  0.22791694912E+03  0.00000000000E+00 0.  1.
         13   -1    0    0    0    0 -0.00000000000E+00 -0.00000000000E+00 -0.27500000000E+03  0.27500000000E+03  0.00000000000E+00 0.  1.
    9000005    2    1    2  501    0 -0.14808041153E+02  0.26798327484E+02 -0.18017944047E+02  0.46070073336E+03  0.45932895725E+03 0.  0.
         13    1    3    3    0    0  0.26033805093E+01 -0.93703269370E+02  0.19442448932E+03  0.21584244793E+03  0.00000000000E+00 0.  1.
          3    1    3    3  501    0 -0.17411421662E+02  0.12050159685E+03 -0.21244243337E+03  0.24485828543E+03  0.00000000000E+00 0.  1.
         21    1    1    2  502  501  0.14808041153E+02 -0.26798327484E+02 -0.29065106829E+02  0.42216215767E+02  0.00000000000E+00 0.  1.
<scales pt_clust_4="550.00000" pt_clust_5="550.00000" pt_clust_6="30.61747"></scales>
<mgrwt>
<rscale>  0 0.30000000E+03</rscale>
<asrwt>  1 0.30617468E+02</asrwt>
<pdfrwt beam="1">  1        1 0.82878891E+00 0.30000000E+03</pdfrwt>
<pdfrwt beam="2">0</pdfrwt>
<totfact> 0.62054735E-04</totfact>
</mgrwt>
<clustering>
<clus scale="   30.617">  1  6  2 -1</clus>
<clus scale="  459.329">  4  5 -1 -1</clus>
<clus scale="  300.000">  1  4  2 -1</clus>
</clustering>
</event>
<event>
 6    1  0.9964252E-012  0.3000000E+03  0.7818608E-02  0.1093470E+00
          1   -1    0    0  502    0  0.00000000000E+00  0.00000000000E+00  0.23438862341E+03  0.23438862341E+03  0.00000000000E+00 0.  1.
         13   -1    0    0    0    0 -0.00000000000E+00 -0.00000000000E+00 -0.27500000000E+03  0.27500000000E+03  0.00000000000E+00 0.  1.
    9000005    2    1    2  501    0  0.11883837771E+02 -0.34707140961E+02 -0.67265193987E+02  0.46404287151E+03  0.45767386755E+03 0.  0.
         13    1    3    3    0    0 -0.21548997691E+03 -0.32582959681E+02 -0.89444663144E+02  0.23557998042E+03  0.00000000000E+00 0.  1.
          1    1    3    3  501    0  0.22737381468E+03 -0.21241812798E+01  0.22179469157E+02  0.22846289108E+03  0.00000000000E+00 0.  1.
         21    1    1    2  502  501 -0.11883837771E+02  0.34707140961E+02  0.26653817398E+02  0.45345751904E+02  0.00000000000E+00 0. -1.
<scales pt_clust_4="550.00000" pt_clust_5="550.00000" pt_clust_6="36.68530"></scales>
<mgrwt>
<rscale>  0 0.30000000E+03</rscale>
<asrwt>  1 0.36685300E+02</asrwt>
<pdfrwt beam="1">  1        1 0.85232227E+00 0.30000000E+03</pdfrwt>
<pdfrwt beam="2">0</pdfrwt>
<totfact> 0.38346172E-04</totfact>
</mgrwt>
<clustering>
<clus scale="   36.685">  1  6  2 -1</clus>
<clus scale="  457.674">  4  5 -1 -1</clus>
<clus scale="  300.000">  1  4  2 -1</clus>
</clustering>
</event>
<event>
 6    1  0.9964252E-012  0.3000000E+03  0.7818608E-02  0.1093470E+00
          1   -1    0    0  502    0  0.00000000000E+00  0.00000000000E+00  0.24542963348E+03  0.24542963348E+03  0.00000000000E+00 0.  1.
         13   -1    0    0    0    0 -0.00000000000E+00 -0.00000000000E+00 -0.27500000000E+03  0.27500000000E+03  0.00000000000E+00 0.  1.
    9000005    2    1    2  501    0 -0.33505157501E+02  0.20469896079E+02 -0.68039555349E+02  0.46546154534E+03  0.45878476094E+03 0.  0.
         13    1    3    3    0    0 -0.20615217536E+03 -0.42942355101E+02 -0.15553168824E+03  0.26178783645E+03  0.00000000000E+00 0.  1.
          1    1    3    3  501    0  0.17264701786E+03  0.63412251180E+02  0.87492132886E+02  0.20367370889E+03  0.00000000000E+00 0.  1.
         21    1    1    2  502  501  0.33505157501E+02 -0.20469896079E+02  0.38469188831E+02  0.54968088142E+02  0.00000000000E+00 0.  1.
<scales pt_clust_4="550.00000" pt_clust_5="550.00000" pt_clust_6="39.26337"></scales>
<mgrwt>
<rscale>  0 0.30000000E+03</rscale>
<asrwt>  1 0.39263370E+02</asrwt>
<pdfrwt beam="1">  1        1 0.89247139E+00 0.30000000E+03</pdfrwt>
<pdfrwt beam="2">0</pdfrwt>
<totfact> 0.13202619E-04</totfact>
</mgrwt>
<clustering>
<clus scale="   39.263">  1  6  2 -1</clus>
<clus scale="  458.785">  4  5 -1 -1</clus>
<clus scale="  300.000">  1  4  2 -1</clus>
</clustering>
</event>
<event>
 6    1  0.9964252E-012  0.3000000E+03  0.7818608E-02  0.1093470E+00
          1   -1    0    0  502    0  0.00000000000E+00  0.00000000000E+00  0.24107192676E+03  0.24107192676E+03  0.00000000000E+00 0.  1.
         13   -1    0    0    0    0 -0.00000000000E+00 -0.00000000000E+00 -0.27500000000E+03  0.27500000000E+03  0.00000000000E+00 0.  1.
    9000005    2    1    2  501    0 -0.19872664814E+02 -0.41501347238E+02 -0.28983516963E+02  0.46979306262E+03  0.46663496740E+03 0.  0.
         13    1    3    3    0    0 -0.13586282510E+03  0.16377496330E+03  0.54514412974E+02  0.21966512484E+03  0.00000000000E+00 0.  1.
          1    1    3    3  501    0  0.11599016029E+03 -0.20527631054E+03 -0.83497929938E+02  0.25012793778E+03  0.00000000000E+00 0.  1.
         21    1    1    2  502  501  0.19872664814E+02  0.41501347238E+02 -0.49445562757E+01  0.46278864141E+02  0.00000000000E+00 0. -1.
<scales pt_clust_4="550.00000" pt_clust_5="550.00000" pt_clust_6="46.01398"></scales>
<mgrwt>
<rscale>  0 0.30000000E+03</rscale>
<asrwt>  1 0.46013984E+02</asrwt>
<pdfrwt beam="1">  1        1 0.87662519E+00 0.30000000E+03</pdfrwt>
<pdfrwt beam="2">0</pdfrwt>
<totfact> 0.20552352E-04</totfact>
</mgrwt>
<clustering>
<clus scale="   46.014">  1  6  2 -1</clus>
<clus scale="  466.635">  4  5 -1 -1</clus>
<clus scale="  300.000">  1  4  2 -1</clus>
</clustering>
</event>
<event>
 6    1  0.9964252E-012  0.3000000E+03  0.7818608E-02  0.1093470E+00
          1   -1    0    0  502    0  0.00000000000E+00  0.00000000000E+00  0.22654425265E+03  0.22654425265E+03  0.00000000000E+00 0.  1.
         13   -1    0    0    0    0 -0.00000000000E+00 -0.00000000000E+00 -0.27500000000E+03  0.27500000000E+03  0.00000000000E+00 0.  1.
    9000005    2    1    2  501    0  0.31918200246E+02  0.10472180654E+01 -0.67584437946E+02  0.46431825398E+03  0.45826184279E+03 0.  0.
         13    1    3    3    0    0  0.22012402221E+03 -0.53604963230E+02  0.55026307947E+02  0.23314367202E+03  0.00000000000E+00 0.  1.
          1    1    3    3  501    0 -0.18820582196E+03  0.54652181295E+02 -0.12261074589E+03  0.23117458197E+03  0.00000000000E+00 0.  1.
         21    1    1    2  502  501 -0.31918200246E+02 -0.10472180654E+01  0.19128690593E+02  0.37225998663E+02  0.00000000000E+00 0.  1.
<scales pt_clust_4="550.00000" pt_clust_5="550.00000" pt_clust_6="31.93537"></scales>
<mgrwt>
<rscale>  0 0.30000000E+03</rscale>
<asrwt>  1 0.31935375E+02</asrwt>
<pdfrwt beam="1">  1        1 0.82379728E+00 0.30000000E+03</pdfrwt>
<pdfrwt beam="2">0</pdfrwt>
<totfact> 0.68120842E-04</totfact>
</mgrwt>
<clustering>
<clus scale="   31.935">  1  6  2 -1</clus>
<clus scale="  458.262">  4  5 -1 -1</clus>
<clus scale="  300.000">  1  4  2 -1</clus>
</clustering>
</event>
<event>
 6    1  0.9964252E-012  0.3000000E+03  0.7818608E-02  0.1093470E+00
          1   -1    0    0  502    0  0.00000000000E+00  0.00000000000E+00  0.23563480709E+03  0.23563480709E+03  0.00000000000E+00 0.  1.
         13   -1    0    0    0    0 -0.00000000000E+00 -0.00000000000E+00 -0.27500000000E+03  0.27500000000E+03  0.00000000000E+00 0.  1.
    9000005    2    1    2  501    0  0.27311270015E+02  0.25822189688E+02 -0.30462200339E+02  0.47200898378E+03  0.46952299642E+03 0.  0.
         13    1    3    3    0    0 -0.21641590390E+03 -0.25695936645E+02  0.16302693915E+02  0.21854496665E+03  0.00000000000E+00 0.  1.
          3    1    3    3  501    0  0.24372717391E+03  0.51518126333E+02 -0.46764894253E+02  0.25346401713E+03  0.00000000000E+00 0.  1.
         21    1    1    2  502  501 -0.27311270015E+02 -0.25822189688E+02 -0.89029925683E+01  0.38625823316E+02  0.00000000000E+00 0.  1.
<scales pt_clust_4="550.00000" pt_clust_5="550.00000" pt_clust_6="37.58580"></scales>
<mgrwt>
<rscale>  0 0.30000000E+03</rscale>
<asrwt>  1 0.37585800E+02</asrwt>
<pdfrwt beam="1">  1        1 0.85685384E+00 0.30000000E+03</pdfrwt>
<pdfrwt beam="2">0</pdfrwt>
<totfact> 0.34438531E-04</totfact>
</mgrwt>
<clustering>
<clus scale="   37.586">  1  6  2 -1</clus>
<clus scale="  469.523">  4  5 -1 -1</clus>
<clus scale="  300.000">  1  4  2 -1</clus>
</clustering>
</event>
<event>
 6    1  0.9964252E-012  0.3000000E+03  0.7818608E-02  0.1093470E+00
          1   -1    0    0  502    0  0.00000000000E+00  0.00000000000E+00  0.24129407527E+03  0.24129407527E+03  0.00000000000E+00 0.  1.
         13   -1    0    0    0    0 -0.00000000000E+00 -0.00000000000E+00 -0.27500000000E+03  0.27500000000E+03  0.00000000000E+00 0.  1.
    9000005    2    1    2  501    0  0.15622387814E+02 -0.27198253371E+02 -0.58976346985E+02  0.47601507046E+03  0.47130492658E+03 0.  0.
         13    1    3    3    0    0  0.24159174855E+03 -0.33956480299E+02 -0.71036879163E+01  0.24406982178E+03  0.00000000000E+00 0.  1.
          1    1    3    3  501    0 -0.22596936074E+03  0.67582269277E+01 -0.51872659069E+02  0.23194524868E+03  0.00000000000E+00 0.  1.
         21    1    1    2  502  501 -0.15622387814E+02  0.27198253371E+02  0.25270422257E+02  0.40279004810E+02  0.00000000000E+00 0.  1.
<scales pt_clust_4="550.00000" pt_clust_5="550.00000" pt_clust_6="31.36565"></scales>
<mgrwt>
<rscale>  0 0.30000000E+03</rscale>
<asrwt>  1 0.31365650E+02</asrwt>
<pdfrwt beam="1">  1        1 0.87743300E+00 0.30000000E+03</pdfrwt>
<pdfrwt beam="2">0</pdfrwt>
<totfact> 0.21604794E-04</totfact>
</mgrwt>
<clustering>
<clus scale="   31.366">  1  6  2 -1</clus>
<clus scale="  471.305">  4  5 -1 -1</clus>
<clus scale="  300.000">  1  4  2 -1</clus>
</clustering>
</event>
<event>
 6    1  0.9964252E-012  0.3000000E+03  0.7818608E-02  0.1093470E+00
          1   -1    0    0  502    0  0.00000000000E+00  0.00000000000E+00  0.23540029092E+03  0.23540029092E+03  0.00000000000E+00 0.  1.
         13   -1    0    0    0    0 -0.00000000000E+00 -0.00000000000E+00 -0.27500000000E+03  0.27500000000E+03  0.00000000000E+00 0.  1.
    9000005    2    1    2  501    0 -0.34615829507E+02  0.32368598650E+01 -0.13872773372E+02  0.46714976336E+03  0.46564762927E+03 0.  0.
         13    1    3    3    0    0  0.16306514844E+03  0.12530954270E+03  0.74276991480E+02  0.21865451194E+03  0.00000000000E+00 0.  1.
          3    1    3    3  501    0 -0.19768097794E+03 -0.12207268284E+03 -0.88149764852E+02  0.24849525142E+03  0.00000000000E+00 0.  1.
         21    1    1    2  502  501  0.34615829507E+02 -0.32368598650E+01 -0.25726935703E+02  0.43250527568E+02  0.00000000000E+00 0. -1.
<scales pt_clust_4="550.00000" pt_clust_5="550.00000" pt_clust_6="34.76685"></scales>
<mgrwt>
<rscale>  0 0.30000000E+03</rscale>
<asrwt>  1 0.34766854E+02</asrwt>
<pdfrwt beam="1">  1        1 0.85600106E+00 0.30000000E+03</pdfrwt>
<pdfrwt beam="2">0</pdfrwt>
<totfact> 0.35647058E-04</totfact>
</mgrwt>
<clustering>
<clus scale="   34.767">  1  6  2 -1</clus>
<clus scale="  465.648">  4  5 -1 -1</clus>
<clus scale="  300.000">  1  4  2 -1</clus>
</clustering>
</event>
<event>
 6    1  0.9964252E-012  0.3000000E+03  0.7818608E-02  0.1093470E+00
          1   -1    0    0  502    0  0.00000000000E+00  0.00000000000E+00  0.25865603548E+03  0.25865603548E+03  0.00000000000E+00 0.  1.
         13   -1    0    0    0    0 -0.00000000000E+00 -0.00000000000E+00 -0.27500000000E+03  0.27500000000E+03  0.00000000000E+00 0.  1.
    9000005    2    1    2  501    0  0.40640190038E+02  0.38265740903E+02 -0.19364926661E+02  0.47775417338E+03  0.47408665645E+03 0.  0.
         13    1    3    3    0    0  0.19961863333E+03 -0.48705348169E+02 -0.14996769800E+03  0.25438183928E+03  0.00000000000E+00 0.  1.
          3    1    3    3  501    0 -0.15897844329E+03  0.86971089071E+02  0.13060277133E+03  0.22337233411E+03  0.00000000000E+00 0.  1.
         21    1    1    2  502  501 -0.40640190038E+02 -0.38265740903E+02  0.30209621376E+01  0.55901862092E+02  0.00000000000E+00 0.  1.
<scales pt_clust_4="550.00000" pt_clust_5="550.00000" pt_clust_6="55.82018"></scales>
<mgrwt>
<rscale>  0 0.30000000E+03</rscale>
<asrwt>  1 0.55820175E+02</asrwt>
<pdfrwt beam="1">  1        1 0.94056740E+00 0.30000000E+03</pdfrwt>
<pdfrwt beam="2">0</pdfrwt>
<totfact> 0.17231822E-05</totfact>
</mgrwt>
<clustering>
<clus scale="   55.820">  1  6  2 -1</clus>
<clus scale="  474.087">  4  5 -1 -1</clus>
<clus scale="  300.000">  1  4  2 -1</clus>
</clustering>
</event>
<event>
 6    1  0.9964252E-012  0.3000000E+03  0.7818608E-02  0.1093470E+00
          1   -1    0    0  502    0  0.00000000000E+00  0.00000000000E+00  0.24165838445E+03  0.24165838445E+03  0.00000000000E+00 0.  1.
         13   -1    0    0    0    0 -0.00000000000E+00 -0.00000000000E+00 -0.27500000000E+03  0.27500000000E+03  0.00000000000E+00 0.  1.
    9000005    2    1    2  501    0 -0.24372073379E+02  0.28662785286E+02 -0.47535669372E+02  0.47644614272E+03  0.47257352214E+03 0.  0.
         13    1    3    3    0    0  0.27087992874E+02 -0.74063251303E+02 -0.23981836380E+03  0.25245192050E+03  0.00000000000E+00 0.  1.
          1    1    3    3  501    0 -0.51460066253E+02  0.10272603659E+03  0.19228269442E+03  0.22399422222E+03  0.00000000000E+00 0.  1.
         21    1    1    2  502  501  0.24372073379E+02 -0.28662785286E+02  0.14194053822E+02  0.40212241731E+02  0.00000000000E+00 0.  1.
<scales pt_clust_4="550.00000" pt_clust_5="550.00000" pt_clust_6="37.62384"></scales>
<mgrwt>
<rscale>  0 0.30000000E+03</rscale>
<asrwt>  1 0.37623838E+02</asrwt>
<pdfrwt beam="1">  1        1 0.87875776E+00 0.30000000E+03</pdfrwt>
<pdfrwt beam="2">0</pdfrwt>
<totfact> 0.20158337E-04</totfact>
</mgrwt>
<clustering>
<clus scale="   37.624">  1  6  2 -1</clus>
<clus scale="  472.574">  4  5 -1 -1</clus>
<clus scale="  300.000">  1  4  2 -1</clus>
</clustering>
</event>
<event>
 6    1  0.9964252E-012  0.3000000E+03  0.7818608E-02  0.1093470E+00
          1   -1    0    0  502    0  0.00000000000E+00  0.00000000000E+00  0.24023837123E+03  0.24023837123E+03  0.00000000000E+00 0.  1.
         13   -1    0    0    0    0 -0.00000000000E+00 -0.00000000000E+00 -0.27500000000E+03  0.27500000000E+03  0.00000000000E+00 0.  1.
    9000005    2    1    2  501    0 -0.18689038487E+02 -0.24284938925E+02 -0.39133712899E+02  0.48428431596E+03  0.48172690685E+03 0.  0.
         13    1    3    3    0    0  0.99184432218E+02 -0.10690928237E+03  0.17403932479E+03  0.22706129751E+03  0.00000000000E+00 0.  1.
          3    1    3    3  501    0 -0.11787347071E+03  0.82624343447E+02 -0.21317303769E+03  0.25722301846E+03  0.00000000000E+00 0.  1.
         21    1    1    2  502  501  0.18689038487E+02  0.24284938925E+02  0.43720841320E+01  0.30954055272E+02  0.00000000000E+00 0. -1.
<scales pt_clust_4="550.00000" pt_clust_5="550.00000" pt_clust_6="30.64373"></scales>
<mgrwt>
<rscale>  0 0.30000000E+03</rscale>
<asrwt>  1 0.30643734E+02</asrwt>
<pdfrwt beam="1">  1        1 0.87359408E+00 0.30000000E+03</pdfrwt>
<pdfrwt beam="2">0</pdfrwt>
<totfact> 0.23860357E-04</totfact>
</mgrwt>
<clustering>
<clus scale="   30.644">  1  6  2 -1</clus>
<clus scale="  481.727">  4  5 -1 -1</clus>
<clus scale="  300.000">  1  4  2 -1</clus>
</clustering>
</event>
<event>
 6    1  0.9964252E-012  0.3000000E+03  0.7818608E-02  0.1093470E+00
          1   -1    0    0  502    0  0.00000000000E+00  0.00000000000E+00  0.23468214509E+03  0.23468214509E+03  0.00000000000E+00 0.  1.
         13   -1    0    0    0    0 -0.00000000000E+00 -0.00000000000E+00 -0.27500000000E+03  0.27500000000E+03  0.00000000000E+00 0.  1.
    9000005    2    1    2  501    0  0.28180177821E+02  0.19247334416E+02 -0.55117637268E+02  0.47248515782E+03  0.46801676051E+03 0.  0.
         13    1    3    3    0    0 -0.14429231803E+03  0.10980561268E+03  0.11428134142E+03  0.21433098379E+03  0.00000000000E+00 0.  1.
          3    1    3    3  501    0  0.17247249585E+03 -0.90558278263E+02 -0.16939897869E+03  0.25815417402E+03  0.00000000000E+00 0.  1.
         21    1    1    2  502  501 -0.28180177821E+02 -0.19247334416E+02  0.14799782353E+02  0.37196987268E+02  0.00000000000E+00 0. -1.
<scales pt_clust_4="550.00000" pt_clust_5="550.00000" pt_clust_6="34.12598"></scales>
<mgrwt>
<rscale>  0 0.30000000E+03</rscale>
<asrwt>  1 0.34125977E+02</asrwt>
<pdfrwt beam="1">  1        1 0.85338962E+00 0.30000000E+03</pdfrwt>
<pdfrwt beam="2">0</pdfrwt>
<totfact> 0.37957261E-04</totfact>
</mgrwt>
<clustering>
<clus scale="   34.126">  1  6  2 -1</clus>
<clus scale="  468.017">  4  5 -1 -1</clus>
<clus scale="  300.000">  1  4  2 -1</clus>
</clustering>
</event>
<event>
 6    1  0.9964252E-012  0.3000000E+03  0.7818608E-02  0.1093470E+00
          1   -1    0    0  502    0  0.00000000000E+00  0.00000000000E+00  0.23810625581E+03  0.23810625581E+03  0.00000000000E+00 0.  1.
         13   -1    0    0    0    0 -0.00000000000E+00 -0.00000000000E+00 -0.27500000000E+03  0.27500000000E+03  0.00000000000E+00 0.  1.
    9000005    2    1    2  501    0  0.39780957571E+02 -0.97087197765E+01 -0.60935280355E+02  0.46562173953E+03  0.45979746857E+03 0.  0.
         13    1    3    3    0    0 -0.62351232214E+01  0.15273421608E+03 -0.19659989096E+03  0.24903440455E+03  0.00000000000E+00 0.  1.
          1    1    3    3  501    0  0.46016080792E+02 -0.16244293586E+03  0.13566461061E+03  0.21658733498E+03  0.00000000000E+00 0.  1.
         21    1    1    2  502  501 -0.39780957571E+02  0.97087197765E+01  0.24041536163E+02  0.47484516277E+02  0.00000000000E+00 0. -1.
<scales pt_clust_4="550.00000" pt_clust_5="550.00000" pt_clust_6="40.94855"></scales>
<mgrwt>
<rscale>  0 0.30000000E+03</rscale>
<asrwt>  1 0.40948551E+02</asrwt>
<pdfrwt beam="1">  1        1 0.86584093E+00 0.30000000E+03</pdfrwt>
<pdfrwt beam="2">0</pdfrwt>
<totfact> 0.27184755E-04</totfact>
</mgrwt>
<clustering>
<clus scale="   40.949">  1  6  2 -1</clus>
<clus scale="  459.797">  4  5 -1 -1</clus>
<clus scale="  300.000">  1  4  2 -1</clus>
</clustering>
</event>
<event>
 6    1  0.9964252E-012  0.3000000E+03  0.7818608E-02  0.1093470E+00
          1   -1    0    0  502    0  0.00000000000E+00  0.00000000000E+00  0.23750052627E+03  0.23750052627E+03  0.00000000000E+00 0.  1.
         13   -1    0    0    0    0 -0.00000000000E+00 -0.00000000000E+00 -0.27500000000E+03  0.27500000000E+03  0.00000000000E+00 0.  1.
    9000005    2    1    2  501    0  0.39632333362E+02  0.21572237132E+01 -0.47371443791E+02  0.47160026643E+03  0.46753329523E+03 0.  0.
         13    1    3    3    0    0  0.22774217551E+03  0.56999130547E+02 -0.11871434028E+03  0.26307507289E+03  0.00000000000E+00 0.  1.
          1    1    3    3  501    0 -0.18810984215E+03 -0.54841906834E+02  0.71342896488E+02  0.20852519353E+03  0.00000000000E+00 0.  1.
         21    1    1    2  502  501 -0.39632333362E+02 -0.21572237132E+01  0.98719700572E+01  0.40900259836E+02  0.00000000000E+00 0.  1.
<scales pt_clust_4="550.00000" pt_clust_5="550.00000" pt_clust_6="39.69100"></scales>
<mgrwt>
<rscale>  0 0.30000000E+03</rscale>
<asrwt>  1 0.39691000E+02</asrwt>
<pdfrwt beam="1">  1        1 0.86363828E+00 0.30000000E+03</pdfrwt>
<pdfrwt beam="2">0</pdfrwt>
<totfact> 0.28874428E-04</totfact>
</mgrwt>
<clustering>
<clus scale="   39.691">  1  6  2 -1</clus>
<clus scale="  467.533">  4  5 -1 -1</clus>
<clus scale="  300.000">  1  4  2 -1</clus>
</clustering>
</event>
<event>
 6    1  0.9964252E-012  0.3000000E+03  0.7818608E-02  0.1093470E+00
          1   -1    0    0  502    0  0.00000000000E+00  0.00000000000E+00  0.22839689875E+03  0.22839689875E+03  0.00000000000E+00 0.  1.
         13   -1    0    0    0    0 -0.00000000000E+00 -0.00000000000E+00 -0.27500000000E+03  0.27500000000E+03  0.00000000000E+00 0.  1.
    9000005    2    1    2  501    0  0.22527854444E+02 -0.22117138151E+02 -0.53359461217E+02  0.47111191112E+03  0.46701448444E+03 0.  0.
         13    1    3    3    0    0 -0.14205841100E+02 -0.75335089747E+02  0.19760259867E+03  0.21195275103E+03  0.00000000000E+00 0.  1.
          3    1    3    3  501    0  0.36733695545E+02  0.53217951595E+02 -0.25096205988E+03  0.25915916010E+03  0.00000000000E+00 0.  1.
         21    1    1    2  502  501 -0.22527854444E+02  0.22117138151E+02  0.67563599656E+01  0.32284987623E+02  0.00000000000E+00 0.  1.
<scales pt_clust_4="550.00000" pt_clust_5="550.00000" pt_clust_6="31.57011"></scales>
<mgrwt>
<rscale>  0 0.30000000E+03</rscale>
<asrwt>  1 0.31570113E+02</asrwt>
<pdfrwt beam="1">  1        1 0.83053418E+00 0.30000000E+03</pdfrwt>
<pdfrwt beam="2">0</pdfrwt>
<totfact> 0.59660564E-04</totfact>
</mgrwt>
<clustering>
<clus scale="   31.570">  1  6  2 -1</clus>
<clus scale="  467.014">  4  5 -1 -1</clus>
<clus scale="  300.000">  1  4  2 -1</clus>
</clustering>
</event>
<event>
 6    1  0.9964252E-012  0.3000000E+03  0.7818608E-02  0.1093470E+00
          1   -1    0    0  502    0  0.00000000000E+00  0.00000000000E+00  0.24081429437E+03  0.24081429437E+03  0.00000000000E+00 0.  1.
         13   -1    0    0    0    0 -0.00000000000E+00 -0.00000000000E+00 -0.27500000000E+03  0.27500000000E+03  0.00000000000E+00 0.  1.
    9000005    2    1    2  501    0  0.33210179869E+02 -0.35933635660E+02 -0.52155028268E+02  0.46368907231E+03  0.45814109899E+03 0.  0.
         13    1    3    3    0    0 -0.15667308123E+03 -0.13036328044E+03 -0.12542990982E+03  0.23931924608E+03  0.00000000000E+00 0.  1.
          1    1    3    3  501    0  0.18988326110E+03  0.94429644776E+02  0.73274881548E+02  0.22436982623E+03  0.00000000000E+00 0.  1.
         21    1    1    2  502  501 -0.33210179869E+02  0.35933635660E+02  0.17969322635E+02  0.52125222059E+02  0.00000000000E+00 0. -1.
<scales pt_clust_4="550.00000" pt_clust_5="550.00000" pt_clust_6="48.92997"></scales>
<mgrwt>
<rscale>  0 0.30000000E+03</rscale>
<asrwt>  1 0.48929973E+02</asrwt>
<pdfrwt beam="1">  1        1 0.87568834E+00 0.30000000E+03</pdfrwt>
<pdfrwt beam="2">0</pdfrwt>
<totfact> 0.20811849E-04</totfact>
</mgrwt>
<clustering>
<clus scale="   48.930">  1  6  2 -1</clus>
<clus scale="  458.141">  4  5 -1 -1</clus>
<clus scale="  300.000">  1  4  2 -1</clus>
</clustering>
</event>
<event>
 6    1  0.9964252E-012  0.3000000E+03  0.7818608E-02  0.1093470E+00
          1   -1    0    0  502    0  0.00000000000E+00  0.00000000000E+00  0.23850200010E+03  0.23850200010E+03  0.00000000000E+00 0.  1.
         13   -1    0    0    0    0 -0.00000000000E+00 -0.00000000000E+00 -0.27500000000E+03  0.27500000000E+03  0.00000000000E+00 0.  1.
    9000005    2    1    2  501    0  0.23785404367E+02 -0.26274958867E+02 -0.62650135805E+02  0.46945596581E+03  0.46390488830E+03 0.  0.
         13    1    3    3    0    0 -0.15163655409E+03 -0.20552192321E+02  0.13575339916E+03  0.20456055956E+03  0.00000000000E+00 0.  1.
          3    1    3    3  501    0  0.17542195846E+03 -0.57227665458E+01 -0.19840353496E+03  0.26489540625E+03  0.00000000000E+00 0.  1.
         21    1    1    2  502  501 -0.23785404367E+02  0.26274958867E+02  0.26152135905E+02  0.44046034291E+02  0.00000000000E+00 0. -1.
<scales pt_clust_4="550.00000" pt_clust_5="550.00000" pt_clust_6="35.44177"></scales>
<mgrwt>
<rscale>  0 0.30000000E+03</rscale>
<asrwt>  1 0.35441768E+02</asrwt>
<pdfrwt beam="1">  1        1 0.86728000E+00 0.30000000E+03</pdfrwt>
<pdfrwt beam="2">0</pdfrwt>
<totfact> 0.26954956E-04</totfact>
</mgrwt>
<clustering>
<clus scale="   35.442">  1  6  2 -1</clus>
<clus scale="  463.905">  4  5 -1 -1</clus>
<clus scale="  300.000">  1  4  2 -1</clus>
</clustering>
</event>
<event>
 6    1  0.9964252E-012  0.3000000E+03  0.7818608E-02  0.1093470E+00
          1   -1    0    0  502    0  0.00000000000E+00  0.00000000000E+00  0.23402645589E+03  0.23402645589E+03  0.00000000000E+00 0.  1.
         13   -1    0    0    0    0 -0.00000000000E+00 -0.00000000000E+00 -0.27500000000E+03  0.27500000000E+03  0.00000000000E+00 0.  1.
    9000005    2    1    2  501    0 -0.50280529807E+01  0.37489999454E+02 -0.56412382871E+02  0.46817135684E+03  0.46321839455E+03 0.  0.
         13    1    3    3    0    0  0.48099301125E+01 -0.19921427336E+03 -0.10661721497E+03  0.22600153245E+03  0.00000000000E+00 0.  1.
          1    1    3    3  501    0 -0.98379830932E+01  0.23670427282E+03  0.50204832103E+02  0.24216982440E+03  0.00000000000E+00 0.  1.
         21    1    1    2  502  501  0.50280529807E+01 -0.37489999454E+02  0.15438838758E+02  0.40855099046E+02  0.00000000000E+00 0. -1.
<scales pt_clust_4="550.00000" pt_clust_5="550.00000" pt_clust_6="37.82567"></scales>
<mgrwt>
<rscale>  0 0.30000000E+03</rscale>
<asrwt>  1 0.37825671E+02</asrwt>
<pdfrwt beam="1">  1        1 0.85100529E+00 0.30000000E+03</pdfrwt>
<pdfrwt beam="2">0</pdfrwt>
<totfact> 0.39249385E-04</totfact>
</mgrwt>
<clustering>
<clus scale="   37.826">  1  6  2 -1</clus>
<clus scale="  463.218">  4  5 -1 -1</clus>
<clus scale="  300.000">  1  4  2 -1</clus>
</clustering>
</event>
<event>
 6    1  0.9964252E-012  0.3000000E+03  0.7818608E-02  0.1093470E+00
          1   -1    0    0  502    0  0.00000000000E+00  0.00000000000E+00  0.21749406556E+03  0.21749406556E+03  0.00000000000E+00 0.  1.
         13   -1    0    0    0    0 -0.00000000000E+00 -0.00000000000E+00 -0.27500000000E+03  0.27500000000E+03  0.00000000000E+00 0.  1.
    9000005    2    1    2  501    0 -0.19403625195E+02 -0.22982681382E+02 -0.57946160741E+02  0.46241254110E+03  0.45778040184E+03 0.  0.
         13    1    3    3    0    0 -0.19086269703E+03 -0.99857887138E+02 -0.14049526195E+03  0.25717520365E+03  0.00000000000E+00 0.  1.
          1    1    3    3  501    0  0.17145907183E+03  0.76875205756E+02  0.82549101213E+02  0.20523733745E+03  0.00000000000E+00 0.  1.
         21    1    1    2  502  501  0.19403625195E+02  0.22982681382E+02  0.44022629816E+00  0.30081524453E+02  0.00000000000E+00 0.  1.
<scales pt_clust_4="550.00000" pt_clust_5="550.00000" pt_clust_6="30.07830"></scales>
<mgrwt>
<rscale>  0 0.30000000E+03</rscale>
<asrwt>  1 0.30078303E+02</asrwt>
<pdfrwt beam="1">  1        1 0.79088751E+00 0.30000000E+03</pdfrwt>
<pdfrwt beam="2">0</pdfrwt>
<totfact> 0.12487906E-03</totfact>
</mgrwt>
<clustering>
<clus scale="   30.078">  1  6  2 -1</clus>
<clus scale="  457.780">  4  5 -1 -1</clus>
<clus scale="  300.000">  1  4  2 -1</clus>
</clustering>
</event>
<event>
 6    1  0.9964252E-012  0.3000000E+03  0.7818608E-02  0.1093470E+00
          1   -1    0    0  502    0  0.00000000000E+00  0.00000000000E+00  0.22984003041E+03  0.22984003041E+03  0.00000000000E+00 0.  1.
         13   -1    0    0    0    0 -0.00000000000E+00 -0.00000000000E+00 -0.27500000000E+03  0.27500000000E+03  0.00000000000E+00 0.  1.
    9000005    2    1    2  501    0 -0.30677000094E+02  0.16915814440E+02 -0.46178315715E+02  0.46979348790E+03  0.46620409835E+03 0.  0.
         13    1    3    3    0    0 -0.33050294529E+02 -0.77432251565E+02 -0.23993303583E+03  0.25427531778E+03  0.00000000000E+00 0.  1.
          3    1    3    3  501    0  0.23732944346E+01  0.94348066004E+02  0.19375472012E+03  0.21551817012E+03  0.00000000000E+00 0.  1.
         21    1    1    2  502  501  0.30677000094E+02 -0.16915814440E+02  0.10183461263E+01  0.35046542508E+02  0.00000000000E+00 0. -1.
<scales pt_clust_4="550.00000" pt_clust_5="550.00000" pt_clust_6="35.03174"></scales>
<mgrwt>
<rscale>  0 0.30000000E+03</rscale>
<asrwt>  1 0.35031744E+02</asrwt>
<pdfrwt beam="1">  1        1 0.83578193E+00 0.30000000E+03</pdfrwt>
<pdfrwt beam="2">0</pdfrwt>
<totfact> 0.53385785E-04</totfact>
</mgrwt>
<clustering>
<clus scale="   35.032">  1  6  2 -1</clus>
<clus scale="  466.204">  4  5 -1 -1</clus>
<clus scale="  300.000">  1  4  2 -1</clus>
</clustering>
</event>
<event>
 6    1  0.9964252E-012  0.3000000E+03  0.7818608E-02  0.1093470E+00
          1   -1    0    0  502    0  0.00000000000E+00  0.00000000000E+00  0.23737148587E+03  0.23737148587E+03  0.00000000000E+00 0.  1.
         13   -1    0    0    0    0 -0.00000000000E+00 -0.00000000000E+00 -0.27500000000E+03  0.27500000000E+03  0.00000000000E+00 0.  1.
    9000005    2    1    2  501    0 -0.17215914605E+02 -0.29712037585E+02 -0.34860673858E+02  0.47792074085E+03  0.47540906076E+03 0.  0.
         13    1    3    3    0    0 -0.16221320929E+03 -0.95291022569E+01  0.16407750379E+03  0.23092283626E+03  0.00000000000E+00 0.  1.
          1    1    3    3  501    0  0.14499729469E+03 -0.20182935328E+02 -0.19893817764E+03  0.24699790458E+03  0.00000000000E+00 0.  1.
         21    1    1    2  502  501  0.17215914605E+02  0.29712037585E+02 -0.27678402690E+01  0.34450745027E+02  0.00000000000E+00 0.  1.
<scales pt_clust_4="550.00000" pt_clust_5="550.00000" pt_clust_6="34.33940"></scales>
<mgrwt>
<rscale>  0 0.30000000E+03</rscale>
<asrwt>  1 0.34339395E+02</asrwt>
<pdfrwt beam="1">  1        1 0.86316904E+00 0.30000000E+03</pdfrwt>
<pdfrwt beam="2">0</pdfrwt>
<totfact> 0.30008317E-04</totfact>
</mgrwt>
<clustering>
<clus scale="   34.339">  1  6  2 -1</clus>
<clus scale="  475.409">  4  5 -1 -1</clus>
<clus scale="  300.000">  1  4  2 -1</clus>
</clustering>
</event>
<event>
 6    1  0.9964252E-012  0.3000000E+03  0.7818608E-02  0.1093470E+00
          1   -1    0    0  502    0  0.00000000000E+00  0.00000000000E+00  0.27095509949E+03  0.27095509949E+03  0.00000000000E+00 0.  1.
         13   -1    0    0    0    0 -0.00000000000E+00 -0.00000000000E+00 -0.27500000000E+03  0.27500000000E+03  0.00000000000E+00 0.  1.
    9000005    2    1    2  501    0  0.14070760775E+02 -0.30832385058E+02 -0.22713572682E+02  0.50726218544E+03  0.50561882492E+03 0.  0.
         13    1    3    3    0    0  0.16207549698E+03 -0.15136344744E+03  0.13503178016E+03  0.25964002310E+03  0.00000000000E+00 0.  1.
          1    1    3    3  501    0 -0.14800473621E+03  0.12053106238E+03 -0.15774535284E+03  0.24762216234E+03  0.00000000000E+00 0.  1.
         21    1    1    2  502  501 -0.14070760775E+02  0.30832385058E+02  0.18668672176E+02  0.38692914054E+02  0.00000000000E+00 0.  1.
<scales pt_clust_4="550.00000" pt_clust_5="550.00000" pt_clust_6="33.89133"></scales>
<mgrwt>
<rscale>  0 0.30000000E+03</rscale>
<asrwt>  1 0.33891330E+02</asrwt>
<pdfrwt beam="1">  1        1 0.98529127E+00 0.30000000E+03</pdfrwt>
<pdfrwt beam="2">0</pdfrwt>
<totfact> 0.15429794E-06</totfact>
</mgrwt>
<clustering>
<clus scale="   33.891">  1  6  2 -1</clus>
<clus scale="  505.619">  4  5 -1 -1</clus>
<clus scale="  300.000">  1  4  2 -1</clus>
</clustering>
</event>
<event>
 6    1  0.9964252E-012  0.3000000E+03  0.7818608E-02  0.1093470E+00
          1   -1    0    0  502    0  0.00000000000E+00  0.00000000000E+00  0.24539483465E+03  0.24539483465E+03  0.00000000000E+00 0.  1.
         13   -1    0    0    0    0 -0.00000000000E+00 -0.00000000000E+00 -0.27500000000E+03  0.27500000000E+03  0.00000000000E+00 0.  1.
    9000005    2    1    2  501    0  0.33664907596E+02 -0.32308120635E+02 -0.49889235843E+02  0.46951670400E+03  0.46452110697E+03 0.  0.
         13    1    3    3    0    0 -0.17120477112E+03  0.10508350355E+03  0.43884718269E+02  0.20561975797E+03  0.00000000000E+00 0.  1.
          1    1    3    3  501    0  0.20486967872E+03 -0.13739162418E+03 -0.93773954112E+02  0.26389694603E+03  0.00000000000E+00 0.  1.
         21    1    1    2  502  501 -0.33664907596E+02  0.32308120635E+02  0.20284070491E+02  0.50878130646E+02  0.00000000000E+00 0.  1.
<scales pt_clust_4="550.00000" pt_clust_5="550.00000" pt_clust_6="46.65984"></scales>
<mgrwt>
<rscale>  0 0.30000000E+03</rscale>
<asrwt>  1 0.46659840E+02</asrwt>
<pdfrwt beam="1">  1        1 0.89234485E+00 0.30000000E+03</pdfrwt>
<pdfrwt beam="2">0</pdfrwt>
<totfact> 0.12843175E-04</totfact>
</mgrwt>
<clustering>
<clus scale="   46.660">  1  6  2 -1</clus>
<clus scale="  464.521">  4  5 -1 -1</clus>
<clus scale="  300.000">  1  4  2 -1</clus>
</clustering>
</event>
<event>
 6    1  0.9964252E-012  0.3000000E+03  0.7818608E-02  0.1093470E+00
          1   -1    0    0  502    0  0.00000000000E+00  0.00000000000E+00  0.23671778596E+03  0.23671778596E+03  0.00000000000E+00 0.  1.
         13   -1    0    0    0    0 -0.00000000000E+00 -0.00000000000E+00 -0.27500000000E+03  0.27500000000E+03  0.00000000000E+00 0.  1.
    9000005    2    1    2  501    0  0.32113665626E+02 -0.49692232287E+01 -0.53185430379E+02  0.47596744950E+03  0.47186898847E+03 0.  0.
         13    1    3    3    0    0 -0.59891761296E+02  0.12580322271E+03  0.15827117410E+03  0.21086307991E+03  0.00000000000E+00 0.  1.
          3    1    3    3  501    0  0.92005426921E+02 -0.13077244594E+03 -0.21145660448E+03  0.26510436960E+03  0.00000000000E+00 0.  1.
         21    1    1    2  502  501 -0.32113665626E+02  0.49692232287E+01  0.14903216337E+02  0.35750336454E+02  0.00000000000E+00 0.  1.
<scales pt_clust_4="550.00000" pt_clust_5="550.00000" pt_clust_6="32.49586"></scales>
<mgrwt>
<rscale>  0 0.30000000E+03</rscale>
<asrwt>  1 0.32495857E+02</asrwt>
<pdfrwt beam="1">  1        1 0.86079195E+00 0.30000000E+03</pdfrwt>
<pdfrwt beam="2">0</pdfrwt>
<totfact> 0.32167713E-04</totfact>
</mgrwt>
<clustering>
<clus scale="   32.496">  1  6  2 -1</clus>
<clus scale="  471.869">  4  5 -1 -1</clus>
<clus scale="  300.000">  1  4  2 -1</clus>
</clustering>
</event>
<event>
 6    1  0.9964252E-012  0.3000000E+03  0.7818608E-02  0.1093470E+00
          1   -1    0    0  502    0  0.00000000000E+00  0.00000000000E+00  0.22178782767E+03  0.22178782767E+03  0.00000000000E+00 0.  1.
         13   -1    0    0    0    0 -0.00000000000E+00 -0.00000000000E+00 -0.27500000000E+03  0.27500000000E+03  0.00000000000E+00 0.  1.
    9000005    2    1    2  501    0  0.29899630537E+02  0.44028647516E+01 -0.67415479132E+02  0.46339460907E+03  0.45746731442E+03 0.  0.
         13    1    3    3    0    0  0.10039631121E+03  0.18784969306E+02  0.17932786940E+03  0.20637533554E+03  0.00000000000E+00 0.  1.
          1    1    3    3  501    0 -0.70496680676E+02 -0.14382104555E+02 -0.24674334853E+03  0.25701927352E+03  0.00000000000E+00 0.  1.
         21    1    1    2  502  501 -0.29899630537E+02 -0.44028647516E+01  0.14203306797E+02  0.33393218597E+02  0.00000000000E+00 0.  1.
<scales pt_clust_4="550.00000" pt_clust_5="550.00000" pt_clust_6="30.22206"></scales>
<mgrwt>
<rscale>  0 0.30000000E+03</rscale>
<asrwt>  1 0.30222064E+02</asrwt>
<pdfrwt beam="1">  1        1 0.80650119E+00 0.30000000E+03</pdfrwt>
<pdfrwt beam="2">0</pdfrwt>
<totfact> 0.95434384E-04</totfact>
</mgrwt>
<clustering>
<clus scale="   30.222">  1  6  2 -1</clus>
<clus scale="  457.467">  4  5 -1 -1</clus>
<clus scale="  300.000">  1  4  2 -1</clus>
</clustering>
</event>
<event>
 6    1  0.9964252E-012  0.3000000E+03  0.7818608E-02  0.1093470E+00
          1   -1    0    0  502    0  0.00000000000E+00  0.00000000000E+00  0.23622299368E+03  0.23622299368E+03  0.00000000000E+00 0.  1.
         13   -1    0    0    0    0 -0.00000000000E+00 -0.00000000000E+00 -0.27500000000E+03  0.27500000000E+03  0.00000000000E+00 0.  1.
    9000005    2    1    2  501    0  0.14855666269E+02  0.34851095432E+02 -0.63797915967E+02  0.46582105988E+03  0.45987367404E+03 0.  0.
         13    1    3    3    0    0  0.83994786606E+02 -0.39310206256E+02  0.17961074031E+03  0.20213964116E+03  0.00000000000E+00 0.  1.
          1    1    3    3  501    0 -0.69139120337E+02  0.74161301688E+02 -0.24340865628E+03  0.26368141872E+03  0.00000000000E+00 0.  1.
         21    1    1    2  502  501 -0.14855666269E+02 -0.34851095432E+02  0.25020909643E+02  0.45401933797E+02  0.00000000000E+00 0.  1.
<scales pt_clust_4="550.00000" pt_clust_5="550.00000" pt_clust_6="37.88522"></scales>
<mgrwt>
<rscale>  0 0.30000000E+03</rscale>
<asrwt>  1 0.37885217E+02</asrwt>
<pdfrwt beam="1">  1        1 0.85899270E+00 0.30000000E+03</pdfrwt>
<pdfrwt beam="2">0</pdfrwt>
<totfact> 0.32668636E-04</totfact>
</mgrwt>
<clustering>
<clus scale="   37.885">  1  6  2 -1</clus>
<clus scale="  459.874">  4  5 -1 -1</clus>
<clus scale="  300.000">  1  4  2 -1</clus>
</clustering>
</event>
<event>
 6    1  0.9964252E-012  0.3000000E+03  0.7818608E-02  0.1093470E+00
          1   -1    0    0  502    0  0.00000000000E+00  0.00000000000E+00  0.22433856351E+03  0.22433856351E+03  0.00000000000E+00 0.  1.
         13   -1    0    0    0    0 -0.00000000000E+00 -0.00000000000E+00 -0.27500000000E+03  0.27500000000E+03  0.00000000000E+00 0.  1.
    9000005    2    1    2  501    0 -0.16557275447E+02  0.31060996045E+02 -0.42151446473E+02  0.46312601354E+03  0.45985870779E+03 0.  0.
         13    1    3    3    0    0 -0.13163630572E+03  0.53559501499E+02  0.16948133407E+03  0.22118015233E+03  0.00000000000E+00 0.  1.
          3    1    3    3  501    0  0.11507903027E+03 -0.22498505454E+02 -0.21163278055E+03  0.24194586121E+03  0.00000000000E+00 0.  1.
         21    1    1    2  502  501  0.16557275447E+02 -0.31060996045E+02 -0.85099900125E+01  0.36212549973E+02  0.00000000000E+00 0. -1.
<scales pt_clust_4="550.00000" pt_clust_5="550.00000" pt_clust_6="35.19844"></scales>
<mgrwt>
<rscale>  0 0.30000000E+03</rscale>
<asrwt>  1 0.35198439E+02</asrwt>
<pdfrwt beam="1">  1        1 0.81577659E+00 0.30000000E+03</pdfrwt>
<pdfrwt beam="2">0</pdfrwt>
<totfact> 0.78375293E-04</totfact>
</mgrwt>
<clustering>
<clus scale="   35.198">  1  6  2 -1</clus>
<clus scale="  459.859">  4  5 -1 -1</clus>
<clus scale="  300.000">  1  4  2 -1</clus>
</clustering>
</event>
<event>
 6    1  0.9964252E-012  0.3000000E+03  0.7818608E-02  0.1093470E+00
          1   -1    0    0  502    0  0.00000000000E+00  0.00000000000E+00  0.26687838501E+03  0.26687838501E+03  0.00000000000E+00 0.  1.
         13   -1    0    0    0    0 -0.00000000000E+00 -0.00000000000E+00 -0.27500000000E+03  0.27500000000E+03  0.00000000000E+00 0.  1.
    9000005    2    1    2  501    0 -0.42949173029E+02 -0.25792686242E+02 -0.75466929765E+01  0.49177624271E+03  0.48915950997E+03 0.  0.
         13    1    3    3    0    0 -0.72546260446E+02 -0.78881385866E+02  0.22617492555E+03  0.25028050242E+03  0.00000000000E+00 0.  1.
          3    1    3    3  501    0  0.29597087417E+02  0.53088699624E+02 -0.23372161853E+03  0.24149574029E+03  0.00000000000E+00 0.  1.
         21    1    1    2  502  501  0.42949173029E+02  0.25792686242E+02 -0.57492201545E+00  0.50102142297E+02  0.00000000000E+00 0. -1.
<scales pt_clust_4="550.00000" pt_clust_5="550.00000" pt_clust_6="50.09884"></scales>
<mgrwt>
<rscale>  0 0.30000000E+03</rscale>
<asrwt>  1 0.50098844E+02</asrwt>
<pdfrwt beam="1">  1        1 0.97046685E+00 0.30000000E+03</pdfrwt>
<pdfrwt beam="2">0</pdfrwt>
<totfact> 0.45693203E-06</totfact>
</mgrwt>
<clustering>
<clus scale="   50.099">  1  6  2 -1</clus>
<clus scale="  489.160">  4  5 -1 -1</clus>
<clus scale="  300.000">  1  4  2 -1</clus>
</clustering>
</event>
<event>
 6    1  0.9964252E-012  0.3000000E+03  0.7818608E-02  0.1093470E+00
          1   -1    0    0  502    0  0.00000000000E+00  0.00000000000E+00  0.22883566401E+03  0.22883566401E+03  0.00000000000E+00 0.  1.
         13   -1    0    0    0    0 -0.00000000000E+00 -0.00000000000E+00 -0.27500000000E+03  0.27500000000E+03  0.00000000000E+00 0.  1.
    9000005    2    1    2  501    0  0.33967572684E+02  0.73776286862E+01 -0.40639234522E+02  0.46863975310E+03  0.46557861356E+03 0.  0.
         13    1    3    3    0    0 -0.12312742341E+03 -0.18244013825E+03 -0.28606119083E+02  0.22195286997E+03  0.00000000000E+00 0.  1.
          3    1    3    3  501    0  0.15709499609E+03  0.18981776693E+03 -0.12033115439E+02  0.24668688313E+03  0.00000000000E+00 0.  1.
         21    1    1    2  502  501 -0.33967572684E+02 -0.73776286862E+01 -0.55251014651E+01  0.35195910917E+02  0.00000000000E+00 0.  1.
<scales pt_clust_4="550.00000" pt_clust_5="550.00000" pt_clust_6="34.75955"></scales>
<mgrwt>
<rscale>  0 0.30000000E+03</rscale>
<asrwt>  1 0.34759554E+02</asrwt>
<pdfrwt beam="1">  1        1 0.83212969E+00 0.30000000E+03</pdfrwt>
<pdfrwt beam="2">0</pdfrwt>
<totfact> 0.56910706E-04</totfact>
</mgrwt>
<clustering>
<clus scale="   34.760">  1  6  2 -1</clus>
<clus scale="  465.579">  4  5 -1 -1</clus>
<clus scale="  300.000">  1  4  2 -1</clus>
</clustering>
</event>
<event>
 6    1  0.9964252E-012  0.3000000E+03  0.7818608E-02  0.1093470E+00
          1   -1    0    0  502    0  0.00000000000E+00  0.00000000000E+00  0.23133262184E+03  0.23133262184E+03  0.00000000000E+00 0.  1.
         13   -1    0    0    0    0 -0.00000000000E+00 -0.00000000000E+00 -0.27500000000E+03  0.27500000000E+03  0.00000000000E+00 0.  1.
    9000005    2    1    2  501    0  0.36719371757E+01 -0.31315480990E+02 -0.53648859306E+02  0.47326039122E+03  0.46915142046E+03 0.  0.
         13    1    3    3    0    0  0.83677213694E+02 -0.10827189133E+03 -0.22838654034E+03  0.26624254046E+03  0.00000000000E+00 0.  1.
          3    1    3    3  501    0 -0.80005276518E+02  0.76956410335E+02  0.17473768103E+03  0.20701785076E+03  0.00000000000E+00 0.  1.
         21    1    1    2  502  501 -0.36719371757E+01  0.31315480990E+02  0.99814811476E+01  0.33072230620E+02  0.00000000000E+00 0. -1.
<scales pt_clust_4="550.00000" pt_clust_5="550.00000" pt_clust_6="31.53002"></scales>
<mgrwt>
<rscale>  0 0.30000000E+03</rscale>
<asrwt>  1 0.31530025E+02</asrwt>
<pdfrwt beam="1">  1        1 0.84120953E+00 0.30000000E+03</pdfrwt>
<pdfrwt beam="2">0</pdfrwt>
<totfact> 0.49600350E-04</totfact>
</mgrwt>
<clustering>
<clus scale="   31.530">  1  6  2 -1</clus>
<clus scale="  469.151">  4  5 -1 -1</clus>
<clus scale="  300.000">  1  4  2 -1</clus>
</clustering>
</event>
<event>
 6    1  0.9964252E-012  0.3000000E+03  0.7818608E-02  0.1093470E+00
          1   -1    0    0  502    0  0.00000000000E+00  0.00000000000E+00  0.24315066929E+03  0.24315066929E+03  0.00000000000E+00 0.  1.
         13   -1    0    0    0    0 -0.00000000000E+00 -0.00000000000E+00 -0.27500000000E+03  0.27500000000E+03  0.00000000000E+00 0.  1.
    9000005    2    1    2  501    0 -0.30049283173E+02  0.14469087170E+02 -0.44136264095E+02  0.48260798179E+03  0.47942688741E+03 0.  0.
         13    1    3    3    0    0  0.92554149510E+02 -0.19335266059E+03  0.55694954387E+02  0.22148013431E+03  0.00000000000E+00 0.  1.
          1    1    3    3  501    0 -0.12260343268E+03  0.20782174776E+03 -0.99831218482E+02  0.26112784748E+03  0.00000000000E+00 0.  1.
         21    1    1    2  502  501  0.30049283173E+02 -0.14469087170E+02  0.12286933384E+02  0.35542687500E+02  0.00000000000E+00 0. -1.
<scales pt_clust_4="550.00000" pt_clust_5="550.00000" pt_clust_6="33.35137"></scales>
<mgrwt>
<rscale>  0 0.30000000E+03</rscale>
<asrwt>  1 0.33351370E+02</asrwt>
<pdfrwt beam="1">  1        1 0.88418425E+00 0.30000000E+03</pdfrwt>
<pdfrwt beam="2">0</pdfrwt>
<totfact> 0.17569679E-04</totfact>
</mgrwt>
<clustering>
<clus scale="   33.351">  1  6  2 -1</clus>
<clus scale="  479.427">  4  5 -1 -1</clus>
<clus scale="  300.000">  1  4  2 -1</clus>
</clustering>
</event>
<event>
 6    1  0.9964252E-012  0.3000000E+03  0.7818608E-02  0.1093470E+00
          1   -1    0    0  502    0  0.00000000000E+00  0.00000000000E+00  0.23508401461E+03  0.23508401461E+03  0.00000000000E+00 0.  1.
         13   -1    0    0    0    0 -0.00000000000E+00 -0.00000000000E+00 -0.27500000000E+03  0.27500000000E+03  0.00000000000E+00 0.  1.
    9000005    2    1    2  501    0  0.29161769988E+02 -0.18066202637E+02 -0.35827446655E+02  0.47553676210E+03  0.47294271289E+03 0.  0.
         13    1    3    3    0    0  0.11716464381E+03  0.18720887013E+03  0.65391323087E+02  0.23032746243E+03  0.00000000000E+00 0.  1.
          1    1    3    3  501    0 -0.88002873820E+02 -0.20527507277E+03 -0.10121876974E+03  0.24520929968E+03  0.00000000000E+00 0.  1.
         21    1    1    2  502  501 -0.29161769988E+02  0.18066202637E+02 -0.40885387379E+01  0.34547252504E+02  0.00000000000E+00 0.  1.
<scales pt_clust_4="550.00000" pt_clust_5="550.00000" pt_clust_6="34.30448"></scales>
<mgrwt>
<rscale>  0 0.30000000E+03</rscale>
<asrwt>  1 0.34304485E+02</asrwt>
<pdfrwt beam="1">  1        1 0.85485096E+00 0.30000000E+03</pdfrwt>
<pdfrwt beam="2">0</pdfrwt>
<totfact> 0.36695434E-04</totfact>
</mgrwt>
<clustering>
<clus scale="   34.304">  1  6  2 -1</clus>
<clus scale="  472.943">  4  5 -1 -1</clus>
<clus scale="  300.000">  1  4  2 -1</clus>
</clustering>
</event>
<event>
 6    1  0.9964252E-012  0.3000000E+03  0.7818608E-02  0.1093470E+00
          1   -1    0    0  502    0  0.00000000000E+00  0.00000000000E+00  0.24425989516E+03  0.24425989516E+03  0.00000000000E+00 0.  1.
         13   -1    0    0    0    0 -0.00000000000E+00 -0.00000000000E+00 -0.27500000000E+03  0.27500000000E+03  0.00000000000E+00 0.  1.
    9000005    2    1    2  501    0  0.26810705310E+02  0.22065637293E+02 -0.59415720753E+02  0.47422660507E+03  0.46920671224E+03 0.  0.
         13    1    3    3    0    0  0.18764694602E+03  0.14654589609E+03 -0.11352578512E+03  0.26377107480E+03  0.00000000000E+00 0.  1.
          1    1    3    3  501    0 -0.16083624071E+03 -0.12448025880E+03  0.54110064362E+02  0.21045553027E+03  0.00000000000E+00 0.  1.
         21    1    1    2  502  501 -0.26810705310E+02 -0.22065637293E+02  0.28675615913E+02  0.45033290090E+02  0.00000000000E+00 0. -1.
<scales pt_clust_4="550.00000" pt_clust_5="550.00000" pt_clust_6="34.72328"></scales>
<mgrwt>
<rscale>  0 0.30000000E+03</rscale>
<asrwt>  1 0.34723281E+02</asrwt>
<pdfrwt beam="1">  1        1 0.88821780E+00 0.30000000E+03</pdfrwt>
<pdfrwt beam="2">0</pdfrwt>
<totfact> 0.15346455E-04</totfact>
</mgrwt>
<clustering>
<clus scale="   34.723">  1  6  2 -1</clus>
<clus scale="  469.207">  4  5 -1 -1</clus>
<clus scale="  300.000">  1  4  2 -1</clus>
</clustering>
</event>
<event>
 6    1  0.9964252E-012  0.3000000E+03  0.7818608E-02  0.1093470E+00
          1   -1    0    0  502    0  0.00000000000E+00  0.00000000000E+00  0.23332707891E+03  0.23332707891E+03  0.00000000000E+00 0.  1.
         13   -1    0    0    0    0 -0.00000000000E+00 -0.00000000000E+00 -0.27500000000E+03  0.27500000000E+03  0.00000000000E+00 0.  1.
    9000005    2    1    2  501    0  0.30031635415E+01 -0.30350956479E+02 -0.55856526962E+02  0.47469117211E+03  0.47040573735E+03 0.  0.
         13    1    3    3    0    0  0.91662130098E+02  0.15245301322E+03  0.11280351044E+03  0.21063831395E+03  0.00000000000E+00 0.  1.
          1    1    3    3  501    0 -0.88658966556E+02 -0.18280396970E+03 -0.16866003741E+03  0.26405285817E+03  0.00000000000E+00 0.  1.
         21    1    1    2  502  501 -0.30031635415E+01  0.30350956479E+02  0.14183605872E+02  0.33635906796E+02  0.00000000000E+00 0.  1.
<scales pt_clust_4="550.00000" pt_clust_5="550.00000" pt_clust_6="30.49917"></scales>
<mgrwt>
<rscale>  0 0.30000000E+03</rscale>
<asrwt>  1 0.30499173E+02</asrwt>
<pdfrwt beam="1">  1        1 0.84846211E+00 0.30000000E+03</pdfrwt>
<pdfrwt beam="2">0</pdfrwt>
<totfact> 0.43172259E-04</totfact>
</mgrwt>
<clustering>
<clus scale="   30.499">  1  6  2 -1</clus>
<clus scale="  470.406">  4  5 -1 -1</clus>
<clus scale="  300.000">  1  4  2 -1</clus>
</clustering>
</event>
<event>
 6    1  0.9964252E-012  0.3000000E+03  0.7818608E-02  0.1093470E+00
          1   -1    0    0  502    0  0.00000000000E+00  0.00000000000E+00  0.23411705694E+03  0.23411705694E+03  0.00000000000E+00 0.  1.
         13   -1    0    0    0    0 -0.00000000000E+00 -0.00000000000E+00 -0.27500000000E+03  0.27500000000E+03  0.00000000000E+00 0.  1.
    9000005    2    1    2  501    0 -0.45782409055E+01  0.32607360989E+02 -0.59926252626E+02  0.47107960277E+03  0.46609080243E+03 0.  0.
         13    1    3    3    0    0  0.16953778258E+03  0.59586834588E+01 -0.18805432308E+03  0.25326467195E+03  0.00000000000E+00 0.  1.
          1    1    3    3  501    0 -0.17411602349E+03  0.26648677530E+02  0.12812807045E+03  0.21781493082E+03  0.00000000000E+00 0.  1.
         21    1    1    2  502  501  0.45782409055E+01 -0.32607360989E+02  0.19043309567E+02  0.38037454169E+02  0.00000000000E+00 0. -1.
<scales pt_clust_4="550.00000" pt_clust_5="550.00000" pt_clust_6="32.92720"></scales>
<mgrwt>
<rscale>  0 0.30000000E+03</rscale>
<asrwt>  1 0.32927197E+02</asrwt>
<pdfrwt beam="1">  1        1 0.85133475E+00 0.30000000E+03</pdfrwt>
<pdfrwt beam="2">0</pdfrwt>
<totfact> 0.39990093E-04</totfact>
</mgrwt>
<clustering>
<clus scale="   32.927">  1  6  2 -1</clus>
<clus scale="  466.091">  4  5 -1 -1</clus>
<clus scale="  300.000">  1  4  2 -1</clus>
</clustering>
</event>
<event>
 6    1  0.9964252E-012  0.3000000E+03  0.7818608E-02  0.1093470E+00
          1   -1    0    0  502    0  0.00000000000E+00  0.00000000000E+00  0.23097944677E+03  0.23097944677E+03  0.00000000000E+00 0.  1.
         13   -1    0    0    0    0 -0.00000000000E+00 -0.00000000000E+00 -0.27500000000E+03  0.27500000000E+03  0.00000000000E+00 0.  1.
    9000005    2    1    2  501    0 -0.21385821729E+02 -0.24888174399E+02 -0.63020346097E+02  0.46806155225E+03  0.46263730727E+03 0.  0.
         13    1    3    3    0    0 -0.23625166045E+03  0.38930270749E+02 -0.25364981710E+02  0.24077748097E+03  0.00000000000E+00 0.  1.
          1    1    3    3  501    0  0.21486583872E+03 -0.63818445148E+02 -0.37655364388E+02  0.22728407128E+03  0.00000000000E+00 0.  1.
         21    1    1    2  502  501  0.21385821729E+02  0.24888174399E+02  0.18999792865E+02  0.37917894521E+02  0.00000000000E+00 0.  1.
<scales pt_clust_4="550.00000" pt_clust_5="550.00000" pt_clust_6="32.81424"></scales>
<mgrwt>
<rscale>  0 0.30000000E+03</rscale>
<asrwt>  1 0.32814244E+02</asrwt>
<pdfrwt beam="1">  1        1 0.83992526E+00 0.30000000E+03</pdfrwt>
<pdfrwt beam="2">0</pdfrwt>
<totfact> 0.50377358E-04</totfact>
</mgrwt>
<clustering>
<clus scale="   32.814">  1  6  2 -1</clus>
<clus scale="  462.637">  4  5 -1 -1</clus>
<clus scale="  300.000">  1  4  2 -1</clus>
</clustering>
</event>
<event>
 6    1  0.9964252E-012  0.3000000E+03  0.7818608E-02  0.1093470E+00
          1   -1    0    0  502    0  0.00000000000E+00  0.00000000000E+00  0.23280384761E+03  0.23280384761E+03  0.00000000000E+00 0.  1.
         13   -1    0    0    0    0 -0.00000000000E+00 -0.00000000000E+00 -0.27500000000E+03  0.27500000000E+03  0.00000000000E+00 0.  1.
    9000005    2    1    2  501    0 -0.19549256291E+02  0.25351928761E+02 -0.45143441429E+02  0.47565450506E+03  0.47242394538E+03 0.  0.
         13    1    3    3    0    0 -0.20759108855E+03  0.50947942242E+02  0.10072607511E+03  0.23629535558E+03  0.00000000000E+00 0.  1.
          3    1    3    3  501    0  0.18804183226E+03 -0.25596013481E+02 -0.14586951654E+03  0.23935914948E+03  0.00000000000E+00 0.  1.
         21    1    1    2  502  501  0.19549256291E+02 -0.25351928761E+02  0.29472890365E+01  0.32149342545E+02  0.00000000000E+00 0.  1.
<scales pt_clust_4="550.00000" pt_clust_5="550.00000" pt_clust_6="32.01396"></scales>
<mgrwt>
<rscale>  0 0.30000000E+03</rscale>
<asrwt>  1 0.32013961E+02</asrwt>
<pdfrwt beam="1">  1        1 0.84655945E+00 0.30000000E+03</pdfrwt>
<pdfrwt beam="2">0</pdfrwt>
<totfact> 0.44511329E-04</totfact>
</mgrwt>
<clustering>
<clus scale="   32.014">  1  6  2 -1</clus>
<clus scale="  472.424">  4  5 -1 -1</clus>
<clus scale="  300.000">  1  4  2 -1</clus>
</clustering>
</event>
<event>
 6    1  0.9964252E-012  0.3000000E+03  0.7818608E-02  0.1093470E+00
          1   -1    0    0  502    0  0.00000000000E+00  0.00000000000E+00  0.23118883556E+03  0.23118883556E+03  0.00000000000E+00 0.  1.
         13   -1    0    0    0    0 -0.00000000000E+00 -0.00000000000E+00 -0.27500000000E+03  0.27500000000E+03  0.00000000000E+00 0.  1.
    9000005    2    1    2  501    0 -0.17052953230E+02  0.34208579414E+02 -0.37211707502E+02  0.46739988158E+03  0.46434567728E+03 0.  0.
         13    1    3    3    0    0  0.17069719169E+03 -0.41713365334E+02 -0.15397051544E+03  0.23363316486E+03  0.00000000000E+00 0.  1.
          3    1    3    3  501    0 -0.18775014492E+03  0.75921944748E+02  0.11675880794E+03  0.23376671672E+03  0.00000000000E+00 0.  1.
         21    1    1    2  502  501  0.17052953230E+02 -0.34208579414E+02 -0.65994569346E+01  0.38788953984E+02  0.00000000000E+00 0.  1.
<scales pt_clust_4="550.00000" pt_clust_5="550.00000" pt_clust_6="38.22344"></scales>
<mgrwt>
<rscale>  0 0.30000000E+03</rscale>
<asrwt>  1 0.38223443E+02</asrwt>
<pdfrwt beam="1">  1        1 0.84068667E+00 0.30000000E+03</pdfrwt>
<pdfrwt beam="2">0</pdfrwt>
<totfact> 0.48302156E-04</totfact>
</mgrwt>
<clustering>
<clus scale="   38.223">  1  6  2 -1</clus>
<clus scale="  464.346">  4  5 -1 -1</clus>
<clus scale="  300.000">  1  4  2 -1</clus>
</clustering>
</event>
<event>
 6    1  0.9964252E-012  0.3000000E+03  0.7818608E-02  0.1093470E+00
          1   -1    0    0  502    0  0.00000000000E+00  0.00000000000E+00  0.24170063146E+03  0.24170063146E+03  0.00000000000E+00 0.  1.
         13   -1    0    0    0    0 -0.00000000000E+00 -0.00000000000E+00 -0.27500000000E+03  0.27500000000E+03  0.00000000000E+00 0.  1.
    9000005    2    1    2  501    0  0.51693271451E+00  0.39257523917E+02 -0.46814354532E+02  0.47517864632E+03  0.47123427478E+03 0.  0.
         13    1    3    3    0    0 -0.81883991730E+02 -0.19662728299E+03  0.26853331081E+02  0.21468203909E+03  0.00000000000E+00 0.  1.
          3    1    3    3  501    0  0.82400924445E+02  0.23588480690E+03 -0.73667685613E+02  0.26049660723E+03  0.00000000000E+00 0.  1.
         21    1    1    2  502  501 -0.51693271451E+00 -0.39257523917E+02  0.13514985993E+02  0.41521985139E+02  0.00000000000E+00 0.  1.
<scales pt_clust_4="550.00000" pt_clust_5="550.00000" pt_clust_6="39.26093"></scales>
<mgrwt>
<rscale>  0 0.30000000E+03</rscale>
<asrwt>  1 0.39260927E+02</asrwt>
<pdfrwt beam="1">  1        1 0.87891139E+00 0.30000000E+03</pdfrwt>
<pdfrwt beam="2">0</pdfrwt>
<totfact> 0.19917545E-04</totfact>
</mgrwt>
<clustering>
<clus scale="   39.261">  1  6  2 -1</clus>
<clus scale="  471.234">  4  5 -1 -1</clus>
<clus scale="  300.000">  1  4  2 -1</clus>
</clustering>
</event>
<event>
 6    1  0.9964252E-012  0.3000000E+03  0.7818608E-02  0.1093470E+00
          1   -1    0    0  502    0  0.00000000000E+00  0.00000000000E+00  0.25339912282E+03  0.25339912282E+03  0.00000000000E+00 0.  1.
         13   -1    0    0    0    0 -0.00000000000E+00 -0.00000000000E+00 -0.27500000000E+03  0.27500000000E+03  0.00000000000E+00 0.  1.
    9000005    2    1    2  501    0  0.23959575579E+02  0.22210861554E+02 -0.36376428899E+02  0.49254245591E+03  0.49010962311E+03 0.  0.
         13    1    3    3    0    0 -0.30469193306E+02  0.94997492417E+02  0.20861131796E+03  0.23123922091E+03  0.00000000000E+00 0.  1.
          3    1    3    3  501    0  0.54428768886E+02 -0.72786630863E+02 -0.24498774686E+03  0.26130323501E+03  0.00000000000E+00 0.  1.
         21    1    1    2  502  501 -0.23959575579E+02 -0.22210861554E+02  0.14775551717E+02  0.35856666904E+02  0.00000000000E+00 0. -1.
<scales pt_clust_4="550.00000" pt_clust_5="550.00000" pt_clust_6="32.67084"></scales>
<mgrwt>
<rscale>  0 0.30000000E+03</rscale>
<asrwt>  1 0.32670838E+02</asrwt>
<pdfrwt beam="1">  1        1 0.92145136E+00 0.30000000E+03</pdfrwt>
<pdfrwt beam="2">0</pdfrwt>
<totfact> 0.39410363E-05</totfact>
</mgrwt>
<clustering>
<clus scale="   32.671">  1  6  2 -1</clus>
<clus scale="  490.110">  4  5 -1 -1</clus>
<clus scale="  300.000">  1  4  2 -1</clus>
</clustering>
</event>
<event>
 6    1  0.9964252E-012  0.3000000E+03  0.7818608E-02  0.1093470E+00
          1   -1    0    0  502    0  0.00000000000E+00  0.00000000000E+00  0.23415993251E+03  0.23415993251E+03  0.00000000000E+00 0.  1.
         13   -1    0    0    0    0 -0.00000000000E+00 -0.00000000000E+00 -0.27500000000E+03  0.27500000000E+03  0.00000000000E+00 0.  1.
    9000005    2    1    2  501    0 -0.25368889377E+02  0.18825393357E+02 -0.35447491487E+02  0.47711222028E+03  0.47474368885E+03 0.  0.
         13    1    3    3    0    0 -0.37460607719E+02  0.22709330283E+03  0.73689545245E+02  0.24167088033E+03  0.00000000000E+00 0.  1.
          1    1    3    3  501    0  0.12091718342E+02 -0.20826790948E+03 -0.10913703673E+03  0.23544133995E+03  0.00000000000E+00 0.  1.
         21    1    1    2  502  501  0.25368889377E+02 -0.18825393357E+02 -0.53925760001E+01  0.32047712230E+02  0.00000000000E+00 0.  1.
<scales pt_clust_4="550.00000" pt_clust_5="550.00000" pt_clust_6="31.59077"></scales>
<mgrwt>
<rscale>  0 0.30000000E+03</rscale>
<asrwt>  1 0.31590774E+02</asrwt>
<pdfrwt beam="1">  1        1 0.85149066E+00 0.30000000E+03</pdfrwt>
<pdfrwt beam="2">0</pdfrwt>
<totfact> 0.40168446E-04</totfact>
</mgrwt>
<clustering>
<clus scale="   31.591">  1  6  2 -1</clus>
<clus scale="  474.744">  4  5 -1 -1</clus>
<clus scale="  300.000">  1  4  2 -1</clus>
</clustering>
</event>
<event>
 6    1  0.9964252E-012  0.3000000E+03  0.7818608E-02  0.1093470E+00
          1   -1    0    0  502    0  0.00000000000E+00  0.00000000000E+00  0.24916229823E+03  0.24916229823E+03  0.00000000000E+00 0.  1.
         13   -1    0    0    0    0 -0.00000000000E+00 -0.00000000000E+00 -0.27500000000E+03  0.27500000000E+03  0.00000000000E+00 0.  1.
    9000005    2    1    2  501    0  0.24995182061E+02  0.22990432183E+02 -0.41033736519E+02  0.48695694149E+03  0.48403509814E+03 0.  0.
         13    1    3    3    0    0  0.10571946864E+03  0.26488782896E+02  0.20272010399E+03  0.23016016647E+03  0.00000000000E+00 0.  1.
          1    1    3    3  501    0 -0.80724286574E+02 -0.34983507137E+01 -0.24375384051E+03  0.25679677502E+03  0.00000000000E+00 0.  1.
         21    1    1    2  502  501 -0.24995182061E+02 -0.22990432183E+02  0.15196034750E+02  0.37205356742E+02  0.00000000000E+00 0. -1.
<scales pt_clust_4="550.00000" pt_clust_5="550.00000" pt_clust_6="33.96055"></scales>
<mgrwt>
<rscale>  0 0.30000000E+03</rscale>
<asrwt>  1 0.33960552E+02</asrwt>
<pdfrwt beam="1">  1        1 0.90604472E+00 0.30000000E+03</pdfrwt>
<pdfrwt beam="2">0</pdfrwt>
<totfact> 0.88705194E-05</totfact>
</mgrwt>
<clustering>
<clus scale="   33.961">  1  6  2 -1</clus>
<clus scale="  484.035">  4  5 -1 -1</clus>
<clus scale="  300.000">  1  4  2 -1</clus>
</clustering>
</event>
<event>
 6    1  0.9964252E-012  0.3000000E+03  0.7818608E-02  0.1093470E+00
          1   -1    0    0  502    0  0.00000000000E+00  0.00000000000E+00  0.25064246951E+03  0.25064246951E+03  0.00000000000E+00 0.  1.
         13   -1    0    0    0    0 -0.00000000000E+00 -0.00000000000E+00 -0.27500000000E+03  0.27500000000E+03  0.00000000000E+00 0.  1.
    9000005    2    1    2  501    0 -0.29828493146E+02  0.17353396780E+02  0.81398546486E+01  0.47824036593E+03  0.47692421934E+03 0.  0.
         13    1    3    3    0    0  0.67455040033E+02  0.22877188349E+03 -0.36454752869E+02  0.24127931139E+03  0.00000000000E+00 0.  1.
          3    1    3    3  501    0 -0.97283533179E+02 -0.21141848671E+03  0.44594607518E+02  0.23696105454E+03  0.00000000000E+00 0.  1.
         21    1    1    2  502  501  0.29828493146E+02 -0.17353396780E+02 -0.32497385137E+02  0.47402103581E+02  0.00000000000E+00 0.  1.
<scales pt_clust_4="550.00000" pt_clust_5="550.00000" pt_clust_6="34.50914"></scales>
<mgrwt>
<rscale>  0 0.30000000E+03</rscale>
<asrwt>  1 0.34509138E+02</asrwt>
<pdfrwt beam="1">  1        1 0.91142716E+00 0.30000000E+03</pdfrwt>
<pdfrwt beam="2">0</pdfrwt>
<totfact> 0.66434657E-05</totfact>
</mgrwt>
<clustering>
<clus scale="   34.509">  1  6  2 -1</clus>
<clus scale="  476.924">  4  5 -1 -1</clus>
<clus scale="  300.000">  1  4  2 -1</clus>
</clustering>
</event>
<event>
 6    1  0.9964252E-012  0.3000000E+03  0.7818608E-02  0.1093470E+00
          1   -1    0    0  502    0  0.00000000000E+00  0.00000000000E+00  0.22111771814E+03  0.22111771814E+03  0.00000000000E+00 0.  1.
         13   -1    0    0    0    0 -0.00000000000E+00 -0.00000000000E+00 -0.27500000000E+03  0.27500000000E+03  0.00000000000E+00 0.  1.
    9000005    2    1    2  501    0 -0.11707806048E+02 -0.32827128753E+02 -0.57478557782E+02  0.46108021958E+03  0.45615402133E+03 0.  0.
         13    1    3    3    0    0 -0.20018120737E+03  0.10263394151E+03 -0.18392636377E+02  0.22570895155E+03  0.00000000000E+00 0.  1.
          3    1    3    3  501    0  0.18847340132E+03 -0.13546107026E+03 -0.39085921405E+02  0.23537126803E+03  0.00000000000E+00 0.  1.
         21    1    1    2  502  501  0.11707806048E+02  0.32827128753E+02  0.35962759178E+01  0.35037498557E+02  0.00000000000E+00 0.  1.
<scales pt_clust_4="550.00000" pt_clust_5="550.00000" pt_clust_6="34.85245"></scales>
<mgrwt>
<rscale>  0 0.30000000E+03</rscale>
<asrwt>  1 0.34852448E+02</asrwt>
<pdfrwt beam="1">  1        1 0.80406443E+00 0.30000000E+03</pdfrwt>
<pdfrwt beam="2">0</pdfrwt>
<totfact> 0.96925088E-04</totfact>
</mgrwt>
<clustering>
<clus scale="   34.852">  1  6  2 -1</clus>
<clus scale="  456.154">  4  5 -1 -1</clus>
<clus scale="  300.000">  1  4  2 -1</clus>
</clustering>
</event>
<event>
 6    1  0.9964252E-012  0.3000000E+03  0.7818608E-02  0.1093470E+00
          1   -1    0    0  502    0  0.00000000000E+00  0.00000000000E+00  0.24902197908E+03  0.24902197908E+03  0.00000000000E+00 0.  1.
         13   -1    0    0    0    0 -0.00000000000E+00 -0.00000000000E+00 -0.27500000000E+03  0.27500000000E+03  0.00000000000E+00 0.  1.
    9000005    2    1    2  501    0  0.48528070754E+01 -0.34705293707E+02 -0.69250751194E+02  0.46833951925E+03  0.46186386695E+03 0.  0.
         13    1    3    3    0    0 -0.12761311165E+03 -0.18173637719E+03  0.62377653597E+02  0.23066033193E+03  0.00000000000E+00 0.  1.
          3    1    3    3  501    0  0.13246591872E+03  0.14703108348E+03 -0.13162840479E+03  0.23767918731E+03  0.00000000000E+00 0.  1.
         21    1    1    2  502  501 -0.48528070754E+01  0.34705293707E+02  0.43272730272E+02  0.55682459833E+02  0.00000000000E+00 0.  1.
<scales pt_clust_4="550.00000" pt_clust_5="550.00000" pt_clust_6="35.04293"></scales>
<mgrwt>
<rscale>  0 0.30000000E+03</rscale>
<asrwt>  1 0.35042933E+02</asrwt>
<pdfrwt beam="1">  1        1 0.90553447E+00 0.30000000E+03</pdfrwt>
<pdfrwt beam="2">0</pdfrwt>
<totfact> 0.90277595E-05</totfact>
</mgrwt>
<clustering>
<clus scale="   35.043">  1  6  2 -1</clus>
<clus scale="  461.864">  4  5 -1 -1</clus>
<clus scale="  300.000">  1  4  2 -1</clus>
</clustering>
</event>
<event>
 6    1  0.9964252E-012  0.3000000E+03  0.7818608E-02  0.1093470E+00
          1   -1    0    0  502    0  0.00000000000E+00  0.00000000000E+00  0.22834447703E+03  0.22834447703E+03  0.00000000000E+00 0.  1.
         13   -1    0    0    0    0 -0.00000000000E+00 -0.00000000000E+00 -0.27500000000E+03  0.27500000000E+03  0.00000000000E+00 0.  1.
    9000005    2    1    2  501    0  0.28435486802E+02  0.18824929856E+02 -0.64050797369E+02  0.46506196842E+03  0.45936605766E+03 0.  0.
         13    1    3    3    0    0  0.22247506047E+03  0.99861687650E+02  0.44627678430E+01  0.24390044175E+03  0.00000000000E+00 0.  1.
          1    1    3    3  501    0 -0.19403957366E+03 -0.81036757794E+02 -0.68513565212E+02  0.22116152667E+03  0.00000000000E+00 0.  1.
         21    1    1    2  502  501 -0.28435486802E+02 -0.18824929856E+02  0.17395274394E+02  0.38282508604E+02  0.00000000000E+00 0.  1.
<scales pt_clust_4="550.00000" pt_clust_5="550.00000" pt_clust_6="34.10212"></scales>
<mgrwt>
<rscale>  0 0.30000000E+03</rscale>
<asrwt>  1 0.34102124E+02</asrwt>
<pdfrwt beam="1">  1        1 0.83034355E+00 0.30000000E+03</pdfrwt>
<pdfrwt beam="2">0</pdfrwt>
<totfact> 0.59005713E-04</totfact>
</mgrwt>
<clustering>
<clus scale="   34.102">  1  6  2 -1</clus>
<clus scale="  459.366">  4  5 -1 -1</clus>
<clus scale="  300.000">  1  4  2 -1</clus>
</clustering>
</event>
<event>
 6    1  0.9964252E-012  0.3000000E+03  0.7818608E-02  0.1093470E+00
          1   -1    0    0  502    0  0.00000000000E+00  0.00000000000E+00  0.23741810065E+03  0.23741810065E+03  0.00000000000E+00 0.  1.
         13   -1    0    0    0    0 -0.00000000000E+00 -0.00000000000E+00 -0.27500000000E+03  0.27500000000E+03  0.00000000000E+00 0.  1.
    9000005    2    1    2  501    0 -0.29058888633E+02  0.28010305377E+02 -0.51984966139E+02  0.46956434295E+03  0.46492928414E+03 0.  0.
         13    1    3    3    0    0 -0.62024095140E+02  0.14405931893E+03  0.16101044950E+03  0.22477642358E+03  0.00000000000E+00 0.  1.
          3    1    3    3  501    0  0.32965206508E+02 -0.11604901355E+03 -0.21299541564E+03  0.24478791937E+03  0.00000000000E+00 0.  1.
         21    1    1    2  502  501  0.29058888633E+02 -0.28010305377E+02  0.14403066794E+02  0.42853757700E+02  0.00000000000E+00 0. -1.
<scales pt_clust_4="550.00000" pt_clust_5="550.00000" pt_clust_6="40.36083"></scales>
<mgrwt>
<rscale>  0 0.30000000E+03</rscale>
<asrwt>  1 0.40360825E+02</asrwt>
<pdfrwt beam="1">  1        1 0.86333855E+00 0.30000000E+03</pdfrwt>
<pdfrwt beam="2">0</pdfrwt>
<totfact> 0.29002206E-04</totfact>
</mgrwt>
<clustering>
<clus scale="   40.361">  1  6  2 -1</clus>
<clus scale="  464.929">  4  5 -1 -1</clus>
<clus scale="  300.000">  1  4  2 -1</clus>
</clustering>
</event>
<event>
 6    1  0.9964252E-012  0.3000000E+03  0.7818608E-02  0.1093470E+00
          1   -1    0    0  502    0  0.00000000000E+00  0.00000000000E+00  0.22861218734E+03  0.22861218734E+03  0.00000000000E+00 0.  1.
         13   -1    0    0    0    0 -0.00000000000E+00 -0.00000000000E+00 -0.27500000000E+03  0.27500000000E+03  0.00000000000E+00 0.  1.
    9000005    2    1    2  501    0  0.73838180127E+01  0.38173089334E+02 -0.55989728314E+02  0.46356343827E+03  0.45852426992E+03 0.  0.
         13    1    3    3    0    0 -0.10448597999E+03  0.22085485962E+03 -0.49282851466E+02  0.24924483642E+03  0.00000000000E+00 0.  1.
          1    1    3    3  501    0  0.11186979800E+03 -0.18268177029E+03 -0.67068768475E+01  0.21431860185E+03  0.00000000000E+00 0.  1.
         21    1    1    2  502  501 -0.73838180127E+01 -0.38173089334E+02  0.96019156505E+01  0.40048749068E+02  0.00000000000E+00 0. -1.
<scales pt_clust_4="550.00000" pt_clust_5="550.00000" pt_clust_6="38.88066"></scales>
<mgrwt>
<rscale>  0 0.30000000E+03</rscale>
<asrwt>  1 0.38880657E+02</asrwt>
<pdfrwt beam="1">  1        1 0.83131704E+00 0.30000000E+03</pdfrwt>
<pdfrwt beam="2">0</pdfrwt>
<totfact> 0.56560259E-04</totfact>
</mgrwt>
<clustering>
<clus scale="   38.881">  1  6  2 -1</clus>
<clus scale="  458.524">  4  5 -1 -1</clus>
<clus scale="  300.000">  1  4  2 -1</clus>
</clustering>
</event>
<event>
 6    1  0.9964252E-012  0.3000000E+03  0.7818608E-02  0.1093470E+00
          1   -1    0    0  502    0  0.00000000000E+00  0.00000000000E+00  0.22650051129E+03  0.22650051129E+03  0.00000000000E+00 0.  1.
         13   -1    0    0    0    0 -0.00000000000E+00 -0.00000000000E+00 -0.27500000000E+03  0.27500000000E+03  0.00000000000E+00 0.  1.
    9000005    2    1    2  501    0  0.68340216899E+01  0.37419112848E+02 -0.45182325960E+02  0.46331808827E+03  0.45953815346E+03 0.  0.
         13    1    3    3    0    0  0.11480420717E+03  0.73783573466E+02 -0.21748452013E+03  0.25675579485E+03  0.00000000000E+00 0.  1.
          3    1    3    3  501    0 -0.10797018548E+03 -0.36364460618E+02  0.17230219417E+03  0.20656229342E+03  0.00000000000E+00 0.  1.
         21    1    1    2  502  501 -0.68340216899E+01 -0.37419112848E+02 -0.33171627507E+01  0.38182423018E+02  0.00000000000E+00 0.  1.
<scales pt_clust_4="550.00000" pt_clust_5="550.00000" pt_clust_6="38.03806"></scales>
<mgrwt>
<rscale>  0 0.30000000E+03</rscale>
<asrwt>  1 0.38038058E+02</asrwt>
<pdfrwt beam="1">  1        1 0.82363822E+00 0.30000000E+03</pdfrwt>
<pdfrwt beam="2">0</pdfrwt>
<totfact> 0.66142952E-04</totfact>
</mgrwt>
<clustering>
<clus scale="   38.038">  1  6  2 -1</clus>
<clus scale="  459.538">  4  5 -1 -1</clus>
<clus scale="  300.000">  1  4  2 -1</clus>
</clustering>
</event>
<event>
 6    1  0.9964252E-012  0.3000000E+03  0.7818608E-02  0.1093470E+00
          1   -1    0    0  502    0  0.00000000000E+00  0.00000000000E+00  0.22422814873E+03  0.22422814873E+03  0.00000000000E+00 0.  1.
         13   -1    0    0    0    0 -0.00000000000E+00 -0.00000000000E+00 -0.27500000000E+03  0.27500000000E+03  0.00000000000E+00 0.  1.
    9000005    2    1    2  501    0  0.37562031389E+02  0.16069273474E+01 -0.56691797580E+02  0.46116853520E+03  0.45612385328E+03 0.  0.
         13    1    3    3    0    0 -0.16375867991E+03  0.13662043070E+03 -0.48057979092E+02  0.21861293806E+03  0.00000000000E+00 0.  1.
          1    1    3    3  501    0  0.20132071130E+03 -0.13501350335E+03 -0.86338184876E+01  0.24255559715E+03  0.00000000000E+00 0.  1.
         21    1    1    2  502  501 -0.37562031389E+02 -0.16069273474E+01  0.59199463108E+01  0.38059613528E+02  0.00000000000E+00 0.  1.
<scales pt_clust_4="550.00000" pt_clust_5="550.00000" pt_clust_6="37.59639"></scales>
<mgrwt>
<rscale>  0 0.30000000E+03</rscale>
<asrwt>  1 0.37596388E+02</asrwt>
<pdfrwt beam="1">  1        1 0.81537509E+00 0.30000000E+03</pdfrwt>
<pdfrwt beam="2">0</pdfrwt>
<totfact> 0.78005247E-04</totfact>
</mgrwt>
<clustering>
<clus scale="   37.596">  1  6  2 -1</clus>
<clus scale="  456.124">  4  5 -1 -1</clus>
<clus scale="  300.000">  1  4  2 -1</clus>
</clustering>
</event>
<event>
 6    1  0.9964252E-012  0.3000000E+03  0.7818608E-02  0.1093470E+00
          1   -1    0    0  502    0  0.00000000000E+00  0.00000000000E+00  0.23553582360E+03  0.23553582360E+03  0.00000000000E+00 0.  1.
         13   -1    0    0    0    0 -0.00000000000E+00 -0.00000000000E+00 -0.27500000000E+03  0.27500000000E+03  0.00000000000E+00 0.  1.
    9000005    2    1    2  501    0  0.10607015535E+01  0.30107334911E+02 -0.52528376147E+02  0.47769910607E+03  0.47384557499E+03 0.  0.
         13    1    3    3    0    0  0.43309096257E+02  0.19332325684E+03  0.12389968609E+03  0.23366790894E+03  0.00000000000E+00 0.  1.
          3    1    3    3  501    0 -0.42248394703E+02 -0.16321592193E+03 -0.17642806224E+03  0.24403119713E+03  0.00000000000E+00 0.  1.
         21    1    1    2  502  501 -0.10607015535E+01 -0.30107334911E+02  0.13064199744E+02  0.32836717530E+02  0.00000000000E+00 0.  1.
<scales pt_clust_4="550.00000" pt_clust_5="550.00000" pt_clust_6="30.12601"></scales>
<mgrwt>
<rscale>  0 0.30000000E+03</rscale>
<asrwt>  1 0.30126014E+02</asrwt>
<pdfrwt beam="1">  1        1 0.85649390E+00 0.30000000E+03</pdfrwt>
<pdfrwt beam="2">0</pdfrwt>
<totfact> 0.36210329E-04</totfact>
</mgrwt>
<clustering>
<clus scale="   30.126">  1  6  2 -1</clus>
<clus scale="  473.846">  4  5 -1 -1</clus>
<clus scale="  300.000">  1  4  2 -1</clus>
</clustering>
</event>
<event>
 6    1  0.9964252E-012  0.3000000E+03  0.7818608E-02  0.1093470E+00
          1   -1    0    0  502    0  0.00000000000E+00  0.00000000000E+00  0.23521901233E+03  0.23521901233E+03  0.00000000000E+00 0.  1.
         13   -1    0    0    0    0 -0.00000000000E+00 -0.00000000000E+00 -0.27500000000E+03  0.27500000000E+03  0.00000000000E+00 0.  1.
    9000005    2    1    2  501    0  0.29142156116E+02 -0.91319715047E+01 -0.61452298773E+02  0.47277166407E+03  0.46776490159E+03 0.  0.
         13    1    3    3    0    0 -0.35109201629E+02  0.19143870197E+03  0.88926877380E+02  0.21398463069E+03  0.00000000000E+00 0.  1.
          3    1    3    3  501    0  0.64251357745E+02 -0.20057067347E+03 -0.15037917615E+03  0.25878703339E+03  0.00000000000E+00 0.  1.
         21    1    1    2  502  501 -0.29142156116E+02  0.91319715047E+01  0.21671311102E+02  0.37447348257E+02  0.00000000000E+00 0. -1.
<scales pt_clust_4="550.00000" pt_clust_5="550.00000" pt_clust_6="30.53945"></scales>
<mgrwt>
<rscale>  0 0.30000000E+03</rscale>
<asrwt>  1 0.30539453E+02</asrwt>
<pdfrwt beam="1">  1        1 0.85534186E+00 0.30000000E+03</pdfrwt>
<pdfrwt beam="2">0</pdfrwt>
<totfact> 0.37095242E-04</totfact>
</mgrwt>
<clustering>
<clus scale="   30.539">  1  6  2 -1</clus>
<clus scale="  467.765">  4  5 -1 -1</clus>
<clus scale="  300.000">  1  4  2 -1</clus>
</clustering>
</event>
<event>
 6    1  0.9964252E-012  0.3000000E+03  0.7818608E-02  0.1093470E+00
          1   -1    0    0  502    0  0.00000000000E+00  0.00000000000E+00  0.22490209002E+03  0.22490209002E+03  0.00000000000E+00 0.  1.
         13   -1    0    0    0    0 -0.00000000000E+00 -0.00000000000E+00 -0.27500000000E+03  0.27500000000E+03  0.00000000000E+00 0.  1.
    9000005    2    1    2  501    0 -0.26760385586E+02 -0.18693196645E+02 -0.53331774573E+02  0.46709947247E+03  0.46289532852E+03 0.  0.
         13    1    3    3    0    0 -0.18579211115E+03  0.63397079665E+02 -0.16475017171E+03  0.25628210502E+03  0.00000000000E+00 0.  1.
          1    1    3    3  501    0  0.15903172556E+03 -0.82090276311E+02  0.11141839713E+03  0.21081736745E+03  0.00000000000E+00 0.  1.
         21    1    1    2  502  501  0.26760385586E+02  0.18693196645E+02  0.32338645913E+01  0.32802617544E+02  0.00000000000E+00 0. -1.
<scales pt_clust_4="550.00000" pt_clust_5="550.00000" pt_clust_6="32.64282"></scales>
<mgrwt>
<rscale>  0 0.30000000E+03</rscale>
<asrwt>  1 0.32642822E+02</asrwt>
<pdfrwt beam="1">  1        1 0.81782578E+00 0.30000000E+03</pdfrwt>
<pdfrwt beam="2">0</pdfrwt>
<totfact> 0.76470947E-04</totfact>
</mgrwt>
<clustering>
<clus scale="   32.643">  1  6  2 -1</clus>
<clus scale="  462.895">  4  5 -1 -1</clus>
<clus scale="  300.000">  1  4  2 -1</clus>
</clustering>
</event>
<event>
 6    1  0.9964252E-012  0.3000000E+03  0.7818608E-02  0.1093470E+00
          1   -1    0    0  502    0  0.00000000000E+00  0.00000000000E+00  0.23125418392E+03  0.23125418392E+03  0.00000000000E+00 0.  1.
         13   -1    0    0    0    0 -0.00000000000E+00 -0.00000000000E+00 -0.27500000000E+03  0.27500000000E+03  0.00000000000E+00 0.  1.
    9000005    2    1    2  501    0  0.36473253914E+02 -0.11867514021E+02 -0.54719330135E+02  0.46635989673E+03  0.46154762706E+03 0.  0.
         13    1    3    3    0    0 -0.81948737393E+02  0.19835887632E+03 -0.66788773214E+02  0.22477228389E+03  0.00000000000E+00 0.  1.
          1    1    3    3  501    0  0.11842199131E+03 -0.21022639034E+03  0.12069443079E+02  0.24158761284E+03  0.00000000000E+00 0.  1.
         21    1    1    2  502  501 -0.36473253914E+02  0.11867514021E+02  0.10973514059E+02  0.39894287197E+02  0.00000000000E+00 0. -1.
<scales pt_clust_4="550.00000" pt_clust_5="550.00000" pt_clust_6="38.35539"></scales>
<mgrwt>
<rscale>  0 0.30000000E+03</rscale>
<asrwt>  1 0.38355393E+02</asrwt>
<pdfrwt beam="1">  1        1 0.84092431E+00 0.30000000E+03</pdfrwt>
<pdfrwt beam="2">0</pdfrwt>
<totfact> 0.48063755E-04</totfact>
</mgrwt>
<clustering>
<clus scale="   38.355">  1  6  2 -1</clus>
<clus scale="  461.548">  4  5 -1 -1</clus>
<clus scale="  300.000">  1  4  2 -1</clus>
</clustering>
</event>
<event>
 6    1  0.9964252E-012  0.3000000E+03  0.7818608E-02  0.1093470E+00
          1   -1    0    0  502    0  0.00000000000E+00  0.00000000000E+00  0.22611586948E+03  0.22611586948E+03  0.00000000000E+00 0.  1.
         13   -1    0    0    0    0 -0.00000000000E+00 -0.00000000000E+00 -0.27500000000E+03  0.27500000000E+03  0.00000000000E+00 0.  1.
    9000005    2    1    2  501    0  0.79139085455E+01 -0.29900307354E+02 -0.60917967013E+02  0.46792744455E+03  0.46291299002E+03 0.  0.
         13    1    3    3    0    0  0.24603494345E+02  0.21599539645E+03 -0.33189828212E+02  0.21991113641E+03  0.00000000000E+00 0.  1.
          1    1    3    3  501    0 -0.16689585800E+02 -0.24589570380E+03 -0.27728138801E+02  0.24801630814E+03  0.00000000000E+00 0.  1.
         21    1    1    2  502  501 -0.79139085455E+01  0.29900307354E+02  0.12033836492E+02  0.33188424926E+02  0.00000000000E+00 0.  1.
<scales pt_clust_4="550.00000" pt_clust_5="550.00000" pt_clust_6="30.92989"></scales>
<mgrwt>
<rscale>  0 0.30000000E+03</rscale>
<asrwt>  1 0.30929894E+02</asrwt>
<pdfrwt beam="1">  1        1 0.82223953E+00 0.30000000E+03</pdfrwt>
<pdfrwt beam="2">0</pdfrwt>
<totfact> 0.70764099E-04</totfact>
</mgrwt>
<clustering>
<clus scale="   30.930">  1  6  2 -1</clus>
<clus scale="  462.913">  4  5 -1 -1</clus>
<clus scale="  300.000">  1  4  2 -1</clus>
</clustering>
</event>
<event>
 6    1  0.9964252E-012  0.3000000E+03  0.7818608E-02  0.1093470E+00
          1   -1    0    0  502    0  0.00000000000E+00  0.00000000000E+00  0.23430241043E+03  0.23430241043E+03  0.00000000000E+00 0.  1.
         13   -1    0    0    0    0 -0.00000000000E+00 -0.00000000000E+00 -0.27500000000E+03  0.27500000000E+03  0.00000000000E+00 0.  1.
    9000005    2    1    2  501    0 -0.27942287658E+02  0.22695308166E+02 -0.70090792436E+02  0.46282866701E+03  0.45607215150E+03 0.  0.
         13    1    3    3    0    0  0.10936753389E+03 -0.47402995660E+02 -0.21845982841E+03  0.24886341253E+03  0.00000000000E+00 0.  1.
          1    1    3    3  501    0 -0.13730982155E+03  0.70098303826E+02  0.14836903597E+03  0.21396525449E+03  0.00000000000E+00 0.  1.
         21    1    1    2  502  501  0.27942287658E+02 -0.22695308166E+02  0.29393202864E+02  0.46473743414E+02  0.00000000000E+00 0.  1.
<scales pt_clust_4="550.00000" pt_clust_5="550.00000" pt_clust_6="35.99790"></scales>
<mgrwt>
<rscale>  0 0.30000000E+03</rscale>
<asrwt>  1 0.35997895E+02</asrwt>
<pdfrwt beam="1">  1        1 0.85200877E+00 0.30000000E+03</pdfrwt>
<pdfrwt beam="2">0</pdfrwt>
<totfact> 0.38748451E-04</totfact>
</mgrwt>
<clustering>
<clus scale="   35.998">  1  6  2 -1</clus>
<clus scale="  456.072">  4  5 -1 -1</clus>
<clus scale="  300.000">  1  4  2 -1</clus>
</clustering>
</event>
<event>
 6    1  0.9964252E-012  0.3000000E+03  0.7818608E-02  0.1093470E+00
          1   -1    0    0  502    0  0.00000000000E+00  0.00000000000E+00  0.23510829126E+03  0.23510829126E+03  0.00000000000E+00 0.  1.
         13   -1    0    0    0    0 -0.00000000000E+00 -0.00000000000E+00 -0.27500000000E+03  0.27500000000E+03  0.00000000000E+00 0.  1.
    9000005    2    1    2  501    0  0.30805691391E+02  0.32589892145E+01 -0.37734476809E+02  0.47905567008E+03  0.47656146787E+03 0.  0.
         13    1    3    3    0    0  0.22004122321E+03 -0.52407669387E+02 -0.13043110878E+03  0.26110721525E+03  0.00000000000E+00 0.  1.
          3    1    3    3  501    0 -0.18923553182E+03  0.55666658601E+02  0.92696631969E+02  0.21794845482E+03  0.00000000000E+00 0.  1.
         21    1    1    2  502  501 -0.30805691391E+02 -0.32589892145E+01 -0.21572319297E+01  0.31052621184E+02  0.00000000000E+00 0. -1.
<scales pt_clust_4="550.00000" pt_clust_5="550.00000" pt_clust_6="30.97760"></scales>
<mgrwt>
<rscale>  0 0.30000000E+03</rscale>
<asrwt>  1 0.30977599E+02</asrwt>
<pdfrwt beam="1">  1        1 0.85493924E+00 0.30000000E+03</pdfrwt>
<pdfrwt beam="2">0</pdfrwt>
<totfact> 0.37336652E-04</totfact>
</mgrwt>
<clustering>
<clus scale="   30.978">  1  6  2 -1</clus>
<clus scale="  476.561">  4  5 -1 -1</clus>
<clus scale="  300.000">  1  4  2 -1</clus>
</clustering>
</event>
<event>
 6    1  0.9964252E-012  0.3000000E+03  0.7818608E-02  0.1093470E+00
          1   -1    0    0  502    0  0.00000000000E+00  0.00000000000E+00  0.23952444704E+03  0.23952444704E+03  0.00000000000E+00 0.  1.
         13   -1    0    0    0    0 -0.00000000000E+00 -0.00000000000E+00 -0.27500000000E+03  0.27500000000E+03  0.00000000000E+00 0.  1.
    9000005    2    1    2  501    0  0.32302294425E+02 -0.12499157414E+02 -0.42724471211E+02  0.47913781147E+03  0.47597058184E+03 0.  0.
         13    1    3    3    0    0 -0.36531134345E+01  0.14170693486E+03 -0.20705765623E+03  0.25093240849E+03  0.00000000000E+00 0.  1.
          1    1    3    3  501    0  0.35955407859E+02 -0.15420609227E+03  0.16433318502E+03  0.22820540298E+03  0.00000000000E+00 0.  1.
         21    1    1    2  502  501 -0.32302294425E+02  0.12499157414E+02  0.72489182476E+01  0.35386635570E+02  0.00000000000E+00 0.  1.
<scales pt_clust_4="550.00000" pt_clust_5="550.00000" pt_clust_6="34.63621"></scales>
<mgrwt>
<rscale>  0 0.30000000E+03</rscale>
<asrwt>  1 0.34636212E+02</asrwt>
<pdfrwt beam="1">  1        1 0.87099799E+00 0.30000000E+03</pdfrwt>
<pdfrwt beam="2">0</pdfrwt>
<totfact> 0.24786162E-04</totfact>
</mgrwt>
<clustering>
<clus scale="   34.636">  1  6  2 -1</clus>
<clus scale="  475.971">  4  5 -1 -1</clus>
<clus scale="  300.000">  1  4  2 -1</clus>
</clustering>
</event>
<event>
 6    1  0.9964252E-012  0.3000000E+03  0.7818608E-02  0.1093470E+00
          1   -1    0    0  502    0  0.00000000000E+00  0.00000000000E+00  0.23559332581E+03  0.23559332581E+03  0.00000000000E+00 0.  1.
         13   -1    0    0    0    0 -0.00000000000E+00 -0.00000000000E+00 -0.27500000000E+03  0.27500000000E+03  0.00000000000E+00 0.  1.
    9000005    2    1    2  501    0 -0.31077287989E+02 -0.24088866186E+02 -0.62878595875E+02  0.46480028692E+03  0.45884585386E+03 0.  0.
         13    1    3    3    0    0  0.19525242436E+03  0.52911500606E+02 -0.95164238573E+02  0.22356065937E+03  0.00000000000E+00 0.  1.
          3    1    3    3  501    0 -0.22632971235E+03 -0.77000366793E+02  0.32285642698E+02  0.24123962755E+03  0.00000000000E+00 0.  1.
         21    1    1    2  502  501  0.31077287989E+02  0.24088866186E+02  0.23471921685E+02  0.45793038887E+02  0.00000000000E+00 0. -1.
<scales pt_clust_4="550.00000" pt_clust_5="550.00000" pt_clust_6="39.32011"></scales>
<mgrwt>
<rscale>  0 0.30000000E+03</rscale>
<asrwt>  1 0.39320113E+02</asrwt>
<pdfrwt beam="1">  1        1 0.85670300E+00 0.30000000E+03</pdfrwt>
<pdfrwt beam="2">0</pdfrwt>
<totfact> 0.34275872E-04</totfact>
</mgrwt>
<clustering>
<clus scale="   39.320">  1  6  2 -1</clus>
<clus scale="  458.846">  4  5 -1 -1</clus>
<clus scale="  300.000">  1  4  2 -1</clus>
</clustering>
</event>
<event>
 6    1  0.9964252E-012  0.3000000E+03  0.7818608E-02  0.1093470E+00
          1   -1    0    0  502    0  0.00000000000E+00  0.00000000000E+00  0.23432368697E+03  0.23432368697E+03  0.00000000000E+00 0.  1.
         13   -1    0    0    0    0 -0.00000000000E+00 -0.00000000000E+00 -0.27500000000E+03  0.27500000000E+03  0.00000000000E+00 0.  1.
    9000005    2    1    2  501    0  0.36563998113E+02  0.75105637972E+01 -0.21957629408E+02  0.46756576984E+03  0.46555587969E+03 0.  0.
         13    1    3    3    0    0  0.19988893097E+03 -0.14216851700E+03 -0.43418354201E+01  0.24532901069E+03  0.00000000000E+00 0.  1.
          3    1    3    3  501    0 -0.16332493286E+03  0.14967908080E+03 -0.17615793988E+02  0.22223675915E+03  0.00000000000E+00 0.  1.
         21    1    1    2  502  501 -0.36563998113E+02 -0.75105637972E+01 -0.18718683621E+02  0.41757917130E+02  0.00000000000E+00 0.  1.
<scales pt_clust_4="550.00000" pt_clust_5="550.00000" pt_clust_6="37.32742"></scales>
<mgrwt>
<rscale>  0 0.30000000E+03</rscale>
<asrwt>  1 0.37327415E+02</asrwt>
<pdfrwt beam="1">  1        1 0.85208613E+00 0.30000000E+03</pdfrwt>
<pdfrwt beam="2">0</pdfrwt>
<totfact> 0.38422994E-04</totfact>
</mgrwt>
<clustering>
<clus scale="   37.327">  1  6  2 -1</clus>
<clus scale="  465.556">  4  5 -1 -1</clus>
<clus scale="  300.000">  1  4  2 -1</clus>
</clustering>
</event>
<event>
 6    1  0.9964252E-012  0.3000000E+03  0.7818608E-02  0.1093470E+00
          1   -1    0    0  502    0  0.00000000000E+00  0.00000000000E+00  0.22619422009E+03  0.22619422009E+03  0.00000000000E+00 0.  1.
         13   -1    0    0    0    0 -0.00000000000E+00 -0.00000000000E+00 -0.27500000000E+03  0.27500000000E+03  0.00000000000E+00 0.  1.
    9000005    2    1    2  501    0 -0.14793306841E+01  0.32548639633E+02 -0.50637863496E+02  0.46856051219E+03  0.46467532536E+03 0.  0.
         13    1    3    3    0    0 -0.11172267989E+03 -0.20818860455E+01 -0.22970707553E+03  0.25544398995E+03  0.00000000000E+00 0.  1.
          3    1    3    3  501    0  0.11024334921E+03  0.34630525678E+02  0.17906921203E+03  0.21311652224E+03  0.00000000000E+00 0.  1.
         21    1    1    2  502  501  0.14793306841E+01 -0.32548639633E+02  0.18320835841E+01  0.32633707903E+02  0.00000000000E+00 0.  1.
<scales pt_clust_4="550.00000" pt_clust_5="550.00000" pt_clust_6="32.58224"></scales>
<mgrwt>
<rscale>  0 0.30000000E+03</rscale>
<asrwt>  1 0.32582240E+02</asrwt>
<pdfrwt beam="1">  1        1 0.82252444E+00 0.30000000E+03</pdfrwt>
<pdfrwt beam="2">0</pdfrwt>
<totfact> 0.69658858E-04</totfact>
</mgrwt>
<clustering>
<clus scale="   32.582">  1  6  2 -1</clus>
<clus scale="  464.675">  4  5 -1 -1</clus>
<clus scale="  300.000">  1  4  2 -1</clus>
</clustering>
</event>
<event>
 6    1  0.9964252E-012  0.3000000E+03  0.7818608E-02  0.1093470E+00
          1   -1    0    0  502    0  0.00000000000E+00  0.00000000000E+00  0.24036387482E+03  0.24036387482E+03  0.00000000000E+00 0.  1.
         13   -1    0    0    0    0 -0.00000000000E+00 -0.00000000000E+00 -0.27500000000E+03  0.27500000000E+03  0.00000000000E+00 0.  1.
    9000005    2    1    2  501    0  0.32064183352E+02 -0.10634500648E+02 -0.34103808383E+02  0.48157796327E+03  0.47917957020E+03 0.  0.
         13    1    3    3    0    0 -0.13742616545E+03  0.11442671553E+03  0.12450728264E+03  0.21790247270E+03  0.00000000000E+00 0.  1.
          1    1    3    3  501    0  0.16949034881E+03 -0.12506121618E+03 -0.15861109102E+03  0.26367549057E+03  0.00000000000E+00 0.  1.
         21    1    1    2  502  501 -0.32064183352E+02  0.10634500648E+02 -0.53231679950E+00  0.33785911550E+02  0.00000000000E+00 0.  1.
<scales pt_clust_4="550.00000" pt_clust_5="550.00000" pt_clust_6="33.78172"></scales>
<mgrwt>
<rscale>  0 0.30000000E+03</rscale>
<asrwt>  1 0.33781718E+02</asrwt>
<pdfrwt beam="1">  1        1 0.87405045E+00 0.30000000E+03</pdfrwt>
<pdfrwt beam="2">0</pdfrwt>
<totfact> 0.23168239E-04</totfact>
</mgrwt>
<clustering>
<clus scale="   33.782">  1  6  2 -1</clus>
<clus scale="  479.180">  4  5 -1 -1</clus>
<clus scale="  300.000">  1  4  2 -1</clus>
</clustering>
</event>
<event>
 6    1  0.9964252E-012  0.3000000E+03  0.7818608E-02  0.1093470E+00
          1   -1    0    0  502    0  0.00000000000E+00  0.00000000000E+00  0.22694965616E+03  0.22694965616E+03  0.00000000000E+00 0.  1.
         13   -1    0    0    0    0 -0.00000000000E+00 -0.00000000000E+00 -0.27500000000E+03  0.27500000000E+03  0.00000000000E+00 0.  1.
    9000005    2    1    2  501    0 -0.19050080142E+02 -0.30755459130E+02 -0.57905559939E+02  0.46445393502E+03  0.45940787984E+03 0.  0.
         13    1    3    3    0    0 -0.22773900896E+03  0.53400326903E+02 -0.84701872342E+01  0.23406921025E+03  0.00000000000E+00 0.  1.
          3    1    3    3  501    0  0.20868892882E+03 -0.84155786033E+02 -0.49435372705E+02  0.23038472477E+03  0.00000000000E+00 0.  1.
         21    1    1    2  502  501  0.19050080142E+02  0.30755459130E+02  0.98552161020E+01  0.37495721145E+02  0.00000000000E+00 0. -1.
<scales pt_clust_4="550.00000" pt_clust_5="550.00000" pt_clust_6="36.17739"></scales>
<mgrwt>
<rscale>  0 0.30000000E+03</rscale>
<asrwt>  1 0.36177394E+02</asrwt>
<pdfrwt beam="1">  1        1 0.82527148E+00 0.30000000E+03</pdfrwt>
<pdfrwt beam="2">0</pdfrwt>
<totfact> 0.64554456E-04</totfact>
</mgrwt>
<clustering>
<clus scale="   36.177">  1  6  2 -1</clus>
<clus scale="  459.408">  4  5 -1 -1</clus>
<clus scale="  300.000">  1  4  2 -1</clus>
</clustering>
</event>
<event>
 6    1  0.9964252E-012  0.3000000E+03  0.7818608E-02  0.1093470E+00
          1   -1    0    0  502    0  0.00000000000E+00  0.00000000000E+00  0.22313843971E+03  0.22313843971E+03  0.00000000000E+00 0.  1.
         13   -1    0    0    0    0 -0.00000000000E+00 -0.00000000000E+00 -0.27500000000E+03  0.27500000000E+03  0.00000000000E+00 0.  1.
    9000005    2    1    2  501    0 -0.51031306100E+01 -0.33670661285E+02 -0.57155361087E+02  0.46367425975E+03  0.45887615811E+03 0.  0.
         13    1    3    3    0    0  0.58994842735E+02 -0.22443570226E+03  0.47456608665E+02  0.23686263029E+03  0.00000000000E+00 0.  1.
          1    1    3    3  501    0 -0.64097973345E+02  0.19076504098E+03 -0.10461196975E+03  0.22681162947E+03  0.00000000000E+00 0.  1.
         21    1    1    2  502  501  0.51031306100E+01  0.33670661285E+02  0.52938007997E+01  0.34464179960E+02  0.00000000000E+00 0.  1.
<scales pt_clust_4="550.00000" pt_clust_5="550.00000" pt_clust_6="34.05518"></scales>
<mgrwt>
<rscale>  0 0.30000000E+03</rscale>
<asrwt>  1 0.34055181E+02</asrwt>
<pdfrwt beam="1">  1        1 0.81141251E+00 0.30000000E+03</pdfrwt>
<pdfrwt beam="2">0</pdfrwt>
<totfact> 0.85458628E-04</totfact>
</mgrwt>
<clustering>
<clus scale="   34.055">  1  6  2 -1</clus>
<clus scale="  458.876">  4  5 -1 -1</clus>
<clus scale="  300.000">  1  4  2 -1</clus>
</clustering>
</event>
<event>
 6    1  0.9964252E-012  0.3000000E+03  0.7818608E-02  0.1093470E+00
          1   -1    0    0  502    0  0.00000000000E+00  0.00000000000E+00  0.24182634449E+03  0.24182634449E+03  0.00000000000E+00 0.  1.
         13   -1    0    0    0    0 -0.00000000000E+00 -0.00000000000E+00 -0.27500000000E+03  0.27500000000E+03  0.00000000000E+00 0.  1.
    9000005    2    1    2  501    0  0.83475647494E+01 -0.42867362113E+02 -0.57467809124E+02  0.46685136603E+03  0.46123785221E+03 0.  0.
         13    1    3    3    0    0 -0.19504082013E+03 -0.80786752668E+02  0.71692963787E+02  0.22295134442E+03  0.00000000000E+00 0.  1.
          3    1    3    3  501    0  0.20338838488E+03  0.37919390555E+02 -0.12916077291E+03  0.24390002161E+03  0.00000000000E+00 0.  1.
         21    1    1    2  502  501 -0.83475647494E+01  0.42867362113E+02  0.24294153612E+02  0.49974978454E+02  0.00000000000E+00 0. -1.
<scales pt_clust_4="550.00000" pt_clust_5="550.00000" pt_clust_6="43.67256"></scales>
<mgrwt>
<rscale>  0 0.30000000E+03</rscale>
<asrwt>  1 0.43672561E+02</asrwt>
<pdfrwt beam="1">  1        1 0.87936853E+00 0.30000000E+03</pdfrwt>
<pdfrwt beam="2">0</pdfrwt>
<totfact> 0.19292062E-04</totfact>
</mgrwt>
<clustering>
<clus scale="   43.673">  1  6  2 -1</clus>
<clus scale="  461.238">  4  5 -1 -1</clus>
<clus scale="  300.000">  1  4  2 -1</clus>
</clustering>
</event>
<event>
 6    1  0.9964252E-012  0.3000000E+03  0.7818608E-02  0.1093470E+00
          1   -1    0    0  502    0  0.00000000000E+00  0.00000000000E+00  0.22207364432E+03  0.22207364432E+03  0.00000000000E+00 0.  1.
         13   -1    0    0    0    0 -0.00000000000E+00 -0.00000000000E+00 -0.27500000000E+03  0.27500000000E+03  0.00000000000E+00 0.  1.
    9000005    2    1    2  501    0  0.27037310404E+02  0.13595355539E+02 -0.58476777082E+02  0.46630585233E+03  0.46163379925E+03 0.  0.
         13    1    3    3    0    0 -0.47638392682E+02  0.17646327916E+03  0.11578438145E+03  0.21636711473E+03  0.00000000000E+00 0.  1.
          1    1    3    3  501    0  0.74675703086E+02 -0.16286792362E+03 -0.17426115854E+03  0.24993873759E+03  0.00000000000E+00 0.  1.
         21    1    1    2  502  501 -0.27037310404E+02 -0.13595355539E+02  0.55504213980E+01  0.30767791988E+02  0.00000000000E+00 0. -1.
<scales pt_clust_4="550.00000" pt_clust_5="550.00000" pt_clust_6="30.26301"></scales>
<mgrwt>
<rscale>  0 0.30000000E+03</rscale>
<asrwt>  1 0.30263011E+02</asrwt>
<pdfrwt beam="1">  1        1 0.80754052E+00 0.30000000E+03</pdfrwt>
<pdfrwt beam="2">0</pdfrwt>
<totfact> 0.93672626E-04</totfact>
</mgrwt>
<clustering>
<clus scale="   30.263">  1  6  2 -1</clus>
<clus scale="  461.634">  4  5 -1 -1</clus>
<clus scale="  300.000">  1  4  2 -1</clus>
</clustering>
</event>
<event>
 6    1  0.9964252E-012  0.3000000E+03  0.7818608E-02  0.1093470E+00
          1   -1    0    0  502    0  0.00000000000E+00  0.00000000000E+00  0.24201479360E+03  0.24201479360E+03  0.00000000000E+00 0.  1.
         13   -1    0    0    0    0 -0.00000000000E+00 -0.00000000000E+00 -0.27500000000E+03  0.27500000000E+03  0.00000000000E+00 0.  1.
    9000005    2    1    2  501    0 -0.32751471625E+02 -0.47898492299E+01 -0.49525016282E+02  0.48001253880E+03  0.47630211906E+03 0.  0.
         13    1    3    3    0    0  0.13205697262E+03  0.15803185903E+03  0.72292224732E+02  0.21826423950E+03  0.00000000000E+00 0.  1.
          1    1    3    3  501    0 -0.16480844425E+03 -0.16282170826E+03 -0.12181724101E+03  0.26174829930E+03  0.00000000000E+00 0.  1.
         21    1    1    2  502  501  0.32751471625E+02  0.47898492299E+01  0.16539809879E+02  0.37002254798E+02  0.00000000000E+00 0.  1.
<scales pt_clust_4="550.00000" pt_clust_5="550.00000" pt_clust_6="33.09987"></scales>
<mgrwt>
<rscale>  0 0.30000000E+03</rscale>
<asrwt>  1 0.33099872E+02</asrwt>
<pdfrwt beam="1">  1        1 0.88005379E+00 0.30000000E+03</pdfrwt>
<pdfrwt beam="2">0</pdfrwt>
<totfact> 0.19915472E-04</totfact>
</mgrwt>
<clustering>
<clus scale="   33.100">  1  6  2 -1</clus>
<clus scale="  476.302">  4  5 -1 -1</clus>
<clus scale="  300.000">  1  4  2 -1</clus>
</clustering>
</event>
<event>
 6    1  0.9964252E-012  0.3000000E+03  0.7818608E-02  0.1093470E+00
          1   -1    0    0  502    0  0.00000000000E+00  0.00000000000E+00  0.23040903757E+03  0.23040903757E+03  0.00000000000E+00 0.  1.
         13   -1    0    0    0    0 -0.00000000000E+00 -0.00000000000E+00 -0.27500000000E+03  0.27500000000E+03  0.00000000000E+00 0.  1.
    9000005    2    1    2  501    0 -0.21029183429E+02  0.22199154424E+02 -0.57197907982E+02  0.47233390962E+03  0.46785969316E+03 0.  0.
         13    1    3    3    0    0  0.49138728666E+01  0.62092639039E+02  0.20066866595E+03  0.21011319679E+03  0.00000000000E+00 0.  1.
          3    1    3    3  501    0 -0.25943056296E+02 -0.39893484615E+02 -0.25786657393E+03  0.26222071283E+03  0.00000000000E+00 0.  1.
         21    1    1    2  502  501  0.21029183429E+02 -0.22199154424E+02  0.12606945553E+02  0.33075127951E+02  0.00000000000E+00 0.  1.
<scales pt_clust_4="550.00000" pt_clust_5="550.00000" pt_clust_6="30.57824"></scales>
<mgrwt>
<rscale>  0 0.30000000E+03</rscale>
<asrwt>  1 0.30578244E+02</asrwt>
<pdfrwt beam="1">  1        1 0.83785105E+00 0.30000000E+03</pdfrwt>
<pdfrwt beam="2">0</pdfrwt>
<totfact> 0.52913152E-04</totfact>
</mgrwt>
<clustering>
<clus scale="   30.578">  1  6  2 -1</clus>
<clus scale="  467.860">  4  5 -1 -1</clus>
<clus scale="  300.000">  1  4  2 -1</clus>
</clustering>
</event>
<event>
 6    1  0.9964252E-012  0.3000000E+03  0.7818608E-02  0.1093470E+00
          1   -1    0    0  502    0  0.00000000000E+00  0.00000000000E+00  0.22178492898E+03  0.22178492898E+03  0.00000000000E+00 0.  1.
         13   -1    0    0    0    0 -0.00000000000E+00 -0.00000000000E+00 -0.27500000000E+03  0.27500000000E+03  0.00000000000E+00 0.  1.
    9000005    2    1    2  501    0 -0.28868672330E+02 -0.17931683972E+02 -0.37807185104E+02  0.45947074293E+03  0.45664979452E+03 0.  0.
         13    1    3    3    0    0  0.16914290106E+03 -0.10546152494E+03  0.77883526135E+02  0.21400303238E+03  0.00000000000E+00 0.  1.
          3    1    3    3  501    0 -0.19801157339E+03  0.87529840968E+02 -0.11569071124E+03  0.24546771055E+03  0.00000000000E+00 0.  1.
         21    1    1    2  502  501  0.28868672330E+02  0.17931683972E+02 -0.15407885916E+02  0.37314186050E+02  0.00000000000E+00 0.  1.
<scales pt_clust_4="550.00000" pt_clust_5="550.00000" pt_clust_6="33.98451"></scales>
<mgrwt>
<rscale>  0 0.30000000E+03</rscale>
<asrwt>  1 0.33984507E+02</asrwt>
<pdfrwt beam="1">  1        1 0.80649065E+00 0.30000000E+03</pdfrwt>
<pdfrwt beam="2">0</pdfrwt>
<totfact> 0.93345879E-04</totfact>
</mgrwt>
<clustering>
<clus scale="   33.985">  1  6  2 -1</clus>
<clus scale="  456.650">  4  5 -1 -1</clus>
<clus scale="  300.000">  1  4  2 -1</clus>
</clustering>
</event>
<event>
 6    1  0.9964252E-012  0.3000000E+03  0.7818608E-02  0.1093470E+00
          1   -1    0    0  502    0  0.00000000000E+00  0.00000000000E+00  0.24620388313E+03  0.24620388313E+03  0.00000000000E+00 0.  1.
         13   -1    0    0    0    0 -0.00000000000E+00 -0.00000000000E+00 -0.27500000000E+03  0.27500000000E+03  0.00000000000E+00 0.  1.
    9000005    2    1    2  501    0  0.37806747116E+01  0.32958889782E+02 -0.35459079672E+02  0.48736637450E+03  0.48494129000E+03 0.  0.
         13    1    3    3    0    0 -0.19452216782E+03  0.10241758699E+03 -0.13169014416E+03  0.25626261914E+03  0.00000000000E+00 0.  1.
          3    1    3    3  501    0  0.19830284253E+03 -0.69458697212E+02  0.96231064487E+02  0.23110375537E+03  0.00000000000E+00 0.  1.
         21    1    1    2  502  501 -0.37806747116E+01 -0.32958889782E+02  0.66629628070E+01  0.33837508630E+02  0.00000000000E+00 0.  1.
<scales pt_clust_4="550.00000" pt_clust_5="550.00000" pt_clust_6="33.17502"></scales>
<mgrwt>
<rscale>  0 0.30000000E+03</rscale>
<asrwt>  1 0.33175019E+02</asrwt>
<pdfrwt beam="1">  1        1 0.89528685E+00 0.30000000E+03</pdfrwt>
<pdfrwt beam="2">0</pdfrwt>
<totfact> 0.12642924E-04</totfact>
</mgrwt>
<clustering>
<clus scale="   33.175">  1  6  2 -1</clus>
<clus scale="  484.941">  4  5 -1 -1</clus>
<clus scale="  300.000">  1  4  2 -1</clus>
</clustering>
</event>
<event>
 6    1  0.9964252E-012  0.3000000E+03  0.7818608E-02  0.1093470E+00
          1   -1    0    0  502    0  0.00000000000E+00  0.00000000000E+00  0.22131346870E+03  0.22131346870E+03  0.00000000000E+00 0.  1.
         13   -1    0    0    0    0 -0.00000000000E+00 -0.00000000000E+00 -0.27500000000E+03  0.27500000000E+03  0.00000000000E+00 0.  1.
    9000005    2    1    2  501    0 -0.14672140009E+02 -0.30568947252E+02 -0.52870727930E+02  0.46239595459E+03  0.45811021896E+03 0.  0.
         13    1    3    3    0    0  0.22146765225E+03 -0.24921884609E+02 -0.33886820755E+02  0.22542701246E+03  0.00000000000E+00 0.  1.
          3    1    3    3  501    0 -0.23613979226E+03 -0.56470626426E+01 -0.18983907175E+02  0.23696894213E+03  0.00000000000E+00 0.  1.
         21    1    1    2  502  501  0.14672140009E+02  0.30568947252E+02 -0.81580336866E+00  0.33917514114E+02  0.00000000000E+00 0. -1.
<scales pt_clust_4="550.00000" pt_clust_5="550.00000" pt_clust_6="33.90770"></scales>
<mgrwt>
<rscale>  0 0.30000000E+03</rscale>
<asrwt>  1 0.33907702E+02</asrwt>
<pdfrwt beam="1">  1        1 0.80477625E+00 0.30000000E+03</pdfrwt>
<pdfrwt beam="2">0</pdfrwt>
<totfact> 0.96236882E-04</totfact>
</mgrwt>
<clustering>
<clus scale="   33.908">  1  6  2 -1</clus>
<clus scale="  458.110">  4  5 -1 -1</clus>
<clus scale="  300.000">  1  4  2 -1</clus>
</clustering>
</event>
<event>
 6    1  0.9964252E-012  0.3000000E+03  0.7818608E-02  0.1093470E+00
          1   -1    0    0  502    0  0.00000000000E+00  0.00000000000E+00  0.23459013286E+03  0.23459013286E+03  0.00000000000E+00 0.  1.
         13   -1    0    0    0    0 -0.00000000000E+00 -0.00000000000E+00 -0.27500000000E+03  0.27500000000E+03  0.00000000000E+00 0.  1.
    9000005    2    1    2  501    0  0.14264911435E+02 -0.30885310265E+02 -0.58392898360E+02  0.47110923500E+03  0.46623683964E+03 0.  0.
         13    1    3    3    0    0 -0.15659556161E+03 -0.18111121846E+03 -0.41281165628E+02  0.24295591782E+03  0.00000000000E+00 0.  1.
          3    1    3    3  501    0  0.17086047304E+03  0.15022590820E+03 -0.17111732733E+02  0.22815331718E+03  0.00000000000E+00 0.  1.
         21    1    1    2  502  501 -0.14264911435E+02  0.30885310265E+02  0.17983031224E+02  0.38480897864E+02  0.00000000000E+00 0.  1.
<scales pt_clust_4="550.00000" pt_clust_5="550.00000" pt_clust_6="34.02044"></scales>
<mgrwt>
<rscale>  0 0.30000000E+03</rscale>
<asrwt>  1 0.34020436E+02</asrwt>
<pdfrwt beam="1">  1        1 0.85305503E+00 0.30000000E+03</pdfrwt>
<pdfrwt beam="2">0</pdfrwt>
<totfact> 0.38263291E-04</totfact>
</mgrwt>
<clustering>
<clus scale="   34.020">  1  6  2 -1</clus>
<clus scale="  466.237">  4  5 -1 -1</clus>
<clus scale="  300.000">  1  4  2 -1</clus>
</clustering>
</event>
<event>
 6    1  0.9964252E-012  0.3000000E+03  0.7818608E-02  0.1093470E+00
          1   -1    0    0  502    0  0.00000000000E+00  0.00000000000E+00  0.22925976763E+03  0.22925976763E+03  0.00000000000E+00 0.  1.
         13   -1    0    0    0    0 -0.00000000000E+00 -0.00000000000E+00 -0.27500000000E+03  0.27500000000E+03  0.00000000000E+00 0.  1.
    9000005    2    1    2  501    0 -0.30070378358E+02 -0.97242349991E+00 -0.69344021628E+02  0.46601957765E+03  0.45984832299E+03 0.  0.
         13    1    3    3    0    0 -0.23763258152E+03  0.45795782073E+02 -0.74431959993E+02  0.25319283979E+03  0.00000000000E+00 0.  1.
          1    1    3    3  501    0  0.20756220316E+03 -0.46768205573E+02  0.50879383648E+01  0.21282673786E+03  0.00000000000E+00 0.  1.
         21    1    1    2  502  501  0.30070378358E+02  0.97242349991E+00  0.23603789257E+02  0.38240189975E+02  0.00000000000E+00 0.  1.
<scales pt_clust_4="550.00000" pt_clust_5="550.00000" pt_clust_6="30.08610"></scales>
<mgrwt>
<rscale>  0 0.30000000E+03</rscale>
<asrwt>  1 0.30086097E+02</asrwt>
<pdfrwt beam="1">  1        1 0.83367188E+00 0.30000000E+03</pdfrwt>
<pdfrwt beam="2">0</pdfrwt>
<totfact> 0.56941977E-04</totfact>
</mgrwt>
<clustering>
<clus scale="   30.086">  1  6  2 -1</clus>
<clus scale="  459.848">  4  5 -1 -1</clus>
<clus scale="  300.000">  1  4  2 -1</clus>
</clustering>
</event>
<event>
 6    1  0.9964252E-012  0.3000000E+03  0.7818608E-02  0.1093470E+00
          1   -1    0    0  502    0  0.00000000000E+00  0.00000000000E+00  0.24882400202E+03  0.24882400202E+03  0.00000000000E+00 0.  1.
         13   -1    0    0    0    0 -0.00000000000E+00 -0.00000000000E+00 -0.27500000000E+03  0.27500000000E+03  0.00000000000E+00 0.  1.
    9000005    2    1    2  501    0  0.13670827458E+02  0.33170560019E+02 -0.33598834553E+02  0.48718691592E+03  0.48470097151E+03 0.  0.
         13    1    3    3    0    0  0.19492597200E+03 -0.74094182247E+02 -0.14005019862E+03  0.25119741347E+03  0.00000000000E+00 0.  1.
          3    1    3    3  501    0 -0.18125514454E+03  0.10726474227E+03  0.10645136406E+03  0.23598950245E+03  0.00000000000E+00 0.  1.
         21    1    1    2  502  501 -0.13670827458E+02 -0.33170560019E+02  0.74228365745E+01  0.36637086104E+02  0.00000000000E+00 0.  1.
<scales pt_clust_4="550.00000" pt_clust_5="550.00000" pt_clust_6="35.87726"></scales>
<mgrwt>
<rscale>  0 0.30000000E+03</rscale>
<asrwt>  1 0.35877257E+02</asrwt>
<pdfrwt beam="1">  1        1 0.90481455E+00 0.30000000E+03</pdfrwt>
<pdfrwt beam="2">0</pdfrwt>
<totfact> 0.92779600E-05</totfact>
</mgrwt>
<clustering>
<clus scale="   35.877">  1  6  2 -1</clus>
<clus scale="  484.701">  4  5 -1 -1</clus>
<clus scale="  300.000">  1  4  2 -1</clus>
</clustering>
</event>
<event>
 6    1  0.9964252E-012  0.3000000E+03  0.7818608E-02  0.1093470E+00
          1   -1    0    0  502    0  0.00000000000E+00  0.00000000000E+00  0.23364460590E+03  0.23364460590E+03  0.00000000000E+00 0.  1.
         13   -1    0    0    0    0 -0.00000000000E+00 -0.00000000000E+00 -0.27500000000E+03  0.27500000000E+03  0.00000000000E+00 0.  1.
    9000005    2    1    2  501    0  0.29020180146E+02  0.14800562529E+02 -0.47443413462E+02  0.47550412481E+03  0.47200854624E+03 0.  0.
         13    1    3    3    0    0  0.20337988789E+02  0.67474179787E+02  0.20536526895E+03  0.21712045601E+03  0.00000000000E+00 0.  1.
          3    1    3    3  501    0  0.86821913575E+01 -0.52673617258E+02 -0.25280868241E+03  0.25838366880E+03  0.00000000000E+00 0.  1.
         21    1    1    2  502  501 -0.29020180146E+02 -0.14800562529E+02  0.60880193603E+01  0.33140481086E+02  0.00000000000E+00 0.  1.
<scales pt_clust_4="550.00000" pt_clust_5="550.00000" pt_clust_6="32.57649"></scales>
<mgrwt>
<rscale>  0 0.30000000E+03</rscale>
<asrwt>  1 0.32576487E+02</asrwt>
<pdfrwt beam="1">  1        1 0.84961675E+00 0.30000000E+03</pdfrwt>
<pdfrwt beam="2">0</pdfrwt>
<totfact> 0.41594465E-04</totfact>
</mgrwt>
<clustering>
<clus scale="   32.576">  1  6  2 -1</clus>
<clus scale="  472.009">  4  5 -1 -1</clus>
<clus scale="  300.000">  1  4  2 -1</clus>
</clustering>
</event>
<event>
 6    1  0.9964252E-012  0.3000000E+03  0.7818608E-02  0.1093470E+00
          1   -1    0    0  502    0  0.00000000000E+00  0.00000000000E+00  0.24674328762E+03  0.24674328762E+03  0.00000000000E+00 0.  1.
         13   -1    0    0    0    0 -0.00000000000E+00 -0.00000000000E+00 -0.27500000000E+03  0.27500000000E+03  0.00000000000E+00 0.  1.
    9000005    2    1    2  501    0  0.65443271917E+01 -0.29533057610E+02 -0.47117344802E+02  0.48609566265E+03  0.48286014472E+03 0.  0.
         13    1    3    3    0    0  0.11414983919E+03 -0.15896378411E+03 -0.18439920572E+03  0.26889168361E+03  0.00000000000E+00 0.  1.
          3    1    3    3  501    0 -0.10760551200E+03  0.12943072650E+03  0.13728186092E+03  0.21720397904E+03  0.00000000000E+00 0.  1.
         21    1    1    2  502  501 -0.65443271917E+01  0.29533057610E+02  0.18860632418E+02  0.35647624962E+02  0.00000000000E+00 0. -1.
<scales pt_clust_4="550.00000" pt_clust_5="550.00000" pt_clust_6="30.24946"></scales>
<mgrwt>
<rscale>  0 0.30000000E+03</rscale>
<asrwt>  1 0.30249458E+02</asrwt>
<pdfrwt beam="1">  1        1 0.89724832E+00 0.30000000E+03</pdfrwt>
<pdfrwt beam="2">0</pdfrwt>
<totfact> 0.12234214E-04</totfact>
</mgrwt>
<clustering>
<clus scale="   30.249">  1  6  2 -1</clus>
<clus scale="  482.860">  4  5 -1 -1</clus>
<clus scale="  300.000">  1  4  2 -1</clus>
</clustering>
</event>
<event>
 6    1  0.9964252E-012  0.3000000E+03  0.7818608E-02  0.1093470E+00
          1   -1    0    0  502    0  0.00000000000E+00  0.00000000000E+00  0.23397930918E+03  0.23397930918E+03  0.00000000000E+00 0.  1.
         13   -1    0    0    0    0 -0.00000000000E+00 -0.00000000000E+00 -0.27500000000E+03  0.27500000000E+03  0.00000000000E+00 0.  1.
    9000005    2    1    2  501    0 -0.35362838838E+02  0.13462922782E+01 -0.37264512137E+02  0.47339206776E+03  0.47059437213E+03 0.  0.
         13    1    3    3    0    0 -0.21819640737E+03 -0.10030238593E+03  0.52397737730E+02  0.24579618332E+03  0.00000000000E+00 0.  1.
          3    1    3    3  501    0  0.18283356854E+03  0.10164867820E+03 -0.89662249867E+02  0.22759588444E+03  0.00000000000E+00 0.  1.
         21    1    1    2  502  501  0.35362838838E+02 -0.13462922782E+01 -0.37561786844E+01  0.35587241420E+02  0.00000000000E+00 0. -1.
<scales pt_clust_4="550.00000" pt_clust_5="550.00000" pt_clust_6="35.38847"></scales>
<mgrwt>
<rscale>  0 0.30000000E+03</rscale>
<asrwt>  1 0.35388474E+02</asrwt>
<pdfrwt beam="1">  1        1 0.85083385E+00 0.30000000E+03</pdfrwt>
<pdfrwt beam="2">0</pdfrwt>
<totfact> 0.39886410E-04</totfact>
</mgrwt>
<clustering>
<clus scale="   35.388">  1  6  2 -1</clus>
<clus scale="  470.594">  4  5 -1 -1</clus>
<clus scale="  300.000">  1  4  2 -1</clus>
</clustering>
</event>
<event>
 6    1  0.9964252E-012  0.3000000E+03  0.7818608E-02  0.1093470E+00
          1   -1    0    0  502    0  0.00000000000E+00  0.00000000000E+00  0.24369628802E+03  0.24369628802E+03  0.00000000000E+00 0.  1.
         13   -1    0    0    0    0 -0.00000000000E+00 -0.00000000000E+00 -0.27500000000E+03  0.27500000000E+03  0.00000000000E+00 0.  1.
    9000005    2    1    2  501    0  0.53584988483E+02 -0.43222992567E+01 -0.28716286419E+02  0.46487502798E+03  0.46086237997E+03 0.  0.
         13    1    3    3    0    0 -0.18063542687E+03  0.10054528755E+03 -0.78513218514E+00  0.20673444010E+03  0.00000000000E+00 0.  1.
          1    1    3    3  501    0  0.23422041536E+03 -0.10486758681E+03 -0.27931154234E+02  0.25814058788E+03  0.00000000000E+00 0.  1.
         21    1    1    2  502  501 -0.53584988483E+02  0.43222992567E+01 -0.25874255584E+01  0.53821260043E+02  0.00000000000E+00 0.  1.
<scales pt_clust_4="550.00000" pt_clust_5="550.00000" pt_clust_6="53.75903"></scales>
<mgrwt>
<rscale>  0 0.30000000E+03</rscale>
<asrwt>  1 0.53759030E+02</asrwt>
<pdfrwt beam="1">  1        1 0.88616832E+00 0.30000000E+03</pdfrwt>
<pdfrwt beam="2">0</pdfrwt>
<totfact> 0.15138901E-04</totfact>
</mgrwt>
<clustering>
<clus scale="   53.759">  1  6  2 -1</clus>
<clus scale="  460.862">  4  5 -1 -1</clus>
<clus scale="  300.000">  1  4  2 -1</clus>
</clustering>
</event>
<event>
 6    1  0.9964252E-012  0.3000000E+03  0.7818608E-02  0.1093470E+00
          1   -1    0    0  502    0  0.00000000000E+00  0.00000000000E+00  0.22183279197E+03  0.22183279197E+03  0.00000000000E+00 0.  1.
         13   -1    0    0    0    0 -0.00000000000E+00 -0.00000000000E+00 -0.27500000000E+03  0.27500000000E+03  0.00000000000E+00 0.  1.
    9000005    2    1    2  501    0  0.28300966583E+02  0.21162071171E+02 -0.52162374907E+02  0.46148045605E+03  0.45715918452E+03 0.  0.
         13    1    3    3    0    0  0.14998187668E+03 -0.17042760802E+03  0.62839384932E+01  0.22711147217E+03  0.00000000000E+00 0.  1.
          3    1    3    3  501    0 -0.12168091010E+03  0.19158967919E+03 -0.58446313400E+02  0.23436898388E+03  0.00000000000E+00 0.  1.
         21    1    1    2  502  501 -0.28300966583E+02 -0.21162071171E+02 -0.10048331198E+01  0.35352335925E+02  0.00000000000E+00 0. -1.
<scales pt_clust_4="550.00000" pt_clust_5="550.00000" pt_clust_6="35.33805"></scales>
<mgrwt>
<rscale>  0 0.30000000E+03</rscale>
<asrwt>  1 0.35338053E+02</asrwt>
<pdfrwt beam="1">  1        1 0.80666470E+00 0.30000000E+03</pdfrwt>
<pdfrwt beam="2">0</pdfrwt>
<totfact> 0.92381222E-04</totfact>
</mgrwt>
<clustering>
<clus scale="   35.338">  1  6  2 -1</clus>
<clus scale="  457.159">  4  5 -1 -1</clus>
<clus scale="  300.000">  1  4  2 -1</clus>
</clustering>
</event>
<event>
 6    1  0.9964252E-012  0.3000000E+03  0.7818608E-02  0.1093470E+00
          1   -1    0    0  502    0  0.00000000000E+00  0.00000000000E+00  0.23289546367E+03  0.23289546367E+03  0.00000000000E+00 0.  1.
         13   -1    0    0    0    0 -0.00000000000E+00 -0.00000000000E+00 -0.27500000000E+03  0.27500000000E+03  0.00000000000E+00 0.  1.
    9000005    2    1    2  501    0  0.33765388405E+02 -0.10083425188E+01 -0.33691338488E+02  0.47308310801E+03  0.47067122558E+03 0.  0.
         13    1    3    3    0    0 -0.16417521937E+03 -0.15133983624E+03 -0.12922130543E+02  0.22366097144E+03  0.00000000000E+00 0.  1.
          3    1    3    3  501    0  0.19794060777E+03  0.15033149373E+03 -0.20769207945E+02  0.24942213657E+03  0.00000000000E+00 0.  1.
         21    1    1    2  502  501 -0.33765388405E+02  0.10083425188E+01 -0.84131978390E+01  0.34812355660E+02  0.00000000000E+00 0. -1.
<scales pt_clust_4="550.00000" pt_clust_5="550.00000" pt_clust_6="33.78046"></scales>
<mgrwt>
<rscale>  0 0.30000000E+03</rscale>
<asrwt>  1 0.33780458E+02</asrwt>
<pdfrwt beam="1">  1        1 0.84689260E+00 0.30000000E+03</pdfrwt>
<pdfrwt beam="2">0</pdfrwt>
<totfact> 0.43758704E-04</totfact>
</mgrwt>
<clustering>
<clus scale="   33.780">  1  6  2 -1</clus>
<clus scale="  470.671">  4  5 -1 -1</clus>
<clus scale="  300.000">  1  4  2 -1</clus>
</clustering>
</event>
<event>
 6    1  0.9964252E-012  0.3000000E+03  0.7818608E-02  0.1093470E+00
          1   -1    0    0  502    0  0.00000000000E+00  0.00000000000E+00  0.22772922897E+03  0.22772922897E+03  0.00000000000E+00 0.  1.
         13   -1    0    0    0    0 -0.00000000000E+00 -0.00000000000E+00 -0.27500000000E+03  0.27500000000E+03  0.00000000000E+00 0.  1.
    9000005    2    1    2  501    0 -0.29894415646E+02  0.18742846659E+02 -0.39907788273E+02  0.46668503523E+03  0.46363489963E+03 0.  0.
         13    1    3    3    0    0  0.20318611619E+03 -0.34838522471E+00  0.60761230340E+02  0.21207698201E+03  0.00000000000E+00 0.  1.
          3    1    3    3  501    0 -0.23308053184E+03  0.19091231884E+02 -0.10066901861E+03  0.25460805322E+03  0.00000000000E+00 0.  1.
         21    1    1    2  502  501  0.29894415646E+02 -0.18742846659E+02 -0.73629827552E+01  0.36044193745E+02  0.00000000000E+00 0.  1.
<scales pt_clust_4="550.00000" pt_clust_5="550.00000" pt_clust_6="35.28416"></scales>
<mgrwt>
<rscale>  0 0.30000000E+03</rscale>
<asrwt>  1 0.35284156E+02</asrwt>
<pdfrwt beam="1">  1        1 0.82810629E+00 0.30000000E+03</pdfrwt>
<pdfrwt beam="2">0</pdfrwt>
<totfact> 0.61231968E-04</totfact>
</mgrwt>
<clustering>
<clus scale="   35.284">  1  6  2 -1</clus>
<clus scale="  463.635">  4  5 -1 -1</clus>
<clus scale="  300.000">  1  4  2 -1</clus>
</clustering>
</event>
<event>
 6    1  0.9964252E-012  0.3000000E+03  0.7818608E-02  0.1093470E+00
          1   -1    0    0  502    0  0.00000000000E+00  0.00000000000E+00  0.22595219739E+03  0.22595219739E+03  0.00000000000E+00 0.  1.
         13   -1    0    0    0    0 -0.00000000000E+00 -0.00000000000E+00 -0.27500000000E+03  0.27500000000E+03  0.00000000000E+00 0.  1.
    9000005    2    1    2  501    0 -0.19605588968E+02 -0.26939020553E+02 -0.31048494259E+02  0.46308314607E+03  0.46083825929E+03 0.  0.
         13    1    3    3    0    0  0.53599451776E+02  0.21110767686E+02  0.20414512439E+03  0.21211741455E+03  0.00000000000E+00 0.  1.
          1    1    3    3  501    0 -0.73205040745E+02 -0.48049788239E+02 -0.23519361865E+03  0.25096573151E+03  0.00000000000E+00 0.  1.
         21    1    1    2  502  501  0.19605588968E+02  0.26939020553E+02 -0.17999308350E+02  0.37869051325E+02  0.00000000000E+00 0. -1.
<scales pt_clust_4="550.00000" pt_clust_5="550.00000" pt_clust_6="33.31803"></scales>
<mgrwt>
<rscale>  0 0.30000000E+03</rscale>
<asrwt>  1 0.33318029E+02</asrwt>
<pdfrwt beam="1">  1        1 0.82164435E+00 0.30000000E+03</pdfrwt>
<pdfrwt beam="2">0</pdfrwt>
<totfact> 0.70622322E-04</totfact>
</mgrwt>
<clustering>
<clus scale="   33.318">  1  6  2 -1</clus>
<clus scale="  460.838">  4  5 -1 -1</clus>
<clus scale="  300.000">  1  4  2 -1</clus>
</clustering>
</event>
<event>
 6    1  0.9964252E-012  0.3000000E+03  0.7818608E-02  0.1093470E+00
          1   -1    0    0  502    0  0.00000000000E+00  0.00000000000E+00  0.25137216029E+03  0.25137216029E+03  0.00000000000E+00 0.  1.
         13   -1    0    0    0    0 -0.00000000000E+00 -0.00000000000E+00 -0.27500000000E+03  0.27500000000E+03  0.00000000000E+00 0.  1.
    9000005    2    1    2  501    0 -0.35188835171E+02  0.27807308457E+01 -0.32999147849E+02  0.48985082405E+03  0.48746169026E+03 0.  0.
         13    1    3    3    0    0  0.16700430867E+03  0.12500153191E+03  0.85608893579E+02  0.22548770422E+03  0.00000000000E+00 0.  1.
          1    1    3    3  501    0 -0.20219314384E+03 -0.12222080107E+03 -0.11860804143E+03  0.26436311982E+03  0.00000000000E+00 0.  1.
         21    1    1    2  502  501  0.35188835171E+02 -0.27807308457E+01  0.93713081372E+01  0.36521336242E+02  0.00000000000E+00 0. -1.
<scales pt_clust_4="550.00000" pt_clust_5="550.00000" pt_clust_6="35.29854"></scales>
<mgrwt>
<rscale>  0 0.30000000E+03</rscale>
<asrwt>  1 0.35298535E+02</asrwt>
<pdfrwt beam="1">  1        1 0.91408058E+00 0.30000000E+03</pdfrwt>
<pdfrwt beam="2">0</pdfrwt>
<totfact> 0.56840170E-05</totfact>
</mgrwt>
<clustering>
<clus scale="   35.299">  1  6  2 -1</clus>
<clus scale="  487.462">  4  5 -1 -1</clus>
<clus scale="  300.000">  1  4  2 -1</clus>
</clustering>
</event>
<event>
 6    1  0.9964252E-012  0.3000000E+03  0.7818608E-02  0.1093470E+00
          1   -1    0    0  502    0  0.00000000000E+00  0.00000000000E+00  0.23195170649E+03  0.23195170649E+03  0.00000000000E+00 0.  1.
         13   -1    0    0    0    0 -0.00000000000E+00 -0.00000000000E+00 -0.27500000000E+03  0.27500000000E+03  0.00000000000E+00 0.  1.
    9000005    2    1    2  501    0  0.30883807972E+02  0.69382739102E+01 -0.38002952503E+02  0.47489855211E+03  0.47231606066E+03 0.  0.
         13    1    3    3    0    0 -0.99450149793E+02 -0.16205532517E+03  0.10576660716E+03  0.21757489722E+03  0.00000000000E+00 0.  1.
          1    1    3    3  501    0  0.13033395777E+03  0.16899359908E+03 -0.14376955967E+03  0.25732365489E+03  0.00000000000E+00 0.  1.
         21    1    1    2  502  501 -0.30883807972E+02 -0.69382739102E+01 -0.50453410077E+01  0.32053154378E+02  0.00000000000E+00 0.  1.
<scales pt_clust_4="550.00000" pt_clust_5="550.00000" pt_clust_6="31.65360"></scales>
<mgrwt>
<rscale>  0 0.30000000E+03</rscale>
<asrwt>  1 0.31653598E+02</asrwt>
<pdfrwt beam="1">  1        1 0.84346075E+00 0.30000000E+03</pdfrwt>
<pdfrwt beam="2">0</pdfrwt>
<totfact> 0.47476517E-04</totfact>
</mgrwt>
<clustering>
<clus scale="   31.654">  1  6  2 -1</clus>
<clus scale="  472.316">  4  5 -1 -1</clus>
<clus scale="  300.000">  1  4  2 -1</clus>
</clustering>
</event>
<event>
 6    1  0.9964252E-012  0.3000000E+03  0.7818608E-02  0.1093470E+00
          1   -1    0    0  502    0  0.00000000000E+00  0.00000000000E+00  0.24691944895E+03  0.24691944895E+03  0.00000000000E+00 0.  1.
         13   -1    0    0    0    0 -0.00000000000E+00 -0.00000000000E+00 -0.27500000000E+03  0.27500000000E+03  0.00000000000E+00 0.  1.
    9000005    2    1    2  501    0  0.37331663512E+02 -0.20378017698E+02 -0.61816813617E+02  0.46763269073E+03  0.46157350258E+03 0.  0.
         13    1    3    3    0    0 -0.95507328771E+02 -0.21061195810E+03 -0.38527316048E+02  0.23444274530E+03  0.00000000000E+00 0.  1.
          3    1    3    3  501    0  0.13283899228E+03  0.19023394040E+03 -0.23289497570E+02  0.23318994543E+03  0.00000000000E+00 0.  1.
         21    1    1    2  502  501 -0.37331663512E+02  0.20378017698E+02  0.33736262565E+02  0.54286758217E+02  0.00000000000E+00 0.  1.
<scales pt_clust_4="550.00000" pt_clust_5="550.00000" pt_clust_6="42.53136"></scales>
<mgrwt>
<rscale>  0 0.30000000E+03</rscale>
<asrwt>  1 0.42531361E+02</asrwt>
<pdfrwt beam="1">  1        1 0.89788891E+00 0.30000000E+03</pdfrwt>
<pdfrwt beam="2">0</pdfrwt>
<totfact> 0.11291390E-04</totfact>
</mgrwt>
<clustering>
<clus scale="   42.531">  1  6  2 -1</clus>
<clus scale="  461.574">  4  5 -1 -1</clus>
<clus scale="  300.000">  1  4  2 -1</clus>
</clustering>
</event>
<event>
 6    1  0.9964252E-012  0.3000000E+03  0.7818608E-02  0.1093470E+00
          1   -1    0    0  502    0  0.00000000000E+00  0.00000000000E+00  0.23257545383E+03  0.23257545383E+03  0.00000000000E+00 0.  1.
         13   -1    0    0    0    0 -0.00000000000E+00 -0.00000000000E+00 -0.27500000000E+03  0.27500000000E+03  0.00000000000E+00 0.  1.
    9000005    2    1    2  501    0 -0.81350084134E+01 -0.33919388169E+02 -0.40304895226E+02  0.47262983643E+03  0.46961449557E+03 0.  0.
         13    1    3    3    0    0 -0.15919001976E+03 -0.18262548592E+03 -0.83596000298E+02  0.25628464988E+03  0.00000000000E+00 0.  1.
          1    1    3    3  501    0  0.15105501135E+03  0.14870609776E+03  0.43291105072E+02  0.21634518654E+03  0.00000000000E+00 0.  1.
         21    1    1    2  502  501  0.81350084134E+01  0.33919388169E+02 -0.21196509405E+01  0.34945617404E+02  0.00000000000E+00 0.  1.
<scales pt_clust_4="550.00000" pt_clust_5="550.00000" pt_clust_6="34.88127"></scales>
<mgrwt>
<rscale>  0 0.30000000E+03</rscale>
<asrwt>  1 0.34881274E+02</asrwt>
<pdfrwt beam="1">  1        1 0.84572892E+00 0.30000000E+03</pdfrwt>
<pdfrwt beam="2">0</pdfrwt>
<totfact> 0.44548982E-04</totfact>
</mgrwt>
<clustering>
<clus scale="   34.881">  1  6  2 -1</clus>
<clus scale="  469.614">  4  5 -1 -1</clus>
<clus scale="  300.000">  1  4  2 -1</clus>
</clustering>
</event>
<event>
 6    1  0.9964252E-012  0.3000000E+03  0.7818608E-02  0.1093470E+00
          1   -1    0    0  502    0  0.00000000000E+00  0.00000000000E+00  0.22760600346E+03  0.22760600346E+03  0.00000000000E+00 0.  1.
         13   -1    0    0    0    0 -0.00000000000E+00 -0.00000000000E+00 -0.27500000000E+03  0.27500000000E+03  0.00000000000E+00 0.  1.
    9000005    2    1    2  501    0  0.38417039320E+02  0.10120654894E+02 -0.55974606943E+02  0.46196214242E+03  0.45683428926E+03 0.  0.
         13    1    3    3    0    0  0.18549862238E+02 -0.22120844038E+03  0.45167017737E+01  0.22203079083E+03  0.00000000000E+00 0.  1.
          1    1    3    3  501    0  0.19867177083E+02  0.23132909527E+03 -0.60491308716E+02  0.23993135159E+03  0.00000000000E+00 0.  1.
         21    1    1    2  502  501 -0.38417039320E+02 -0.10120654894E+02  0.85806104057E+01  0.40643861044E+02  0.00000000000E+00 0. -1.
<scales pt_clust_4="550.00000" pt_clust_5="550.00000" pt_clust_6="39.72778"></scales>
<mgrwt>
<rscale>  0 0.30000000E+03</rscale>
<asrwt>  1 0.39727781E+02</asrwt>
<pdfrwt beam="1">  1        1 0.82765819E+00 0.30000000E+03</pdfrwt>
<pdfrwt beam="2">0</pdfrwt>
<totfact> 0.60443583E-04</totfact>
</mgrwt>
<clustering>
<clus scale="   39.728">  1  6  2 -1</clus>
<clus scale="  456.834">  4  5 -1 -1</clus>
<clus scale="  300.000">  1  4  2 -1</clus>
</clustering>
</event>
<event>
 6    1  0.9964252E-012  0.3000000E+03  0.7818608E-02  0.1093470E+00
          1   -1    0    0  502    0  0.00000000000E+00  0.00000000000E+00  0.25824036065E+03  0.25824036065E+03  0.00000000000E+00 0.  1.
         13   -1    0    0    0    0 -0.00000000000E+00 -0.00000000000E+00 -0.27500000000E+03  0.27500000000E+03  0.00000000000E+00 0.  1.
    9000005    2    1    2  501    0 -0.26168588145E+02 -0.41057644772E+02  0.34014293608E+02  0.46289466093E+03  0.45906858937E+03 0.  0.
         13    1    3    3    0    0 -0.62111880929E+02  0.63737622848E+02  0.22507813327E+03  0.24203416370E+03  0.00000000000E+00 0.  1.
          3    1    3    3  501    0  0.35943292783E+02 -0.10479526762E+03 -0.19106383966E+03  0.22086049724E+03  0.00000000000E+00 0.  1.
         21    1    1    2  502  501  0.26168588145E+02  0.41057644772E+02 -0.50773932962E+02  0.70345699713E+02  0.00000000000E+00 0. -1.
<scales pt_clust_4="550.00000" pt_clust_5="550.00000" pt_clust_6="48.68806"></scales>
<mgrwt>
<rscale>  0 0.30000000E+03</rscale>
<asrwt>  1 0.48688064E+02</asrwt>
<pdfrwt beam="1">  1        1 0.93905586E+00 0.30000000E+03</pdfrwt>
<pdfrwt beam="2">0</pdfrwt>
<totfact> 0.18706380E-05</totfact>
</mgrwt>
<clustering>
<clus scale="   48.688">  1  6  2 -1</clus>
<clus scale="  459.069">  4  5 -1 -1</clus>
<clus scale="  300.000">  1  4  2 -1</clus>
</clustering>
</event>
<event>
 6    1  0.9964252E-012  0.3000000E+03  0.7818608E-02  0.1093470E+00
          1   -1    0    0  502    0  0.00000000000E+00  0.00000000000E+00  0.25009193280E+03  0.25009193280E+03  0.00000000000E+00 0.  1.
         13   -1    0    0    0    0 -0.00000000000E+00 -0.00000000000E+00 -0.27500000000E+03  0.27500000000E+03  0.00000000000E+00 0.  1.
    9000005    2    1    2  501    0  0.19414188651E+02  0.30089118423E+02 -0.74416474224E+02  0.46399080241E+03  0.45658228976E+03 0.  0.
         13    1    3    3    0    0  0.19252826144E+03 -0.12144661342E+03 -0.28848099999E+02  0.22945288021E+03  0.00000000000E+00 0.  1.
          3    1    3    3  501    0 -0.17311407279E+03  0.15153573184E+03 -0.45568374225E+02  0.23453792220E+03  0.00000000000E+00 0.  1.
         21    1    1    2  502  501 -0.19414188651E+02 -0.30089118423E+02  0.49508407026E+02  0.61101130388E+02  0.00000000000E+00 0.  1.
<scales pt_clust_4="550.00000" pt_clust_5="550.00000" pt_clust_6="35.80874"></scales>
<mgrwt>
<rscale>  0 0.30000000E+03</rscale>
<asrwt>  1 0.35808739E+02</asrwt>
<pdfrwt beam="1">  1        1 0.90942521E+00 0.30000000E+03</pdfrwt>
<pdfrwt beam="2">0</pdfrwt>
<totfact> 0.73872550E-05</totfact>
</mgrwt>
<clustering>
<clus scale="   35.809">  1  6  2 -1</clus>
<clus scale="  456.582">  4  5 -1 -1</clus>
<clus scale="  300.000">  1  4  2 -1</clus>
</clustering>
</event>
<event>
 6    1  0.9964252E-012  0.3000000E+03  0.7818608E-02  0.1093470E+00
          1   -1    0    0  502    0  0.00000000000E+00  0.00000000000E+00  0.22972324611E+03  0.22972324611E+03  0.00000000000E+00 0.  1.
         13   -1    0    0    0    0 -0.00000000000E+00 -0.00000000000E+00 -0.27500000000E+03  0.27500000000E+03  0.00000000000E+00 0.  1.
    9000005    2    1    2  501    0  0.32373899356E+02 -0.15052962401E+02 -0.67011274331E+02  0.46292551393E+03  0.45665617211E+03 0.  0.
         13    1    3    3    0    0  0.14301874279E+03 -0.63439343065E+02  0.14861207504E+03  0.21578799755E+03  0.00000000000E+00 0.  1.
          3    1    3    3  501    0 -0.11064484343E+03  0.48386380664E+02 -0.21562334937E+03  0.24713751638E+03  0.00000000000E+00 0.  1.
         21    1    1    2  502  501 -0.32373899356E+02  0.15052962401E+02  0.21734520439E+02  0.41797732179E+02  0.00000000000E+00 0. -1.
<scales pt_clust_4="550.00000" pt_clust_5="550.00000" pt_clust_6="35.70240"></scales>
<mgrwt>
<rscale>  0 0.30000000E+03</rscale>
<asrwt>  1 0.35702395E+02</asrwt>
<pdfrwt beam="1">  1        1 0.83535726E+00 0.30000000E+03</pdfrwt>
<pdfrwt beam="2">0</pdfrwt>
<totfact> 0.53576559E-04</totfact>
</mgrwt>
<clustering>
<clus scale="   35.702">  1  6  2 -1</clus>
<clus scale="  456.656">  4  5 -1 -1</clus>
<clus scale="  300.000">  1  4  2 -1</clus>
</clustering>
</event>
<event>
 6    1  0.9964252E-012  0.3000000E+03  0.7818608E-02  0.1093470E+00
          1   -1    0    0  502    0  0.00000000000E+00  0.00000000000E+00  0.24842070749E+03  0.24842070749E+03  0.00000000000E+00 0.  1.
         13   -1    0    0    0    0 -0.00000000000E+00 -0.00000000000E+00 -0.27500000000E+03  0.27500000000E+03  0.00000000000E+00 0.  1.
    9000005    2    1    2  501    0  0.41865273759E+02 -0.64029487223E+01 -0.55377944871E+02  0.47220487715E+03  0.46703001010E+03 0.  0.
         13    1    3    3    0    0  0.23224446135E+03 -0.71163774807E+02 -0.10571142589E+03  0.26490881117E+03  0.00000000000E+00 0.  1.
          3    1    3    3  501    0 -0.19037918759E+03  0.64760826084E+02  0.50333481016E+02  0.20729606599E+03  0.00000000000E+00 0.  1.
         21    1    1    2  502  501 -0.41865273759E+02  0.64029487223E+01  0.28798652363E+02  0.51215830338E+02  0.00000000000E+00 0.  1.
<scales pt_clust_4="550.00000" pt_clust_5="550.00000" pt_clust_6="42.35208"></scales>
<mgrwt>
<rscale>  0 0.30000000E+03</rscale>
<asrwt>  1 0.42352083E+02</asrwt>
<pdfrwt beam="1">  1        1 0.90334803E+00 0.30000000E+03</pdfrwt>
<pdfrwt beam="2">0</pdfrwt>
<totfact> 0.95509775E-05</totfact>
</mgrwt>
<clustering>
<clus scale="   42.352">  1  6  2 -1</clus>
<clus scale="  467.030">  4  5 -1 -1</clus>
<clus scale="  300.000">  1  4  2 -1</clus>
</clustering>
</event>
<event>
 6    1  0.9964252E-012  0.3000000E+03  0.7818608E-02  0.1093470E+00
          1   -1    0    0  502    0  0.00000000000E+00  0.00000000000E+00  0.22844897289E+03  0.22844897289E+03  0.00000000000E+00 0.  1.
         13   -1    0    0    0    0 -0.00000000000E+00 -0.00000000000E+00 -0.27500000000E+03  0.27500000000E+03  0.00000000000E+00 0.  1.
    9000005    2    1    2  501    0 -0.27604894727E+02  0.12623288301E+02 -0.60515648397E+02  0.47003657597E+03  0.46513531518E+03 0.  0.
         13    1    3    3    0    0 -0.19805572785E+03 -0.11403894692E+03  0.44965654832E+02  0.23292243958E+03  0.00000000000E+00 0.  1.
          3    1    3    3  501    0  0.17045083312E+03  0.12666223522E+03 -0.10548130323E+03  0.23711413638E+03  0.00000000000E+00 0.  1.
         21    1    1    2  502  501  0.27604894727E+02 -0.12623288301E+02  0.13964621287E+02  0.33412396922E+02  0.00000000000E+00 0.  1.
<scales pt_clust_4="550.00000" pt_clust_5="550.00000" pt_clust_6="30.35420"></scales>
<mgrwt>
<rscale>  0 0.30000000E+03</rscale>
<asrwt>  1 0.30354203E+02</asrwt>
<pdfrwt beam="1">  1        1 0.83072354E+00 0.30000000E+03</pdfrwt>
<pdfrwt beam="2">0</pdfrwt>
<totfact> 0.59899738E-04</totfact>
</mgrwt>
<clustering>
<clus scale="   30.354">  1  6  2 -1</clus>
<clus scale="  465.135">  4  5 -1 -1</clus>
<clus scale="  300.000">  1  4  2 -1</clus>
</clustering>
</event>
<event>
 6    1  0.9964252E-012  0.3000000E+03  0.7818608E-02  0.1093470E+00
          1   -1    0    0  502    0  0.00000000000E+00  0.00000000000E+00  0.22343646320E+03  0.22343646320E+03  0.00000000000E+00 0.  1.
         13   -1    0    0    0    0 -0.00000000000E+00 -0.00000000000E+00 -0.27500000000E+03  0.27500000000E+03  0.00000000000E+00 0.  1.
    9000005    2    1    2  501    0  0.30203695128E+02  0.11793119826E+02 -0.66611692060E+02  0.46269030465E+03  0.45672076767E+03 0.  0.
         13    1    3    3    0    0  0.32845341511E+02 -0.64497971990E+02  0.18558170163E+03  0.19919681933E+03  0.00000000000E+00 0.  1.
          1    1    3    3  501    0 -0.26416463829E+01  0.76291091816E+02 -0.25219339369E+03  0.26349348532E+03  0.00000000000E+00 0.  1.
         21    1    1    2  502  501 -0.30203695128E+02 -0.11793119826E+02  0.15048155261E+02  0.35746158554E+02  0.00000000000E+00 0. -1.
<scales pt_clust_4="550.00000" pt_clust_5="550.00000" pt_clust_6="32.42439"></scales>
<mgrwt>
<rscale>  0 0.30000000E+03</rscale>
<asrwt>  1 0.32424387E+02</asrwt>
<pdfrwt beam="1">  1        1 0.81249623E+00 0.30000000E+03</pdfrwt>
<pdfrwt beam="2">0</pdfrwt>
<totfact> 0.84571317E-04</totfact>
</mgrwt>
<clustering>
<clus scale="   32.424">  1  6  2 -1</clus>
<clus scale="  456.721">  4  5 -1 -1</clus>
<clus scale="  300.000">  1  4  2 -1</clus>
</clustering>
</event>
<event>
 6    1  0.9964252E-012  0.3000000E+03  0.7818608E-02  0.1093470E+00
          1   -1    0    0  502    0  0.00000000000E+00  0.00000000000E+00  0.22236376513E+03  0.22236376513E+03  0.00000000000E+00 0.  1.
         13   -1    0    0    0    0 -0.00000000000E+00 -0.00000000000E+00 -0.27500000000E+03  0.27500000000E+03  0.00000000000E+00 0.  1.
    9000005    2    1    2  501    0 -0.34265222577E+02 -0.12767999620E+02 -0.53541540694E+02  0.46078580904E+03  0.45620142256E+03 0.  0.
         13    1    3    3    0    0 -0.30763918340E+02  0.13443913956E+03  0.15373514555E+03  0.20653037524E+03  0.00000000000E+00 0.  1.
          1    1    3    3  501    0 -0.35013042373E+01 -0.14720713918E+03 -0.20727668625E+03  0.25425543381E+03  0.00000000000E+00 0.  1.
         21    1    1    2  502  501  0.34265222577E+02  0.12767999620E+02  0.90530582136E+00  0.36577956083E+02  0.00000000000E+00 0.  1.
<scales pt_clust_4="550.00000" pt_clust_5="550.00000" pt_clust_6="36.56675"></scales>
<mgrwt>
<rscale>  0 0.30000000E+03</rscale>
<asrwt>  1 0.36566751E+02</asrwt>
<pdfrwt beam="1">  1        1 0.80859551E+00 0.30000000E+03</pdfrwt>
<pdfrwt beam="2">0</pdfrwt>
<totfact> 0.88706205E-04</totfact>
</mgrwt>
<clustering>
<clus scale="   36.567">  1  6  2 -1</clus>
<clus scale="  456.201">  4  5 -1 -1</clus>
<clus scale="  300.000">  1  4  2 -1</clus>
</clustering>
</event>
<event>
 6    1  0.9964252E-012  0.3000000E+03  0.7818608E-02  0.1093470E+00
          1   -1    0    0  502    0  0.00000000000E+00  0.00000000000E+00  0.22655033354E+03  0.22655033354E+03  0.00000000000E+00 0.  1.
         13   -1    0    0    0    0 -0.00000000000E+00 -0.00000000000E+00 -0.27500000000E+03  0.27500000000E+03  0.00000000000E+00 0.  1.
    9000005    2    1    2  501    0  0.78221264312E+01  0.29067899520E+02 -0.71940189376E+02  0.46336744325E+03  0.45675799738E+03 0.  0.
         13    1    3    3    0    0  0.17528785847E+03 -0.10792563359E+03  0.54274305678E+02  0.21288371467E+03  0.00000000000E+00 0.  1.
          3    1    3    3  501    0 -0.16746573204E+03  0.13699353311E+03 -0.12621449505E+03  0.25048372858E+03  0.00000000000E+00 0.  1.
         21    1    1    2  502  501 -0.78221264312E+01 -0.29067899520E+02  0.23490522919E+02  0.38182890296E+02  0.00000000000E+00 0.  1.
<scales pt_clust_4="550.00000" pt_clust_5="550.00000" pt_clust_6="30.10197"></scales>
<mgrwt>
<rscale>  0 0.30000000E+03</rscale>
<asrwt>  1 0.30101967E+02</asrwt>
<pdfrwt beam="1">  1        1 0.82381939E+00 0.30000000E+03</pdfrwt>
<pdfrwt beam="2">0</pdfrwt>
<totfact> 0.68864832E-04</totfact>
</mgrwt>
<clustering>
<clus scale="   30.102">  1  6  2 -1</clus>
<clus scale="  456.758">  4  5 -1 -1</clus>
<clus scale="  300.000">  1  4  2 -1</clus>
</clustering>
</event>
<event>
 6    1  0.9964252E-012  0.3000000E+03  0.7818608E-02  0.1093470E+00
          1   -1    0    0  502    0  0.00000000000E+00  0.00000000000E+00  0.22365425402E+03  0.22365425402E+03  0.00000000000E+00 0.  1.
         13   -1    0    0    0    0 -0.00000000000E+00 -0.00000000000E+00 -0.27500000000E+03  0.27500000000E+03  0.00000000000E+00 0.  1.
    9000005    2    1    2  501    0  0.73895300590E+01 -0.30700834314E+02 -0.53035715995E+02  0.46703143977E+03  0.46293458737E+03 0.  0.
         13    1    3    3    0    0 -0.13968316302E+03 -0.43466452434E+02  0.15422526154E+03  0.21257034086E+03  0.00000000000E+00 0.  1.
          3    1    3    3  501    0  0.14707269307E+03  0.12765618120E+02 -0.20726097753E+03  0.25446109892E+03  0.00000000000E+00 0.  1.
         21    1    1    2  502  501 -0.73895300590E+01  0.30700834314E+02  0.16899700139E+01  0.31622814244E+02  0.00000000000E+00 0. -1.
<scales pt_clust_4="550.00000" pt_clust_5="550.00000" pt_clust_6="31.57762"></scales>
<mgrwt>
<rscale>  0 0.30000000E+03</rscale>
<asrwt>  1 0.31577625E+02</asrwt>
<pdfrwt beam="1">  1        1 0.81328820E+00 0.30000000E+03</pdfrwt>
<pdfrwt beam="2">0</pdfrwt>
<totfact> 0.83774896E-04</totfact>
</mgrwt>
<clustering>
<clus scale="   31.578">  1  6  2 -1</clus>
<clus scale="  462.935">  4  5 -1 -1</clus>
<clus scale="  300.000">  1  4  2 -1</clus>
</clustering>
</event>
<event>
 6    1  0.9964252E-012  0.3000000E+03  0.7818608E-02  0.1093470E+00
          1   -1    0    0  502    0  0.00000000000E+00  0.00000000000E+00  0.21981730366E+03  0.21981730366E+03  0.00000000000E+00 0.  1.
         13   -1    0    0    0    0 -0.00000000000E+00 -0.00000000000E+00 -0.27500000000E+03  0.27500000000E+03  0.00000000000E+00 0.  1.
    9000005    2    1    2  501    0 -0.11642799908E+00 -0.31806935017E+02 -0.49756528324E+02  0.46255063401E+03  0.45876538911E+03 0.  0.
         13    1    3    3    0    0  0.14329111698E+03 -0.84514546163E+02  0.14105331382E+03  0.21810797798E+03  0.00000000000E+00 0.  1.
          1    1    3    3  501    0 -0.14340754498E+03  0.52707611146E+02 -0.19080984215E+03  0.24444265603E+03  0.00000000000E+00 0.  1.
         21    1    1    2  502  501  0.11642799908E+00  0.31806935017E+02 -0.54261680171E+01  0.32266669646E+02  0.00000000000E+00 0.  1.
<scales pt_clust_4="550.00000" pt_clust_5="550.00000" pt_clust_6="31.80716"></scales>
<mgrwt>
<rscale>  0 0.30000000E+03</rscale>
<asrwt>  1 0.31807164E+02</asrwt>
<pdfrwt beam="1">  1        1 0.79933565E+00 0.30000000E+03</pdfrwt>
<pdfrwt beam="2">0</pdfrwt>
<totfact> 0.10676601E-03</totfact>
</mgrwt>
<clustering>
<clus scale="   31.807">  1  6  2 -1</clus>
<clus scale="  458.765">  4  5 -1 -1</clus>
<clus scale="  300.000">  1  4  2 -1</clus>
</clustering>
</event>
<event>
 6    1  0.9964252E-012  0.3000000E+03  0.7818608E-02  0.1093470E+00
          1   -1    0    0  502    0  0.00000000000E+00  0.00000000000E+00  0.22971215257E+03  0.22971215257E+03  0.00000000000E+00 0.  1.
         13   -1    0    0    0    0 -0.00000000000E+00 -0.00000000000E+00 -0.27500000000E+03  0.27500000000E+03  0.00000000000E+00 0.  1.
    9000005    2    1    2  501    0  0.29614533950E+02  0.24539731851E+02 -0.18844331339E+02  0.45803797766E+03  0.45603120627E+03 0.  0.
         13    1    3    3    0    0 -0.16224710042E+03 -0.12950635791E+03 -0.38756541590E+02  0.21118259362E+03  0.00000000000E+00 0.  1.
          1    1    3    3  501    0  0.19186163437E+03  0.15404608976E+03  0.19912210251E+02  0.24685538404E+03  0.00000000000E+00 0.  1.
         21    1    1    2  502  501 -0.29614533950E+02 -0.24539731851E+02 -0.26443516089E+02  0.46674174911E+02  0.00000000000E+00 0.  1.
<scales pt_clust_4="550.00000" pt_clust_5="550.00000" pt_clust_6="38.46064"></scales>
<mgrwt>
<rscale>  0 0.30000000E+03</rscale>
<asrwt>  1 0.38460636E+02</asrwt>
<pdfrwt beam="1">  1        1 0.83531692E+00 0.30000000E+03</pdfrwt>
<pdfrwt beam="2">0</pdfrwt>
<totfact> 0.52879277E-04</totfact>
</mgrwt>
<clustering>
<clus scale="   38.461">  1  6  2 -1</clus>
<clus scale="  456.031">  4  5 -1 -1</clus>
<clus scale="  300.000">  1  4  2 -1</clus>
</clustering>
</event>
<event>
 6    1  0.9964252E-012  0.3000000E+03  0.7818608E-02  0.1093470E+00
          1   -1    0    0  502    0  0.00000000000E+00  0.00000000000E+00  0.23820339698E+03  0.23820339698E+03  0.00000000000E+00 0.  1.
         13   -1    0    0    0    0 -0.00000000000E+00 -0.00000000000E+00 -0.27500000000E+03  0.27500000000E+03  0.00000000000E+00 0.  1.
    9000005    2    1    2  501    0 -0.81037037818E+01 -0.29939909704E+02 -0.33863399394E+02  0.48204778927E+03  0.47985547107E+03 0.  0.
         13    1    3    3    0    0  0.10956660870E+03  0.17598458325E+03  0.75826397508E+02  0.22073753157E+03  0.00000000000E+00 0.  1.
          3    1    3    3  501    0 -0.11767031248E+03 -0.20592449295E+03 -0.10968979690E+03  0.26131025770E+03  0.00000000000E+00 0.  1.
         21    1    1    2  502  501  0.81037037818E+01  0.29939909704E+02 -0.29332036278E+01  0.31155607707E+02  0.00000000000E+00 0. -1.
<scales pt_clust_4="550.00000" pt_clust_5="550.00000" pt_clust_6="31.01724"></scales>
<mgrwt>
<rscale>  0 0.30000000E+03</rscale>
<asrwt>  1 0.31017240E+02</asrwt>
<pdfrwt beam="1">  1        1 0.86619417E+00 0.30000000E+03</pdfrwt>
<pdfrwt beam="2">0</pdfrwt>
<totfact> 0.28382360E-04</totfact>
</mgrwt>
<clustering>
<clus scale="   31.017">  1  6  2 -1</clus>
<clus scale="  479.855">  4  5 -1 -1</clus>
<clus scale="  300.000">  1  4  2 -1</clus>
</clustering>
</event>
<event>
 6    1  0.9964252E-012  0.3000000E+03  0.7818608E-02  0.1093470E+00
          1   -1    0    0  502    0  0.00000000000E+00  0.00000000000E+00  0.22761800937E+03  0.22761800937E+03  0.00000000000E+00 0.  1.
         13   -1    0    0    0    0 -0.00000000000E+00 -0.00000000000E+00 -0.27500000000E+03  0.27500000000E+03  0.00000000000E+00 0.  1.
    9000005    2    1    2  501    0  0.30602330683E+02  0.25724573539E+01 -0.64100900982E+02  0.46765170926E+03  0.46221864468E+03 0.  0.
         13    1    3    3    0    0  0.55169107576E+02 -0.19523898150E+03  0.83732163276E+02  0.21948340597E+03  0.00000000000E+00 0.  1.
          3    1    3    3  501    0 -0.24566776892E+02  0.19781143886E+03 -0.14783306426E+03  0.24816830329E+03  0.00000000000E+00 0.  1.
         21    1    1    2  502  501 -0.30602330683E+02 -0.25724573539E+01  0.16718910356E+02  0.34966300113E+02  0.00000000000E+00 0.  1.
<scales pt_clust_4="550.00000" pt_clust_5="550.00000" pt_clust_6="30.71026"></scales>
<mgrwt>
<rscale>  0 0.30000000E+03</rscale>
<asrwt>  1 0.30710262E+02</asrwt>
<pdfrwt beam="1">  1        1 0.82770185E+00 0.30000000E+03</pdfrwt>
<pdfrwt beam="2">0</pdfrwt>
<totfact> 0.63371616E-04</totfact>
</mgrwt>
<clustering>
<clus scale="   30.710">  1  6  2 -1</clus>
<clus scale="  462.219">  4  5 -1 -1</clus>
<clus scale="  300.000">  1  4  2 -1</clus>
</clustering>
</event>
<event>
 6    1  0.9964252E-012  0.3000000E+03  0.7818608E-02  0.1093470E+00
          1   -1    0    0  502    0  0.00000000000E+00  0.00000000000E+00  0.22870230137E+03  0.22870230137E+03  0.00000000000E+00 0.  1.
         13   -1    0    0    0    0 -0.00000000000E+00 -0.00000000000E+00 -0.27500000000E+03  0.27500000000E+03  0.00000000000E+00 0.  1.
    9000005    2    1    2  501    0 -0.12129577215E+02 -0.29766390980E+02 -0.32892468667E+02  0.46887609191E+03  0.46661516305E+03 0.  0.
         13    1    3    3    0    0  0.18963205727E+03 -0.12871864826E+03  0.39944118169E+02  0.23264638431E+03  0.00000000000E+00 0.  1.
          3    1    3    3  501    0 -0.20176163449E+03  0.98952257278E+02 -0.72836586836E+02  0.23622970760E+03  0.00000000000E+00 0.  1.
         21    1    1    2  502  501  0.12129577215E+02  0.29766390980E+02 -0.13405229962E+02  0.34826209466E+02  0.00000000000E+00 0.  1.
<scales pt_clust_4="550.00000" pt_clust_5="550.00000" pt_clust_6="32.14290"></scales>
<mgrwt>
<rscale>  0 0.30000000E+03</rscale>
<asrwt>  1 0.32142895E+02</asrwt>
<pdfrwt beam="1">  1        1 0.83164473E+00 0.30000000E+03</pdfrwt>
<pdfrwt beam="2">0</pdfrwt>
<totfact> 0.58259792E-04</totfact>
</mgrwt>
<clustering>
<clus scale="   32.143">  1  6  2 -1</clus>
<clus scale="  466.615">  4  5 -1 -1</clus>
<clus scale="  300.000">  1  4  2 -1</clus>
</clustering>
</event>
<event>
 6    1  0.9964252E-012  0.3000000E+03  0.7818608E-02  0.1093470E+00
          1   -1    0    0  502    0  0.00000000000E+00  0.00000000000E+00  0.23093268223E+03  0.23093268223E+03  0.00000000000E+00 0.  1.
         13   -1    0    0    0    0 -0.00000000000E+00 -0.00000000000E+00 -0.27500000000E+03  0.27500000000E+03  0.00000000000E+00 0.  1.
    9000005    2    1    2  501    0  0.34969635594E+02  0.42200417717E+01 -0.54516956475E+02  0.46919198116E+03  0.46468089317E+03 0.  0.
         13    1    3    3    0    0  0.92221588350E+02  0.11826515039E+01  0.19364849146E+03  0.21448999573E+03  0.00000000000E+00 0.  1.
          1    1    3    3  501    0 -0.57251952756E+02  0.30373902678E+01 -0.24816544794E+03  0.25470198543E+03  0.00000000000E+00 0.  1.
         21    1    1    2  502  501 -0.34969635594E+02 -0.42200417717E+01  0.10449638706E+02  0.36740701072E+02  0.00000000000E+00 0.  1.
<scales pt_clust_4="550.00000" pt_clust_5="550.00000" pt_clust_6="35.22335"></scales>
<mgrwt>
<rscale>  0 0.30000000E+03</rscale>
<asrwt>  1 0.35223347E+02</asrwt>
<pdfrwt beam="1">  1        1 0.83975521E+00 0.30000000E+03</pdfrwt>
<pdfrwt beam="2">0</pdfrwt>
<totfact> 0.49859603E-04</totfact>
</mgrwt>
<clustering>
<clus scale="   35.223">  1  6  2 -1</clus>
<clus scale="  464.681">  4  5 -1 -1</clus>
<clus scale="  300.000">  1  4  2 -1</clus>
</clustering>
</event>
