<event>
 5    1  0.2366700E-004  0.6451522E+03  0.7818608E-02  0.9815919E-01
         13   -1    0    0    0    0  0.00000000000E+00  0.00000000000E+00  0.10000000000E+04  0.10000000000E+04  0.00000000000E+00 0. -1.
          2   -1    0    0  501    0 -0.00000000000E+00 -0.00000000000E+00 -0.10405532952E+03  0.10405532952E+03  0.00000000000E+00 0. -1.
    9000006    2    1    2  501    0  0.00000000000E+00  0.00000000000E+00  0.89594467048E+03  0.11040553295E+04  0.64515216662E+03 0.  0.
         13    1    3    3    0    0  0.97765074590E+02  0.28998672130E+03  0.62253451758E+03  0.69368547190E+03  0.00000000000E+00 0. -1.
          4    1    3    3  501    0 -0.97765074590E+02 -0.28998672130E+03  0.27341015289E+03  0.41036985762E+03  0.00000000000E+00 0. -1.
<mgrwt>
<rscale>  0 0.64515217E+03</rscale>
<asrwt>0</asrwt>
<pdfrwt beam="1">0</pdfrwt>
<pdfrwt beam="2">  1        2 0.37838381E+00 0.64515217E+03</pdfrwt>
<totfact> 0.47941438E+00</totfact>
</mgrwt>
</event>
<event>
 5    1  0.2366700E-004  0.6614174E+03  0.7818608E-02  0.9785588E-01
         13   -1    0    0    0    0  0.00000000000E+00  0.00000000000E+00  0.10000000000E+04  0.10000000000E+04  0.00000000000E+00 0. -1.
          2   -1    0    0  501    0 -0.00000000000E+00 -0.00000000000E+00 -0.10936824694E+03  0.10936824694E+03  0.00000000000E+00 0. -1.
    9000006    2    1    2  501    0  0.00000000000E+00  0.00000000000E+00  0.89063175306E+03  0.11093682469E+04  0.66141740813E+03 0.  0.
         13    1    3    3    0    0 -0.24729467881E+03  0.20558971455E+03  0.31597693881E+03  0.45084721886E+03  0.00000000000E+00 0. -1.
          4    1    3    3  501    0  0.24729467881E+03 -0.20558971455E+03  0.57465481424E+03  0.65852102808E+03  0.00000000000E+00 0. -1.
<mgrwt>
<rscale>  0 0.66141741E+03</rscale>
<asrwt>0</asrwt>
<pdfrwt beam="1">0</pdfrwt>
<pdfrwt beam="2">  1        2 0.39770355E+00 0.66141741E+03</pdfrwt>
<totfact> 0.40589021E+00</totfact>
</mgrwt>
</event>
<event>
 5    1  0.2366700E-004  0.6237212E+03  0.7818608E-02  0.9857379E-01
         13   -1    0    0    0    0  0.00000000000E+00  0.00000000000E+00  0.10000000000E+04  0.10000000000E+04  0.00000000000E+00 0. -1.
          2   -1    0    0  501    0 -0.00000000000E+00 -0.00000000000E+00 -0.97257028766E+02  0.97257028766E+02  0.00000000000E+00 0. -1.
    9000006    2    1    2  501    0  0.00000000000E+00  0.00000000000E+00  0.90274297123E+03  0.10972570288E+04  0.62372118375E+03 0.  0.
         13    1    3    3    0    0  0.25677007708E+03  0.39487221906E+02  0.75488972547E+03  0.79834116191E+03  0.00000000000E+00 0. -1.
          4    1    3    3  501    0 -0.25677007708E+03 -0.39487221906E+02  0.14785324576E+03  0.29891586686E+03  0.00000000000E+00 0. -1.
<mgrwt>
<rscale>  0 0.62372118E+03</rscale>
<asrwt>0</asrwt>
<pdfrwt beam="1">0</pdfrwt>
<pdfrwt beam="2">  1        2 0.35366267E+00 0.62372118E+03</pdfrwt>
<totfact> 0.59118803E+00</totfact>
</mgrwt>
</event>
<event>
 5    1  0.2366700E-004  0.6480629E+03  0.7818608E-02  0.9810421E-01
         13   -1    0    0    0    0  0.00000000000E+00  0.00000000000E+00  0.10000000000E+04  0.10000000000E+04  0.00000000000E+00 0. -1.
          2   -1    0    0  501    0 -0.00000000000E+00 -0.00000000000E+00 -0.10499639507E+03  0.10499639507E+03  0.00000000000E+00 0. -1.
    9000006    2    1    2  501    0  0.00000000000E+00  0.00000000000E+00  0.89500360493E+03  0.11049963951E+04  0.64806294470E+03 0.  0.
         13    1    3    3    0    0  0.22372548930E+03  0.82651297859E+02  0.73502611082E+02  0.24957356718E+03  0.00000000000E+00 0. -1.
          4    1    3    3  501    0 -0.22372548930E+03 -0.82651297859E+02  0.82150099384E+03  0.85542282790E+03  0.00000000000E+00 0. -1.
<mgrwt>
<rscale>  0 0.64806294E+03</rscale>
<asrwt>0</asrwt>
<pdfrwt beam="1">0</pdfrwt>
<pdfrwt beam="2">  1        2 0.38180588E+00 0.64806294E+03</pdfrwt>
<totfact> 0.46557112E+00</totfact>
</mgrwt>
</event>
<event>
 5    1  0.2366700E-004  0.6493827E+03  0.7818608E-02  0.9807938E-01
         13   -1    0    0    0    0  0.00000000000E+00  0.00000000000E+00  0.10000000000E+04  0.10000000000E+04  0.00000000000E+00 0. -1.
          2   -1    0    0  501    0 -0.00000000000E+00 -0.00000000000E+00 -0.10542447747E+03  0.10542447747E+03  0.00000000000E+00 0. -1.
    9000006    2    1    2  501    0  0.00000000000E+00  0.00000000000E+00  0.89457552253E+03  0.11054244775E+04  0.64938271450E+03 0.  0.
         13    1    3    3    0    0 -0.10486992419E+03 -0.20222002853E+03  0.53427162361E+02  0.23397671383E+03  0.00000000000E+00 0. -1.
          4    1    3    3  501    0  0.10486992419E+03  0.20222002853E+03  0.84114836017E+03  0.87144776364E+03  0.00000000000E+00 0. -1.
<mgrwt>
<rscale>  0 0.64938271E+03</rscale>
<asrwt>0</asrwt>
<pdfrwt beam="1">0</pdfrwt>
<pdfrwt beam="2">  1        2 0.38336254E+00 0.64938271E+03</pdfrwt>
<totfact> 0.45939506E+00</totfact>
</mgrwt>
</event>
<event>
 5    1  0.2366700E-004  0.6552311E+03  0.7818608E-02  0.9797013E-01
         13   -1    0    0    0    0  0.00000000000E+00  0.00000000000E+00  0.10000000000E+04  0.10000000000E+04  0.00000000000E+00 0. -1.
          2   -1    0    0  501    0 -0.00000000000E+00 -0.00000000000E+00 -0.10733196161E+03  0.10733196161E+03  0.00000000000E+00 0. -1.
    9000006    2    1    2  501    0  0.00000000000E+00  0.00000000000E+00  0.89266803839E+03  0.11073319616E+04  0.65523113971E+03 0.  0.
         13    1    3    3    0    0 -0.16739455138E+03  0.24319561559E+03  0.68632950685E+03  0.74713669114E+03  0.00000000000E+00 0. -1.
          2    1    3    3  501    0  0.16739455138E+03 -0.24319561559E+03  0.20633853154E+03  0.36019527048E+03  0.00000000000E+00 0. -1.
<mgrwt>
<rscale>  0 0.65523114E+03</rscale>
<asrwt>0</asrwt>
<pdfrwt beam="1">0</pdfrwt>
<pdfrwt beam="2">  1        2 0.39029887E+00 0.65523114E+03</pdfrwt>
<totfact> 0.43276809E+00</totfact>
</mgrwt>
</event>
<event>
 5    1  0.2366700E-004  0.7147788E+03  0.7818608E-02  0.9692287E-01
         13   -1    0    0    0    0  0.00000000000E+00  0.00000000000E+00  0.10000000000E+04  0.10000000000E+04  0.00000000000E+00 0. -1.
          2   -1    0    0  501    0 -0.00000000000E+00 -0.00000000000E+00 -0.12772719507E+03  0.12772719507E+03  0.00000000000E+00 0. -1.
    9000006    2    1    2  501    0  0.00000000000E+00  0.00000000000E+00  0.87227280493E+03  0.11277271951E+04  0.71477883312E+03 0.  0.
         13    1    3    3    0    0 -0.26468667005E+03 -0.12191783478E+03  0.10971729002E+03  0.31138541306E+03  0.00000000000E+00 0. -1.
          4    1    3    3  501    0  0.26468667005E+03  0.12191783478E+03  0.76255551491E+03  0.81634178201E+03  0.00000000000E+00 0. -1.
<mgrwt>
<rscale>  0 0.71477883E+03</rscale>
<asrwt>0</asrwt>
<pdfrwt beam="1">0</pdfrwt>
<pdfrwt beam="2">  1        2 0.46446351E+00 0.71477883E+03</pdfrwt>
<totfact> 0.22283920E+00</totfact>
</mgrwt>
</event>
<event>
 5    1  0.2366700E-004  0.6589210E+03  0.7818608E-02  0.9790182E-01
         13   -1    0    0    0    0  0.00000000000E+00  0.00000000000E+00  0.10000000000E+04  0.10000000000E+04  0.00000000000E+00 0. -1.
          2   -1    0    0  501    0 -0.00000000000E+00 -0.00000000000E+00 -0.10854423020E+03  0.10854423020E+03  0.00000000000E+00 0. -1.
    9000006    2    1    2  501    0  0.00000000000E+00  0.00000000000E+00  0.89145576980E+03  0.11085442302E+04  0.65892102775E+03 0.  0.
         13    1    3    3    0    0  0.30601707771E+03  0.11984589632E+03  0.48463157399E+03  0.58555721602E+03  0.00000000000E+00 0. -1.
          2    1    3    3  501    0 -0.30601707771E+03 -0.11984589632E+03  0.40682419580E+03  0.52298701419E+03  0.00000000000E+00 0. -1.
<mgrwt>
<rscale>  0 0.65892103E+03</rscale>
<asrwt>0</asrwt>
<pdfrwt beam="1">0</pdfrwt>
<pdfrwt beam="2">  1        2 0.39470712E+00 0.65892103E+03</pdfrwt>
<totfact> 0.41657954E+00</totfact>
</mgrwt>
</event>
<event>
 5    1  0.2366700E-004  0.6487931E+03  0.7818608E-02  0.9809047E-01
         13   -1    0    0    0    0  0.00000000000E+00  0.00000000000E+00  0.10000000000E+04  0.10000000000E+04  0.00000000000E+00 0. -1.
          2   -1    0    0  501    0 -0.00000000000E+00 -0.00000000000E+00 -0.10523310563E+03  0.10523310563E+03  0.00000000000E+00 0. -1.
    9000006    2    1    2  501    0  0.00000000000E+00  0.00000000000E+00  0.89476689437E+03  0.11052331056E+04  0.64879305060E+03 0.  0.
         13    1    3    3    0    0  0.32085216524E+03 -0.44562319922E+02  0.47694793599E+03  0.57655116507E+03  0.00000000000E+00 0. -1.
          2    1    3    3  501    0 -0.32085216524E+03  0.44562319922E+02  0.41781895838E+03  0.52868194056E+03  0.00000000000E+00 0. -1.
<mgrwt>
<rscale>  0 0.64879305E+03</rscale>
<asrwt>0</asrwt>
<pdfrwt beam="1">0</pdfrwt>
<pdfrwt beam="2">  1        2 0.38266665E+00 0.64879305E+03</pdfrwt>
<totfact> 0.46214677E+00</totfact>
</mgrwt>
</event>
<event>
 5    1  0.2366700E-004  0.6891909E+03  0.7818608E-02  0.9735898E-01
         13   -1    0    0    0    0  0.00000000000E+00  0.00000000000E+00  0.10000000000E+04  0.10000000000E+04  0.00000000000E+00 0. -1.
          2   -1    0    0  501    0 -0.00000000000E+00 -0.00000000000E+00 -0.11874602529E+03  0.11874602529E+03  0.00000000000E+00 0. -1.
    9000006    2    1    2  501    0  0.00000000000E+00  0.00000000000E+00  0.88125397471E+03  0.11187460253E+04  0.68919090329E+03 0.  0.
         13    1    3    3    0    0 -0.48473425643E+02  0.20850064998E+03  0.87898273727E+03  0.90467278419E+03  0.00000000000E+00 0. -1.
          4    1    3    3  501    0  0.48473425643E+02 -0.20850064998E+03  0.22712374368E+01  0.21407324110E+03  0.00000000000E+00 0. -1.
<mgrwt>
<rscale>  0 0.68919090E+03</rscale>
<asrwt>0</asrwt>
<pdfrwt beam="1">0</pdfrwt>
<pdfrwt beam="2">  1        2 0.43180464E+00 0.68919090E+03</pdfrwt>
<totfact> 0.30038964E+00</totfact>
</mgrwt>
</event>
<event>
 5    1  0.2366700E-004  0.6367160E+03  0.7818608E-02  0.9832030E-01
         13   -1    0    0    0    0  0.00000000000E+00  0.00000000000E+00  0.10000000000E+04  0.10000000000E+04  0.00000000000E+00 0. -1.
          2   -1    0    0  501    0 -0.00000000000E+00 -0.00000000000E+00 -0.10135181161E+03  0.10135181161E+03  0.00000000000E+00 0. -1.
    9000006    2    1    2  501    0  0.00000000000E+00  0.00000000000E+00  0.89864818839E+03  0.11013518116E+04  0.63671598571E+03 0.  0.
         13    1    3    3    0    0  0.89873920142E+02  0.21045552276E+03  0.83215134371E+03  0.86304386182E+03  0.00000000000E+00 0. -1.
          4    1    3    3  501    0 -0.89873920142E+02 -0.21045552276E+03  0.66496844677E+02  0.23830794980E+03  0.00000000000E+00 0. -1.
<mgrwt>
<rscale>  0 0.63671599E+03</rscale>
<asrwt>0</asrwt>
<pdfrwt beam="1">0</pdfrwt>
<pdfrwt beam="2">  1        2 0.36855282E+00 0.63671599E+03</pdfrwt>
<totfact> 0.52130254E+00</totfact>
</mgrwt>
</event>
<event>
 5    1  0.2366700E-004  0.6491363E+03  0.7818608E-02  0.9808401E-01
         13   -1    0    0    0    0  0.00000000000E+00  0.00000000000E+00  0.10000000000E+04  0.10000000000E+04  0.00000000000E+00 0. -1.
          2   -1    0    0  501    0 -0.00000000000E+00 -0.00000000000E+00 -0.10534448914E+03  0.10534448914E+03  0.00000000000E+00 0. -1.
    9000006    2    1    2  501    0  0.00000000000E+00  0.00000000000E+00  0.89465551086E+03  0.11053444891E+04  0.64913631586E+03 0.  0.
         13    1    3    3    0    0  0.14370848439E+02  0.25057359845E+03  0.79775087890E+03  0.83630144943E+03  0.00000000000E+00 0. -1.
          2    1    3    3  501    0 -0.14370848439E+02 -0.25057359845E+03  0.96904631956E+02  0.26904303972E+03  0.00000000000E+00 0. -1.
<mgrwt>
<rscale>  0 0.64913632E+03</rscale>
<asrwt>0</asrwt>
<pdfrwt beam="1">0</pdfrwt>
<pdfrwt beam="2">  1        2 0.38307168E+00 0.64913632E+03</pdfrwt>
<totfact> 0.46054339E+00</totfact>
</mgrwt>
</event>
<event>
 5    1  0.2366700E-004  0.6555012E+03  0.7818608E-02  0.9796511E-01
         13   -1    0    0    0    0  0.00000000000E+00  0.00000000000E+00  0.10000000000E+04  0.10000000000E+04  0.00000000000E+00 0. -1.
          2   -1    0    0  501    0 -0.00000000000E+00 -0.00000000000E+00 -0.10742045442E+03  0.10742045442E+03  0.00000000000E+00 0. -1.
    9000006    2    1    2  501    0  0.00000000000E+00  0.00000000000E+00  0.89257954558E+03  0.11074204544E+04  0.65550119578E+03 0.  0.
         13    1    3    3    0    0  0.25713882190E+03  0.10175267575E+03  0.74348692033E+03  0.79325076833E+03  0.00000000000E+00 0. -1.
          2    1    3    3  501    0 -0.25713882190E+03 -0.10175267575E+03  0.14909262526E+03  0.31416968609E+03  0.00000000000E+00 0. -1.
<mgrwt>
<rscale>  0 0.65550120E+03</rscale>
<asrwt>0</asrwt>
<pdfrwt beam="1">0</pdfrwt>
<pdfrwt beam="2">  1        2 0.39062066E+00 0.65550120E+03</pdfrwt>
<totfact> 0.43156741E+00</totfact>
</mgrwt>
</event>
<event>
 5    1  0.2366700E-004  0.6539646E+03  0.7818608E-02  0.9799368E-01
         13   -1    0    0    0    0  0.00000000000E+00  0.00000000000E+00  0.10000000000E+04  0.10000000000E+04  0.00000000000E+00 0. -1.
          2   -1    0    0  501    0 -0.00000000000E+00 -0.00000000000E+00 -0.10691743935E+03  0.10691743935E+03  0.00000000000E+00 0. -1.
    9000006    2    1    2  501    0  0.00000000000E+00  0.00000000000E+00  0.89308256065E+03  0.11069174394E+04  0.65396464538E+03 0.  0.
         13    1    3    3    0    0  0.25482759396E+03  0.77373557010E+02  0.76766620928E+03  0.81254857014E+03  0.00000000000E+00 0. -1.
          2    1    3    3  501    0 -0.25482759396E+03 -0.77373557010E+02  0.12541635137E+03  0.29436886921E+03  0.00000000000E+00 0. -1.
<mgrwt>
<rscale>  0 0.65396465E+03</rscale>
<asrwt>0</asrwt>
<pdfrwt beam="1">0</pdfrwt>
<pdfrwt beam="2">  1        2 0.38879151E+00 0.65396465E+03</pdfrwt>
<totfact> 0.43843266E+00</totfact>
</mgrwt>
</event>
<event>
 5    1  0.2366700E-004  0.6666712E+03  0.7818608E-02  0.9775990E-01
         13   -1    0    0    0    0  0.00000000000E+00  0.00000000000E+00  0.10000000000E+04  0.10000000000E+04  0.00000000000E+00 0. -1.
          2   -1    0    0  501    0 -0.00000000000E+00 -0.00000000000E+00 -0.11111262947E+03  0.11111262947E+03  0.00000000000E+00 0. -1.
    9000006    2    1    2  501    0  0.00000000000E+00  0.00000000000E+00  0.88888737053E+03  0.11111126295E+04  0.66667122172E+03 0.  0.
         13    1    3    3    0    0 -0.70454081794E+02  0.15265479668E+03  0.92415557568E+03  0.93932464710E+03  0.00000000000E+00 0. -1.
          4    1    3    3  501    0  0.70454081794E+02 -0.15265479668E+03 -0.35268205145E+02  0.17178798237E+03  0.00000000000E+00 0. -1.
<mgrwt>
<rscale>  0 0.66667122E+03</rscale>
<asrwt>0</asrwt>
<pdfrwt beam="1">0</pdfrwt>
<pdfrwt beam="2">  1        2 0.40404678E+00 0.66667122E+03</pdfrwt>
<totfact> 0.38407076E+00</totfact>
</mgrwt>
</event>
<event>
 5    1  0.2366700E-004  0.6445601E+03  0.7818608E-02  0.9817041E-01
         13   -1    0    0    0    0  0.00000000000E+00  0.00000000000E+00  0.10000000000E+04  0.10000000000E+04  0.00000000000E+00 0. -1.
          4   -1    0    0  501    0 -0.00000000000E+00 -0.00000000000E+00 -0.10386443053E+03  0.10386443053E+03  0.00000000000E+00 0. -1.
    9000006    2    1    2  501    0  0.00000000000E+00  0.00000000000E+00  0.89613556947E+03  0.11038644305E+04  0.64456009970E+03 0.  0.
         13    1    3    3    0    0  0.15289748269E+03  0.25076174437E+03  0.22083316190E+03  0.36745935564E+03  0.00000000000E+00 0. -1.
          4    1    3    3  501    0 -0.15289748269E+03 -0.25076174437E+03  0.67530240757E+03  0.73640507489E+03  0.00000000000E+00 0. -1.
<mgrwt>
<rscale>  0 0.64456010E+03</rscale>
<asrwt>0</asrwt>
<pdfrwt beam="1">0</pdfrwt>
<pdfrwt beam="2">  1        4 0.37768963E+00 0.64456010E+03</pdfrwt>
<totfact> 0.45468590E-02</totfact>
</mgrwt>
</event>
<event>
 5    1  0.2366700E-004  0.6495336E+03  0.7818608E-02  0.9807655E-01
         13   -1    0    0    0    0  0.00000000000E+00  0.00000000000E+00  0.10000000000E+04  0.10000000000E+04  0.00000000000E+00 0. -1.
          2   -1    0    0  501    0 -0.00000000000E+00 -0.00000000000E+00 -0.10547346499E+03  0.10547346499E+03  0.00000000000E+00 0. -1.
    9000006    2    1    2  501    0  0.00000000000E+00  0.00000000000E+00  0.89452653501E+03  0.11054734650E+04  0.64953357109E+03 0.  0.
         13    1    3    3    0    0 -0.10151975155E+03 -0.95264995437E+00 -0.77771794447E+02  0.12788909065E+03  0.00000000000E+00 0. -1.
          4    1    3    3  501    0  0.10151975155E+03  0.95264995437E+00  0.97229832945E+03  0.97758437434E+03  0.00000000000E+00 0. -1.
<mgrwt>
<rscale>  0 0.64953357E+03</rscale>
<asrwt>0</asrwt>
<pdfrwt beam="1">0</pdfrwt>
<pdfrwt beam="2">  1        2 0.38354068E+00 0.64953357E+03</pdfrwt>
<totfact> 0.45869306E+00</totfact>
</mgrwt>
</event>
<event>
 5    1  0.2366700E-004  0.6408792E+03  0.7818608E-02  0.9824046E-01
         13   -1    0    0    0    0  0.00000000000E+00  0.00000000000E+00  0.10000000000E+04  0.10000000000E+04  0.00000000000E+00 0. -1.
          2   -1    0    0  501    0 -0.00000000000E+00 -0.00000000000E+00 -0.10268152577E+03  0.10268152577E+03  0.00000000000E+00 0. -1.
    9000006    2    1    2  501    0  0.00000000000E+00  0.00000000000E+00  0.89731847423E+03  0.11026815258E+04  0.64087916418E+03 0.  0.
         13    1    3    3    0    0 -0.24075091780E+03 -0.82627617368E+02  0.11372883037E+03  0.27878768701E+03  0.00000000000E+00 0. -1.
          2    1    3    3  501    0  0.24075091780E+03  0.82627617368E+02  0.78358964386E+03  0.82389383876E+03  0.00000000000E+00 0. -1.
<mgrwt>
<rscale>  0 0.64087916E+03</rscale>
<asrwt>0</asrwt>
<pdfrwt beam="1">0</pdfrwt>
<pdfrwt beam="2">  1        2 0.37338815E+00 0.64087916E+03</pdfrwt>
<totfact> 0.50029851E+00</totfact>
</mgrwt>
</event>
<event>
 5    1  0.2366700E-004  0.6599180E+03  0.7818608E-02  0.9788345E-01
         13   -1    0    0    0    0  0.00000000000E+00  0.00000000000E+00  0.10000000000E+04  0.10000000000E+04  0.00000000000E+00 0. -1.
          2   -1    0    0  501    0 -0.00000000000E+00 -0.00000000000E+00 -0.10887295538E+03  0.10887295538E+03  0.00000000000E+00 0. -1.
    9000006    2    1    2  501    0  0.00000000000E+00  0.00000000000E+00  0.89112704462E+03  0.11088729554E+04  0.65991804151E+03 0.  0.
         13    1    3    3    0    0 -0.67430767680E+02  0.31693449036E+03  0.55021079873E+03  0.63853449606E+03  0.00000000000E+00 0. -1.
          2    1    3    3  501    0  0.67430767680E+02 -0.31693449036E+03  0.34091624589E+03  0.47033845932E+03  0.00000000000E+00 0. -1.
<mgrwt>
<rscale>  0 0.65991804E+03</rscale>
<asrwt>0</asrwt>
<pdfrwt beam="1">0</pdfrwt>
<pdfrwt beam="2">  1        2 0.39590249E+00 0.65991804E+03</pdfrwt>
<totfact> 0.41228523E+00</totfact>
</mgrwt>
</event>
<event>
 5    1  0.2366700E-004  0.6480522E+03  0.7818608E-02  0.9810441E-01
         13   -1    0    0    0    0  0.00000000000E+00  0.00000000000E+00  0.10000000000E+04  0.10000000000E+04  0.00000000000E+00 0. -1.
          2   -1    0    0  501    0 -0.00000000000E+00 -0.00000000000E+00 -0.10499292864E+03  0.10499292864E+03  0.00000000000E+00 0. -1.
    9000006    2    1    2  501    0  0.00000000000E+00  0.00000000000E+00  0.89500707136E+03  0.11049929286E+04  0.64805224679E+03 0.  0.
         13    1    3    3    0    0  0.91238416910E+02 -0.28732433528E+03  0.65006756290E+03  0.71656650682E+03  0.00000000000E+00 0. -1.
          4    1    3    3  501    0 -0.91238416910E+02  0.28732433528E+03  0.24493950846E+03  0.38842642182E+03  0.00000000000E+00 0. -1.
<mgrwt>
<rscale>  0 0.64805225E+03</rscale>
<asrwt>0</asrwt>
<pdfrwt beam="1">0</pdfrwt>
<pdfrwt beam="2">  1        2 0.38179327E+00 0.64805225E+03</pdfrwt>
<totfact> 0.46562144E+00</totfact>
</mgrwt>
</event>
<event>
 5    1  0.2366700E-004  0.6830128E+03  0.7818608E-02  0.9746732E-01
         13   -1    0    0    0    0  0.00000000000E+00  0.00000000000E+00  0.10000000000E+04  0.10000000000E+04  0.00000000000E+00 0. -1.
          2   -1    0    0  501    0 -0.00000000000E+00 -0.00000000000E+00 -0.11662663775E+03  0.11662663775E+03  0.00000000000E+00 0. -1.
    9000006    2    1    2  501    0  0.00000000000E+00  0.00000000000E+00  0.88337336225E+03  0.11166266378E+04  0.68301284835E+03 0.  0.
         13    1    3    3    0    0  0.28004578784E+03  0.15919250465E+03  0.25630008353E+03  0.41165231645E+03  0.00000000000E+00 0. -1.
          4    1    3    3  501    0 -0.28004578784E+03 -0.15919250465E+03  0.62707327871E+03  0.70497432130E+03  0.00000000000E+00 0. -1.
<mgrwt>
<rscale>  0 0.68301285E+03</rscale>
<asrwt>0</asrwt>
<pdfrwt beam="1">0</pdfrwt>
<pdfrwt beam="2">  1        2 0.42409776E+00 0.68301285E+03</pdfrwt>
<totfact> 0.32182071E+00</totfact>
</mgrwt>
</event>
<event>
 5    1  0.2366700E-004  0.5854957E+03  0.7818608E-02  0.9935963E-01
         13   -1    0    0    0    0  0.00000000000E+00  0.00000000000E+00  0.10000000000E+04  0.10000000000E+04  0.00000000000E+00 0. -1.
          2   -1    0    0  501    0 -0.00000000000E+00 -0.00000000000E+00 -0.85701289616E+02  0.85701289616E+02  0.00000000000E+00 0. -1.
    9000006    2    1    2  501    0  0.00000000000E+00  0.00000000000E+00  0.91429871038E+03  0.10857012896E+04  0.58549565196E+03 0.  0.
         13    1    3    3    0    0  0.71620034134E+02 -0.28292303416E+03  0.49969466207E+03  0.57867920980E+03  0.00000000000E+00 0. -1.
          2    1    3    3  501    0 -0.71620034134E+02  0.28292303416E+03  0.41460404831E+03  0.50702207982E+03  0.00000000000E+00 0. -1.
<mgrwt>
<rscale>  0 0.58549565E+03</rscale>
<asrwt>0</asrwt>
<pdfrwt beam="1">0</pdfrwt>
<pdfrwt beam="2">  1        2 0.31164171E+00 0.58549565E+03</pdfrwt>
<totfact> 0.83874702E+00</totfact>
</mgrwt>
</event>
<event>
 5    1  0.2366700E-004  0.6538121E+03  0.7818608E-02  0.9799652E-01
         13   -1    0    0    0    0  0.00000000000E+00  0.00000000000E+00  0.10000000000E+04  0.10000000000E+04  0.00000000000E+00 0. -1.
          2   -1    0    0  501    0 -0.00000000000E+00 -0.00000000000E+00 -0.10686755777E+03  0.10686755777E+03  0.00000000000E+00 0. -1.
    9000006    2    1    2  501    0  0.00000000000E+00  0.00000000000E+00  0.89313244223E+03  0.11068675578E+04  0.65381207628E+03 0.  0.
         13    1    3    3    0    0  0.27396647155E+03  0.17464805307E+03  0.38533899746E+03  0.50402947626E+03  0.00000000000E+00 0. -1.
          4    1    3    3  501    0 -0.27396647155E+03 -0.17464805307E+03  0.50779344476E+03  0.60283808151E+03  0.00000000000E+00 0. -1.
<mgrwt>
<rscale>  0 0.65381208E+03</rscale>
<asrwt>0</asrwt>
<pdfrwt beam="1">0</pdfrwt>
<pdfrwt beam="2">  1        2 0.38861012E+00 0.65381208E+03</pdfrwt>
<totfact> 0.43911881E+00</totfact>
</mgrwt>
</event>
<event>
 5    1  0.2366700E-004  0.6405108E+03  0.7818608E-02  0.9824750E-01
         13   -1    0    0    0    0  0.00000000000E+00  0.00000000000E+00  0.10000000000E+04  0.10000000000E+04  0.00000000000E+00 0. -1.
          2   -1    0    0  501    0 -0.00000000000E+00 -0.00000000000E+00 -0.10256351853E+03  0.10256351853E+03  0.00000000000E+00 0. -1.
    9000006    2    1    2  501    0  0.00000000000E+00  0.00000000000E+00  0.89743648147E+03  0.11025635185E+04  0.64051079157E+03 0.  0.
         13    1    3    3    0    0 -0.17454008248E+03 -0.18758053726E+03  0.77944229310E+03  0.82047607315E+03  0.00000000000E+00 0. -1.
          4    1    3    3  501    0  0.17454008248E+03  0.18758053726E+03  0.11799418837E+03  0.28208744538E+03  0.00000000000E+00 0. -1.
<mgrwt>
<rscale>  0 0.64051079E+03</rscale>
<asrwt>0</asrwt>
<pdfrwt beam="1">0</pdfrwt>
<pdfrwt beam="2">  1        2 0.37295904E+00 0.64051079E+03</pdfrwt>
<totfact> 0.50213072E+00</totfact>
</mgrwt>
</event>
<event>
 5    1  0.2366700E-004  0.6523978E+03  0.7818608E-02  0.9802290E-01
         13   -1    0    0    0    0  0.00000000000E+00  0.00000000000E+00  0.10000000000E+04  0.10000000000E+04  0.00000000000E+00 0. -1.
          2   -1    0    0  501    0 -0.00000000000E+00 -0.00000000000E+00 -0.10640572943E+03  0.10640572943E+03  0.00000000000E+00 0. -1.
    9000006    2    1    2  501    0  0.00000000000E+00  0.00000000000E+00  0.89359427057E+03  0.11064057294E+04  0.65239782166E+03 0.  0.
         13    1    3    3    0    0  0.14827181984E+02 -0.15325267629E+03 -0.40903542485E+02  0.15930890717E+03  0.00000000000E+00 0. -1.
          2    1    3    3  501    0 -0.14827181984E+02  0.15325267629E+03  0.93449781306E+03  0.94709682226E+03  0.00000000000E+00 0. -1.
<mgrwt>
<rscale>  0 0.65239782E+03</rscale>
<asrwt>0</asrwt>
<pdfrwt beam="1">0</pdfrwt>
<pdfrwt beam="2">  1        2 0.38693074E+00 0.65239782E+03</pdfrwt>
<totfact> 0.44551779E+00</totfact>
</mgrwt>
</event>
<event>
 5    1  0.2366700E-004  0.6303119E+03  0.7818608E-02  0.9844440E-01
         13   -1    0    0    0    0  0.00000000000E+00  0.00000000000E+00  0.10000000000E+04  0.10000000000E+04  0.00000000000E+00 0. -1.
          2   -1    0    0  501    0 -0.00000000000E+00 -0.00000000000E+00 -0.99323282295E+02  0.99323282295E+02  0.00000000000E+00 0. -1.
    9000006    2    1    2  501    0  0.00000000000E+00  0.00000000000E+00  0.90067671770E+03  0.10993232823E+04  0.63031193006E+03 0.  0.
         13    1    3    3    0    0  0.25054282583E+03  0.48442664275E+02  0.77290091594E+03  0.81393748234E+03  0.00000000000E+00 0. -1.
          2    1    3    3  501    0 -0.25054282583E+03 -0.48442664275E+02  0.12777580177E+03  0.28538579996E+03  0.00000000000E+00 0. -1.
<mgrwt>
<rscale>  0 0.63031193E+03</rscale>
<asrwt>0</asrwt>
<pdfrwt beam="1">0</pdfrwt>
<pdfrwt beam="2">  1        2 0.36117633E+00 0.63031193E+03</pdfrwt>
<totfact> 0.55490884E+00</totfact>
</mgrwt>
</event>
<event>
 5    1  0.2366700E-004  0.6502395E+03  0.7818608E-02  0.9806330E-01
         13   -1    0    0    0    0  0.00000000000E+00  0.00000000000E+00  0.10000000000E+04  0.10000000000E+04  0.00000000000E+00 0. -1.
          2   -1    0    0  501    0 -0.00000000000E+00 -0.00000000000E+00 -0.10570286127E+03  0.10570286127E+03  0.00000000000E+00 0. -1.
    9000006    2    1    2  501    0  0.00000000000E+00  0.00000000000E+00  0.89429713873E+03  0.11057028613E+04  0.65023952899E+03 0.  0.
         13    1    3    3    0    0 -0.26244286153E+02  0.19208286448E+03  0.33387805742E+01  0.19389620119E+03  0.00000000000E+00 0. -1.
          2    1    3    3  501    0  0.26244286153E+02 -0.19208286448E+03  0.89095835816E+03  0.91180666007E+03  0.00000000000E+00 0. -1.
<mgrwt>
<rscale>  0 0.65023953E+03</rscale>
<asrwt>0</asrwt>
<pdfrwt beam="1">0</pdfrwt>
<pdfrwt beam="2">  1        2 0.38437485E+00 0.65023953E+03</pdfrwt>
<totfact> 0.45541875E+00</totfact>
</mgrwt>
</event>
<event>
 5    1  0.2366700E-004  0.6382872E+03  0.7818608E-02  0.9829009E-01
         13   -1    0    0    0    0  0.00000000000E+00  0.00000000000E+00  0.10000000000E+04  0.10000000000E+04  0.00000000000E+00 0. -1.
          2   -1    0    0  501    0 -0.00000000000E+00 -0.00000000000E+00 -0.10185263258E+03  0.10185263258E+03  0.00000000000E+00 0. -1.
    9000006    2    1    2  501    0  0.00000000000E+00  0.00000000000E+00  0.89814736742E+03  0.11018526326E+04  0.63828718484E+03 0.  0.
         13    1    3    3    0    0 -0.13125412495E+03  0.51610655222E+02 -0.45136716698E+02  0.14808318015E+03  0.00000000000E+00 0. -1.
          2    1    3    3  501    0  0.13125412495E+03 -0.51610655222E+02  0.94328408412E+03  0.95376945243E+03  0.00000000000E+00 0. -1.
<mgrwt>
<rscale>  0 0.63828718E+03</rscale>
<asrwt>0</asrwt>
<pdfrwt beam="1">0</pdfrwt>
<pdfrwt beam="2">  1        2 0.37037399E+00 0.63828718E+03</pdfrwt>
<totfact> 0.51329860E+00</totfact>
</mgrwt>
</event>
<event>
 5    1  0.2366700E-004  0.6617702E+03  0.7818608E-02  0.9784941E-01
         13   -1    0    0    0    0  0.00000000000E+00  0.00000000000E+00  0.10000000000E+04  0.10000000000E+04  0.00000000000E+00 0. -1.
          2   -1    0    0  501    0 -0.00000000000E+00 -0.00000000000E+00 -0.10948493775E+03  0.10948493775E+03  0.00000000000E+00 0. -1.
    9000006    2    1    2  501    0  0.00000000000E+00  0.00000000000E+00  0.89051506225E+03  0.11094849378E+04  0.66177016479E+03 0.  0.
         13    1    3    3    0    0 -0.45667974140E+02  0.13787862801E+03  0.94369764673E+03  0.95480957702E+03  0.00000000000E+00 0. -1.
          2    1    3    3  501    0  0.45667974140E+02 -0.13787862801E+03 -0.53182584483E+02  0.15467536073E+03  0.00000000000E+00 0. -1.
<mgrwt>
<rscale>  0 0.66177016E+03</rscale>
<asrwt>0</asrwt>
<pdfrwt beam="1">0</pdfrwt>
<pdfrwt beam="2">  1        2 0.39812789E+00 0.66177016E+03</pdfrwt>
<totfact> 0.40439660E+00</totfact>
</mgrwt>
</event>
<event>
 5    1  0.2366700E-004  0.6738477E+03  0.7818608E-02  0.9763032E-01
         13   -1    0    0    0    0  0.00000000000E+00  0.00000000000E+00  0.10000000000E+04  0.10000000000E+04  0.00000000000E+00 0. -1.
          2   -1    0    0  501    0 -0.00000000000E+00 -0.00000000000E+00 -0.11351769749E+03  0.11351769749E+03  0.00000000000E+00 0. -1.
    9000006    2    1    2  501    0  0.00000000000E+00  0.00000000000E+00  0.88648230251E+03  0.11135176975E+04  0.67384774983E+03 0.  0.
         13    1    3    3    0    0 -0.17645009429E+03  0.58484268942E+02  0.90759195786E+03  0.92643305611E+03  0.00000000000E+00 0. -1.
          4    1    3    3  501    0  0.17645009429E+03 -0.58484268942E+02 -0.21109655348E+02  0.18708464137E+03  0.00000000000E+00 0. -1.
<mgrwt>
<rscale>  0 0.67384775E+03</rscale>
<asrwt>0</asrwt>
<pdfrwt beam="1">0</pdfrwt>
<pdfrwt beam="2">  1        2 0.41279250E+00 0.67384775E+03</pdfrwt>
<totfact> 0.35570947E+00</totfact>
</mgrwt>
</event>
<event>
 5    1  0.2366700E-004  0.5779203E+03  0.7818608E-02  0.9952304E-01
         13   -1    0    0    0    0  0.00000000000E+00  0.00000000000E+00  0.10000000000E+04  0.10000000000E+04  0.00000000000E+00 0. -1.
          2   -1    0    0  501    0 -0.00000000000E+00 -0.00000000000E+00 -0.83497980239E+02  0.83497980239E+02  0.00000000000E+00 0. -1.
    9000006    2    1    2  501    0  0.00000000000E+00  0.00000000000E+00  0.91650201976E+03  0.10834979802E+04  0.57792034136E+03 0.  0.
         13    1    3    3    0    0 -0.16179347513E+03 -0.23778793563E+03  0.51053635077E+03  0.58597576433E+03  0.00000000000E+00 0. -1.
          4    1    3    3  501    0  0.16179347513E+03  0.23778793563E+03  0.40596566899E+03  0.49752221591E+03  0.00000000000E+00 0. -1.
<mgrwt>
<rscale>  0 0.57792034E+03</rscale>
<asrwt>0</asrwt>
<pdfrwt beam="1">0</pdfrwt>
<pdfrwt beam="2">  1        2 0.30362966E+00 0.57792034E+03</pdfrwt>
<totfact> 0.89606892E+00</totfact>
</mgrwt>
</event>
<event>
 5    1  0.2366700E-004  0.6551541E+03  0.7818608E-02  0.9797156E-01
         13   -1    0    0    0    0  0.00000000000E+00  0.00000000000E+00  0.10000000000E+04  0.10000000000E+04  0.00000000000E+00 0. -1.
          2   -1    0    0  501    0 -0.00000000000E+00 -0.00000000000E+00 -0.10730673414E+03  0.10730673414E+03  0.00000000000E+00 0. -1.
    9000006    2    1    2  501    0  0.00000000000E+00  0.00000000000E+00  0.89269326586E+03  0.11073067341E+04  0.65515413190E+03 0.  0.
         13    1    3    3    0    0 -0.71816149833E+01 -0.27651764672E+03  0.14976004163E+03  0.31454992388E+03  0.00000000000E+00 0. -1.
          2    1    3    3  501    0  0.71816149833E+01  0.27651764672E+03  0.74293322424E+03  0.79275681026E+03  0.00000000000E+00 0. -1.
<mgrwt>
<rscale>  0 0.65515413E+03</rscale>
<asrwt>0</asrwt>
<pdfrwt beam="1">0</pdfrwt>
<pdfrwt beam="2">  1        2 0.39020713E+00 0.65515413E+03</pdfrwt>
<totfact> 0.43311093E+00</totfact>
</mgrwt>
</event>
<event>
 5    1  0.2366700E-004  0.6488492E+03  0.7818608E-02  0.9808941E-01
         13   -1    0    0    0    0  0.00000000000E+00  0.00000000000E+00  0.10000000000E+04  0.10000000000E+04  0.00000000000E+00 0. -1.
          2   -1    0    0  501    0 -0.00000000000E+00 -0.00000000000E+00 -0.10525133356E+03  0.10525133356E+03  0.00000000000E+00 0. -1.
    9000006    2    1    2  501    0  0.00000000000E+00  0.00000000000E+00  0.89474866644E+03  0.11052513336E+04  0.64884923846E+03 0.  0.
         13    1    3    3    0    0 -0.29909431545E+03  0.80753544228E+02  0.28334465231E+03  0.41983655919E+03  0.00000000000E+00 0. -1.
          2    1    3    3  501    0  0.29909431545E+03 -0.80753544228E+02  0.61140401413E+03  0.68541477438E+03  0.00000000000E+00 0. -1.
<mgrwt>
<rscale>  0 0.64884924E+03</rscale>
<asrwt>0</asrwt>
<pdfrwt beam="1">0</pdfrwt>
<pdfrwt beam="2">  1        2 0.38273293E+00 0.64884924E+03</pdfrwt>
<totfact> 0.46188403E+00</totfact>
</mgrwt>
</event>
<event>
 5    1  0.2366700E-004  0.6285037E+03  0.7818608E-02  0.9847973E-01
         13   -1    0    0    0    0  0.00000000000E+00  0.00000000000E+00  0.10000000000E+04  0.10000000000E+04  0.00000000000E+00 0. -1.
          2   -1    0    0  501    0 -0.00000000000E+00 -0.00000000000E+00 -0.98754219809E+02  0.98754219809E+02  0.00000000000E+00 0. -1.
    9000006    2    1    2  501    0  0.00000000000E+00  0.00000000000E+00  0.90124578019E+03  0.10987542198E+04  0.62850368275E+03 0.  0.
         13    1    3    3    0    0 -0.21736537392E+03  0.20777150595E+03  0.29099416231E+03  0.41844271646E+03  0.00000000000E+00 0. -1.
          2    1    3    3  501    0  0.21736537392E+03 -0.20777150595E+03  0.61025161788E+03  0.68031150335E+03  0.00000000000E+00 0. -1.
<mgrwt>
<rscale>  0 0.62850368E+03</rscale>
<asrwt>0</asrwt>
<pdfrwt beam="1">0</pdfrwt>
<pdfrwt beam="2">  1        2 0.35910701E+00 0.62850368E+03</pdfrwt>
<totfact> 0.56468871E+00</totfact>
</mgrwt>
</event>
<event>
 5    1  0.2366700E-004  0.6672292E+03  0.7818608E-02  0.9774976E-01
         13   -1    0    0    0    0  0.00000000000E+00  0.00000000000E+00  0.10000000000E+04  0.10000000000E+04  0.00000000000E+00 0. -1.
          2   -1    0    0  501    0 -0.00000000000E+00 -0.00000000000E+00 -0.11129869657E+03  0.11129869657E+03  0.00000000000E+00 0. -1.
    9000006    2    1    2  501    0  0.00000000000E+00  0.00000000000E+00  0.88870130343E+03  0.11112986966E+04  0.66722918572E+03 0.  0.
         13    1    3    3    0    0 -0.14763351414E+03  0.29904592202E+03  0.45873409517E+03  0.56715173282E+03  0.00000000000E+00 0. -1.
          2    1    3    3  501    0  0.14763351414E+03 -0.29904592202E+03  0.42996720826E+03  0.54414696375E+03  0.00000000000E+00 0. -1.
<mgrwt>
<rscale>  0 0.66722919E+03</rscale>
<asrwt>0</asrwt>
<pdfrwt beam="1">0</pdfrwt>
<pdfrwt beam="2">  1        2 0.40472339E+00 0.66722919E+03</pdfrwt>
<totfact> 0.38180659E+00</totfact>
</mgrwt>
</event>
<event>
 5    1  0.2366700E-004  0.6592651E+03  0.7818608E-02  0.9789548E-01
         13   -1    0    0    0    0  0.00000000000E+00  0.00000000000E+00  0.10000000000E+04  0.10000000000E+04  0.00000000000E+00 0. -1.
          2   -1    0    0  501    0 -0.00000000000E+00 -0.00000000000E+00 -0.10865760590E+03  0.10865760590E+03  0.00000000000E+00 0. -1.
    9000006    2    1    2  501    0  0.00000000000E+00  0.00000000000E+00  0.89134239410E+03  0.11086576059E+04  0.65926506322E+03 0.  0.
         13    1    3    3    0    0 -0.53407351029E+02 -0.58728454923E+02 -0.92343969578E+02  0.12177349990E+03  0.00000000000E+00 0. -1.
          2    1    3    3  501    0  0.53407351029E+02  0.58728454923E+02  0.98368636368E+03  0.98688410599E+03  0.00000000000E+00 0. -1.
<mgrwt>
<rscale>  0 0.65926506E+03</rscale>
<asrwt>0</asrwt>
<pdfrwt beam="1">0</pdfrwt>
<pdfrwt beam="2">  1        2 0.39511940E+00 0.65926506E+03</pdfrwt>
<totfact> 0.41509392E+00</totfact>
</mgrwt>
</event>
<event>
 5    1  0.2366700E-004  0.6483776E+03  0.7818608E-02  0.9809828E-01
         13   -1    0    0    0    0  0.00000000000E+00  0.00000000000E+00  0.10000000000E+04  0.10000000000E+04  0.00000000000E+00 0. -1.
          2   -1    0    0  501    0 -0.00000000000E+00 -0.00000000000E+00 -0.10509838534E+03  0.10509838534E+03  0.00000000000E+00 0. -1.
    9000006    2    1    2  501    0  0.00000000000E+00  0.00000000000E+00  0.89490161466E+03  0.11050983853E+04  0.64837762249E+03 0.  0.
         13    1    3    3    0    0  0.14772343771E+03 -0.16540389724E+03  0.85049035462E+03  0.87892804402E+03  0.00000000000E+00 0. -1.
          4    1    3    3  501    0 -0.14772343771E+03  0.16540389724E+03  0.44411260044E+02  0.22617034131E+03  0.00000000000E+00 0. -1.
<mgrwt>
<rscale>  0 0.64837762E+03</rscale>
<asrwt>0</asrwt>
<pdfrwt beam="1">0</pdfrwt>
<pdfrwt beam="2">  1        2 0.38217675E+00 0.64837762E+03</pdfrwt>
<totfact> 0.46409287E+00</totfact>
</mgrwt>
</event>
<event>
 5    1  0.2366700E-004  0.6473605E+03  0.7818608E-02  0.9811745E-01
         13   -1    0    0    0    0  0.00000000000E+00  0.00000000000E+00  0.10000000000E+04  0.10000000000E+04  0.00000000000E+00 0. -1.
          2   -1    0    0  501    0 -0.00000000000E+00 -0.00000000000E+00 -0.10476889987E+03  0.10476889987E+03  0.00000000000E+00 0. -1.
    9000006    2    1    2  501    0  0.00000000000E+00  0.00000000000E+00  0.89523110013E+03  0.11047688999E+04  0.64736048649E+03 0.  0.
         13    1    3    3    0    0  0.39236141279E+02 -0.12724468666E+03 -0.55862150381E+02  0.14439967074E+03  0.00000000000E+00 0. -1.
          4    1    3    3  501    0 -0.39236141279E+02  0.12724468666E+03  0.95109325052E+03  0.96036922912E+03  0.00000000000E+00 0. -1.
<mgrwt>
<rscale>  0 0.64736049E+03</rscale>
<asrwt>0</asrwt>
<pdfrwt beam="1">0</pdfrwt>
<pdfrwt beam="2">  1        2 0.38097862E+00 0.64736049E+03</pdfrwt>
<totfact> 0.46888387E+00</totfact>
</mgrwt>
</event>
<event>
 5    1  0.2366700E-004  0.6502830E+03  0.7818608E-02  0.9806248E-01
         13   -1    0    0    0    0  0.00000000000E+00  0.00000000000E+00  0.10000000000E+04  0.10000000000E+04  0.00000000000E+00 0. -1.
          2   -1    0    0  501    0 -0.00000000000E+00 -0.00000000000E+00 -0.10571701100E+03  0.10571701100E+03  0.00000000000E+00 0. -1.
    9000006    2    1    2  501    0  0.00000000000E+00  0.00000000000E+00  0.89428298900E+03  0.11057170110E+04  0.65028304915E+03 0.  0.
         13    1    3    3    0    0  0.19186604232E+03  0.23347674390E+03  0.24314727227E+03  0.38787183985E+03  0.00000000000E+00 0. -1.
          4    1    3    3  501    0 -0.19186604232E+03 -0.23347674390E+03  0.65113571673E+03  0.71784517115E+03  0.00000000000E+00 0. -1.
<mgrwt>
<rscale>  0 0.65028305E+03</rscale>
<asrwt>0</asrwt>
<pdfrwt beam="1">0</pdfrwt>
<pdfrwt beam="2">  1        2 0.38442631E+00 0.65028305E+03</pdfrwt>
<totfact> 0.45521748E+00</totfact>
</mgrwt>
</event>
<event>
 5    1  0.2366700E-004  0.6307082E+03  0.7818608E-02  0.9843668E-01
         13   -1    0    0    0    0  0.00000000000E+00  0.00000000000E+00  0.10000000000E+04  0.10000000000E+04  0.00000000000E+00 0. -1.
          2   -1    0    0  501    0 -0.00000000000E+00 -0.00000000000E+00 -0.99448192626E+02  0.99448192626E+02  0.00000000000E+00 0. -1.
    9000006    2    1    2  501    0  0.00000000000E+00  0.00000000000E+00  0.90055180737E+03  0.10994481926E+04  0.63070815002E+03 0.  0.
         13    1    3    3    0    0 -0.11754355136E+03  0.22852453164E+03  0.76889599301E+03  0.81070401263E+03  0.00000000000E+00 0. -1.
          2    1    3    3  501    0  0.11754355136E+03 -0.22852453164E+03  0.13165581436E+03  0.28874417999E+03  0.00000000000E+00 0. -1.
<mgrwt>
<rscale>  0 0.63070815E+03</rscale>
<asrwt>0</asrwt>
<pdfrwt beam="1">0</pdfrwt>
<pdfrwt beam="2">  1        2 0.36163055E+00 0.63070815E+03</pdfrwt>
<totfact> 0.55278317E+00</totfact>
</mgrwt>
</event>
<event>
 5    1  0.2366700E-004  0.6479956E+03  0.7818608E-02  0.9810548E-01
         13   -1    0    0    0    0  0.00000000000E+00  0.00000000000E+00  0.10000000000E+04  0.10000000000E+04  0.00000000000E+00 0. -1.
          2   -1    0    0  501    0 -0.00000000000E+00 -0.00000000000E+00 -0.10497458467E+03  0.10497458467E+03  0.00000000000E+00 0. -1.
    9000006    2    1    2  501    0  0.00000000000E+00  0.00000000000E+00  0.89502541533E+03  0.11049745847E+04  0.64799563168E+03 0.  0.
         13    1    3    3    0    0 -0.20431404275E+03 -0.24306459273E+03  0.55736324490E+03  0.64146583001E+03  0.00000000000E+00 0. -1.
          4    1    3    3  501    0  0.20431404275E+03  0.24306459273E+03  0.33766217043E+03  0.46350875466E+03  0.00000000000E+00 0. -1.
<mgrwt>
<rscale>  0 0.64799563E+03</rscale>
<asrwt>0</asrwt>
<pdfrwt beam="1">0</pdfrwt>
<pdfrwt beam="2">  1        2 0.38172657E+00 0.64799563E+03</pdfrwt>
<totfact> 0.46588780E+00</totfact>
</mgrwt>
</event>
<event>
 5    1  0.2366700E-004  0.6565114E+03  0.7818608E-02  0.9794637E-01
         13   -1    0    0    0    0  0.00000000000E+00  0.00000000000E+00  0.10000000000E+04  0.10000000000E+04  0.00000000000E+00 0. -1.
          2   -1    0    0  501    0 -0.00000000000E+00 -0.00000000000E+00 -0.10775179699E+03  0.10775179699E+03  0.00000000000E+00 0. -1.
    9000006    2    1    2  501    0  0.00000000000E+00  0.00000000000E+00  0.89224820301E+03  0.11077517970E+04  0.65651137687E+03 0.  0.
         13    1    3    3    0    0 -0.14415529608E+03 -0.16308736183E+03  0.86071866161E+03  0.88781464925E+03  0.00000000000E+00 0. -1.
          2    1    3    3  501    0  0.14415529608E+03  0.16308736183E+03  0.31529541398E+02  0.21993714774E+03  0.00000000000E+00 0. -1.
<mgrwt>
<rscale>  0 0.65651138E+03</rscale>
<asrwt>0</asrwt>
<pdfrwt beam="1">0</pdfrwt>
<pdfrwt beam="2">  1        2 0.39182554E+00 0.65651138E+03</pdfrwt>
<totfact> 0.42709840E+00</totfact>
</mgrwt>
</event>
<event>
 5    1  0.2366700E-004  0.6473610E+03  0.7818608E-02  0.9811744E-01
         13   -1    0    0    0    0  0.00000000000E+00  0.00000000000E+00  0.10000000000E+04  0.10000000000E+04  0.00000000000E+00 0. -1.
          2   -1    0    0  501    0 -0.00000000000E+00 -0.00000000000E+00 -0.10476905079E+03  0.10476905079E+03  0.00000000000E+00 0. -1.
    9000006    2    1    2  501    0  0.00000000000E+00  0.00000000000E+00  0.89523094921E+03  0.11047690508E+04  0.64736095275E+03 0.  0.
         13    1    3    3    0    0  0.82230291458E+02 -0.47540984164E+02  0.97568095545E+03  0.98029347281E+03  0.00000000000E+00 0. -1.
          4    1    3    3  501    0 -0.82230291458E+02  0.47540984164E+02 -0.80450006238E+02  0.12447557798E+03  0.00000000000E+00 0. -1.
<mgrwt>
<rscale>  0 0.64736095E+03</rscale>
<asrwt>0</asrwt>
<pdfrwt beam="1">0</pdfrwt>
<pdfrwt beam="2">  1        2 0.38097917E+00 0.64736095E+03</pdfrwt>
<totfact> 0.46888166E+00</totfact>
</mgrwt>
</event>
<event>
 5    1  0.2366700E-004  0.6416514E+03  0.7818608E-02  0.9822572E-01
         13   -1    0    0    0    0  0.00000000000E+00  0.00000000000E+00  0.10000000000E+04  0.10000000000E+04  0.00000000000E+00 0. -1.
          2   -1    0    0  501    0 -0.00000000000E+00 -0.00000000000E+00 -0.10292912288E+03  0.10292912288E+03  0.00000000000E+00 0. -1.
    9000006    2    1    2  501    0  0.00000000000E+00  0.00000000000E+00  0.89707087712E+03  0.11029291229E+04  0.64165137849E+03 0.  0.
         13    1    3    3    0    0 -0.22495011611E+03 -0.22856851436E+03  0.43287536647E+03  0.53872739246E+03  0.00000000000E+00 0. -1.
          4    1    3    3  501    0  0.22495011611E+03  0.22856851436E+03  0.46419551065E+03  0.56420173042E+03  0.00000000000E+00 0. -1.
<mgrwt>
<rscale>  0 0.64165138E+03</rscale>
<asrwt>0</asrwt>
<pdfrwt beam="1">0</pdfrwt>
<pdfrwt beam="2">  1        2 0.37428851E+00 0.64165138E+03</pdfrwt>
<totfact> 0.49647413E+00</totfact>
</mgrwt>
</event>
<event>
 5    1  0.2366700E-004  0.6523959E+03  0.7818608E-02  0.9802294E-01
         13   -1    0    0    0    0  0.00000000000E+00  0.00000000000E+00  0.10000000000E+04  0.10000000000E+04  0.00000000000E+00 0. -1.
          2   -1    0    0  501    0 -0.00000000000E+00 -0.00000000000E+00 -0.10640509823E+03  0.10640509823E+03  0.00000000000E+00 0. -1.
    9000006    2    1    2  501    0  0.00000000000E+00  0.00000000000E+00  0.89359490177E+03  0.11064050982E+04  0.65239588664E+03 0.  0.
         13    1    3    3    0    0  0.25816469152E+03 -0.27243512525E+02  0.11182234481E+03  0.28265783860E+03  0.00000000000E+00 0. -1.
          2    1    3    3  501    0 -0.25816469152E+03  0.27243512525E+02  0.78177255696E+03  0.82374725963E+03  0.00000000000E+00 0. -1.
<mgrwt>
<rscale>  0 0.65239589E+03</rscale>
<asrwt>0</asrwt>
<pdfrwt beam="1">0</pdfrwt>
<pdfrwt beam="2">  1        2 0.38692845E+00 0.65239589E+03</pdfrwt>
<totfact> 0.44552659E+00</totfact>
</mgrwt>
</event>
<event>
 5    1  0.2366700E-004  0.6427516E+03  0.7818608E-02  0.9820476E-01
         13   -1    0    0    0    0  0.00000000000E+00  0.00000000000E+00  0.10000000000E+04  0.10000000000E+04  0.00000000000E+00 0. -1.
          2   -1    0    0  501    0 -0.00000000000E+00 -0.00000000000E+00 -0.10328240595E+03  0.10328240595E+03  0.00000000000E+00 0. -1.
    9000006    2    1    2  501    0  0.00000000000E+00  0.00000000000E+00  0.89671759405E+03  0.11032824059E+04  0.64275160348E+03 0.  0.
         13    1    3    3    0    0  0.14162933575E+03  0.19016085580E+02 -0.45748235048E+02  0.15004459759E+03  0.00000000000E+00 0. -1.
          2    1    3    3  501    0 -0.14162933575E+03 -0.19016085580E+02  0.94246582910E+03  0.95323780836E+03  0.00000000000E+00 0. -1.
<mgrwt>
<rscale>  0 0.64275160E+03</rscale>
<asrwt>0</asrwt>
<pdfrwt beam="1">0</pdfrwt>
<pdfrwt beam="2">  1        2 0.37557318E+00 0.64275160E+03</pdfrwt>
<totfact> 0.49106358E+00</totfact>
</mgrwt>
</event>
<event>
 5    1  0.2366700E-004  0.6488637E+03  0.7818608E-02  0.9808914E-01
         13   -1    0    0    0    0  0.00000000000E+00  0.00000000000E+00  0.10000000000E+04  0.10000000000E+04  0.00000000000E+00 0. -1.
          2   -1    0    0  501    0 -0.00000000000E+00 -0.00000000000E+00 -0.10525600959E+03  0.10525600959E+03  0.00000000000E+00 0. -1.
    9000006    2    1    2  501    0  0.00000000000E+00  0.00000000000E+00  0.89474399041E+03  0.11052560096E+04  0.64886365160E+03 0.  0.
         13    1    3    3    0    0 -0.13011151639E+03 -0.29434023957E+03  0.51741405854E+03  0.60932954245E+03  0.00000000000E+00 0. -1.
          2    1    3    3  501    0  0.13011151639E+03  0.29434023957E+03  0.37732993186E+03  0.49592646714E+03  0.00000000000E+00 0. -1.
<mgrwt>
<rscale>  0 0.64886365E+03</rscale>
<asrwt>0</asrwt>
<pdfrwt beam="1">0</pdfrwt>
<pdfrwt beam="2">  1        2 0.38274993E+00 0.64886365E+03</pdfrwt>
<totfact> 0.46181665E+00</totfact>
</mgrwt>
</event>
<event>
 5    1  0.2366700E-004  0.6871777E+03  0.7818608E-02  0.9739415E-01
         13   -1    0    0    0    0  0.00000000000E+00  0.00000000000E+00  0.10000000000E+04  0.10000000000E+04  0.00000000000E+00 0. -1.
          2   -1    0    0  501    0 -0.00000000000E+00 -0.00000000000E+00 -0.11805330674E+03  0.11805330674E+03  0.00000000000E+00 0. -1.
    9000006    2    1    2  501    0  0.00000000000E+00  0.00000000000E+00  0.88194669326E+03  0.11180533067E+04  0.68717772590E+03 0.  0.
         13    1    3    3    0    0 -0.74913897836E+02 -0.20009115394E+03  0.31721442148E+01  0.21367878807E+03  0.00000000000E+00 0. -1.
          2    1    3    3  501    0  0.74913897836E+02  0.20009115394E+03  0.87877454904E+03  0.90437451867E+03  0.00000000000E+00 0. -1.
<mgrwt>
<rscale>  0 0.68717773E+03</rscale>
<asrwt>0</asrwt>
<pdfrwt beam="1">0</pdfrwt>
<pdfrwt beam="2">  1        2 0.42928566E+00 0.68717773E+03</pdfrwt>
<totfact> 0.30725115E+00</totfact>
</mgrwt>
</event>
<event>
 5    1  0.2366700E-004  0.6253916E+03  0.7818608E-02  0.9854083E-01
         13   -1    0    0    0    0  0.00000000000E+00  0.00000000000E+00  0.10000000000E+04  0.10000000000E+04  0.00000000000E+00 0. -1.
          2   -1    0    0  501    0 -0.00000000000E+00 -0.00000000000E+00 -0.97778650566E+02  0.97778650566E+02  0.00000000000E+00 0. -1.
    9000006    2    1    2  501    0  0.00000000000E+00  0.00000000000E+00  0.90222134943E+03  0.10977786506E+04  0.62539155916E+03 0.  0.
         13    1    3    3    0    0  0.28293005913E+03  0.78646337443E+02  0.63971022696E+03  0.70389192297E+03  0.00000000000E+00 0. -1.
          2    1    3    3  501    0 -0.28293005913E+03 -0.78646337443E+02  0.26251112247E+03  0.39388672759E+03  0.00000000000E+00 0. -1.
<mgrwt>
<rscale>  0 0.62539156E+03</rscale>
<asrwt>0</asrwt>
<pdfrwt beam="1">0</pdfrwt>
<pdfrwt beam="2">  1        2 0.35555948E+00 0.62539156E+03</pdfrwt>
<totfact> 0.58182727E+00</totfact>
</mgrwt>
</event>
<event>
 5    1  0.2366700E-004  0.6510816E+03  0.7818608E-02  0.9804752E-01
         13   -1    0    0    0    0  0.00000000000E+00  0.00000000000E+00  0.10000000000E+04  0.10000000000E+04  0.00000000000E+00 0. -1.
          2   -1    0    0  501    0 -0.00000000000E+00 -0.00000000000E+00 -0.10597681085E+03  0.10597681085E+03  0.00000000000E+00 0. -1.
    9000006    2    1    2  501    0  0.00000000000E+00  0.00000000000E+00  0.89402318915E+03  0.11059768109E+04  0.65108159505E+03 0.  0.
         13    1    3    3    0    0  0.31411585243E+03  0.54080404064E+02  0.55947565939E+03  0.64389942717E+03  0.00000000000E+00 0. -1.
          4    1    3    3  501    0 -0.31411585243E+03 -0.54080404064E+02  0.33454752975E+03  0.46207738369E+03  0.00000000000E+00 0. -1.
<mgrwt>
<rscale>  0 0.65108160E+03</rscale>
<asrwt>0</asrwt>
<pdfrwt beam="1">0</pdfrwt>
<pdfrwt beam="2">  1        2 0.38537103E+00 0.65108160E+03</pdfrwt>
<totfact> 0.45153628E+00</totfact>
</mgrwt>
</event>
<event>
 5    1  0.2366700E-004  0.6463259E+03  0.7818608E-02  0.9813698E-01
         13   -1    0    0    0    0  0.00000000000E+00  0.00000000000E+00  0.10000000000E+04  0.10000000000E+04  0.00000000000E+00 0. -1.
          2   -1    0    0  501    0 -0.00000000000E+00 -0.00000000000E+00 -0.10443429179E+03  0.10443429179E+03  0.00000000000E+00 0. -1.
    9000006    2    1    2  501    0  0.00000000000E+00  0.00000000000E+00  0.89556570821E+03  0.11044342918E+04  0.64632589856E+03 0.  0.
         13    1    3    3    0    0  0.10510378833E+02 -0.12477509694E+03 -0.61295622130E+02  0.13941465552E+03  0.00000000000E+00 0. -1.
          4    1    3    3  501    0 -0.10510378833E+02  0.12477509694E+03  0.95686133034E+03  0.96501963627E+03  0.00000000000E+00 0. -1.
<mgrwt>
<rscale>  0 0.64632590E+03</rscale>
<asrwt>0</asrwt>
<pdfrwt beam="1">0</pdfrwt>
<pdfrwt beam="2">  1        2 0.37976186E+00 0.64632590E+03</pdfrwt>
<totfact> 0.47379534E+00</totfact>
</mgrwt>
</event>
<event>
 5    1  0.2366700E-004  0.6482621E+03  0.7818608E-02  0.9810046E-01
         13   -1    0    0    0    0  0.00000000000E+00  0.00000000000E+00  0.10000000000E+04  0.10000000000E+04  0.00000000000E+00 0. -1.
          2   -1    0    0  501    0 -0.00000000000E+00 -0.00000000000E+00 -0.10506093892E+03  0.10506093892E+03  0.00000000000E+00 0. -1.
    9000006    2    1    2  501    0  0.00000000000E+00  0.00000000000E+00  0.89493906108E+03  0.11050609389E+04  0.64826210416E+03 0.  0.
         13    1    3    3    0    0  0.18038424765E+03  0.24935207156E+03  0.27408036059E+03  0.41211039353E+03  0.00000000000E+00 0. -1.
          2    1    3    3  501    0 -0.18038424765E+03 -0.24935207156E+03  0.62085870048E+03  0.69295054539E+03  0.00000000000E+00 0. -1.
<mgrwt>
<rscale>  0 0.64826210E+03</rscale>
<asrwt>0</asrwt>
<pdfrwt beam="1">0</pdfrwt>
<pdfrwt beam="2">  1        2 0.38204058E+00 0.64826210E+03</pdfrwt>
<totfact> 0.46463513E+00</totfact>
</mgrwt>
</event>
<event>
 5    1  0.2366700E-004  0.6348661E+03  0.7818608E-02  0.9835599E-01
         13   -1    0    0    0    0  0.00000000000E+00  0.00000000000E+00  0.10000000000E+04  0.10000000000E+04  0.00000000000E+00 0. -1.
          2   -1    0    0  501    0 -0.00000000000E+00 -0.00000000000E+00 -0.10076375433E+03  0.10076375433E+03  0.00000000000E+00 0. -1.
    9000006    2    1    2  501    0  0.00000000000E+00  0.00000000000E+00  0.89923624567E+03  0.11007637543E+04  0.63486614125E+03 0.  0.
         13    1    3    3    0    0 -0.30350337757E+03  0.26070985029E+02  0.60440513548E+03  0.67683052846E+03  0.00000000000E+00 0. -1.
          4    1    3    3  501    0  0.30350337757E+03 -0.26070985029E+02  0.29483111019E+03  0.42393322587E+03  0.00000000000E+00 0. -1.
<mgrwt>
<rscale>  0 0.63486614E+03</rscale>
<asrwt>0</asrwt>
<pdfrwt beam="1">0</pdfrwt>
<pdfrwt beam="2">  1        2 0.36641442E+00 0.63486614E+03</pdfrwt>
<totfact> 0.53084676E+00</totfact>
</mgrwt>
</event>
<event>
 5    1  0.2366700E-004  0.6445945E+03  0.7818608E-02  0.9816975E-01
         13   -1    0    0    0    0  0.00000000000E+00  0.00000000000E+00  0.10000000000E+04  0.10000000000E+04  0.00000000000E+00 0. -1.
          2   -1    0    0  501    0 -0.00000000000E+00 -0.00000000000E+00 -0.10387551781E+03  0.10387551781E+03  0.00000000000E+00 0. -1.
    9000006    2    1    2  501    0  0.00000000000E+00  0.00000000000E+00  0.89612448219E+03  0.11038755178E+04  0.64459450142E+03 0.  0.
         13    1    3    3    0    0  0.16835563921E+03  0.24774994910E+03  0.24433915068E+03  0.38655566105E+03  0.00000000000E+00 0. -1.
          2    1    3    3  501    0 -0.16835563921E+03 -0.24774994910E+03  0.65178533151E+03  0.71731985676E+03  0.00000000000E+00 0. -1.
<mgrwt>
<rscale>  0 0.64459450E+03</rscale>
<asrwt>0</asrwt>
<pdfrwt beam="1">0</pdfrwt>
<pdfrwt beam="2">  1        2 0.37772995E+00 0.64459450E+03</pdfrwt>
<totfact> 0.48210170E+00</totfact>
</mgrwt>
</event>
<event>
 5    1  0.2366700E-004  0.6425874E+03  0.7818608E-02  0.9820789E-01
         13   -1    0    0    0    0  0.00000000000E+00  0.00000000000E+00  0.10000000000E+04  0.10000000000E+04  0.00000000000E+00 0. -1.
          2   -1    0    0  501    0 -0.00000000000E+00 -0.00000000000E+00 -0.10322964277E+03  0.10322964277E+03  0.00000000000E+00 0. -1.
    9000006    2    1    2  501    0  0.00000000000E+00  0.00000000000E+00  0.89677035723E+03  0.11032296428E+04  0.64258740345E+03 0.  0.
         13    1    3    3    0    0 -0.26727990655E+03 -0.16289526744E+03  0.57285691172E+03  0.65279281392E+03  0.00000000000E+00 0. -1.
          4    1    3    3  501    0  0.26727990655E+03  0.16289526744E+03  0.32391344551E+03  0.45043682885E+03  0.00000000000E+00 0. -1.
<mgrwt>
<rscale>  0 0.64258740E+03</rscale>
<asrwt>0</asrwt>
<pdfrwt beam="1">0</pdfrwt>
<pdfrwt beam="2">  1        2 0.37538131E+00 0.64258740E+03</pdfrwt>
<totfact> 0.49186819E+00</totfact>
</mgrwt>
</event>
<event>
 5    1  0.2366700E-004  0.6494193E+03  0.7818608E-02  0.9807869E-01
         13   -1    0    0    0    0  0.00000000000E+00  0.00000000000E+00  0.10000000000E+04  0.10000000000E+04  0.00000000000E+00 0. -1.
          2   -1    0    0  501    0 -0.00000000000E+00 -0.00000000000E+00 -0.10543635035E+03  0.10543635035E+03  0.00000000000E+00 0. -1.
    9000006    2    1    2  501    0  0.00000000000E+00  0.00000000000E+00  0.89456364965E+03  0.11054363503E+04  0.64941928011E+03 0.  0.
         13    1    3    3    0    0 -0.27504672482E+03 -0.58850994594E+02  0.17111612477E+03  0.32923375974E+03  0.00000000000E+00 0. -1.
          4    1    3    3  501    0  0.27504672482E+03  0.58850994594E+02  0.72344752489E+03  0.77620259060E+03  0.00000000000E+00 0. -1.
<mgrwt>
<rscale>  0 0.64941928E+03</rscale>
<asrwt>0</asrwt>
<pdfrwt beam="1">0</pdfrwt>
<pdfrwt beam="2">  1        2 0.38340572E+00 0.64941928E+03</pdfrwt>
<totfact> 0.45922483E+00</totfact>
</mgrwt>
</event>
<event>
 5    1  0.2366700E-004  0.6555900E+03  0.7818608E-02  0.9796346E-01
         13   -1    0    0    0    0  0.00000000000E+00  0.00000000000E+00  0.10000000000E+04  0.10000000000E+04  0.00000000000E+00 0. -1.
          2   -1    0    0  501    0 -0.00000000000E+00 -0.00000000000E+00 -0.10744956541E+03  0.10744956541E+03  0.00000000000E+00 0. -1.
    9000006    2    1    2  501    0  0.00000000000E+00  0.00000000000E+00  0.89255043459E+03  0.11074495654E+04  0.65559001034E+03 0.  0.
         13    1    3    3    0    0 -0.23103455667E+03 -0.22900342622E+03  0.37807442751E+03  0.49875826643E+03  0.00000000000E+00 0. -1.
          4    1    3    3  501    0  0.23103455667E+03  0.22900342622E+03  0.51447600708E+03  0.60869129898E+03  0.00000000000E+00 0. -1.
<mgrwt>
<rscale>  0 0.65559001E+03</rscale>
<asrwt>0</asrwt>
<pdfrwt beam="1">0</pdfrwt>
<pdfrwt beam="2">  1        2 0.39072652E+00 0.65559001E+03</pdfrwt>
<totfact> 0.43117309E+00</totfact>
</mgrwt>
</event>
<event>
 5    1  0.2366700E-004  0.6590216E+03  0.7818608E-02  0.9789997E-01
         13   -1    0    0    0    0  0.00000000000E+00  0.00000000000E+00  0.10000000000E+04  0.10000000000E+04  0.00000000000E+00 0. -1.
          2   -1    0    0  501    0 -0.00000000000E+00 -0.00000000000E+00 -0.10857735153E+03  0.10857735153E+03  0.00000000000E+00 0. -1.
    9000006    2    1    2  501    0  0.00000000000E+00  0.00000000000E+00  0.89142264847E+03  0.11085773515E+04  0.65902155208E+03 0.  0.
         13    1    3    3    0    0  0.16500867070E+03 -0.26766989759E+03  0.61140429802E+03  0.68752472765E+03  0.00000000000E+00 0. -1.
          2    1    3    3  501    0 -0.16500867070E+03  0.26766989759E+03  0.28001835045E+03  0.42105262388E+03  0.00000000000E+00 0. -1.
<mgrwt>
<rscale>  0 0.65902155E+03</rscale>
<asrwt>0</asrwt>
<pdfrwt beam="1">0</pdfrwt>
<pdfrwt beam="2">  1        2 0.39482757E+00 0.65902155E+03</pdfrwt>
<totfact> 0.41614504E+00</totfact>
</mgrwt>
</event>
<event>
 5    1  0.2366700E-004  0.6450340E+03  0.7818608E-02  0.9816142E-01
         13   -1    0    0    0    0  0.00000000000E+00  0.00000000000E+00  0.10000000000E+04  0.10000000000E+04  0.00000000000E+00 0. -1.
          2   -1    0    0  501    0 -0.00000000000E+00 -0.00000000000E+00 -0.10401721135E+03  0.10401721135E+03  0.00000000000E+00 0. -1.
    9000006    2    1    2  501    0  0.00000000000E+00  0.00000000000E+00  0.89598278865E+03  0.11040172114E+04  0.64503398780E+03 0.  0.
         13    1    3    3    0    0 -0.37806343032E+01 -0.23267621626E+03  0.83019064861E+03  0.86218851062E+03  0.00000000000E+00 0. -1.
          2    1    3    3  501    0  0.37806343032E+01  0.23267621626E+03  0.65792140034E+02  0.24182870073E+03  0.00000000000E+00 0. -1.
<mgrwt>
<rscale>  0 0.64503399E+03</rscale>
<asrwt>0</asrwt>
<pdfrwt beam="1">0</pdfrwt>
<pdfrwt beam="2">  1        2 0.37824520E+00 0.64503399E+03</pdfrwt>
<totfact> 0.47998292E+00</totfact>
</mgrwt>
</event>
<event>
 5    1  0.2366700E-004  0.6371797E+03  0.7818608E-02  0.9831137E-01
         13   -1    0    0    0    0  0.00000000000E+00  0.00000000000E+00  0.10000000000E+04  0.10000000000E+04  0.00000000000E+00 0. -1.
          2   -1    0    0  501    0 -0.00000000000E+00 -0.00000000000E+00 -0.10149949299E+03  0.10149949299E+03  0.00000000000E+00 0. -1.
    9000006    2    1    2  501    0  0.00000000000E+00  0.00000000000E+00  0.89850050701E+03  0.11014994930E+04  0.63717970145E+03 0.  0.
         13    1    3    3    0    0 -0.23178863637E+02  0.77367045438E+02 -0.83508529617E+02  0.11617484219E+03  0.00000000000E+00 0. -1.
          4    1    3    3  501    0  0.23178863637E+02 -0.77367045438E+02  0.98200903663E+03  0.98532465079E+03  0.00000000000E+00 0. -1.
<mgrwt>
<rscale>  0 0.63717970E+03</rscale>
<asrwt>0</asrwt>
<pdfrwt beam="1">0</pdfrwt>
<pdfrwt beam="2">  1        2 0.36908984E+00 0.63717970E+03</pdfrwt>
<totfact> 0.51893053E+00</totfact>
</mgrwt>
</event>
<event>
 5    1  0.2366700E-004  0.6588045E+03  0.7818608E-02  0.9790397E-01
         13   -1    0    0    0    0  0.00000000000E+00  0.00000000000E+00  0.10000000000E+04  0.10000000000E+04  0.00000000000E+00 0. -1.
          2   -1    0    0  501    0 -0.00000000000E+00 -0.00000000000E+00 -0.10850582794E+03  0.10850582794E+03  0.00000000000E+00 0. -1.
    9000006    2    1    2  501    0  0.00000000000E+00  0.00000000000E+00  0.89149417206E+03  0.11085058279E+04  0.65880445638E+03 0.  0.
         13    1    3    3    0    0 -0.20985241645E+03 -0.92570258603E+02  0.47931605689E+02  0.23431757999E+03  0.00000000000E+00 0. -1.
          4    1    3    3  501    0  0.20985241645E+03  0.92570258603E+02  0.84356256637E+03  0.87418824795E+03  0.00000000000E+00 0. -1.
<mgrwt>
<rscale>  0 0.65880446E+03</rscale>
<asrwt>0</asrwt>
<pdfrwt beam="1">0</pdfrwt>
<pdfrwt beam="2">  1        2 0.39456748E+00 0.65880446E+03</pdfrwt>
<totfact> 0.41708383E+00</totfact>
</mgrwt>
</event>
<event>
 5    1  0.2366700E-004  0.5341352E+03  0.7818608E-02  0.1005234E+00
         13   -1    0    0    0    0  0.00000000000E+00  0.00000000000E+00  0.10000000000E+04  0.10000000000E+04  0.00000000000E+00 0. -1.
          2   -1    0    0  501    0 -0.00000000000E+00 -0.00000000000E+00 -0.71325110803E+02  0.71325110803E+02  0.00000000000E+00 0. -1.
    9000006    2    1    2  501    0  0.00000000000E+00  0.00000000000E+00  0.92867488920E+03  0.10713251108E+04  0.53413522933E+03 0.  0.
         13    1    3    3    0    0  0.60598031874E+02  0.13768989505E+03  0.90693594389E+03  0.91932770816E+03  0.00000000000E+00 0. -1.
          2    1    3    3  501    0 -0.60598031874E+02 -0.13768989505E+03  0.21738945303E+02  0.15199740264E+03  0.00000000000E+00 0. -1.
<mgrwt>
<rscale>  0 0.53413523E+03</rscale>
<asrwt>0</asrwt>
<pdfrwt beam="1">0</pdfrwt>
<pdfrwt beam="2">  1        2 0.25936459E+00 0.53413523E+03</pdfrwt>
<totfact> 0.12901182E+01</totfact>
</mgrwt>
</event>
<event>
 5    1  0.2366700E-004  0.6530423E+03  0.7818608E-02  0.9801087E-01
         13   -1    0    0    0    0  0.00000000000E+00  0.00000000000E+00  0.10000000000E+04  0.10000000000E+04  0.00000000000E+00 0. -1.
          2   -1    0    0  501    0 -0.00000000000E+00 -0.00000000000E+00 -0.10661606999E+03  0.10661606999E+03  0.00000000000E+00 0. -1.
    9000006    2    1    2  501    0  0.00000000000E+00  0.00000000000E+00  0.89338393001E+03  0.11066160700E+04  0.65304232632E+03 0.  0.
         13    1    3    3    0    0 -0.13651259858E+02 -0.26654423791E+03  0.76544797588E+03  0.81064344285E+03  0.00000000000E+00 0. -1.
          2    1    3    3  501    0  0.13651259858E+02  0.26654423791E+03  0.12793595413E+03  0.29597262714E+03  0.00000000000E+00 0. -1.
<mgrwt>
<rscale>  0 0.65304233E+03</rscale>
<asrwt>0</asrwt>
<pdfrwt beam="1">0</pdfrwt>
<pdfrwt beam="2">  1        2 0.38769562E+00 0.65304233E+03</pdfrwt>
<totfact> 0.44259297E+00</totfact>
</mgrwt>
</event>
<event>
 5    1  0.2366700E-004  0.6433557E+03  0.7818608E-02  0.9819327E-01
         13   -1    0    0    0    0  0.00000000000E+00  0.00000000000E+00  0.10000000000E+04  0.10000000000E+04  0.00000000000E+00 0. -1.
          2   -1    0    0  501    0 -0.00000000000E+00 -0.00000000000E+00 -0.10347662958E+03  0.10347662958E+03  0.00000000000E+00 0. -1.
    9000006    2    1    2  501    0  0.00000000000E+00  0.00000000000E+00  0.89652337042E+03  0.11034766296E+04  0.64335567017E+03 0.  0.
         13    1    3    3    0    0 -0.29449811544E+03 -0.51594917054E+02  0.65182402469E+03  0.71712323531E+03  0.00000000000E+00 0. -1.
          4    1    3    3  501    0  0.29449811544E+03  0.51594917054E+02  0.24469934573E+03  0.38635339427E+03  0.00000000000E+00 0. -1.
<mgrwt>
<rscale>  0 0.64335567E+03</rscale>
<asrwt>0</asrwt>
<pdfrwt beam="1">0</pdfrwt>
<pdfrwt beam="2">  1        2 0.37627945E+00 0.64335567E+03</pdfrwt>
<totfact> 0.48811227E+00</totfact>
</mgrwt>
</event>
<event>
 5    1  0.2366700E-004  0.6427500E+03  0.7818608E-02  0.9820479E-01
         13   -1    0    0    0    0  0.00000000000E+00  0.00000000000E+00  0.10000000000E+04  0.10000000000E+04  0.00000000000E+00 0. -1.
          2   -1    0    0  501    0 -0.00000000000E+00 -0.00000000000E+00 -0.10328189079E+03  0.10328189079E+03  0.00000000000E+00 0. -1.
    9000006    2    1    2  501    0  0.00000000000E+00  0.00000000000E+00  0.89671810921E+03  0.11032818908E+04  0.64275000053E+03 0.  0.
         13    1    3    3    0    0 -0.22087840531E+03 -0.49503833373E+02  0.83994734985E+03  0.86991347269E+03  0.00000000000E+00 0. -1.
          4    1    3    3  501    0  0.22087840531E+03  0.49503833373E+02  0.56770759354E+02  0.23336841810E+03  0.00000000000E+00 0. -1.
<mgrwt>
<rscale>  0 0.64275000E+03</rscale>
<asrwt>0</asrwt>
<pdfrwt beam="1">0</pdfrwt>
<pdfrwt beam="2">  1        2 0.37557130E+00 0.64275000E+03</pdfrwt>
<totfact> 0.49107143E+00</totfact>
</mgrwt>
</event>
<event>
 5    1  0.2366700E-004  0.6498117E+03  0.7818608E-02  0.9807133E-01
         13   -1    0    0    0    0  0.00000000000E+00  0.00000000000E+00  0.10000000000E+04  0.10000000000E+04  0.00000000000E+00 0. -1.
          2   -1    0    0  501    0 -0.00000000000E+00 -0.00000000000E+00 -0.10556381279E+03  0.10556381279E+03  0.00000000000E+00 0. -1.
    9000006    2    1    2  501    0  0.00000000000E+00  0.00000000000E+00  0.89443618721E+03  0.11055638128E+04  0.64981170439E+03 0.  0.
         13    1    3    3    0    0 -0.16725489151E+03  0.12850925402E+03  0.26754911915E+02  0.21261385753E+03  0.00000000000E+00 0. -1.
          4    1    3    3  501    0  0.16725489151E+03 -0.12850925402E+03  0.86768127529E+03  0.89294995526E+03  0.00000000000E+00 0. -1.
<mgrwt>
<rscale>  0 0.64981170E+03</rscale>
<asrwt>0</asrwt>
<pdfrwt beam="1">0</pdfrwt>
<pdfrwt beam="2">  1        2 0.38386922E+00 0.64981170E+03</pdfrwt>
<totfact> 0.45740093E+00</totfact>
</mgrwt>
</event>
<event>
 5    1  0.2366700E-004  0.6461471E+03  0.7818608E-02  0.9814036E-01
         13   -1    0    0    0    0  0.00000000000E+00  0.00000000000E+00  0.10000000000E+04  0.10000000000E+04  0.00000000000E+00 0. -1.
          2   -1    0    0  501    0 -0.00000000000E+00 -0.00000000000E+00 -0.10437652529E+03  0.10437652529E+03  0.00000000000E+00 0. -1.
    9000006    2    1    2  501    0  0.00000000000E+00  0.00000000000E+00  0.89562347471E+03  0.11043765253E+04  0.64614712035E+03 0.  0.
         13    1    3    3    0    0  0.15412296701E+03  0.37492790178E+02  0.92886675521E+03  0.94231260588E+03  0.00000000000E+00 0. -1.
          2    1    3    3  501    0 -0.15412296701E+03 -0.37492790178E+02 -0.33243280492E+02  0.16206391940E+03  0.00000000000E+00 0. -1.
<mgrwt>
<rscale>  0 0.64614712E+03</rscale>
<asrwt>0</asrwt>
<pdfrwt beam="1">0</pdfrwt>
<pdfrwt beam="2">  1        2 0.37955180E+00 0.64614712E+03</pdfrwt>
<totfact> 0.47464798E+00</totfact>
</mgrwt>
</event>
<event>
 5    1  0.2366700E-004  0.6497710E+03  0.7818608E-02  0.9807209E-01
         13   -1    0    0    0    0  0.00000000000E+00  0.00000000000E+00  0.10000000000E+04  0.10000000000E+04  0.00000000000E+00 0. -1.
          2   -1    0    0  501    0 -0.00000000000E+00 -0.00000000000E+00 -0.10555057787E+03  0.10555057787E+03  0.00000000000E+00 0. -1.
    9000006    2    1    2  501    0  0.00000000000E+00  0.00000000000E+00  0.89444942213E+03  0.11055505779E+04  0.64977096849E+03 0.  0.
         13    1    3    3    0    0 -0.82533594828E+02  0.14624370850E+03 -0.25984135080E+02  0.16992407666E+03  0.00000000000E+00 0. -1.
          2    1    3    3  501    0  0.82533594828E+02 -0.14624370850E+03  0.92043355721E+03  0.93562650122E+03  0.00000000000E+00 0. -1.
<mgrwt>
<rscale>  0 0.64977097E+03</rscale>
<asrwt>0</asrwt>
<pdfrwt beam="1">0</pdfrwt>
<pdfrwt beam="2">  1        2 0.38382109E+00 0.64977097E+03</pdfrwt>
<totfact> 0.45759001E+00</totfact>
</mgrwt>
</event>
<event>
 5    1  0.2366700E-004  0.6702228E+03  0.7818608E-02  0.9769555E-01
         13   -1    0    0    0    0  0.00000000000E+00  0.00000000000E+00  0.10000000000E+04  0.10000000000E+04  0.00000000000E+00 0. -1.
          2   -1    0    0  501    0 -0.00000000000E+00 -0.00000000000E+00 -0.11229965458E+03  0.11229965458E+03  0.00000000000E+00 0. -1.
    9000006    2    1    2  501    0  0.00000000000E+00  0.00000000000E+00  0.88770034542E+03  0.11122996546E+04  0.67022281246E+03 0.  0.
         13    1    3    3    0    0  0.29803632977E+03  0.14893466859E+03  0.38418621920E+03  0.50853342112E+03  0.00000000000E+00 0. -1.
          4    1    3    3  501    0 -0.29803632977E+03 -0.14893466859E+03  0.50351412622E+03  0.60376623347E+03  0.00000000000E+00 0. -1.
<mgrwt>
<rscale>  0 0.67022281E+03</rscale>
<asrwt>0</asrwt>
<pdfrwt beam="1">0</pdfrwt>
<pdfrwt beam="2">  1        2 0.40836324E+00 0.67022281E+03</pdfrwt>
<totfact> 0.36983003E+00</totfact>
</mgrwt>
</event>
<event>
 5    1  0.2366700E-004  0.6504893E+03  0.7818608E-02  0.9805862E-01
         13   -1    0    0    0    0  0.00000000000E+00  0.00000000000E+00  0.10000000000E+04  0.10000000000E+04  0.00000000000E+00 0. -1.
          4   -1    0    0  501    0 -0.00000000000E+00 -0.00000000000E+00 -0.10578407451E+03  0.10578407451E+03  0.00000000000E+00 0. -1.
    9000006    2    1    2  501    0  0.00000000000E+00  0.00000000000E+00  0.89421592549E+03  0.11057840745E+04  0.65048927589E+03 0.  0.
         13    1    3    3    0    0 -0.29561138322E+03  0.42941194770E+01  0.21664689497E+03  0.36652476922E+03  0.00000000000E+00 0. -1.
          4    1    3    3  501    0  0.29561138322E+03 -0.42941194770E+01  0.67756903052E+03  0.73925930530E+03  0.00000000000E+00 0. -1.
<mgrwt>
<rscale>  0 0.65048928E+03</rscale>
<asrwt>0</asrwt>
<pdfrwt beam="1">0</pdfrwt>
<pdfrwt beam="2">  1        4 0.38467017E+00 0.65048928E+03</pdfrwt>
<totfact> 0.40803927E-02</totfact>
</mgrwt>
</event>
<event>
 5    1  0.2366700E-004  0.6513389E+03  0.7818608E-02  0.9804270E-01
         13   -1    0    0    0    0  0.00000000000E+00  0.00000000000E+00  0.10000000000E+04  0.10000000000E+04  0.00000000000E+00 0. -1.
          2   -1    0    0  501    0 -0.00000000000E+00 -0.00000000000E+00 -0.10606058417E+03  0.10606058417E+03  0.00000000000E+00 0. -1.
    9000006    2    1    2  501    0  0.00000000000E+00  0.00000000000E+00  0.89393941583E+03  0.11060605842E+04  0.65133888005E+03 0.  0.
         13    1    3    3    0    0  0.12247702177E+03  0.34131881404E+01 -0.65428810876E+02  0.13889996403E+03  0.00000000000E+00 0. -1.
          4    1    3    3  501    0 -0.12247702177E+03 -0.34131881404E+01  0.95936822671E+03  0.96716062013E+03  0.00000000000E+00 0. -1.
<mgrwt>
<rscale>  0 0.65133888E+03</rscale>
<asrwt>0</asrwt>
<pdfrwt beam="1">0</pdfrwt>
<pdfrwt beam="2">  1        2 0.38567566E+00 0.65133888E+03</pdfrwt>
<totfact> 0.45035503E+00</totfact>
</mgrwt>
</event>
<event>
 5    1  0.2366700E-004  0.6455124E+03  0.7818608E-02  0.9815236E-01
         13   -1    0    0    0    0  0.00000000000E+00  0.00000000000E+00  0.10000000000E+04  0.10000000000E+04  0.00000000000E+00 0. -1.
          2   -1    0    0  501    0 -0.00000000000E+00 -0.00000000000E+00 -0.10417156951E+03  0.10417156951E+03  0.00000000000E+00 0. -1.
    9000006    2    1    2  501    0  0.00000000000E+00  0.00000000000E+00  0.89582843049E+03  0.11041715695E+04  0.64551241510E+03 0.  0.
         13    1    3    3    0    0  0.19222869320E+03  0.15637923721E+02  0.52353145331E+01  0.19293476531E+03  0.00000000000E+00 0. -1.
          4    1    3    3  501    0 -0.19222869320E+03 -0.15637923721E+02  0.89059311596E+03  0.91123680420E+03  0.00000000000E+00 0. -1.
<mgrwt>
<rscale>  0 0.64551242E+03</rscale>
<asrwt>0</asrwt>
<pdfrwt beam="1">0</pdfrwt>
<pdfrwt beam="2">  1        2 0.37880651E+00 0.64551242E+03</pdfrwt>
<totfact> 0.47768442E+00</totfact>
</mgrwt>
</event>
<event>
 5    1  0.2366700E-004  0.6466857E+03  0.7818608E-02  0.9813018E-01
         13   -1    0    0    0    0  0.00000000000E+00  0.00000000000E+00  0.10000000000E+04  0.10000000000E+04  0.00000000000E+00 0. -1.
          2   -1    0    0  501    0 -0.00000000000E+00 -0.00000000000E+00 -0.10455061041E+03  0.10455061041E+03  0.00000000000E+00 0. -1.
    9000006    2    1    2  501    0  0.00000000000E+00  0.00000000000E+00  0.89544938959E+03  0.11045506104E+04  0.64668573638E+03 0.  0.
         13    1    3    3    0    0 -0.22020134607E+02  0.12938913659E+03 -0.57005846396E+02  0.14309472918E+03  0.00000000000E+00 0. -1.
          2    1    3    3  501    0  0.22020134607E+02 -0.12938913659E+03  0.95245523599E+03  0.96145588123E+03  0.00000000000E+00 0. -1.
<mgrwt>
<rscale>  0 0.64668574E+03</rscale>
<asrwt>0</asrwt>
<pdfrwt beam="1">0</pdfrwt>
<pdfrwt beam="2">  1        2 0.38018484E+00 0.64668574E+03</pdfrwt>
<totfact> 0.47208270E+00</totfact>
</mgrwt>
</event>
<event>
 5    1  0.2366700E-004  0.6532689E+03  0.7818608E-02  0.9800665E-01
         13   -1    0    0    0    0  0.00000000000E+00  0.00000000000E+00  0.10000000000E+04  0.10000000000E+04  0.00000000000E+00 0. -1.
          2   -1    0    0  501    0 -0.00000000000E+00 -0.00000000000E+00 -0.10669006871E+03  0.10669006871E+03  0.00000000000E+00 0. -1.
    9000006    2    1    2  501    0  0.00000000000E+00  0.00000000000E+00  0.89330993129E+03  0.11066900687E+04  0.65326891464E+03 0.  0.
         13    1    3    3    0    0 -0.68173020809E+02  0.12708914804E+02  0.98738513462E+03  0.98981739798E+03  0.00000000000E+00 0. -1.
          2    1    3    3  501    0  0.68173020809E+02 -0.12708914804E+02 -0.94075203326E+02  0.11687267073E+03  0.00000000000E+00 0. -1.
<mgrwt>
<rscale>  0 0.65326891E+03</rscale>
<asrwt>0</asrwt>
<pdfrwt beam="1">0</pdfrwt>
<pdfrwt beam="2">  1        2 0.38796470E+00 0.65326891E+03</pdfrwt>
<totfact> 0.44156815E+00</totfact>
</mgrwt>
</event>
<event>
 5    1  0.2366700E-004  0.5350779E+03  0.7818608E-02  0.1005008E+00
         13   -1    0    0    0    0  0.00000000000E+00  0.00000000000E+00  0.10000000000E+04  0.10000000000E+04  0.00000000000E+00 0. -1.
          2   -1    0    0  501    0 -0.00000000000E+00 -0.00000000000E+00 -0.71577086178E+02  0.71577086178E+02  0.00000000000E+00 0. -1.
    9000006    2    1    2  501    0  0.00000000000E+00  0.00000000000E+00  0.92842291382E+03  0.10715770862E+04  0.53507788659E+03 0.  0.
         13    1    3    3    0    0 -0.55635137254E+02  0.21615551300E+03  0.75961929079E+03  0.79173224087E+03  0.00000000000E+00 0. -1.
          4    1    3    3  501    0  0.55635137254E+02 -0.21615551300E+03  0.16880362303E+03  0.27984484531E+03  0.00000000000E+00 0. -1.
<mgrwt>
<rscale>  0 0.53507789E+03</rscale>
<asrwt>0</asrwt>
<pdfrwt beam="1">0</pdfrwt>
<pdfrwt beam="2">  1        2 0.26028086E+00 0.53507789E+03</pdfrwt>
<totfact> 0.12803994E+01</totfact>
</mgrwt>
</event>
<event>
 5    1  0.2366700E-004  0.5954819E+03  0.7818608E-02  0.9914824E-01
         13   -1    0    0    0    0  0.00000000000E+00  0.00000000000E+00  0.10000000000E+04  0.10000000000E+04  0.00000000000E+00 0. -1.
          2   -1    0    0  501    0 -0.00000000000E+00 -0.00000000000E+00 -0.88649673508E+02  0.88649673508E+02  0.00000000000E+00 0. -1.
    9000006    2    1    2  501    0  0.00000000000E+00  0.00000000000E+00  0.91135032649E+03  0.10886496735E+04  0.59548190067E+03 0.  0.
         13    1    3    3    0    0 -0.48163640197E+01  0.14036172113E+03 -0.24288288359E+02  0.14252905344E+03  0.00000000000E+00 0. -1.
          2    1    3    3  501    0  0.48163640197E+01 -0.14036172113E+03  0.93563861485E+03  0.94612062007E+03  0.00000000000E+00 0. -1.
<mgrwt>
<rscale>  0 0.59548190E+03</rscale>
<asrwt>0</asrwt>
<pdfrwt beam="1">0</pdfrwt>
<pdfrwt beam="2">  1        2 0.32236313E+00 0.59548190E+03</pdfrwt>
<totfact> 0.76755293E+00</totfact>
</mgrwt>
</event>
<event>
 5    1  0.2366700E-004  0.6442222E+03  0.7818608E-02  0.9817682E-01
         13   -1    0    0    0    0  0.00000000000E+00  0.00000000000E+00  0.10000000000E+04  0.10000000000E+04  0.00000000000E+00 0. -1.
          2   -1    0    0  501    0 -0.00000000000E+00 -0.00000000000E+00 -0.10375554906E+03  0.10375554906E+03  0.00000000000E+00 0. -1.
    9000006    2    1    2  501    0  0.00000000000E+00  0.00000000000E+00  0.89624445094E+03  0.11037555491E+04  0.64422216373E+03 0.  0.
         13    1    3    3    0    0  0.94206205883E+02  0.23653490148E+03  0.11006479600E+03  0.27737669001E+03  0.00000000000E+00 0. -1.
          4    1    3    3  501    0 -0.94206205883E+02 -0.23653490148E+03  0.78617965494E+03  0.82637885905E+03  0.00000000000E+00 0. -1.
<mgrwt>
<rscale>  0 0.64422216E+03</rscale>
<asrwt>0</asrwt>
<pdfrwt beam="1">0</pdfrwt>
<pdfrwt beam="2">  1        2 0.37729370E+00 0.64422216E+03</pdfrwt>
<totfact> 0.48390229E+00</totfact>
</mgrwt>
</event>
<event>
 5    1  0.2366700E-004  0.6546902E+03  0.7818608E-02  0.9798018E-01
         13   -1    0    0    0    0  0.00000000000E+00  0.00000000000E+00  0.10000000000E+04  0.10000000000E+04  0.00000000000E+00 0. -1.
          2   -1    0    0  501    0 -0.00000000000E+00 -0.00000000000E+00 -0.10715482062E+03  0.10715482062E+03  0.00000000000E+00 0. -1.
    9000006    2    1    2  501    0  0.00000000000E+00  0.00000000000E+00  0.89284517938E+03  0.11071548206E+04  0.65469021871E+03 0.  0.
         13    1    3    3    0    0  0.24035357151E+03  0.48081491769E+02  0.81333224458E+03  0.84946513128E+03  0.00000000000E+00 0. -1.
          2    1    3    3  501    0 -0.24035357151E+03 -0.48081491769E+02  0.79512934799E+02  0.25768968934E+03  0.00000000000E+00 0. -1.
<mgrwt>
<rscale>  0 0.65469022E+03</rscale>
<asrwt>0</asrwt>
<pdfrwt beam="1">0</pdfrwt>
<pdfrwt beam="2">  1        2 0.38965471E+00 0.65469022E+03</pdfrwt>
<totfact> 0.43518063E+00</totfact>
</mgrwt>
</event>
<event>
 5    1  0.2366700E-004  0.6461492E+03  0.7818608E-02  0.9814032E-01
         13   -1    0    0    0    0  0.00000000000E+00  0.00000000000E+00  0.10000000000E+04  0.10000000000E+04  0.00000000000E+00 0. -1.
          2   -1    0    0  501    0 -0.00000000000E+00 -0.00000000000E+00 -0.10437719636E+03  0.10437719636E+03  0.00000000000E+00 0. -1.
    9000006    2    1    2  501    0  0.00000000000E+00  0.00000000000E+00  0.89562280364E+03  0.11043771964E+04  0.64614919750E+03 0.  0.
         13    1    3    3    0    0 -0.40953710077E+02  0.32046824204E+03  0.44728229970E+03  0.55175950934E+03  0.00000000000E+00 0. -1.
          2    1    3    3  501    0  0.40953710077E+02 -0.32046824204E+03  0.44834050394E+03  0.55261768701E+03  0.00000000000E+00 0. -1.
<mgrwt>
<rscale>  0 0.64614920E+03</rscale>
<asrwt>0</asrwt>
<pdfrwt beam="1">0</pdfrwt>
<pdfrwt beam="2">  1        2 0.37955424E+00 0.64614920E+03</pdfrwt>
<totfact> 0.47463807E+00</totfact>
</mgrwt>
</event>
<event>
 5    1  0.2366700E-004  0.6571330E+03  0.7818608E-02  0.9793486E-01
         13   -1    0    0    0    0  0.00000000000E+00  0.00000000000E+00  0.10000000000E+04  0.10000000000E+04  0.00000000000E+00 0. -1.
          2   -1    0    0  501    0 -0.00000000000E+00 -0.00000000000E+00 -0.10795594914E+03  0.10795594914E+03  0.00000000000E+00 0. -1.
    9000006    2    1    2  501    0  0.00000000000E+00  0.00000000000E+00  0.89204405086E+03  0.11079559491E+04  0.65713301285E+03 0.  0.
         13    1    3    3    0    0  0.26441051634E+02  0.32740320900E+03  0.43253801968E+03  0.54312165206E+03  0.00000000000E+00 0. -1.
          2    1    3    3  501    0 -0.26441051634E+02 -0.32740320900E+03  0.45950603118E+03  0.56483429708E+03  0.00000000000E+00 0. -1.
<mgrwt>
<rscale>  0 0.65713301E+03</rscale>
<asrwt>0</asrwt>
<pdfrwt beam="1">0</pdfrwt>
<pdfrwt beam="2">  1        2 0.39256792E+00 0.65713301E+03</pdfrwt>
<totfact> 0.42436573E+00</totfact>
</mgrwt>
</event>
<event>
 5    1  0.2366700E-004  0.6643763E+03  0.7818608E-02  0.9780171E-01
         13   -1    0    0    0    0  0.00000000000E+00  0.00000000000E+00  0.10000000000E+04  0.10000000000E+04  0.00000000000E+00 0. -1.
          2   -1    0    0  501    0 -0.00000000000E+00 -0.00000000000E+00 -0.11034895178E+03  0.11034895178E+03  0.00000000000E+00 0. -1.
    9000006    2    1    2  501    0  0.00000000000E+00  0.00000000000E+00  0.88965104822E+03  0.11103489518E+04  0.66437625419E+03 0.  0.
         13    1    3    3    0    0  0.14666107937E+03 -0.29782419855E+03  0.46461618005E+03  0.57103145291E+03  0.00000000000E+00 0. -1.
          2    1    3    3  501    0 -0.14666107937E+03  0.29782419855E+03  0.42503486816E+03  0.53931749888E+03  0.00000000000E+00 0. -1.
<mgrwt>
<rscale>  0 0.66437625E+03</rscale>
<asrwt>0</asrwt>
<pdfrwt beam="1">0</pdfrwt>
<pdfrwt beam="2">  1        2 0.40126976E+00 0.66437625E+03</pdfrwt>
<totfact> 0.39349015E+00</totfact>
</mgrwt>
</event>
<event>
 5    1  0.2366700E-004  0.6515341E+03  0.7818608E-02  0.9803905E-01
         13   -1    0    0    0    0  0.00000000000E+00  0.00000000000E+00  0.10000000000E+04  0.10000000000E+04  0.00000000000E+00 0. -1.
          2   -1    0    0  501    0 -0.00000000000E+00 -0.00000000000E+00 -0.10612416365E+03  0.10612416365E+03  0.00000000000E+00 0. -1.
    9000006    2    1    2  501    0  0.00000000000E+00  0.00000000000E+00  0.89387583635E+03  0.11061241636E+04  0.65153407785E+03 0.  0.
         13    1    3    3    0    0  0.11415004902E+03 -0.68959792871E+02  0.95153147109E+03  0.96083184127E+03  0.00000000000E+00 0. -1.
          2    1    3    3  501    0 -0.11415004902E+03  0.68959792871E+02 -0.57655634744E+02  0.14529232238E+03  0.00000000000E+00 0. -1.
<mgrwt>
<rscale>  0 0.65153408E+03</rscale>
<asrwt>0</asrwt>
<pdfrwt beam="1">0</pdfrwt>
<pdfrwt beam="2">  1        2 0.38590686E+00 0.65153408E+03</pdfrwt>
<totfact> 0.44946040E+00</totfact>
</mgrwt>
</event>
<event>
 5    1  0.2366700E-004  0.6583495E+03  0.7818608E-02  0.9791237E-01
         13   -1    0    0    0    0  0.00000000000E+00  0.00000000000E+00  0.10000000000E+04  0.10000000000E+04  0.00000000000E+00 0. -1.
          2   -1    0    0  501    0 -0.00000000000E+00 -0.00000000000E+00 -0.10835600529E+03  0.10835600529E+03  0.00000000000E+00 0. -1.
    9000006    2    1    2  501    0  0.00000000000E+00  0.00000000000E+00  0.89164399471E+03  0.11083560053E+04  0.65834946736E+03 0.  0.
         13    1    3    3    0    0  0.16118900876E+03  0.16712635540E+02  0.92819234805E+03  0.94223258472E+03  0.00000000000E+00 0. -1.
          2    1    3    3  501    0 -0.16118900876E+03 -0.16712635540E+02 -0.36548353340E+02  0.16612342057E+03  0.00000000000E+00 0. -1.
<mgrwt>
<rscale>  0 0.65834947E+03</rscale>
<asrwt>0</asrwt>
<pdfrwt beam="1">0</pdfrwt>
<pdfrwt beam="2">  1        2 0.39402267E+00 0.65834947E+03</pdfrwt>
<totfact> 0.41905653E+00</totfact>
</mgrwt>
</event>
<event>
 5    1  0.2366700E-004  0.6500663E+03  0.7818608E-02  0.9806655E-01
         13   -1    0    0    0    0  0.00000000000E+00  0.00000000000E+00  0.10000000000E+04  0.10000000000E+04  0.00000000000E+00 0. -1.
          2   -1    0    0  501    0 -0.00000000000E+00 -0.00000000000E+00 -0.10564656138E+03  0.10564656138E+03  0.00000000000E+00 0. -1.
    9000006    2    1    2  501    0  0.00000000000E+00  0.00000000000E+00  0.89435343862E+03  0.11056465614E+04  0.65006633933E+03 0.  0.
         13    1    3    3    0    0  0.16618861676E+03  0.25131132391E+03  0.23977050248E+03  0.38505315442E+03  0.00000000000E+00 0. -1.
          4    1    3    3  501    0 -0.16618861676E+03 -0.25131132391E+03  0.65458293614E+03  0.72059340696E+03  0.00000000000E+00 0. -1.
<mgrwt>
<rscale>  0 0.65006634E+03</rscale>
<asrwt>0</asrwt>
<pdfrwt beam="1">0</pdfrwt>
<pdfrwt beam="2">  1        2 0.38417012E+00 0.65006634E+03</pdfrwt>
<totfact> 0.45622038E+00</totfact>
</mgrwt>
</event>
<event>
 5    1  0.2366700E-004  0.6595502E+03  0.7818608E-02  0.9789022E-01
         13   -1    0    0    0    0  0.00000000000E+00  0.00000000000E+00  0.10000000000E+04  0.10000000000E+04  0.00000000000E+00 0. -1.
          2   -1    0    0  501    0 -0.00000000000E+00 -0.00000000000E+00 -0.10875161328E+03  0.10875161328E+03  0.00000000000E+00 0. -1.
    9000006    2    1    2  501    0  0.00000000000E+00  0.00000000000E+00  0.89124838672E+03  0.11087516133E+04  0.65955018999E+03 0.  0.
         13    1    3    3    0    0 -0.68684881613E+02  0.11979160312E+02  0.98746827397E+03  0.98992661614E+03  0.00000000000E+00 0. -1.
          2    1    3    3  501    0  0.68684881613E+02 -0.11979160312E+02 -0.96219887247E+02  0.11882499714E+03  0.00000000000E+00 0. -1.
<mgrwt>
<rscale>  0 0.65955019E+03</rscale>
<asrwt>0</asrwt>
<pdfrwt beam="1">0</pdfrwt>
<pdfrwt beam="2">  1        2 0.39546125E+00 0.65955019E+03</pdfrwt>
<totfact> 0.41386572E+00</totfact>
</mgrwt>
</event>
<event>
 5    1  0.2366700E-004  0.7140510E+03  0.7818608E-02  0.9693500E-01
         13   -1    0    0    0    0  0.00000000000E+00  0.00000000000E+00  0.10000000000E+04  0.10000000000E+04  0.00000000000E+00 0. -1.
          2   -1    0    0  501    0 -0.00000000000E+00 -0.00000000000E+00 -0.12746721739E+03  0.12746721739E+03  0.00000000000E+00 0. -1.
    9000006    2    1    2  501    0  0.00000000000E+00  0.00000000000E+00  0.87253278261E+03  0.11274672174E+04  0.71405102728E+03 0.  0.
         13    1    3    3    0    0  0.29456411947E+03  0.91551958268E+02  0.72011915199E+03  0.78340371113E+03  0.00000000000E+00 0. -1.
          4    1    3    3  501    0 -0.29456411947E+03 -0.91551958268E+02  0.15241363062E+03  0.34406350626E+03  0.00000000000E+00 0. -1.
<mgrwt>
<rscale>  0 0.71405103E+03</rscale>
<asrwt>0</asrwt>
<pdfrwt beam="1">0</pdfrwt>
<pdfrwt beam="2">  1        2 0.46351813E+00 0.71405103E+03</pdfrwt>
<totfact> 0.22481037E+00</totfact>
</mgrwt>
</event>
<event>
 5    1  0.2366700E-004  0.6371074E+03  0.7818608E-02  0.9831277E-01
         13   -1    0    0    0    0  0.00000000000E+00  0.00000000000E+00  0.10000000000E+04  0.10000000000E+04  0.00000000000E+00 0. -1.
          2   -1    0    0  501    0 -0.00000000000E+00 -0.00000000000E+00 -0.10147645886E+03  0.10147645886E+03  0.00000000000E+00 0. -1.
    9000006    2    1    2  501    0  0.00000000000E+00  0.00000000000E+00  0.89852354114E+03  0.11014764589E+04  0.63710739709E+03 0.  0.
         13    1    3    3    0    0  0.12645432910E+03 -0.27435263636E+03  0.62400942519E+03  0.69328769580E+03  0.00000000000E+00 0. -1.
          2    1    3    3  501    0 -0.12645432910E+03  0.27435263636E+03  0.27451411596E+03  0.40818876305E+03  0.00000000000E+00 0. -1.
<mgrwt>
<rscale>  0 0.63710740E+03</rscale>
<asrwt>0</asrwt>
<pdfrwt beam="1">0</pdfrwt>
<pdfrwt beam="2">  1        2 0.36900608E+00 0.63710740E+03</pdfrwt>
<totfact> 0.51929985E+00</totfact>
</mgrwt>
</event>
<event>
 5    1  0.2366700E-004  0.6483999E+03  0.7818608E-02  0.9809786E-01
         13   -1    0    0    0    0  0.00000000000E+00  0.00000000000E+00  0.10000000000E+04  0.10000000000E+04  0.00000000000E+00 0. -1.
          2   -1    0    0  501    0 -0.00000000000E+00 -0.00000000000E+00 -0.10510560386E+03  0.10510560386E+03  0.00000000000E+00 0. -1.
    9000006    2    1    2  501    0  0.00000000000E+00  0.00000000000E+00  0.89489439614E+03  0.11051056039E+04  0.64839988851E+03 0.  0.
         13    1    3    3    0    0 -0.18617721118E+03  0.12370940982E+03  0.84766166238E+03  0.87663918799E+03  0.00000000000E+00 0. -1.
          4    1    3    3  501    0  0.18617721118E+03 -0.12370940982E+03  0.47232733762E+02  0.22846641587E+03  0.00000000000E+00 0. -1.
<mgrwt>
<rscale>  0 0.64839989E+03</rscale>
<asrwt>0</asrwt>
<pdfrwt beam="1">0</pdfrwt>
<pdfrwt beam="2">  1        2 0.38220300E+00 0.64839989E+03</pdfrwt>
<totfact> 0.46398841E+00</totfact>
</mgrwt>
</event>
<event>
 5    1  0.2366700E-004  0.6274070E+03  0.7818608E-02  0.9850122E-01
         13   -1    0    0    0    0  0.00000000000E+00  0.00000000000E+00  0.10000000000E+04  0.10000000000E+04  0.00000000000E+00 0. -1.
          2   -1    0    0  501    0 -0.00000000000E+00 -0.00000000000E+00 -0.98409887488E+02  0.98409887488E+02  0.00000000000E+00 0. -1.
    9000006    2    1    2  501    0  0.00000000000E+00  0.00000000000E+00  0.90159011251E+03  0.10984098875E+04  0.62740700502E+03 0.  0.
         13    1    3    3    0    0  0.17614274786E+03  0.72323134852E+02  0.14333434028E+02  0.19095117384E+03  0.00000000000E+00 0. -1.
          4    1    3    3  501    0 -0.17614274786E+03 -0.72323134852E+02  0.88725667848E+03  0.90745871365E+03  0.00000000000E+00 0. -1.
<mgrwt>
<rscale>  0 0.62740701E+03</rscale>
<asrwt>0</asrwt>
<pdfrwt beam="1">0</pdfrwt>
<pdfrwt beam="2">  1        2 0.35785489E+00 0.62740701E+03</pdfrwt>
<totfact> 0.57068351E+00</totfact>
</mgrwt>
</event>
<event>
 5    1  0.2366700E-004  0.5926234E+03  0.7818608E-02  0.9920830E-01
         13   -1    0    0    0    0  0.00000000000E+00  0.00000000000E+00  0.10000000000E+04  0.10000000000E+04  0.00000000000E+00 0. -1.
          2   -1    0    0  501    0 -0.00000000000E+00 -0.00000000000E+00 -0.87800609631E+02  0.87800609631E+02  0.00000000000E+00 0. -1.
    9000006    2    1    2  501    0  0.00000000000E+00  0.00000000000E+00  0.91219939037E+03  0.10878006096E+04  0.59262335300E+03 0.  0.
         13    1    3    3    0    0  0.20698293629E+03 -0.20676708653E+03  0.54231369287E+03  0.61619696970E+03  0.00000000000E+00 0. -1.
          4    1    3    3  501    0 -0.20698293629E+03  0.20676708653E+03  0.36988569750E+03  0.47160363993E+03  0.00000000000E+00 0. -1.
<mgrwt>
<rscale>  0 0.59262335E+03</rscale>
<asrwt>0</asrwt>
<pdfrwt beam="1">0</pdfrwt>
<pdfrwt beam="2">  1        2 0.31927562E+00 0.59262335E+03</pdfrwt>
<totfact> 0.78743656E+00</totfact>
</mgrwt>
</event>
<event>
 5    1  0.2366700E-004  0.6417650E+03  0.7818608E-02  0.9822355E-01
         13   -1    0    0    0    0  0.00000000000E+00  0.00000000000E+00  0.10000000000E+04  0.10000000000E+04  0.00000000000E+00 0. -1.
          2   -1    0    0  501    0 -0.00000000000E+00 -0.00000000000E+00 -0.10296557812E+03  0.10296557812E+03  0.00000000000E+00 0. -1.
    9000006    2    1    2  501    0  0.00000000000E+00  0.00000000000E+00  0.89703442188E+03  0.11029655781E+04  0.64176499785E+03 0.  0.
         13    1    3    3    0    0 -0.79100808165E+02 -0.15860663861E+03  0.90824267970E+03  0.92537439391E+03  0.00000000000E+00 0. -1.
          4    1    3    3  501    0  0.79100808165E+02  0.15860663861E+03 -0.11208257821E+02  0.17759118421E+03  0.00000000000E+00 0. -1.
<mgrwt>
<rscale>  0 0.64176500E+03</rscale>
<asrwt>0</asrwt>
<pdfrwt beam="1">0</pdfrwt>
<pdfrwt beam="2">  1        2 0.37442107E+00 0.64176500E+03</pdfrwt>
<totfact> 0.49591330E+00</totfact>
</mgrwt>
</event>
<event>
 5    1  0.2366700E-004  0.6396153E+03  0.7818608E-02  0.9826463E-01
         13   -1    0    0    0    0  0.00000000000E+00  0.00000000000E+00  0.10000000000E+04  0.10000000000E+04  0.00000000000E+00 0. -1.
          2   -1    0    0  501    0 -0.00000000000E+00 -0.00000000000E+00 -0.10227693391E+03  0.10227693391E+03  0.00000000000E+00 0. -1.
    9000006    2    1    2  501    0  0.00000000000E+00  0.00000000000E+00  0.89772306609E+03  0.11022769339E+04  0.63961530286E+03 0.  0.
         13    1    3    3    0    0  0.22632618075E+03 -0.19949614188E+03  0.26603530002E+03  0.40224001737E+03  0.00000000000E+00 0. -1.
          4    1    3    3  501    0 -0.22632618075E+03  0.19949614188E+03  0.63168776607E+03  0.70003691654E+03  0.00000000000E+00 0. -1.
<mgrwt>
<rscale>  0 0.63961530E+03</rscale>
<asrwt>0</asrwt>
<pdfrwt beam="1">0</pdfrwt>
<pdfrwt beam="2">  1        2 0.37191691E+00 0.63961530E+03</pdfrwt>
<totfact> 0.50660587E+00</totfact>
</mgrwt>
</event>
<event>
 5    1  0.2366700E-004  0.6499424E+03  0.7818608E-02  0.9806887E-01
         13   -1    0    0    0    0  0.00000000000E+00  0.00000000000E+00  0.10000000000E+04  0.10000000000E+04  0.00000000000E+00 0. -1.
          2   -1    0    0  501    0 -0.00000000000E+00 -0.00000000000E+00 -0.10560629477E+03  0.10560629477E+03  0.00000000000E+00 0. -1.
    9000006    2    1    2  501    0  0.00000000000E+00  0.00000000000E+00  0.89439370523E+03  0.11056062948E+04  0.64994244291E+03 0.  0.
         13    1    3    3    0    0 -0.30164293212E+03 -0.70294307862E+02  0.27986223351E+03  0.41743576508E+03  0.00000000000E+00 0. -1.
          4    1    3    3  501    0  0.30164293212E+03  0.70294307862E+02  0.61453147171E+03  0.68817052970E+03  0.00000000000E+00 0. -1.
<mgrwt>
<rscale>  0 0.64994244E+03</rscale>
<asrwt>0</asrwt>
<pdfrwt beam="1">0</pdfrwt>
<pdfrwt beam="2">  1        2 0.38402370E+00 0.64994244E+03</pdfrwt>
<totfact> 0.45679451E+00</totfact>
</mgrwt>
</event>
<event>
 5    1  0.2366700E-004  0.5365405E+03  0.7818608E-02  0.1004658E+00
         13   -1    0    0    0    0  0.00000000000E+00  0.00000000000E+00  0.10000000000E+04  0.10000000000E+04  0.00000000000E+00 0. -1.
          2   -1    0    0  501    0 -0.00000000000E+00 -0.00000000000E+00 -0.71968918909E+02  0.71968918909E+02  0.00000000000E+00 0. -1.
    9000006    2    1    2  501    0  0.00000000000E+00  0.00000000000E+00  0.92803108109E+03  0.10719689189E+04  0.53654046971E+03 0.  0.
         13    1    3    3    0    0  0.10015469820E+03  0.20913515616E+03  0.19447712359E+03  0.30263811511E+03  0.00000000000E+00 0. -1.
          2    1    3    3  501    0 -0.10015469820E+03 -0.20913515616E+03  0.73355395750E+03  0.76933080380E+03  0.00000000000E+00 0. -1.
<mgrwt>
<rscale>  0 0.53654047E+03</rscale>
<asrwt>0</asrwt>
<pdfrwt beam="1">0</pdfrwt>
<pdfrwt beam="2">  1        2 0.26170571E+00 0.53654047E+03</pdfrwt>
<totfact> 0.12654361E+01</totfact>
</mgrwt>
</event>
<event>
 5    1  0.2366700E-004  0.6430564E+03  0.7818608E-02  0.9819896E-01
         13   -1    0    0    0    0  0.00000000000E+00  0.00000000000E+00  0.10000000000E+04  0.10000000000E+04  0.00000000000E+00 0. -1.
          2   -1    0    0  501    0 -0.00000000000E+00 -0.00000000000E+00 -0.10338037232E+03  0.10338037232E+03  0.00000000000E+00 0. -1.
    9000006    2    1    2  501    0  0.00000000000E+00  0.00000000000E+00  0.89661962768E+03  0.11033803723E+04  0.64305636555E+03 0.  0.
         13    1    3    3    0    0 -0.24447535204E+02  0.23936674330E+03  0.82364414431E+02  0.25431873022E+03  0.00000000000E+00 0. -1.
          2    1    3    3  501    0  0.24447535204E+02 -0.23936674330E+03  0.81425521325E+03  0.84906164210E+03  0.00000000000E+00 0. -1.
<mgrwt>
<rscale>  0 0.64305637E+03</rscale>
<asrwt>0</asrwt>
<pdfrwt beam="1">0</pdfrwt>
<pdfrwt beam="2">  1        2 0.37592942E+00 0.64305637E+03</pdfrwt>
<totfact> 0.48957291E+00</totfact>
</mgrwt>
</event>
<event>
 5    1  0.2366700E-004  0.6376901E+03  0.7818608E-02  0.9830156E-01
         13   -1    0    0    0    0  0.00000000000E+00  0.00000000000E+00  0.10000000000E+04  0.10000000000E+04  0.00000000000E+00 0. -1.
          2   -1    0    0  501    0 -0.00000000000E+00 -0.00000000000E+00 -0.10166216138E+03  0.10166216138E+03  0.00000000000E+00 0. -1.
    9000006    2    1    2  501    0  0.00000000000E+00  0.00000000000E+00  0.89833783862E+03  0.11016621614E+04  0.63769008580E+03 0.  0.
         13    1    3    3    0    0 -0.14755038439E+02  0.28720775310E+03  0.68702481133E+03  0.74478795370E+03  0.00000000000E+00 0. -1.
          4    1    3    3  501    0  0.14755038439E+02 -0.28720775310E+03  0.21131302729E+03  0.35687420768E+03  0.00000000000E+00 0. -1.
<mgrwt>
<rscale>  0 0.63769009E+03</rscale>
<asrwt>0</asrwt>
<pdfrwt beam="1">0</pdfrwt>
<pdfrwt beam="2">  1        2 0.36968137E+00 0.63769009E+03</pdfrwt>
<totfact> 0.51632927E+00</totfact>
</mgrwt>
</event>
<event>
 5    1  0.2366700E-004  0.6458207E+03  0.7818608E-02  0.9814653E-01
         13   -1    0    0    0    0  0.00000000000E+00  0.00000000000E+00  0.10000000000E+04  0.10000000000E+04  0.00000000000E+00 0. -1.
          2   -1    0    0  501    0 -0.00000000000E+00 -0.00000000000E+00 -0.10427110460E+03  0.10427110460E+03  0.00000000000E+00 0. -1.
    9000006    2    1    2  501    0  0.00000000000E+00  0.00000000000E+00  0.89572889540E+03  0.11042711046E+04  0.64582073239E+03 0.  0.
         13    1    3    3    0    0 -0.31465597935E+03 -0.24678178924E+02  0.33122022551E+03  0.45751965602E+03  0.00000000000E+00 0. -1.
          4    1    3    3  501    0  0.31465597935E+03  0.24678178924E+02  0.56450866989E+03  0.64675144858E+03  0.00000000000E+00 0. -1.
<mgrwt>
<rscale>  0 0.64582073E+03</rscale>
<asrwt>0</asrwt>
<pdfrwt beam="1">0</pdfrwt>
<pdfrwt beam="2">  1        2 0.37916845E+00 0.64582073E+03</pdfrwt>
<totfact> 0.47620759E+00</totfact>
</mgrwt>
</event>
<event>
 5    1  0.2366700E-004  0.6499496E+03  0.7818608E-02  0.9806874E-01
         13   -1    0    0    0    0  0.00000000000E+00  0.00000000000E+00  0.10000000000E+04  0.10000000000E+04  0.00000000000E+00 0. -1.
          2   -1    0    0  501    0 -0.00000000000E+00 -0.00000000000E+00 -0.10560861106E+03  0.10560861106E+03  0.00000000000E+00 0. -1.
    9000006    2    1    2  501    0  0.00000000000E+00  0.00000000000E+00  0.89439138894E+03  0.11056086111E+04  0.64994957053E+03 0.  0.
         13    1    3    3    0    0 -0.43813898412E+02 -0.28119469305E+03  0.71409812426E+03  0.76871727193E+03  0.00000000000E+00 0. -1.
          4    1    3    3  501    0  0.43813898412E+02  0.28119469305E+03  0.18029326468E+03  0.33689133913E+03  0.00000000000E+00 0. -1.
<mgrwt>
<rscale>  0 0.64994957E+03</rscale>
<asrwt>0</asrwt>
<pdfrwt beam="1">0</pdfrwt>
<pdfrwt beam="2">  1        2 0.38403212E+00 0.64994957E+03</pdfrwt>
<totfact> 0.45676146E+00</totfact>
</mgrwt>
</event>
<event>
 5    1  0.2366700E-004  0.6555110E+03  0.7818608E-02  0.9796493E-01
         13   -1    0    0    0    0  0.00000000000E+00  0.00000000000E+00  0.10000000000E+04  0.10000000000E+04  0.00000000000E+00 0. -1.
          2   -1    0    0  501    0 -0.00000000000E+00 -0.00000000000E+00 -0.10742365993E+03  0.10742365993E+03  0.00000000000E+00 0. -1.
    9000006    2    1    2  501    0  0.00000000000E+00  0.00000000000E+00  0.89257634007E+03  0.11074236599E+04  0.65551097604E+03 0.  0.
         13    1    3    3    0    0  0.62691479684E+02  0.19559558037E+03  0.87778424571E+03  0.90149488889E+03  0.00000000000E+00 0. -1.
          4    1    3    3  501    0 -0.62691479684E+02 -0.19559558037E+03  0.14792094368E+02  0.20592877104E+03  0.00000000000E+00 0. -1.
<mgrwt>
<rscale>  0 0.65551098E+03</rscale>
<asrwt>0</asrwt>
<pdfrwt beam="1">0</pdfrwt>
<pdfrwt beam="2">  1        2 0.39063231E+00 0.65551098E+03</pdfrwt>
<totfact> 0.43152397E+00</totfact>
</mgrwt>
</event>
<event>
 5    1  0.2366700E-004  0.6548918E+03  0.7818608E-02  0.9797643E-01
         13   -1    0    0    0    0  0.00000000000E+00  0.00000000000E+00  0.10000000000E+04  0.10000000000E+04  0.00000000000E+00 0. -1.
          2   -1    0    0  501    0 -0.00000000000E+00 -0.00000000000E+00 -0.10722080327E+03  0.10722080327E+03  0.00000000000E+00 0. -1.
    9000006    2    1    2  501    0  0.00000000000E+00  0.00000000000E+00  0.89277919673E+03  0.11072208033E+04  0.65489175675E+03 0.  0.
         13    1    3    3    0    0  0.29833638530E+03  0.13562867081E+02  0.67342297609E+03  0.73667296332E+03  0.00000000000E+00 0. -1.
          2    1    3    3  501    0 -0.29833638530E+03 -0.13562867081E+02  0.21935622064E+03  0.37054783995E+03  0.00000000000E+00 0. -1.
<mgrwt>
<rscale>  0 0.65489176E+03</rscale>
<asrwt>0</asrwt>
<pdfrwt beam="1">0</pdfrwt>
<pdfrwt beam="2">  1        2 0.38989465E+00 0.65489176E+03</pdfrwt>
<totfact> 0.43428057E+00</totfact>
</mgrwt>
</event>
<event>
 5    1  0.2366700E-004  0.6548520E+03  0.7818608E-02  0.9797717E-01
         13   -1    0    0    0    0  0.00000000000E+00  0.00000000000E+00  0.10000000000E+04  0.10000000000E+04  0.00000000000E+00 0. -1.
          2   -1    0    0  501    0 -0.00000000000E+00 -0.00000000000E+00 -0.10720777776E+03  0.10720777776E+03  0.00000000000E+00 0. -1.
    9000006    2    1    2  501    0  0.00000000000E+00  0.00000000000E+00  0.89279222224E+03  0.11072077778E+04  0.65485197643E+03 0.  0.
         13    1    3    3    0    0  0.27509863100E+03  0.16476474610E+03  0.33448388370E+03  0.46336394636E+03  0.00000000000E+00 0. -1.
          2    1    3    3  501    0 -0.27509863100E+03 -0.16476474610E+03  0.55830833854E+03  0.64384383140E+03  0.00000000000E+00 0. -1.
<mgrwt>
<rscale>  0 0.65485198E+03</rscale>
<asrwt>0</asrwt>
<pdfrwt beam="1">0</pdfrwt>
<pdfrwt beam="2">  1        2 0.38984729E+00 0.65485198E+03</pdfrwt>
<totfact> 0.43445812E+00</totfact>
</mgrwt>
</event>
<event>
 5    1  0.2366700E-004  0.6475775E+03  0.7818608E-02  0.9811335E-01
         13   -1    0    0    0    0  0.00000000000E+00  0.00000000000E+00  0.10000000000E+04  0.10000000000E+04  0.00000000000E+00 0. -1.
          2   -1    0    0  501    0 -0.00000000000E+00 -0.00000000000E+00 -0.10483916733E+03  0.10483916733E+03  0.00000000000E+00 0. -1.
    9000006    2    1    2  501    0  0.00000000000E+00  0.00000000000E+00  0.89516083267E+03  0.11048391673E+04  0.64757753924E+03 0.  0.
         13    1    3    3    0    0 -0.38553382494E+02 -0.15611992825E+03  0.92705337948E+03  0.94089731837E+03  0.00000000000E+00 0. -1.
          2    1    3    3  501    0  0.38553382494E+02  0.15611992825E+03 -0.31892546815E+02  0.16394184896E+03  0.00000000000E+00 0. -1.
<mgrwt>
<rscale>  0 0.64757754E+03</rscale>
<asrwt>0</asrwt>
<pdfrwt beam="1">0</pdfrwt>
<pdfrwt beam="2">  1        2 0.38123414E+00 0.64757754E+03</pdfrwt>
<totfact> 0.46785837E+00</totfact>
</mgrwt>
</event>
<event>
 5    1  0.2366700E-004  0.6229155E+03  0.7818608E-02  0.9858972E-01
         13   -1    0    0    0    0  0.00000000000E+00  0.00000000000E+00  0.10000000000E+04  0.10000000000E+04  0.00000000000E+00 0. -1.
          2   -1    0    0  501    0 -0.00000000000E+00 -0.00000000000E+00 -0.97005938627E+02  0.97005938627E+02  0.00000000000E+00 0. -1.
    9000006    2    1    2  501    0  0.00000000000E+00  0.00000000000E+00  0.90299406137E+03  0.10970059386E+04  0.62291552759E+03 0.  0.
         13    1    3    3    0    0 -0.11969042006E+03 -0.14410871630E+03  0.13299310036E+02  0.18780306285E+03  0.00000000000E+00 0. -1.
          2    1    3    3  501    0  0.11969042006E+03  0.14410871630E+03  0.88969475134E+03  0.90920287578E+03  0.00000000000E+00 0. -1.
<mgrwt>
<rscale>  0 0.62291553E+03</rscale>
<asrwt>0</asrwt>
<pdfrwt beam="1">0</pdfrwt>
<pdfrwt beam="2">  1        2 0.35274961E+00 0.62291553E+03</pdfrwt>
<totfact> 0.59574364E+00</totfact>
</mgrwt>
</event>
<event>
 5    1  0.2366700E-004  0.6637684E+03  0.7818608E-02  0.9781281E-01
         13   -1    0    0    0    0  0.00000000000E+00  0.00000000000E+00  0.10000000000E+04  0.10000000000E+04  0.00000000000E+00 0. -1.
          2   -1    0    0  501    0 -0.00000000000E+00 -0.00000000000E+00 -0.11014710680E+03  0.11014710680E+03  0.00000000000E+00 0. -1.
    9000006    2    1    2  501    0  0.00000000000E+00  0.00000000000E+00  0.88985289320E+03  0.11101471068E+04  0.66376835355E+03 0.  0.
         13    1    3    3    0    0  0.61078266043E+02 -0.24927873302E+03  0.79685251830E+03  0.83716448637E+03  0.00000000000E+00 0. -1.
          2    1    3    3  501    0 -0.61078266043E+02  0.24927873302E+03  0.93000374905E+02  0.27298262042E+03  0.00000000000E+00 0. -1.
<mgrwt>
<rscale>  0 0.66376835E+03</rscale>
<asrwt>0</asrwt>
<pdfrwt beam="1">0</pdfrwt>
<pdfrwt beam="2">  1        2 0.40053578E+00 0.66376835E+03</pdfrwt>
<totfact> 0.39601411E+00</totfact>
</mgrwt>
</event>
<event>
 5    1  0.2366700E-004  0.6504389E+03  0.7818608E-02  0.9805956E-01
         13   -1    0    0    0    0  0.00000000000E+00  0.00000000000E+00  0.10000000000E+04  0.10000000000E+04  0.00000000000E+00 0. -1.
          2   -1    0    0  501    0 -0.00000000000E+00 -0.00000000000E+00 -0.10576770541E+03  0.10576770541E+03  0.00000000000E+00 0. -1.
    9000006    2    1    2  501    0  0.00000000000E+00  0.00000000000E+00  0.89423229459E+03  0.11057677054E+04  0.65043894535E+03 0.  0.
         13    1    3    3    0    0  0.68325837682E+02  0.39169078634E+02  0.98354343700E+03  0.98669160800E+03  0.00000000000E+00 0. -1.
          4    1    3    3  501    0 -0.68325837682E+02 -0.39169078634E+02 -0.89311142412E+02  0.11907609741E+03  0.00000000000E+00 0. -1.
<mgrwt>
<rscale>  0 0.65043895E+03</rscale>
<asrwt>0</asrwt>
<pdfrwt beam="1">0</pdfrwt>
<pdfrwt beam="2">  1        2 0.38461065E+00 0.65043895E+03</pdfrwt>
<totfact> 0.45449704E+00</totfact>
</mgrwt>
</event>
<event>
 5    1  0.2366700E-004  0.6325818E+03  0.7818608E-02  0.9840023E-01
         13   -1    0    0    0    0  0.00000000000E+00  0.00000000000E+00  0.10000000000E+04  0.10000000000E+04  0.00000000000E+00 0. -1.
          2   -1    0    0  501    0 -0.00000000000E+00 -0.00000000000E+00 -0.10003994796E+03  0.10003994796E+03  0.00000000000E+00 0. -1.
    9000006    2    1    2  501    0  0.00000000000E+00  0.00000000000E+00  0.89996005204E+03  0.11000399480E+04  0.63258184596E+03 0.  0.
         13    1    3    3    0    0  0.93610399284E+01 -0.25771007369E+03  0.76844322713E+03  0.81055974763E+03  0.00000000000E+00 0. -1.
          4    1    3    3  501    0 -0.93610399284E+01  0.25771007369E+03  0.13151682490E+03  0.28948020033E+03  0.00000000000E+00 0. -1.
<mgrwt>
<rscale>  0 0.63258185E+03</rscale>
<asrwt>0</asrwt>
<pdfrwt beam="1">0</pdfrwt>
<pdfrwt beam="2">  1        2 0.36378240E+00 0.63258185E+03</pdfrwt>
<totfact> 0.54281465E+00</totfact>
</mgrwt>
</event>
<event>
 5    1  0.2366700E-004  0.6612507E+03  0.7818608E-02  0.9785894E-01
         13   -1    0    0    0    0  0.00000000000E+00  0.00000000000E+00  0.10000000000E+04  0.10000000000E+04  0.00000000000E+00 0. -1.
          2   -1    0    0  501    0 -0.00000000000E+00 -0.00000000000E+00 -0.10931310874E+03  0.10931310874E+03  0.00000000000E+00 0. -1.
    9000006    2    1    2  501    0  0.00000000000E+00  0.00000000000E+00  0.89068689126E+03  0.11093131087E+04  0.66125065970E+03 0.  0.
         13    1    3    3    0    0 -0.19000727756E+03 -0.17228959383E+02  0.89833699534E+03  0.91837299598E+03  0.00000000000E+00 0. -1.
          4    1    3    3  501    0  0.19000727756E+03  0.17228959383E+02 -0.76501040741E+01  0.19094011275E+03  0.00000000000E+00 0. -1.
<mgrwt>
<rscale>  0 0.66125066E+03</rscale>
<asrwt>0</asrwt>
<pdfrwt beam="1">0</pdfrwt>
<pdfrwt beam="2">  1        2 0.39750305E+00 0.66125066E+03</pdfrwt>
<totfact> 0.40659769E+00</totfact>
</mgrwt>
</event>
<event>
 5    1  0.2366700E-004  0.6818358E+03  0.7818608E-02  0.9748810E-01
         13   -1    0    0    0    0  0.00000000000E+00  0.00000000000E+00  0.10000000000E+04  0.10000000000E+04  0.00000000000E+00 0. -1.
          2   -1    0    0  501    0 -0.00000000000E+00 -0.00000000000E+00 -0.11622502257E+03  0.11622502257E+03  0.00000000000E+00 0. -1.
    9000006    2    1    2  501    0  0.00000000000E+00  0.00000000000E+00  0.88377497743E+03  0.11162250226E+04  0.68183582355E+03 0.  0.
         13    1    3    3    0    0 -0.69019833192E+02 -0.28498248476E+03  0.15717413254E+03  0.33268973824E+03  0.00000000000E+00 0. -1.
          4    1    3    3  501    0  0.69019833192E+02  0.28498248476E+03  0.72660084489E+03  0.78353528433E+03  0.00000000000E+00 0. -1.
<mgrwt>
<rscale>  0 0.68183582E+03</rscale>
<asrwt>0</asrwt>
<pdfrwt beam="1">0</pdfrwt>
<pdfrwt beam="2">  1        2 0.42263734E+00 0.68183582E+03</pdfrwt>
<totfact> 0.32603081E+00</totfact>
</mgrwt>
</event>
<event>
 5    1  0.2366700E-004  0.6434044E+03  0.7818608E-02  0.9819235E-01
         13   -1    0    0    0    0  0.00000000000E+00  0.00000000000E+00  0.10000000000E+04  0.10000000000E+04  0.00000000000E+00 0. -1.
          2   -1    0    0  501    0 -0.00000000000E+00 -0.00000000000E+00 -0.10349230905E+03  0.10349230905E+03  0.00000000000E+00 0. -1.
    9000006    2    1    2  501    0  0.00000000000E+00  0.00000000000E+00  0.89650769095E+03  0.11034923091E+04  0.64340441110E+03 0.  0.
         13    1    3    3    0    0 -0.12874074332E+03 -0.14905709171E+03  0.88450621390E+03  0.90616965189E+03  0.00000000000E+00 0. -1.
          2    1    3    3  501    0  0.12874074332E+03  0.14905709171E+03  0.12001477047E+02  0.19732265717E+03  0.00000000000E+00 0. -1.
<mgrwt>
<rscale>  0 0.64340441E+03</rscale>
<asrwt>0</asrwt>
<pdfrwt beam="1">0</pdfrwt>
<pdfrwt beam="2">  1        2 0.37633646E+00 0.64340441E+03</pdfrwt>
<totfact> 0.48787473E+00</totfact>
</mgrwt>
</event>
<event>
 5    1  0.2366700E-004  0.5817056E+03  0.7818608E-02  0.9944105E-01
         13   -1    0    0    0    0  0.00000000000E+00  0.00000000000E+00  0.10000000000E+04  0.10000000000E+04  0.00000000000E+00 0. -1.
          2   -1    0    0  501    0 -0.00000000000E+00 -0.00000000000E+00 -0.84595337892E+02  0.84595337892E+02  0.00000000000E+00 0. -1.
    9000006    2    1    2  501    0  0.00000000000E+00  0.00000000000E+00  0.91540466211E+03  0.10845953379E+04  0.58170555401E+03 0.  0.
         13    1    3    3    0    0 -0.22920474685E+03  0.96243532646E+02  0.73922286753E+03  0.77990261023E+03  0.00000000000E+00 0. -1.
          4    1    3    3  501    0  0.22920474685E+03 -0.96243532646E+02  0.17618179457E+03  0.30469272767E+03  0.00000000000E+00 0. -1.
<mgrwt>
<rscale>  0 0.58170555E+03</rscale>
<asrwt>0</asrwt>
<pdfrwt beam="1">0</pdfrwt>
<pdfrwt beam="2">  1        2 0.30762006E+00 0.58170555E+03</pdfrwt>
<totfact> 0.86706020E+00</totfact>
</mgrwt>
</event>
<event>
 5    1  0.2366700E-004  0.6587534E+03  0.7818608E-02  0.9790491E-01
         13   -1    0    0    0    0  0.00000000000E+00  0.00000000000E+00  0.10000000000E+04  0.10000000000E+04  0.00000000000E+00 0. -1.
          2   -1    0    0  501    0 -0.00000000000E+00 -0.00000000000E+00 -0.10848901976E+03  0.10848901976E+03  0.00000000000E+00 0. -1.
    9000006    2    1    2  501    0  0.00000000000E+00  0.00000000000E+00  0.89151098024E+03  0.11084890198E+04  0.65875342811E+03 0.  0.
         13    1    3    3    0    0  0.42221270569E+02 -0.32010707128E+01  0.99540121654E+03  0.99630139237E+03  0.00000000000E+00 0. -1.
          4    1    3    3  501    0 -0.42221270569E+02  0.32010707128E+01 -0.10389023630E+03  0.11218762740E+03  0.00000000000E+00 0. -1.
<mgrwt>
<rscale>  0 0.65875343E+03</rscale>
<asrwt>0</asrwt>
<pdfrwt beam="1">0</pdfrwt>
<pdfrwt beam="2">  1        2 0.39450636E+00 0.65875343E+03</pdfrwt>
<totfact> 0.41730472E+00</totfact>
</mgrwt>
</event>
<event>
 5    1  0.2366700E-004  0.6106150E+03  0.7818608E-02  0.9883625E-01
         13   -1    0    0    0    0  0.00000000000E+00  0.00000000000E+00  0.10000000000E+04  0.10000000000E+04  0.00000000000E+00 0. -1.
          2   -1    0    0  501    0 -0.00000000000E+00 -0.00000000000E+00 -0.93212664732E+02  0.93212664732E+02  0.00000000000E+00 0. -1.
    9000006    2    1    2  501    0  0.00000000000E+00  0.00000000000E+00  0.90678733527E+03  0.10932126647E+04  0.61061498420E+03 0.  0.
         13    1    3    3    0    0 -0.28818197610E+03 -0.12361647286E+02  0.63252683041E+03  0.69519195397E+03  0.00000000000E+00 0. -1.
          2    1    3    3  501    0  0.28818197610E+03  0.12361647286E+02  0.27426050486E+03  0.39802071077E+03  0.00000000000E+00 0. -1.
<mgrwt>
<rscale>  0 0.61061498E+03</rscale>
<asrwt>0</asrwt>
<pdfrwt beam="1">0</pdfrwt>
<pdfrwt beam="2">  1        2 0.33895586E+00 0.61061498E+03</pdfrwt>
<totfact> 0.66867442E+00</totfact>
</mgrwt>
</event>
<event>
 5    1  0.2366700E-004  0.6327479E+03  0.7818608E-02  0.9839701E-01
         13   -1    0    0    0    0  0.00000000000E+00  0.00000000000E+00  0.10000000000E+04  0.10000000000E+04  0.00000000000E+00 0. -1.
          2   -1    0    0  501    0 -0.00000000000E+00 -0.00000000000E+00 -0.10009246084E+03  0.10009246084E+03  0.00000000000E+00 0. -1.
    9000006    2    1    2  501    0  0.00000000000E+00  0.00000000000E+00  0.89990753916E+03  0.11000924608E+04  0.63274785133E+03 0.  0.
         13    1    3    3    0    0  0.11697120304E+03 -0.34630540319E+02 -0.57558033642E+02  0.13488685592E+03  0.00000000000E+00 0. -1.
          4    1    3    3  501    0 -0.11697120304E+03  0.34630540319E+02  0.95746557280E+03  0.96520560492E+03  0.00000000000E+00 0. -1.
<mgrwt>
<rscale>  0 0.63274785E+03</rscale>
<asrwt>0</asrwt>
<pdfrwt beam="1">0</pdfrwt>
<pdfrwt beam="2">  1        2 0.36397335E+00 0.63274785E+03</pdfrwt>
<totfact> 0.54193808E+00</totfact>
</mgrwt>
</event>
<event>
 5    1  0.2366700E-004  0.7325516E+03  0.7818608E-02  0.9663129E-01
         13   -1    0    0    0    0  0.00000000000E+00  0.00000000000E+00  0.10000000000E+04  0.10000000000E+04  0.00000000000E+00 0. -1.
          2   -1    0    0  501    0 -0.00000000000E+00 -0.00000000000E+00 -0.13415797164E+03  0.13415797164E+03  0.00000000000E+00 0. -1.
    9000006    2    1    2  501    0  0.00000000000E+00  0.00000000000E+00  0.86584202836E+03  0.11341579716E+04  0.73255162722E+03 0.  0.
         13    1    3    3    0    0 -0.35028119872E+03 -0.32345634792E+01  0.26724895714E+03  0.44060116395E+03  0.00000000000E+00 0. -1.
          2    1    3    3  501    0  0.35028119872E+03  0.32345634792E+01  0.59859307122E+03  0.69355680769E+03  0.00000000000E+00 0. -1.
<mgrwt>
<rscale>  0 0.73255163E+03</rscale>
<asrwt>0</asrwt>
<pdfrwt beam="1">0</pdfrwt>
<pdfrwt beam="2">  1        2 0.48784820E+00 0.73255163E+03</pdfrwt>
<totfact> 0.17862802E+00</totfact>
</mgrwt>
</event>
<event>
 5    1  0.2366700E-004  0.6390215E+03  0.7818608E-02  0.9827600E-01
         13   -1    0    0    0    0  0.00000000000E+00  0.00000000000E+00  0.10000000000E+04  0.10000000000E+04  0.00000000000E+00 0. -1.
          2   -1    0    0  501    0 -0.00000000000E+00 -0.00000000000E+00 -0.10208711566E+03  0.10208711566E+03  0.00000000000E+00 0. -1.
    9000006    2    1    2  501    0  0.00000000000E+00  0.00000000000E+00  0.89791288434E+03  0.11020871157E+04  0.63902148841E+03 0.  0.
         13    1    3    3    0    0  0.67827201713E+02 -0.25431323702E+03  0.76135757790E+03  0.80556881347E+03  0.00000000000E+00 0. -1.
          4    1    3    3  501    0 -0.67827201713E+02  0.25431323702E+03  0.13655530644E+03  0.29651830219E+03  0.00000000000E+00 0. -1.
<mgrwt>
<rscale>  0 0.63902149E+03</rscale>
<asrwt>0</asrwt>
<pdfrwt beam="1">0</pdfrwt>
<pdfrwt beam="2">  1        2 0.37122666E+00 0.63902149E+03</pdfrwt>
<totfact> 0.50959003E+00</totfact>
</mgrwt>
</event>
<event>
 5    1  0.2366700E-004  0.6333149E+03  0.7818608E-02  0.9838601E-01
         13   -1    0    0    0    0  0.00000000000E+00  0.00000000000E+00  0.10000000000E+04  0.10000000000E+04  0.00000000000E+00 0. -1.
          2   -1    0    0  501    0 -0.00000000000E+00 -0.00000000000E+00 -0.10027194460E+03  0.10027194460E+03  0.00000000000E+00 0. -1.
    9000006    2    1    2  501    0  0.00000000000E+00  0.00000000000E+00  0.89972805540E+03  0.11002719446E+04  0.63331491250E+03 0.  0.
         13    1    3    3    0    0 -0.18192638115E+03 -0.25915833526E+03  0.45580498540E+03  0.55499408610E+03  0.00000000000E+00 0. -1.
          4    1    3    3  501    0  0.18192638115E+03  0.25915833526E+03  0.44392307000E+03  0.54527785850E+03  0.00000000000E+00 0. -1.
<mgrwt>
<rscale>  0 0.63331491E+03</rscale>
<asrwt>0</asrwt>
<pdfrwt beam="1">0</pdfrwt>
<pdfrwt beam="2">  1        2 0.36462602E+00 0.63331491E+03</pdfrwt>
<totfact> 0.53895190E+00</totfact>
</mgrwt>
</event>
<event>
 5    1  0.2366700E-004  0.6518024E+03  0.7818608E-02  0.9803403E-01
         13   -1    0    0    0    0  0.00000000000E+00  0.00000000000E+00  0.10000000000E+04  0.10000000000E+04  0.00000000000E+00 0. -1.
          2   -1    0    0  501    0 -0.00000000000E+00 -0.00000000000E+00 -0.10621160664E+03  0.10621160664E+03  0.00000000000E+00 0. -1.
    9000006    2    1    2  501    0  0.00000000000E+00  0.00000000000E+00  0.89378839336E+03  0.11062116066E+04  0.65180244442E+03 0.  0.
         13    1    3    3    0    0  0.88793291577E+02 -0.14745537452E+03 -0.22774933175E+02  0.17362613192E+03  0.00000000000E+00 0. -1.
          4    1    3    3  501    0 -0.88793291577E+02  0.14745537452E+03  0.91656332654E+03  0.93258547472E+03  0.00000000000E+00 0. -1.
<mgrwt>
<rscale>  0 0.65180244E+03</rscale>
<asrwt>0</asrwt>
<pdfrwt beam="1">0</pdfrwt>
<pdfrwt beam="2">  1        2 0.38622484E+00 0.65180244E+03</pdfrwt>
<totfact> 0.44823261E+00</totfact>
</mgrwt>
</event>
<event>
 5    1  0.2366700E-004  0.6510992E+03  0.7818608E-02  0.9804719E-01
         13   -1    0    0    0    0  0.00000000000E+00  0.00000000000E+00  0.10000000000E+04  0.10000000000E+04  0.00000000000E+00 0. -1.
          2   -1    0    0  501    0 -0.00000000000E+00 -0.00000000000E+00 -0.10598253548E+03  0.10598253548E+03  0.00000000000E+00 0. -1.
    9000006    2    1    2  501    0  0.00000000000E+00  0.00000000000E+00  0.89401746452E+03  0.11059825355E+04  0.65109917980E+03 0.  0.
         13    1    3    3    0    0 -0.30036154261E+03 -0.62557090884E+02  0.63193499103E+03  0.70247582079E+03  0.00000000000E+00 0. -1.
          4    1    3    3  501    0  0.30036154261E+03  0.62557090884E+02  0.26208247348E+03  0.40350671470E+03  0.00000000000E+00 0. -1.
<mgrwt>
<rscale>  0 0.65109918E+03</rscale>
<asrwt>0</asrwt>
<pdfrwt beam="1">0</pdfrwt>
<pdfrwt beam="2">  1        2 0.38539185E+00 0.65109918E+03</pdfrwt>
<totfact> 0.45145547E+00</totfact>
</mgrwt>
</event>
<event>
 5    1  0.2366700E-004  0.6561403E+03  0.7818608E-02  0.9795325E-01
         13   -1    0    0    0    0  0.00000000000E+00  0.00000000000E+00  0.10000000000E+04  0.10000000000E+04  0.00000000000E+00 0. -1.
          2   -1    0    0  501    0 -0.00000000000E+00 -0.00000000000E+00 -0.10763003383E+03  0.10763003383E+03  0.00000000000E+00 0. -1.
    9000006    2    1    2  501    0  0.00000000000E+00  0.00000000000E+00  0.89236996617E+03  0.11076300338E+04  0.65614033205E+03 0.  0.
         13    1    3    3    0    0 -0.12453085964E+03 -0.31382672654E+02 -0.63434348218E+02  0.14323660035E+03  0.00000000000E+00 0. -1.
          2    1    3    3  501    0  0.12453085964E+03  0.31382672654E+02  0.95580431438E+03  0.96439343348E+03  0.00000000000E+00 0. -1.
<mgrwt>
<rscale>  0 0.65614033E+03</rscale>
<asrwt>0</asrwt>
<pdfrwt beam="1">0</pdfrwt>
<pdfrwt beam="2">  1        2 0.39138277E+00 0.65614033E+03</pdfrwt>
<totfact> 0.42873581E+00</totfact>
</mgrwt>
</event>
<event>
 5    1  0.2366700E-004  0.6520776E+03  0.7818608E-02  0.9802889E-01
         13   -1    0    0    0    0  0.00000000000E+00  0.00000000000E+00  0.10000000000E+04  0.10000000000E+04  0.00000000000E+00 0. -1.
          2   -1    0    0  501    0 -0.00000000000E+00 -0.00000000000E+00 -0.10630129568E+03  0.10630129568E+03  0.00000000000E+00 0. -1.
    9000006    2    1    2  501    0  0.00000000000E+00  0.00000000000E+00  0.89369870432E+03  0.11063012957E+04  0.65207758949E+03 0.  0.
         13    1    3    3    0    0  0.30468794811E+03 -0.10972927943E+02  0.64284754303E+03  0.71148303877E+03  0.00000000000E+00 0. -1.
          2    1    3    3  501    0 -0.30468794811E+03  0.10972927943E+02  0.25085116129E+03  0.39481825691E+03  0.00000000000E+00 0. -1.
<mgrwt>
<rscale>  0 0.65207759E+03</rscale>
<asrwt>0</asrwt>
<pdfrwt beam="1">0</pdfrwt>
<pdfrwt beam="2">  1        2 0.38655098E+00 0.65207759E+03</pdfrwt>
<totfact> 0.44697645E+00</totfact>
</mgrwt>
</event>
<event>
 5    1  0.2366700E-004  0.6435231E+03  0.7818608E-02  0.9819009E-01
         13   -1    0    0    0    0  0.00000000000E+00  0.00000000000E+00  0.10000000000E+04  0.10000000000E+04  0.00000000000E+00 0. -1.
          2   -1    0    0  501    0 -0.00000000000E+00 -0.00000000000E+00 -0.10353049631E+03  0.10353049631E+03  0.00000000000E+00 0. -1.
    9000006    2    1    2  501    0  0.00000000000E+00  0.00000000000E+00  0.89646950369E+03  0.11035304963E+04  0.64352310388E+03 0.  0.
         13    1    3    3    0    0 -0.44147170935E+02 -0.15550783346E+03  0.92531058158E+03  0.93932493385E+03  0.00000000000E+00 0. -1.
          4    1    3    3  501    0  0.44147170935E+02  0.15550783346E+03 -0.28841077882E+02  0.16420556246E+03  0.00000000000E+00 0. -1.
<mgrwt>
<rscale>  0 0.64352310E+03</rscale>
<asrwt>0</asrwt>
<pdfrwt beam="1">0</pdfrwt>
<pdfrwt beam="2">  1        2 0.37647533E+00 0.64352310E+03</pdfrwt>
<totfact> 0.48729662E+00</totfact>
</mgrwt>
</event>
<event>
 5    1  0.2366700E-004  0.6632499E+03  0.7818608E-02  0.9782230E-01
         13   -1    0    0    0    0  0.00000000000E+00  0.00000000000E+00  0.10000000000E+04  0.10000000000E+04  0.00000000000E+00 0. -1.
          2   -1    0    0  501    0 -0.00000000000E+00 -0.00000000000E+00 -0.10997510127E+03  0.10997510127E+03  0.00000000000E+00 0. -1.
    9000006    2    1    2  501    0  0.00000000000E+00  0.00000000000E+00  0.89002489873E+03  0.11099751013E+04  0.66324988132E+03 0.  0.
         13    1    3    3    0    0 -0.22954550905E+03  0.23261419044E+03  0.53930567446E+03  0.63059583952E+03  0.00000000000E+00 0. -1.
          4    1    3    3  501    0  0.22954550905E+03 -0.23261419044E+03  0.35071922427E+03  0.47937926175E+03  0.00000000000E+00 0. -1.
<mgrwt>
<rscale>  0 0.66324988E+03</rscale>
<asrwt>0</asrwt>
<pdfrwt beam="1">0</pdfrwt>
<pdfrwt beam="2">  1        2 0.39991030E+00 0.66324988E+03</pdfrwt>
<totfact> 0.39817641E+00</totfact>
</mgrwt>
</event>
<event>
 5    1  0.2366700E-004  0.6558167E+03  0.7818608E-02  0.9795925E-01
         13   -1    0    0    0    0  0.00000000000E+00  0.00000000000E+00  0.10000000000E+04  0.10000000000E+04  0.00000000000E+00 0. -1.
          2   -1    0    0  501    0 -0.00000000000E+00 -0.00000000000E+00 -0.10752387601E+03  0.10752387601E+03  0.00000000000E+00 0. -1.
    9000006    2    1    2  501    0  0.00000000000E+00  0.00000000000E+00  0.89247612399E+03  0.11075238760E+04  0.65581666954E+03 0.  0.
         13    1    3    3    0    0 -0.22692146420E+03  0.52197622110E+02  0.56333405262E+02  0.23956501250E+03  0.00000000000E+00 0. -1.
          4    1    3    3  501    0  0.22692146420E+03 -0.52197622110E+02  0.83614271873E+03  0.86795886351E+03  0.00000000000E+00 0. -1.
<mgrwt>
<rscale>  0 0.65581667E+03</rscale>
<asrwt>0</asrwt>
<pdfrwt beam="1">0</pdfrwt>
<pdfrwt beam="2">  1        2 0.39099674E+00 0.65581667E+03</pdfrwt>
<totfact> 0.43016799E+00</totfact>
</mgrwt>
</event>
<event>
 5    1  0.2366700E-004  0.5620520E+03  0.7818608E-02  0.9987422E-01
         13   -1    0    0    0    0  0.00000000000E+00  0.00000000000E+00  0.10000000000E+04  0.10000000000E+04  0.00000000000E+00 0. -1.
          2   -1    0    0  501    0 -0.00000000000E+00 -0.00000000000E+00 -0.78975621432E+02  0.78975621432E+02  0.00000000000E+00 0. -1.
    9000006    2    1    2  501    0  0.00000000000E+00  0.00000000000E+00  0.92102437857E+03  0.10789756214E+04  0.56205203116E+03 0.  0.
         13    1    3    3    0    0  0.25928382799E+03 -0.17856124410E+02  0.66573852274E+03  0.71467106091E+03  0.00000000000E+00 0. -1.
          4    1    3    3  501    0 -0.25928382799E+03  0.17856124410E+02  0.25528585582E+03  0.36430456052E+03  0.00000000000E+00 0. -1.
<mgrwt>
<rscale>  0 0.56205203E+03</rscale>
<asrwt>0</asrwt>
<pdfrwt beam="1">0</pdfrwt>
<pdfrwt beam="2">  1        2 0.28718468E+00 0.56205203E+03</pdfrwt>
<totfact> 0.10259946E+01</totfact>
</mgrwt>
</event>
<event>
 5    1  0.2366700E-004  0.6529222E+03  0.7818608E-02  0.9801311E-01
         13   -1    0    0    0    0  0.00000000000E+00  0.00000000000E+00  0.10000000000E+04  0.10000000000E+04  0.00000000000E+00 0. -1.
          2   -1    0    0  501    0 -0.00000000000E+00 -0.00000000000E+00 -0.10657684631E+03  0.10657684631E+03  0.00000000000E+00 0. -1.
    9000006    2    1    2  501    0  0.00000000000E+00  0.00000000000E+00  0.89342315369E+03  0.11065768463E+04  0.65292218926E+03 0.  0.
         13    1    3    3    0    0  0.24980287138E+03  0.20776325399E+03  0.39285505840E+03  0.50980598385E+03  0.00000000000E+00 0. -1.
          4    1    3    3  501    0 -0.24980287138E+03 -0.20776325399E+03  0.50056809529E+03  0.59677086246E+03  0.00000000000E+00 0. -1.
<mgrwt>
<rscale>  0 0.65292219E+03</rscale>
<asrwt>0</asrwt>
<pdfrwt beam="1">0</pdfrwt>
<pdfrwt beam="2">  1        2 0.38755299E+00 0.65292219E+03</pdfrwt>
<totfact> 0.44313706E+00</totfact>
</mgrwt>
</event>
<event>
 5    1  0.2366700E-004  0.6828082E+03  0.7818608E-02  0.9747093E-01
         13   -1    0    0    0    0  0.00000000000E+00  0.00000000000E+00  0.10000000000E+04  0.10000000000E+04  0.00000000000E+00 0. -1.
          2   -1    0    0  501    0 -0.00000000000E+00 -0.00000000000E+00 -0.11655677069E+03  0.11655677069E+03  0.00000000000E+00 0. -1.
    9000006    2    1    2  501    0  0.00000000000E+00  0.00000000000E+00  0.88344322931E+03  0.11165567707E+04  0.68280823279E+03 0.  0.
         13    1    3    3    0    0  0.11989525327E+03 -0.28411211588E+03  0.20215890022E+03  0.36873132099E+03  0.00000000000E+00 0. -1.
          4    1    3    3  501    0 -0.11989525327E+03  0.28411211588E+03  0.68128432909E+03  0.74782544970E+03  0.00000000000E+00 0. -1.
<mgrwt>
<rscale>  0 0.68280823E+03</rscale>
<asrwt>0</asrwt>
<pdfrwt beam="1">0</pdfrwt>
<pdfrwt beam="2">  1        2 0.42384370E+00 0.68280823E+03</pdfrwt>
<totfact> 0.32254965E+00</totfact>
</mgrwt>
</event>
<event>
 5    1  0.2366700E-004  0.6447310E+03  0.7818608E-02  0.9816717E-01
         13   -1    0    0    0    0  0.00000000000E+00  0.00000000000E+00  0.10000000000E+04  0.10000000000E+04  0.00000000000E+00 0. -1.
          4   -1    0    0  501    0 -0.00000000000E+00 -0.00000000000E+00 -0.10391951597E+03  0.10391951597E+03  0.00000000000E+00 0. -1.
    9000006    2    1    2  501    0  0.00000000000E+00  0.00000000000E+00  0.89608048403E+03  0.11039195160E+04  0.64473100118E+03 0.  0.
         13    1    3    3    0    0  0.12427886725E+03  0.11501061868E+03 -0.21640746768E+02  0.17070735536E+03  0.00000000000E+00 0. -1.
          2    1    3    3  501    0 -0.12427886725E+03 -0.11501061868E+03  0.91772123080E+03  0.93321216061E+03  0.00000000000E+00 0. -1.
<mgrwt>
<rscale>  0 0.64473100E+03</rscale>
<asrwt>0</asrwt>
<pdfrwt beam="1">0</pdfrwt>
<pdfrwt beam="2">  1        4 0.37788995E+00 0.64473100E+03</pdfrwt>
<totfact> 0.45328254E-02</totfact>
</mgrwt>
</event>
<event>
 5    1  0.2366700E-004  0.6494932E+03  0.7818608E-02  0.9807731E-01
         13   -1    0    0    0    0  0.00000000000E+00  0.00000000000E+00  0.10000000000E+04  0.10000000000E+04  0.00000000000E+00 0. -1.
          2   -1    0    0  501    0 -0.00000000000E+00 -0.00000000000E+00 -0.10546034673E+03  0.10546034673E+03  0.00000000000E+00 0. -1.
    9000006    2    1    2  501    0  0.00000000000E+00  0.00000000000E+00  0.89453965327E+03  0.11054603467E+04  0.64949317696E+03 0.  0.
         13    1    3    3    0    0  0.75889962193E+01  0.93564094711E+02 -0.81864780092E+02  0.12455390360E+03  0.00000000000E+00 0. -1.
          4    1    3    3  501    0 -0.75889962193E+01 -0.93564094711E+02  0.97640443336E+03  0.98090644313E+03  0.00000000000E+00 0. -1.
<mgrwt>
<rscale>  0 0.64949318E+03</rscale>
<asrwt>0</asrwt>
<pdfrwt beam="1">0</pdfrwt>
<pdfrwt beam="2">  1        2 0.38349298E+00 0.64949318E+03</pdfrwt>
<totfact> 0.45888095E+00</totfact>
</mgrwt>
</event>
<event>
 5    1  0.2366700E-004  0.6586456E+03  0.7818608E-02  0.9790690E-01
         13   -1    0    0    0    0  0.00000000000E+00  0.00000000000E+00  0.10000000000E+04  0.10000000000E+04  0.00000000000E+00 0. -1.
          2   -1    0    0  501    0 -0.00000000000E+00 -0.00000000000E+00 -0.10845350652E+03  0.10845350652E+03  0.00000000000E+00 0. -1.
    9000006    2    1    2  501    0  0.00000000000E+00  0.00000000000E+00  0.89154649348E+03  0.11084535065E+04  0.65864559977E+03 0.  0.
         13    1    3    3    0    0  0.12753092771E+03  0.29035899836E+03  0.59517542559E+03  0.67439326263E+03  0.00000000000E+00 0. -1.
          2    1    3    3  501    0 -0.12753092771E+03 -0.29035899836E+03  0.29637106789E+03  0.43406024390E+03  0.00000000000E+00 0. -1.
<mgrwt>
<rscale>  0 0.65864560E+03</rscale>
<asrwt>0</asrwt>
<pdfrwt beam="1">0</pdfrwt>
<pdfrwt beam="2">  1        2 0.39437722E+00 0.65864560E+03</pdfrwt>
<totfact> 0.41777179E+00</totfact>
</mgrwt>
</event>
<event>
 5    1  0.2366700E-004  0.6521621E+03  0.7818608E-02  0.9802731E-01
         13   -1    0    0    0    0  0.00000000000E+00  0.00000000000E+00  0.10000000000E+04  0.10000000000E+04  0.00000000000E+00 0. -1.
          2   -1    0    0  501    0 -0.00000000000E+00 -0.00000000000E+00 -0.10632886690E+03  0.10632886690E+03  0.00000000000E+00 0. -1.
    9000006    2    1    2  501    0  0.00000000000E+00  0.00000000000E+00  0.89367113310E+03  0.11063288669E+04  0.65216214824E+03 0.  0.
         13    1    3    3    0    0  0.77638815680E+02 -0.29614899207E+03  0.63723240514E+03  0.70696332958E+03  0.00000000000E+00 0. -1.
          4    1    3    3  501    0 -0.77638815680E+02  0.29614899207E+03  0.25643872796E+03  0.39936553732E+03  0.00000000000E+00 0. -1.
<mgrwt>
<rscale>  0 0.65216215E+03</rscale>
<asrwt>0</asrwt>
<pdfrwt beam="1">0</pdfrwt>
<pdfrwt beam="2">  1        2 0.38665124E+00 0.65216215E+03</pdfrwt>
<totfact> 0.44659093E+00</totfact>
</mgrwt>
</event>
<event>
 5    1  0.2366700E-004  0.6562995E+03  0.7818608E-02  0.9795030E-01
         13   -1    0    0    0    0  0.00000000000E+00  0.00000000000E+00  0.10000000000E+04  0.10000000000E+04  0.00000000000E+00 0. -1.
          2   -1    0    0  501    0 -0.00000000000E+00 -0.00000000000E+00 -0.10768225478E+03  0.10768225478E+03  0.00000000000E+00 0. -1.
    9000006    2    1    2  501    0  0.00000000000E+00  0.00000000000E+00  0.89231774522E+03  0.11076822548E+04  0.65629948890E+03 0.  0.
         13    1    3    3    0    0 -0.24526300357E+03 -0.21580087506E+03  0.49840607160E+03  0.59593000495E+03  0.00000000000E+00 0. -1.
          2    1    3    3  501    0  0.24526300357E+03  0.21580087506E+03  0.39391167362E+03  0.51175224983E+03  0.00000000000E+00 0. -1.
<mgrwt>
<rscale>  0 0.65629949E+03</rscale>
<asrwt>0</asrwt>
<pdfrwt beam="1">0</pdfrwt>
<pdfrwt beam="2">  1        2 0.39157266E+00 0.65629949E+03</pdfrwt>
<totfact> 0.42803288E+00</totfact>
</mgrwt>
</event>
<event>
 5    1  0.2366700E-004  0.6443448E+03  0.7818608E-02  0.9817449E-01
         13   -1    0    0    0    0  0.00000000000E+00  0.00000000000E+00  0.10000000000E+04  0.10000000000E+04  0.00000000000E+00 0. -1.
          2   -1    0    0  501    0 -0.00000000000E+00 -0.00000000000E+00 -0.10379507125E+03  0.10379507125E+03  0.00000000000E+00 0. -1.
    9000006    2    1    2  501    0  0.00000000000E+00  0.00000000000E+00  0.89620492875E+03  0.11037950712E+04  0.64434484943E+03 0.  0.
         13    1    3    3    0    0  0.29278626296E+03  0.13117157162E+02  0.21891698970E+03  0.36581484930E+03  0.00000000000E+00 0. -1.
          4    1    3    3  501    0 -0.29278626296E+03 -0.13117157162E+02  0.67728793905E+03  0.73798022194E+03  0.00000000000E+00 0. -1.
<mgrwt>
<rscale>  0 0.64434485E+03</rscale>
<asrwt>0</asrwt>
<pdfrwt beam="1">0</pdfrwt>
<pdfrwt beam="2">  1        2 0.37743742E+00 0.64434485E+03</pdfrwt>
<totfact> 0.48330843E+00</totfact>
</mgrwt>
</event>
<event>
 5    1  0.2366700E-004  0.6129092E+03  0.7818608E-02  0.9878980E-01
         13   -1    0    0    0    0  0.00000000000E+00  0.00000000000E+00  0.10000000000E+04  0.10000000000E+04  0.00000000000E+00 0. -1.
          2   -1    0    0  501    0 -0.00000000000E+00 -0.00000000000E+00 -0.93914435068E+02  0.93914435068E+02  0.00000000000E+00 0. -1.
    9000006    2    1    2  501    0  0.00000000000E+00  0.00000000000E+00  0.90608556493E+03  0.10939144351E+04  0.61290924310E+03 0.  0.
         13    1    3    3    0    0  0.12099476528E+03  0.22715982623E+03  0.74994689130E+03  0.79288186992E+03  0.00000000000E+00 0. -1.
          4    1    3    3  501    0 -0.12099476528E+03 -0.22715982623E+03  0.15613867363E+03  0.30103256514E+03  0.00000000000E+00 0. -1.
<mgrwt>
<rscale>  0 0.61290924E+03</rscale>
<asrwt>0</asrwt>
<pdfrwt beam="1">0</pdfrwt>
<pdfrwt beam="2">  1        2 0.34150776E+00 0.61290924E+03</pdfrwt>
<totfact> 0.65458150E+00</totfact>
</mgrwt>
</event>
<event>
 5    1  0.2366700E-004  0.6514959E+03  0.7818608E-02  0.9803976E-01
         13   -1    0    0    0    0  0.00000000000E+00  0.00000000000E+00  0.10000000000E+04  0.10000000000E+04  0.00000000000E+00 0. -1.
          2   -1    0    0  501    0 -0.00000000000E+00 -0.00000000000E+00 -0.10611171272E+03  0.10611171272E+03  0.00000000000E+00 0. -1.
    9000006    2    1    2  501    0  0.00000000000E+00  0.00000000000E+00  0.89388828728E+03  0.11061117127E+04  0.65149585638E+03 0.  0.
         13    1    3    3    0    0  0.25984624500E+03 -0.86120763608E+02  0.74671510423E+03  0.79531145085E+03  0.00000000000E+00 0. -1.
          4    1    3    3  501    0 -0.25984624500E+03  0.86120763608E+02  0.14717318305E+03  0.31080026187E+03  0.00000000000E+00 0. -1.
<mgrwt>
<rscale>  0 0.65149586E+03</rscale>
<asrwt>0</asrwt>
<pdfrwt beam="1">0</pdfrwt>
<pdfrwt beam="2">  1        2 0.38586159E+00 0.65149586E+03</pdfrwt>
<totfact> 0.44963547E+00</totfact>
</mgrwt>
</event>
<event>
 5    1  0.2366700E-004  0.6446954E+03  0.7818608E-02  0.9816784E-01
         13   -1    0    0    0    0  0.00000000000E+00  0.00000000000E+00  0.10000000000E+04  0.10000000000E+04  0.00000000000E+00 0. -1.
          2   -1    0    0  501    0 -0.00000000000E+00 -0.00000000000E+00 -0.10390804031E+03  0.10390804031E+03  0.00000000000E+00 0. -1.
    9000006    2    1    2  501    0  0.00000000000E+00  0.00000000000E+00  0.89609195969E+03  0.11039080403E+04  0.64469540190E+03 0.  0.
         13    1    3    3    0    0 -0.32150849420E+03 -0.59199975535E+01  0.40955621311E+03  0.52071014001E+03  0.00000000000E+00 0. -1.
          2    1    3    3  501    0  0.32150849420E+03  0.59199975535E+01  0.48653574658E+03  0.58319790030E+03  0.00000000000E+00 0. -1.
<mgrwt>
<rscale>  0 0.64469540E+03</rscale>
<asrwt>0</asrwt>
<pdfrwt beam="1">0</pdfrwt>
<pdfrwt beam="2">  1        2 0.37784822E+00 0.64469540E+03</pdfrwt>
<totfact> 0.48161463E+00</totfact>
</mgrwt>
</event>
<event>
 5    1  0.2366700E-004  0.6505134E+03  0.7818608E-02  0.9805816E-01
         13   -1    0    0    0    0  0.00000000000E+00  0.00000000000E+00  0.10000000000E+04  0.10000000000E+04  0.00000000000E+00 0. -1.
          2   -1    0    0  501    0 -0.00000000000E+00 -0.00000000000E+00 -0.10579190813E+03  0.10579190813E+03  0.00000000000E+00 0. -1.
    9000006    2    1    2  501    0  0.00000000000E+00  0.00000000000E+00  0.89420809187E+03  0.11057919081E+04  0.65051336074E+03 0.  0.
         13    1    3    3    0    0  0.29059312694E+03 -0.42556360445E+02  0.20950726343E+03  0.36076128211E+03  0.00000000000E+00 0. -1.
          2    1    3    3  501    0 -0.29059312694E+03  0.42556360445E+02  0.68470082844E+03  0.74503062602E+03  0.00000000000E+00 0. -1.
<mgrwt>
<rscale>  0 0.65051336E+03</rscale>
<asrwt>0</asrwt>
<pdfrwt beam="1">0</pdfrwt>
<pdfrwt beam="2">  1        2 0.38469866E+00 0.65051336E+03</pdfrwt>
<totfact> 0.45415345E+00</totfact>
</mgrwt>
</event>
<event>
 5    1  0.2366700E-004  0.6478438E+03  0.7818608E-02  0.9810834E-01
         13   -1    0    0    0    0  0.00000000000E+00  0.00000000000E+00  0.10000000000E+04  0.10000000000E+04  0.00000000000E+00 0. -1.
          2   -1    0    0  501    0 -0.00000000000E+00 -0.00000000000E+00 -0.10492539466E+03  0.10492539466E+03  0.00000000000E+00 0. -1.
    9000006    2    1    2  501    0  0.00000000000E+00  0.00000000000E+00  0.89507460534E+03  0.11049253947E+04  0.64784379184E+03 0.  0.
         13    1    3    3    0    0 -0.99914771985E+02 -0.42534696869E+02  0.96803042155E+03  0.97410218106E+03  0.00000000000E+00 0. -1.
          2    1    3    3  501    0  0.99914771985E+02  0.42534696869E+02 -0.72955816204E+02  0.13082321360E+03  0.00000000000E+00 0. -1.
<mgrwt>
<rscale>  0 0.64784379E+03</rscale>
<asrwt>0</asrwt>
<pdfrwt beam="1">0</pdfrwt>
<pdfrwt beam="2">  1        2 0.38154769E+00 0.64784379E+03</pdfrwt>
<totfact> 0.46660273E+00</totfact>
</mgrwt>
</event>
<event>
 5    1  0.2366700E-004  0.6531478E+03  0.7818608E-02  0.9800890E-01
         13   -1    0    0    0    0  0.00000000000E+00  0.00000000000E+00  0.10000000000E+04  0.10000000000E+04  0.00000000000E+00 0. -1.
          2   -1    0    0  501    0 -0.00000000000E+00 -0.00000000000E+00 -0.10665051288E+03  0.10665051288E+03  0.00000000000E+00 0. -1.
    9000006    2    1    2  501    0  0.00000000000E+00  0.00000000000E+00  0.89334948712E+03  0.11066505129E+04  0.65314780220E+03 0.  0.
         13    1    3    3    0    0 -0.36204828354E+02  0.13104618550E+03  0.94977103629E+03  0.95945240304E+03  0.00000000000E+00 0. -1.
          2    1    3    3  501    0  0.36204828354E+02 -0.13104618550E+03 -0.56421549164E+02  0.14719810984E+03  0.00000000000E+00 0. -1.
<mgrwt>
<rscale>  0 0.65314780E+03</rscale>
<asrwt>0</asrwt>
<pdfrwt beam="1">0</pdfrwt>
<pdfrwt beam="2">  1        2 0.38782086E+00 0.65314780E+03</pdfrwt>
<totfact> 0.44211569E+00</totfact>
</mgrwt>
</event>
<event>
 5    1  0.2366700E-004  0.6430778E+03  0.7818608E-02  0.9819856E-01
         13   -1    0    0    0    0  0.00000000000E+00  0.00000000000E+00  0.10000000000E+04  0.10000000000E+04  0.00000000000E+00 0. -1.
          2   -1    0    0  501    0 -0.00000000000E+00 -0.00000000000E+00 -0.10338726705E+03  0.10338726705E+03  0.00000000000E+00 0. -1.
    9000006    2    1    2  501    0  0.00000000000E+00  0.00000000000E+00  0.89661273295E+03  0.11033872670E+04  0.64307780882E+03 0.  0.
         13    1    3    3    0    0  0.29098457019E+03 -0.13679198454E+03  0.45137563072E+03  0.55418771832E+03  0.00000000000E+00 0. -1.
          2    1    3    3  501    0 -0.29098457019E+03  0.13679198454E+03  0.44523710223E+03  0.54919954873E+03  0.00000000000E+00 0. -1.
<mgrwt>
<rscale>  0 0.64307781E+03</rscale>
<asrwt>0</asrwt>
<pdfrwt beam="1">0</pdfrwt>
<pdfrwt beam="2">  1        2 0.37595449E+00 0.64307781E+03</pdfrwt>
<totfact> 0.48946816E+00</totfact>
</mgrwt>
</event>
<event>
 5    1  0.2366700E-004  0.6550277E+03  0.7818608E-02  0.9797390E-01
         13   -1    0    0    0    0  0.00000000000E+00  0.00000000000E+00  0.10000000000E+04  0.10000000000E+04  0.00000000000E+00 0. -1.
          2   -1    0    0  501    0 -0.00000000000E+00 -0.00000000000E+00 -0.10726533039E+03  0.10726533039E+03  0.00000000000E+00 0. -1.
    9000006    2    1    2  501    0  0.00000000000E+00  0.00000000000E+00  0.89273466961E+03  0.11072653304E+04  0.65502772580E+03 0.  0.
         13    1    3    3    0    0  0.28520210589E+03 -0.15893157042E+03  0.40274804142E+03  0.51846453124E+03  0.00000000000E+00 0. -1.
          2    1    3    3  501    0 -0.28520210589E+03  0.15893157042E+03  0.48998662819E+03  0.58880079915E+03  0.00000000000E+00 0. -1.
<mgrwt>
<rscale>  0 0.65502773E+03</rscale>
<asrwt>0</asrwt>
<pdfrwt beam="1">0</pdfrwt>
<pdfrwt beam="2">  1        2 0.39005657E+00 0.65502773E+03</pdfrwt>
<totfact> 0.43367414E+00</totfact>
</mgrwt>
</event>
<event>
 5    1  0.2366700E-004  0.6520289E+03  0.7818608E-02  0.9802980E-01
         13   -1    0    0    0    0  0.00000000000E+00  0.00000000000E+00  0.10000000000E+04  0.10000000000E+04  0.00000000000E+00 0. -1.
          2   -1    0    0  501    0 -0.00000000000E+00 -0.00000000000E+00 -0.10628542110E+03  0.10628542110E+03  0.00000000000E+00 0. -1.
    9000006    2    1    2  501    0  0.00000000000E+00  0.00000000000E+00  0.89371457890E+03  0.11062854211E+04  0.65202889844E+03 0.  0.
         13    1    3    3    0    0  0.66831997061E+02  0.23666231306E+03  0.81000206676E+03  0.84650984307E+03  0.00000000000E+00 0. -1.
          2    1    3    3  501    0 -0.66831997061E+02 -0.23666231306E+03  0.83712512136E+02  0.25977557803E+03  0.00000000000E+00 0. -1.
<mgrwt>
<rscale>  0 0.65202890E+03</rscale>
<asrwt>0</asrwt>
<pdfrwt beam="1">0</pdfrwt>
<pdfrwt beam="2">  1        2 0.38649326E+00 0.65202890E+03</pdfrwt>
<totfact> 0.44719855E+00</totfact>
</mgrwt>
</event>
<event>
 5    1  0.2366700E-004  0.6426424E+03  0.7818608E-02  0.9820684E-01
         13   -1    0    0    0    0  0.00000000000E+00  0.00000000000E+00  0.10000000000E+04  0.10000000000E+04  0.00000000000E+00 0. -1.
          2   -1    0    0  501    0 -0.00000000000E+00 -0.00000000000E+00 -0.10324732792E+03  0.10324732792E+03  0.00000000000E+00 0. -1.
    9000006    2    1    2  501    0  0.00000000000E+00  0.00000000000E+00  0.89675267208E+03  0.11032473279E+04  0.64264244466E+03 0.  0.
         13    1    3    3    0    0  0.14618139414E+03 -0.22284804972E+03  0.14023743454E+03  0.30115907973E+03  0.00000000000E+00 0. -1.
          4    1    3    3  501    0 -0.14618139414E+03  0.22284804972E+03  0.75651523754E+03  0.80208824819E+03  0.00000000000E+00 0. -1.
<mgrwt>
<rscale>  0 0.64264244E+03</rscale>
<asrwt>0</asrwt>
<pdfrwt beam="1">0</pdfrwt>
<pdfrwt beam="2">  1        2 0.37544562E+00 0.64264244E+03</pdfrwt>
<totfact> 0.49159836E+00</totfact>
</mgrwt>
</event>
<event>
 5    1  0.2366700E-004  0.6416611E+03  0.7818608E-02  0.9822554E-01
         13   -1    0    0    0    0  0.00000000000E+00  0.00000000000E+00  0.10000000000E+04  0.10000000000E+04  0.00000000000E+00 0. -1.
          2   -1    0    0  501    0 -0.00000000000E+00 -0.00000000000E+00 -0.10293223801E+03  0.10293223801E+03  0.00000000000E+00 0. -1.
    9000006    2    1    2  501    0  0.00000000000E+00  0.00000000000E+00  0.89706776199E+03  0.11029322380E+04  0.64166108813E+03 0.  0.
         13    1    3    3    0    0 -0.23621708144E+03  0.21582742730E+03  0.40814042463E+03  0.51861218087E+03  0.00000000000E+00 0. -1.
          4    1    3    3  501    0  0.23621708144E+03 -0.21582742730E+03  0.48892733737E+03  0.58432005713E+03  0.00000000000E+00 0. -1.
<mgrwt>
<rscale>  0 0.64166109E+03</rscale>
<asrwt>0</asrwt>
<pdfrwt beam="1">0</pdfrwt>
<pdfrwt beam="2">  1        2 0.37429984E+00 0.64166109E+03</pdfrwt>
<totfact> 0.49642618E+00</totfact>
</mgrwt>
</event>
<event>
 5    1  0.2366700E-004  0.6426631E+03  0.7818608E-02  0.9820645E-01
         13   -1    0    0    0    0  0.00000000000E+00  0.00000000000E+00  0.10000000000E+04  0.10000000000E+04  0.00000000000E+00 0. -1.
          2   -1    0    0  501    0 -0.00000000000E+00 -0.00000000000E+00 -0.10325396790E+03  0.10325396790E+03  0.00000000000E+00 0. -1.
    9000006    2    1    2  501    0  0.00000000000E+00  0.00000000000E+00  0.89674603210E+03  0.11032539679E+04  0.64266310896E+03 0.  0.
         13    1    3    3    0    0  0.13469732194E+03  0.15776686173E+03  0.86964568525E+03  0.89404550727E+03  0.00000000000E+00 0. -1.
          2    1    3    3  501    0 -0.13469732194E+03 -0.15776686173E+03  0.27100346846E+02  0.20920846063E+03  0.00000000000E+00 0. -1.
<mgrwt>
<rscale>  0 0.64266311E+03</rscale>
<asrwt>0</asrwt>
<pdfrwt beam="1">0</pdfrwt>
<pdfrwt beam="2">  1        2 0.37546977E+00 0.64266311E+03</pdfrwt>
<totfact> 0.49149709E+00</totfact>
</mgrwt>
</event>
<event>
 5    1  0.2366700E-004  0.6406950E+03  0.7818608E-02  0.9824398E-01
         13   -1    0    0    0    0  0.00000000000E+00  0.00000000000E+00  0.10000000000E+04  0.10000000000E+04  0.00000000000E+00 0. -1.
          2   -1    0    0  501    0 -0.00000000000E+00 -0.00000000000E+00 -0.10262252798E+03  0.10262252798E+03  0.00000000000E+00 0. -1.
    9000006    2    1    2  501    0  0.00000000000E+00  0.00000000000E+00  0.89737747202E+03  0.11026225280E+04  0.64069502255E+03 0.  0.
         13    1    3    3    0    0 -0.11186700608E+03 -0.86106120112E+02  0.94358321449E+03  0.95408478326E+03  0.00000000000E+00 0. -1.
          4    1    3    3  501    0  0.11186700608E+03  0.86106120112E+02 -0.46205742473E+02  0.14853774472E+03  0.00000000000E+00 0. -1.
<mgrwt>
<rscale>  0 0.64069502E+03</rscale>
<asrwt>0</asrwt>
<pdfrwt beam="1">0</pdfrwt>
<pdfrwt beam="2">  1        2 0.37317362E+00 0.64069502E+03</pdfrwt>
<totfact> 0.50121376E+00</totfact>
</mgrwt>
</event>
<event>
 5    1  0.2366700E-004  0.6481365E+03  0.7818608E-02  0.9810282E-01
         13   -1    0    0    0    0  0.00000000000E+00  0.00000000000E+00  0.10000000000E+04  0.10000000000E+04  0.00000000000E+00 0. -1.
          2   -1    0    0  501    0 -0.00000000000E+00 -0.00000000000E+00 -0.10502023646E+03  0.10502023646E+03  0.00000000000E+00 0. -1.
    9000006    2    1    2  501    0  0.00000000000E+00  0.00000000000E+00  0.89497976354E+03  0.11050202365E+04  0.64813651789E+03 0.  0.
         13    1    3    3    0    0 -0.25126557177E+03  0.61200340606E+02  0.11452672919E+03  0.28283606726E+03  0.00000000000E+00 0. -1.
          4    1    3    3  501    0  0.25126557177E+03 -0.61200340606E+02  0.78045303435E+03  0.82218416919E+03  0.00000000000E+00 0. -1.
<mgrwt>
<rscale>  0 0.64813652E+03</rscale>
<asrwt>0</asrwt>
<pdfrwt beam="1">0</pdfrwt>
<pdfrwt beam="2">  1        2 0.38189257E+00 0.64813652E+03</pdfrwt>
<totfact> 0.46522518E+00</totfact>
</mgrwt>
</event>
<event>
 5    1  0.2366700E-004  0.6548381E+03  0.7818608E-02  0.9797743E-01
         13   -1    0    0    0    0  0.00000000000E+00  0.00000000000E+00  0.10000000000E+04  0.10000000000E+04  0.00000000000E+00 0. -1.
          2   -1    0    0  501    0 -0.00000000000E+00 -0.00000000000E+00 -0.10720322119E+03  0.10720322119E+03  0.00000000000E+00 0. -1.
    9000006    2    1    2  501    0  0.00000000000E+00  0.00000000000E+00  0.89279677881E+03  0.11072032212E+04  0.65483805994E+03 0.  0.
         13    1    3    3    0    0 -0.34499555950E+02  0.26258590883E+03  0.12089481831E+03  0.29113078843E+03  0.00000000000E+00 0. -1.
          2    1    3    3  501    0  0.34499555950E+02 -0.26258590883E+03  0.77190196050E+03  0.81607243276E+03  0.00000000000E+00 0. -1.
<mgrwt>
<rscale>  0 0.65483806E+03</rscale>
<asrwt>0</asrwt>
<pdfrwt beam="1">0</pdfrwt>
<pdfrwt beam="2">  1        2 0.38983072E+00 0.65483806E+03</pdfrwt>
<totfact> 0.43452024E+00</totfact>
</mgrwt>
</event>
<event>
 5    1  0.2366700E-004  0.6399209E+03  0.7818608E-02  0.9825878E-01
         13   -1    0    0    0    0  0.00000000000E+00  0.00000000000E+00  0.10000000000E+04  0.10000000000E+04  0.00000000000E+00 0. -1.
          2   -1    0    0  501    0 -0.00000000000E+00 -0.00000000000E+00 -0.10237468541E+03  0.10237468541E+03  0.00000000000E+00 0. -1.
    9000006    2    1    2  501    0  0.00000000000E+00  0.00000000000E+00  0.89762531459E+03  0.11023746854E+04  0.63992088701E+03 0.  0.
         13    1    3    3    0    0  0.16283074798E+03 -0.10248319572E+03  0.84074814814E+01  0.19258074576E+03  0.00000000000E+00 0. -1.
          4    1    3    3  501    0 -0.16283074798E+03  0.10248319572E+03  0.88921783311E+03  0.90979393965E+03  0.00000000000E+00 0. -1.
<mgrwt>
<rscale>  0 0.63992089E+03</rscale>
<asrwt>0</asrwt>
<pdfrwt beam="1">0</pdfrwt>
<pdfrwt beam="2">  1        2 0.37227237E+00 0.63992089E+03</pdfrwt>
<totfact> 0.50507535E+00</totfact>
</mgrwt>
</event>
<event>
 5    1  0.2366700E-004  0.6405376E+03  0.7818608E-02  0.9824698E-01
         13   -1    0    0    0    0  0.00000000000E+00  0.00000000000E+00  0.10000000000E+04  0.10000000000E+04  0.00000000000E+00 0. -1.
          2   -1    0    0  501    0 -0.00000000000E+00 -0.00000000000E+00 -0.10257211011E+03  0.10257211011E+03  0.00000000000E+00 0. -1.
    9000006    2    1    2  501    0  0.00000000000E+00  0.00000000000E+00  0.89742788989E+03  0.11025721101E+04  0.64053761829E+03 0.  0.
         13    1    3    3    0    0  0.20198104249E+03 -0.14968633860E+02  0.21660314252E+02  0.20368988865E+03  0.00000000000E+00 0. -1.
          4    1    3    3  501    0 -0.20198104249E+03  0.14968633860E+02  0.87576757564E+03  0.89888222146E+03  0.00000000000E+00 0. -1.
<mgrwt>
<rscale>  0 0.64053762E+03</rscale>
<asrwt>0</asrwt>
<pdfrwt beam="1">0</pdfrwt>
<pdfrwt beam="2">  1        2 0.37299028E+00 0.64053762E+03</pdfrwt>
<totfact> 0.50199711E+00</totfact>
</mgrwt>
</event>
<event>
 5    1  0.2366700E-004  0.6552939E+03  0.7818608E-02  0.9796896E-01
         13   -1    0    0    0    0  0.00000000000E+00  0.00000000000E+00  0.10000000000E+04  0.10000000000E+04  0.00000000000E+00 0. -1.
          2   -1    0    0  501    0 -0.00000000000E+00 -0.00000000000E+00 -0.10735252148E+03  0.10735252148E+03  0.00000000000E+00 0. -1.
    9000006    2    1    2  501    0  0.00000000000E+00  0.00000000000E+00  0.89264747852E+03  0.11073525215E+04  0.65529389278E+03 0.  0.
         13    1    3    3    0    0 -0.15810679691E+03  0.28690272694E+03  0.43542612783E+03  0.54489159174E+03  0.00000000000E+00 0. -1.
          2    1    3    3  501    0  0.15810679691E+03 -0.28690272694E+03  0.45722135069E+03  0.56246092974E+03  0.00000000000E+00 0. -1.
<mgrwt>
<rscale>  0 0.65529389E+03</rscale>
<asrwt>0</asrwt>
<pdfrwt beam="1">0</pdfrwt>
<pdfrwt beam="2">  1        2 0.39037363E+00 0.65529389E+03</pdfrwt>
<totfact> 0.43248886E+00</totfact>
</mgrwt>
</event>
<event>
 5    1  0.2366700E-004  0.6535982E+03  0.7818608E-02  0.9800051E-01
         13   -1    0    0    0    0  0.00000000000E+00  0.00000000000E+00  0.10000000000E+04  0.10000000000E+04  0.00000000000E+00 0. -1.
          2   -1    0    0  501    0 -0.00000000000E+00 -0.00000000000E+00 -0.10679765435E+03  0.10679765435E+03  0.00000000000E+00 0. -1.
    9000006    2    1    2  501    0  0.00000000000E+00  0.00000000000E+00  0.89320234565E+03  0.11067976543E+04  0.65359820792E+03 0.  0.
         13    1    3    3    0    0  0.97547899936E+02 -0.90392153730E+02 -0.58901918776E+02  0.14545023298E+03  0.00000000000E+00 0. -1.
          2    1    3    3  501    0 -0.97547899936E+02  0.90392153730E+02  0.95210426443E+03  0.96134742137E+03  0.00000000000E+00 0. -1.
<mgrwt>
<rscale>  0 0.65359821E+03</rscale>
<asrwt>0</asrwt>
<pdfrwt beam="1">0</pdfrwt>
<pdfrwt beam="2">  1        2 0.38835593E+00 0.65359821E+03</pdfrwt>
<totfact> 0.44008200E+00</totfact>
</mgrwt>
</event>
<event>
 5    1  0.2366700E-004  0.6446077E+03  0.7818608E-02  0.9816950E-01
         13   -1    0    0    0    0  0.00000000000E+00  0.00000000000E+00  0.10000000000E+04  0.10000000000E+04  0.00000000000E+00 0. -1.
          2   -1    0    0  501    0 -0.00000000000E+00 -0.00000000000E+00 -0.10387977458E+03  0.10387977458E+03  0.00000000000E+00 0. -1.
    9000006    2    1    2  501    0  0.00000000000E+00  0.00000000000E+00  0.89612022542E+03  0.11038797746E+04  0.64460770886E+03 0.  0.
         13    1    3    3    0    0 -0.25949214505E+03  0.18292193328E+03  0.35297230264E+03  0.47474841068E+03  0.00000000000E+00 0. -1.
          4    1    3    3  501    0  0.25949214505E+03 -0.18292193328E+03  0.54314792278E+03  0.62913136390E+03  0.00000000000E+00 0. -1.
<mgrwt>
<rscale>  0 0.64460771E+03</rscale>
<asrwt>0</asrwt>
<pdfrwt beam="1">0</pdfrwt>
<pdfrwt beam="2">  1        2 0.37774543E+00 0.64460771E+03</pdfrwt>
<totfact> 0.48203793E+00</totfact>
</mgrwt>
</event>
<event>
 5    1  0.2366700E-004  0.6615352E+03  0.7818608E-02  0.9785372E-01
         13   -1    0    0    0    0  0.00000000000E+00  0.00000000000E+00  0.10000000000E+04  0.10000000000E+04  0.00000000000E+00 0. -1.
          2   -1    0    0  501    0 -0.00000000000E+00 -0.00000000000E+00 -0.10940719092E+03  0.10940719092E+03  0.00000000000E+00 0. -1.
    9000006    2    1    2  501    0  0.00000000000E+00  0.00000000000E+00  0.89059280908E+03  0.11094071909E+04  0.66153515680E+03 0.  0.
         13    1    3    3    0    0 -0.78278590112E+02 -0.30578675873E+03  0.27949939602E+03  0.42160762785E+03  0.00000000000E+00 0. -1.
          2    1    3    3  501    0  0.78278590112E+02  0.30578675873E+03  0.61109341306E+03  0.68779956307E+03  0.00000000000E+00 0. -1.
<mgrwt>
<rscale>  0 0.66153516E+03</rscale>
<asrwt>0</asrwt>
<pdfrwt beam="1">0</pdfrwt>
<pdfrwt beam="2">  1        2 0.39784517E+00 0.66153516E+03</pdfrwt>
<totfact> 0.40539119E+00</totfact>
</mgrwt>
</event>
<event>
 5    1  0.2366700E-004  0.6530172E+03  0.7818608E-02  0.9801134E-01
         13   -1    0    0    0    0  0.00000000000E+00  0.00000000000E+00  0.10000000000E+04  0.10000000000E+04  0.00000000000E+00 0. -1.
          2   -1    0    0  501    0 -0.00000000000E+00 -0.00000000000E+00 -0.10660785765E+03  0.10660785765E+03  0.00000000000E+00 0. -1.
    9000006    2    1    2  501    0  0.00000000000E+00  0.00000000000E+00  0.89339214235E+03  0.11066078577E+04  0.65301717482E+03 0.  0.
         13    1    3    3    0    0  0.10778698878E+03 -0.27399979839E+03  0.68583356244E+03  0.74636559395E+03  0.00000000000E+00 0. -1.
          4    1    3    3  501    0 -0.10778698878E+03  0.27399979839E+03  0.20755857991E+03  0.36024226370E+03  0.00000000000E+00 0. -1.
<mgrwt>
<rscale>  0 0.65301717E+03</rscale>
<asrwt>0</asrwt>
<pdfrwt beam="1">0</pdfrwt>
<pdfrwt beam="2">  1        2 0.38766575E+00 0.65301717E+03</pdfrwt>
<totfact> 0.44270684E+00</totfact>
</mgrwt>
</event>
<event>
 5    1  0.2366700E-004  0.6509497E+03  0.7818608E-02  0.9804999E-01
         13   -1    0    0    0    0  0.00000000000E+00  0.00000000000E+00  0.10000000000E+04  0.10000000000E+04  0.00000000000E+00 0. -1.
          2   -1    0    0  501    0 -0.00000000000E+00 -0.00000000000E+00 -0.10593388412E+03  0.10593388412E+03  0.00000000000E+00 0. -1.
    9000006    2    1    2  501    0  0.00000000000E+00  0.00000000000E+00  0.89406611588E+03  0.11059338841E+04  0.65094971884E+03 0.  0.
         13    1    3    3    0    0 -0.26191703067E+03  0.16802443612E+03  0.28495296895E+03  0.42193712399E+03  0.00000000000E+00 0. -1.
          4    1    3    3  501    0  0.26191703067E+03 -0.16802443612E+03  0.60911314693E+03  0.68399676012E+03  0.00000000000E+00 0. -1.
<mgrwt>
<rscale>  0 0.65094972E+03</rscale>
<asrwt>0</asrwt>
<pdfrwt beam="1">0</pdfrwt>
<pdfrwt beam="2">  1        2 0.38521494E+00 0.65094972E+03</pdfrwt>
<totfact> 0.45214266E+00</totfact>
</mgrwt>
</event>
<event>
 5    1  0.2366700E-004  0.6500469E+03  0.7818608E-02  0.9806691E-01
         13   -1    0    0    0    0  0.00000000000E+00  0.00000000000E+00  0.10000000000E+04  0.10000000000E+04  0.00000000000E+00 0. -1.
          2   -1    0    0  501    0 -0.00000000000E+00 -0.00000000000E+00 -0.10564024661E+03  0.10564024661E+03  0.00000000000E+00 0. -1.
    9000006    2    1    2  501    0  0.00000000000E+00  0.00000000000E+00  0.89435975339E+03  0.11056402466E+04  0.65004691094E+03 0.  0.
         13    1    3    3    0    0  0.27097255729E+03  0.17578615828E+03  0.38554042353E+03  0.50295955943E+03  0.00000000000E+00 0. -1.
          2    1    3    3  501    0 -0.27097255729E+03 -0.17578615828E+03  0.50881932986E+03  0.60268068717E+03  0.00000000000E+00 0. -1.
<mgrwt>
<rscale>  0 0.65004691E+03</rscale>
<asrwt>0</asrwt>
<pdfrwt beam="1">0</pdfrwt>
<pdfrwt beam="2">  1        2 0.38414716E+00 0.65004691E+03</pdfrwt>
<totfact> 0.45631037E+00</totfact>
</mgrwt>
</event>
<event>
 5    1  0.2366700E-004  0.5864011E+03  0.7818608E-02  0.9934028E-01
         13   -1    0    0    0    0  0.00000000000E+00  0.00000000000E+00  0.10000000000E+04  0.10000000000E+04  0.00000000000E+00 0. -1.
          2   -1    0    0  501    0 -0.00000000000E+00 -0.00000000000E+00 -0.85966562511E+02  0.85966562511E+02  0.00000000000E+00 0. -1.
    9000006    2    1    2  501    0  0.00000000000E+00  0.00000000000E+00  0.91403343749E+03  0.10859665625E+04  0.58640109997E+03 0.  0.
         13    1    3    3    0    0  0.21247753676E+03 -0.38633003668E+02  0.89760618604E+02  0.23387214723E+03  0.00000000000E+00 0. -1.
          2    1    3    3  501    0 -0.21247753676E+03  0.38633003668E+02  0.82427281888E+03  0.85209441528E+03  0.00000000000E+00 0. -1.
<mgrwt>
<rscale>  0 0.58640110E+03</rscale>
<asrwt>0</asrwt>
<pdfrwt beam="1">0</pdfrwt>
<pdfrwt beam="2">  1        2 0.31260634E+00 0.58640110E+03</pdfrwt>
<totfact> 0.83208996E+00</totfact>
</mgrwt>
</event>
<event>
 5    1  0.2366700E-004  0.5993590E+03  0.7818608E-02  0.9906737E-01
         13   -1    0    0    0    0  0.00000000000E+00  0.00000000000E+00  0.10000000000E+04  0.10000000000E+04  0.00000000000E+00 0. -1.
          2   -1    0    0  501    0 -0.00000000000E+00 -0.00000000000E+00 -0.89807792521E+02  0.89807792521E+02  0.00000000000E+00 0. -1.
    9000006    2    1    2  501    0  0.00000000000E+00  0.00000000000E+00  0.91019220748E+03  0.10898077925E+04  0.59935896597E+03 0.  0.
         13    1    3    3    0    0  0.25891603853E+03  0.13250286057E+03  0.32381023304E+03  0.43525577548E+03  0.00000000000E+00 0. -1.
          2    1    3    3  501    0 -0.25891603853E+03 -0.13250286057E+03  0.58638197444E+03  0.65455201705E+03  0.00000000000E+00 0. -1.
<mgrwt>
<rscale>  0 0.59935897E+03</rscale>
<asrwt>0</asrwt>
<pdfrwt beam="1">0</pdfrwt>
<pdfrwt beam="2">  1        2 0.32657448E+00 0.59935897E+03</pdfrwt>
<totfact> 0.74121666E+00</totfact>
</mgrwt>
</event>
<event>
 5    1  0.2366700E-004  0.5200884E+03  0.7818608E-02  0.1008665E+00
         13   -1    0    0    0    0  0.00000000000E+00  0.00000000000E+00  0.10000000000E+04  0.10000000000E+04  0.00000000000E+00 0. -1.
          2   -1    0    0  501    0 -0.00000000000E+00 -0.00000000000E+00 -0.67622998313E+02  0.67622998313E+02  0.00000000000E+00 0. -1.
    9000006    2    1    2  501    0  0.00000000000E+00  0.00000000000E+00  0.93237700169E+03  0.10676229983E+04  0.52008844753E+03 0.  0.
         13    1    3    3    0    0 -0.17732470771E+03  0.15009874002E+03  0.70601442978E+03  0.74325638831E+03  0.00000000000E+00 0. -1.
          4    1    3    3  501    0  0.17732470771E+03 -0.15009874002E+03  0.22636257191E+03  0.32436661000E+03  0.00000000000E+00 0. -1.
<mgrwt>
<rscale>  0 0.52008845E+03</rscale>
<asrwt>0</asrwt>
<pdfrwt beam="1">0</pdfrwt>
<pdfrwt beam="2">  1        2 0.24590233E+00 0.52008845E+03</pdfrwt>
<totfact> 0.14421078E+01</totfact>
</mgrwt>
</event>
<event>
 5    1  0.2366700E-004  0.6222260E+03  0.7818608E-02  0.9860338E-01
         13   -1    0    0    0    0  0.00000000000E+00  0.00000000000E+00  0.10000000000E+04  0.10000000000E+04  0.00000000000E+00 0. -1.
          2   -1    0    0  501    0 -0.00000000000E+00 -0.00000000000E+00 -0.96791298981E+02  0.96791298981E+02  0.00000000000E+00 0. -1.
    9000006    2    1    2  501    0  0.00000000000E+00  0.00000000000E+00  0.90320870102E+03  0.10967912990E+04  0.62222600068E+03 0.  0.
         13    1    3    3    0    0  0.58742590588E+01 -0.39910328399E+02  0.99537040107E+03  0.99618752078E+03  0.00000000000E+00 0. -1.
          4    1    3    3  501    0 -0.58742590588E+01  0.39910328399E+02 -0.92161700050E+02  0.10060377820E+03  0.00000000000E+00 0. -1.
<mgrwt>
<rscale>  0 0.62222600E+03</rscale>
<asrwt>0</asrwt>
<pdfrwt beam="1">0</pdfrwt>
<pdfrwt beam="2">  1        2 0.35196910E+00 0.62222600E+03</pdfrwt>
<totfact> 0.59966375E+00</totfact>
</mgrwt>
</event>
<event>
 5    1  0.2366700E-004  0.6138908E+03  0.7818608E-02  0.9876999E-01
         13   -1    0    0    0    0  0.00000000000E+00  0.00000000000E+00  0.10000000000E+04  0.10000000000E+04  0.00000000000E+00 0. -1.
          2   -1    0    0  501    0 -0.00000000000E+00 -0.00000000000E+00 -0.94215491067E+02  0.94215491067E+02  0.00000000000E+00 0. -1.
    9000006    2    1    2  501    0  0.00000000000E+00  0.00000000000E+00  0.90578450893E+03  0.10942154911E+04  0.61389084068E+03 0.  0.
         13    1    3    3    0    0  0.30304823275E+03 -0.18763655044E+01  0.36605058123E+03  0.47522076989E+03  0.00000000000E+00 0. -1.
          4    1    3    3  501    0 -0.30304823275E+03  0.18763655044E+01  0.53973392771E+03  0.61899472117E+03  0.00000000000E+00 0. -1.
<mgrwt>
<rscale>  0 0.61389084E+03</rscale>
<asrwt>0</asrwt>
<pdfrwt beam="1">0</pdfrwt>
<pdfrwt beam="2">  1        2 0.34260251E+00 0.61389084E+03</pdfrwt>
<totfact> 0.64862160E+00</totfact>
</mgrwt>
</event>
<event>
 5    1  0.2366700E-004  0.6394718E+03  0.7818608E-02  0.9826738E-01
         13   -1    0    0    0    0  0.00000000000E+00  0.00000000000E+00  0.10000000000E+04  0.10000000000E+04  0.00000000000E+00 0. -1.
          2   -1    0    0  501    0 -0.00000000000E+00 -0.00000000000E+00 -0.10223103127E+03  0.10223103127E+03  0.00000000000E+00 0. -1.
    9000006    2    1    2  501    0  0.00000000000E+00  0.00000000000E+00  0.89776896873E+03  0.11022310313E+04  0.63947175471E+03 0.  0.
         13    1    3    3    0    0 -0.93508242030E+02  0.28840697931E+03  0.62389020829E+03  0.69365796257E+03  0.00000000000E+00 0. -1.
          2    1    3    3  501    0  0.93508242030E+02 -0.28840697931E+03  0.27387876044E+03  0.40857306870E+03  0.00000000000E+00 0. -1.
<mgrwt>
<rscale>  0 0.63947175E+03</rscale>
<asrwt>0</asrwt>
<pdfrwt beam="1">0</pdfrwt>
<pdfrwt beam="2">  1        2 0.37174999E+00 0.63947175E+03</pdfrwt>
<totfact> 0.50732604E+00</totfact>
</mgrwt>
</event>
<event>
 5    1  0.2366700E-004  0.6541980E+03  0.7818608E-02  0.9798934E-01
         13   -1    0    0    0    0  0.00000000000E+00  0.00000000000E+00  0.10000000000E+04  0.10000000000E+04  0.00000000000E+00 0. -1.
          2   -1    0    0  501    0 -0.00000000000E+00 -0.00000000000E+00 -0.10699374476E+03  0.10699374476E+03  0.00000000000E+00 0. -1.
    9000006    2    1    2  501    0  0.00000000000E+00  0.00000000000E+00  0.89300625524E+03  0.11069937448E+04  0.65419796626E+03 0.  0.
         13    1    3    3    0    0  0.85364703788E+02  0.28835832260E+03  0.22877483591E+03  0.37785656063E+03  0.00000000000E+00 0. -1.
          4    1    3    3  501    0 -0.85364703788E+02 -0.28835832260E+03  0.66423141933E+03  0.72913718414E+03  0.00000000000E+00 0. -1.
<mgrwt>
<rscale>  0 0.65419797E+03</rscale>
<asrwt>0</asrwt>
<pdfrwt beam="1">0</pdfrwt>
<pdfrwt beam="2">  1        2 0.38906898E+00 0.65419797E+03</pdfrwt>
<totfact> 0.43738492E+00</totfact>
</mgrwt>
</event>
<event>
 5    1  0.2366700E-004  0.6490261E+03  0.7818608E-02  0.9808608E-01
         13   -1    0    0    0    0  0.00000000000E+00  0.00000000000E+00  0.10000000000E+04  0.10000000000E+04  0.00000000000E+00 0. -1.
          2   -1    0    0  501    0 -0.00000000000E+00 -0.00000000000E+00 -0.10530872481E+03  0.10530872481E+03  0.00000000000E+00 0. -1.
    9000006    2    1    2  501    0  0.00000000000E+00  0.00000000000E+00  0.89469127519E+03  0.11053087248E+04  0.64902611599E+03 0.  0.
         13    1    3    3    0    0 -0.27571033935E+03 -0.11375942295E+03  0.22957569779E+03  0.37638065645E+03  0.00000000000E+00 0. -1.
          2    1    3    3  501    0  0.27571033935E+03  0.11375942295E+03  0.66511557740E+03  0.72892806836E+03  0.00000000000E+00 0. -1.
<mgrwt>
<rscale>  0 0.64902612E+03</rscale>
<asrwt>0</asrwt>
<pdfrwt beam="1">0</pdfrwt>
<pdfrwt beam="2">  1        2 0.38294163E+00 0.64902612E+03</pdfrwt>
<totfact> 0.46105767E+00</totfact>
</mgrwt>
</event>
<event>
 5    1  0.2366700E-004  0.6456072E+03  0.7818608E-02  0.9815057E-01
         13   -1    0    0    0    0  0.00000000000E+00  0.00000000000E+00  0.10000000000E+04  0.10000000000E+04  0.00000000000E+00 0. -1.
          2   -1    0    0  501    0 -0.00000000000E+00 -0.00000000000E+00 -0.10420217091E+03  0.10420217091E+03  0.00000000000E+00 0. -1.
    9000006    2    1    2  501    0  0.00000000000E+00  0.00000000000E+00  0.89579782909E+03  0.11042021709E+04  0.64560722088E+03 0.  0.
         13    1    3    3    0    0 -0.13089003405E+03  0.20576112674E+03  0.86163548480E+02  0.25863874300E+03  0.00000000000E+00 0. -1.
          2    1    3    3  501    0  0.13089003405E+03 -0.20576112674E+03  0.80963428061E+03  0.84556342791E+03  0.00000000000E+00 0. -1.
<mgrwt>
<rscale>  0 0.64560722E+03</rscale>
<asrwt>0</asrwt>
<pdfrwt beam="1">0</pdfrwt>
<pdfrwt beam="2">  1        2 0.37891778E+00 0.64560722E+03</pdfrwt>
<totfact> 0.47722994E+00</totfact>
</mgrwt>
</event>
<event>
 5    1  0.2366700E-004  0.6440709E+03  0.7818608E-02  0.9817969E-01
         13   -1    0    0    0    0  0.00000000000E+00  0.00000000000E+00  0.10000000000E+04  0.10000000000E+04  0.00000000000E+00 0. -1.
          2   -1    0    0  501    0 -0.00000000000E+00 -0.00000000000E+00 -0.10370681554E+03  0.10370681554E+03  0.00000000000E+00 0. -1.
    9000006    2    1    2  501    0  0.00000000000E+00  0.00000000000E+00  0.89629318446E+03  0.11037068155E+04  0.64407085182E+03 0.  0.
         13    1    3    3    0    0 -0.30632016394E+03 -0.52297544483E+02  0.59294415903E+03  0.66943995378E+03  0.00000000000E+00 0. -1.
          4    1    3    3  501    0  0.30632016394E+03  0.52297544483E+02  0.30334902543E+03  0.43426686176E+03  0.00000000000E+00 0. -1.
<mgrwt>
<rscale>  0 0.64407085E+03</rscale>
<asrwt>0</asrwt>
<pdfrwt beam="1">0</pdfrwt>
<pdfrwt beam="2">  1        2 0.37711649E+00 0.64407085E+03</pdfrwt>
<totfact> 0.48463547E+00</totfact>
</mgrwt>
</event>
<event>
 5    1  0.2366700E-004  0.7223794E+03  0.7818608E-02  0.9679708E-01
         13   -1    0    0    0    0  0.00000000000E+00  0.00000000000E+00  0.10000000000E+04  0.10000000000E+04  0.00000000000E+00 0. -1.
          2   -1    0    0  501    0 -0.00000000000E+00 -0.00000000000E+00 -0.13045801628E+03  0.13045801628E+03  0.00000000000E+00 0. -1.
    9000006    2    1    2  501    0  0.00000000000E+00  0.00000000000E+00  0.86954198372E+03  0.11304580163E+04  0.72237944676E+03 0.  0.
         13    1    3    3    0    0 -0.28475766913E+03  0.93502239656E+02  0.75020172792E+03  0.80785656618E+03  0.00000000000E+00 0. -1.
          4    1    3    3  501    0  0.28475766913E+03 -0.93502239656E+02  0.11934025580E+03  0.32260145009E+03  0.00000000000E+00 0. -1.
<mgrwt>
<rscale>  0 0.72237945E+03</rscale>
<asrwt>0</asrwt>
<pdfrwt beam="1">0</pdfrwt>
<pdfrwt beam="2">  1        2 0.47439379E+00 0.72237945E+03</pdfrwt>
<totfact> 0.20302635E+00</totfact>
</mgrwt>
</event>
<event>
 5    1  0.2366700E-004  0.6527332E+03  0.7818608E-02  0.9801664E-01
         13   -1    0    0    0    0  0.00000000000E+00  0.00000000000E+00  0.10000000000E+04  0.10000000000E+04  0.00000000000E+00 0. -1.
          2   -1    0    0  501    0 -0.00000000000E+00 -0.00000000000E+00 -0.10651517335E+03  0.10651517335E+03  0.00000000000E+00 0. -1.
    9000006    2    1    2  501    0  0.00000000000E+00  0.00000000000E+00  0.89348482665E+03  0.11065151733E+04  0.65273324826E+03 0.  0.
         13    1    3    3    0    0 -0.35464214568E+02  0.31514723495E+03  0.31609425945E+03  0.44776229304E+03  0.00000000000E+00 0. -1.
          4    1    3    3  501    0  0.35464214568E+02 -0.31514723495E+03  0.57739056720E+03  0.65875288030E+03  0.00000000000E+00 0. -1.
<mgrwt>
<rscale>  0 0.65273325E+03</rscale>
<asrwt>0</asrwt>
<pdfrwt beam="1">0</pdfrwt>
<pdfrwt beam="2">  1        2 0.38732872E+00 0.65273325E+03</pdfrwt>
<totfact> 0.44399378E+00</totfact>
</mgrwt>
</event>
<event>
 5    1  0.2366700E-004  0.6521118E+03  0.7818608E-02  0.9802825E-01
         13   -1    0    0    0    0  0.00000000000E+00  0.00000000000E+00  0.10000000000E+04  0.10000000000E+04  0.00000000000E+00 0. -1.
          2   -1    0    0  501    0 -0.00000000000E+00 -0.00000000000E+00 -0.10631245102E+03  0.10631245102E+03  0.00000000000E+00 0. -1.
    9000006    2    1    2  501    0  0.00000000000E+00  0.00000000000E+00  0.89368754898E+03  0.11063124510E+04  0.65211180335E+03 0.  0.
         13    1    3    3    0    0 -0.28946816912E+02  0.28394719680E+03  0.71427124841E+03  0.76918615763E+03  0.00000000000E+00 0. -1.
          2    1    3    3  501    0  0.28946816912E+02 -0.28394719680E+03  0.17941630057E+03  0.33712629339E+03  0.00000000000E+00 0. -1.
<mgrwt>
<rscale>  0 0.65211180E+03</rscale>
<asrwt>0</asrwt>
<pdfrwt beam="1">0</pdfrwt>
<pdfrwt beam="2">  1        2 0.38659155E+00 0.65211180E+03</pdfrwt>
<totfact> 0.44682043E+00</totfact>
</mgrwt>
</event>
<event>
 5    1  0.2366700E-004  0.6110493E+03  0.7818608E-02  0.9882744E-01
         13   -1    0    0    0    0  0.00000000000E+00  0.00000000000E+00  0.10000000000E+04  0.10000000000E+04  0.00000000000E+00 0. -1.
          2   -1    0    0  501    0 -0.00000000000E+00 -0.00000000000E+00 -0.93345311632E+02  0.93345311632E+02  0.00000000000E+00 0. -1.
    9000006    2    1    2  501    0  0.00000000000E+00  0.00000000000E+00  0.90665468837E+03  0.10933453116E+04  0.61104929959E+03 0.  0.
         13    1    3    3    0    0 -0.26576086816E+03  0.94884984461E+02  0.66286027122E+03  0.72042746927E+03  0.00000000000E+00 0. -1.
          4    1    3    3  501    0  0.26576086816E+03 -0.94884984461E+02  0.24379441715E+03  0.37291784236E+03  0.00000000000E+00 0. -1.
<mgrwt>
<rscale>  0 0.61104930E+03</rscale>
<asrwt>0</asrwt>
<pdfrwt beam="1">0</pdfrwt>
<pdfrwt beam="2">  1        2 0.33943821E+00 0.61104930E+03</pdfrwt>
<totfact> 0.66598894E+00</totfact>
</mgrwt>
</event>
<event>
 5    1  0.2366700E-004  0.6291783E+03  0.7818608E-02  0.9846654E-01
         13   -1    0    0    0    0  0.00000000000E+00  0.00000000000E+00  0.10000000000E+04  0.10000000000E+04  0.00000000000E+00 0. -1.
          2   -1    0    0  501    0 -0.00000000000E+00 -0.00000000000E+00 -0.98966326396E+02  0.98966326396E+02  0.00000000000E+00 0. -1.
    9000006    2    1    2  501    0  0.00000000000E+00  0.00000000000E+00  0.90103367360E+03  0.10989663264E+04  0.62917827806E+03 0.  0.
         13    1    3    3    0    0 -0.17811403871E+03 -0.13074680972E+03  0.59376064860E+02  0.22878998255E+03  0.00000000000E+00 0. -1.
          2    1    3    3  501    0  0.17811403871E+03  0.13074680972E+03  0.84165760874E+03  0.87017634385E+03  0.00000000000E+00 0. -1.
<mgrwt>
<rscale>  0 0.62917828E+03</rscale>
<asrwt>0</asrwt>
<pdfrwt beam="1">0</pdfrwt>
<pdfrwt beam="2">  1        2 0.35987831E+00 0.62917828E+03</pdfrwt>
<totfact> 0.56102500E+00</totfact>
</mgrwt>
</event>
<event>
 5    1  0.2366700E-004  0.6517792E+03  0.7818608E-02  0.9803446E-01
         13   -1    0    0    0    0  0.00000000000E+00  0.00000000000E+00  0.10000000000E+04  0.10000000000E+04  0.00000000000E+00 0. -1.
          2   -1    0    0  501    0 -0.00000000000E+00 -0.00000000000E+00 -0.10620402896E+03  0.10620402896E+03  0.00000000000E+00 0. -1.
    9000006    2    1    2  501    0  0.00000000000E+00  0.00000000000E+00  0.89379597104E+03  0.11062040290E+04  0.65177919253E+03 0.  0.
         13    1    3    3    0    0 -0.16845419869E+03 -0.25818657437E+03  0.62624788978E+03  0.69801399964E+03  0.00000000000E+00 0. -1.
          2    1    3    3  501    0  0.16845419869E+03  0.25818657437E+03  0.26754808126E+03  0.40819002931E+03  0.00000000000E+00 0. -1.
<mgrwt>
<rscale>  0 0.65177919E+03</rscale>
<asrwt>0</asrwt>
<pdfrwt beam="1">0</pdfrwt>
<pdfrwt beam="2">  1        2 0.38619728E+00 0.65177919E+03</pdfrwt>
<totfact> 0.44833889E+00</totfact>
</mgrwt>
</event>
<event>
 5    1  0.2366700E-004  0.6751374E+03  0.7818608E-02  0.9760721E-01
         13   -1    0    0    0    0  0.00000000000E+00  0.00000000000E+00  0.10000000000E+04  0.10000000000E+04  0.00000000000E+00 0. -1.
          2   -1    0    0  501    0 -0.00000000000E+00 -0.00000000000E+00 -0.11395261281E+03  0.11395261281E+03  0.00000000000E+00 0. -1.
    9000006    2    1    2  501    0  0.00000000000E+00  0.00000000000E+00  0.88604738719E+03  0.11139526128E+04  0.67513735733E+03 0.  0.
         13    1    3    3    0    0  0.22488228165E+03  0.20314923395E+03  0.68836935693E+03  0.75212633475E+03  0.00000000000E+00 0. -1.
          4    1    3    3  501    0 -0.22488228165E+03 -0.20314923395E+03  0.19767803025E+03  0.36182627807E+03  0.00000000000E+00 0. -1.
<mgrwt>
<rscale>  0 0.67513736E+03</rscale>
<asrwt>0</asrwt>
<pdfrwt beam="1">0</pdfrwt>
<pdfrwt beam="2">  1        2 0.41437401E+00 0.67513736E+03</pdfrwt>
<totfact> 0.35078563E+00</totfact>
</mgrwt>
</event>
<event>
 5    1  0.2366700E-004  0.6626464E+03  0.7818608E-02  0.9783334E-01
         13   -1    0    0    0    0  0.00000000000E+00  0.00000000000E+00  0.10000000000E+04  0.10000000000E+04  0.00000000000E+00 0. -1.
          2   -1    0    0  501    0 -0.00000000000E+00 -0.00000000000E+00 -0.10977505221E+03  0.10977505221E+03  0.00000000000E+00 0. -1.
    9000006    2    1    2  501    0  0.00000000000E+00  0.00000000000E+00  0.89022494779E+03  0.11097750522E+04  0.66264636786E+03 0.  0.
         13    1    3    3    0    0 -0.70343337552E+02  0.29176435546E+03  0.21004585208E+03  0.36632483431E+03  0.00000000000E+00 0. -1.
          2    1    3    3  501    0  0.70343337552E+02 -0.29176435546E+03  0.68017909571E+03  0.74345021790E+03  0.00000000000E+00 0. -1.
<mgrwt>
<rscale>  0 0.66264637E+03</rscale>
<asrwt>0</asrwt>
<pdfrwt beam="1">0</pdfrwt>
<pdfrwt beam="2">  1        2 0.39918285E+00 0.66264637E+03</pdfrwt>
<totfact> 0.40070458E+00</totfact>
</mgrwt>
</event>
<event>
 5    1  0.2366700E-004  0.6554926E+03  0.7818608E-02  0.9796527E-01
         13   -1    0    0    0    0  0.00000000000E+00  0.00000000000E+00  0.10000000000E+04  0.10000000000E+04  0.00000000000E+00 0. -1.
          2   -1    0    0  501    0 -0.00000000000E+00 -0.00000000000E+00 -0.10741764322E+03  0.10741764322E+03  0.00000000000E+00 0. -1.
    9000006    2    1    2  501    0  0.00000000000E+00  0.00000000000E+00  0.89258235678E+03  0.11074176432E+04  0.65549261849E+03 0.  0.
         13    1    3    3    0    0  0.30142957467E+02  0.15273507291E+03 -0.40963270674E+02  0.16098009171E+03  0.00000000000E+00 0. -1.
          4    1    3    3  501    0 -0.30142957467E+02 -0.15273507291E+03  0.93354562745E+03  0.94643755151E+03  0.00000000000E+00 0. -1.
<mgrwt>
<rscale>  0 0.65549262E+03</rscale>
<asrwt>0</asrwt>
<pdfrwt beam="1">0</pdfrwt>
<pdfrwt beam="2">  1        2 0.39061044E+00 0.65549262E+03</pdfrwt>
<totfact> 0.43160551E+00</totfact>
</mgrwt>
</event>
<event>
 5    1  0.2366700E-004  0.6491778E+03  0.7818608E-02  0.9808323E-01
         13   -1    0    0    0    0  0.00000000000E+00  0.00000000000E+00  0.10000000000E+04  0.10000000000E+04  0.00000000000E+00 0. -1.
          2   -1    0    0  501    0 -0.00000000000E+00 -0.00000000000E+00 -0.10535795285E+03  0.10535795285E+03  0.00000000000E+00 0. -1.
    9000006    2    1    2  501    0  0.00000000000E+00  0.00000000000E+00  0.89464204715E+03  0.11053579529E+04  0.64917779645E+03 0.  0.
         13    1    3    3    0    0 -0.22387785925E+02  0.41977300591E+02  0.99403142794E+03  0.99516922504E+03  0.00000000000E+00 0. -1.
          4    1    3    3  501    0  0.22387785925E+02 -0.41977300591E+02 -0.99389380793E+02  0.11018872782E+03  0.00000000000E+00 0. -1.
<mgrwt>
<rscale>  0 0.64917780E+03</rscale>
<asrwt>0</asrwt>
<pdfrwt beam="1">0</pdfrwt>
<pdfrwt beam="2">  1        2 0.38312064E+00 0.64917780E+03</pdfrwt>
<totfact> 0.46034992E+00</totfact>
</mgrwt>
</event>
<event>
 5    1  0.2366700E-004  0.6575801E+03  0.7818608E-02  0.9792659E-01
         13   -1    0    0    0    0  0.00000000000E+00  0.00000000000E+00  0.10000000000E+04  0.10000000000E+04  0.00000000000E+00 0. -1.
          2   -1    0    0  501    0 -0.00000000000E+00 -0.00000000000E+00 -0.10810288189E+03  0.10810288189E+03  0.00000000000E+00 0. -1.
    9000006    2    1    2  501    0  0.00000000000E+00  0.00000000000E+00  0.89189711811E+03  0.11081028819E+04  0.65758005412E+03 0.  0.
         13    1    3    3    0    0 -0.19240813659E+03  0.18140226669E+03  0.77519581315E+03  0.81905813109E+03  0.00000000000E+00 0. -1.
          4    1    3    3  501    0  0.19240813659E+03 -0.18140226669E+03  0.11670130496E+03  0.28904475080E+03  0.00000000000E+00 0. -1.
<mgrwt>
<rscale>  0 0.65758005E+03</rscale>
<asrwt>0</asrwt>
<pdfrwt beam="1">0</pdfrwt>
<pdfrwt beam="2">  1        2 0.39310222E+00 0.65758005E+03</pdfrwt>
<totfact> 0.42240874E+00</totfact>
</mgrwt>
</event>
<event>
 5    1  0.2366700E-004  0.6582570E+03  0.7818608E-02  0.9791408E-01
         13   -1    0    0    0    0  0.00000000000E+00  0.00000000000E+00  0.10000000000E+04  0.10000000000E+04  0.00000000000E+00 0. -1.
          2   -1    0    0  501    0 -0.00000000000E+00 -0.00000000000E+00 -0.10832558102E+03  0.10832558102E+03  0.00000000000E+00 0. -1.
    9000006    2    1    2  501    0  0.00000000000E+00  0.00000000000E+00  0.89167441898E+03  0.11083255810E+04  0.65825703495E+03 0.  0.
         13    1    3    3    0    0  0.67203230165E+02  0.32219266394E+03  0.44767715976E+03  0.55564307447E+03  0.00000000000E+00 0. -1.
          2    1    3    3  501    0 -0.67203230165E+02 -0.32219266394E+03  0.44399725922E+03  0.55268250654E+03  0.00000000000E+00 0. -1.
<mgrwt>
<rscale>  0 0.65825703E+03</rscale>
<asrwt>0</asrwt>
<pdfrwt beam="1">0</pdfrwt>
<pdfrwt beam="2">  1        2 0.39391203E+00 0.65825703E+03</pdfrwt>
<totfact> 0.41945815E+00</totfact>
</mgrwt>
</event>
<event>
 5    1  0.2366700E-004  0.6385624E+03  0.7818608E-02  0.9828481E-01
         13   -1    0    0    0    0  0.00000000000E+00  0.00000000000E+00  0.10000000000E+04  0.10000000000E+04  0.00000000000E+00 0. -1.
          2   -1    0    0  501    0 -0.00000000000E+00 -0.00000000000E+00 -0.10194048555E+03  0.10194048555E+03  0.00000000000E+00 0. -1.
    9000006    2    1    2  501    0  0.00000000000E+00  0.00000000000E+00  0.89805951445E+03  0.11019404856E+04  0.63856240275E+03 0.  0.
         13    1    3    3    0    0  0.14708227160E+03  0.18218813803E+03  0.82360006490E+03  0.85623757168E+03  0.00000000000E+00 0. -1.
          4    1    3    3  501    0 -0.14708227160E+03 -0.18218813803E+03  0.74459449552E+02  0.24570291387E+03  0.00000000000E+00 0. -1.
<mgrwt>
<rscale>  0 0.63856240E+03</rscale>
<asrwt>0</asrwt>
<pdfrwt beam="1">0</pdfrwt>
<pdfrwt beam="2">  1        2 0.37069346E+00 0.63856240E+03</pdfrwt>
<totfact> 0.51190624E+00</totfact>
</mgrwt>
</event>
<event>
 5    1  0.2366700E-004  0.6533271E+03  0.7818608E-02  0.9800556E-01
         13   -1    0    0    0    0  0.00000000000E+00  0.00000000000E+00  0.10000000000E+04  0.10000000000E+04  0.00000000000E+00 0. -1.
          2   -1    0    0  501    0 -0.00000000000E+00 -0.00000000000E+00 -0.10670907029E+03  0.10670907029E+03  0.00000000000E+00 0. -1.
    9000006    2    1    2  501    0  0.00000000000E+00  0.00000000000E+00  0.89329092971E+03  0.11067090703E+04  0.65332708591E+03 0.  0.
         13    1    3    3    0    0 -0.25163407401E+03 -0.43143996460E+02  0.10144362847E+03  0.27472153426E+03  0.00000000000E+00 0. -1.
          4    1    3    3  501    0  0.25163407401E+03  0.43143996460E+02  0.79184730124E+03  0.83198753603E+03  0.00000000000E+00 0. -1.
<mgrwt>
<rscale>  0 0.65332709E+03</rscale>
<asrwt>0</asrwt>
<pdfrwt beam="1">0</pdfrwt>
<pdfrwt beam="2">  1        2 0.38803380E+00 0.65332709E+03</pdfrwt>
<totfact> 0.44130534E+00</totfact>
</mgrwt>
</event>
<event>
 5    1  0.2366700E-004  0.6302565E+03  0.7818608E-02  0.9844548E-01
         13   -1    0    0    0    0  0.00000000000E+00  0.00000000000E+00  0.10000000000E+04  0.10000000000E+04  0.00000000000E+00 0. -1.
          2   -1    0    0  501    0 -0.00000000000E+00 -0.00000000000E+00 -0.99305828907E+02  0.99305828907E+02  0.00000000000E+00 0. -1.
    9000006    2    1    2  501    0  0.00000000000E+00  0.00000000000E+00  0.90069417109E+03  0.10993058289E+04  0.63025654747E+03 0.  0.
         13    1    3    3    0    0 -0.21397166047E+03 -0.11881285699E+03  0.79658879152E+03  0.83333910819E+03  0.00000000000E+00 0. -1.
          2    1    3    3  501    0  0.21397166047E+03  0.11881285699E+03  0.10410537957E+03  0.26596672071E+03  0.00000000000E+00 0. -1.
<mgrwt>
<rscale>  0 0.63025655E+03</rscale>
<asrwt>0</asrwt>
<pdfrwt beam="1">0</pdfrwt>
<pdfrwt beam="2">  1        2 0.36111287E+00 0.63025655E+03</pdfrwt>
<totfact> 0.55520645E+00</totfact>
</mgrwt>
</event>
<event>
 5    1  0.2366700E-004  0.6078127E+03  0.7818608E-02  0.9889328E-01
         13   -1    0    0    0    0  0.00000000000E+00  0.00000000000E+00  0.10000000000E+04  0.10000000000E+04  0.00000000000E+00 0. -1.
          2   -1    0    0  501    0 -0.00000000000E+00 -0.00000000000E+00 -0.92359079325E+02  0.92359079325E+02  0.00000000000E+00 0. -1.
    9000006    2    1    2  501    0  0.00000000000E+00  0.00000000000E+00  0.90764092068E+03  0.10923590793E+04  0.60781273210E+03 0.  0.
         13    1    3    3    0    0 -0.10392457909E+03  0.17575436378E+03  0.85836607937E+03  0.88231640625E+03  0.00000000000E+00 0. -1.
          2    1    3    3  501    0  0.10392457909E+03 -0.17575436378E+03  0.49274841305E+02  0.21004267307E+03  0.00000000000E+00 0. -1.
<mgrwt>
<rscale>  0 0.60781273E+03</rscale>
<asrwt>0</asrwt>
<pdfrwt beam="1">0</pdfrwt>
<pdfrwt beam="2">  1        2 0.33585191E+00 0.60781273E+03</pdfrwt>
<totfact> 0.68620239E+00</totfact>
</mgrwt>
</event>
<event>
 5    1  0.2366700E-004  0.6502458E+03  0.7818608E-02  0.9806318E-01
         13   -1    0    0    0    0  0.00000000000E+00  0.00000000000E+00  0.10000000000E+04  0.10000000000E+04  0.00000000000E+00 0. -1.
          2   -1    0    0  501    0 -0.00000000000E+00 -0.00000000000E+00 -0.10570490898E+03  0.10570490898E+03  0.00000000000E+00 0. -1.
    9000006    2    1    2  501    0  0.00000000000E+00  0.00000000000E+00  0.89429509102E+03  0.11057049090E+04  0.65024582728E+03 0.  0.
         13    1    3    3    0    0 -0.39581420993E+02  0.56690343529E+02 -0.93058954783E+02  0.11593296771E+03  0.00000000000E+00 0. -1.
          4    1    3    3  501    0  0.39581420993E+02 -0.56690343529E+02  0.98735404581E+03  0.98977194126E+03  0.00000000000E+00 0. -1.
<mgrwt>
<rscale>  0 0.65024583E+03</rscale>
<asrwt>0</asrwt>
<pdfrwt beam="1">0</pdfrwt>
<pdfrwt beam="2">  1        2 0.38438230E+00 0.65024583E+03</pdfrwt>
<totfact> 0.45538962E+00</totfact>
</mgrwt>
</event>
<event>
 5    1  0.2366700E-004  0.6520055E+03  0.7818608E-02  0.9803023E-01
         13   -1    0    0    0    0  0.00000000000E+00  0.00000000000E+00  0.10000000000E+04  0.10000000000E+04  0.00000000000E+00 0. -1.
          2   -1    0    0  501    0 -0.00000000000E+00 -0.00000000000E+00 -0.10627778785E+03  0.10627778785E+03  0.00000000000E+00 0. -1.
    9000006    2    1    2  501    0  0.00000000000E+00  0.00000000000E+00  0.89372221215E+03  0.11062777879E+04  0.65200548419E+03 0.  0.
         13    1    3    3    0    0 -0.15321537758E+03 -0.42091241592E+02  0.92985204219E+03  0.94332997669E+03  0.00000000000E+00 0. -1.
          4    1    3    3  501    0  0.15321537758E+03  0.42091241592E+02 -0.36129830045E+02  0.16294781117E+03  0.00000000000E+00 0. -1.
<mgrwt>
<rscale>  0 0.65200548E+03</rscale>
<asrwt>0</asrwt>
<pdfrwt beam="1">0</pdfrwt>
<pdfrwt beam="2">  1        2 0.38646550E+00 0.65200548E+03</pdfrwt>
<totfact> 0.44730539E+00</totfact>
</mgrwt>
</event>
<event>
 5    1  0.2366700E-004  0.6692127E+03  0.7818608E-02  0.9771381E-01
         13   -1    0    0    0    0  0.00000000000E+00  0.00000000000E+00  0.10000000000E+04  0.10000000000E+04  0.00000000000E+00 0. -1.
          2   -1    0    0  501    0 -0.00000000000E+00 -0.00000000000E+00 -0.11196142077E+03  0.11196142077E+03  0.00000000000E+00 0. -1.
    9000006    2    1    2  501    0  0.00000000000E+00  0.00000000000E+00  0.88803857923E+03  0.11119614208E+04  0.66921273380E+03 0.  0.
         13    1    3    3    0    0  0.21813229870E+03  0.21246128133E+03  0.21354249216E+03  0.37191651181E+03  0.00000000000E+00 0. -1.
          2    1    3    3  501    0 -0.21813229870E+03 -0.21246128133E+03  0.67449608707E+03  0.74004490896E+03  0.00000000000E+00 0. -1.
<mgrwt>
<rscale>  0 0.66921273E+03</rscale>
<asrwt>0</asrwt>
<pdfrwt beam="1">0</pdfrwt>
<pdfrwt beam="2">  1        2 0.40713330E+00 0.66921273E+03</pdfrwt>
<totfact> 0.37383891E+00</totfact>
</mgrwt>
</event>
<event>
 5    1  0.2366700E-004  0.6349923E+03  0.7818608E-02  0.9835355E-01
         13   -1    0    0    0    0  0.00000000000E+00  0.00000000000E+00  0.10000000000E+04  0.10000000000E+04  0.00000000000E+00 0. -1.
          4   -1    0    0  501    0 -0.00000000000E+00 -0.00000000000E+00 -0.10080380254E+03  0.10080380254E+03  0.00000000000E+00 0. -1.
    9000006    2    1    2  501    0  0.00000000000E+00  0.00000000000E+00  0.89919619746E+03  0.11008038025E+04  0.63499229142E+03 0.  0.
         13    1    3    3    0    0 -0.48523933782E+02  0.26479264873E+03  0.15779086528E+03  0.31203794022E+03  0.00000000000E+00 0. -1.
          2    1    3    3  501    0  0.48523933782E+02 -0.26479264873E+03  0.74140533218E+03  0.78876586232E+03  0.00000000000E+00 0. -1.
<mgrwt>
<rscale>  0 0.63499229E+03</rscale>
<asrwt>0</asrwt>
<pdfrwt beam="1">0</pdfrwt>
<pdfrwt beam="2">  1        4 0.36656005E+00 0.63499229E+03</pdfrwt>
<totfact> 0.53913402E-02</totfact>
</mgrwt>
</event>
<event>
 5    1  0.2366700E-004  0.5463993E+03  0.7818608E-02  0.1002331E+00
         13   -1    0    0    0    0  0.00000000000E+00  0.00000000000E+00  0.10000000000E+04  0.10000000000E+04  0.00000000000E+00 0. -1.
          2   -1    0    0  501    0 -0.00000000000E+00 -0.00000000000E+00 -0.74638053106E+02  0.74638053106E+02  0.00000000000E+00 0. -1.
    9000006    2    1    2  501    0  0.00000000000E+00  0.00000000000E+00  0.92536194689E+03  0.10746380531E+04  0.54639931591E+03 0.  0.
         13    1    3    3    0    0  0.91424423640E+02 -0.22808001051E+03  0.69753536412E+03  0.73955020156E+03  0.00000000000E+00 0. -1.
          2    1    3    3  501    0 -0.91424423640E+02  0.22808001051E+03  0.22782658277E+03  0.33508785154E+03  0.00000000000E+00 0. -1.
<mgrwt>
<rscale>  0 0.54639932E+03</rscale>
<asrwt>0</asrwt>
<pdfrwt beam="1">0</pdfrwt>
<pdfrwt beam="2">  1        2 0.27141167E+00 0.54639932E+03</pdfrwt>
<totfact> 0.11681747E+01</totfact>
</mgrwt>
</event>
<event>
 5    1  0.2366700E-004  0.6566168E+03  0.7818608E-02  0.9794442E-01
         13   -1    0    0    0    0  0.00000000000E+00  0.00000000000E+00  0.10000000000E+04  0.10000000000E+04  0.00000000000E+00 0. -1.
          2   -1    0    0  501    0 -0.00000000000E+00 -0.00000000000E+00 -0.10778641206E+03  0.10778641206E+03  0.00000000000E+00 0. -1.
    9000006    2    1    2  501    0  0.00000000000E+00  0.00000000000E+00  0.89221358794E+03  0.11077864121E+04  0.65661681996E+03 0.  0.
         13    1    3    3    0    0 -0.32407162805E+03  0.45447947427E+02  0.49069497792E+03  0.58980462646E+03  0.00000000000E+00 0. -1.
          4    1    3    3  501    0  0.32407162805E+03 -0.45447947427E+02  0.40151861001E+03  0.51798178560E+03  0.00000000000E+00 0. -1.
<mgrwt>
<rscale>  0 0.65661682E+03</rscale>
<asrwt>0</asrwt>
<pdfrwt beam="1">0</pdfrwt>
<pdfrwt beam="2">  1        2 0.39195142E+00 0.65661682E+03</pdfrwt>
<totfact> 0.42663395E+00</totfact>
</mgrwt>
</event>
<event>
 5    1  0.2366700E-004  0.6527522E+03  0.7818608E-02  0.9801629E-01
         13   -1    0    0    0    0  0.00000000000E+00  0.00000000000E+00  0.10000000000E+04  0.10000000000E+04  0.00000000000E+00 0. -1.
          2   -1    0    0  501    0 -0.00000000000E+00 -0.00000000000E+00 -0.10652134752E+03  0.10652134752E+03  0.00000000000E+00 0. -1.
    9000006    2    1    2  501    0  0.00000000000E+00  0.00000000000E+00  0.89347865248E+03  0.11065213475E+04  0.65275216590E+03 0.  0.
         13    1    3    3    0    0 -0.93345203796E+02 -0.24098372995E+03  0.10883221479E+03  0.28041208274E+03  0.00000000000E+00 0. -1.
          4    1    3    3  501    0  0.93345203796E+02  0.24098372995E+03  0.78464643769E+03  0.82610926478E+03  0.00000000000E+00 0. -1.
<mgrwt>
<rscale>  0 0.65275217E+03</rscale>
<asrwt>0</asrwt>
<pdfrwt beam="1">0</pdfrwt>
<pdfrwt beam="2">  1        2 0.38735117E+00 0.65275217E+03</pdfrwt>
<totfact> 0.44390794E+00</totfact>
</mgrwt>
</event>
<event>
 5    1  0.2366700E-004  0.6165261E+03  0.7818608E-02  0.9871701E-01
         13   -1    0    0    0    0  0.00000000000E+00  0.00000000000E+00  0.10000000000E+04  0.10000000000E+04  0.00000000000E+00 0. -1.
          2   -1    0    0  501    0 -0.00000000000E+00 -0.00000000000E+00 -0.95026121065E+02  0.95026121065E+02  0.00000000000E+00 0. -1.
    9000006    2    1    2  501    0  0.00000000000E+00  0.00000000000E+00  0.90497387893E+03  0.10950261211E+04  0.61652614240E+03 0.  0.
         13    1    3    3    0    0  0.10415802612E+03 -0.80003785620E+01 -0.62629148023E+02  0.12180029001E+03  0.00000000000E+00 0. -1.
          4    1    3    3  501    0 -0.10415802612E+03  0.80003785620E+01  0.96760302696E+03  0.97322583106E+03  0.00000000000E+00 0. -1.
<mgrwt>
<rscale>  0 0.61652614E+03</rscale>
<asrwt>0</asrwt>
<pdfrwt beam="1">0</pdfrwt>
<pdfrwt beam="2">  1        2 0.34555026E+00 0.61652614E+03</pdfrwt>
<totfact> 0.63282559E+00</totfact>
</mgrwt>
</event>
<event>
 5    1  0.2366700E-004  0.6627587E+03  0.7818608E-02  0.9783129E-01
         13   -1    0    0    0    0  0.00000000000E+00  0.00000000000E+00  0.10000000000E+04  0.10000000000E+04  0.00000000000E+00 0. -1.
          2   -1    0    0  501    0 -0.00000000000E+00 -0.00000000000E+00 -0.10981225981E+03  0.10981225981E+03  0.00000000000E+00 0. -1.
    9000006    2    1    2  501    0  0.00000000000E+00  0.00000000000E+00  0.89018774019E+03  0.11098122598E+04  0.66275865836E+03 0.  0.
         13    1    3    3    0    0 -0.39949175047E+02  0.32495734994E+03  0.35939689342E+03  0.48616801917E+03  0.00000000000E+00 0. -1.
          4    1    3    3  501    0  0.39949175047E+02 -0.32495734994E+03  0.53079084677E+03  0.62364424064E+03  0.00000000000E+00 0. -1.
<mgrwt>
<rscale>  0 0.66275866E+03</rscale>
<asrwt>0</asrwt>
<pdfrwt beam="1">0</pdfrwt>
<pdfrwt beam="2">  1        2 0.39931815E+00 0.66275866E+03</pdfrwt>
<totfact> 0.40023327E+00</totfact>
</mgrwt>
</event>
<event>
 5    1  0.2366700E-004  0.6474018E+03  0.7818608E-02  0.9811667E-01
         13   -1    0    0    0    0  0.00000000000E+00  0.00000000000E+00  0.10000000000E+04  0.10000000000E+04  0.00000000000E+00 0. -1.
          2   -1    0    0  501    0 -0.00000000000E+00 -0.00000000000E+00 -0.10478225941E+03  0.10478225941E+03  0.00000000000E+00 0. -1.
    9000006    2    1    2  501    0  0.00000000000E+00  0.00000000000E+00  0.89521774059E+03  0.11047822594E+04  0.64740175906E+03 0.  0.
         13    1    3    3    0    0 -0.10200493105E+03 -0.26403489428E+03  0.17961537428E+03  0.33523292505E+03  0.00000000000E+00 0. -1.
          2    1    3    3  501    0  0.10200493105E+03  0.26403489428E+03  0.71560236631E+03  0.76954933436E+03  0.00000000000E+00 0. -1.
<mgrwt>
<rscale>  0 0.64740176E+03</rscale>
<asrwt>0</asrwt>
<pdfrwt beam="1">0</pdfrwt>
<pdfrwt beam="2">  1        2 0.38102720E+00 0.64740176E+03</pdfrwt>
<totfact> 0.46868874E+00</totfact>
</mgrwt>
</event>
<event>
 5    1  0.2366700E-004  0.6499735E+03  0.7818608E-02  0.9806829E-01
         13   -1    0    0    0    0  0.00000000000E+00  0.00000000000E+00  0.10000000000E+04  0.10000000000E+04  0.00000000000E+00 0. -1.
          2   -1    0    0  501    0 -0.00000000000E+00 -0.00000000000E+00 -0.10561639804E+03  0.10561639804E+03  0.00000000000E+00 0. -1.
    9000006    2    1    2  501    0  0.00000000000E+00  0.00000000000E+00  0.89438360196E+03  0.11056163980E+04  0.64997353188E+03 0.  0.
         13    1    3    3    0    0  0.71410234476E+02 -0.27505351297E+03  0.17897772891E+03  0.33583758579E+03  0.00000000000E+00 0. -1.
          4    1    3    3  501    0 -0.71410234476E+02  0.27505351297E+03  0.71540587305E+03  0.76977881224E+03  0.00000000000E+00 0. -1.
<mgrwt>
<rscale>  0 0.64997353E+03</rscale>
<asrwt>0</asrwt>
<pdfrwt beam="1">0</pdfrwt>
<pdfrwt beam="2">  1        2 0.38406044E+00 0.64997353E+03</pdfrwt>
<totfact> 0.45665039E+00</totfact>
</mgrwt>
</event>
<event>
 5    1  0.2366700E-004  0.6620056E+03  0.7818608E-02  0.9784509E-01
         13   -1    0    0    0    0  0.00000000000E+00  0.00000000000E+00  0.10000000000E+04  0.10000000000E+04  0.00000000000E+00 0. -1.
          2   -1    0    0  501    0 -0.00000000000E+00 -0.00000000000E+00 -0.10956286447E+03  0.10956286447E+03  0.00000000000E+00 0. -1.
    9000006    2    1    2  501    0  0.00000000000E+00  0.00000000000E+00  0.89043713553E+03  0.11095628645E+04  0.66200563281E+03 0.  0.
         13    1    3    3    0    0  0.15890340926E+03 -0.25829330209E+03  0.66755533480E+03  0.73320928009E+03  0.00000000000E+00 0. -1.
          4    1    3    3  501    0 -0.15890340926E+03  0.25829330209E+03  0.22288180073E+03  0.37635358438E+03  0.00000000000E+00 0. -1.
<mgrwt>
<rscale>  0 0.66200563E+03</rscale>
<asrwt>0</asrwt>
<pdfrwt beam="1">0</pdfrwt>
<pdfrwt beam="2">  1        2 0.39841126E+00 0.66200563E+03</pdfrwt>
<totfact> 0.40340190E+00</totfact>
</mgrwt>
</event>
<event>
 5    1  0.2366700E-004  0.6911089E+03  0.7818608E-02  0.9732559E-01
         13   -1    0    0    0    0  0.00000000000E+00  0.00000000000E+00  0.10000000000E+04  0.10000000000E+04  0.00000000000E+00 0. -1.
          2   -1    0    0  501    0 -0.00000000000E+00 -0.00000000000E+00 -0.11940787996E+03  0.11940787996E+03  0.00000000000E+00 0. -1.
    9000006    2    1    2  501    0  0.00000000000E+00  0.00000000000E+00  0.88059212004E+03  0.11194078800E+04  0.69110890591E+03 0.  0.
         13    1    3    3    0    0  0.17401176739E+03 -0.29433645451E+03  0.35940959747E+03  0.49607388804E+03  0.00000000000E+00 0. -1.
          2    1    3    3  501    0 -0.17401176739E+03  0.29433645451E+03  0.52118252258E+03  0.62333399192E+03  0.00000000000E+00 0. -1.
<mgrwt>
<rscale>  0 0.69110891E+03</rscale>
<asrwt>0</asrwt>
<pdfrwt beam="1">0</pdfrwt>
<pdfrwt beam="2">  1        2 0.43421139E+00 0.69110891E+03</pdfrwt>
<totfact> 0.29396066E+00</totfact>
</mgrwt>
</event>
<event>
 5    1  0.2366700E-004  0.6501459E+03  0.7818608E-02  0.9806506E-01
         13   -1    0    0    0    0  0.00000000000E+00  0.00000000000E+00  0.10000000000E+04  0.10000000000E+04  0.00000000000E+00 0. -1.
          2   -1    0    0  501    0 -0.00000000000E+00 -0.00000000000E+00 -0.10567240690E+03  0.10567240690E+03  0.00000000000E+00 0. -1.
    9000006    2    1    2  501    0  0.00000000000E+00  0.00000000000E+00  0.89432759310E+03  0.11056724069E+04  0.65014585103E+03 0.  0.
         13    1    3    3    0    0 -0.38564986218E+02 -0.32169915907E+03  0.49199139951E+03  0.58909519121E+03  0.00000000000E+00 0. -1.
          4    1    3    3  501    0  0.38564986218E+02  0.32169915907E+03  0.40233619359E+03  0.51657721570E+03  0.00000000000E+00 0. -1.
<mgrwt>
<rscale>  0 0.65014585E+03</rscale>
<asrwt>0</asrwt>
<pdfrwt beam="1">0</pdfrwt>
<pdfrwt beam="2">  1        2 0.38426411E+00 0.65014585E+03</pdfrwt>
<totfact> 0.45585222E+00</totfact>
</mgrwt>
</event>
<event>
 5    1  0.2366700E-004  0.6602112E+03  0.7818608E-02  0.9787805E-01
         13   -1    0    0    0    0  0.00000000000E+00  0.00000000000E+00  0.10000000000E+04  0.10000000000E+04  0.00000000000E+00 0. -1.
          2   -1    0    0  501    0 -0.00000000000E+00 -0.00000000000E+00 -0.10896969097E+03  0.10896969097E+03  0.00000000000E+00 0. -1.
    9000006    2    1    2  501    0  0.00000000000E+00  0.00000000000E+00  0.89103030903E+03  0.11089696910E+04  0.66021115097E+03 0.  0.
         13    1    3    3    0    0 -0.68731823389E+02 -0.30207529109E+03  0.63700427794E+03  0.70834172201E+03  0.00000000000E+00 0. -1.
          2    1    3    3  501    0  0.68731823389E+02  0.30207529109E+03  0.25402603109E+03  0.40062796895E+03  0.00000000000E+00 0. -1.
<mgrwt>
<rscale>  0 0.66021115E+03</rscale>
<asrwt>0</asrwt>
<pdfrwt beam="1">0</pdfrwt>
<pdfrwt beam="2">  1        2 0.39625426E+00 0.66021115E+03</pdfrwt>
<totfact> 0.41102914E+00</totfact>
</mgrwt>
</event>
<event>
 5    1  0.2366700E-004  0.6795963E+03  0.7818608E-02  0.9752776E-01
         13   -1    0    0    0    0  0.00000000000E+00  0.00000000000E+00  0.10000000000E+04  0.10000000000E+04  0.00000000000E+00 0. -1.
          2   -1    0    0  501    0 -0.00000000000E+00 -0.00000000000E+00 -0.11546277050E+03  0.11546277050E+03  0.00000000000E+00 0. -1.
    9000006    2    1    2  501    0  0.00000000000E+00  0.00000000000E+00  0.88453722950E+03  0.11154627705E+04  0.67959626396E+03 0.  0.
         13    1    3    3    0    0 -0.14449436598E+03 -0.21783655520E+03  0.79860419851E+03  0.84029759756E+03  0.00000000000E+00 0. -1.
          2    1    3    3  501    0  0.14449436598E+03  0.21783655520E+03  0.85933030993E+02  0.27516517294E+03  0.00000000000E+00 0. -1.
<mgrwt>
<rscale>  0 0.67959626E+03</rscale>
<asrwt>0</asrwt>
<pdfrwt beam="1">0</pdfrwt>
<pdfrwt beam="2">  1        2 0.41986551E+00 0.67959626E+03</pdfrwt>
<totfact> 0.33415584E+00</totfact>
</mgrwt>
</event>
<event>
 5    1  0.2366700E-004  0.6546021E+03  0.7818608E-02  0.9798182E-01
         13   -1    0    0    0    0  0.00000000000E+00  0.00000000000E+00  0.10000000000E+04  0.10000000000E+04  0.00000000000E+00 0. -1.
          2   -1    0    0  501    0 -0.00000000000E+00 -0.00000000000E+00 -0.10712596516E+03  0.10712596516E+03  0.00000000000E+00 0. -1.
    9000006    2    1    2  501    0  0.00000000000E+00  0.00000000000E+00  0.89287403484E+03  0.11071259652E+04  0.65460206280E+03 0.  0.
         13    1    3    3    0    0 -0.29443909057E+03 -0.35937526365E+02  0.21245011088E+03  0.36485741526E+03  0.00000000000E+00 0. -1.
          2    1    3    3  501    0  0.29443909057E+03  0.35937526365E+02  0.68042392396E+03  0.74226854989E+03  0.00000000000E+00 0. -1.
<mgrwt>
<rscale>  0 0.65460206E+03</rscale>
<asrwt>0</asrwt>
<pdfrwt beam="1">0</pdfrwt>
<pdfrwt beam="2">  1        2 0.38954979E+00 0.65460206E+03</pdfrwt>
<totfact> 0.43557477E+00</totfact>
</mgrwt>
</event>
<event>
 5    1  0.2366700E-004  0.6367549E+03  0.7818608E-02  0.9831955E-01
         13   -1    0    0    0    0  0.00000000000E+00  0.00000000000E+00  0.10000000000E+04  0.10000000000E+04  0.00000000000E+00 0. -1.
          2   -1    0    0  501    0 -0.00000000000E+00 -0.00000000000E+00 -0.10136420821E+03  0.10136420821E+03  0.00000000000E+00 0. -1.
    9000006    2    1    2  501    0  0.00000000000E+00  0.00000000000E+00  0.89863579179E+03  0.11013642082E+04  0.63675492369E+03 0.  0.
         13    1    3    3    0    0 -0.21059663749E+03  0.23246580402E+03  0.54362618211E+03  0.62763103782E+03  0.00000000000E+00 0. -1.
          4    1    3    3  501    0  0.21059663749E+03 -0.23246580402E+03  0.35500960968E+03  0.47373317039E+03  0.00000000000E+00 0. -1.
<mgrwt>
<rscale>  0 0.63675492E+03</rscale>
<asrwt>0</asrwt>
<pdfrwt beam="1">0</pdfrwt>
<pdfrwt beam="2">  1        2 0.36859790E+00 0.63675492E+03</pdfrwt>
<totfact> 0.52110305E+00</totfact>
</mgrwt>
</event>
<event>
 5    1  0.2366700E-004  0.6637352E+03  0.7818608E-02  0.9781342E-01
         13   -1    0    0    0    0  0.00000000000E+00  0.00000000000E+00  0.10000000000E+04  0.10000000000E+04  0.00000000000E+00 0. -1.
          2   -1    0    0  501    0 -0.00000000000E+00 -0.00000000000E+00 -0.11013610042E+03  0.11013610042E+03  0.00000000000E+00 0. -1.
    9000006    2    1    2  501    0  0.00000000000E+00  0.00000000000E+00  0.88986389958E+03  0.11101361004E+04  0.66373518941E+03 0.  0.
         13    1    3    3    0    0  0.40655543298E+02  0.25301001231E+00 -0.10595508632E+03  0.11348752148E+03  0.00000000000E+00 0. -1.
          4    1    3    3  501    0 -0.40655543298E+02 -0.25301001231E+00  0.99581898590E+03  0.99664857894E+03  0.00000000000E+00 0. -1.
<mgrwt>
<rscale>  0 0.66373519E+03</rscale>
<asrwt>0</asrwt>
<pdfrwt beam="1">0</pdfrwt>
<pdfrwt beam="2">  1        2 0.40049576E+00 0.66373519E+03</pdfrwt>
<totfact> 0.39615216E+00</totfact>
</mgrwt>
</event>
<event>
 5    1  0.2366700E-004  0.6847125E+03  0.7818608E-02  0.9743739E-01
         13   -1    0    0    0    0  0.00000000000E+00  0.00000000000E+00  0.10000000000E+04  0.10000000000E+04  0.00000000000E+00 0. -1.
          2   -1    0    0  501    0 -0.00000000000E+00 -0.00000000000E+00 -0.11720778711E+03  0.11720778711E+03  0.00000000000E+00 0. -1.
    9000006    2    1    2  501    0  0.00000000000E+00  0.00000000000E+00  0.88279221289E+03  0.11172077871E+04  0.68471245676E+03 0.  0.
         13    1    3    3    0    0  0.17885019767E+03 -0.24266519905E+03  0.17661676344E+03  0.34938127191E+03  0.00000000000E+00 0. -1.
          2    1    3    3  501    0 -0.17885019767E+03  0.24266519905E+03  0.70617544945E+03  0.76782651520E+03  0.00000000000E+00 0. -1.
<mgrwt>
<rscale>  0 0.68471246E+03</rscale>
<asrwt>0</asrwt>
<pdfrwt beam="1">0</pdfrwt>
<pdfrwt beam="2">  1        2 0.42621103E+00 0.68471246E+03</pdfrwt>
<totfact> 0.31581375E+00</totfact>
</mgrwt>
</event>
<event>
 5    1  0.2366700E-004  0.6497580E+03  0.7818608E-02  0.9807233E-01
         13   -1    0    0    0    0  0.00000000000E+00  0.00000000000E+00  0.10000000000E+04  0.10000000000E+04  0.00000000000E+00 0. -1.
          2   -1    0    0  501    0 -0.00000000000E+00 -0.00000000000E+00 -0.10554635897E+03  0.10554635897E+03  0.00000000000E+00 0. -1.
    9000006    2    1    2  501    0  0.00000000000E+00  0.00000000000E+00  0.89445364103E+03  0.11055463590E+04  0.64975798253E+03 0.  0.
         13    1    3    3    0    0 -0.27819454707E+03 -0.14436176595E+03  0.30171513578E+03  0.43504545583E+03  0.00000000000E+00 0. -1.
          4    1    3    3  501    0  0.27819454707E+03  0.14436176595E+03  0.59273850526E+03  0.67050090313E+03  0.00000000000E+00 0. -1.
<mgrwt>
<rscale>  0 0.64975798E+03</rscale>
<asrwt>0</asrwt>
<pdfrwt beam="1">0</pdfrwt>
<pdfrwt beam="2">  1        2 0.38380575E+00 0.64975798E+03</pdfrwt>
<totfact> 0.45765029E+00</totfact>
</mgrwt>
</event>
<event>
 5    1  0.2366700E-004  0.6634458E+03  0.7818608E-02  0.9781871E-01
         13   -1    0    0    0    0  0.00000000000E+00  0.00000000000E+00  0.10000000000E+04  0.10000000000E+04  0.00000000000E+00 0. -1.
          2   -1    0    0  501    0 -0.00000000000E+00 -0.00000000000E+00 -0.11004007771E+03  0.11004007771E+03  0.00000000000E+00 0. -1.
    9000006    2    1    2  501    0  0.00000000000E+00  0.00000000000E+00  0.88995992229E+03  0.11100400777E+04  0.66344578591E+03 0.  0.
         13    1    3    3    0    0 -0.29349388949E+02  0.63454534505E+02  0.98753328459E+03  0.99000497613E+03  0.00000000000E+00 0. -1.
          4    1    3    3  501    0  0.29349388949E+02 -0.63454534505E+02 -0.97573362301E+02  0.12003510158E+03  0.00000000000E+00 0. -1.
<mgrwt>
<rscale>  0 0.66344579E+03</rscale>
<asrwt>0</asrwt>
<pdfrwt beam="1">0</pdfrwt>
<pdfrwt beam="2">  1        2 0.40014658E+00 0.66344579E+03</pdfrwt>
<totfact> 0.39735834E+00</totfact>
</mgrwt>
</event>
<event>
 5    1  0.2366700E-004  0.6525177E+03  0.7818608E-02  0.9802066E-01
         13   -1    0    0    0    0  0.00000000000E+00  0.00000000000E+00  0.10000000000E+04  0.10000000000E+04  0.00000000000E+00 0. -1.
          2   -1    0    0  501    0 -0.00000000000E+00 -0.00000000000E+00 -0.10644484287E+03  0.10644484287E+03  0.00000000000E+00 0. -1.
    9000006    2    1    2  501    0  0.00000000000E+00  0.00000000000E+00  0.89355515713E+03  0.11064448429E+04  0.65251771738E+03 0.  0.
         13    1    3    3    0    0  0.14777154205E+03  0.21554326282E+03  0.77797121018E+03  0.82069149542E+03  0.00000000000E+00 0. -1.
          4    1    3    3  501    0 -0.14777154205E+03 -0.21554326282E+03  0.11558394694E+03  0.28575334745E+03  0.00000000000E+00 0. -1.
<mgrwt>
<rscale>  0 0.65251772E+03</rscale>
<asrwt>0</asrwt>
<pdfrwt beam="1">0</pdfrwt>
<pdfrwt beam="2">  1        2 0.38707297E+00 0.65251772E+03</pdfrwt>
<totfact> 0.44497259E+00</totfact>
</mgrwt>
</event>
<event>
 5    1  0.2366700E-004  0.6466787E+03  0.7818608E-02  0.9813031E-01
         13   -1    0    0    0    0  0.00000000000E+00  0.00000000000E+00  0.10000000000E+04  0.10000000000E+04  0.00000000000E+00 0. -1.
          2   -1    0    0  501    0 -0.00000000000E+00 -0.00000000000E+00 -0.10454834802E+03  0.10454834802E+03  0.00000000000E+00 0. -1.
    9000006    2    1    2  501    0  0.00000000000E+00  0.00000000000E+00  0.89545165198E+03  0.11045483480E+04  0.64667873948E+03 0.  0.
         13    1    3    3    0    0  0.59470191054E+02 -0.27348698569E+03  0.17116949100E+03  0.32807137884E+03  0.00000000000E+00 0. -1.
          4    1    3    3  501    0 -0.59470191054E+02  0.27348698569E+03  0.72428216098E+03  0.77647696918E+03  0.00000000000E+00 0. -1.
<mgrwt>
<rscale>  0 0.64667874E+03</rscale>
<asrwt>0</asrwt>
<pdfrwt beam="1">0</pdfrwt>
<pdfrwt beam="2">  1        2 0.38017661E+00 0.64667874E+03</pdfrwt>
<totfact> 0.47211596E+00</totfact>
</mgrwt>
</event>
<event>
 5    1  0.2366700E-004  0.6362902E+03  0.7818608E-02  0.9832850E-01
         13   -1    0    0    0    0  0.00000000000E+00  0.00000000000E+00  0.10000000000E+04  0.10000000000E+04  0.00000000000E+00 0. -1.
          2   -1    0    0  501    0 -0.00000000000E+00 -0.00000000000E+00 -0.10121629350E+03  0.10121629350E+03  0.00000000000E+00 0. -1.
    9000006    2    1    2  501    0  0.00000000000E+00  0.00000000000E+00  0.89878370650E+03  0.11012162935E+04  0.63629016493E+03 0.  0.
         13    1    3    3    0    0 -0.34654051299E+02  0.18677671621E+03  0.77121400691E+01  0.19012080921E+03  0.00000000000E+00 0. -1.
          4    1    3    3  501    0  0.34654051299E+02 -0.18677671621E+03  0.89107156643E+03  0.91109548429E+03  0.00000000000E+00 0. -1.
<mgrwt>
<rscale>  0 0.63629016E+03</rscale>
<asrwt>0</asrwt>
<pdfrwt beam="1">0</pdfrwt>
<pdfrwt beam="2">  1        2 0.36806003E+00 0.63629016E+03</pdfrwt>
<totfact> 0.52348793E+00</totfact>
</mgrwt>
</event>
<event>
 5    1  0.2366700E-004  0.6322249E+03  0.7818608E-02  0.9840717E-01
         13   -1    0    0    0    0  0.00000000000E+00  0.00000000000E+00  0.10000000000E+04  0.10000000000E+04  0.00000000000E+00 0. -1.
          2   -1    0    0  501    0 -0.00000000000E+00 -0.00000000000E+00 -0.99927094426E+02  0.99927094426E+02  0.00000000000E+00 0. -1.
    9000006    2    1    2  501    0  0.00000000000E+00  0.00000000000E+00  0.90007290557E+03  0.10999270944E+04  0.63222494233E+03 0.  0.
         13    1    3    3    0    0 -0.22440677185E+03  0.78129061542E+02  0.81274671478E+03  0.84677020017E+03  0.00000000000E+00 0. -1.
          2    1    3    3  501    0  0.22440677185E+03 -0.78129061542E+02  0.87326190793E+02  0.25315689425E+03  0.00000000000E+00 0. -1.
<mgrwt>
<rscale>  0 0.63222494E+03</rscale>
<asrwt>0</asrwt>
<pdfrwt beam="1">0</pdfrwt>
<pdfrwt beam="2">  1        2 0.36337202E+00 0.63222494E+03</pdfrwt>
<totfact> 0.54470286E+00</totfact>
</mgrwt>
</event>
<event>
 5    1  0.2366700E-004  0.6508439E+03  0.7818608E-02  0.9805197E-01
         13   -1    0    0    0    0  0.00000000000E+00  0.00000000000E+00  0.10000000000E+04  0.10000000000E+04  0.00000000000E+00 0. -1.
          2   -1    0    0  501    0 -0.00000000000E+00 -0.00000000000E+00 -0.10589945919E+03  0.10589945919E+03  0.00000000000E+00 0. -1.
    9000006    2    1    2  501    0  0.00000000000E+00  0.00000000000E+00  0.89410054081E+03  0.11058994592E+04  0.65084394195E+03 0.  0.
         13    1    3    3    0    0 -0.61576492033E+02  0.31053002719E+03  0.57509767382E+03  0.65647383542E+03  0.00000000000E+00 0. -1.
          4    1    3    3  501    0  0.61576492033E+02 -0.31053002719E+03  0.31900286699E+03  0.44942562378E+03  0.00000000000E+00 0. -1.
<mgrwt>
<rscale>  0 0.65084394E+03</rscale>
<asrwt>0</asrwt>
<pdfrwt beam="1">0</pdfrwt>
<pdfrwt beam="2">  1        2 0.38508975E+00 0.65084394E+03</pdfrwt>
<totfact> 0.45262947E+00</totfact>
</mgrwt>
</event>
<event>
 5    1  0.2366700E-004  0.6505549E+03  0.7818608E-02  0.9805738E-01
         13   -1    0    0    0    0  0.00000000000E+00  0.00000000000E+00  0.10000000000E+04  0.10000000000E+04  0.00000000000E+00 0. -1.
          2   -1    0    0  501    0 -0.00000000000E+00 -0.00000000000E+00 -0.10580542730E+03  0.10580542730E+03  0.00000000000E+00 0. -1.
    9000006    2    1    2  501    0  0.00000000000E+00  0.00000000000E+00  0.89419457270E+03  0.11058054273E+04  0.65055492406E+03 0.  0.
         13    1    3    3    0    0 -0.20456524738E+03 -0.77591060230E+01  0.87677155204E+03  0.90035298558E+03  0.00000000000E+00 0. -1.
          2    1    3    3  501    0  0.20456524738E+03  0.77591060230E+01  0.17423020652E+02  0.20545244173E+03  0.00000000000E+00 0. -1.
<mgrwt>
<rscale>  0 0.65055492E+03</rscale>
<asrwt>0</asrwt>
<pdfrwt beam="1">0</pdfrwt>
<pdfrwt beam="2">  1        2 0.38474782E+00 0.65055492E+03</pdfrwt>
<totfact> 0.45396163E+00</totfact>
</mgrwt>
</event>
<event>
 5    1  0.2366700E-004  0.6452114E+03  0.7818608E-02  0.9815806E-01
         13   -1    0    0    0    0  0.00000000000E+00  0.00000000000E+00  0.10000000000E+04  0.10000000000E+04  0.00000000000E+00 0. -1.
          2   -1    0    0  501    0 -0.00000000000E+00 -0.00000000000E+00 -0.10407445217E+03  0.10407445217E+03  0.00000000000E+00 0. -1.
    9000006    2    1    2  501    0  0.00000000000E+00  0.00000000000E+00  0.89592554783E+03  0.11040744522E+04  0.64521144494E+03 0.  0.
         13    1    3    3    0    0 -0.37040879949E+02  0.28445737667E+03  0.19538839354E+03  0.34708017843E+03  0.00000000000E+00 0. -1.
          2    1    3    3  501    0  0.37040879949E+02 -0.28445737667E+03  0.70053715429E+03  0.75699427374E+03  0.00000000000E+00 0. -1.
<mgrwt>
<rscale>  0 0.64521144E+03</rscale>
<asrwt>0</asrwt>
<pdfrwt beam="1">0</pdfrwt>
<pdfrwt beam="2">  1        2 0.37845335E+00 0.64521144E+03</pdfrwt>
<totfact> 0.47912939E+00</totfact>
</mgrwt>
</event>
<event>
 5    1  0.2366700E-004  0.6499423E+03  0.7818608E-02  0.9806888E-01
         13   -1    0    0    0    0  0.00000000000E+00  0.00000000000E+00  0.10000000000E+04  0.10000000000E+04  0.00000000000E+00 0. -1.
          2   -1    0    0  501    0 -0.00000000000E+00 -0.00000000000E+00 -0.10560623369E+03  0.10560623369E+03  0.00000000000E+00 0. -1.
    9000006    2    1    2  501    0  0.00000000000E+00  0.00000000000E+00  0.89439376631E+03  0.11056062337E+04  0.64994225496E+03 0.  0.
         13    1    3    3    0    0  0.19149314648E+03 -0.10950472955E+03  0.41263530896E+02  0.22441833687E+03  0.00000000000E+00 0. -1.
          2    1    3    3  501    0 -0.19149314648E+03  0.10950472955E+03  0.85313023541E+03  0.88118789682E+03  0.00000000000E+00 0. -1.
<mgrwt>
<rscale>  0 0.64994225E+03</rscale>
<asrwt>0</asrwt>
<pdfrwt beam="1">0</pdfrwt>
<pdfrwt beam="2">  1        2 0.38402348E+00 0.64994225E+03</pdfrwt>
<totfact> 0.45679538E+00</totfact>
</mgrwt>
</event>
<event>
 5    1  0.2366700E-004  0.6480336E+03  0.7818608E-02  0.9810476E-01
         13   -1    0    0    0    0  0.00000000000E+00  0.00000000000E+00  0.10000000000E+04  0.10000000000E+04  0.00000000000E+00 0. -1.
          2   -1    0    0  501    0 -0.00000000000E+00 -0.00000000000E+00 -0.10498688542E+03  0.10498688542E+03  0.00000000000E+00 0. -1.
    9000006    2    1    2  501    0  0.00000000000E+00  0.00000000000E+00  0.89501311458E+03  0.11049868854E+04  0.64803359612E+03 0.  0.
         13    1    3    3    0    0 -0.27303989167E+03  0.12019332926E+03  0.23189139091E+03  0.37785028255E+03  0.00000000000E+00 0. -1.
          4    1    3    3  501    0  0.27303989167E+03 -0.12019332926E+03  0.66312172366E+03  0.72713660287E+03  0.00000000000E+00 0. -1.
<mgrwt>
<rscale>  0 0.64803360E+03</rscale>
<asrwt>0</asrwt>
<pdfrwt beam="1">0</pdfrwt>
<pdfrwt beam="2">  1        2 0.38177130E+00 0.64803360E+03</pdfrwt>
<totfact> 0.46570917E+00</totfact>
</mgrwt>
</event>
<event>
 5    1  0.2366700E-004  0.6376803E+03  0.7818608E-02  0.9830175E-01
         13   -1    0    0    0    0  0.00000000000E+00  0.00000000000E+00  0.10000000000E+04  0.10000000000E+04  0.00000000000E+00 0. -1.
          2   -1    0    0  501    0 -0.00000000000E+00 -0.00000000000E+00 -0.10165902974E+03  0.10165902974E+03  0.00000000000E+00 0. -1.
    9000006    2    1    2  501    0  0.00000000000E+00  0.00000000000E+00  0.89834097026E+03  0.11016590297E+04  0.63768026390E+03 0.  0.
         13    1    3    3    0    0 -0.30861142168E+03 -0.56193001568E+02  0.35052494644E+03  0.47038962690E+03  0.00000000000E+00 0. -1.
          4    1    3    3  501    0  0.30861142168E+03  0.56193001568E+02  0.54781602382E+03  0.63126940284E+03  0.00000000000E+00 0. -1.
<mgrwt>
<rscale>  0 0.63768026E+03</rscale>
<asrwt>0</asrwt>
<pdfrwt beam="1">0</pdfrwt>
<pdfrwt beam="2">  1        2 0.36966998E+00 0.63768026E+03</pdfrwt>
<totfact> 0.51637923E+00</totfact>
</mgrwt>
</event>
<event>
 5    1  0.2366700E-004  0.6067164E+03  0.7818608E-02  0.9891569E-01
         13   -1    0    0    0    0  0.00000000000E+00  0.00000000000E+00  0.10000000000E+04  0.10000000000E+04  0.00000000000E+00 0. -1.
          2   -1    0    0  501    0 -0.00000000000E+00 -0.00000000000E+00 -0.92026209680E+02  0.92026209680E+02  0.00000000000E+00 0. -1.
    9000006    2    1    2  501    0  0.00000000000E+00  0.00000000000E+00  0.90797379032E+03  0.10920262097E+04  0.60671644013E+03 0.  0.
         13    1    3    3    0    0 -0.20712436387E+03 -0.18269794738E+03  0.67985167970E+03  0.73381015834E+03  0.00000000000E+00 0. -1.
          4    1    3    3  501    0  0.20712436387E+03  0.18269794738E+03  0.22812211062E+03  0.35821605134E+03  0.00000000000E+00 0. -1.
<mgrwt>
<rscale>  0 0.60671644E+03</rscale>
<asrwt>0</asrwt>
<pdfrwt beam="1">0</pdfrwt>
<pdfrwt beam="2">  1        2 0.33464147E+00 0.60671644E+03</pdfrwt>
<totfact> 0.69315440E+00</totfact>
</mgrwt>
</event>
<event>
 5    1  0.2366700E-004  0.7551673E+03  0.7818608E-02  0.9627278E-01
         13   -1    0    0    0    0  0.00000000000E+00  0.00000000000E+00  0.10000000000E+04  0.10000000000E+04  0.00000000000E+00 0. -1.
          2   -1    0    0  501    0 -0.00000000000E+00 -0.00000000000E+00 -0.14256942098E+03  0.14256942098E+03  0.00000000000E+00 0. -1.
    9000006    2    1    2  501    0  0.00000000000E+00  0.00000000000E+00  0.85743057902E+03  0.11425694210E+04  0.75516732181E+03 0.  0.
         13    1    3    3    0    0  0.23582668278E+03 -0.29478316914E+03  0.41718468145E+03  0.56263167308E+03  0.00000000000E+00 0. -1.
          4    1    3    3  501    0 -0.23582668278E+03  0.29478316914E+03  0.44024589757E+03  0.57993774791E+03  0.00000000000E+00 0. -1.
<mgrwt>
<rscale>  0 0.75516732E+03</rscale>
<asrwt>0</asrwt>
<pdfrwt beam="1">0</pdfrwt>
<pdfrwt beam="2">  1        2 0.51843535E+00 0.75516732E+03</pdfrwt>
<totfact> 0.13231549E+00</totfact>
</mgrwt>
</event>
<event>
 5    1  0.2366700E-004  0.6455087E+03  0.7818608E-02  0.9815244E-01
         13   -1    0    0    0    0  0.00000000000E+00  0.00000000000E+00  0.10000000000E+04  0.10000000000E+04  0.00000000000E+00 0. -1.
          2   -1    0    0  501    0 -0.00000000000E+00 -0.00000000000E+00 -0.10417036203E+03  0.10417036203E+03  0.00000000000E+00 0. -1.
    9000006    2    1    2  501    0  0.00000000000E+00  0.00000000000E+00  0.89582963797E+03  0.11041703620E+04  0.64550867394E+03 0.  0.
         13    1    3    3    0    0  0.19134780532E+03 -0.89711082393E+02  0.30639421723E+02  0.21354352031E+03  0.00000000000E+00 0. -1.
          4    1    3    3  501    0 -0.19134780532E+03  0.89711082393E+02  0.86519021624E+03  0.89062684172E+03  0.00000000000E+00 0. -1.
<mgrwt>
<rscale>  0 0.64550867E+03</rscale>
<asrwt>0</asrwt>
<pdfrwt beam="1">0</pdfrwt>
<pdfrwt beam="2">  1        2 0.37880212E+00 0.64550867E+03</pdfrwt>
<totfact> 0.47770236E+00</totfact>
</mgrwt>
</event>
<event>
 5    1  0.2366700E-004  0.6362110E+03  0.7818608E-02  0.9833003E-01
         13   -1    0    0    0    0  0.00000000000E+00  0.00000000000E+00  0.10000000000E+04  0.10000000000E+04  0.00000000000E+00 0. -1.
          2   -1    0    0  501    0 -0.00000000000E+00 -0.00000000000E+00 -0.10119112326E+03  0.10119112326E+03  0.00000000000E+00 0. -1.
    9000006    2    1    2  501    0  0.00000000000E+00  0.00000000000E+00  0.89880887674E+03  0.11011911233E+04  0.63621104442E+03 0.  0.
         13    1    3    3    0    0  0.20537799255E+02 -0.30273254434E+02 -0.97538141669E+02  0.10417274218E+03  0.00000000000E+00 0. -1.
          4    1    3    3  501    0 -0.20537799255E+02  0.30273254434E+02  0.99634701841E+03  0.99701838109E+03  0.00000000000E+00 0. -1.
<mgrwt>
<rscale>  0 0.63621104E+03</rscale>
<asrwt>0</asrwt>
<pdfrwt beam="1">0</pdfrwt>
<pdfrwt beam="2">  1        2 0.36796850E+00 0.63621104E+03</pdfrwt>
<totfact> 0.52389476E+00</totfact>
</mgrwt>
</event>
<event>
 5    1  0.2366700E-004  0.6467496E+03  0.7818608E-02  0.9812898E-01
         13   -1    0    0    0    0  0.00000000000E+00  0.00000000000E+00  0.10000000000E+04  0.10000000000E+04  0.00000000000E+00 0. -1.
          2   -1    0    0  501    0 -0.00000000000E+00 -0.00000000000E+00 -0.10457126190E+03  0.10457126190E+03  0.00000000000E+00 0. -1.
    9000006    2    1    2  501    0  0.00000000000E+00  0.00000000000E+00  0.89542873810E+03  0.11045712619E+04  0.64674960194E+03 0.  0.
         13    1    3    3    0    0  0.23214565001E+03 -0.35263568768E+02  0.67980052922E+02  0.24445124196E+03  0.00000000000E+00 0. -1.
          2    1    3    3  501    0 -0.23214565001E+03  0.35263568768E+02  0.82744868518E+03  0.86012001994E+03  0.00000000000E+00 0. -1.
<mgrwt>
<rscale>  0 0.64674960E+03</rscale>
<asrwt>0</asrwt>
<pdfrwt beam="1">0</pdfrwt>
<pdfrwt beam="2">  1        2 0.38025994E+00 0.64674960E+03</pdfrwt>
<totfact> 0.47177922E+00</totfact>
</mgrwt>
</event>
<event>
 5    1  0.2366700E-004  0.6496382E+03  0.7818608E-02  0.9807458E-01
         13   -1    0    0    0    0  0.00000000000E+00  0.00000000000E+00  0.10000000000E+04  0.10000000000E+04  0.00000000000E+00 0. -1.
          2   -1    0    0  501    0 -0.00000000000E+00 -0.00000000000E+00 -0.10550743965E+03  0.10550743965E+03  0.00000000000E+00 0. -1.
    9000006    2    1    2  501    0  0.00000000000E+00  0.00000000000E+00  0.89449256035E+03  0.11055074396E+04  0.64963817513E+03 0.  0.
         13    1    3    3    0    0 -0.85834797170E+02  0.29856377895E+03  0.28581070197E+03  0.42213232507E+03  0.00000000000E+00 0. -1.
          4    1    3    3  501    0  0.85834797170E+02 -0.29856377895E+03  0.60868185838E+03  0.68337511458E+03  0.00000000000E+00 0. -1.
<mgrwt>
<rscale>  0 0.64963818E+03</rscale>
<asrwt>0</asrwt>
<pdfrwt beam="1">0</pdfrwt>
<pdfrwt beam="2">  1        2 0.38366423E+00 0.64963818E+03</pdfrwt>
<totfact> 0.45820678E+00</totfact>
</mgrwt>
</event>
<event>
 5    1  0.2366700E-004  0.6497168E+03  0.7818608E-02  0.9807311E-01
         13   -1    0    0    0    0  0.00000000000E+00  0.00000000000E+00  0.10000000000E+04  0.10000000000E+04  0.00000000000E+00 0. -1.
          2   -1    0    0  501    0 -0.00000000000E+00 -0.00000000000E+00 -0.10553298458E+03  0.10553298458E+03  0.00000000000E+00 0. -1.
    9000006    2    1    2  501    0  0.00000000000E+00  0.00000000000E+00  0.89446701542E+03  0.11055329846E+04  0.64971681394E+03 0.  0.
         13    1    3    3    0    0  0.15322734181E+03 -0.28576807187E+03  0.48087864581E+03  0.57998817331E+03  0.00000000000E+00 0. -1.
          4    1    3    3  501    0 -0.15322734181E+03  0.28576807187E+03  0.41358836961E+03  0.52554481127E+03  0.00000000000E+00 0. -1.
<mgrwt>
<rscale>  0 0.64971681E+03</rscale>
<asrwt>0</asrwt>
<pdfrwt beam="1">0</pdfrwt>
<pdfrwt beam="2">  1        2 0.38375712E+00 0.64971681E+03</pdfrwt>
<totfact> 0.45784146E+00</totfact>
</mgrwt>
</event>
<event>
 5    1  0.2366700E-004  0.6372806E+03  0.7818608E-02  0.9830943E-01
         13   -1    0    0    0    0  0.00000000000E+00  0.00000000000E+00  0.10000000000E+04  0.10000000000E+04  0.00000000000E+00 0. -1.
          2   -1    0    0  501    0 -0.00000000000E+00 -0.00000000000E+00 -0.10153163357E+03  0.10153163357E+03  0.00000000000E+00 0. -1.
    9000006    2    1    2  501    0  0.00000000000E+00  0.00000000000E+00  0.89846836643E+03  0.11015316336E+04  0.63728057737E+03 0.  0.
         13    1    3    3    0    0 -0.29561539300E+03  0.10757010379E+03  0.36157674959E+03  0.47926770562E+03  0.00000000000E+00 0. -1.
          4    1    3    3  501    0  0.29561539300E+03 -0.10757010379E+03  0.53689161684E+03  0.62226392796E+03  0.00000000000E+00 0. -1.
<mgrwt>
<rscale>  0 0.63728058E+03</rscale>
<asrwt>0</asrwt>
<pdfrwt beam="1">0</pdfrwt>
<pdfrwt beam="2">  1        2 0.36920672E+00 0.63728058E+03</pdfrwt>
<totfact> 0.51841561E+00</totfact>
</mgrwt>
</event>
<event>
 5    1  0.2366700E-004  0.6841048E+03  0.7818608E-02  0.9744808E-01
         13   -1    0    0    0    0  0.00000000000E+00  0.00000000000E+00  0.10000000000E+04  0.10000000000E+04  0.00000000000E+00 0. -1.
          2   -1    0    0  501    0 -0.00000000000E+00 -0.00000000000E+00 -0.11699984343E+03  0.11699984343E+03  0.00000000000E+00 0. -1.
    9000006    2    1    2  501    0  0.00000000000E+00  0.00000000000E+00  0.88300015657E+03  0.11169998434E+04  0.68410479732E+03 0.  0.
         13    1    3    3    0    0 -0.10058538565E+03 -0.47289855695E+02  0.96969228111E+03  0.97604142858E+03  0.00000000000E+00 0. -1.
          4    1    3    3  501    0  0.10058538565E+03  0.47289855695E+02 -0.86692124542E+02  0.14095841485E+03  0.00000000000E+00 0. -1.
<mgrwt>
<rscale>  0 0.68410480E+03</rscale>
<asrwt>0</asrwt>
<pdfrwt beam="1">0</pdfrwt>
<pdfrwt beam="2">  1        2 0.42545487E+00 0.68410480E+03</pdfrwt>
<totfact> 0.31795163E+00</totfact>
</mgrwt>
</event>
<event>
 5    1  0.2366700E-004  0.6415956E+03  0.7818608E-02  0.9822678E-01
         13   -1    0    0    0    0  0.00000000000E+00  0.00000000000E+00  0.10000000000E+04  0.10000000000E+04  0.00000000000E+00 0. -1.
          2   -1    0    0  501    0 -0.00000000000E+00 -0.00000000000E+00 -0.10291123076E+03  0.10291123076E+03  0.00000000000E+00 0. -1.
    9000006    2    1    2  501    0  0.00000000000E+00  0.00000000000E+00  0.89708876924E+03  0.11029112308E+04  0.64159560709E+03 0.  0.
         13    1    3    3    0    0  0.15585211601E+03 -0.23350082340E+03  0.71539985661E+03  0.76851120449E+03  0.00000000000E+00 0. -1.
          4    1    3    3  501    0 -0.15585211601E+03  0.23350082340E+03  0.18168891263E+03  0.33440002627E+03  0.00000000000E+00 0. -1.
<mgrwt>
<rscale>  0 0.64159561E+03</rscale>
<asrwt>0</asrwt>
<pdfrwt beam="1">0</pdfrwt>
<pdfrwt beam="2">  1        2 0.37422345E+00 0.64159561E+03</pdfrwt>
<totfact> 0.49674959E+00</totfact>
</mgrwt>
</event>
<event>
 5    1  0.2366700E-004  0.6495060E+03  0.7818608E-02  0.9807707E-01
         13   -1    0    0    0    0  0.00000000000E+00  0.00000000000E+00  0.10000000000E+04  0.10000000000E+04  0.00000000000E+00 0. -1.
          2   -1    0    0  501    0 -0.00000000000E+00 -0.00000000000E+00 -0.10546451161E+03  0.10546451161E+03  0.00000000000E+00 0. -1.
    9000006    2    1    2  501    0  0.00000000000E+00  0.00000000000E+00  0.89453548839E+03  0.11054645116E+04  0.64950600186E+03 0.  0.
         13    1    3    3    0    0  0.23616530779E+03  0.92746366444E+01  0.82633992401E+03  0.85947527102E+03  0.00000000000E+00 0. -1.
          2    1    3    3  501    0 -0.23616530779E+03 -0.92746366444E+01  0.68195564377E+02  0.24598924059E+03  0.00000000000E+00 0. -1.
<mgrwt>
<rscale>  0 0.64950600E+03</rscale>
<asrwt>0</asrwt>
<pdfrwt beam="1">0</pdfrwt>
<pdfrwt beam="2">  1        2 0.38350812E+00 0.64950600E+03</pdfrwt>
<totfact> 0.45882129E+00</totfact>
</mgrwt>
</event>
<event>
 5    1  0.2366700E-004  0.6510312E+03  0.7818608E-02  0.9804846E-01
         13   -1    0    0    0    0  0.00000000000E+00  0.00000000000E+00  0.10000000000E+04  0.10000000000E+04  0.00000000000E+00 0. -1.
          2   -1    0    0  501    0 -0.00000000000E+00 -0.00000000000E+00 -0.10596040696E+03  0.10596040696E+03  0.00000000000E+00 0. -1.
    9000006    2    1    2  501    0  0.00000000000E+00  0.00000000000E+00  0.89403959304E+03  0.11059604070E+04  0.65103120343E+03 0.  0.
         13    1    3    3    0    0 -0.35671585958E+02 -0.32091980152E+03  0.37700963528E+03  0.49638517922E+03  0.00000000000E+00 0. -1.
          4    1    3    3  501    0  0.35671585958E+02  0.32091980152E+03  0.51702995776E+03  0.60957522774E+03  0.00000000000E+00 0. -1.
<mgrwt>
<rscale>  0 0.65103120E+03</rscale>
<asrwt>0</asrwt>
<pdfrwt beam="1">0</pdfrwt>
<pdfrwt beam="2">  1        2 0.38531138E+00 0.65103120E+03</pdfrwt>
<totfact> 0.45176791E+00</totfact>
</mgrwt>
</event>
<event>
 5    1  0.2366700E-004  0.6377796E+03  0.7818608E-02  0.9829984E-01
         13   -1    0    0    0    0  0.00000000000E+00  0.00000000000E+00  0.10000000000E+04  0.10000000000E+04  0.00000000000E+00 0. -1.
          2   -1    0    0  501    0 -0.00000000000E+00 -0.00000000000E+00 -0.10169071704E+03  0.10169071704E+03  0.00000000000E+00 0. -1.
    9000006    2    1    2  501    0  0.00000000000E+00  0.00000000000E+00  0.89830928296E+03  0.11016907170E+04  0.63777963918E+03 0.  0.
         13    1    3    3    0    0  0.36743568868E+02  0.22976908001E+03  0.82581478954E+03  0.85797085417E+03  0.00000000000E+00 0. -1.
          4    1    3    3  501    0 -0.36743568868E+02 -0.22976908001E+03  0.72494493420E+02  0.24371986287E+03  0.00000000000E+00 0. -1.
<mgrwt>
<rscale>  0 0.63777964E+03</rscale>
<asrwt>0</asrwt>
<pdfrwt beam="1">0</pdfrwt>
<pdfrwt beam="2">  1        2 0.36978521E+00 0.63777964E+03</pdfrwt>
<totfact> 0.51587387E+00</totfact>
</mgrwt>
</event>
<event>
 5    1  0.2366700E-004  0.6521146E+03  0.7818608E-02  0.9802819E-01
         13   -1    0    0    0    0  0.00000000000E+00  0.00000000000E+00  0.10000000000E+04  0.10000000000E+04  0.00000000000E+00 0. -1.
          2   -1    0    0  501    0 -0.00000000000E+00 -0.00000000000E+00 -0.10631334962E+03  0.10631334962E+03  0.00000000000E+00 0. -1.
    9000006    2    1    2  501    0  0.00000000000E+00  0.00000000000E+00  0.89368665038E+03  0.11063133496E+04  0.65211455931E+03 0.  0.
         13    1    3    3    0    0 -0.15389500197E+03 -0.27447458510E+03  0.30195990793E+03  0.43611896943E+03  0.00000000000E+00 0. -1.
          2    1    3    3  501    0  0.15389500197E+03  0.27447458510E+03  0.59172674246E+03  0.67019438019E+03  0.00000000000E+00 0. -1.
<mgrwt>
<rscale>  0 0.65211456E+03</rscale>
<asrwt>0</asrwt>
<pdfrwt beam="1">0</pdfrwt>
<pdfrwt beam="2">  1        2 0.38659481E+00 0.65211456E+03</pdfrwt>
<totfact> 0.44680787E+00</totfact>
</mgrwt>
</event>
<event>
 5    1  0.2366700E-004  0.6384255E+03  0.7818608E-02  0.9828744E-01
         13   -1    0    0    0    0  0.00000000000E+00  0.00000000000E+00  0.10000000000E+04  0.10000000000E+04  0.00000000000E+00 0. -1.
          2   -1    0    0  501    0 -0.00000000000E+00 -0.00000000000E+00 -0.10189677265E+03  0.10189677265E+03  0.00000000000E+00 0. -1.
    9000006    2    1    2  501    0  0.00000000000E+00  0.00000000000E+00  0.89810322735E+03  0.11018967726E+04  0.63842547771E+03 0.  0.
         13    1    3    3    0    0 -0.22018830689E+03 -0.22062274037E+03  0.56787349975E+03  0.64779440857E+03  0.00000000000E+00 0. -1.
          2    1    3    3  501    0  0.22018830689E+03  0.22062274037E+03  0.33022972760E+03  0.45410236407E+03  0.00000000000E+00 0. -1.
<mgrwt>
<rscale>  0 0.63842548E+03</rscale>
<asrwt>0</asrwt>
<pdfrwt beam="1">0</pdfrwt>
<pdfrwt beam="2">  1        2 0.37053450E+00 0.63842548E+03</pdfrwt>
<totfact> 0.51259860E+00</totfact>
</mgrwt>
</event>
<event>
 5    1  0.2366700E-004  0.6571094E+03  0.7818608E-02  0.9793530E-01
         13   -1    0    0    0    0  0.00000000000E+00  0.00000000000E+00  0.10000000000E+04  0.10000000000E+04  0.00000000000E+00 0. -1.
          2   -1    0    0  501    0 -0.00000000000E+00 -0.00000000000E+00 -0.10794818615E+03  0.10794818615E+03  0.00000000000E+00 0. -1.
    9000006    2    1    2  501    0  0.00000000000E+00  0.00000000000E+00  0.89205181385E+03  0.11079481861E+04  0.65710938556E+03 0.  0.
         13    1    3    3    0    0  0.30077424034E+03 -0.37284625789E+01  0.22317338334E+03  0.37454693179E+03  0.00000000000E+00 0. -1.
          2    1    3    3  501    0 -0.30077424034E+03  0.37284625789E+01  0.66887843051E+03  0.73340125436E+03  0.00000000000E+00 0. -1.
<mgrwt>
<rscale>  0 0.65710939E+03</rscale>
<asrwt>0</asrwt>
<pdfrwt beam="1">0</pdfrwt>
<pdfrwt beam="2">  1        2 0.39253969E+00 0.65710939E+03</pdfrwt>
<totfact> 0.42446935E+00</totfact>
</mgrwt>
</event>
<event>
 5    1  0.2366700E-004  0.6471913E+03  0.7818608E-02  0.9812064E-01
         13   -1    0    0    0    0  0.00000000000E+00  0.00000000000E+00  0.10000000000E+04  0.10000000000E+04  0.00000000000E+00 0. -1.
          2   -1    0    0  501    0 -0.00000000000E+00 -0.00000000000E+00 -0.10471415714E+03  0.10471415714E+03  0.00000000000E+00 0. -1.
    9000006    2    1    2  501    0  0.00000000000E+00  0.00000000000E+00  0.89528584286E+03  0.11047141571E+04  0.64719133846E+03 0.  0.
         13    1    3    3    0    0  0.24848219033E+03 -0.15073929997E+03  0.69053469804E+03  0.74920217877E+03  0.00000000000E+00 0. -1.
          4    1    3    3  501    0 -0.24848219033E+03  0.15073929997E+03  0.20475114481E+03  0.35551197838E+03  0.00000000000E+00 0. -1.
<mgrwt>
<rscale>  0 0.64719134E+03</rscale>
<asrwt>0</asrwt>
<pdfrwt beam="1">0</pdfrwt>
<pdfrwt beam="2">  1        2 0.38077956E+00 0.64719134E+03</pdfrwt>
<totfact> 0.46968422E+00</totfact>
</mgrwt>
</event>
<event>
 5    1  0.2366700E-004  0.6490072E+03  0.7818608E-02  0.9808644E-01
         13   -1    0    0    0    0  0.00000000000E+00  0.00000000000E+00  0.10000000000E+04  0.10000000000E+04  0.00000000000E+00 0. -1.
          2   -1    0    0  501    0 -0.00000000000E+00 -0.00000000000E+00 -0.10530259736E+03  0.10530259736E+03  0.00000000000E+00 0. -1.
    9000006    2    1    2  501    0  0.00000000000E+00  0.00000000000E+00  0.89469740264E+03  0.11053025974E+04  0.64900723374E+03 0.  0.
         13    1    3    3    0    0 -0.26302534580E+03 -0.83074128491E+02  0.73846330051E+03  0.78829670148E+03  0.00000000000E+00 0. -1.
          2    1    3    3  501    0  0.26302534580E+03  0.83074128491E+02  0.15623410213E+03  0.31700589589E+03  0.00000000000E+00 0. -1.
<mgrwt>
<rscale>  0 0.64900723E+03</rscale>
<asrwt>0</asrwt>
<pdfrwt beam="1">0</pdfrwt>
<pdfrwt beam="2">  1        2 0.38291934E+00 0.64900723E+03</pdfrwt>
<totfact> 0.46114583E+00</totfact>
</mgrwt>
</event>
<event>
 5    1  0.2366700E-004  0.6666660E+03  0.7818608E-02  0.9776000E-01
         13   -1    0    0    0    0  0.00000000000E+00  0.00000000000E+00  0.10000000000E+04  0.10000000000E+04  0.00000000000E+00 0. -1.
          2   -1    0    0  501    0 -0.00000000000E+00 -0.00000000000E+00 -0.11111089255E+03  0.11111089255E+03  0.00000000000E+00 0. -1.
    9000006    2    1    2  501    0  0.00000000000E+00  0.00000000000E+00  0.88888910745E+03  0.11111108925E+04  0.66666601098E+03 0.  0.
         13    1    3    3    0    0  0.18101385526E+03 -0.26943594032E+03  0.57081657798E+03  0.65665311042E+03  0.00000000000E+00 0. -1.
          2    1    3    3  501    0 -0.18101385526E+03  0.26943594032E+03  0.31807252947E+03  0.45445778213E+03  0.00000000000E+00 0. -1.
<mgrwt>
<rscale>  0 0.66666601E+03</rscale>
<asrwt>0</asrwt>
<pdfrwt beam="1">0</pdfrwt>
<pdfrwt beam="2">  1        2 0.40404046E+00 0.66666601E+03</pdfrwt>
<totfact> 0.38409195E+00</totfact>
</mgrwt>
</event>
<event>
 5    1  0.2366700E-004  0.6473803E+03  0.7818608E-02  0.9811707E-01
         13   -1    0    0    0    0  0.00000000000E+00  0.00000000000E+00  0.10000000000E+04  0.10000000000E+04  0.00000000000E+00 0. -1.
          2   -1    0    0  501    0 -0.00000000000E+00 -0.00000000000E+00 -0.10477532619E+03  0.10477532619E+03  0.00000000000E+00 0. -1.
    9000006    2    1    2  501    0  0.00000000000E+00  0.00000000000E+00  0.89522467381E+03  0.11047753262E+04  0.64738034011E+03 0.  0.
         13    1    3    3    0    0  0.18643056752E+03 -0.26190986428E+03  0.38325564987E+03  0.50023797004E+03  0.00000000000E+00 0. -1.
          4    1    3    3  501    0 -0.18643056752E+03  0.26190986428E+03  0.51196902394E+03  0.60453735615E+03  0.00000000000E+00 0. -1.
<mgrwt>
<rscale>  0 0.64738034E+03</rscale>
<asrwt>0</asrwt>
<pdfrwt beam="1">0</pdfrwt>
<pdfrwt beam="2">  1        2 0.38100199E+00 0.64738034E+03</pdfrwt>
<totfact> 0.46879000E+00</totfact>
</mgrwt>
</event>
<event>
 5    1  0.2366700E-004  0.6481484E+03  0.7818608E-02  0.9810260E-01
         13   -1    0    0    0    0  0.00000000000E+00  0.00000000000E+00  0.10000000000E+04  0.10000000000E+04  0.00000000000E+00 0. -1.
          2   -1    0    0  501    0 -0.00000000000E+00 -0.00000000000E+00 -0.10502410122E+03  0.10502410122E+03  0.00000000000E+00 0. -1.
    9000006    2    1    2  501    0  0.00000000000E+00  0.00000000000E+00  0.89497589878E+03  0.11050241012E+04  0.64814844355E+03 0.  0.
         13    1    3    3    0    0 -0.51526671554E+02  0.27126117942E+03  0.15822586046E+03  0.31823426631E+03  0.00000000000E+00 0. -1.
          2    1    3    3  501    0  0.51526671554E+02 -0.27126117942E+03  0.73675003832E+03  0.78678983491E+03  0.00000000000E+00 0. -1.
<mgrwt>
<rscale>  0 0.64814844E+03</rscale>
<asrwt>0</asrwt>
<pdfrwt beam="1">0</pdfrwt>
<pdfrwt beam="2">  1        2 0.38190663E+00 0.64814844E+03</pdfrwt>
<totfact> 0.46516912E+00</totfact>
</mgrwt>
</event>
<event>
 5    1  0.2366700E-004  0.6552838E+03  0.7818608E-02  0.9796915E-01
         13   -1    0    0    0    0  0.00000000000E+00  0.00000000000E+00  0.10000000000E+04  0.10000000000E+04  0.00000000000E+00 0. -1.
          2   -1    0    0  501    0 -0.00000000000E+00 -0.00000000000E+00 -0.10734922651E+03  0.10734922651E+03  0.00000000000E+00 0. -1.
    9000006    2    1    2  501    0  0.00000000000E+00  0.00000000000E+00  0.89265077349E+03  0.11073492265E+04  0.65528383625E+03 0.  0.
         13    1    3    3    0    0 -0.35546232412E+02  0.14489498994E+03  0.93926907062E+03  0.95104388951E+03  0.00000000000E+00 0. -1.
          2    1    3    3  501    0  0.35546232412E+02 -0.14489498994E+03 -0.46618297131E+02  0.15630533700E+03  0.00000000000E+00 0. -1.
<mgrwt>
<rscale>  0 0.65528384E+03</rscale>
<asrwt>0</asrwt>
<pdfrwt beam="1">0</pdfrwt>
<pdfrwt beam="2">  1        2 0.39036165E+00 0.65528384E+03</pdfrwt>
<totfact> 0.43253360E+00</totfact>
</mgrwt>
</event>
<event>
 5    1  0.2366700E-004  0.6414459E+03  0.7818608E-02  0.9822964E-01
         13   -1    0    0    0    0  0.00000000000E+00  0.00000000000E+00  0.10000000000E+04  0.10000000000E+04  0.00000000000E+00 0. -1.
          2   -1    0    0  501    0 -0.00000000000E+00 -0.00000000000E+00 -0.10286322391E+03  0.10286322391E+03  0.00000000000E+00 0. -1.
    9000006    2    1    2  501    0  0.00000000000E+00  0.00000000000E+00  0.89713677609E+03  0.11028632239E+04  0.64144594133E+03 0.  0.
         13    1    3    3    0    0 -0.30008318322E+02 -0.23096133054E+03  0.82768012763E+03  0.85982441757E+03  0.00000000000E+00 0. -1.
          2    1    3    3  501    0  0.30008318322E+02  0.23096133054E+03  0.69456648460E+02  0.24303880635E+03  0.00000000000E+00 0. -1.
<mgrwt>
<rscale>  0 0.64144594E+03</rscale>
<asrwt>0</asrwt>
<pdfrwt beam="1">0</pdfrwt>
<pdfrwt beam="2">  1        2 0.37404888E+00 0.64144594E+03</pdfrwt>
<totfact> 0.49748938E+00</totfact>
</mgrwt>
</event>
<event>
 5    1  0.2366700E-004  0.6478934E+03  0.7818608E-02  0.9810740E-01
         13   -1    0    0    0    0  0.00000000000E+00  0.00000000000E+00  0.10000000000E+04  0.10000000000E+04  0.00000000000E+00 0. -1.
          2   -1    0    0  501    0 -0.00000000000E+00 -0.00000000000E+00 -0.10494145372E+03  0.10494145372E+03  0.00000000000E+00 0. -1.
    9000006    2    1    2  501    0  0.00000000000E+00  0.00000000000E+00  0.89505854628E+03  0.11049414537E+04  0.64789336690E+03 0.  0.
         13    1    3    3    0    0  0.15407632713E+03  0.19056041214E+03  0.80885933467E+03  0.84516637920E+03  0.00000000000E+00 0. -1.
          4    1    3    3  501    0 -0.15407632713E+03 -0.19056041214E+03  0.86199211614E+02  0.25977507452E+03  0.00000000000E+00 0. -1.
<mgrwt>
<rscale>  0 0.64789337E+03</rscale>
<asrwt>0</asrwt>
<pdfrwt beam="1">0</pdfrwt>
<pdfrwt beam="2">  1        2 0.38160609E+00 0.64789337E+03</pdfrwt>
<totfact> 0.46636921E+00</totfact>
</mgrwt>
</event>
<event>
 5    1  0.2366700E-004  0.6514379E+03  0.7818608E-02  0.9804085E-01
         13   -1    0    0    0    0  0.00000000000E+00  0.00000000000E+00  0.10000000000E+04  0.10000000000E+04  0.00000000000E+00 0. -1.
          2   -1    0    0  501    0 -0.00000000000E+00 -0.00000000000E+00 -0.10609284703E+03  0.10609284703E+03  0.00000000000E+00 0. -1.
    9000006    2    1    2  501    0  0.00000000000E+00  0.00000000000E+00  0.89390715297E+03  0.11060928470E+04  0.65143793880E+03 0.  0.
         13    1    3    3    0    0  0.16979784558E+03  0.23811972816E+03  0.69041812321E+03  0.74980630709E+03  0.00000000000E+00 0. -1.
          4    1    3    3  501    0 -0.16979784558E+03 -0.23811972816E+03  0.20348902976E+03  0.35628653993E+03  0.00000000000E+00 0. -1.
<mgrwt>
<rscale>  0 0.65143794E+03</rscale>
<asrwt>0</asrwt>
<pdfrwt beam="1">0</pdfrwt>
<pdfrwt beam="2">  1        2 0.38579298E+00 0.65143794E+03</pdfrwt>
<totfact> 0.44990086E+00</totfact>
</mgrwt>
</event>
<event>
 5    1  0.2366700E-004  0.6523955E+03  0.7818608E-02  0.9802294E-01
         13   -1    0    0    0    0  0.00000000000E+00  0.00000000000E+00  0.10000000000E+04  0.10000000000E+04  0.00000000000E+00 0. -1.
          2   -1    0    0  501    0 -0.00000000000E+00 -0.00000000000E+00 -0.10640498677E+03  0.10640498677E+03  0.00000000000E+00 0. -1.
    9000006    2    1    2  501    0  0.00000000000E+00  0.00000000000E+00  0.89359501323E+03  0.11064049868E+04  0.65239554496E+03 0.  0.
         13    1    3    3    0    0  0.90354395877E+02  0.31069633214E+03  0.51690368076E+03  0.60982419010E+03  0.00000000000E+00 0. -1.
          2    1    3    3  501    0 -0.90354395877E+02 -0.31069633214E+03  0.37669133247E+03  0.49658079667E+03  0.00000000000E+00 0. -1.
<mgrwt>
<rscale>  0 0.65239554E+03</rscale>
<asrwt>0</asrwt>
<pdfrwt beam="1">0</pdfrwt>
<pdfrwt beam="2">  1        2 0.38692804E+00 0.65239554E+03</pdfrwt>
<totfact> 0.44552815E+00</totfact>
</mgrwt>
</event>
<event>
 5    1  0.2366700E-004  0.6430487E+03  0.7818608E-02  0.9819911E-01
         13   -1    0    0    0    0  0.00000000000E+00  0.00000000000E+00  0.10000000000E+04  0.10000000000E+04  0.00000000000E+00 0. -1.
          2   -1    0    0  501    0 -0.00000000000E+00 -0.00000000000E+00 -0.10337791093E+03  0.10337791093E+03  0.00000000000E+00 0. -1.
    9000006    2    1    2  501    0  0.00000000000E+00  0.00000000000E+00  0.89662208907E+03  0.11033779109E+04  0.64304871023E+03 0.  0.
         13    1    3    3    0    0 -0.16959262592E+03  0.27275871634E+03  0.47369959100E+03  0.57232008406E+03  0.00000000000E+00 0. -1.
          4    1    3    3  501    0  0.16959262592E+03 -0.27275871634E+03  0.42292249807E+03  0.53105782687E+03  0.00000000000E+00 0. -1.
<mgrwt>
<rscale>  0 0.64304871E+03</rscale>
<asrwt>0</asrwt>
<pdfrwt beam="1">0</pdfrwt>
<pdfrwt beam="2">  1        2 0.37592047E+00 0.64304871E+03</pdfrwt>
<totfact> 0.48961031E+00</totfact>
</mgrwt>
</event>
<event>
 5    1  0.2366700E-004  0.6575790E+03  0.7818608E-02  0.9792661E-01
         13   -1    0    0    0    0  0.00000000000E+00  0.00000000000E+00  0.10000000000E+04  0.10000000000E+04  0.00000000000E+00 0. -1.
          2   -1    0    0  501    0 -0.00000000000E+00 -0.00000000000E+00 -0.10810254713E+03  0.10810254713E+03  0.00000000000E+00 0. -1.
    9000006    2    1    2  501    0  0.00000000000E+00  0.00000000000E+00  0.89189745287E+03  0.11081025471E+04  0.65757903596E+03 0.  0.
         13    1    3    3    0    0 -0.99553283211E+02  0.23494888885E+03  0.96551618669E+02  0.27282604648E+03  0.00000000000E+00 0. -1.
          2    1    3    3  501    0  0.99553283211E+02 -0.23494888885E+03  0.79534583420E+03  0.83527650065E+03  0.00000000000E+00 0. -1.
<mgrwt>
<rscale>  0 0.65757904E+03</rscale>
<asrwt>0</asrwt>
<pdfrwt beam="1">0</pdfrwt>
<pdfrwt beam="2">  1        2 0.39310100E+00 0.65757904E+03</pdfrwt>
<totfact> 0.42241319E+00</totfact>
</mgrwt>
</event>
<event>
 5    1  0.2366700E-004  0.5703683E+03  0.7818608E-02  0.9968864E-01
         13   -1    0    0    0    0  0.00000000000E+00  0.00000000000E+00  0.10000000000E+04  0.10000000000E+04  0.00000000000E+00 0. -1.
          2   -1    0    0  501    0 -0.00000000000E+00 -0.00000000000E+00 -0.81330009451E+02  0.81330009451E+02  0.00000000000E+00 0. -1.
    9000006    2    1    2  501    0  0.00000000000E+00  0.00000000000E+00  0.91866999055E+03  0.10813300095E+04  0.57036833520E+03 0.  0.
         13    1    3    3    0    0 -0.13698473303E+03 -0.21397911188E+03  0.21376536700E+03  0.33203540403E+03  0.00000000000E+00 0. -1.
          4    1    3    3  501    0  0.13698473303E+03  0.21397911188E+03  0.70490462355E+03  0.74929460542E+03  0.00000000000E+00 0. -1.
<mgrwt>
<rscale>  0 0.57036834E+03</rscale>
<asrwt>0</asrwt>
<pdfrwt beam="1">0</pdfrwt>
<pdfrwt beam="2">  1        2 0.29574611E+00 0.57036834E+03</pdfrwt>
<totfact> 0.95619581E+00</totfact>
</mgrwt>
</event>
<event>
 5    1  0.2366700E-004  0.6611825E+03  0.7818608E-02  0.9786019E-01
         13   -1    0    0    0    0  0.00000000000E+00  0.00000000000E+00  0.10000000000E+04  0.10000000000E+04  0.00000000000E+00 0. -1.
          2   -1    0    0  501    0 -0.00000000000E+00 -0.00000000000E+00 -0.10929058564E+03  0.10929058564E+03  0.00000000000E+00 0. -1.
    9000006    2    1    2  501    0  0.00000000000E+00  0.00000000000E+00  0.89070941436E+03  0.11092905856E+04  0.66118253346E+03 0.  0.
         13    1    3    3    0    0  0.21922541658E+03 -0.24321116030E+03  0.52185536714E+03  0.61607181073E+03  0.00000000000E+00 0. -1.
          2    1    3    3  501    0 -0.21922541658E+03  0.24321116030E+03  0.36885404723E+03  0.49321877491E+03  0.00000000000E+00 0. -1.
<mgrwt>
<rscale>  0 0.66118253E+03</rscale>
<asrwt>0</asrwt>
<pdfrwt beam="1">0</pdfrwt>
<pdfrwt beam="2">  1        2 0.39742115E+00 0.66118253E+03</pdfrwt>
<totfact> 0.40688701E+00</totfact>
</mgrwt>
</event>
<event>
 5    1  0.2366700E-004  0.6478737E+03  0.7818608E-02  0.9810777E-01
         13   -1    0    0    0    0  0.00000000000E+00  0.00000000000E+00  0.10000000000E+04  0.10000000000E+04  0.00000000000E+00 0. -1.
          2   -1    0    0  501    0 -0.00000000000E+00 -0.00000000000E+00 -0.10493507013E+03  0.10493507013E+03  0.00000000000E+00 0. -1.
    9000006    2    1    2  501    0  0.00000000000E+00  0.00000000000E+00  0.89506492987E+03  0.11049350701E+04  0.64787366094E+03 0.  0.
         13    1    3    3    0    0  0.31737618804E+03 -0.27471681366E+02  0.54774634478E+03  0.63364690186E+03  0.00000000000E+00 0. -1.
          4    1    3    3  501    0 -0.31737618804E+03  0.27471681366E+02  0.34731858508E+03  0.47128816827E+03  0.00000000000E+00 0. -1.
<mgrwt>
<rscale>  0 0.64787366E+03</rscale>
<asrwt>0</asrwt>
<pdfrwt beam="1">0</pdfrwt>
<pdfrwt beam="2">  1        2 0.38158288E+00 0.64787366E+03</pdfrwt>
<totfact> 0.46646202E+00</totfact>
</mgrwt>
</event>
<event>
 5    1  0.2366700E-004  0.6512124E+03  0.7818608E-02  0.9804507E-01
         13   -1    0    0    0    0  0.00000000000E+00  0.00000000000E+00  0.10000000000E+04  0.10000000000E+04  0.00000000000E+00 0. -1.
          2   -1    0    0  501    0 -0.00000000000E+00 -0.00000000000E+00 -0.10601939863E+03  0.10601939863E+03  0.00000000000E+00 0. -1.
    9000006    2    1    2  501    0  0.00000000000E+00  0.00000000000E+00  0.89398060137E+03  0.11060193986E+04  0.65121240354E+03 0.  0.
         13    1    3    3    0    0  0.22484362299E+03 -0.22905621790E+03  0.53998439698E+03  0.62817557636E+03  0.00000000000E+00 0. -1.
          2    1    3    3  501    0 -0.22484362299E+03  0.22905621790E+03  0.35399620439E+03  0.47784382227E+03  0.00000000000E+00 0. -1.
<mgrwt>
<rscale>  0 0.65121240E+03</rscale>
<asrwt>0</asrwt>
<pdfrwt beam="1">0</pdfrwt>
<pdfrwt beam="2">  1        2 0.38552590E+00 0.65121240E+03</pdfrwt>
<totfact> 0.45093542E+00</totfact>
</mgrwt>
</event>
<event>
 5    1  0.2366700E-004  0.6034321E+03  0.7818608E-02  0.9898311E-01
         13   -1    0    0    0    0  0.00000000000E+00  0.00000000000E+00  0.10000000000E+04  0.10000000000E+04  0.00000000000E+00 0. -1.
          2   -1    0    0  501    0 -0.00000000000E+00 -0.00000000000E+00 -0.91032563365E+02  0.91032563365E+02  0.00000000000E+00 0. -1.
    9000006    2    1    2  501    0  0.00000000000E+00  0.00000000000E+00  0.90896743664E+03  0.10910325634E+04  0.60343206201E+03 0.  0.
         13    1    3    3    0    0  0.24917562702E+03 -0.26853659443E+02  0.15073773480E+03  0.29245764962E+03  0.00000000000E+00 0. -1.
          4    1    3    3  501    0 -0.24917562702E+03  0.26853659443E+02  0.75822970183E+03  0.79857491375E+03  0.00000000000E+00 0. -1.
<mgrwt>
<rscale>  0 0.60343206E+03</rscale>
<asrwt>0</asrwt>
<pdfrwt beam="1">0</pdfrwt>
<pdfrwt beam="2">  1        2 0.33102820E+00 0.60343206E+03</pdfrwt>
<totfact> 0.71430478E+00</totfact>
</mgrwt>
</event>
<event>
 5    1  0.2366700E-004  0.6612513E+03  0.7818608E-02  0.9785893E-01
         13   -1    0    0    0    0  0.00000000000E+00  0.00000000000E+00  0.10000000000E+04  0.10000000000E+04  0.00000000000E+00 0. -1.
          2   -1    0    0  501    0 -0.00000000000E+00 -0.00000000000E+00 -0.10931332215E+03  0.10931332215E+03  0.00000000000E+00 0. -1.
    9000006    2    1    2  501    0  0.00000000000E+00  0.00000000000E+00  0.89068667785E+03  0.11093133222E+04  0.66125130519E+03 0.  0.
         13    1    3    3    0    0  0.79057305679E+02  0.14874841418E+03  0.92261066589E+03  0.93786277734E+03  0.00000000000E+00 0. -1.
          2    1    3    3  501    0 -0.79057305679E+02 -0.14874841418E+03 -0.31923988044E+02  0.17145054481E+03  0.00000000000E+00 0. -1.
<mgrwt>
<rscale>  0 0.66125131E+03</rscale>
<asrwt>0</asrwt>
<pdfrwt beam="1">0</pdfrwt>
<pdfrwt beam="2">  1        2 0.39750383E+00 0.66125131E+03</pdfrwt>
<totfact> 0.40659495E+00</totfact>
</mgrwt>
</event>
<event>
 5    1  0.2366700E-004  0.6548034E+03  0.7818608E-02  0.9797807E-01
         13   -1    0    0    0    0  0.00000000000E+00  0.00000000000E+00  0.10000000000E+04  0.10000000000E+04  0.00000000000E+00 0. -1.
          2   -1    0    0  501    0 -0.00000000000E+00 -0.00000000000E+00 -0.10719187832E+03  0.10719187832E+03  0.00000000000E+00 0. -1.
    9000006    2    1    2  501    0  0.00000000000E+00  0.00000000000E+00  0.89280812168E+03  0.11071918783E+04  0.65480341575E+03 0.  0.
         13    1    3    3    0    0 -0.15219082205E+03  0.18265527808E+03  0.82700866890E+03  0.86050469805E+03  0.00000000000E+00 0. -1.
          2    1    3    3  501    0  0.15219082205E+03 -0.18265527808E+03  0.65799452781E+02  0.24668718028E+03  0.00000000000E+00 0. -1.
<mgrwt>
<rscale>  0 0.65480342E+03</rscale>
<asrwt>0</asrwt>
<pdfrwt beam="1">0</pdfrwt>
<pdfrwt beam="2">  1        2 0.38978947E+00 0.65480342E+03</pdfrwt>
<totfact> 0.43467493E+00</totfact>
</mgrwt>
</event>
<event>
 5    1  0.2366700E-004  0.6913996E+03  0.7818608E-02  0.9732054E-01
         13   -1    0    0    0    0  0.00000000000E+00  0.00000000000E+00  0.10000000000E+04  0.10000000000E+04  0.00000000000E+00 0. -1.
          2   -1    0    0  501    0 -0.00000000000E+00 -0.00000000000E+00 -0.11950836296E+03  0.11950836296E+03  0.00000000000E+00 0. -1.
    9000006    2    1    2  501    0  0.00000000000E+00  0.00000000000E+00  0.88049163704E+03  0.11195083630E+04  0.69139963251E+03 0.  0.
         13    1    3    3    0    0  0.17512143914E+03  0.19782167025E+02 -0.41309201324E+02  0.18101188550E+03  0.00000000000E+00 0. -1.
          2    1    3    3  501    0 -0.17512143914E+03 -0.19782167025E+02  0.92180083837E+03  0.93849647745E+03  0.00000000000E+00 0. -1.
<mgrwt>
<rscale>  0 0.69139963E+03</rscale>
<asrwt>0</asrwt>
<pdfrwt beam="1">0</pdfrwt>
<pdfrwt beam="2">  1        2 0.43457678E+00 0.69139963E+03</pdfrwt>
<totfact> 0.29299528E+00</totfact>
</mgrwt>
</event>
<event>
 5    1  0.2366700E-004  0.6316516E+03  0.7818608E-02  0.9841831E-01
         13   -1    0    0    0    0  0.00000000000E+00  0.00000000000E+00  0.10000000000E+04  0.10000000000E+04  0.00000000000E+00 0. -1.
          2   -1    0    0  501    0 -0.00000000000E+00 -0.00000000000E+00 -0.99745946641E+02  0.99745946641E+02  0.00000000000E+00 0. -1.
    9000006    2    1    2  501    0  0.00000000000E+00  0.00000000000E+00  0.90025405336E+03  0.10997459466E+04  0.63165163386E+03 0.  0.
         13    1    3    3    0    0  0.18810867484E+03 -0.18863174645E+03  0.15476569880E+03  0.30808964742E+03  0.00000000000E+00 0. -1.
          4    1    3    3  501    0 -0.18810867484E+03  0.18863174645E+03  0.74548835456E+03  0.79165629922E+03  0.00000000000E+00 0. -1.
<mgrwt>
<rscale>  0 0.63165163E+03</rscale>
<asrwt>0</asrwt>
<pdfrwt beam="1">0</pdfrwt>
<pdfrwt beam="2">  1        2 0.36271330E+00 0.63165163E+03</pdfrwt>
<totfact> 0.54774640E+00</totfact>
</mgrwt>
</event>
<event>
 5    1  0.2366700E-004  0.6634720E+03  0.7818608E-02  0.9781823E-01
         13   -1    0    0    0    0  0.00000000000E+00  0.00000000000E+00  0.10000000000E+04  0.10000000000E+04  0.00000000000E+00 0. -1.
          2   -1    0    0  501    0 -0.00000000000E+00 -0.00000000000E+00 -0.11004876539E+03  0.11004876539E+03  0.00000000000E+00 0. -1.
    9000006    2    1    2  501    0  0.00000000000E+00  0.00000000000E+00  0.88995123461E+03  0.11100487654E+04  0.66347197497E+03 0.  0.
         13    1    3    3    0    0  0.12367502948E+03 -0.26951274083E+03  0.19616203086E+03  0.35554489553E+03  0.00000000000E+00 0. -1.
          2    1    3    3  501    0 -0.12367502948E+03  0.26951274083E+03  0.69378920375E+03  0.75450386986E+03  0.00000000000E+00 0. -1.
<mgrwt>
<rscale>  0 0.66347197E+03</rscale>
<asrwt>0</asrwt>
<pdfrwt beam="1">0</pdfrwt>
<pdfrwt beam="2">  1        2 0.40017817E+00 0.66347197E+03</pdfrwt>
<totfact> 0.39724908E+00</totfact>
</mgrwt>
</event>
<event>
 5    1  0.2366700E-004  0.6459059E+03  0.7818608E-02  0.9814492E-01
         13   -1    0    0    0    0  0.00000000000E+00  0.00000000000E+00  0.10000000000E+04  0.10000000000E+04  0.00000000000E+00 0. -1.
          2   -1    0    0  501    0 -0.00000000000E+00 -0.00000000000E+00 -0.10429860279E+03  0.10429860279E+03  0.00000000000E+00 0. -1.
    9000006    2    1    2  501    0  0.00000000000E+00  0.00000000000E+00  0.89570139721E+03  0.11042986028E+04  0.64590588412E+03 0.  0.
         13    1    3    3    0    0  0.28655169034E+03 -0.14153699343E+03  0.36850173767E+03  0.48778901424E+03  0.00000000000E+00 0. -1.
          2    1    3    3  501    0 -0.28655169034E+03  0.14153699343E+03  0.52719965955E+03  0.61650958855E+03  0.00000000000E+00 0. -1.
<mgrwt>
<rscale>  0 0.64590588E+03</rscale>
<asrwt>0</asrwt>
<pdfrwt beam="1">0</pdfrwt>
<pdfrwt beam="2">  1        2 0.37926845E+00 0.64590588E+03</pdfrwt>
<totfact> 0.47580033E+00</totfact>
</mgrwt>
</event>
<event>
 5    1  0.2366700E-004  0.6419784E+03  0.7818608E-02  0.9821949E-01
         13   -1    0    0    0    0  0.00000000000E+00  0.00000000000E+00  0.10000000000E+04  0.10000000000E+04  0.00000000000E+00 0. -1.
          2   -1    0    0  501    0 -0.00000000000E+00 -0.00000000000E+00 -0.10303405918E+03  0.10303405918E+03  0.00000000000E+00 0. -1.
    9000006    2    1    2  501    0  0.00000000000E+00  0.00000000000E+00  0.89696594082E+03  0.11030340592E+04  0.64197837714E+03 0.  0.
         13    1    3    3    0    0 -0.14909042968E+03 -0.22218157872E+03  0.14381991122E+03  0.30377092851E+03  0.00000000000E+00 0. -1.
          2    1    3    3  501    0  0.14909042968E+03  0.22218157872E+03  0.75314602960E+03  0.79926313067E+03  0.00000000000E+00 0. -1.
<mgrwt>
<rscale>  0 0.64197838E+03</rscale>
<asrwt>0</asrwt>
<pdfrwt beam="1">0</pdfrwt>
<pdfrwt beam="2">  1        2 0.37467010E+00 0.64197838E+03</pdfrwt>
<totfact> 0.49486136E+00</totfact>
</mgrwt>
</event>
<event>
 5    1  0.2366700E-004  0.6501198E+03  0.7818608E-02  0.9806554E-01
         13   -1    0    0    0    0  0.00000000000E+00  0.00000000000E+00  0.10000000000E+04  0.10000000000E+04  0.00000000000E+00 0. -1.
          2   -1    0    0  501    0 -0.00000000000E+00 -0.00000000000E+00 -0.10566393561E+03  0.10566393561E+03  0.00000000000E+00 0. -1.
    9000006    2    1    2  501    0  0.00000000000E+00  0.00000000000E+00  0.89433606439E+03  0.11056639356E+04  0.65011979082E+03 0.  0.
         13    1    3    3    0    0  0.31461901607E+02  0.31590238431E+03  0.56597156135E+03  0.64892832880E+03  0.00000000000E+00 0. -1.
          2    1    3    3  501    0 -0.31461901607E+02 -0.31590238431E+03  0.32836450304E+03  0.45673560680E+03  0.00000000000E+00 0. -1.
<mgrwt>
<rscale>  0 0.65011979E+03</rscale>
<asrwt>0</asrwt>
<pdfrwt beam="1">0</pdfrwt>
<pdfrwt beam="2">  1        2 0.38423330E+00 0.65011979E+03</pdfrwt>
<totfact> 0.45597286E+00</totfact>
</mgrwt>
</event>
<event>
 5    1  0.2366700E-004  0.6509374E+03  0.7818608E-02  0.9805022E-01
         13   -1    0    0    0    0  0.00000000000E+00  0.00000000000E+00  0.10000000000E+04  0.10000000000E+04  0.00000000000E+00 0. -1.
          2   -1    0    0  501    0 -0.00000000000E+00 -0.00000000000E+00 -0.10592988578E+03  0.10592988578E+03  0.00000000000E+00 0. -1.
    9000006    2    1    2  501    0  0.00000000000E+00  0.00000000000E+00  0.89407011422E+03  0.11059298858E+04  0.65093743411E+03 0.  0.
         13    1    3    3    0    0 -0.11939130048E+03  0.30277601005E+03  0.44446353209E+03  0.55088603744E+03  0.00000000000E+00 0. -1.
          4    1    3    3  501    0  0.11939130048E+03 -0.30277601005E+03  0.44960658213E+03  0.55504384834E+03  0.00000000000E+00 0. -1.
<mgrwt>
<rscale>  0 0.65093743E+03</rscale>
<asrwt>0</asrwt>
<pdfrwt beam="1">0</pdfrwt>
<pdfrwt beam="2">  1        2 0.38520040E+00 0.65093743E+03</pdfrwt>
<totfact> 0.45219917E+00</totfact>
</mgrwt>
</event>
<event>
 5    1  0.2366700E-004  0.6592023E+03  0.7818608E-02  0.9789663E-01
         13   -1    0    0    0    0  0.00000000000E+00  0.00000000000E+00  0.10000000000E+04  0.10000000000E+04  0.00000000000E+00 0. -1.
          2   -1    0    0  501    0 -0.00000000000E+00 -0.00000000000E+00 -0.10863691887E+03  0.10863691887E+03  0.00000000000E+00 0. -1.
    9000006    2    1    2  501    0  0.00000000000E+00  0.00000000000E+00  0.89136308113E+03  0.11086369189E+04  0.65920230238E+03 0.  0.
         13    1    3    3    0    0 -0.21938933237E+02  0.32859417360E+03  0.42302600042E+03  0.53610301692E+03  0.00000000000E+00 0. -1.
          4    1    3    3  501    0  0.21938933237E+02 -0.32859417360E+03  0.46833708071E+03  0.57253390195E+03  0.00000000000E+00 0. -1.
<mgrwt>
<rscale>  0 0.65920230E+03</rscale>
<asrwt>0</asrwt>
<pdfrwt beam="1">0</pdfrwt>
<pdfrwt beam="2">  1        2 0.39504417E+00 0.65920230E+03</pdfrwt>
<totfact> 0.41536464E+00</totfact>
</mgrwt>
</event>
<event>
 5    1  0.2366700E-004  0.5433938E+03  0.7818608E-02  0.1003035E+00
         13   -1    0    0    0    0  0.00000000000E+00  0.00000000000E+00  0.10000000000E+04  0.10000000000E+04  0.00000000000E+00 0. -1.
          2   -1    0    0  501    0 -0.00000000000E+00 -0.00000000000E+00 -0.73819217625E+02  0.73819217625E+02  0.00000000000E+00 0. -1.
    9000006    2    1    2  501    0  0.00000000000E+00  0.00000000000E+00  0.92618078238E+03  0.10738192176E+04  0.54339384474E+03 0.  0.
         13    1    3    3    0    0  0.25597656188E+03  0.59226285952E+02  0.59982209898E+03  0.65484219748E+03  0.00000000000E+00 0. -1.
          4    1    3    3  501    0 -0.25597656188E+03 -0.59226285952E+02  0.32635868339E+03  0.41897702014E+03  0.00000000000E+00 0. -1.
<mgrwt>
<rscale>  0 0.54339384E+03</rscale>
<asrwt>0</asrwt>
<pdfrwt beam="1">0</pdfrwt>
<pdfrwt beam="2">  1        2 0.26843408E+00 0.54339384E+03</pdfrwt>
<totfact> 0.11971707E+01</totfact>
</mgrwt>
</event>
<event>
 5    1  0.2366700E-004  0.6528826E+03  0.7818608E-02  0.9801385E-01
         13   -1    0    0    0    0  0.00000000000E+00  0.00000000000E+00  0.10000000000E+04  0.10000000000E+04  0.00000000000E+00 0. -1.
          2   -1    0    0  501    0 -0.00000000000E+00 -0.00000000000E+00 -0.10656392876E+03  0.10656392876E+03  0.00000000000E+00 0. -1.
    9000006    2    1    2  501    0  0.00000000000E+00  0.00000000000E+00  0.89343607124E+03  0.11065639288E+04  0.65288261966E+03 0.  0.
         13    1    3    3    0    0  0.65219065588E+02  0.29377519301E+03  0.66115028913E+03  0.72641385956E+03  0.00000000000E+00 0. -1.
          4    1    3    3  501    0 -0.65219065588E+02 -0.29377519301E+03  0.23228578210E+03  0.38015006920E+03  0.00000000000E+00 0. -1.
<mgrwt>
<rscale>  0 0.65288262E+03</rscale>
<asrwt>0</asrwt>
<pdfrwt beam="1">0</pdfrwt>
<pdfrwt beam="2">  1        2 0.38750601E+00 0.65288262E+03</pdfrwt>
<totfact> 0.44331638E+00</totfact>
</mgrwt>
</event>
<event>
 5    1  0.2366700E-004  0.6819162E+03  0.7818608E-02  0.9748668E-01
         13   -1    0    0    0    0  0.00000000000E+00  0.00000000000E+00  0.10000000000E+04  0.10000000000E+04  0.00000000000E+00 0. -1.
          2   -1    0    0  501    0 -0.00000000000E+00 -0.00000000000E+00 -0.11625241752E+03  0.11625241752E+03  0.00000000000E+00 0. -1.
    9000006    2    1    2  501    0  0.00000000000E+00  0.00000000000E+00  0.88374758248E+03  0.11162524175E+04  0.68191617526E+03 0.  0.
         13    1    3    3    0    0  0.30816087894E+03 -0.14410964478E+03  0.47926263576E+03  0.58772731012E+03  0.00000000000E+00 0. -1.
          2    1    3    3  501    0 -0.30816087894E+03  0.14410964478E+03  0.40448494672E+03  0.52852510740E+03  0.00000000000E+00 0. -1.
<mgrwt>
<rscale>  0 0.68191618E+03</rscale>
<asrwt>0</asrwt>
<pdfrwt beam="1">0</pdfrwt>
<pdfrwt beam="2">  1        2 0.42273696E+00 0.68191618E+03</pdfrwt>
<totfact> 0.32574209E+00</totfact>
</mgrwt>
</event>
<event>
 5    1  0.2366700E-004  0.6368217E+03  0.7818608E-02  0.9831826E-01
         13   -1    0    0    0    0  0.00000000000E+00  0.00000000000E+00  0.10000000000E+04  0.10000000000E+04  0.00000000000E+00 0. -1.
          2   -1    0    0  501    0 -0.00000000000E+00 -0.00000000000E+00 -0.10138548359E+03  0.10138548359E+03  0.00000000000E+00 0. -1.
    9000006    2    1    2  501    0  0.00000000000E+00  0.00000000000E+00  0.89861451641E+03  0.11013854836E+04  0.63682174456E+03 0.  0.
         13    1    3    3    0    0 -0.19832864825E+03 -0.22136161861E+03  0.64688186391E+03  0.71189280426E+03  0.00000000000E+00 0. -1.
          2    1    3    3  501    0  0.19832864825E+03  0.22136161861E+03  0.25173265250E+03  0.38949267932E+03  0.00000000000E+00 0. -1.
<mgrwt>
<rscale>  0 0.63682174E+03</rscale>
<asrwt>0</asrwt>
<pdfrwt beam="1">0</pdfrwt>
<pdfrwt beam="2">  1        2 0.36867526E+00 0.63682174E+03</pdfrwt>
<totfact> 0.52076084E+00</totfact>
</mgrwt>
</event>
<event>
 5    1  0.2366700E-004  0.6753706E+03  0.7818608E-02  0.9760304E-01
         13   -1    0    0    0    0  0.00000000000E+00  0.00000000000E+00  0.10000000000E+04  0.10000000000E+04  0.00000000000E+00 0. -1.
          2   -1    0    0  501    0 -0.00000000000E+00 -0.00000000000E+00 -0.11403135020E+03  0.11403135020E+03  0.00000000000E+00 0. -1.
    9000006    2    1    2  501    0  0.00000000000E+00  0.00000000000E+00  0.88596864980E+03  0.11140313502E+04  0.67537056553E+03 0.  0.
         13    1    3    3    0    0  0.96285316187E+02  0.31984413464E+03  0.52480104133E+03  0.62208300536E+03  0.00000000000E+00 0. -1.
          4    1    3    3  501    0 -0.96285316187E+02 -0.31984413464E+03  0.36116760847E+03  0.49194834484E+03  0.00000000000E+00 0. -1.
<mgrwt>
<rscale>  0 0.67537057E+03</rscale>
<asrwt>0</asrwt>
<pdfrwt beam="1">0</pdfrwt>
<pdfrwt beam="2">  1        2 0.41466033E+00 0.67537057E+03</pdfrwt>
<totfact> 0.34990074E+00</totfact>
</mgrwt>
</event>
<event>
 5    1  0.2366700E-004  0.4988711E+03  0.7818608E-02  0.1014074E+00
         13   -1    0    0    0    0  0.00000000000E+00  0.00000000000E+00  0.10000000000E+04  0.10000000000E+04  0.00000000000E+00 0. -1.
          2   -1    0    0  501    0 -0.00000000000E+00 -0.00000000000E+00 -0.62218086651E+02  0.62218086651E+02  0.00000000000E+00 0. -1.
    9000006    2    1    2  501    0  0.00000000000E+00  0.00000000000E+00  0.93778191335E+03  0.10622180867E+04  0.49887107213E+03 0.  0.
         13    1    3    3    0    0  0.15028414388E+03  0.18395590092E+03  0.30683062158E+03  0.38803366828E+03  0.00000000000E+00 0. -1.
          4    1    3    3  501    0 -0.15028414388E+03 -0.18395590092E+03  0.63095129177E+03  0.67418441837E+03  0.00000000000E+00 0. -1.
<mgrwt>
<rscale>  0 0.49887107E+03</rscale>
<asrwt>0</asrwt>
<pdfrwt beam="1">0</pdfrwt>
<pdfrwt beam="2">  1        2 0.22624806E+00 0.49887107E+03</pdfrwt>
<totfact> 0.16990883E+01</totfact>
</mgrwt>
</event>
<event>
 5    1  0.2366700E-004  0.6376706E+03  0.7818608E-02  0.9830194E-01
         13   -1    0    0    0    0  0.00000000000E+00  0.00000000000E+00  0.10000000000E+04  0.10000000000E+04  0.00000000000E+00 0. -1.
          2   -1    0    0  501    0 -0.00000000000E+00 -0.00000000000E+00 -0.10165593507E+03  0.10165593507E+03  0.00000000000E+00 0. -1.
    9000006    2    1    2  501    0  0.00000000000E+00  0.00000000000E+00  0.89834406493E+03  0.11016559351E+04  0.63767055779E+03 0.  0.
         13    1    3    3    0    0 -0.10939115355E+03 -0.21893718927E+02 -0.66836413740E+02  0.13004947368E+03  0.00000000000E+00 0. -1.
          4    1    3    3  501    0  0.10939115355E+03  0.21893718927E+02  0.96518047867E+03  0.97160646139E+03  0.00000000000E+00 0. -1.
<mgrwt>
<rscale>  0 0.63767056E+03</rscale>
<asrwt>0</asrwt>
<pdfrwt beam="1">0</pdfrwt>
<pdfrwt beam="2">  1        2 0.36965873E+00 0.63767056E+03</pdfrwt>
<totfact> 0.51642861E+00</totfact>
</mgrwt>
</event>
<event>
 5    1  0.2366700E-004  0.6538472E+03  0.7818608E-02  0.9799587E-01
         13   -1    0    0    0    0  0.00000000000E+00  0.00000000000E+00  0.10000000000E+04  0.10000000000E+04  0.00000000000E+00 0. -1.
          2   -1    0    0  501    0 -0.00000000000E+00 -0.00000000000E+00 -0.10687902654E+03  0.10687902654E+03  0.00000000000E+00 0. -1.
    9000006    2    1    2  501    0  0.00000000000E+00  0.00000000000E+00  0.89312097346E+03  0.11068790265E+04  0.65384715811E+03 0.  0.
         13    1    3    3    0    0  0.91352710505E+02  0.31361714466E+03  0.46914591398E+03  0.57166329229E+03  0.00000000000E+00 0. -1.
          4    1    3    3  501    0 -0.91352710505E+02 -0.31361714466E+03  0.42397505947E+03  0.53521573426E+03  0.00000000000E+00 0. -1.
<mgrwt>
<rscale>  0 0.65384716E+03</rscale>
<asrwt>0</asrwt>
<pdfrwt beam="1">0</pdfrwt>
<pdfrwt beam="2">  1        2 0.38865183E+00 0.65384716E+03</pdfrwt>
<totfact> 0.43896096E+00</totfact>
</mgrwt>
</event>
<event>
 5    1  0.2366700E-004  0.6691968E+03  0.7818608E-02  0.9771410E-01
         13   -1    0    0    0    0  0.00000000000E+00  0.00000000000E+00  0.10000000000E+04  0.10000000000E+04  0.00000000000E+00 0. -1.
          2   -1    0    0  501    0 -0.00000000000E+00 -0.00000000000E+00 -0.11195608208E+03  0.11195608208E+03  0.00000000000E+00 0. -1.
    9000006    2    1    2  501    0  0.00000000000E+00  0.00000000000E+00  0.88804391792E+03  0.11119560821E+04  0.66919677846E+03 0.  0.
         13    1    3    3    0    0  0.25301768427E+03 -0.15953683929E+03  0.69318932186E+03  0.75497111705E+03  0.00000000000E+00 0. -1.
          4    1    3    3  501    0 -0.25301768427E+03  0.15953683929E+03  0.19485459607E+03  0.35698496503E+03  0.00000000000E+00 0. -1.
<mgrwt>
<rscale>  0 0.66919678E+03</rscale>
<asrwt>0</asrwt>
<pdfrwt beam="1">0</pdfrwt>
<pdfrwt beam="2">  1        2 0.40711388E+00 0.66919678E+03</pdfrwt>
<totfact> 0.37390250E+00</totfact>
</mgrwt>
</event>
<event>
 5    1  0.2366700E-004  0.6319857E+03  0.7818608E-02  0.9841181E-01
         13   -1    0    0    0    0  0.00000000000E+00  0.00000000000E+00  0.10000000000E+04  0.10000000000E+04  0.00000000000E+00 0. -1.
          2   -1    0    0  501    0 -0.00000000000E+00 -0.00000000000E+00 -0.99851492234E+02  0.99851492234E+02  0.00000000000E+00 0. -1.
    9000006    2    1    2  501    0  0.00000000000E+00  0.00000000000E+00  0.90014850777E+03  0.10998514922E+04  0.63198573476E+03 0.  0.
         13    1    3    3    0    0  0.12123441384E+03 -0.15601020213E+03  0.87924532086E+03  0.90117107173E+03  0.00000000000E+00 0. -1.
          2    1    3    3  501    0 -0.12123441384E+03  0.15601020213E+03  0.20903186903E+02  0.19868042050E+03  0.00000000000E+00 0. -1.
<mgrwt>
<rscale>  0 0.63198573E+03</rscale>
<asrwt>0</asrwt>
<pdfrwt beam="1">0</pdfrwt>
<pdfrwt beam="2">  1        2 0.36309710E+00 0.63198573E+03</pdfrwt>
<totfact> 0.54597119E+00</totfact>
</mgrwt>
</event>
<event>
 5    1  0.2366700E-004  0.6453737E+03  0.7818608E-02  0.9815499E-01
         13   -1    0    0    0    0  0.00000000000E+00  0.00000000000E+00  0.10000000000E+04  0.10000000000E+04  0.00000000000E+00 0. -1.
          2   -1    0    0  501    0 -0.00000000000E+00 -0.00000000000E+00 -0.10412679495E+03  0.10412679495E+03  0.00000000000E+00 0. -1.
    9000006    2    1    2  501    0  0.00000000000E+00  0.00000000000E+00  0.89587320505E+03  0.11041267949E+04  0.64537367454E+03 0.  0.
         13    1    3    3    0    0 -0.14105882488E+02 -0.11068351457E+03 -0.70073046326E+02  0.13175753542E+03  0.00000000000E+00 0. -1.
          2    1    3    3  501    0  0.14105882488E+02  0.11068351457E+03  0.96594625138E+03  0.97236925953E+03  0.00000000000E+00 0. -1.
<mgrwt>
<rscale>  0 0.64537367E+03</rscale>
<asrwt>0</asrwt>
<pdfrwt beam="1">0</pdfrwt>
<pdfrwt beam="2">  1        2 0.37864369E+00 0.64537367E+03</pdfrwt>
<totfact> 0.47835011E+00</totfact>
</mgrwt>
</event>
<event>
 5    1  0.2366700E-004  0.6424848E+03  0.7818608E-02  0.9820984E-01
         13   -1    0    0    0    0  0.00000000000E+00  0.00000000000E+00  0.10000000000E+04  0.10000000000E+04  0.00000000000E+00 0. -1.
          2   -1    0    0  501    0 -0.00000000000E+00 -0.00000000000E+00 -0.10319667337E+03  0.10319667337E+03  0.00000000000E+00 0. -1.
    9000006    2    1    2  501    0  0.00000000000E+00  0.00000000000E+00  0.89680332663E+03  0.11031966734E+04  0.64248478075E+03 0.  0.
         13    1    3    3    0    0  0.14582387754E+03 -0.26335999797E+03  0.25586226909E+03  0.39508048868E+03  0.00000000000E+00 0. -1.
          2    1    3    3  501    0 -0.14582387754E+03  0.26335999797E+03  0.64094105753E+03  0.70811618469E+03  0.00000000000E+00 0. -1.
<mgrwt>
<rscale>  0 0.64248478E+03</rscale>
<asrwt>0</asrwt>
<pdfrwt beam="1">0</pdfrwt>
<pdfrwt beam="2">  1        2 0.37526142E+00 0.64248478E+03</pdfrwt>
<totfact> 0.49237159E+00</totfact>
</mgrwt>
</event>
<event>
 5    1  0.2366700E-004  0.6503488E+03  0.7818608E-02  0.9806125E-01
         13   -1    0    0    0    0  0.00000000000E+00  0.00000000000E+00  0.10000000000E+04  0.10000000000E+04  0.00000000000E+00 0. -1.
          2   -1    0    0  501    0 -0.00000000000E+00 -0.00000000000E+00 -0.10573839282E+03  0.10573839282E+03  0.00000000000E+00 0. -1.
    9000006    2    1    2  501    0  0.00000000000E+00  0.00000000000E+00  0.89426160718E+03  0.11057383928E+04  0.65034880738E+03 0.  0.
         13    1    3    3    0    0  0.11100973451E+03 -0.19800487558E+03  0.84299201040E+03  0.87302040154E+03  0.00000000000E+00 0. -1.
          2    1    3    3  501    0 -0.11100973451E+03  0.19800487558E+03  0.51269596787E+02  0.23271799128E+03  0.00000000000E+00 0. -1.
<mgrwt>
<rscale>  0 0.65034881E+03</rscale>
<asrwt>0</asrwt>
<pdfrwt beam="1">0</pdfrwt>
<pdfrwt beam="2">  1        2 0.38450406E+00 0.65034881E+03</pdfrwt>
<totfact> 0.45491348E+00</totfact>
</mgrwt>
</event>
<event>
 5    1  0.2366700E-004  0.6530618E+03  0.7818608E-02  0.9801051E-01
         13   -1    0    0    0    0  0.00000000000E+00  0.00000000000E+00  0.10000000000E+04  0.10000000000E+04  0.00000000000E+00 0. -1.
          2   -1    0    0  501    0 -0.00000000000E+00 -0.00000000000E+00 -0.10662243063E+03  0.10662243063E+03  0.00000000000E+00 0. -1.
    9000006    2    1    2  501    0  0.00000000000E+00  0.00000000000E+00  0.89337756937E+03  0.11066224306E+04  0.65306180604E+03 0.  0.
         13    1    3    3    0    0  0.86309253079E+02  0.31479286625E+03  0.46171128192E+03  0.56543889472E+03  0.00000000000E+00 0. -1.
          4    1    3    3  501    0 -0.86309253079E+02 -0.31479286625E+03  0.43166628745E+03  0.54118353591E+03  0.00000000000E+00 0. -1.
<mgrwt>
<rscale>  0 0.65306181E+03</rscale>
<asrwt>0</asrwt>
<pdfrwt beam="1">0</pdfrwt>
<pdfrwt beam="2">  1        2 0.38771875E+00 0.65306181E+03</pdfrwt>
<totfact> 0.44250479E+00</totfact>
</mgrwt>
</event>
<event>
 5    1  0.2366700E-004  0.6594016E+03  0.7818608E-02  0.9789296E-01
         13   -1    0    0    0    0  0.00000000000E+00  0.00000000000E+00  0.10000000000E+04  0.10000000000E+04  0.00000000000E+00 0. -1.
          2   -1    0    0  501    0 -0.00000000000E+00 -0.00000000000E+00 -0.10870261899E+03  0.10870261899E+03  0.00000000000E+00 0. -1.
    9000006    2    1    2  501    0  0.00000000000E+00  0.00000000000E+00  0.89129738101E+03  0.11087026190E+04  0.65940160447E+03 0.  0.
         13    1    3    3    0    0  0.29799645524E+03 -0.52052374080E+02  0.66610331130E+03  0.73157703512E+03  0.00000000000E+00 0. -1.
          4    1    3    3  501    0 -0.29799645524E+03  0.52052374080E+02  0.22519406971E+03  0.37712558388E+03  0.00000000000E+00 0. -1.
<mgrwt>
<rscale>  0 0.65940160E+03</rscale>
<asrwt>0</asrwt>
<pdfrwt beam="1">0</pdfrwt>
<pdfrwt beam="2">  1        2 0.39528308E+00 0.65940160E+03</pdfrwt>
<totfact> 0.41450542E+00</totfact>
</mgrwt>
</event>
<event>
 5    1  0.2366700E-004  0.5958558E+03  0.7818608E-02  0.9914041E-01
         13   -1    0    0    0    0  0.00000000000E+00  0.00000000000E+00  0.10000000000E+04  0.10000000000E+04  0.00000000000E+00 0. -1.
          2   -1    0    0  501    0 -0.00000000000E+00 -0.00000000000E+00 -0.88761025333E+02  0.88761025333E+02  0.00000000000E+00 0. -1.
    9000006    2    1    2  501    0  0.00000000000E+00  0.00000000000E+00  0.91123897467E+03  0.10887610253E+04  0.59585577226E+03 0.  0.
         13    1    3    3    0    0 -0.35244873876E+02 -0.18789361004E+03  0.38088907158E+02  0.19492812696E+03  0.00000000000E+00 0. -1.
          4    1    3    3  501    0  0.35244873876E+02  0.18789361004E+03  0.87315006751E+03  0.89383289838E+03  0.00000000000E+00 0. -1.
<mgrwt>
<rscale>  0 0.59585577E+03</rscale>
<asrwt>0</asrwt>
<pdfrwt beam="1">0</pdfrwt>
<pdfrwt beam="2">  1        2 0.32276805E+00 0.59585577E+03</pdfrwt>
<totfact> 0.76498124E+00</totfact>
</mgrwt>
</event>
<event>
 5    1  0.2366700E-004  0.6600823E+03  0.7818608E-02  0.9788042E-01
         13   -1    0    0    0    0  0.00000000000E+00  0.00000000000E+00  0.10000000000E+04  0.10000000000E+04  0.00000000000E+00 0. -1.
          2   -1    0    0  501    0 -0.00000000000E+00 -0.00000000000E+00 -0.10892717254E+03  0.10892717254E+03  0.00000000000E+00 0. -1.
    9000006    2    1    2  501    0  0.00000000000E+00  0.00000000000E+00  0.89107282746E+03  0.11089271725E+04  0.66008233588E+03 0.  0.
         13    1    3    3    0    0 -0.25138083177E+03 -0.18719557029E+03  0.27181715639E+03  0.41487235462E+03  0.00000000000E+00 0. -1.
          2    1    3    3  501    0  0.25138083177E+03  0.18719557029E+03  0.61925567107E+03  0.69405481791E+03  0.00000000000E+00 0. -1.
<mgrwt>
<rscale>  0 0.66008234E+03</rscale>
<asrwt>0</asrwt>
<pdfrwt beam="1">0</pdfrwt>
<pdfrwt beam="2">  1        2 0.39609964E+00 0.66008234E+03</pdfrwt>
<totfact> 0.41158081E+00</totfact>
</mgrwt>
</event>
<event>
 5    1  0.2366700E-004  0.6771243E+03  0.7818608E-02  0.9757173E-01
         13   -1    0    0    0    0  0.00000000000E+00  0.00000000000E+00  0.10000000000E+04  0.10000000000E+04  0.00000000000E+00 0. -1.
          2   -1    0    0  501    0 -0.00000000000E+00 -0.00000000000E+00 -0.11462434371E+03  0.11462434371E+03  0.00000000000E+00 0. -1.
    9000006    2    1    2  501    0  0.00000000000E+00  0.00000000000E+00  0.88537565629E+03  0.11146243437E+04  0.67712434222E+03 0.  0.
         13    1    3    3    0    0  0.24954028637E+03  0.10081401975E+03  0.10457040560E+03  0.28873654225E+03  0.00000000000E+00 0. -1.
          4    1    3    3  501    0 -0.24954028637E+03 -0.10081401975E+03  0.78080525069E+03  0.82588780146E+03  0.00000000000E+00 0. -1.
<mgrwt>
<rscale>  0 0.67712434E+03</rscale>
<asrwt>0</asrwt>
<pdfrwt beam="1">0</pdfrwt>
<pdfrwt beam="2">  1        2 0.41681667E+00 0.67712434E+03</pdfrwt>
<totfact> 0.34329987E+00</totfact>
</mgrwt>
</event>
<event>
 5    1  0.2366700E-004  0.6546723E+03  0.7818608E-02  0.9798051E-01
         13   -1    0    0    0    0  0.00000000000E+00  0.00000000000E+00  0.10000000000E+04  0.10000000000E+04  0.00000000000E+00 0. -1.
          2   -1    0    0  501    0 -0.00000000000E+00 -0.00000000000E+00 -0.10714896897E+03  0.10714896897E+03  0.00000000000E+00 0. -1.
    9000006    2    1    2  501    0  0.00000000000E+00  0.00000000000E+00  0.89285103103E+03  0.11071489690E+04  0.65467234239E+03 0.  0.
         13    1    3    3    0    0 -0.18143089428E+03  0.27098105650E+03  0.39856070150E+03  0.51497430534E+03  0.00000000000E+00 0. -1.
          2    1    3    3  501    0  0.18143089428E+03 -0.27098105650E+03  0.49429032953E+03  0.59217466363E+03  0.00000000000E+00 0. -1.
<mgrwt>
<rscale>  0 0.65467234E+03</rscale>
<asrwt>0</asrwt>
<pdfrwt beam="1">0</pdfrwt>
<pdfrwt beam="2">  1        2 0.38963344E+00 0.65467234E+03</pdfrwt>
<totfact> 0.43526053E+00</totfact>
</mgrwt>
</event>
<event>
 5    1  0.2366700E-004  0.4721518E+03  0.7818608E-02  0.1021315E+00
         13   -1    0    0    0    0  0.00000000000E+00  0.00000000000E+00  0.10000000000E+04  0.10000000000E+04  0.00000000000E+00 0. -1.
          2   -1    0    0  501    0 -0.00000000000E+00 -0.00000000000E+00 -0.55731828564E+02  0.55731828564E+02  0.00000000000E+00 0. -1.
    9000006    2    1    2  501    0  0.00000000000E+00  0.00000000000E+00  0.94426817144E+03  0.10557318286E+04  0.47215179154E+03 0.  0.
         13    1    3    3    0    0  0.44678790703E+02 -0.64993130319E+01 -0.45988349563E+02  0.64446595753E+02  0.00000000000E+00 0. -1.
          4    1    3    3  501    0 -0.44678790703E+02  0.64993130319E+01  0.99025652100E+03  0.99128523281E+03  0.00000000000E+00 0. -1.
<mgrwt>
<rscale>  0 0.47215179E+03</rscale>
<asrwt>0</asrwt>
<pdfrwt beam="1">0</pdfrwt>
<pdfrwt beam="2">  1        2 0.20266162E+00 0.47215179E+03</pdfrwt>
<totfact> 0.20762344E+01</totfact>
</mgrwt>
</event>
<event>
 5    1  0.2366700E-004  0.6356809E+03  0.7818608E-02  0.9834025E-01
         13   -1    0    0    0    0  0.00000000000E+00  0.00000000000E+00  0.10000000000E+04  0.10000000000E+04  0.00000000000E+00 0. -1.
          2   -1    0    0  501    0 -0.00000000000E+00 -0.00000000000E+00 -0.10102255706E+03  0.10102255706E+03  0.00000000000E+00 0. -1.
    9000006    2    1    2  501    0  0.00000000000E+00  0.00000000000E+00  0.89897744294E+03  0.11010225571E+04  0.63568091700E+03 0.  0.
         13    1    3    3    0    0 -0.16187311610E+03  0.15475851463E+02 -0.23519475423E+02  0.16430329704E+03  0.00000000000E+00 0. -1.
          2    1    3    3  501    0  0.16187311610E+03 -0.15475851463E+02  0.92249691836E+03  0.93671926002E+03  0.00000000000E+00 0. -1.
<mgrwt>
<rscale>  0 0.63568092E+03</rscale>
<asrwt>0</asrwt>
<pdfrwt beam="1">0</pdfrwt>
<pdfrwt beam="2">  1        2 0.36735553E+00 0.63568092E+03</pdfrwt>
<totfact> 0.52662677E+00</totfact>
</mgrwt>
</event>
<event>
 5    1  0.2366700E-004  0.6460193E+03  0.7818608E-02  0.9814278E-01
         13   -1    0    0    0    0  0.00000000000E+00  0.00000000000E+00  0.10000000000E+04  0.10000000000E+04  0.00000000000E+00 0. -1.
          2   -1    0    0  501    0 -0.00000000000E+00 -0.00000000000E+00 -0.10433521986E+03  0.10433521986E+03  0.00000000000E+00 0. -1.
    9000006    2    1    2  501    0  0.00000000000E+00  0.00000000000E+00  0.89566478014E+03  0.11043352199E+04  0.64601925623E+03 0.  0.
         13    1    3    3    0    0  0.15979575945E+03  0.21476320418E+03  0.13881810916E+03  0.30154334024E+03  0.00000000000E+00 0. -1.
          2    1    3    3  501    0 -0.15979575945E+03 -0.21476320418E+03  0.75684667098E+03  0.80279187962E+03  0.00000000000E+00 0. -1.
<mgrwt>
<rscale>  0 0.64601926E+03</rscale>
<asrwt>0</asrwt>
<pdfrwt beam="1">0</pdfrwt>
<pdfrwt beam="2">  1        2 0.37940160E+00 0.64601926E+03</pdfrwt>
<totfact> 0.47525850E+00</totfact>
</mgrwt>
</event>
<event>
 5    1  0.2366700E-004  0.6513238E+03  0.7818608E-02  0.9804298E-01
         13   -1    0    0    0    0  0.00000000000E+00  0.00000000000E+00  0.10000000000E+04  0.10000000000E+04  0.00000000000E+00 0. -1.
          2   -1    0    0  501    0 -0.00000000000E+00 -0.00000000000E+00 -0.10605567887E+03  0.10605567887E+03  0.00000000000E+00 0. -1.
    9000006    2    1    2  501    0  0.00000000000E+00  0.00000000000E+00  0.89394432113E+03  0.11060556789E+04  0.65132381769E+03 0.  0.
         13    1    3    3    0    0  0.39859602869E+02  0.16186170961E+03 -0.28112769539E+02  0.16905126083E+03  0.00000000000E+00 0. -1.
          2    1    3    3  501    0 -0.39859602869E+02 -0.16186170961E+03  0.92205709067E+03  0.93700441804E+03  0.00000000000E+00 0. -1.
<mgrwt>
<rscale>  0 0.65132382E+03</rscale>
<asrwt>0</asrwt>
<pdfrwt beam="1">0</pdfrwt>
<pdfrwt beam="2">  1        2 0.38565783E+00 0.65132382E+03</pdfrwt>
<totfact> 0.45042412E+00</totfact>
</mgrwt>
</event>
<event>
 5    1  0.2366700E-004  0.6399574E+03  0.7818608E-02  0.9825808E-01
         13   -1    0    0    0    0  0.00000000000E+00  0.00000000000E+00  0.10000000000E+04  0.10000000000E+04  0.00000000000E+00 0. -1.
          2   -1    0    0  501    0 -0.00000000000E+00 -0.00000000000E+00 -0.10238635780E+03  0.10238635780E+03  0.00000000000E+00 0. -1.
    9000006    2    1    2  501    0  0.00000000000E+00  0.00000000000E+00  0.89761364220E+03  0.11023863578E+04  0.63995736671E+03 0.  0.
         13    1    3    3    0    0  0.17983530877E+03  0.20154050125E+02 -0.57732613903E+01  0.18105318159E+03  0.00000000000E+00 0. -1.
          4    1    3    3  501    0 -0.17983530877E+03 -0.20154050125E+02  0.90338690359E+03  0.92133317621E+03  0.00000000000E+00 0. -1.
<mgrwt>
<rscale>  0 0.63995737E+03</rscale>
<asrwt>0</asrwt>
<pdfrwt beam="1">0</pdfrwt>
<pdfrwt beam="2">  1        2 0.37231481E+00 0.63995737E+03</pdfrwt>
<totfact> 0.50489287E+00</totfact>
</mgrwt>
</event>
<event>
 5    1  0.2366700E-004  0.6599879E+03  0.7818608E-02  0.9788216E-01
         13   -1    0    0    0    0  0.00000000000E+00  0.00000000000E+00  0.10000000000E+04  0.10000000000E+04  0.00000000000E+00 0. -1.
          2   -1    0    0  501    0 -0.00000000000E+00 -0.00000000000E+00 -0.10889599173E+03  0.10889599173E+03  0.00000000000E+00 0. -1.
    9000006    2    1    2  501    0  0.00000000000E+00  0.00000000000E+00  0.89110400827E+03  0.11088959917E+04  0.65998785361E+03 0.  0.
         13    1    3    3    0    0  0.11053638940E+03 -0.88362355878E+02 -0.55325992383E+02  0.15194461080E+03  0.00000000000E+00 0. -1.
          4    1    3    3  501    0 -0.11053638940E+03  0.88362355878E+02  0.94643000065E+03  0.95695138093E+03  0.00000000000E+00 0. -1.
<mgrwt>
<rscale>  0 0.65998785E+03</rscale>
<asrwt>0</asrwt>
<pdfrwt beam="1">0</pdfrwt>
<pdfrwt beam="2">  1        2 0.39598626E+00 0.65998785E+03</pdfrwt>
<totfact> 0.41198580E+00</totfact>
</mgrwt>
</event>
<event>
 5    1  0.2366700E-004  0.6517173E+03  0.7818608E-02  0.9803562E-01
         13   -1    0    0    0    0  0.00000000000E+00  0.00000000000E+00  0.10000000000E+04  0.10000000000E+04  0.00000000000E+00 0. -1.
          2   -1    0    0  501    0 -0.00000000000E+00 -0.00000000000E+00 -0.10618386411E+03  0.10618386411E+03  0.00000000000E+00 0. -1.
    9000006    2    1    2  501    0  0.00000000000E+00  0.00000000000E+00  0.89381613589E+03  0.11061838641E+04  0.65171731328E+03 0.  0.
         13    1    3    3    0    0 -0.17606958541E+03  0.23728533283E+03  0.68012386709E+03  0.74153442447E+03  0.00000000000E+00 0. -1.
          2    1    3    3  501    0  0.17606958541E+03 -0.23728533283E+03  0.21369226880E+03  0.36464943964E+03  0.00000000000E+00 0. -1.
<mgrwt>
<rscale>  0 0.65171731E+03</rscale>
<asrwt>0</asrwt>
<pdfrwt beam="1">0</pdfrwt>
<pdfrwt beam="2">  1        2 0.38612396E+00 0.65171731E+03</pdfrwt>
<totfact> 0.44862182E+00</totfact>
</mgrwt>
</event>
<event>
 5    1  0.2366700E-004  0.6757200E+03  0.7818608E-02  0.9759680E-01
         13   -1    0    0    0    0  0.00000000000E+00  0.00000000000E+00  0.10000000000E+04  0.10000000000E+04  0.00000000000E+00 0. -1.
          2   -1    0    0  501    0 -0.00000000000E+00 -0.00000000000E+00 -0.11414936568E+03  0.11414936568E+03  0.00000000000E+00 0. -1.
    9000006    2    1    2  501    0  0.00000000000E+00  0.00000000000E+00  0.88585063432E+03  0.11141493657E+04  0.67571995879E+03 0.  0.
         13    1    3    3    0    0  0.27756418544E+03  0.74768187863E+02  0.15020657481E+03  0.32433651363E+03  0.00000000000E+00 0. -1.
          4    1    3    3  501    0 -0.27756418544E+03 -0.74768187863E+02  0.73564405952E+03  0.78981285205E+03  0.00000000000E+00 0. -1.
<mgrwt>
<rscale>  0 0.67571996E+03</rscale>
<asrwt>0</asrwt>
<pdfrwt beam="1">0</pdfrwt>
<pdfrwt beam="2">  1        2 0.41508948E+00 0.67571996E+03</pdfrwt>
<totfact> 0.34857813E+00</totfact>
</mgrwt>
</event>
<event>
 5    1  0.2366700E-004  0.6462827E+03  0.7818608E-02  0.9813780E-01
         13   -1    0    0    0    0  0.00000000000E+00  0.00000000000E+00  0.10000000000E+04  0.10000000000E+04  0.00000000000E+00 0. -1.
          2   -1    0    0  501    0 -0.00000000000E+00 -0.00000000000E+00 -0.10442033286E+03  0.10442033286E+03  0.00000000000E+00 0. -1.
    9000006    2    1    2  501    0  0.00000000000E+00  0.00000000000E+00  0.89557966714E+03  0.11044203329E+04  0.64628270241E+03 0.  0.
         13    1    3    3    0    0  0.26036559952E+03  0.14910377665E+03  0.24273725885E+03  0.38593206456E+03  0.00000000000E+00 0. -1.
          4    1    3    3  501    0 -0.26036559952E+03 -0.14910377665E+03  0.65284240829E+03  0.71848826830E+03  0.00000000000E+00 0. -1.
<mgrwt>
<rscale>  0 0.64628270E+03</rscale>
<asrwt>0</asrwt>
<pdfrwt beam="1">0</pdfrwt>
<pdfrwt beam="2">  1        2 0.37971110E+00 0.64628270E+03</pdfrwt>
<totfact> 0.47400125E+00</totfact>
</mgrwt>
</event>
<event>
 5    1  0.2366700E-004  0.6486073E+03  0.7818608E-02  0.9809396E-01
         13   -1    0    0    0    0  0.00000000000E+00  0.00000000000E+00  0.10000000000E+04  0.10000000000E+04  0.00000000000E+00 0. -1.
          2   -1    0    0  501    0 -0.00000000000E+00 -0.00000000000E+00 -0.10517286335E+03  0.10517286335E+03  0.00000000000E+00 0. -1.
    9000006    2    1    2  501    0  0.00000000000E+00  0.00000000000E+00  0.89482713665E+03  0.11051728634E+04  0.64860731834E+03 0.  0.
         13    1    3    3    0    0  0.27114369899E+03  0.17203906734E+03  0.52468421320E+03  0.61515028227E+03  0.00000000000E+00 0. -1.
          4    1    3    3  501    0 -0.27114369899E+03 -0.17203906734E+03  0.37014292345E+03  0.49002258109E+03  0.00000000000E+00 0. -1.
<mgrwt>
<rscale>  0 0.64860732E+03</rscale>
<asrwt>0</asrwt>
<pdfrwt beam="1">0</pdfrwt>
<pdfrwt beam="2">  1        2 0.38244758E+00 0.64860732E+03</pdfrwt>
<totfact> 0.46301608E+00</totfact>
</mgrwt>
</event>
<event>
 5    1  0.2366700E-004  0.6433070E+03  0.7818608E-02  0.9819420E-01
         13   -1    0    0    0    0  0.00000000000E+00  0.00000000000E+00  0.10000000000E+04  0.10000000000E+04  0.00000000000E+00 0. -1.
          2   -1    0    0  501    0 -0.00000000000E+00 -0.00000000000E+00 -0.10346097539E+03  0.10346097539E+03  0.00000000000E+00 0. -1.
    9000006    2    1    2  501    0  0.00000000000E+00  0.00000000000E+00  0.89653902461E+03  0.11034609754E+04  0.64330700413E+03 0.  0.
         13    1    3    3    0    0  0.22835218328E+03 -0.17732355207E+02  0.60894562355E+02  0.23699642140E+03  0.00000000000E+00 0. -1.
          4    1    3    3  501    0 -0.22835218328E+03  0.17732355207E+02  0.83564446225E+03  0.86646455399E+03  0.00000000000E+00 0. -1.
<mgrwt>
<rscale>  0 0.64330700E+03</rscale>
<asrwt>0</asrwt>
<pdfrwt beam="1">0</pdfrwt>
<pdfrwt beam="2">  1        2 0.37622252E+00 0.64330700E+03</pdfrwt>
<totfact> 0.48834954E+00</totfact>
</mgrwt>
</event>
<event>
 5    1  0.2366700E-004  0.6251690E+03  0.7818608E-02  0.9854522E-01
         13   -1    0    0    0    0  0.00000000000E+00  0.00000000000E+00  0.10000000000E+04  0.10000000000E+04  0.00000000000E+00 0. -1.
          2   -1    0    0  501    0 -0.00000000000E+00 -0.00000000000E+00 -0.97709085142E+02  0.97709085142E+02  0.00000000000E+00 0. -1.
    9000006    2    1    2  501    0  0.00000000000E+00  0.00000000000E+00  0.90229091486E+03  0.10977090851E+04  0.62516904959E+03 0.  0.
         13    1    3    3    0    0  0.89630179689E+02 -0.96262122368E+02 -0.46754906407E+02  0.13959221535E+03  0.00000000000E+00 0. -1.
          4    1    3    3  501    0 -0.89630179689E+02  0.96262122368E+02  0.94904582127E+03  0.95811686979E+03  0.00000000000E+00 0. -1.
<mgrwt>
<rscale>  0 0.62516905E+03</rscale>
<asrwt>0</asrwt>
<pdfrwt beam="1">0</pdfrwt>
<pdfrwt beam="2">  1        2 0.35530651E+00 0.62516905E+03</pdfrwt>
<totfact> 0.58306766E+00</totfact>
</mgrwt>
</event>
<event>
 5    1  0.2366700E-004  0.6471813E+03  0.7818608E-02  0.9812083E-01
         13   -1    0    0    0    0  0.00000000000E+00  0.00000000000E+00  0.10000000000E+04  0.10000000000E+04  0.00000000000E+00 0. -1.
          2   -1    0    0  501    0 -0.00000000000E+00 -0.00000000000E+00 -0.10471091115E+03  0.10471091115E+03  0.00000000000E+00 0. -1.
    9000006    2    1    2  501    0  0.00000000000E+00  0.00000000000E+00  0.89528908885E+03  0.11047109111E+04  0.64718130736E+03 0.  0.
         13    1    3    3    0    0  0.20827670658E+03  0.16273999877E+03  0.76629018227E+03  0.81059492790E+03  0.00000000000E+00 0. -1.
          2    1    3    3  501    0 -0.20827670658E+03 -0.16273999877E+03  0.12899890658E+03  0.29411598324E+03  0.00000000000E+00 0. -1.
<mgrwt>
<rscale>  0 0.64718131E+03</rscale>
<asrwt>0</asrwt>
<pdfrwt beam="1">0</pdfrwt>
<pdfrwt beam="2">  1        2 0.38076775E+00 0.64718131E+03</pdfrwt>
<totfact> 0.46973171E+00</totfact>
</mgrwt>
</event>
<event>
 5    1  0.2366700E-004  0.6551228E+03  0.7818608E-02  0.9797214E-01
         13   -1    0    0    0    0  0.00000000000E+00  0.00000000000E+00  0.10000000000E+04  0.10000000000E+04  0.00000000000E+00 0. -1.
          2   -1    0    0  501    0 -0.00000000000E+00 -0.00000000000E+00 -0.10729646323E+03  0.10729646323E+03  0.00000000000E+00 0. -1.
    9000006    2    1    2  501    0  0.00000000000E+00  0.00000000000E+00  0.89270353677E+03  0.11072964632E+04  0.65512277699E+03 0.  0.
         13    1    3    3    0    0  0.19519362294E+03 -0.24228794067E+03  0.61948483099E+03  0.69322828308E+03  0.00000000000E+00 0. -1.
          2    1    3    3  501    0 -0.19519362294E+03  0.24228794067E+03  0.27321870578E+03  0.41406818016E+03  0.00000000000E+00 0. -1.
<mgrwt>
<rscale>  0 0.65512278E+03</rscale>
<asrwt>0</asrwt>
<pdfrwt beam="1">0</pdfrwt>
<pdfrwt beam="2">  1        2 0.39016978E+00 0.65512278E+03</pdfrwt>
<totfact> 0.43325058E+00</totfact>
</mgrwt>
</event>
<event>
 5    1  0.2366700E-004  0.6518597E+03  0.7818608E-02  0.9803296E-01
         13   -1    0    0    0    0  0.00000000000E+00  0.00000000000E+00  0.10000000000E+04  0.10000000000E+04  0.00000000000E+00 0. -1.
          2   -1    0    0  501    0 -0.00000000000E+00 -0.00000000000E+00 -0.10623028274E+03  0.10623028274E+03  0.00000000000E+00 0. -1.
    9000006    2    1    2  501    0  0.00000000000E+00  0.00000000000E+00  0.89376971726E+03  0.11062302827E+04  0.65185974793E+03 0.  0.
         13    1    3    3    0    0  0.79411964592E+02 -0.51779962244E+02 -0.82315629528E+02  0.12555193139E+03  0.00000000000E+00 0. -1.
          4    1    3    3  501    0 -0.79411964592E+02  0.51779962244E+02  0.97608534678E+03  0.98067835136E+03  0.00000000000E+00 0. -1.
<mgrwt>
<rscale>  0 0.65185975E+03</rscale>
<asrwt>0</asrwt>
<pdfrwt beam="1">0</pdfrwt>
<pdfrwt beam="2">  1        2 0.38629275E+00 0.65185975E+03</pdfrwt>
<totfact> 0.44797078E+00</totfact>
</mgrwt>
</event>
<event>
 5    1  0.2366700E-004  0.6240635E+03  0.7818608E-02  0.9856702E-01
         13   -1    0    0    0    0  0.00000000000E+00  0.00000000000E+00  0.10000000000E+04  0.10000000000E+04  0.00000000000E+00 0. -1.
          2   -1    0    0  501    0 -0.00000000000E+00 -0.00000000000E+00 -0.97363826116E+02  0.97363826116E+02  0.00000000000E+00 0. -1.
    9000006    2    1    2  501    0  0.00000000000E+00  0.00000000000E+00  0.90263617388E+03  0.10973638261E+04  0.62406354201E+03 0.  0.
         13    1    3    3    0    0  0.30243939617E+02  0.26442268713E+03  0.73772836124E+03  0.78426856901E+03  0.00000000000E+00 0. -1.
          2    1    3    3  501    0 -0.30243939617E+02 -0.26442268713E+03  0.16490781264E+03  0.31309525711E+03  0.00000000000E+00 0. -1.
<mgrwt>
<rscale>  0 0.62406354E+03</rscale>
<asrwt>0</asrwt>
<pdfrwt beam="1">0</pdfrwt>
<pdfrwt beam="2">  1        2 0.35405102E+00 0.62406354E+03</pdfrwt>
<totfact> 0.58926020E+00</totfact>
</mgrwt>
</event>
<event>
 5    1  0.2366700E-004  0.6692314E+03  0.7818608E-02  0.9771347E-01
         13   -1    0    0    0    0  0.00000000000E+00  0.00000000000E+00  0.10000000000E+04  0.10000000000E+04  0.00000000000E+00 0. -1.
          2   -1    0    0  501    0 -0.00000000000E+00 -0.00000000000E+00 -0.11196765023E+03  0.11196765023E+03  0.00000000000E+00 0. -1.
    9000006    2    1    2  501    0  0.00000000000E+00  0.00000000000E+00  0.88803234977E+03  0.11119676502E+04  0.66923135081E+03 0.  0.
         13    1    3    3    0    0 -0.11804340220E+02  0.33095812176E+03  0.52361561320E+03  0.61955300919E+03  0.00000000000E+00 0. -1.
          4    1    3    3  501    0  0.11804340220E+02 -0.33095812176E+03  0.36441673658E+03  0.49241464104E+03  0.00000000000E+00 0. -1.
<mgrwt>
<rscale>  0 0.66923135E+03</rscale>
<asrwt>0</asrwt>
<pdfrwt beam="1">0</pdfrwt>
<pdfrwt beam="2">  1        2 0.40715595E+00 0.66923135E+03</pdfrwt>
<totfact> 0.37376473E+00</totfact>
</mgrwt>
</event>
<event>
 5    1  0.2366700E-004  0.6473137E+03  0.7818608E-02  0.9811833E-01
         13   -1    0    0    0    0  0.00000000000E+00  0.00000000000E+00  0.10000000000E+04  0.10000000000E+04  0.00000000000E+00 0. -1.
          2   -1    0    0  501    0 -0.00000000000E+00 -0.00000000000E+00 -0.10475376083E+03  0.10475376083E+03  0.00000000000E+00 0. -1.
    9000006    2    1    2  501    0  0.00000000000E+00  0.00000000000E+00  0.89524623917E+03  0.11047537608E+04  0.64731371323E+03 0.  0.
         13    1    3    3    0    0  0.48505360847E+00 -0.27376115238E+03  0.15296412641E+03  0.31359755707E+03  0.00000000000E+00 0. -1.
          2    1    3    3  501    0 -0.48505360847E+00  0.27376115238E+03  0.74228211276E+03  0.79115620376E+03  0.00000000000E+00 0. -1.
<mgrwt>
<rscale>  0 0.64731371E+03</rscale>
<asrwt>0</asrwt>
<pdfrwt beam="1">0</pdfrwt>
<pdfrwt beam="2">  1        2 0.38092357E+00 0.64731371E+03</pdfrwt>
<totfact> 0.46910508E+00</totfact>
</mgrwt>
</event>
<event>
 5    1  0.2366700E-004  0.6558797E+03  0.7818608E-02  0.9795809E-01
         13   -1    0    0    0    0  0.00000000000E+00  0.00000000000E+00  0.10000000000E+04  0.10000000000E+04  0.00000000000E+00 0. -1.
          2   -1    0    0  501    0 -0.00000000000E+00 -0.00000000000E+00 -0.10754452930E+03  0.10754452930E+03  0.00000000000E+00 0. -1.
    9000006    2    1    2  501    0  0.00000000000E+00  0.00000000000E+00  0.89245547070E+03  0.11075445293E+04  0.65587965147E+03 0.  0.
         13    1    3    3    0    0 -0.14573950807E+03  0.27291583129E+03  0.26262765920E+03  0.40582797163E+03  0.00000000000E+00 0. -1.
          4    1    3    3  501    0  0.14573950807E+03 -0.27291583129E+03  0.62982781149E+03  0.70171655767E+03  0.00000000000E+00 0. -1.
<mgrwt>
<rscale>  0 0.65587965E+03</rscale>
<asrwt>0</asrwt>
<pdfrwt beam="1">0</pdfrwt>
<pdfrwt beam="2">  1        2 0.39107184E+00 0.65587965E+03</pdfrwt>
<totfact> 0.42988902E+00</totfact>
</mgrwt>
</event>
<event>
 5    1  0.2366700E-004  0.6095563E+03  0.7818608E-02  0.9885776E-01
         13   -1    0    0    0    0  0.00000000000E+00  0.00000000000E+00  0.10000000000E+04  0.10000000000E+04  0.00000000000E+00 0. -1.
          2   -1    0    0  501    0 -0.00000000000E+00 -0.00000000000E+00 -0.92889706339E+02  0.92889706339E+02  0.00000000000E+00 0. -1.
    9000006    2    1    2  501    0  0.00000000000E+00  0.00000000000E+00  0.90711029366E+03  0.10928897063E+04  0.60955625282E+03 0.  0.
         13    1    3    3    0    0 -0.30281258634E+03  0.17821830134E+02  0.40047039588E+03  0.50238393490E+03  0.00000000000E+00 0. -1.
          2    1    3    3  501    0  0.30281258634E+03 -0.17821830134E+02  0.50663989778E+03  0.59050577144E+03  0.00000000000E+00 0. -1.
<mgrwt>
<rscale>  0 0.60955625E+03</rscale>
<asrwt>0</asrwt>
<pdfrwt beam="1">0</pdfrwt>
<pdfrwt beam="2">  1        2 0.33778146E+00 0.60955625E+03</pdfrwt>
<totfact> 0.67525597E+00</totfact>
</mgrwt>
</event>
<event>
 5    1  0.2366700E-004  0.6480189E+03  0.7818608E-02  0.9810504E-01
         13   -1    0    0    0    0  0.00000000000E+00  0.00000000000E+00  0.10000000000E+04  0.10000000000E+04  0.00000000000E+00 0. -1.
          2   -1    0    0  501    0 -0.00000000000E+00 -0.00000000000E+00 -0.10498211082E+03  0.10498211082E+03  0.00000000000E+00 0. -1.
    9000006    2    1    2  501    0  0.00000000000E+00  0.00000000000E+00  0.89501788918E+03  0.11049821108E+04  0.64801886028E+03 0.  0.
         13    1    3    3    0    0 -0.21554295983E+03  0.21627816890E+03  0.26269579111E+03  0.40279534821E+03  0.00000000000E+00 0. -1.
          4    1    3    3  501    0  0.21554295983E+03 -0.21627816890E+03  0.63232209807E+03  0.70218676261E+03  0.00000000000E+00 0. -1.
<mgrwt>
<rscale>  0 0.64801886E+03</rscale>
<asrwt>0</asrwt>
<pdfrwt beam="1">0</pdfrwt>
<pdfrwt beam="2">  1        2 0.38175394E+00 0.64801886E+03</pdfrwt>
<totfact> 0.46577850E+00</totfact>
</mgrwt>
</event>
<event>
 5    1  0.2366700E-004  0.6392522E+03  0.7818608E-02  0.9827158E-01
         13   -1    0    0    0    0  0.00000000000E+00  0.00000000000E+00  0.10000000000E+04  0.10000000000E+04  0.00000000000E+00 0. -1.
          2   -1    0    0  501    0 -0.00000000000E+00 -0.00000000000E+00 -0.10216082977E+03  0.10216082977E+03  0.00000000000E+00 0. -1.
    9000006    2    1    2  501    0  0.00000000000E+00  0.00000000000E+00  0.89783917023E+03  0.11021608298E+04  0.63925215610E+03 0.  0.
         13    1    3    3    0    0 -0.15568563313E+03  0.24347812554E+03  0.68432144390E+03  0.74284281820E+03  0.00000000000E+00 0. -1.
          2    1    3    3  501    0  0.15568563313E+03 -0.24347812554E+03  0.21351772633E+03  0.35931801157E+03  0.00000000000E+00 0. -1.
<mgrwt>
<rscale>  0 0.63925216E+03</rscale>
<asrwt>0</asrwt>
<pdfrwt beam="1">0</pdfrwt>
<pdfrwt beam="2">  1        2 0.37149471E+00 0.63925216E+03</pdfrwt>
<totfact> 0.50842925E+00</totfact>
</mgrwt>
</event>
<event>
 5    1  0.2366700E-004  0.6513579E+03  0.7818608E-02  0.9804235E-01
         13   -1    0    0    0    0  0.00000000000E+00  0.00000000000E+00  0.10000000000E+04  0.10000000000E+04  0.00000000000E+00 0. -1.
          2   -1    0    0  501    0 -0.00000000000E+00 -0.00000000000E+00 -0.10606677363E+03  0.10606677363E+03  0.00000000000E+00 0. -1.
    9000006    2    1    2  501    0  0.00000000000E+00  0.00000000000E+00  0.89393322637E+03  0.11060667736E+04  0.65135788511E+03 0.  0.
         13    1    3    3    0    0  0.14235638399E+02 -0.10737373112E+03 -0.74585972742E+02  0.13150984322E+03  0.00000000000E+00 0. -1.
          4    1    3    3  501    0 -0.14235638399E+02  0.10737373112E+03  0.96851919912E+03  0.97455693040E+03  0.00000000000E+00 0. -1.
<mgrwt>
<rscale>  0 0.65135789E+03</rscale>
<asrwt>0</asrwt>
<pdfrwt beam="1">0</pdfrwt>
<pdfrwt beam="2">  1        2 0.38569817E+00 0.65135789E+03</pdfrwt>
<totfact> 0.45026787E+00</totfact>
</mgrwt>
</event>
<event>
 5    1  0.2366700E-004  0.6460108E+03  0.7818608E-02  0.9814294E-01
         13   -1    0    0    0    0  0.00000000000E+00  0.00000000000E+00  0.10000000000E+04  0.10000000000E+04  0.00000000000E+00 0. -1.
          2   -1    0    0  501    0 -0.00000000000E+00 -0.00000000000E+00 -0.10433247257E+03  0.10433247257E+03  0.00000000000E+00 0. -1.
    9000006    2    1    2  501    0  0.00000000000E+00  0.00000000000E+00  0.89566752743E+03  0.11043324726E+04  0.64601075091E+03 0.  0.
         13    1    3    3    0    0 -0.26186468477E+03 -0.97822447502E+01  0.77066317630E+03  0.81399664418E+03  0.00000000000E+00 0. -1.
          4    1    3    3  501    0  0.26186468477E+03  0.97822447502E+01  0.12500435113E+03  0.29033582839E+03  0.00000000000E+00 0. -1.
<mgrwt>
<rscale>  0 0.64601075E+03</rscale>
<asrwt>0</asrwt>
<pdfrwt beam="1">0</pdfrwt>
<pdfrwt beam="2">  1        2 0.37939161E+00 0.64601075E+03</pdfrwt>
<totfact> 0.47529914E+00</totfact>
</mgrwt>
</event>
<event>
 5    1  0.2366700E-004  0.6376417E+03  0.7818608E-02  0.9830249E-01
         13   -1    0    0    0    0  0.00000000000E+00  0.00000000000E+00  0.10000000000E+04  0.10000000000E+04  0.00000000000E+00 0. -1.
          2   -1    0    0  501    0 -0.00000000000E+00 -0.00000000000E+00 -0.10164672226E+03  0.10164672226E+03  0.00000000000E+00 0. -1.
    9000006    2    1    2  501    0  0.00000000000E+00  0.00000000000E+00  0.89835327774E+03  0.11016467223E+04  0.63764166195E+03 0.  0.
         13    1    3    3    0    0  0.26831649840E+03  0.53951104029E+02  0.16664655833E+03  0.32043024256E+03  0.00000000000E+00 0. -1.
          2    1    3    3  501    0 -0.26831649840E+03 -0.53951104029E+02  0.73170671940E+03  0.78121647971E+03  0.00000000000E+00 0. -1.
<mgrwt>
<rscale>  0 0.63764166E+03</rscale>
<asrwt>0</asrwt>
<pdfrwt beam="1">0</pdfrwt>
<pdfrwt beam="2">  1        2 0.36962522E+00 0.63764166E+03</pdfrwt>
<totfact> 0.51657564E+00</totfact>
</mgrwt>
</event>
<event>
 5    1  0.2366700E-004  0.6689800E+03  0.7818608E-02  0.9771802E-01
         13   -1    0    0    0    0  0.00000000000E+00  0.00000000000E+00  0.10000000000E+04  0.10000000000E+04  0.00000000000E+00 0. -1.
          2   -1    0    0  501    0 -0.00000000000E+00 -0.00000000000E+00 -0.11188356691E+03  0.11188356691E+03  0.00000000000E+00 0. -1.
    9000006    2    1    2  501    0  0.00000000000E+00  0.00000000000E+00  0.88811643309E+03  0.11118835669E+04  0.66898002036E+03 0.  0.
         13    1    3    3    0    0  0.86790087103E+02 -0.41163501687E+02  0.97658276353E+03  0.98129549429E+03  0.00000000000E+00 0. -1.
          2    1    3    3  501    0 -0.86790087103E+02  0.41163501687E+02 -0.88466330436E+02  0.13058807262E+03  0.00000000000E+00 0. -1.
<mgrwt>
<rscale>  0 0.66898002E+03</rscale>
<asrwt>0</asrwt>
<pdfrwt beam="1">0</pdfrwt>
<pdfrwt beam="2">  1        2 0.40685019E+00 0.66898002E+03</pdfrwt>
<totfact> 0.37476714E+00</totfact>
</mgrwt>
</event>
<event>
 5    1  0.2366700E-004  0.6545156E+03  0.7818608E-02  0.9798343E-01
         13   -1    0    0    0    0  0.00000000000E+00  0.00000000000E+00  0.10000000000E+04  0.10000000000E+04  0.00000000000E+00 0. -1.
          2   -1    0    0  501    0 -0.00000000000E+00 -0.00000000000E+00 -0.10709767123E+03  0.10709767123E+03  0.00000000000E+00 0. -1.
    9000006    2    1    2  501    0  0.00000000000E+00  0.00000000000E+00  0.89290232877E+03  0.11070976712E+04  0.65451561091E+03 0.  0.
         13    1    3    3    0    0 -0.31357118432E+03  0.65981550732E+02  0.55887033370E+03  0.64421774468E+03  0.00000000000E+00 0. -1.
          2    1    3    3  501    0  0.31357118432E+03 -0.65981550732E+02  0.33403199507E+03  0.46287992655E+03  0.00000000000E+00 0. -1.
<mgrwt>
<rscale>  0 0.65451561E+03</rscale>
<asrwt>0</asrwt>
<pdfrwt beam="1">0</pdfrwt>
<pdfrwt beam="2">  1        2 0.38944690E+00 0.65451561E+03</pdfrwt>
<totfact> 0.43596155E+00</totfact>
</mgrwt>
</event>
<event>
 5    1  0.2366700E-004  0.6497499E+03  0.7818608E-02  0.9807249E-01
         13   -1    0    0    0    0  0.00000000000E+00  0.00000000000E+00  0.10000000000E+04  0.10000000000E+04  0.00000000000E+00 0. -1.
          2   -1    0    0  501    0 -0.00000000000E+00 -0.00000000000E+00 -0.10554373717E+03  0.10554373717E+03  0.00000000000E+00 0. -1.
    9000006    2    1    2  501    0  0.00000000000E+00  0.00000000000E+00  0.89445626283E+03  0.11055437372E+04  0.64974991241E+03 0.  0.
         13    1    3    3    0    0 -0.31863194893E+02 -0.28710001352E+03  0.70018474503E+03  0.75743010115E+03  0.00000000000E+00 0. -1.
          4    1    3    3  501    0  0.31863194893E+02  0.28710001352E+03  0.19427151780E+03  0.34811363602E+03  0.00000000000E+00 0. -1.
<mgrwt>
<rscale>  0 0.64974991E+03</rscale>
<asrwt>0</asrwt>
<pdfrwt beam="1">0</pdfrwt>
<pdfrwt beam="2">  1        2 0.38379622E+00 0.64974991E+03</pdfrwt>
<totfact> 0.45768776E+00</totfact>
</mgrwt>
</event>
<event>
 5    1  0.2366700E-004  0.6402207E+03  0.7818608E-02  0.9825304E-01
         13   -1    0    0    0    0  0.00000000000E+00  0.00000000000E+00  0.10000000000E+04  0.10000000000E+04  0.00000000000E+00 0. -1.
          2   -1    0    0  501    0 -0.00000000000E+00 -0.00000000000E+00 -0.10247064863E+03  0.10247064863E+03  0.00000000000E+00 0. -1.
    9000006    2    1    2  501    0  0.00000000000E+00  0.00000000000E+00  0.89752935137E+03  0.11024706486E+04  0.64022073890E+03 0.  0.
         13    1    3    3    0    0 -0.26385358341E+03  0.15729327003E+03  0.29368026786E+03  0.42497998306E+03  0.00000000000E+00 0. -1.
          4    1    3    3  501    0  0.26385358341E+03 -0.15729327003E+03  0.60384908351E+03  0.67749066557E+03  0.00000000000E+00 0. -1.
<mgrwt>
<rscale>  0 0.64022074E+03</rscale>
<asrwt>0</asrwt>
<pdfrwt beam="1">0</pdfrwt>
<pdfrwt beam="2">  1        2 0.37262133E+00 0.64022074E+03</pdfrwt>
<totfact> 0.50357694E+00</totfact>
</mgrwt>
</event>
<event>
 5    1  0.2366700E-004  0.6576171E+03  0.7818608E-02  0.9792590E-01
         13   -1    0    0    0    0  0.00000000000E+00  0.00000000000E+00  0.10000000000E+04  0.10000000000E+04  0.00000000000E+00 0. -1.
          2   -1    0    0  501    0 -0.00000000000E+00 -0.00000000000E+00 -0.10811505139E+03  0.10811505139E+03  0.00000000000E+00 0. -1.
    9000006    2    1    2  501    0  0.00000000000E+00  0.00000000000E+00  0.89188494861E+03  0.11081150514E+04  0.65761706606E+03 0.  0.
         13    1    3    3    0    0 -0.14920795996E+03  0.11154560876E+03  0.90249236872E+03  0.92151935072E+03  0.00000000000E+00 0. -1.
          4    1    3    3  501    0  0.14920795996E+03 -0.11154560876E+03 -0.10607420112E+02  0.18659570067E+03  0.00000000000E+00 0. -1.
<mgrwt>
<rscale>  0 0.65761707E+03</rscale>
<asrwt>0</asrwt>
<pdfrwt beam="1">0</pdfrwt>
<pdfrwt beam="2">  1        2 0.39314647E+00 0.65761707E+03</pdfrwt>
<totfact> 0.42224702E+00</totfact>
</mgrwt>
</event>
<event>
 5    1  0.2366700E-004  0.6619626E+03  0.7818608E-02  0.9784588E-01
         13   -1    0    0    0    0  0.00000000000E+00  0.00000000000E+00  0.10000000000E+04  0.10000000000E+04  0.00000000000E+00 0. -1.
          2   -1    0    0  501    0 -0.00000000000E+00 -0.00000000000E+00 -0.10954862376E+03  0.10954862376E+03  0.00000000000E+00 0. -1.
    9000006    2    1    2  501    0  0.00000000000E+00  0.00000000000E+00  0.89045137624E+03  0.11095486238E+04  0.66196260849E+03 0.  0.
         13    1    3    3    0    0  0.25132242513E+03  0.19542784613E+03  0.59694846139E+03  0.67653711647E+03  0.00000000000E+00 0. -1.
          2    1    3    3  501    0 -0.25132242513E+03 -0.19542784613E+03  0.29350291485E+03  0.43301150729E+03  0.00000000000E+00 0. -1.
<mgrwt>
<rscale>  0 0.66196261E+03</rscale>
<asrwt>0</asrwt>
<pdfrwt beam="1">0</pdfrwt>
<pdfrwt beam="2">  1        2 0.39835947E+00 0.66196261E+03</pdfrwt>
<totfact> 0.40358351E+00</totfact>
</mgrwt>
</event>
<event>
 5    1  0.2366700E-004  0.6390498E+03  0.7818608E-02  0.9827546E-01
         13   -1    0    0    0    0  0.00000000000E+00  0.00000000000E+00  0.10000000000E+04  0.10000000000E+04  0.00000000000E+00 0. -1.
          2   -1    0    0  501    0 -0.00000000000E+00 -0.00000000000E+00 -0.10209615936E+03  0.10209615936E+03  0.00000000000E+00 0. -1.
    9000006    2    1    2  501    0  0.00000000000E+00  0.00000000000E+00  0.89790384064E+03  0.11020961594E+04  0.63904979263E+03 0.  0.
         13    1    3    3    0    0 -0.13428223013E+03 -0.84590100776E+02  0.92722204265E+03  0.94070607464E+03  0.00000000000E+00 0. -1.
          4    1    3    3  501    0  0.13428223013E+03  0.84590100776E+02 -0.29318202018E+02  0.16139008473E+03  0.00000000000E+00 0. -1.
<mgrwt>
<rscale>  0 0.63904979E+03</rscale>
<asrwt>0</asrwt>
<pdfrwt beam="1">0</pdfrwt>
<pdfrwt beam="2">  1        2 0.37125954E+00 0.63904979E+03</pdfrwt>
<totfact> 0.50944749E+00</totfact>
</mgrwt>
</event>
<event>
 5    1  0.2366700E-004  0.6482528E+03  0.7818608E-02  0.9810063E-01
         13   -1    0    0    0    0  0.00000000000E+00  0.00000000000E+00  0.10000000000E+04  0.10000000000E+04  0.00000000000E+00 0. -1.
          2   -1    0    0  501    0 -0.00000000000E+00 -0.00000000000E+00 -0.10505791890E+03  0.10505791890E+03  0.00000000000E+00 0. -1.
    9000006    2    1    2  501    0  0.00000000000E+00  0.00000000000E+00  0.89494208110E+03  0.11050579189E+04  0.64825278680E+03 0.  0.
         13    1    3    3    0    0 -0.28905349502E+02  0.99589586808E+02  0.97095867620E+03  0.97648059679E+03  0.00000000000E+00 0. -1.
          4    1    3    3  501    0  0.28905349502E+02 -0.99589586808E+02 -0.76016595094E+02  0.12857732211E+03  0.00000000000E+00 0. -1.
<mgrwt>
<rscale>  0 0.64825279E+03</rscale>
<asrwt>0</asrwt>
<pdfrwt beam="1">0</pdfrwt>
<pdfrwt beam="2">  1        2 0.38202960E+00 0.64825279E+03</pdfrwt>
<totfact> 0.46467888E+00</totfact>
</mgrwt>
</event>
<event>
 5    1  0.2366700E-004  0.6411537E+03  0.7818608E-02  0.9823522E-01
         13   -1    0    0    0    0  0.00000000000E+00  0.00000000000E+00  0.10000000000E+04  0.10000000000E+04  0.00000000000E+00 0. -1.
          4   -1    0    0  501    0 -0.00000000000E+00 -0.00000000000E+00 -0.10276952474E+03  0.10276952474E+03  0.00000000000E+00 0. -1.
    9000006    2    1    2  501    0  0.00000000000E+00  0.00000000000E+00  0.89723047526E+03  0.11027695247E+04  0.64115372490E+03 0.  0.
         13    1    3    3    0    0  0.30219203371E+03 -0.25435224895E+02  0.62738155976E+03  0.69683182866E+03  0.00000000000E+00 0. -1.
          4    1    3    3  501    0 -0.30219203371E+03  0.25435224895E+02  0.26984891550E+03  0.40593769608E+03  0.00000000000E+00 0. -1.
<mgrwt>
<rscale>  0 0.64115372E+03</rscale>
<asrwt>0</asrwt>
<pdfrwt beam="1">0</pdfrwt>
<pdfrwt beam="2">  1        4 0.37370815E+00 0.64115372E+03</pdfrwt>
<totfact> 0.48340691E-02</totfact>
</mgrwt>
</event>
<event>
 5    1  0.2366700E-004  0.6805160E+03  0.7818608E-02  0.9751145E-01
         13   -1    0    0    0    0  0.00000000000E+00  0.00000000000E+00  0.10000000000E+04  0.10000000000E+04  0.00000000000E+00 0. -1.
          2   -1    0    0  501    0 -0.00000000000E+00 -0.00000000000E+00 -0.11577550936E+03  0.11577550936E+03  0.00000000000E+00 0. -1.
    9000006    2    1    2  501    0  0.00000000000E+00  0.00000000000E+00  0.88422449064E+03  0.11157755094E+04  0.68051600822E+03 0.  0.
         13    1    3    3    0    0  0.10397812953E+03 -0.16920918034E+03 -0.10882000081E+02  0.19890102076E+03  0.00000000000E+00 0. -1.
          2    1    3    3  501    0 -0.10397812953E+03  0.16920918034E+03  0.89510649072E+03  0.91687448861E+03  0.00000000000E+00 0. -1.
<mgrwt>
<rscale>  0 0.68051601E+03</rscale>
<asrwt>0</asrwt>
<pdfrwt beam="1">0</pdfrwt>
<pdfrwt beam="2">  1        2 0.42100274E+00 0.68051601E+03</pdfrwt>
<totfact> 0.33080082E+00</totfact>
</mgrwt>
</event>
<event>
 5    1  0.2366700E-004  0.6511389E+03  0.7818608E-02  0.9804644E-01
         13   -1    0    0    0    0  0.00000000000E+00  0.00000000000E+00  0.10000000000E+04  0.10000000000E+04  0.00000000000E+00 0. -1.
          2   -1    0    0  501    0 -0.00000000000E+00 -0.00000000000E+00 -0.10599547101E+03  0.10599547101E+03  0.00000000000E+00 0. -1.
    9000006    2    1    2  501    0  0.00000000000E+00  0.00000000000E+00  0.89400452899E+03  0.11059954710E+04  0.65113891302E+03 0.  0.
         13    1    3    3    0    0 -0.10346174596E+03  0.27968854341E+03  0.22511179072E+03  0.37363796985E+03  0.00000000000E+00 0. -1.
          4    1    3    3  501    0  0.10346174596E+03 -0.27968854341E+03  0.66889273827E+03  0.73235750116E+03  0.00000000000E+00 0. -1.
<mgrwt>
<rscale>  0 0.65113891E+03</rscale>
<asrwt>0</asrwt>
<pdfrwt beam="1">0</pdfrwt>
<pdfrwt beam="2">  1        2 0.38543889E+00 0.65113891E+03</pdfrwt>
<totfact> 0.45127292E+00</totfact>
</mgrwt>
</event>
<event>
 5    1  0.2366700E-004  0.6422877E+03  0.7818608E-02  0.9821359E-01
         13   -1    0    0    0    0  0.00000000000E+00  0.00000000000E+00  0.10000000000E+04  0.10000000000E+04  0.00000000000E+00 0. -1.
          2   -1    0    0  501    0 -0.00000000000E+00 -0.00000000000E+00 -0.10313337085E+03  0.10313337085E+03  0.00000000000E+00 0. -1.
    9000006    2    1    2  501    0  0.00000000000E+00  0.00000000000E+00  0.89686662915E+03  0.11031333708E+04  0.64228769519E+03 0.  0.
         13    1    3    3    0    0  0.31026423053E+03  0.64439597937E+02  0.53795835875E+03  0.62435210441E+03  0.00000000000E+00 0. -1.
          4    1    3    3  501    0 -0.31026423053E+03 -0.64439597937E+02  0.35890827040E+03  0.47878126644E+03  0.00000000000E+00 0. -1.
<mgrwt>
<rscale>  0 0.64228770E+03</rscale>
<asrwt>0</asrwt>
<pdfrwt beam="1">0</pdfrwt>
<pdfrwt beam="2">  1        2 0.37503123E+00 0.64228770E+03</pdfrwt>
<totfact> 0.49333944E+00</totfact>
</mgrwt>
</event>
<event>
 5    1  0.2366700E-004  0.6482230E+03  0.7818608E-02  0.9810119E-01
         13   -1    0    0    0    0  0.00000000000E+00  0.00000000000E+00  0.10000000000E+04  0.10000000000E+04  0.00000000000E+00 0. -1.
          2   -1    0    0  501    0 -0.00000000000E+00 -0.00000000000E+00 -0.10504827409E+03  0.10504827409E+03  0.00000000000E+00 0. -1.
    9000006    2    1    2  501    0  0.00000000000E+00  0.00000000000E+00  0.89495172591E+03  0.11050482741E+04  0.64822302980E+03 0.  0.
         13    1    3    3    0    0 -0.21709024734E+03 -0.66445795652E+02  0.84180076215E+03  0.87187828417E+03  0.00000000000E+00 0. -1.
          2    1    3    3  501    0  0.21709024734E+03  0.66445795652E+02  0.53150963755E+02  0.23316998992E+03  0.00000000000E+00 0. -1.
<mgrwt>
<rscale>  0 0.64822303E+03</rscale>
<asrwt>0</asrwt>
<pdfrwt beam="1">0</pdfrwt>
<pdfrwt beam="2">  1        2 0.38199453E+00 0.64822303E+03</pdfrwt>
<totfact> 0.46481865E+00</totfact>
</mgrwt>
</event>
<event>
 5    1  0.2366700E-004  0.6472052E+03  0.7818608E-02  0.9812038E-01
         13   -1    0    0    0    0  0.00000000000E+00  0.00000000000E+00  0.10000000000E+04  0.10000000000E+04  0.00000000000E+00 0. -1.
          2   -1    0    0  501    0 -0.00000000000E+00 -0.00000000000E+00 -0.10471865741E+03  0.10471865741E+03  0.00000000000E+00 0. -1.
    9000006    2    1    2  501    0  0.00000000000E+00  0.00000000000E+00  0.89528134259E+03  0.11047186574E+04  0.64720524537E+03 0.  0.
         13    1    3    3    0    0  0.27191629067E+03  0.14579510803E+03  0.61421910646E+03  0.68735710763E+03  0.00000000000E+00 0. -1.
          2    1    3    3  501    0 -0.27191629067E+03 -0.14579510803E+03  0.28106223613E+03  0.41736154978E+03  0.00000000000E+00 0. -1.
<mgrwt>
<rscale>  0 0.64720525E+03</rscale>
<asrwt>0</asrwt>
<pdfrwt beam="1">0</pdfrwt>
<pdfrwt beam="2">  1        2 0.38079592E+00 0.64720525E+03</pdfrwt>
<totfact> 0.46961837E+00</totfact>
</mgrwt>
</event>
<event>
 5    1  0.2366700E-004  0.6924192E+03  0.7818608E-02  0.9730285E-01
         13   -1    0    0    0    0  0.00000000000E+00  0.00000000000E+00  0.10000000000E+04  0.10000000000E+04  0.00000000000E+00 0. -1.
          2   -1    0    0  501    0 -0.00000000000E+00 -0.00000000000E+00 -0.11986109265E+03  0.11986109265E+03  0.00000000000E+00 0. -1.
    9000006    2    1    2  501    0  0.00000000000E+00  0.00000000000E+00  0.88013890735E+03  0.11198610926E+04  0.69241921593E+03 0.  0.
         13    1    3    3    0    0  0.34513416611E+03  0.24681630510E+02  0.42132551881E+03  0.54519901715E+03  0.00000000000E+00 0. -1.
          4    1    3    3  501    0 -0.34513416611E+03 -0.24681630510E+02  0.45881338854E+03  0.57466207549E+03  0.00000000000E+00 0. -1.
<mgrwt>
<rscale>  0 0.69241922E+03</rscale>
<asrwt>0</asrwt>
<pdfrwt beam="1">0</pdfrwt>
<pdfrwt beam="2">  1        2 0.43585944E+00 0.69241922E+03</pdfrwt>
<totfact> 0.28962852E+00</totfact>
</mgrwt>
</event>
<event>
 5    1  0.2366700E-004  0.6488884E+03  0.7818608E-02  0.9808867E-01
         13   -1    0    0    0    0  0.00000000000E+00  0.00000000000E+00  0.10000000000E+04  0.10000000000E+04  0.00000000000E+00 0. -1.
          2   -1    0    0  501    0 -0.00000000000E+00 -0.00000000000E+00 -0.10526405359E+03  0.10526405359E+03  0.00000000000E+00 0. -1.
    9000006    2    1    2  501    0  0.00000000000E+00  0.00000000000E+00  0.89473594641E+03  0.11052640536E+04  0.64888844525E+03 0.  0.
         13    1    3    3    0    0  0.23478351915E+03  0.13648317623E+03  0.14499599818E+03  0.30785515709E+03  0.00000000000E+00 0. -1.
          2    1    3    3  501    0 -0.23478351915E+03 -0.13648317623E+03  0.74973994822E+03  0.79740889650E+03  0.00000000000E+00 0. -1.
<mgrwt>
<rscale>  0 0.64888845E+03</rscale>
<asrwt>0</asrwt>
<pdfrwt beam="1">0</pdfrwt>
<pdfrwt beam="2">  1        2 0.38277918E+00 0.64888845E+03</pdfrwt>
<totfact> 0.46170076E+00</totfact>
</mgrwt>
</event>
<event>
 5    1  0.2366700E-004  0.6554488E+03  0.7818608E-02  0.9796608E-01
         13   -1    0    0    0    0  0.00000000000E+00  0.00000000000E+00  0.10000000000E+04  0.10000000000E+04  0.00000000000E+00 0. -1.
          2   -1    0    0  501    0 -0.00000000000E+00 -0.00000000000E+00 -0.10740327577E+03  0.10740327577E+03  0.00000000000E+00 0. -1.
    9000006    2    1    2  501    0  0.00000000000E+00  0.00000000000E+00  0.89259672423E+03  0.11074032758E+04  0.65544877990E+03 0.  0.
         13    1    3    3    0    0 -0.15803712613E+02  0.30059912801E+03  0.66524587482E+03  0.73017920201E+03  0.00000000000E+00 0. -1.
          4    1    3    3  501    0  0.15803712613E+02 -0.30059912801E+03  0.22735084941E+03  0.37722407375E+03  0.00000000000E+00 0. -1.
<mgrwt>
<rscale>  0 0.65544878E+03</rscale>
<asrwt>0</asrwt>
<pdfrwt beam="1">0</pdfrwt>
<pdfrwt beam="2">  1        2 0.39055819E+00 0.65544878E+03</pdfrwt>
<totfact> 0.43180026E+00</totfact>
</mgrwt>
</event>
<event>
 5    1  0.2366700E-004  0.6565313E+03  0.7818608E-02  0.9794600E-01
         13   -1    0    0    0    0  0.00000000000E+00  0.00000000000E+00  0.10000000000E+04  0.10000000000E+04  0.00000000000E+00 0. -1.
          2   -1    0    0  501    0 -0.00000000000E+00 -0.00000000000E+00 -0.10775833330E+03  0.10775833330E+03  0.00000000000E+00 0. -1.
    9000006    2    1    2  501    0  0.00000000000E+00  0.00000000000E+00  0.89224166670E+03  0.11077583333E+04  0.65653128882E+03 0.  0.
         13    1    3    3    0    0  0.25466142515E+02 -0.31468884143E+03  0.29444540964E+03  0.43171250919E+03  0.00000000000E+00 0. -1.
          4    1    3    3  501    0 -0.25466142515E+02  0.31468884143E+03  0.59779625706E+03  0.67604582411E+03  0.00000000000E+00 0. -1.
<mgrwt>
<rscale>  0 0.65653129E+03</rscale>
<asrwt>0</asrwt>
<pdfrwt beam="1">0</pdfrwt>
<pdfrwt beam="2">  1        2 0.39184931E+00 0.65653129E+03</pdfrwt>
<totfact> 0.42701066E+00</totfact>
</mgrwt>
</event>
<event>
 5    1  0.2366700E-004  0.6634626E+03  0.7818608E-02  0.9781840E-01
         13   -1    0    0    0    0  0.00000000000E+00  0.00000000000E+00  0.10000000000E+04  0.10000000000E+04  0.00000000000E+00 0. -1.
          2   -1    0    0  501    0 -0.00000000000E+00 -0.00000000000E+00 -0.11004566872E+03  0.11004566872E+03  0.00000000000E+00 0. -1.
    9000006    2    1    2  501    0  0.00000000000E+00  0.00000000000E+00  0.88995433128E+03  0.11100456687E+04  0.66346264014E+03 0.  0.
         13    1    3    3    0    0 -0.30319213476E+03  0.12305434220E+03  0.53627786534E+03  0.62822113190E+03  0.00000000000E+00 0. -1.
          2    1    3    3  501    0  0.30319213476E+03 -0.12305434220E+03  0.35367646594E+03  0.48182453682E+03  0.00000000000E+00 0. -1.
<mgrwt>
<rscale>  0 0.66346264E+03</rscale>
<asrwt>0</asrwt>
<pdfrwt beam="1">0</pdfrwt>
<pdfrwt beam="2">  1        2 0.40016691E+00 0.66346264E+03</pdfrwt>
<totfact> 0.39728802E+00</totfact>
</mgrwt>
</event>
<event>
 5    1  0.2366700E-004  0.6468229E+03  0.7818608E-02  0.9812759E-01
         13   -1    0    0    0    0  0.00000000000E+00  0.00000000000E+00  0.10000000000E+04  0.10000000000E+04  0.00000000000E+00 0. -1.
          2   -1    0    0  501    0 -0.00000000000E+00 -0.00000000000E+00 -0.10459496096E+03  0.10459496096E+03  0.00000000000E+00 0. -1.
    9000006    2    1    2  501    0  0.00000000000E+00  0.00000000000E+00  0.89540503904E+03  0.11045949610E+04  0.64682288444E+03 0.  0.
         13    1    3    3    0    0 -0.24342048314E+03 -0.17219223042E+03  0.23378484871E+03  0.37889187286E+03  0.00000000000E+00 0. -1.
          4    1    3    3  501    0  0.24342048314E+03  0.17219223042E+03  0.66162019033E+03  0.72570308810E+03  0.00000000000E+00 0. -1.
<mgrwt>
<rscale>  0 0.64682288E+03</rscale>
<asrwt>0</asrwt>
<pdfrwt beam="1">0</pdfrwt>
<pdfrwt beam="2">  1        2 0.38034611E+00 0.64682288E+03</pdfrwt>
<totfact> 0.47143118E+00</totfact>
</mgrwt>
</event>
<event>
 5    1  0.2366700E-004  0.6133212E+03  0.7818608E-02  0.9878148E-01
         13   -1    0    0    0    0  0.00000000000E+00  0.00000000000E+00  0.10000000000E+04  0.10000000000E+04  0.00000000000E+00 0. -1.
          2   -1    0    0  501    0 -0.00000000000E+00 -0.00000000000E+00 -0.94040709616E+02  0.94040709616E+02  0.00000000000E+00 0. -1.
    9000006    2    1    2  501    0  0.00000000000E+00  0.00000000000E+00  0.90595929038E+03  0.10940407096E+04  0.61332115442E+03 0.  0.
         13    1    3    3    0    0  0.19982501363E+03  0.22852172838E+03  0.37546152169E+03  0.48282871775E+03  0.00000000000E+00 0. -1.
          4    1    3    3  501    0 -0.19982501363E+03 -0.22852172838E+03  0.53049776870E+03  0.61121199187E+03  0.00000000000E+00 0. -1.
<mgrwt>
<rscale>  0 0.61332115E+03</rscale>
<asrwt>0</asrwt>
<pdfrwt beam="1">0</pdfrwt>
<pdfrwt beam="2">  1        2 0.34196694E+00 0.61332115E+03</pdfrwt>
<totfact> 0.65207546E+00</totfact>
</mgrwt>
</event>
<event>
 5    1  0.2366700E-004  0.6252241E+03  0.7818608E-02  0.9854413E-01
         13   -1    0    0    0    0  0.00000000000E+00  0.00000000000E+00  0.10000000000E+04  0.10000000000E+04  0.00000000000E+00 0. -1.
          2   -1    0    0  501    0 -0.00000000000E+00 -0.00000000000E+00 -0.97726299548E+02  0.97726299548E+02  0.00000000000E+00 0. -1.
    9000006    2    1    2  501    0  0.00000000000E+00  0.00000000000E+00  0.90227370045E+03  0.10977262995E+04  0.62522411837E+03 0.  0.
         13    1    3    3    0    0 -0.25386449350E+03  0.77488664277E+01  0.13113528355E+03  0.28583857085E+03  0.00000000000E+00 0. -1.
          4    1    3    3  501    0  0.25386449350E+03 -0.77488664277E+01  0.77113841690E+03  0.81188772870E+03  0.00000000000E+00 0. -1.
<mgrwt>
<rscale>  0 0.62522412E+03</rscale>
<asrwt>0</asrwt>
<pdfrwt beam="1">0</pdfrwt>
<pdfrwt beam="2">  1        2 0.35536911E+00 0.62522412E+03</pdfrwt>
<totfact> 0.58276049E+00</totfact>
</mgrwt>
</event>
<event>
 5    1  0.2366700E-004  0.6505134E+03  0.7818608E-02  0.9805816E-01
         13   -1    0    0    0    0  0.00000000000E+00  0.00000000000E+00  0.10000000000E+04  0.10000000000E+04  0.00000000000E+00 0. -1.
          2   -1    0    0  501    0 -0.00000000000E+00 -0.00000000000E+00 -0.10579193443E+03  0.10579193443E+03  0.00000000000E+00 0. -1.
    9000006    2    1    2  501    0  0.00000000000E+00  0.00000000000E+00  0.89420806557E+03  0.11057919344E+04  0.65051344162E+03 0.  0.
         13    1    3    3    0    0 -0.25459709756E+03  0.20054596975E+03  0.40044047006E+03  0.51516107979E+03  0.00000000000E+00 0. -1.
          4    1    3    3  501    0  0.25459709756E+03 -0.20054596975E+03  0.49376759551E+03  0.59063085464E+03  0.00000000000E+00 0. -1.
<mgrwt>
<rscale>  0 0.65051344E+03</rscale>
<asrwt>0</asrwt>
<pdfrwt beam="1">0</pdfrwt>
<pdfrwt beam="2">  1        2 0.38469875E+00 0.65051344E+03</pdfrwt>
<totfact> 0.45415308E+00</totfact>
</mgrwt>
</event>
<event>
 5    1  0.2366700E-004  0.6648692E+03  0.7818608E-02  0.9779271E-01
         13   -1    0    0    0    0  0.00000000000E+00  0.00000000000E+00  0.10000000000E+04  0.10000000000E+04  0.00000000000E+00 0. -1.
          2   -1    0    0  501    0 -0.00000000000E+00 -0.00000000000E+00 -0.11051276058E+03  0.11051276058E+03  0.00000000000E+00 0. -1.
    9000006    2    1    2  501    0  0.00000000000E+00  0.00000000000E+00  0.88948723942E+03  0.11105127606E+04  0.66486919190E+03 0.  0.
         13    1    3    3    0    0  0.30571926738E+03 -0.37653682077E+02  0.65356570283E+03  0.72251657292E+03  0.00000000000E+00 0. -1.
          2    1    3    3  501    0 -0.30571926738E+03  0.37653682077E+02  0.23592153658E+03  0.38799618767E+03  0.00000000000E+00 0. -1.
<mgrwt>
<rscale>  0 0.66486919E+03</rscale>
<asrwt>0</asrwt>
<pdfrwt beam="1">0</pdfrwt>
<pdfrwt beam="2">  1        2 0.40186543E+00 0.66486919E+03</pdfrwt>
<totfact> 0.39145242E+00</totfact>
</mgrwt>
</event>
<event>
 5    1  0.2366700E-004  0.6478386E+03  0.7818608E-02  0.9810843E-01
         13   -1    0    0    0    0  0.00000000000E+00  0.00000000000E+00  0.10000000000E+04  0.10000000000E+04  0.00000000000E+00 0. -1.
          2   -1    0    0  501    0 -0.00000000000E+00 -0.00000000000E+00 -0.10492371080E+03  0.10492371080E+03  0.00000000000E+00 0. -1.
    9000006    2    1    2  501    0  0.00000000000E+00  0.00000000000E+00  0.89507628920E+03  0.11049237108E+04  0.64783859348E+03 0.  0.
         13    1    3    3    0    0  0.23021749477E+03  0.21739024072E+03  0.56403009472E+03  0.64682962162E+03  0.00000000000E+00 0. -1.
          4    1    3    3  501    0 -0.23021749477E+03 -0.21739024072E+03  0.33104619448E+03  0.45809408918E+03  0.00000000000E+00 0. -1.
<mgrwt>
<rscale>  0 0.64783859E+03</rscale>
<asrwt>0</asrwt>
<pdfrwt beam="1">0</pdfrwt>
<pdfrwt beam="2">  1        2 0.38154157E+00 0.64783859E+03</pdfrwt>
<totfact> 0.46662722E+00</totfact>
</mgrwt>
</event>
<event>
 5    1  0.2366700E-004  0.6467388E+03  0.7818608E-02  0.9812918E-01
         13   -1    0    0    0    0  0.00000000000E+00  0.00000000000E+00  0.10000000000E+04  0.10000000000E+04  0.00000000000E+00 0. -1.
          2   -1    0    0  501    0 -0.00000000000E+00 -0.00000000000E+00 -0.10456776579E+03  0.10456776579E+03  0.00000000000E+00 0. -1.
    9000006    2    1    2  501    0  0.00000000000E+00  0.00000000000E+00  0.89543223421E+03  0.11045677658E+04  0.64673879053E+03 0.  0.
         13    1    3    3    0    0  0.29241091095E+03  0.11445042172E+03  0.57962034051E+03  0.65921375821E+03  0.00000000000E+00 0. -1.
          2    1    3    3  501    0 -0.29241091095E+03 -0.11445042172E+03  0.31581189369E+03  0.44535400759E+03  0.00000000000E+00 0. -1.
<mgrwt>
<rscale>  0 0.64673879E+03</rscale>
<asrwt>0</asrwt>
<pdfrwt beam="1">0</pdfrwt>
<pdfrwt beam="2">  1        2 0.38024722E+00 0.64673879E+03</pdfrwt>
<totfact> 0.47183059E+00</totfact>
</mgrwt>
</event>
<event>
 5    1  0.2366700E-004  0.6497056E+03  0.7818608E-02  0.9807332E-01
         13   -1    0    0    0    0  0.00000000000E+00  0.00000000000E+00  0.10000000000E+04  0.10000000000E+04  0.00000000000E+00 0. -1.
          2   -1    0    0  501    0 -0.00000000000E+00 -0.00000000000E+00 -0.10552935134E+03  0.10552935134E+03  0.00000000000E+00 0. -1.
    9000006    2    1    2  501    0  0.00000000000E+00  0.00000000000E+00  0.89447064866E+03  0.11055293513E+04  0.64970562977E+03 0.  0.
         13    1    3    3    0    0  0.20174004102E+03  0.24462738062E+02  0.15985461725E+02  0.20384554125E+03  0.00000000000E+00 0. -1.
          2    1    3    3  501    0 -0.20174004102E+03 -0.24462738062E+02  0.87848518694E+03  0.90168381008E+03  0.00000000000E+00 0. -1.
<mgrwt>
<rscale>  0 0.64970563E+03</rscale>
<asrwt>0</asrwt>
<pdfrwt beam="1">0</pdfrwt>
<pdfrwt beam="2">  1        2 0.38374390E+00 0.64970563E+03</pdfrwt>
<totfact> 0.45789340E+00</totfact>
</mgrwt>
</event>
<event>
 5    1  0.2366700E-004  0.6487016E+03  0.7818608E-02  0.9809219E-01
         13   -1    0    0    0    0  0.00000000000E+00  0.00000000000E+00  0.10000000000E+04  0.10000000000E+04  0.00000000000E+00 0. -1.
          2   -1    0    0  501    0 -0.00000000000E+00 -0.00000000000E+00 -0.10520343495E+03  0.10520343495E+03  0.00000000000E+00 0. -1.
    9000006    2    1    2  501    0  0.00000000000E+00  0.00000000000E+00  0.89479656505E+03  0.11052034349E+04  0.64870157993E+03 0.  0.
         13    1    3    3    0    0 -0.32390011080E+03  0.38204418799E+01  0.47578228748E+03  0.57558202077E+03  0.00000000000E+00 0. -1.
          4    1    3    3  501    0  0.32390011080E+03 -0.38204418799E+01  0.41901427757E+03  0.52962141418E+03  0.00000000000E+00 0. -1.
<mgrwt>
<rscale>  0 0.64870158E+03</rscale>
<asrwt>0</asrwt>
<pdfrwt beam="1">0</pdfrwt>
<pdfrwt beam="2">  1        2 0.38255875E+00 0.64870158E+03</pdfrwt>
<totfact> 0.46257474E+00</totfact>
</mgrwt>
</event>
<event>
 5    1  0.2366700E-004  0.6483271E+03  0.7818608E-02  0.9809923E-01
         13   -1    0    0    0    0  0.00000000000E+00  0.00000000000E+00  0.10000000000E+04  0.10000000000E+04  0.00000000000E+00 0. -1.
          2   -1    0    0  501    0 -0.00000000000E+00 -0.00000000000E+00 -0.10508199936E+03  0.10508199936E+03  0.00000000000E+00 0. -1.
    9000006    2    1    2  501    0  0.00000000000E+00  0.00000000000E+00  0.89491800064E+03  0.11050819994E+04  0.64832707597E+03 0.  0.
         13    1    3    3    0    0 -0.12109230214E+03  0.16956291241E+03  0.87073828166E+03  0.89532121725E+03  0.00000000000E+00 0. -1.
          4    1    3    3  501    0  0.12109230214E+03 -0.16956291241E+03  0.24179718977E+02  0.20976078211E+03  0.00000000000E+00 0. -1.
<mgrwt>
<rscale>  0 0.64832708E+03</rscale>
<asrwt>0</asrwt>
<pdfrwt beam="1">0</pdfrwt>
<pdfrwt beam="2">  1        2 0.38211717E+00 0.64832708E+03</pdfrwt>
<totfact> 0.46433008E+00</totfact>
</mgrwt>
</event>
<event>
 5    1  0.2366700E-004  0.6162744E+03  0.7818608E-02  0.9872205E-01
         13   -1    0    0    0    0  0.00000000000E+00  0.00000000000E+00  0.10000000000E+04  0.10000000000E+04  0.00000000000E+00 0. -1.
          2   -1    0    0  501    0 -0.00000000000E+00 -0.00000000000E+00 -0.94948536741E+02  0.94948536741E+02  0.00000000000E+00 0. -1.
    9000006    2    1    2  501    0  0.00000000000E+00  0.00000000000E+00  0.90505146326E+03  0.10949485367E+04  0.61627440882E+03 0.  0.
         13    1    3    3    0    0  0.32341550248E+02 -0.30194837316E+03  0.35969745655E+03  0.47074521365E+03  0.00000000000E+00 0. -1.
          4    1    3    3  501    0 -0.32341550248E+02  0.30194837316E+03  0.54535400671E+03  0.62420332309E+03  0.00000000000E+00 0. -1.
<mgrwt>
<rscale>  0 0.61627441E+03</rscale>
<asrwt>0</asrwt>
<pdfrwt beam="1">0</pdfrwt>
<pdfrwt beam="2">  1        2 0.34526813E+00 0.61627441E+03</pdfrwt>
<totfact> 0.63432168E+00</totfact>
</mgrwt>
</event>
<event>
 5    1  0.2366700E-004  0.6343791E+03  0.7818608E-02  0.9836540E-01
         13   -1    0    0    0    0  0.00000000000E+00  0.00000000000E+00  0.10000000000E+04  0.10000000000E+04  0.00000000000E+00 0. -1.
          2   -1    0    0  501    0 -0.00000000000E+00 -0.00000000000E+00 -0.10060920334E+03  0.10060920334E+03  0.00000000000E+00 0. -1.
    9000006    2    1    2  501    0  0.00000000000E+00  0.00000000000E+00  0.89939079666E+03  0.11006092033E+04  0.63437907701E+03 0.  0.
         13    1    3    3    0    0 -0.20525851149E+03 -0.23551004508E+03  0.35446057506E+03  0.47248104421E+03  0.00000000000E+00 0. -1.
          4    1    3    3  501    0  0.20525851149E+03  0.23551004508E+03  0.54493022161E+03  0.62812815913E+03  0.00000000000E+00 0. -1.
<mgrwt>
<rscale>  0 0.63437908E+03</rscale>
<asrwt>0</asrwt>
<pdfrwt beam="1">0</pdfrwt>
<pdfrwt beam="2">  1        2 0.36585242E+00 0.63437908E+03</pdfrwt>
<totfact> 0.53338164E+00</totfact>
</mgrwt>
</event>
<event>
 5    1  0.2366700E-004  0.6390608E+03  0.7818608E-02  0.9827525E-01
         13   -1    0    0    0    0  0.00000000000E+00  0.00000000000E+00  0.10000000000E+04  0.10000000000E+04  0.00000000000E+00 0. -1.
          2   -1    0    0  501    0 -0.00000000000E+00 -0.00000000000E+00 -0.10209968722E+03  0.10209968722E+03  0.00000000000E+00 0. -1.
    9000006    2    1    2  501    0  0.00000000000E+00  0.00000000000E+00  0.89790031278E+03  0.11020996872E+04  0.63906083348E+03 0.  0.
         13    1    3    3    0    0  0.18390419081E+03 -0.26123830598E+03  0.45892929115E+03  0.55918002306E+03  0.00000000000E+00 0. -1.
          2    1    3    3  501    0 -0.18390419081E+03  0.26123830598E+03  0.43897102163E+03  0.54291966416E+03  0.00000000000E+00 0. -1.
<mgrwt>
<rscale>  0 0.63906083E+03</rscale>
<asrwt>0</asrwt>
<pdfrwt beam="1">0</pdfrwt>
<pdfrwt beam="2">  1        2 0.37127237E+00 0.63906083E+03</pdfrwt>
<totfact> 0.50939189E+00</totfact>
</mgrwt>
</event>
<event>
 5    1  0.2366700E-004  0.6118913E+03  0.7818608E-02  0.9881038E-01
         13   -1    0    0    0    0  0.00000000000E+00  0.00000000000E+00  0.10000000000E+04  0.10000000000E+04  0.00000000000E+00 0. -1.
          2   -1    0    0  501    0 -0.00000000000E+00 -0.00000000000E+00 -0.93602741863E+02  0.93602741863E+02  0.00000000000E+00 0. -1.
    9000006    2    1    2  501    0  0.00000000000E+00  0.00000000000E+00  0.90639725814E+03  0.10936027419E+04  0.61189130362E+03 0.  0.
         13    1    3    3    0    0  0.10685119599E+03  0.28258911921E+03  0.53944994239E+03  0.61828798203E+03  0.00000000000E+00 0. -1.
          2    1    3    3  501    0 -0.10685119599E+03 -0.28258911921E+03  0.36694731574E+03  0.47531475983E+03  0.00000000000E+00 0. -1.
<mgrwt>
<rscale>  0 0.61189130E+03</rscale>
<asrwt>0</asrwt>
<pdfrwt beam="1">0</pdfrwt>
<pdfrwt beam="2">  1        2 0.34037432E+00 0.61189130E+03</pdfrwt>
<totfact> 0.66080610E+00</totfact>
</mgrwt>
</event>
<event>
 5    1  0.2366700E-004  0.6407265E+03  0.7818608E-02  0.9824337E-01
         13   -1    0    0    0    0  0.00000000000E+00  0.00000000000E+00  0.10000000000E+04  0.10000000000E+04  0.00000000000E+00 0. -1.
          2   -1    0    0  501    0 -0.00000000000E+00 -0.00000000000E+00 -0.10263262494E+03  0.10263262494E+03  0.00000000000E+00 0. -1.
    9000006    2    1    2  501    0  0.00000000000E+00  0.00000000000E+00  0.89736737506E+03  0.11026326249E+04  0.64072654054E+03 0.  0.
         13    1    3    3    0    0  0.47416614912E+02 -0.14565083094E+03 -0.35531926650E+02  0.15724190833E+03  0.00000000000E+00 0. -1.
          4    1    3    3  501    0 -0.47416614912E+02  0.14565083094E+03  0.93289930171E+03  0.94539071661E+03  0.00000000000E+00 0. -1.
<mgrwt>
<rscale>  0 0.64072654E+03</rscale>
<asrwt>0</asrwt>
<pdfrwt beam="1">0</pdfrwt>
<pdfrwt beam="2">  1        2 0.37321033E+00 0.64072654E+03</pdfrwt>
<totfact> 0.50105701E+00</totfact>
</mgrwt>
</event>
<event>
 5    1  0.2366700E-004  0.6242837E+03  0.7818608E-02  0.9856268E-01
         13   -1    0    0    0    0  0.00000000000E+00  0.00000000000E+00  0.10000000000E+04  0.10000000000E+04  0.00000000000E+00 0. -1.
          2   -1    0    0  501    0 -0.00000000000E+00 -0.00000000000E+00 -0.97432545764E+02  0.97432545764E+02  0.00000000000E+00 0. -1.
    9000006    2    1    2  501    0  0.00000000000E+00  0.00000000000E+00  0.90256745424E+03  0.10974325458E+04  0.62428373602E+03 0.  0.
         13    1    3    3    0    0 -0.23387589038E+03 -0.74834397285E+02  0.11252992663E+03  0.27011313094E+03  0.00000000000E+00 0. -1.
          4    1    3    3  501    0  0.23387589038E+03  0.74834397285E+02  0.79003752760E+03  0.82731941482E+03  0.00000000000E+00 0. -1.
<mgrwt>
<rscale>  0 0.62428374E+03</rscale>
<asrwt>0</asrwt>
<pdfrwt beam="1">0</pdfrwt>
<pdfrwt beam="2">  1        2 0.35430091E+00 0.62428374E+03</pdfrwt>
<totfact> 0.58802280E+00</totfact>
</mgrwt>
</event>
<event>
 5    1  0.2366700E-004  0.6749208E+03  0.7818608E-02  0.9761109E-01
         13   -1    0    0    0    0  0.00000000000E+00  0.00000000000E+00  0.10000000000E+04  0.10000000000E+04  0.00000000000E+00 0. -1.
          2   -1    0    0  501    0 -0.00000000000E+00 -0.00000000000E+00 -0.11387952868E+03  0.11387952868E+03  0.00000000000E+00 0. -1.
    9000006    2    1    2  501    0  0.00000000000E+00  0.00000000000E+00  0.88612047132E+03  0.11138795287E+04  0.67492082106E+03 0.  0.
         13    1    3    3    0    0  0.28959136589E+03  0.16626523807E+03  0.52344332929E+03  0.62088663021E+03  0.00000000000E+00 0. -1.
          4    1    3    3  501    0 -0.28959136589E+03 -0.16626523807E+03  0.36267714203E+03  0.49299289847E+03  0.00000000000E+00 0. -1.
<mgrwt>
<rscale>  0 0.67492082E+03</rscale>
<asrwt>0</asrwt>
<pdfrwt beam="1">0</pdfrwt>
<pdfrwt beam="2">  1        2 0.41410825E+00 0.67492082E+03</pdfrwt>
<totfact> 0.35160878E+00</totfact>
</mgrwt>
</event>
<event>
 5    1  0.2366700E-004  0.6543511E+03  0.7818608E-02  0.9798649E-01
         13   -1    0    0    0    0  0.00000000000E+00  0.00000000000E+00  0.10000000000E+04  0.10000000000E+04  0.00000000000E+00 0. -1.
          2   -1    0    0  501    0 -0.00000000000E+00 -0.00000000000E+00 -0.10704383719E+03  0.10704383719E+03  0.00000000000E+00 0. -1.
    9000006    2    1    2  501    0  0.00000000000E+00  0.00000000000E+00  0.89295616281E+03  0.11070438372E+04  0.65435108984E+03 0.  0.
         13    1    3    3    0    0  0.31857555595E+03 -0.55868307385E+02  0.36304231620E+03  0.48622152973E+03  0.00000000000E+00 0. -1.
          2    1    3    3  501    0 -0.31857555595E+03  0.55868307385E+02  0.52991384661E+03  0.62082230747E+03  0.00000000000E+00 0. -1.
<mgrwt>
<rscale>  0 0.65435109E+03</rscale>
<asrwt>0</asrwt>
<pdfrwt beam="1">0</pdfrwt>
<pdfrwt beam="2">  1        2 0.38925114E+00 0.65435109E+03</pdfrwt>
<totfact> 0.43669833E+00</totfact>
</mgrwt>
</event>
<event>
 5    1  0.2366700E-004  0.6495639E+03  0.7818608E-02  0.9807598E-01
         13   -1    0    0    0    0  0.00000000000E+00  0.00000000000E+00  0.10000000000E+04  0.10000000000E+04  0.00000000000E+00 0. -1.
          2   -1    0    0  501    0 -0.00000000000E+00 -0.00000000000E+00 -0.10548332015E+03  0.10548332015E+03  0.00000000000E+00 0. -1.
    9000006    2    1    2  501    0  0.00000000000E+00  0.00000000000E+00  0.89451667985E+03  0.11054833201E+04  0.64956391571E+03 0.  0.
         13    1    3    3    0    0 -0.34025706898E+01  0.21569898442E+03  0.34062125675E+02  0.21839839233E+03  0.00000000000E+00 0. -1.
          2    1    3    3  501    0  0.34025706898E+01 -0.21569898442E+03  0.86045455418E+03  0.88708492782E+03  0.00000000000E+00 0. -1.
<mgrwt>
<rscale>  0 0.64956392E+03</rscale>
<asrwt>0</asrwt>
<pdfrwt beam="1">0</pdfrwt>
<pdfrwt beam="2">  1        2 0.38357652E+00 0.64956392E+03</pdfrwt>
<totfact> 0.45855196E+00</totfact>
</mgrwt>
</event>
<event>
 5    1  0.2366700E-004  0.6507120E+03  0.7818608E-02  0.9805444E-01
         13   -1    0    0    0    0  0.00000000000E+00  0.00000000000E+00  0.10000000000E+04  0.10000000000E+04  0.00000000000E+00 0. -1.
          2   -1    0    0  501    0 -0.00000000000E+00 -0.00000000000E+00 -0.10585651254E+03  0.10585651254E+03  0.00000000000E+00 0. -1.
    9000006    2    1    2  501    0  0.00000000000E+00  0.00000000000E+00  0.89414348746E+03  0.11058565125E+04  0.65071195635E+03 0.  0.
         13    1    3    3    0    0 -0.27679506894E+03  0.50563793599E+02  0.72468355665E+03  0.77739209199E+03  0.00000000000E+00 0. -1.
          2    1    3    3  501    0  0.27679506894E+03 -0.50563793599E+02  0.16945993081E+03  0.32846442054E+03  0.00000000000E+00 0. -1.
<mgrwt>
<rscale>  0 0.65071196E+03</rscale>
<asrwt>0</asrwt>
<pdfrwt beam="1">0</pdfrwt>
<pdfrwt beam="2">  1        2 0.38493358E+00 0.65071196E+03</pdfrwt>
<totfact> 0.45323746E+00</totfact>
</mgrwt>
</event>
<event>
 5    1  0.2366700E-004  0.6464957E+03  0.7818608E-02  0.9813377E-01
         13   -1    0    0    0    0  0.00000000000E+00  0.00000000000E+00  0.10000000000E+04  0.10000000000E+04  0.00000000000E+00 0. -1.
          2   -1    0    0  501    0 -0.00000000000E+00 -0.00000000000E+00 -0.10448915907E+03  0.10448915907E+03  0.00000000000E+00 0. -1.
    9000006    2    1    2  501    0  0.00000000000E+00  0.00000000000E+00  0.89551084093E+03  0.11044891591E+04  0.64649565835E+03 0.  0.
         13    1    3    3    0    0 -0.34343507879E+02  0.30744482580E+03  0.60790473875E+03  0.68209234627E+03  0.00000000000E+00 0. -1.
          4    1    3    3  501    0  0.34343507879E+02 -0.30744482580E+03  0.28760610218E+03  0.42239681280E+03  0.00000000000E+00 0. -1.
<mgrwt>
<rscale>  0 0.64649566E+03</rscale>
<asrwt>0</asrwt>
<pdfrwt beam="1">0</pdfrwt>
<pdfrwt beam="2">  1        2 0.37996138E+00 0.64649566E+03</pdfrwt>
<totfact> 0.47298679E+00</totfact>
</mgrwt>
</event>
<event>
 5    1  0.2366700E-004  0.6588446E+03  0.7818608E-02  0.9790323E-01
         13   -1    0    0    0    0  0.00000000000E+00  0.00000000000E+00  0.10000000000E+04  0.10000000000E+04  0.00000000000E+00 0. -1.
          2   -1    0    0  501    0 -0.00000000000E+00 -0.00000000000E+00 -0.10851904384E+03  0.10851904384E+03  0.00000000000E+00 0. -1.
    9000006    2    1    2  501    0  0.00000000000E+00  0.00000000000E+00  0.89148095616E+03  0.11085190438E+04  0.65884457603E+03 0.  0.
         13    1    3    3    0    0  0.94361322833E+02  0.30118712569E+03  0.60448066981E+03  0.68191980767E+03  0.00000000000E+00 0. -1.
          2    1    3    3  501    0 -0.94361322833E+02 -0.30118712569E+03  0.28700028636E+03  0.42659923617E+03  0.00000000000E+00 0. -1.
<mgrwt>
<rscale>  0 0.65884458E+03</rscale>
<asrwt>0</asrwt>
<pdfrwt beam="1">0</pdfrwt>
<pdfrwt beam="2">  1        2 0.39461554E+00 0.65884458E+03</pdfrwt>
<totfact> 0.41691022E+00</totfact>
</mgrwt>
</event>
<event>
 5    1  0.2366700E-004  0.6678952E+03  0.7818608E-02  0.9773768E-01
         13   -1    0    0    0    0  0.00000000000E+00  0.00000000000E+00  0.10000000000E+04  0.10000000000E+04  0.00000000000E+00 0. -1.
          2   -1    0    0  501    0 -0.00000000000E+00 -0.00000000000E+00 -0.11152098334E+03  0.11152098334E+03  0.00000000000E+00 0. -1.
    9000006    2    1    2  501    0  0.00000000000E+00  0.00000000000E+00  0.88847901666E+03  0.11115209833E+04  0.66789515146E+03 0.  0.
         13    1    3    3    0    0 -0.25635744099E+03 -0.21394481000E+03  0.43520601629E+03  0.54853969400E+03  0.00000000000E+00 0. -1.
          4    1    3    3  501    0  0.25635744099E+03  0.21394481000E+03  0.45327300037E+03  0.56298128934E+03  0.00000000000E+00 0. -1.
<mgrwt>
<rscale>  0 0.66789515E+03</rscale>
<asrwt>0</asrwt>
<pdfrwt beam="1">0</pdfrwt>
<pdfrwt beam="2">  1        2 0.40553170E+00 0.66789515E+03</pdfrwt>
<totfact> 0.37911735E+00</totfact>
</mgrwt>
</event>
<event>
 5    1  0.2366700E-004  0.6576725E+03  0.7818608E-02  0.9792488E-01
         13   -1    0    0    0    0  0.00000000000E+00  0.00000000000E+00  0.10000000000E+04  0.10000000000E+04  0.00000000000E+00 0. -1.
          2   -1    0    0  501    0 -0.00000000000E+00 -0.00000000000E+00 -0.10813327659E+03  0.10813327659E+03  0.00000000000E+00 0. -1.
    9000006    2    1    2  501    0  0.00000000000E+00  0.00000000000E+00  0.89186672341E+03  0.11081332766E+04  0.65767249172E+03 0.  0.
         13    1    3    3    0    0 -0.22776720428E+03  0.16654089010E+03  0.16138679948E+03  0.32505302101E+03  0.00000000000E+00 0. -1.
          2    1    3    3  501    0  0.22776720428E+03 -0.16654089010E+03  0.73047992393E+03  0.78308025558E+03  0.00000000000E+00 0. -1.
<mgrwt>
<rscale>  0 0.65767249E+03</rscale>
<asrwt>0</asrwt>
<pdfrwt beam="1">0</pdfrwt>
<pdfrwt beam="2">  1        2 0.39321274E+00 0.65767249E+03</pdfrwt>
<totfact> 0.42200493E+00</totfact>
</mgrwt>
</event>
<event>
 5    1  0.2366700E-004  0.6401621E+03  0.7818608E-02  0.9825416E-01
         13   -1    0    0    0    0  0.00000000000E+00  0.00000000000E+00  0.10000000000E+04  0.10000000000E+04  0.00000000000E+00 0. -1.
          2   -1    0    0  501    0 -0.00000000000E+00 -0.00000000000E+00 -0.10245187705E+03  0.10245187705E+03  0.00000000000E+00 0. -1.
    9000006    2    1    2  501    0  0.00000000000E+00  0.00000000000E+00  0.89754812295E+03  0.11024518771E+04  0.64016209527E+03 0.  0.
         13    1    3    3    0    0 -0.14938399422E+03  0.26162956292E+03  0.63494318957E+03  0.70279332660E+03  0.00000000000E+00 0. -1.
          4    1    3    3  501    0  0.14938399422E+03 -0.26162956292E+03  0.26260493337E+03  0.39965855046E+03  0.00000000000E+00 0. -1.
<mgrwt>
<rscale>  0 0.64016210E+03</rscale>
<asrwt>0</asrwt>
<pdfrwt beam="1">0</pdfrwt>
<pdfrwt beam="2">  1        2 0.37255307E+00 0.64016210E+03</pdfrwt>
<totfact> 0.50386973E+00</totfact>
</mgrwt>
</event>
<event>
 5    1  0.2366700E-004  0.6489840E+03  0.7818608E-02  0.9808688E-01
         13   -1    0    0    0    0  0.00000000000E+00  0.00000000000E+00  0.10000000000E+04  0.10000000000E+04  0.00000000000E+00 0. -1.
          2   -1    0    0  501    0 -0.00000000000E+00 -0.00000000000E+00 -0.10529505074E+03  0.10529505074E+03  0.00000000000E+00 0. -1.
    9000006    2    1    2  501    0  0.00000000000E+00  0.00000000000E+00  0.89470494926E+03  0.11052950507E+04  0.64898397744E+03 0.  0.
         13    1    3    3    0    0  0.16859303037E+02  0.27879244392E+03  0.72867914622E+03  0.78037347535E+03  0.00000000000E+00 0. -1.
          4    1    3    3  501    0 -0.16859303037E+02 -0.27879244392E+03  0.16602580303E+03  0.32492157540E+03  0.00000000000E+00 0. -1.
<mgrwt>
<rscale>  0 0.64898398E+03</rscale>
<asrwt>0</asrwt>
<pdfrwt beam="1">0</pdfrwt>
<pdfrwt beam="2">  1        2 0.38289190E+00 0.64898398E+03</pdfrwt>
<totfact> 0.46125444E+00</totfact>
</mgrwt>
</event>
<event>
 5    1  0.2366700E-004  0.6925308E+03  0.7818608E-02  0.9730091E-01
         13   -1    0    0    0    0  0.00000000000E+00  0.00000000000E+00  0.10000000000E+04  0.10000000000E+04  0.00000000000E+00 0. -1.
          2   -1    0    0  501    0 -0.00000000000E+00 -0.00000000000E+00 -0.11989973000E+03  0.11989973000E+03  0.00000000000E+00 0. -1.
    9000006    2    1    2  501    0  0.00000000000E+00  0.00000000000E+00  0.88010027000E+03  0.11198997300E+04  0.69253080797E+03 0.  0.
         13    1    3    3    0    0 -0.13696572531E+02 -0.24452235398E+03  0.44201278125E+02  0.24886247343E+03  0.00000000000E+00 0. -1.
          2    1    3    3  501    0  0.13696572531E+02  0.24452235398E+03  0.83589899188E+03  0.87103725656E+03  0.00000000000E+00 0. -1.
<mgrwt>
<rscale>  0 0.69253081E+03</rscale>
<asrwt>0</asrwt>
<pdfrwt beam="1">0</pdfrwt>
<pdfrwt beam="2">  1        2 0.43599994E+00 0.69253081E+03</pdfrwt>
<totfact> 0.28926181E+00</totfact>
</mgrwt>
</event>
<event>
 5    1  0.2366700E-004  0.6476355E+03  0.7818608E-02  0.9811226E-01
         13   -1    0    0    0    0  0.00000000000E+00  0.00000000000E+00  0.10000000000E+04  0.10000000000E+04  0.00000000000E+00 0. -1.
          2   -1    0    0  501    0 -0.00000000000E+00 -0.00000000000E+00 -0.10485794520E+03  0.10485794520E+03  0.00000000000E+00 0. -1.
    9000006    2    1    2  501    0  0.00000000000E+00  0.00000000000E+00  0.89514205480E+03  0.11048579452E+04  0.64763553084E+03 0.  0.
         13    1    3    3    0    0 -0.18235909047E+03  0.11122207163E+02  0.90367750148E+03  0.92196071937E+03  0.00000000000E+00 0. -1.
          4    1    3    3  501    0  0.18235909047E+03 -0.11122207163E+02 -0.85354466847E+01  0.18289722584E+03  0.00000000000E+00 0. -1.
<mgrwt>
<rscale>  0 0.64763553E+03</rscale>
<asrwt>0</asrwt>
<pdfrwt beam="1">0</pdfrwt>
<pdfrwt beam="2">  1        2 0.38130242E+00 0.64763553E+03</pdfrwt>
<totfact> 0.46758466E+00</totfact>
</mgrwt>
</event>
<event>
 5    1  0.2366700E-004  0.6678822E+03  0.7818608E-02  0.9773791E-01
         13   -1    0    0    0    0  0.00000000000E+00  0.00000000000E+00  0.10000000000E+04  0.10000000000E+04  0.00000000000E+00 0. -1.
          2   -1    0    0  501    0 -0.00000000000E+00 -0.00000000000E+00 -0.11151664453E+03  0.11151664453E+03  0.00000000000E+00 0. -1.
    9000006    2    1    2  501    0  0.00000000000E+00  0.00000000000E+00  0.88848335547E+03  0.11115166445E+04  0.66788215886E+03 0.  0.
         13    1    3    3    0    0 -0.33203514669E+03  0.33127874182E+02  0.46605846003E+03  0.57319742048E+03  0.00000000000E+00 0. -1.
          4    1    3    3  501    0  0.33203514669E+03 -0.33127874182E+02  0.42242489544E+03  0.53831922405E+03  0.00000000000E+00 0. -1.
<mgrwt>
<rscale>  0 0.66788216E+03</rscale>
<asrwt>0</asrwt>
<pdfrwt beam="1">0</pdfrwt>
<pdfrwt beam="2">  1        2 0.40551593E+00 0.66788216E+03</pdfrwt>
<totfact> 0.37916968E+00</totfact>
</mgrwt>
</event>
<event>
 5    1  0.2366700E-004  0.6506453E+03  0.7818608E-02  0.9805569E-01
         13   -1    0    0    0    0  0.00000000000E+00  0.00000000000E+00  0.10000000000E+04  0.10000000000E+04  0.00000000000E+00 0. -1.
          2   -1    0    0  501    0 -0.00000000000E+00 -0.00000000000E+00 -0.10583482103E+03  0.10583482103E+03  0.00000000000E+00 0. -1.
    9000006    2    1    2  501    0  0.00000000000E+00  0.00000000000E+00  0.89416517897E+03  0.11058348210E+04  0.65064528288E+03 0.  0.
         13    1    3    3    0    0 -0.31730399125E+03  0.70765926750E+02  0.42660390571E+03  0.53635858492E+03  0.00000000000E+00 0. -1.
          2    1    3    3  501    0  0.31730399125E+03 -0.70765926750E+02  0.46756127325E+03  0.56947623611E+03  0.00000000000E+00 0. -1.
<mgrwt>
<rscale>  0 0.65064528E+03</rscale>
<asrwt>0</asrwt>
<pdfrwt beam="1">0</pdfrwt>
<pdfrwt beam="2">  1        2 0.38485471E+00 0.65064528E+03</pdfrwt>
<totfact> 0.45354483E+00</totfact>
</mgrwt>
</event>
<event>
 5    1  0.2366700E-004  0.6483235E+03  0.7818608E-02  0.9809930E-01
         13   -1    0    0    0    0  0.00000000000E+00  0.00000000000E+00  0.10000000000E+04  0.10000000000E+04  0.00000000000E+00 0. -1.
          2   -1    0    0  501    0 -0.00000000000E+00 -0.00000000000E+00 -0.10508083323E+03  0.10508083323E+03  0.00000000000E+00 0. -1.
    9000006    2    1    2  501    0  0.00000000000E+00  0.00000000000E+00  0.89491916677E+03  0.11050808332E+04  0.64832347861E+03 0.  0.
         13    1    3    3    0    0  0.25719757891E+03 -0.17392247618E+02  0.78246512693E+03  0.82383539602E+03  0.00000000000E+00 0. -1.
          4    1    3    3  501    0 -0.25719757891E+03  0.17392247618E+02  0.11245403985E+03  0.28124543721E+03  0.00000000000E+00 0. -1.
<mgrwt>
<rscale>  0 0.64832348E+03</rscale>
<asrwt>0</asrwt>
<pdfrwt beam="1">0</pdfrwt>
<pdfrwt beam="2">  1        2 0.38211293E+00 0.64832348E+03</pdfrwt>
<totfact> 0.46434697E+00</totfact>
</mgrwt>
</event>
<event>
 5    1  0.2366700E-004  0.6504015E+03  0.7818608E-02  0.9806026E-01
         13   -1    0    0    0    0  0.00000000000E+00  0.00000000000E+00  0.10000000000E+04  0.10000000000E+04  0.00000000000E+00 0. -1.
          2   -1    0    0  501    0 -0.00000000000E+00 -0.00000000000E+00 -0.10575552679E+03  0.10575552679E+03  0.00000000000E+00 0. -1.
    9000006    2    1    2  501    0  0.00000000000E+00  0.00000000000E+00  0.89424447321E+03  0.11057555268E+04  0.65040149690E+03 0.  0.
         13    1    3    3    0    0 -0.88847654716E+02  0.31106344781E+03  0.39070636298E+03  0.50725322708E+03  0.00000000000E+00 0. -1.
          2    1    3    3  501    0  0.88847654716E+02 -0.31106344781E+03  0.50353811022E+03  0.59850229971E+03  0.00000000000E+00 0. -1.
<mgrwt>
<rscale>  0 0.65040150E+03</rscale>
<asrwt>0</asrwt>
<pdfrwt beam="1">0</pdfrwt>
<pdfrwt beam="2">  1        2 0.38456636E+00 0.65040150E+03</pdfrwt>
<totfact> 0.45467002E+00</totfact>
</mgrwt>
</event>
<event>
 5    1  0.2366700E-004  0.6468105E+03  0.7818608E-02  0.9812782E-01
         13   -1    0    0    0    0  0.00000000000E+00  0.00000000000E+00  0.10000000000E+04  0.10000000000E+04  0.00000000000E+00 0. -1.
          2   -1    0    0  501    0 -0.00000000000E+00 -0.00000000000E+00 -0.10459096358E+03  0.10459096358E+03  0.00000000000E+00 0. -1.
    9000006    2    1    2  501    0  0.00000000000E+00  0.00000000000E+00  0.89540903642E+03  0.11045909636E+04  0.64681052427E+03 0.  0.
         13    1    3    3    0    0  0.24520484687E+03 -0.19578267287E+03  0.31394620675E+03  0.44386765219E+03  0.00000000000E+00 0. -1.
          2    1    3    3  501    0 -0.24520484687E+03  0.19578267287E+03  0.58146282967E+03  0.66072331139E+03  0.00000000000E+00 0. -1.
<mgrwt>
<rscale>  0 0.64681052E+03</rscale>
<asrwt>0</asrwt>
<pdfrwt beam="1">0</pdfrwt>
<pdfrwt beam="2">  1        2 0.38033158E+00 0.64681052E+03</pdfrwt>
<totfact> 0.47148987E+00</totfact>
</mgrwt>
</event>
<event>
 5    1  0.2366700E-004  0.6490421E+03  0.7818608E-02  0.9808578E-01
         13   -1    0    0    0    0  0.00000000000E+00  0.00000000000E+00  0.10000000000E+04  0.10000000000E+04  0.00000000000E+00 0. -1.
          2   -1    0    0  501    0 -0.00000000000E+00 -0.00000000000E+00 -0.10531390444E+03  0.10531390444E+03  0.00000000000E+00 0. -1.
    9000006    2    1    2  501    0  0.00000000000E+00  0.00000000000E+00  0.89468609556E+03  0.11053139044E+04  0.64904207703E+03 0.  0.
         13    1    3    3    0    0 -0.87664385910E+02  0.30113187582E+03  0.58930006010E+03  0.66756274014E+03  0.00000000000E+00 0. -1.
          2    1    3    3  501    0  0.87664385910E+02 -0.30113187582E+03  0.30538603546E+03  0.43775116430E+03  0.00000000000E+00 0. -1.
<mgrwt>
<rscale>  0 0.64904208E+03</rscale>
<asrwt>0</asrwt>
<pdfrwt beam="1">0</pdfrwt>
<pdfrwt beam="2">  1        2 0.38296046E+00 0.64904208E+03</pdfrwt>
<totfact> 0.46098315E+00</totfact>
</mgrwt>
</event>
<event>
 5    1  0.2366700E-004  0.6648980E+03  0.7818608E-02  0.9779219E-01
         13   -1    0    0    0    0  0.00000000000E+00  0.00000000000E+00  0.10000000000E+04  0.10000000000E+04  0.00000000000E+00 0. -1.
          2   -1    0    0  501    0 -0.00000000000E+00 -0.00000000000E+00 -0.11052232977E+03  0.11052232977E+03  0.00000000000E+00 0. -1.
    9000006    2    1    2  501    0  0.00000000000E+00  0.00000000000E+00  0.88947767023E+03  0.11105223298E+04  0.66489797645E+03 0.  0.
         13    1    3    3    0    0 -0.14848077677E+03  0.12292620995E+03 -0.76548714701E+01  0.19291446607E+03  0.00000000000E+00 0. -1.
          2    1    3    3  501    0  0.14848077677E+03 -0.12292620995E+03  0.89713254170E+03  0.91760786371E+03  0.00000000000E+00 0. -1.
<mgrwt>
<rscale>  0 0.66489798E+03</rscale>
<asrwt>0</asrwt>
<pdfrwt beam="1">0</pdfrwt>
<pdfrwt beam="2">  1        2 0.40190023E+00 0.66489798E+03</pdfrwt>
<totfact> 0.39133368E+00</totfact>
</mgrwt>
</event>
<event>
 5    1  0.2366700E-004  0.6454869E+03  0.7818608E-02  0.9815285E-01
         13   -1    0    0    0    0  0.00000000000E+00  0.00000000000E+00  0.10000000000E+04  0.10000000000E+04  0.00000000000E+00 0. -1.
          2   -1    0    0  501    0 -0.00000000000E+00 -0.00000000000E+00 -0.10416334566E+03  0.10416334566E+03  0.00000000000E+00 0. -1.
    9000006    2    1    2  501    0  0.00000000000E+00  0.00000000000E+00  0.89583665434E+03  0.11041633457E+04  0.64548693452E+03 0.  0.
         13    1    3    3    0    0  0.11075456524E+03  0.29991416360E+03  0.52342234132E+03  0.61334005791E+03  0.00000000000E+00 0. -1.
          2    1    3    3  501    0 -0.11075456524E+03 -0.29991416360E+03  0.37241431302E+03  0.49082328775E+03  0.00000000000E+00 0. -1.
<mgrwt>
<rscale>  0 0.64548693E+03</rscale>
<asrwt>0</asrwt>
<pdfrwt beam="1">0</pdfrwt>
<pdfrwt beam="2">  1        2 0.37877660E+00 0.64548693E+03</pdfrwt>
<totfact> 0.47780662E+00</totfact>
</mgrwt>
</event>
<event>
 5    1  0.2366700E-004  0.6957156E+03  0.7818608E-02  0.9724587E-01
         13   -1    0    0    0    0  0.00000000000E+00  0.00000000000E+00  0.10000000000E+04  0.10000000000E+04  0.00000000000E+00 0. -1.
          2   -1    0    0  501    0 -0.00000000000E+00 -0.00000000000E+00 -0.12100503400E+03  0.12100503400E+03  0.00000000000E+00 0. -1.
    9000006    2    1    2  501    0  0.00000000000E+00  0.00000000000E+00  0.87899496600E+03  0.11210050340E+04  0.69571555683E+03 0.  0.
         13    1    3    3    0    0 -0.28920536001E+03  0.17311650709E+03  0.57806881160E+03  0.66915813993E+03  0.00000000000E+00 0. -1.
          4    1    3    3  501    0  0.28920536001E+03 -0.17311650709E+03  0.30092615440E+03  0.45184689408E+03  0.00000000000E+00 0. -1.
<mgrwt>
<rscale>  0 0.69571556E+03</rscale>
<asrwt>0</asrwt>
<pdfrwt beam="1">0</pdfrwt>
<pdfrwt beam="2">  1        2 0.44001923E+00 0.69571556E+03</pdfrwt>
<totfact> 0.27894252E+00</totfact>
</mgrwt>
</event>
<event>
 5    1  0.2366700E-004  0.6502210E+03  0.7818608E-02  0.9806365E-01
         13   -1    0    0    0    0  0.00000000000E+00  0.00000000000E+00  0.10000000000E+04  0.10000000000E+04  0.00000000000E+00 0. -1.
          2   -1    0    0  501    0 -0.00000000000E+00 -0.00000000000E+00 -0.10569682695E+03  0.10569682695E+03  0.00000000000E+00 0. -1.
    9000006    2    1    2  501    0  0.00000000000E+00  0.00000000000E+00  0.89430317305E+03  0.11056968269E+04  0.65022096843E+03 0.  0.
         13    1    3    3    0    0  0.32379847020E+02  0.30390257460E+03  0.63568106224E+03  0.70533370984E+03  0.00000000000E+00 0. -1.
          4    1    3    3  501    0 -0.32379847020E+02 -0.30390257460E+03  0.25862211081E+03  0.40036311711E+03  0.00000000000E+00 0. -1.
<mgrwt>
<rscale>  0 0.65022097E+03</rscale>
<asrwt>0</asrwt>
<pdfrwt beam="1">0</pdfrwt>
<pdfrwt beam="2">  1        2 0.38435291E+00 0.65022097E+03</pdfrwt>
<totfact> 0.45550461E+00</totfact>
</mgrwt>
</event>
<event>
 5    1  0.2366700E-004  0.6413205E+03  0.7818608E-02  0.9823203E-01
         13   -1    0    0    0    0  0.00000000000E+00  0.00000000000E+00  0.10000000000E+04  0.10000000000E+04  0.00000000000E+00 0. -1.
          2   -1    0    0  501    0 -0.00000000000E+00 -0.00000000000E+00 -0.10282299284E+03  0.10282299284E+03  0.00000000000E+00 0. -1.
    9000006    2    1    2  501    0  0.00000000000E+00  0.00000000000E+00  0.89717700716E+03  0.11028229928E+04  0.64132049036E+03 0.  0.
         13    1    3    3    0    0 -0.23780855018E+03  0.21275708634E+03  0.50308988460E+03  0.59574987730E+03  0.00000000000E+00 0. -1.
          2    1    3    3  501    0  0.23780855018E+03 -0.21275708634E+03  0.39408712257E+03  0.50707311553E+03  0.00000000000E+00 0. -1.
<mgrwt>
<rscale>  0 0.64132049E+03</rscale>
<asrwt>0</asrwt>
<pdfrwt beam="1">0</pdfrwt>
<pdfrwt beam="2">  1        2 0.37390258E+00 0.64132049E+03</pdfrwt>
<totfact> 0.49811013E+00</totfact>
</mgrwt>
</event>
<event>
 5    1  0.2366700E-004  0.6019792E+03  0.7818608E-02  0.9901308E-01
         13   -1    0    0    0    0  0.00000000000E+00  0.00000000000E+00  0.10000000000E+04  0.10000000000E+04  0.00000000000E+00 0. -1.
          2   -1    0    0  501    0 -0.00000000000E+00 -0.00000000000E+00 -0.90594751014E+02  0.90594751014E+02  0.00000000000E+00 0. -1.
    9000006    2    1    2  501    0  0.00000000000E+00  0.00000000000E+00  0.90940524899E+03  0.10905947510E+04  0.60197923889E+03 0.  0.
         13    1    3    3    0    0  0.75442169227E+02  0.78314825585E+02  0.96316914503E+03  0.96928815877E+03  0.00000000000E+00 0. -1.
          2    1    3    3  501    0 -0.75442169227E+02 -0.78314825585E+02 -0.53763896039E+02  0.12130659224E+03  0.00000000000E+00 0. -1.
<mgrwt>
<rscale>  0 0.60197924E+03</rscale>
<asrwt>0</asrwt>
<pdfrwt beam="1">0</pdfrwt>
<pdfrwt beam="2">  1        2 0.32943615E+00 0.60197924E+03</pdfrwt>
<totfact> 0.72381651E+00</totfact>
</mgrwt>
</event>
<event>
 5    1  0.2366700E-004  0.6477041E+03  0.7818608E-02  0.9811097E-01
         13   -1    0    0    0    0  0.00000000000E+00  0.00000000000E+00  0.10000000000E+04  0.10000000000E+04  0.00000000000E+00 0. -1.
          2   -1    0    0  501    0 -0.00000000000E+00 -0.00000000000E+00 -0.10488014122E+03  0.10488014122E+03  0.00000000000E+00 0. -1.
    9000006    2    1    2  501    0  0.00000000000E+00  0.00000000000E+00  0.89511985878E+03  0.11048801412E+04  0.64770407198E+03 0.  0.
         13    1    3    3    0    0  0.14584275090E+03  0.91895166086E+02 -0.20118426954E+02  0.17354993703E+03  0.00000000000E+00 0. -1.
          2    1    3    3  501    0 -0.14584275090E+03 -0.91895166086E+02  0.91523828574E+03  0.93133020418E+03  0.00000000000E+00 0. -1.
<mgrwt>
<rscale>  0 0.64770407E+03</rscale>
<asrwt>0</asrwt>
<pdfrwt beam="1">0</pdfrwt>
<pdfrwt beam="2">  1        2 0.38138314E+00 0.64770407E+03</pdfrwt>
<totfact> 0.46726132E+00</totfact>
</mgrwt>
</event>
<event>
 5    1  0.2366700E-004  0.6445620E+03  0.7818608E-02  0.9817037E-01
         13   -1    0    0    0    0  0.00000000000E+00  0.00000000000E+00  0.10000000000E+04  0.10000000000E+04  0.00000000000E+00 0. -1.
          2   -1    0    0  501    0 -0.00000000000E+00 -0.00000000000E+00 -0.10386502748E+03  0.10386502748E+03  0.00000000000E+00 0. -1.
    9000006    2    1    2  501    0  0.00000000000E+00  0.00000000000E+00  0.89613497252E+03  0.11038650275E+04  0.64456195196E+03 0.  0.
         13    1    3    3    0    0 -0.21617464783E+03  0.68951987742E+02  0.56117525782E+02  0.23374137776E+03  0.00000000000E+00 0. -1.
          4    1    3    3  501    0  0.21617464783E+03 -0.68951987742E+02  0.84001744674E+03  0.87012364972E+03  0.00000000000E+00 0. -1.
<mgrwt>
<rscale>  0 0.64456195E+03</rscale>
<asrwt>0</asrwt>
<pdfrwt beam="1">0</pdfrwt>
<pdfrwt beam="2">  1        2 0.37769181E+00 0.64456195E+03</pdfrwt>
<totfact> 0.48225891E+00</totfact>
</mgrwt>
</event>
<event>
 5    1  0.2366700E-004  0.6342271E+03  0.7818608E-02  0.9836835E-01
         13   -1    0    0    0    0  0.00000000000E+00  0.00000000000E+00  0.10000000000E+04  0.10000000000E+04  0.00000000000E+00 0. -1.
          2   -1    0    0  501    0 -0.00000000000E+00 -0.00000000000E+00 -0.10056098902E+03  0.10056098902E+03  0.00000000000E+00 0. -1.
    9000006    2    1    2  501    0  0.00000000000E+00  0.00000000000E+00  0.89943901098E+03  0.11005609890E+04  0.63422705405E+03 0.  0.
         13    1    3    3    0    0 -0.20305164648E+03 -0.21703288102E+03  0.64160518442E+03  0.70710003200E+03  0.00000000000E+00 0. -1.
          2    1    3    3  501    0  0.20305164648E+03  0.21703288102E+03  0.25783382656E+03  0.39346095702E+03  0.00000000000E+00 0. -1.
<mgrwt>
<rscale>  0 0.63422705E+03</rscale>
<asrwt>0</asrwt>
<pdfrwt beam="1">0</pdfrwt>
<pdfrwt beam="2">  1        2 0.36567709E+00 0.63422705E+03</pdfrwt>
<totfact> 0.53417470E+00</totfact>
</mgrwt>
</event>
<event>
 5    1  0.2366700E-004  0.6569560E+03  0.7818608E-02  0.9793814E-01
         13   -1    0    0    0    0  0.00000000000E+00  0.00000000000E+00  0.10000000000E+04  0.10000000000E+04  0.00000000000E+00 0. -1.
          2   -1    0    0  501    0 -0.00000000000E+00 -0.00000000000E+00 -0.10789778182E+03  0.10789778182E+03  0.00000000000E+00 0. -1.
    9000006    2    1    2  501    0  0.00000000000E+00  0.00000000000E+00  0.89210221818E+03  0.11078977818E+04  0.65695595536E+03 0.  0.
         13    1    3    3    0    0  0.30077487251E+03  0.12635256167E+03  0.38145280318E+03  0.50193299834E+03  0.00000000000E+00 0. -1.
          4    1    3    3  501    0 -0.30077487251E+03 -0.12635256167E+03  0.51064941500E+03  0.60596478348E+03  0.00000000000E+00 0. -1.
<mgrwt>
<rscale>  0 0.65695596E+03</rscale>
<asrwt>0</asrwt>
<pdfrwt beam="1">0</pdfrwt>
<pdfrwt beam="2">  1        2 0.39235640E+00 0.65695596E+03</pdfrwt>
<totfact> 0.42514271E+00</totfact>
</mgrwt>
</event>
<event>
 5    1  0.2366700E-004  0.6322686E+03  0.7818608E-02  0.9840632E-01
         13   -1    0    0    0    0  0.00000000000E+00  0.00000000000E+00  0.10000000000E+04  0.10000000000E+04  0.00000000000E+00 0. -1.
          2   -1    0    0  501    0 -0.00000000000E+00 -0.00000000000E+00 -0.99940898073E+02  0.99940898073E+02  0.00000000000E+00 0. -1.
    9000006    2    1    2  501    0  0.00000000000E+00  0.00000000000E+00  0.90005910193E+03  0.10999408981E+04  0.63226860771E+03 0.  0.
         13    1    3    3    0    0 -0.28303992520E+03  0.73997432936E+02  0.65845432610E+03  0.72052017244E+03  0.00000000000E+00 0. -1.
          2    1    3    3  501    0  0.28303992520E+03 -0.73997432936E+02  0.24160477583E+03  0.37942072563E+03  0.00000000000E+00 0. -1.
<mgrwt>
<rscale>  0 0.63226861E+03</rscale>
<asrwt>0</asrwt>
<pdfrwt beam="1">0</pdfrwt>
<pdfrwt beam="2">  1        2 0.36342221E+00 0.63226861E+03</pdfrwt>
<totfact> 0.54447158E+00</totfact>
</mgrwt>
</event>
<event>
 5    1  0.2366700E-004  0.6572019E+03  0.7818608E-02  0.9793358E-01
         13   -1    0    0    0    0  0.00000000000E+00  0.00000000000E+00  0.10000000000E+04  0.10000000000E+04  0.00000000000E+00 0. -1.
          2   -1    0    0  501    0 -0.00000000000E+00 -0.00000000000E+00 -0.10797859952E+03  0.10797859952E+03  0.00000000000E+00 0. -1.
    9000006    2    1    2  501    0  0.00000000000E+00  0.00000000000E+00  0.89202140048E+03  0.11079785995E+04  0.65720194620E+03 0.  0.
         13    1    3    3    0    0  0.12396053385E+02 -0.65983148719E+02  0.98831393296E+03  0.99059167578E+03  0.00000000000E+00 0. -1.
          4    1    3    3  501    0 -0.12396053385E+02  0.65983148719E+02 -0.96292532477E+02  0.11738692374E+03  0.00000000000E+00 0. -1.
<mgrwt>
<rscale>  0 0.65720195E+03</rscale>
<asrwt>0</asrwt>
<pdfrwt beam="1">0</pdfrwt>
<pdfrwt beam="2">  1        2 0.39265028E+00 0.65720195E+03</pdfrwt>
<totfact> 0.42406352E+00</totfact>
</mgrwt>
</event>
<event>
 5    1  0.2366700E-004  0.6525857E+03  0.7818608E-02  0.9801939E-01
         13   -1    0    0    0    0  0.00000000000E+00  0.00000000000E+00  0.10000000000E+04  0.10000000000E+04  0.00000000000E+00 0. -1.
          2   -1    0    0  501    0 -0.00000000000E+00 -0.00000000000E+00 -0.10646702598E+03  0.10646702598E+03  0.00000000000E+00 0. -1.
    9000006    2    1    2  501    0  0.00000000000E+00  0.00000000000E+00  0.89353297402E+03  0.11064670260E+04  0.65258570620E+03 0.  0.
         13    1    3    3    0    0  0.15313692133E+03  0.25714203260E+03  0.66714449260E+03  0.73120087227E+03  0.00000000000E+00 0. -1.
          2    1    3    3  501    0 -0.15313692133E+03 -0.25714203260E+03  0.22638848142E+03  0.37526615371E+03  0.00000000000E+00 0. -1.
<mgrwt>
<rscale>  0 0.65258571E+03</rscale>
<asrwt>0</asrwt>
<pdfrwt beam="1">0</pdfrwt>
<pdfrwt beam="2">  1        2 0.38715364E+00 0.65258571E+03</pdfrwt>
<totfact> 0.44466365E+00</totfact>
</mgrwt>
</event>
<event>
 5    1  0.2366700E-004  0.6476390E+03  0.7818608E-02  0.9811219E-01
         13   -1    0    0    0    0  0.00000000000E+00  0.00000000000E+00  0.10000000000E+04  0.10000000000E+04  0.00000000000E+00 0. -1.
          2   -1    0    0  501    0 -0.00000000000E+00 -0.00000000000E+00 -0.10485907872E+03  0.10485907872E+03  0.00000000000E+00 0. -1.
    9000006    2    1    2  501    0  0.00000000000E+00  0.00000000000E+00  0.89514092128E+03  0.11048590787E+04  0.64763903131E+03 0.  0.
         13    1    3    3    0    0 -0.66166876410E+02  0.68961205426E+02  0.97539236961E+03  0.98006325208E+03  0.00000000000E+00 0. -1.
          4    1    3    3  501    0  0.66166876410E+02 -0.68961205426E+02 -0.80251448328E+02  0.12479582664E+03  0.00000000000E+00 0. -1.
<mgrwt>
<rscale>  0 0.64763903E+03</rscale>
<asrwt>0</asrwt>
<pdfrwt beam="1">0</pdfrwt>
<pdfrwt beam="2">  1        2 0.38130654E+00 0.64763903E+03</pdfrwt>
<totfact> 0.46756814E+00</totfact>
</mgrwt>
</event>
<event>
 5    1  0.2366700E-004  0.6536746E+03  0.7818608E-02  0.9799908E-01
         13   -1    0    0    0    0  0.00000000000E+00  0.00000000000E+00  0.10000000000E+04  0.10000000000E+04  0.00000000000E+00 0. -1.
          2   -1    0    0  501    0 -0.00000000000E+00 -0.00000000000E+00 -0.10682261375E+03  0.10682261375E+03  0.00000000000E+00 0. -1.
    9000006    2    1    2  501    0  0.00000000000E+00  0.00000000000E+00  0.89317738625E+03  0.11068226138E+04  0.65367457882E+03 0.  0.
         13    1    3    3    0    0  0.14898647178E+02  0.29466803593E+03  0.20850203524E+03  0.36128149660E+03  0.00000000000E+00 0. -1.
          4    1    3    3  501    0 -0.14898647178E+02 -0.29466803593E+03  0.68467535101E+03  0.74554111715E+03  0.00000000000E+00 0. -1.
<mgrwt>
<rscale>  0 0.65367458E+03</rscale>
<asrwt>0</asrwt>
<pdfrwt beam="1">0</pdfrwt>
<pdfrwt beam="2">  1        2 0.38844669E+00 0.65367458E+03</pdfrwt>
<totfact> 0.43973787E+00</totfact>
</mgrwt>
</event>
<event>
 5    1  0.2366700E-004  0.6453860E+03  0.7818608E-02  0.9815476E-01
         13   -1    0    0    0    0  0.00000000000E+00  0.00000000000E+00  0.10000000000E+04  0.10000000000E+04  0.00000000000E+00 0. -1.
          2   -1    0    0  501    0 -0.00000000000E+00 -0.00000000000E+00 -0.10413078403E+03  0.10413078403E+03  0.00000000000E+00 0. -1.
    9000006    2    1    2  501    0  0.00000000000E+00  0.00000000000E+00  0.89586921597E+03  0.11041307840E+04  0.64538603650E+03 0.  0.
         13    1    3    3    0    0  0.19697745907E+02 -0.30385606700E+03  0.26515611648E+03  0.40376264903E+03  0.00000000000E+00 0. -1.
          4    1    3    3  501    0 -0.19697745907E+02  0.30385606700E+03  0.63071309949E+03  0.70036813500E+03  0.00000000000E+00 0. -1.
<mgrwt>
<rscale>  0 0.64538604E+03</rscale>
<asrwt>0</asrwt>
<pdfrwt beam="1">0</pdfrwt>
<pdfrwt beam="2">  1        2 0.37865819E+00 0.64538604E+03</pdfrwt>
<totfact> 0.47829077E+00</totfact>
</mgrwt>
</event>
<event>
 5    1  0.2366700E-004  0.6368430E+03  0.7818608E-02  0.9831785E-01
         13   -1    0    0    0    0  0.00000000000E+00  0.00000000000E+00  0.10000000000E+04  0.10000000000E+04  0.00000000000E+00 0. -1.
          2   -1    0    0  501    0 -0.00000000000E+00 -0.00000000000E+00 -0.10139224409E+03  0.10139224409E+03  0.00000000000E+00 0. -1.
    9000006    2    1    2  501    0  0.00000000000E+00  0.00000000000E+00  0.89860775591E+03  0.11013922441E+04  0.63684297623E+03 0.  0.
         13    1    3    3    0    0  0.28266163999E+03  0.14657580799E+03  0.44378751317E+03  0.54619541105E+03  0.00000000000E+00 0. -1.
          2    1    3    3  501    0 -0.28266163999E+03 -0.14657580799E+03  0.45482024274E+03  0.55519683304E+03  0.00000000000E+00 0. -1.
<mgrwt>
<rscale>  0 0.63684298E+03</rscale>
<asrwt>0</asrwt>
<pdfrwt beam="1">0</pdfrwt>
<pdfrwt beam="2">  1        2 0.36869985E+00 0.63684298E+03</pdfrwt>
<totfact> 0.52065214E+00</totfact>
</mgrwt>
</event>
<event>
 5    1  0.2366700E-004  0.6690719E+03  0.7818608E-02  0.9771636E-01
         13   -1    0    0    0    0  0.00000000000E+00  0.00000000000E+00  0.10000000000E+04  0.10000000000E+04  0.00000000000E+00 0. -1.
          2   -1    0    0  501    0 -0.00000000000E+00 -0.00000000000E+00 -0.11191429984E+03  0.11191429984E+03  0.00000000000E+00 0. -1.
    9000006    2    1    2  501    0  0.00000000000E+00  0.00000000000E+00  0.88808570016E+03  0.11119142998E+04  0.66907189401E+03 0.  0.
         13    1    3    3    0    0  0.28856258308E+03 -0.14169696164E+03  0.29021467452E+03  0.43309462084E+03  0.00000000000E+00 0. -1.
          4    1    3    3  501    0 -0.28856258308E+03  0.14169696164E+03  0.59787102564E+03  0.67881967900E+03  0.00000000000E+00 0. -1.
<mgrwt>
<rscale>  0 0.66907189E+03</rscale>
<asrwt>0</asrwt>
<pdfrwt beam="1">0</pdfrwt>
<pdfrwt beam="2">  1        2 0.40696195E+00 0.66907189E+03</pdfrwt>
<totfact> 0.37440048E+00</totfact>
</mgrwt>
</event>
<event>
 5    1  0.2366700E-004  0.6158201E+03  0.7818608E-02  0.9873117E-01
         13   -1    0    0    0    0  0.00000000000E+00  0.00000000000E+00  0.10000000000E+04  0.10000000000E+04  0.00000000000E+00 0. -1.
          2   -1    0    0  501    0 -0.00000000000E+00 -0.00000000000E+00 -0.94808590525E+02  0.94808590525E+02  0.00000000000E+00 0. -1.
    9000006    2    1    2  501    0  0.00000000000E+00  0.00000000000E+00  0.90519140948E+03  0.10948085905E+04  0.61582007283E+03 0.  0.
         13    1    3    3    0    0  0.20644658418E+03  0.38266475650E+02  0.85299326709E+03  0.87845434086E+03  0.00000000000E+00 0. -1.
          4    1    3    3  501    0 -0.20644658418E+03 -0.38266475650E+02  0.52198142388E+02  0.21635424966E+03  0.00000000000E+00 0. -1.
<mgrwt>
<rscale>  0 0.61582007E+03</rscale>
<asrwt>0</asrwt>
<pdfrwt beam="1">0</pdfrwt>
<pdfrwt beam="2">  1        2 0.34475924E+00 0.61582007E+03</pdfrwt>
<totfact> 0.63702868E+00</totfact>
</mgrwt>
</event>
<event>
 5    1  0.2366700E-004  0.6495613E+03  0.7818608E-02  0.9807603E-01
         13   -1    0    0    0    0  0.00000000000E+00  0.00000000000E+00  0.10000000000E+04  0.10000000000E+04  0.00000000000E+00 0. -1.
          2   -1    0    0  501    0 -0.00000000000E+00 -0.00000000000E+00 -0.10548246641E+03  0.10548246641E+03  0.00000000000E+00 0. -1.
    9000006    2    1    2  501    0  0.00000000000E+00  0.00000000000E+00  0.89451753359E+03  0.11054824664E+04  0.64956128706E+03 0.  0.
         13    1    3    3    0    0 -0.22256902227E+03  0.55397493853E+02  0.83860715123E+03  0.86940658273E+03  0.00000000000E+00 0. -1.
          4    1    3    3  501    0  0.22256902227E+03 -0.55397493853E+02  0.55910382360E+02  0.23607588368E+03  0.00000000000E+00 0. -1.
<mgrwt>
<rscale>  0 0.64956129E+03</rscale>
<asrwt>0</asrwt>
<pdfrwt beam="1">0</pdfrwt>
<pdfrwt beam="2">  1        2 0.38357341E+00 0.64956129E+03</pdfrwt>
<totfact> 0.45856418E+00</totfact>
</mgrwt>
</event>
<event>
 5    1  0.2366700E-004  0.6524609E+03  0.7818608E-02  0.9802172E-01
         13   -1    0    0    0    0  0.00000000000E+00  0.00000000000E+00  0.10000000000E+04  0.10000000000E+04  0.00000000000E+00 0. -1.
          2   -1    0    0  501    0 -0.00000000000E+00 -0.00000000000E+00 -0.10642632040E+03  0.10642632040E+03  0.00000000000E+00 0. -1.
    9000006    2    1    2  501    0  0.00000000000E+00  0.00000000000E+00  0.89357367960E+03  0.11064263204E+04  0.65246094258E+03 0.  0.
         13    1    3    3    0    0  0.26367988630E+03  0.13783224077E+03  0.67367551987E+03  0.73645333532E+03  0.00000000000E+00 0. -1.
          4    1    3    3  501    0 -0.26367988630E+03 -0.13783224077E+03  0.21989815973E+03  0.36997298508E+03  0.00000000000E+00 0. -1.
<mgrwt>
<rscale>  0 0.65246094E+03</rscale>
<asrwt>0</asrwt>
<pdfrwt beam="1">0</pdfrwt>
<pdfrwt beam="2">  1        2 0.38700562E+00 0.65246094E+03</pdfrwt>
<totfact> 0.44523070E+00</totfact>
</mgrwt>
</event>
<event>
 5    1  0.2366700E-004  0.6265625E+03  0.7818608E-02  0.9851780E-01
         13   -1    0    0    0    0  0.00000000000E+00  0.00000000000E+00  0.10000000000E+04  0.10000000000E+04  0.00000000000E+00 0. -1.
          2   -1    0    0  501    0 -0.00000000000E+00 -0.00000000000E+00 -0.98145136193E+02  0.98145136193E+02  0.00000000000E+00 0. -1.
    9000006    2    1    2  501    0  0.00000000000E+00  0.00000000000E+00  0.90185486381E+03  0.10981451362E+04  0.62656248273E+03 0.  0.
         13    1    3    3    0    0 -0.28491928146E+03 -0.94257553362E+02  0.60848724323E+03  0.67846901807E+03  0.00000000000E+00 0. -1.
          2    1    3    3  501    0  0.28491928146E+03  0.94257553362E+02  0.29336762058E+03  0.41967611812E+03  0.00000000000E+00 0. -1.
<mgrwt>
<rscale>  0 0.62656248E+03</rscale>
<asrwt>0</asrwt>
<pdfrwt beam="1">0</pdfrwt>
<pdfrwt beam="2">  1        2 0.35689216E+00 0.62656248E+03</pdfrwt>
<totfact> 0.57533291E+00</totfact>
</mgrwt>
</event>
<event>
 5    1  0.2366700E-004  0.6477656E+03  0.7818608E-02  0.9810981E-01
         13   -1    0    0    0    0  0.00000000000E+00  0.00000000000E+00  0.10000000000E+04  0.10000000000E+04  0.00000000000E+00 0. -1.
          2   -1    0    0  501    0 -0.00000000000E+00 -0.00000000000E+00 -0.10490006360E+03  0.10490006360E+03  0.00000000000E+00 0. -1.
    9000006    2    1    2  501    0  0.00000000000E+00  0.00000000000E+00  0.89509993640E+03  0.11049000636E+04  0.64776558601E+03 0.  0.
         13    1    3    3    0    0 -0.14837411591E+03  0.20739677215E+03  0.78814464297E+03  0.82837206473E+03  0.00000000000E+00 0. -1.
          2    1    3    3  501    0  0.14837411591E+03 -0.20739677215E+03  0.10695529342E+03  0.27652799888E+03  0.00000000000E+00 0. -1.
<mgrwt>
<rscale>  0 0.64776559E+03</rscale>
<asrwt>0</asrwt>
<pdfrwt beam="1">0</pdfrwt>
<pdfrwt beam="2">  1        2 0.38145558E+00 0.64776559E+03</pdfrwt>
<totfact> 0.46697128E+00</totfact>
</mgrwt>
</event>
<event>
 5    1  0.2366700E-004  0.6200857E+03  0.7818608E-02  0.9864589E-01
         13   -1    0    0    0    0  0.00000000000E+00  0.00000000000E+00  0.10000000000E+04  0.10000000000E+04  0.00000000000E+00 0. -1.
          2   -1    0    0  501    0 -0.00000000000E+00 -0.00000000000E+00 -0.96126555245E+02  0.96126555245E+02  0.00000000000E+00 0. -1.
    9000006    2    1    2  501    0  0.00000000000E+00  0.00000000000E+00  0.90387344475E+03  0.10961265552E+04  0.62008565616E+03 0.  0.
         13    1    3    3    0    0  0.30141534941E+03 -0.45035387439E+02  0.55266713392E+03  0.63112626304E+03  0.00000000000E+00 0. -1.
          2    1    3    3  501    0 -0.30141534941E+03  0.45035387439E+02  0.35120631084E+03  0.46500029221E+03  0.00000000000E+00 0. -1.
<mgrwt>
<rscale>  0 0.62008566E+03</rscale>
<asrwt>0</asrwt>
<pdfrwt beam="1">0</pdfrwt>
<pdfrwt beam="2">  1        2 0.34955185E+00 0.62008566E+03</pdfrwt>
<totfact> 0.61195718E+00</totfact>
</mgrwt>
</event>
<event>
 5    1  0.2366700E-004  0.6998060E+03  0.7818608E-02  0.9717564E-01
         13   -1    0    0    0    0  0.00000000000E+00  0.00000000000E+00  0.10000000000E+04  0.10000000000E+04  0.00000000000E+00 0. -1.
          2   -1    0    0  501    0 -0.00000000000E+00 -0.00000000000E+00 -0.12243211245E+03  0.12243211245E+03  0.00000000000E+00 0. -1.
    9000006    2    1    2  501    0  0.00000000000E+00  0.00000000000E+00  0.87756788755E+03  0.11224321125E+04  0.69980600870E+03 0.  0.
         13    1    3    3    0    0  0.17173753959E+03 -0.30470833206E+03  0.45409799562E+03  0.57318927044E+03  0.00000000000E+00 0. -1.
          2    1    3    3  501    0 -0.17173753959E+03  0.30470833206E+03  0.42346989193E+03  0.54924284201E+03  0.00000000000E+00 0. -1.
<mgrwt>
<rscale>  0 0.69980601E+03</rscale>
<asrwt>0</asrwt>
<pdfrwt beam="1">0</pdfrwt>
<pdfrwt beam="2">  1        2 0.44520862E+00 0.69980601E+03</pdfrwt>
<totfact> 0.26609764E+00</totfact>
</mgrwt>
</event>
<event>
 5    1  0.2366700E-004  0.6490231E+03  0.7818608E-02  0.9808614E-01
         13   -1    0    0    0    0  0.00000000000E+00  0.00000000000E+00  0.10000000000E+04  0.10000000000E+04  0.00000000000E+00 0. -1.
          2   -1    0    0  501    0 -0.00000000000E+00 -0.00000000000E+00 -0.10530775014E+03  0.10530775014E+03  0.00000000000E+00 0. -1.
    9000006    2    1    2  501    0  0.00000000000E+00  0.00000000000E+00  0.89469224986E+03  0.11053077501E+04  0.64902311249E+03 0.  0.
         13    1    3    3    0    0 -0.23930613274E+03 -0.16822146575E+03  0.20806021634E+03  0.35896370335E+03  0.00000000000E+00 0. -1.
          2    1    3    3  501    0  0.23930613274E+03  0.16822146575E+03  0.68663203353E+03  0.74634404678E+03  0.00000000000E+00 0. -1.
<mgrwt>
<rscale>  0 0.64902311E+03</rscale>
<asrwt>0</asrwt>
<pdfrwt beam="1">0</pdfrwt>
<pdfrwt beam="2">  1        2 0.38293808E+00 0.64902311E+03</pdfrwt>
<totfact> 0.46107169E+00</totfact>
</mgrwt>
</event>
<event>
 5    1  0.2366700E-004  0.6439752E+03  0.7818608E-02  0.9818150E-01
         13   -1    0    0    0    0  0.00000000000E+00  0.00000000000E+00  0.10000000000E+04  0.10000000000E+04  0.00000000000E+00 0. -1.
          2   -1    0    0  501    0 -0.00000000000E+00 -0.00000000000E+00 -0.10367601718E+03  0.10367601718E+03  0.00000000000E+00 0. -1.
    9000006    2    1    2  501    0  0.00000000000E+00  0.00000000000E+00  0.89632398282E+03  0.11036760172E+04  0.64397520815E+03 0.  0.
         13    1    3    3    0    0 -0.86561909738E+02  0.29906035383E+03  0.30739712741E+03  0.43751920345E+03  0.00000000000E+00 0. -1.
          2    1    3    3  501    0  0.86561909738E+02 -0.29906035383E+03  0.58892685542E+03  0.66615681373E+03  0.00000000000E+00 0. -1.
<mgrwt>
<rscale>  0 0.64397521E+03</rscale>
<asrwt>0</asrwt>
<pdfrwt beam="1">0</pdfrwt>
<pdfrwt beam="2">  1        2 0.37700449E+00 0.64397521E+03</pdfrwt>
<totfact> 0.48509935E+00</totfact>
</mgrwt>
</event>
<event>
 5    1  0.2366700E-004  0.6544123E+03  0.7818608E-02  0.9798535E-01
         13   -1    0    0    0    0  0.00000000000E+00  0.00000000000E+00  0.10000000000E+04  0.10000000000E+04  0.00000000000E+00 0. -1.
          2   -1    0    0  501    0 -0.00000000000E+00 -0.00000000000E+00 -0.10706386480E+03  0.10706386480E+03  0.00000000000E+00 0. -1.
    9000006    2    1    2  501    0  0.00000000000E+00  0.00000000000E+00  0.89293613520E+03  0.11070638648E+04  0.65441230062E+03 0.  0.
         13    1    3    3    0    0  0.29272426140E+03  0.21442022760E+02  0.69113027167E+03  0.75087169741E+03  0.00000000000E+00 0. -1.
          4    1    3    3  501    0 -0.29272426140E+03 -0.21442022760E+02  0.20180586353E+03  0.35619216739E+03  0.00000000000E+00 0. -1.
<mgrwt>
<rscale>  0 0.65441230E+03</rscale>
<asrwt>0</asrwt>
<pdfrwt beam="1">0</pdfrwt>
<pdfrwt beam="2">  1        2 0.38932397E+00 0.65441230E+03</pdfrwt>
<totfact> 0.43642410E+00</totfact>
</mgrwt>
</event>
<event>
 5    1  0.2366700E-004  0.6586630E+03  0.7818608E-02  0.9790658E-01
         13   -1    0    0    0    0  0.00000000000E+00  0.00000000000E+00  0.10000000000E+04  0.10000000000E+04  0.00000000000E+00 0. -1.
          2   -1    0    0  501    0 -0.00000000000E+00 -0.00000000000E+00 -0.10845924159E+03  0.10845924159E+03  0.00000000000E+00 0. -1.
    9000006    2    1    2  501    0  0.00000000000E+00  0.00000000000E+00  0.89154075841E+03  0.11084592416E+04  0.65866301426E+03 0.  0.
         13    1    3    3    0    0 -0.30117997079E+03 -0.12928780250E+03  0.49989915275E+03  0.59776573471E+03  0.00000000000E+00 0. -1.
          4    1    3    3  501    0  0.30117997079E+03  0.12928780250E+03  0.39164160566E+03  0.51069350688E+03  0.00000000000E+00 0. -1.
<mgrwt>
<rscale>  0 0.65866301E+03</rscale>
<asrwt>0</asrwt>
<pdfrwt beam="1">0</pdfrwt>
<pdfrwt beam="2">  1        2 0.39439807E+00 0.65866301E+03</pdfrwt>
<totfact> 0.41769633E+00</totfact>
</mgrwt>
</event>
<event>
 5    1  0.2366700E-004  0.5193851E+03  0.7818608E-02  0.1008839E+00
         13   -1    0    0    0    0  0.00000000000E+00  0.00000000000E+00  0.10000000000E+04  0.10000000000E+04  0.00000000000E+00 0. -1.
          2   -1    0    0  501    0 -0.00000000000E+00 -0.00000000000E+00 -0.67440230100E+02  0.67440230100E+02  0.00000000000E+00 0. -1.
    9000006    2    1    2  501    0  0.00000000000E+00  0.00000000000E+00  0.93255976990E+03  0.10674402301E+04  0.51938513687E+03 0.  0.
         13    1    3    3    0    0 -0.64419649582E+02 -0.85955925868E+02 -0.19643055204E+02  0.10919781162E+03  0.00000000000E+00 0. -1.
          4    1    3    3  501    0  0.64419649582E+02  0.85955925868E+02  0.95220282510E+03  0.95824241848E+03  0.00000000000E+00 0. -1.
<mgrwt>
<rscale>  0 0.51938514E+03</rscale>
<asrwt>0</asrwt>
<pdfrwt beam="1">0</pdfrwt>
<pdfrwt beam="2">  1        2 0.24523772E+00 0.51938514E+03</pdfrwt>
<totfact> 0.14500826E+01</totfact>
</mgrwt>
</event>
<event>
 5    1  0.2366700E-004  0.6788629E+03  0.7818608E-02  0.9754078E-01
         13   -1    0    0    0    0  0.00000000000E+00  0.00000000000E+00  0.10000000000E+04  0.10000000000E+04  0.00000000000E+00 0. -1.
          2   -1    0    0  501    0 -0.00000000000E+00 -0.00000000000E+00 -0.11521369522E+03  0.11521369522E+03  0.00000000000E+00 0. -1.
    9000006    2    1    2  501    0  0.00000000000E+00  0.00000000000E+00  0.88478630478E+03  0.11152136952E+04  0.67886285866E+03 0.  0.
         13    1    3    3    0    0 -0.13208598610E+03  0.17082677424E+03  0.87261380269E+03  0.89893456000E+03  0.00000000000E+00 0. -1.
          2    1    3    3  501    0  0.13208598610E+03 -0.17082677424E+03  0.12172502090E+02  0.21627913521E+03  0.00000000000E+00 0. -1.
<mgrwt>
<rscale>  0 0.67886286E+03</rscale>
<asrwt>0</asrwt>
<pdfrwt beam="1">0</pdfrwt>
<pdfrwt beam="2">  1        2 0.41895978E+00 0.67886286E+03</pdfrwt>
<totfact> 0.33684945E+00</totfact>
</mgrwt>
</event>
<event>
 5    1  0.2366700E-004  0.6519362E+03  0.7818608E-02  0.9803153E-01
         13   -1    0    0    0    0  0.00000000000E+00  0.00000000000E+00  0.10000000000E+04  0.10000000000E+04  0.00000000000E+00 0. -1.
          2   -1    0    0  501    0 -0.00000000000E+00 -0.00000000000E+00 -0.10625521229E+03  0.10625521229E+03  0.00000000000E+00 0. -1.
    9000006    2    1    2  501    0  0.00000000000E+00  0.00000000000E+00  0.89374478771E+03  0.11062552123E+04  0.65193623089E+03 0.  0.
         13    1    3    3    0    0 -0.17076025850E+03 -0.22220885304E+03  0.16435713697E+03  0.32488322322E+03  0.00000000000E+00 0. -1.
          2    1    3    3  501    0  0.17076025850E+03  0.22220885304E+03  0.72938765074E+03  0.78137198907E+03  0.00000000000E+00 0. -1.
<mgrwt>
<rscale>  0 0.65193623E+03</rscale>
<asrwt>0</asrwt>
<pdfrwt beam="1">0</pdfrwt>
<pdfrwt beam="2">  1        2 0.38638340E+00 0.65193623E+03</pdfrwt>
<totfact> 0.44762148E+00</totfact>
</mgrwt>
</event>
<event>
 5    1  0.2366700E-004  0.6509629E+03  0.7818608E-02  0.9804974E-01
         13   -1    0    0    0    0  0.00000000000E+00  0.00000000000E+00  0.10000000000E+04  0.10000000000E+04  0.00000000000E+00 0. -1.
          2   -1    0    0  501    0 -0.00000000000E+00 -0.00000000000E+00 -0.10593817786E+03  0.10593817786E+03  0.00000000000E+00 0. -1.
    9000006    2    1    2  501    0  0.00000000000E+00  0.00000000000E+00  0.89406182214E+03  0.11059381779E+04  0.65096291095E+03 0.  0.
         13    1    3    3    0    0  0.10209128581E+03  0.16815979702E+03  0.64948650778E+01  0.19683122527E+03  0.00000000000E+00 0. -1.
          2    1    3    3  501    0 -0.10209128581E+03 -0.16815979702E+03  0.88756695706E+03  0.90910695259E+03  0.00000000000E+00 0. -1.
<mgrwt>
<rscale>  0 0.65096291E+03</rscale>
<asrwt>0</asrwt>
<pdfrwt beam="1">0</pdfrwt>
<pdfrwt beam="2">  1        2 0.38523055E+00 0.65096291E+03</pdfrwt>
<totfact> 0.45208197E+00</totfact>
</mgrwt>
</event>
<event>
 5    1  0.2366700E-004  0.6499061E+03  0.7818608E-02  0.9806955E-01
         13   -1    0    0    0    0  0.00000000000E+00  0.00000000000E+00  0.10000000000E+04  0.10000000000E+04  0.00000000000E+00 0. -1.
          2   -1    0    0  501    0 -0.00000000000E+00 -0.00000000000E+00 -0.10559447832E+03  0.10559447832E+03  0.00000000000E+00 0. -1.
    9000006    2    1    2  501    0  0.00000000000E+00  0.00000000000E+00  0.89440552168E+03  0.11055944783E+04  0.64990608034E+03 0.  0.
         13    1    3    3    0    0 -0.17069060575E+03 -0.24347001869E+03  0.22421738922E+03  0.37240619023E+03  0.00000000000E+00 0. -1.
          2    1    3    3  501    0  0.17069060575E+03  0.24347001869E+03  0.67018813246E+03  0.73318828809E+03  0.00000000000E+00 0. -1.
<mgrwt>
<rscale>  0 0.64990608E+03</rscale>
<asrwt>0</asrwt>
<pdfrwt beam="1">0</pdfrwt>
<pdfrwt beam="2">  1        2 0.38398073E+00 0.64990608E+03</pdfrwt>
<totfact> 0.45696311E+00</totfact>
</mgrwt>
</event>
<event>
 5    1  0.2366700E-004  0.6505864E+03  0.7818608E-02  0.9805680E-01
         13   -1    0    0    0    0  0.00000000000E+00  0.00000000000E+00  0.10000000000E+04  0.10000000000E+04  0.00000000000E+00 0. -1.
          2   -1    0    0  501    0 -0.00000000000E+00 -0.00000000000E+00 -0.10581565282E+03  0.10581565282E+03  0.00000000000E+00 0. -1.
    9000006    2    1    2  501    0  0.00000000000E+00  0.00000000000E+00  0.89418434718E+03  0.11058156528E+04  0.65058635959E+03 0.  0.
         13    1    3    3    0    0  0.44000185545E+02 -0.36703472882E+02  0.99135482760E+03  0.99300934309E+03  0.00000000000E+00 0. -1.
          2    1    3    3  501    0 -0.44000185545E+02  0.36703472882E+02 -0.97170480424E+02  0.11280630973E+03  0.00000000000E+00 0. -1.
<mgrwt>
<rscale>  0 0.65058636E+03</rscale>
<asrwt>0</asrwt>
<pdfrwt beam="1">0</pdfrwt>
<pdfrwt beam="2">  1        2 0.38478500E+00 0.65058636E+03</pdfrwt>
<totfact> 0.45381659E+00</totfact>
</mgrwt>
</event>
<event>
 5    1  0.2366700E-004  0.6606200E+03  0.7818608E-02  0.9787053E-01
         13   -1    0    0    0    0  0.00000000000E+00  0.00000000000E+00  0.10000000000E+04  0.10000000000E+04  0.00000000000E+00 0. -1.
          2   -1    0    0  501    0 -0.00000000000E+00 -0.00000000000E+00 -0.10910469088E+03  0.10910469088E+03  0.00000000000E+00 0. -1.
    9000006    2    1    2  501    0  0.00000000000E+00  0.00000000000E+00  0.89089530912E+03  0.11091046909E+04  0.66061998420E+03 0.  0.
         13    1    3    3    0    0  0.26848581415E+03  0.14922108407E+03  0.24152622419E+03  0.39075117568E+03  0.00000000000E+00 0. -1.
          4    1    3    3  501    0 -0.26848581415E+03 -0.14922108407E+03  0.64936908493E+03  0.71835351520E+03  0.00000000000E+00 0. -1.
<mgrwt>
<rscale>  0 0.66061998E+03</rscale>
<asrwt>0</asrwt>
<pdfrwt beam="1">0</pdfrwt>
<pdfrwt beam="2">  1        2 0.39674517E+00 0.66061998E+03</pdfrwt>
<totfact> 0.40928195E+00</totfact>
</mgrwt>
</event>
<event>
 5    1  0.2366700E-004  0.6448464E+03  0.7818608E-02  0.9816498E-01
         13   -1    0    0    0    0  0.00000000000E+00  0.00000000000E+00  0.10000000000E+04  0.10000000000E+04  0.00000000000E+00 0. -1.
          2   -1    0    0  501    0 -0.00000000000E+00 -0.00000000000E+00 -0.10395671052E+03  0.10395671052E+03  0.00000000000E+00 0. -1.
    9000006    2    1    2  501    0  0.00000000000E+00  0.00000000000E+00  0.89604328948E+03  0.11039567105E+04  0.64484637092E+03 0.  0.
         13    1    3    3    0    0  0.23183444127E+03  0.16995233327E+03  0.69802595740E+03  0.75489816594E+03  0.00000000000E+00 0. -1.
          2    1    3    3  501    0 -0.23183444127E+03 -0.16995233327E+03  0.19801733208E+03  0.34905854458E+03  0.00000000000E+00 0. -1.
<mgrwt>
<rscale>  0 0.64484637E+03</rscale>
<asrwt>0</asrwt>
<pdfrwt beam="1">0</pdfrwt>
<pdfrwt beam="2">  1        2 0.37802520E+00 0.64484637E+03</pdfrwt>
<totfact> 0.48088657E+00</totfact>
</mgrwt>
</event>
<event>
 5    1  0.2366700E-004  0.6453933E+03  0.7818608E-02  0.9815462E-01
         13   -1    0    0    0    0  0.00000000000E+00  0.00000000000E+00  0.10000000000E+04  0.10000000000E+04  0.00000000000E+00 0. -1.
          2   -1    0    0  501    0 -0.00000000000E+00 -0.00000000000E+00 -0.10413313554E+03  0.10413313554E+03  0.00000000000E+00 0. -1.
    9000006    2    1    2  501    0  0.00000000000E+00  0.00000000000E+00  0.89586686446E+03  0.11041331355E+04  0.64539332360E+03 0.  0.
         13    1    3    3    0    0  0.27379770327E+03  0.13271025288E+03  0.63184102160E+03  0.70128472828E+03  0.00000000000E+00 0. -1.
          2    1    3    3  501    0 -0.27379770327E+03 -0.13271025288E+03  0.26402584286E+03  0.40284840726E+03  0.00000000000E+00 0. -1.
<mgrwt>
<rscale>  0 0.64539332E+03</rscale>
<asrwt>0</asrwt>
<pdfrwt beam="1">0</pdfrwt>
<pdfrwt beam="2">  1        2 0.37866675E+00 0.64539332E+03</pdfrwt>
<totfact> 0.47825579E+00</totfact>
</mgrwt>
</event>
<event>
 5    1  0.2366700E-004  0.6439072E+03  0.7818608E-02  0.9818280E-01
         13   -1    0    0    0    0  0.00000000000E+00  0.00000000000E+00  0.10000000000E+04  0.10000000000E+04  0.00000000000E+00 0. -1.
          2   -1    0    0  501    0 -0.00000000000E+00 -0.00000000000E+00 -0.10365411206E+03  0.10365411206E+03  0.00000000000E+00 0. -1.
    9000006    2    1    2  501    0  0.00000000000E+00  0.00000000000E+00  0.89634588794E+03  0.11036541121E+04  0.64390717363E+03 0.  0.
         13    1    3    3    0    0  0.28740809528E+03  0.13127500577E+03  0.34227114859E+03  0.46581764622E+03  0.00000000000E+00 0. -1.
          4    1    3    3  501    0 -0.28740809528E+03 -0.13127500577E+03  0.55407473935E+03  0.63783646584E+03  0.00000000000E+00 0. -1.
<mgrwt>
<rscale>  0 0.64390717E+03</rscale>
<asrwt>0</asrwt>
<pdfrwt beam="1">0</pdfrwt>
<pdfrwt beam="2">  1        2 0.37692484E+00 0.64390717E+03</pdfrwt>
<totfact> 0.48542952E+00</totfact>
</mgrwt>
</event>
<event>
 5    1  0.2366700E-004  0.6612252E+03  0.7818608E-02  0.9785941E-01
         13   -1    0    0    0    0  0.00000000000E+00  0.00000000000E+00  0.10000000000E+04  0.10000000000E+04  0.00000000000E+00 0. -1.
          2   -1    0    0  501    0 -0.00000000000E+00 -0.00000000000E+00 -0.10930470046E+03  0.10930470046E+03  0.00000000000E+00 0. -1.
    9000006    2    1    2  501    0  0.00000000000E+00  0.00000000000E+00  0.89069529954E+03  0.11093047005E+04  0.66122522778E+03 0.  0.
         13    1    3    3    0    0 -0.12359290585E+03  0.67599628150E+02  0.94712997750E+03  0.95754901200E+03  0.00000000000E+00 0. -1.
          4    1    3    3  501    0  0.12359290585E+03 -0.67599628150E+02 -0.56434677966E+02  0.15175568846E+03  0.00000000000E+00 0. -1.
<mgrwt>
<rscale>  0 0.66122523E+03</rscale>
<asrwt>0</asrwt>
<pdfrwt beam="1">0</pdfrwt>
<pdfrwt beam="2">  1        2 0.39747248E+00 0.66122523E+03</pdfrwt>
<totfact> 0.40670568E+00</totfact>
</mgrwt>
</event>
<event>
 5    1  0.2366700E-004  0.6508599E+03  0.7818608E-02  0.9805167E-01
         13   -1    0    0    0    0  0.00000000000E+00  0.00000000000E+00  0.10000000000E+04  0.10000000000E+04  0.00000000000E+00 0. -1.
          2   -1    0    0  501    0 -0.00000000000E+00 -0.00000000000E+00 -0.10590465509E+03  0.10590465509E+03  0.00000000000E+00 0. -1.
    9000006    2    1    2  501    0  0.00000000000E+00  0.00000000000E+00  0.89409534491E+03  0.11059046551E+04  0.65085990839E+03 0.  0.
         13    1    3    3    0    0  0.20860253512E+03 -0.18116231397E+03  0.73923054289E+03  0.78917463036E+03  0.00000000000E+00 0. -1.
          2    1    3    3  501    0 -0.20860253512E+03  0.18116231397E+03  0.15486480202E+03  0.31673002473E+03  0.00000000000E+00 0. -1.
<mgrwt>
<rscale>  0 0.65085991E+03</rscale>
<asrwt>0</asrwt>
<pdfrwt beam="1">0</pdfrwt>
<pdfrwt beam="2">  1        2 0.38510865E+00 0.65085991E+03</pdfrwt>
<totfact> 0.45255596E+00</totfact>
</mgrwt>
</event>
<event>
 5    1  0.2366700E-004  0.6448948E+03  0.7818608E-02  0.9816406E-01
         13   -1    0    0    0    0  0.00000000000E+00  0.00000000000E+00  0.10000000000E+04  0.10000000000E+04  0.00000000000E+00 0. -1.
          2   -1    0    0  501    0 -0.00000000000E+00 -0.00000000000E+00 -0.10397234121E+03  0.10397234121E+03  0.00000000000E+00 0. -1.
    9000006    2    1    2  501    0  0.00000000000E+00  0.00000000000E+00  0.89602765879E+03  0.11039723412E+04  0.64489484790E+03 0.  0.
         13    1    3    3    0    0 -0.18584454615E+03 -0.21742496736E+03  0.19317866741E+03  0.34515186412E+03  0.00000000000E+00 0. -1.
          2    1    3    3  501    0  0.18584454615E+03  0.21742496736E+03  0.70284899138E+03  0.75882047709E+03  0.00000000000E+00 0. -1.
<mgrwt>
<rscale>  0 0.64489485E+03</rscale>
<asrwt>0</asrwt>
<pdfrwt beam="1">0</pdfrwt>
<pdfrwt beam="2">  1        2 0.37808204E+00 0.64489485E+03</pdfrwt>
<totfact> 0.48065296E+00</totfact>
</mgrwt>
</event>
<event>
 5    1  0.2366700E-004  0.6426706E+03  0.7818608E-02  0.9820630E-01
         13   -1    0    0    0    0  0.00000000000E+00  0.00000000000E+00  0.10000000000E+04  0.10000000000E+04  0.00000000000E+00 0. -1.
          2   -1    0    0  501    0 -0.00000000000E+00 -0.00000000000E+00 -0.10325637757E+03  0.10325637757E+03  0.00000000000E+00 0. -1.
    9000006    2    1    2  501    0  0.00000000000E+00  0.00000000000E+00  0.89674362243E+03  0.11032563776E+04  0.64267060791E+03 0.  0.
         13    1    3    3    0    0  0.23319519065E+03 -0.69300890334E+01  0.82770780466E+03  0.85995827397E+03  0.00000000000E+00 0. -1.
          2    1    3    3  501    0 -0.23319519065E+03  0.69300890334E+01  0.69035817777E+02  0.24329810360E+03  0.00000000000E+00 0. -1.
<mgrwt>
<rscale>  0 0.64267061E+03</rscale>
<asrwt>0</asrwt>
<pdfrwt beam="1">0</pdfrwt>
<pdfrwt beam="2">  1        2 0.37547853E+00 0.64267061E+03</pdfrwt>
<totfact> 0.49146034E+00</totfact>
</mgrwt>
</event>
<event>
 5    1  0.2366700E-004  0.6629737E+03  0.7818608E-02  0.9782735E-01
         13   -1    0    0    0    0  0.00000000000E+00  0.00000000000E+00  0.10000000000E+04  0.10000000000E+04  0.00000000000E+00 0. -1.
          2   -1    0    0  501    0 -0.00000000000E+00 -0.00000000000E+00 -0.10988353863E+03  0.10988353863E+03  0.00000000000E+00 0. -1.
    9000006    2    1    2  501    0  0.00000000000E+00  0.00000000000E+00  0.89011646137E+03  0.11098835386E+04  0.66297372082E+03 0.  0.
         13    1    3    3    0    0 -0.32498261283E+03  0.50065347371E+02  0.51535644931E+03  0.61132029861E+03  0.00000000000E+00 0. -1.
          4    1    3    3  501    0  0.32498261283E+03 -0.50065347371E+02  0.37476001207E+03  0.49856324002E+03  0.00000000000E+00 0. -1.
<mgrwt>
<rscale>  0 0.66297372E+03</rscale>
<asrwt>0</asrwt>
<pdfrwt beam="1">0</pdfrwt>
<pdfrwt beam="2">  1        2 0.39957735E+00 0.66297372E+03</pdfrwt>
<totfact> 0.39933177E+00</totfact>
</mgrwt>
</event>
<event>
 5    1  0.2366700E-004  0.6436073E+03  0.7818608E-02  0.9818849E-01
         13   -1    0    0    0    0  0.00000000000E+00  0.00000000000E+00  0.10000000000E+04  0.10000000000E+04  0.00000000000E+00 0. -1.
          2   -1    0    0  501    0 -0.00000000000E+00 -0.00000000000E+00 -0.10355760293E+03  0.10355760293E+03  0.00000000000E+00 0. -1.
    9000006    2    1    2  501    0  0.00000000000E+00  0.00000000000E+00  0.89644239707E+03  0.11035576029E+04  0.64360734281E+03 0.  0.
         13    1    3    3    0    0 -0.23469045718E+02 -0.29010582474E+03  0.21283722176E+03  0.36057158599E+03  0.00000000000E+00 0. -1.
          2    1    3    3  501    0  0.23469045718E+02  0.29010582474E+03  0.68360517531E+03  0.74298601694E+03  0.00000000000E+00 0. -1.
<mgrwt>
<rscale>  0 0.64360734E+03</rscale>
<asrwt>0</asrwt>
<pdfrwt beam="1">0</pdfrwt>
<pdfrwt beam="2">  1        2 0.37657390E+00 0.64360734E+03</pdfrwt>
<totfact> 0.48688664E+00</totfact>
</mgrwt>
</event>
<event>
 5    1  0.2366700E-004  0.6863929E+03  0.7818608E-02  0.9740789E-01
         13   -1    0    0    0    0  0.00000000000E+00  0.00000000000E+00  0.10000000000E+04  0.10000000000E+04  0.00000000000E+00 0. -1.
          2   -1    0    0  501    0 -0.00000000000E+00 -0.00000000000E+00 -0.11778379812E+03  0.11778379812E+03  0.00000000000E+00 0. -1.
    9000006    2    1    2  501    0  0.00000000000E+00  0.00000000000E+00  0.88221620188E+03  0.11177837981E+04  0.68639288493E+03 0.  0.
         13    1    3    3    0    0  0.25344023667E+03  0.22735223051E+03  0.37082206239E+03  0.50341830740E+03  0.00000000000E+00 0. -1.
          2    1    3    3  501    0 -0.25344023667E+03 -0.22735223051E+03  0.51139413949E+03  0.61436549072E+03  0.00000000000E+00 0. -1.
<mgrwt>
<rscale>  0 0.68639288E+03</rscale>
<asrwt>0</asrwt>
<pdfrwt beam="1">0</pdfrwt>
<pdfrwt beam="2">  1        2 0.42830562E+00 0.68639288E+03</pdfrwt>
<totfact> 0.30995793E+00</totfact>
</mgrwt>
</event>
<event>
 5    1  0.2366700E-004  0.6575667E+03  0.7818608E-02  0.9792683E-01
         13   -1    0    0    0    0  0.00000000000E+00  0.00000000000E+00  0.10000000000E+04  0.10000000000E+04  0.00000000000E+00 0. -1.
          2   -1    0    0  501    0 -0.00000000000E+00 -0.00000000000E+00 -0.10809849394E+03  0.10809849394E+03  0.00000000000E+00 0. -1.
    9000006    2    1    2  501    0  0.00000000000E+00  0.00000000000E+00  0.89190150606E+03  0.11080984939E+04  0.65756670821E+03 0.  0.
         13    1    3    3    0    0  0.24899460779E+03 -0.31545412976E+02  0.80384210916E+03  0.84211374781E+03  0.00000000000E+00 0. -1.
          2    1    3    3  501    0 -0.24899460779E+03  0.31545412976E+02  0.88059396901E+02  0.26598474613E+03  0.00000000000E+00 0. -1.
<mgrwt>
<rscale>  0 0.65756671E+03</rscale>
<asrwt>0</asrwt>
<pdfrwt beam="1">0</pdfrwt>
<pdfrwt beam="2">  1        2 0.39308626E+00 0.65756671E+03</pdfrwt>
<totfact> 0.42246706E+00</totfact>
</mgrwt>
</event>
<event>
 5    1  0.2366700E-004  0.4830884E+03  0.7818608E-02  0.1018290E+00
         13   -1    0    0    0    0  0.00000000000E+00  0.00000000000E+00  0.10000000000E+04  0.10000000000E+04  0.00000000000E+00 0. -1.
          2   -1    0    0  501    0 -0.00000000000E+00 -0.00000000000E+00 -0.58343594681E+02  0.58343594681E+02  0.00000000000E+00 0. -1.
    9000006    2    1    2  501    0  0.00000000000E+00  0.00000000000E+00  0.94165640532E+03  0.10583435947E+04  0.48308837569E+03 0.  0.
         13    1    3    3    0    0  0.12101930898E+03  0.15714448208E+03  0.77283538832E+03  0.79788131876E+03  0.00000000000E+00 0. -1.
          2    1    3    3  501    0 -0.12101930898E+03 -0.15714448208E+03  0.16882101700E+03  0.26046227592E+03  0.00000000000E+00 0. -1.
<mgrwt>
<rscale>  0 0.48308838E+03</rscale>
<asrwt>0</asrwt>
<pdfrwt beam="1">0</pdfrwt>
<pdfrwt beam="2">  1        2 0.21215897E+00 0.48308838E+03</pdfrwt>
<totfact> 0.19140681E+01</totfact>
</mgrwt>
</event>
<event>
 5    1  0.2366700E-004  0.6643181E+03  0.7818608E-02  0.9780277E-01
         13   -1    0    0    0    0  0.00000000000E+00  0.00000000000E+00  0.10000000000E+04  0.10000000000E+04  0.00000000000E+00 0. -1.
          2   -1    0    0  501    0 -0.00000000000E+00 -0.00000000000E+00 -0.11032961881E+03  0.11032961881E+03  0.00000000000E+00 0. -1.
    9000006    2    1    2  501    0  0.00000000000E+00  0.00000000000E+00  0.88967038119E+03  0.11103296188E+04  0.66431805278E+03 0.  0.
         13    1    3    3    0    0  0.21897530003E+03 -0.29502927428E+02  0.30315415908E+02  0.22302383099E+03  0.00000000000E+00 0. -1.
          2    1    3    3  501    0 -0.21897530003E+03  0.29502927428E+02  0.85935496528E+03  0.88730578782E+03  0.00000000000E+00 0. -1.
<mgrwt>
<rscale>  0 0.66431805E+03</rscale>
<asrwt>0</asrwt>
<pdfrwt beam="1">0</pdfrwt>
<pdfrwt beam="2">  1        2 0.40119946E+00 0.66431805E+03</pdfrwt>
<totfact> 0.39373127E+00</totfact>
</mgrwt>
</event>
<event>
 5    1  0.2366700E-004  0.6472321E+03  0.7818608E-02  0.9811987E-01
         13   -1    0    0    0    0  0.00000000000E+00  0.00000000000E+00  0.10000000000E+04  0.10000000000E+04  0.00000000000E+00 0. -1.
          2   -1    0    0  501    0 -0.00000000000E+00 -0.00000000000E+00 -0.10472736075E+03  0.10472736075E+03  0.00000000000E+00 0. -1.
    9000006    2    1    2  501    0  0.00000000000E+00  0.00000000000E+00  0.89527263925E+03  0.11047273608E+04  0.64723213996E+03 0.  0.
         13    1    3    3    0    0 -0.30488397317E+03 -0.97004290650E+02  0.36466009728E+03  0.48511963066E+03  0.00000000000E+00 0. -1.
          4    1    3    3  501    0  0.30488397317E+03  0.97004290650E+02  0.53061254197E+03  0.61960773010E+03  0.00000000000E+00 0. -1.
<mgrwt>
<rscale>  0 0.64723214E+03</rscale>
<asrwt>0</asrwt>
<pdfrwt beam="1">0</pdfrwt>
<pdfrwt beam="2">  1        2 0.38082757E+00 0.64723214E+03</pdfrwt>
<totfact> 0.46949106E+00</totfact>
</mgrwt>
</event>
<event>
 5    1  0.2366700E-004  0.6201871E+03  0.7818608E-02  0.9864387E-01
         13   -1    0    0    0    0  0.00000000000E+00  0.00000000000E+00  0.10000000000E+04  0.10000000000E+04  0.00000000000E+00 0. -1.
          2   -1    0    0  501    0 -0.00000000000E+00 -0.00000000000E+00 -0.96157997662E+02  0.96157997662E+02  0.00000000000E+00 0. -1.
    9000006    2    1    2  501    0  0.00000000000E+00  0.00000000000E+00  0.90384200234E+03  0.10961579977E+04  0.62018706101E+03 0.  0.
         13    1    3    3    0    0 -0.19623002306E+03 -0.22760613994E+03  0.58707384906E+03  0.65951988684E+03  0.00000000000E+00 0. -1.
          4    1    3    3  501    0  0.19623002306E+03  0.22760613994E+03  0.31676815328E+03  0.43663811082E+03  0.00000000000E+00 0. -1.
<mgrwt>
<rscale>  0 0.62018706E+03</rscale>
<asrwt>0</asrwt>
<pdfrwt beam="1">0</pdfrwt>
<pdfrwt beam="2">  1        2 0.34966618E+00 0.62018706E+03</pdfrwt>
<totfact> 0.61137045E+00</totfact>
</mgrwt>
</event>
<event>
 5    1  0.2366700E-004  0.6552837E+03  0.7818608E-02  0.9796915E-01
         13   -1    0    0    0    0  0.00000000000E+00  0.00000000000E+00  0.10000000000E+04  0.10000000000E+04  0.00000000000E+00 0. -1.
          2   -1    0    0  501    0 -0.00000000000E+00 -0.00000000000E+00 -0.10734917319E+03  0.10734917319E+03  0.00000000000E+00 0. -1.
    9000006    2    1    2  501    0  0.00000000000E+00  0.00000000000E+00  0.89265082681E+03  0.11073491732E+04  0.65528367349E+03 0.  0.
         13    1    3    3    0    0 -0.32623447675E+03 -0.12736756043E+02  0.49285122633E+03  0.59117974430E+03  0.00000000000E+00 0. -1.
          2    1    3    3  501    0  0.32623447675E+03  0.12736756043E+02  0.39979960048E+03  0.51616942889E+03  0.00000000000E+00 0. -1.
<mgrwt>
<rscale>  0 0.65528367E+03</rscale>
<asrwt>0</asrwt>
<pdfrwt beam="1">0</pdfrwt>
<pdfrwt beam="2">  1        2 0.39036145E+00 0.65528367E+03</pdfrwt>
<totfact> 0.43253433E+00</totfact>
</mgrwt>
</event>
<event>
 5    1  0.2366700E-004  0.6498907E+03  0.7818608E-02  0.9806984E-01
         13   -1    0    0    0    0  0.00000000000E+00  0.00000000000E+00  0.10000000000E+04  0.10000000000E+04  0.00000000000E+00 0. -1.
          2   -1    0    0  501    0 -0.00000000000E+00 -0.00000000000E+00 -0.10558948889E+03  0.10558948889E+03  0.00000000000E+00 0. -1.
    9000006    2    1    2  501    0  0.00000000000E+00  0.00000000000E+00  0.89441051111E+03  0.11055894889E+04  0.64989072587E+03 0.  0.
         13    1    3    3    0    0  0.29468947940E+03  0.28327993619E+02  0.21931445278E+03  0.36843343183E+03  0.00000000000E+00 0. -1.
          4    1    3    3  501    0 -0.29468947940E+03 -0.28327993619E+02  0.67509605833E+03  0.73715605706E+03  0.00000000000E+00 0. -1.
<mgrwt>
<rscale>  0 0.64989073E+03</rscale>
<asrwt>0</asrwt>
<pdfrwt beam="1">0</pdfrwt>
<pdfrwt beam="2">  1        2 0.38396259E+00 0.64989073E+03</pdfrwt>
<totfact> 0.45703432E+00</totfact>
</mgrwt>
</event>
<event>
 5    1  0.2366700E-004  0.6564116E+03  0.7818608E-02  0.9794822E-01
         13   -1    0    0    0    0  0.00000000000E+00  0.00000000000E+00  0.10000000000E+04  0.10000000000E+04  0.00000000000E+00 0. -1.
          2   -1    0    0  501    0 -0.00000000000E+00 -0.00000000000E+00 -0.10771906066E+03  0.10771906066E+03  0.00000000000E+00 0. -1.
    9000006    2    1    2  501    0  0.00000000000E+00  0.00000000000E+00  0.89228093934E+03  0.11077190607E+04  0.65641164116E+03 0.  0.
         13    1    3    3    0    0  0.17663989391E+03  0.20040163378E+03  0.12437091623E+03  0.29467031026E+03  0.00000000000E+00 0. -1.
          4    1    3    3  501    0 -0.17663989391E+03 -0.20040163378E+03  0.76791002311E+03  0.81304875040E+03  0.00000000000E+00 0. -1.
<mgrwt>
<rscale>  0 0.65641164E+03</rscale>
<asrwt>0</asrwt>
<pdfrwt beam="1">0</pdfrwt>
<pdfrwt beam="2">  1        2 0.39170650E+00 0.65641164E+03</pdfrwt>
<totfact> 0.42753807E+00</totfact>
</mgrwt>
</event>
<event>
 5    1  0.2366700E-004  0.6507353E+03  0.7818608E-02  0.9805400E-01
         13   -1    0    0    0    0  0.00000000000E+00  0.00000000000E+00  0.10000000000E+04  0.10000000000E+04  0.00000000000E+00 0. -1.
          2   -1    0    0  501    0 -0.00000000000E+00 -0.00000000000E+00 -0.10586412035E+03  0.10586412035E+03  0.00000000000E+00 0. -1.
    9000006    2    1    2  501    0  0.00000000000E+00  0.00000000000E+00  0.89413587965E+03  0.11058641203E+04  0.65073533898E+03 0.  0.
         13    1    3    3    0    0 -0.24791417390E+03 -0.32139556682E+02  0.80097623553E+03  0.83908123481E+03  0.00000000000E+00 0. -1.
          4    1    3    3  501    0  0.24791417390E+03  0.32139556682E+02  0.93159644118E+02  0.26678288554E+03  0.00000000000E+00 0. -1.
<mgrwt>
<rscale>  0 0.65073534E+03</rscale>
<asrwt>0</asrwt>
<pdfrwt beam="1">0</pdfrwt>
<pdfrwt beam="2">  1        2 0.38496125E+00 0.65073534E+03</pdfrwt>
<totfact> 0.45312970E+00</totfact>
</mgrwt>
</event>
<event>
 5    1  0.2366700E-004  0.6480780E+03  0.7818608E-02  0.9810392E-01
         13   -1    0    0    0    0  0.00000000000E+00  0.00000000000E+00  0.10000000000E+04  0.10000000000E+04  0.00000000000E+00 0. -1.
          2   -1    0    0  501    0 -0.00000000000E+00 -0.00000000000E+00 -0.10500126514E+03  0.10500126514E+03  0.00000000000E+00 0. -1.
    9000006    2    1    2  501    0  0.00000000000E+00  0.00000000000E+00  0.89499873486E+03  0.11050012651E+04  0.64807797413E+03 0.  0.
         13    1    3    3    0    0 -0.12276566762E+03  0.13873384646E+03  0.90080624897E+03  0.91965775562E+03  0.00000000000E+00 0. -1.
          2    1    3    3  501    0  0.12276566762E+03 -0.13873384646E+03 -0.58075141039E+01  0.18534350952E+03  0.00000000000E+00 0. -1.
<mgrwt>
<rscale>  0 0.64807797E+03</rscale>
<asrwt>0</asrwt>
<pdfrwt beam="1">0</pdfrwt>
<pdfrwt beam="2">  1        2 0.38182359E+00 0.64807797E+03</pdfrwt>
<totfact> 0.46550044E+00</totfact>
</mgrwt>
</event>
<event>
 5    1  0.2366700E-004  0.6522173E+03  0.7818608E-02  0.9802627E-01
         13   -1    0    0    0    0  0.00000000000E+00  0.00000000000E+00  0.10000000000E+04  0.10000000000E+04  0.00000000000E+00 0. -1.
          2   -1    0    0  501    0 -0.00000000000E+00 -0.00000000000E+00 -0.10634684814E+03  0.10634684814E+03  0.00000000000E+00 0. -1.
    9000006    2    1    2  501    0  0.00000000000E+00  0.00000000000E+00  0.89365315186E+03  0.11063468481E+04  0.65221728939E+03 0.  0.
         13    1    3    3    0    0  0.11388408050E+03 -0.28935840298E+03  0.61345138926E+03  0.68776484074E+03  0.00000000000E+00 0. -1.
          2    1    3    3  501    0 -0.11388408050E+03  0.28935840298E+03  0.28020176260E+03  0.41858200741E+03  0.00000000000E+00 0. -1.
<mgrwt>
<rscale>  0 0.65221729E+03</rscale>
<asrwt>0</asrwt>
<pdfrwt beam="1">0</pdfrwt>
<pdfrwt beam="2">  1        2 0.38671663E+00 0.65221729E+03</pdfrwt>
<totfact> 0.44633967E+00</totfact>
</mgrwt>
</event>
<event>
 5    1  0.2366700E-004  0.6431849E+03  0.7818608E-02  0.9819652E-01
         13   -1    0    0    0    0  0.00000000000E+00  0.00000000000E+00  0.10000000000E+04  0.10000000000E+04  0.00000000000E+00 0. -1.
          2   -1    0    0  501    0 -0.00000000000E+00 -0.00000000000E+00 -0.10342169073E+03  0.10342169073E+03  0.00000000000E+00 0. -1.
    9000006    2    1    2  501    0  0.00000000000E+00  0.00000000000E+00  0.89657830927E+03  0.11034216907E+04  0.64318485907E+03 0.  0.
         13    1    3    3    0    0  0.18199886544E+03  0.21414944298E+03  0.71647731373E+03  0.76962543619E+03  0.00000000000E+00 0. -1.
          2    1    3    3  501    0 -0.18199886544E+03 -0.21414944298E+03  0.18010099554E+03  0.33379625454E+03  0.00000000000E+00 0. -1.
<mgrwt>
<rscale>  0 0.64318486E+03</rscale>
<asrwt>0</asrwt>
<pdfrwt beam="1">0</pdfrwt>
<pdfrwt beam="2">  1        2 0.37607967E+00 0.64318486E+03</pdfrwt>
<totfact> 0.48894544E+00</totfact>
</mgrwt>
</event>
<event>
 5    1  0.2366700E-004  0.6530989E+03  0.7818608E-02  0.9800982E-01
         13   -1    0    0    0    0  0.00000000000E+00  0.00000000000E+00  0.10000000000E+04  0.10000000000E+04  0.00000000000E+00 0. -1.
          2   -1    0    0  501    0 -0.00000000000E+00 -0.00000000000E+00 -0.10663455492E+03  0.10663455492E+03  0.00000000000E+00 0. -1.
    9000006    2    1    2  501    0  0.00000000000E+00  0.00000000000E+00  0.89336544508E+03  0.11066345549E+04  0.65309893560E+03 0.  0.
         13    1    3    3    0    0  0.17877170507E+03  0.19722833013E+02  0.90850985706E+03  0.92614171326E+03  0.00000000000E+00 0. -1.
          4    1    3    3  501    0 -0.17877170507E+03 -0.19722833013E+02 -0.15144411977E+02  0.18049284166E+03  0.00000000000E+00 0. -1.
<mgrwt>
<rscale>  0 0.65309894E+03</rscale>
<asrwt>0</asrwt>
<pdfrwt beam="1">0</pdfrwt>
<pdfrwt beam="2">  1        2 0.38776284E+00 0.65309894E+03</pdfrwt>
<totfact> 0.44233677E+00</totfact>
</mgrwt>
</event>
<event>
 5    1  0.2366700E-004  0.6626248E+03  0.7818608E-02  0.9783374E-01
         13   -1    0    0    0    0  0.00000000000E+00  0.00000000000E+00  0.10000000000E+04  0.10000000000E+04  0.00000000000E+00 0. -1.
          2   -1    0    0  501    0 -0.00000000000E+00 -0.00000000000E+00 -0.10976790573E+03  0.10976790573E+03  0.00000000000E+00 0. -1.
    9000006    2    1    2  501    0  0.00000000000E+00  0.00000000000E+00  0.89023209427E+03  0.11097679057E+04  0.66262479800E+03 0.  0.
         13    1    3    3    0    0  0.40084502848E+02  0.32725252061E+03  0.49982162986E+03  0.59876760207E+03  0.00000000000E+00 0. -1.
          2    1    3    3  501    0 -0.40084502848E+02 -0.32725252061E+03  0.39041046441E+03  0.51100030366E+03  0.00000000000E+00 0. -1.
<mgrwt>
<rscale>  0 0.66262480E+03</rscale>
<asrwt>0</asrwt>
<pdfrwt beam="1">0</pdfrwt>
<pdfrwt beam="2">  1        2 0.39915686E+00 0.66262480E+03</pdfrwt>
<totfact> 0.40079516E+00</totfact>
</mgrwt>
</event>
<event>
 5    1  0.2366700E-004  0.6417695E+03  0.7818608E-02  0.9822347E-01
         13   -1    0    0    0    0  0.00000000000E+00  0.00000000000E+00  0.10000000000E+04  0.10000000000E+04  0.00000000000E+00 0. -1.
          2   -1    0    0  501    0 -0.00000000000E+00 -0.00000000000E+00 -0.10296702210E+03  0.10296702210E+03  0.00000000000E+00 0. -1.
    9000006    2    1    2  501    0  0.00000000000E+00  0.00000000000E+00  0.89703297790E+03  0.11029670221E+04  0.64176949787E+03 0.  0.
         13    1    3    3    0    0  0.63925929537E+02 -0.11080103709E+03 -0.57251685697E+02  0.14014688652E+03  0.00000000000E+00 0. -1.
          2    1    3    3  501    0 -0.63925929537E+02  0.11080103709E+03  0.95428466360E+03  0.96282013557E+03  0.00000000000E+00 0. -1.
<mgrwt>
<rscale>  0 0.64176950E+03</rscale>
<asrwt>0</asrwt>
<pdfrwt beam="1">0</pdfrwt>
<pdfrwt beam="2">  1        2 0.37442632E+00 0.64176950E+03</pdfrwt>
<totfact> 0.49589110E+00</totfact>
</mgrwt>
</event>
<event>
 5    1  0.2366700E-004  0.6389010E+03  0.7818608E-02  0.9827832E-01
         13   -1    0    0    0    0  0.00000000000E+00  0.00000000000E+00  0.10000000000E+04  0.10000000000E+04  0.00000000000E+00 0. -1.
          2   -1    0    0  501    0 -0.00000000000E+00 -0.00000000000E+00 -0.10204861485E+03  0.10204861485E+03  0.00000000000E+00 0. -1.
    9000006    2    1    2  501    0  0.00000000000E+00  0.00000000000E+00  0.89795138515E+03  0.11020486148E+04  0.63890097777E+03 0.  0.
         13    1    3    3    0    0 -0.26100690062E+03  0.13466071563E+03  0.23222265068E+03  0.37441350135E+03  0.00000000000E+00 0. -1.
          4    1    3    3  501    0  0.26100690062E+03 -0.13466071563E+03  0.66572873447E+03  0.72763511350E+03  0.00000000000E+00 0. -1.
<mgrwt>
<rscale>  0 0.63890098E+03</rscale>
<asrwt>0</asrwt>
<pdfrwt beam="1">0</pdfrwt>
<pdfrwt beam="2">  1        2 0.37108665E+00 0.63890098E+03</pdfrwt>
<totfact> 0.51019727E+00</totfact>
</mgrwt>
</event>
<event>
 5    1  0.2366700E-004  0.6533158E+03  0.7818608E-02  0.9800577E-01
         13   -1    0    0    0    0  0.00000000000E+00  0.00000000000E+00  0.10000000000E+04  0.10000000000E+04  0.00000000000E+00 0. -1.
          2   -1    0    0  501    0 -0.00000000000E+00 -0.00000000000E+00 -0.10670538327E+03  0.10670538327E+03  0.00000000000E+00 0. -1.
    9000006    2    1    2  501    0  0.00000000000E+00  0.00000000000E+00  0.89329461673E+03  0.11067053833E+04  0.65331579889E+03 0.  0.
         13    1    3    3    0    0 -0.18086208472E+03 -0.11248997969E+03  0.86619543724E+03  0.89199754748E+03  0.00000000000E+00 0. -1.
          4    1    3    3  501    0  0.18086208472E+03  0.11248997969E+03  0.27099179489E+02  0.21470783579E+03  0.00000000000E+00 0. -1.
<mgrwt>
<rscale>  0 0.65331580E+03</rscale>
<asrwt>0</asrwt>
<pdfrwt beam="1">0</pdfrwt>
<pdfrwt beam="2">  1        2 0.38802039E+00 0.65331580E+03</pdfrwt>
<totfact> 0.44135632E+00</totfact>
</mgrwt>
</event>
<event>
 5    1  0.2366700E-004  0.7477579E+03  0.7818608E-02  0.9638874E-01
         13   -1    0    0    0    0  0.00000000000E+00  0.00000000000E+00  0.10000000000E+04  0.10000000000E+04  0.00000000000E+00 0. -1.
          2   -1    0    0  501    0 -0.00000000000E+00 -0.00000000000E+00 -0.13978548295E+03  0.13978548295E+03  0.00000000000E+00 0. -1.
    9000006    2    1    2  501    0  0.00000000000E+00  0.00000000000E+00  0.86021451705E+03  0.11397854829E+04  0.74775793663E+03 0.  0.
         13    1    3    3    0    0 -0.14682069117E+03  0.33205557209E+03  0.56617148732E+03  0.67258261304E+03  0.00000000000E+00 0. -1.
          2    1    3    3  501    0  0.14682069117E+03 -0.33205557209E+03  0.29404302974E+03  0.46720286991E+03  0.00000000000E+00 0. -1.
<mgrwt>
<rscale>  0 0.74775794E+03</rscale>
<asrwt>0</asrwt>
<pdfrwt beam="1">0</pdfrwt>
<pdfrwt beam="2">  1        2 0.50831192E+00 0.74775794E+03</pdfrwt>
<totfact> 0.14634938E+00</totfact>
</mgrwt>
</event>
<event>
 5    1  0.2366700E-004  0.6513989E+03  0.7818608E-02  0.9804158E-01
         13   -1    0    0    0    0  0.00000000000E+00  0.00000000000E+00  0.10000000000E+04  0.10000000000E+04  0.00000000000E+00 0. -1.
          2   -1    0    0  501    0 -0.00000000000E+00 -0.00000000000E+00 -0.10608014308E+03  0.10608014308E+03  0.00000000000E+00 0. -1.
    9000006    2    1    2  501    0  0.00000000000E+00  0.00000000000E+00  0.89391985692E+03  0.11060801431E+04  0.65139893483E+03 0.  0.
         13    1    3    3    0    0  0.31963704081E+03  0.17901721189E+01  0.34079575823E+03  0.46723954391E+03  0.00000000000E+00 0. -1.
          4    1    3    3  501    0 -0.31963704081E+03 -0.17901721189E+01  0.55312409870E+03  0.63884059916E+03  0.00000000000E+00 0. -1.
<mgrwt>
<rscale>  0 0.65139893E+03</rscale>
<asrwt>0</asrwt>
<pdfrwt beam="1">0</pdfrwt>
<pdfrwt beam="2">  1        2 0.38574679E+00 0.65139893E+03</pdfrwt>
<totfact> 0.45007965E+00</totfact>
</mgrwt>
</event>
<event>
 5    1  0.2366700E-004  0.6459272E+03  0.7818608E-02  0.9814452E-01
         13   -1    0    0    0    0  0.00000000000E+00  0.00000000000E+00  0.10000000000E+04  0.10000000000E+04  0.00000000000E+00 0. -1.
          2   -1    0    0  501    0 -0.00000000000E+00 -0.00000000000E+00 -0.10430548860E+03  0.10430548860E+03  0.00000000000E+00 0. -1.
    9000006    2    1    2  501    0  0.00000000000E+00  0.00000000000E+00  0.89569451140E+03  0.11043054886E+04  0.64592720519E+03 0.  0.
         13    1    3    3    0    0 -0.17038796444E+03 -0.64109865127E+02 -0.82252195473E+01  0.18223552746E+03  0.00000000000E+00 0. -1.
          2    1    3    3  501    0  0.17038796444E+03  0.64109865127E+02  0.90391973095E+03  0.92206996114E+03  0.00000000000E+00 0. -1.
<mgrwt>
<rscale>  0 0.64592721E+03</rscale>
<asrwt>0</asrwt>
<pdfrwt beam="1">0</pdfrwt>
<pdfrwt beam="2">  1        2 0.37929349E+00 0.64592721E+03</pdfrwt>
<totfact> 0.47569840E+00</totfact>
</mgrwt>
</event>
<event>
 5    1  0.2366700E-004  0.6409595E+03  0.7818608E-02  0.9823892E-01
         13   -1    0    0    0    0  0.00000000000E+00  0.00000000000E+00  0.10000000000E+04  0.10000000000E+04  0.00000000000E+00 0. -1.
          2   -1    0    0  501    0 -0.00000000000E+00 -0.00000000000E+00 -0.10270727698E+03  0.10270727698E+03  0.00000000000E+00 0. -1.
    9000006    2    1    2  501    0  0.00000000000E+00  0.00000000000E+00  0.89729272302E+03  0.11027072770E+04  0.64095952128E+03 0.  0.
         13    1    3    3    0    0 -0.22035555563E+03 -0.19956762618E+03  0.65454512496E+03  0.71889716158E+03  0.00000000000E+00 0. -1.
          4    1    3    3  501    0  0.22035555563E+03  0.19956762618E+03  0.24274759806E+03  0.38381011540E+03  0.00000000000E+00 0. -1.
<mgrwt>
<rscale>  0 0.64095952E+03</rscale>
<asrwt>0</asrwt>
<pdfrwt beam="1">0</pdfrwt>
<pdfrwt beam="2">  1        2 0.37348179E+00 0.64095952E+03</pdfrwt>
<totfact> 0.49989951E+00</totfact>
</mgrwt>
</event>
<event>
 5    1  0.2366700E-004  0.6374176E+03  0.7818608E-02  0.9830680E-01
         13   -1    0    0    0    0  0.00000000000E+00  0.00000000000E+00  0.10000000000E+04  0.10000000000E+04  0.00000000000E+00 0. -1.
          2   -1    0    0  501    0 -0.00000000000E+00 -0.00000000000E+00 -0.10157529475E+03  0.10157529475E+03  0.00000000000E+00 0. -1.
    9000006    2    1    2  501    0  0.00000000000E+00  0.00000000000E+00  0.89842470525E+03  0.11015752947E+04  0.63741758604E+03 0.  0.
         13    1    3    3    0    0  0.20929317484E+03  0.12770530467E+03  0.80111342905E+03  0.83779174266E+03  0.00000000000E+00 0. -1.
          2    1    3    3  501    0 -0.20929317484E+03 -0.12770530467E+03  0.97311276205E+02  0.26378355209E+03  0.00000000000E+00 0. -1.
<mgrwt>
<rscale>  0 0.63741759E+03</rscale>
<asrwt>0</asrwt>
<pdfrwt beam="1">0</pdfrwt>
<pdfrwt beam="2">  1        2 0.36936549E+00 0.63741759E+03</pdfrwt>
<totfact> 0.51771688E+00</totfact>
</mgrwt>
</event>
<event>
 5    1  0.2366700E-004  0.5631433E+03  0.7818608E-02  0.9984967E-01
         13   -1    0    0    0    0  0.00000000000E+00  0.00000000000E+00  0.10000000000E+04  0.10000000000E+04  0.00000000000E+00 0. -1.
          2   -1    0    0  501    0 -0.00000000000E+00 -0.00000000000E+00 -0.79282602516E+02  0.79282602516E+02  0.00000000000E+00 0. -1.
    9000006    2    1    2  501    0  0.00000000000E+00  0.00000000000E+00  0.92071739748E+03  0.10792826025E+04  0.56314332995E+03 0.  0.
         13    1    3    3    0    0  0.20917704101E+03 -0.20615988133E+02  0.81943402147E+03  0.84596227397E+03  0.00000000000E+00 0. -1.
          2    1    3    3  501    0 -0.20917704101E+03  0.20615988133E+02  0.10128337602E+03  0.23332032854E+03  0.00000000000E+00 0. -1.
<mgrwt>
<rscale>  0 0.56314333E+03</rscale>
<asrwt>0</asrwt>
<pdfrwt beam="1">0</pdfrwt>
<pdfrwt beam="2">  1        2 0.28830098E+00 0.56314333E+03</pdfrwt>
<totfact> 0.10166153E+01</totfact>
</mgrwt>
</event>
<event>
 5    1  0.2366700E-004  0.6510492E+03  0.7818608E-02  0.9804813E-01
         13   -1    0    0    0    0  0.00000000000E+00  0.00000000000E+00  0.10000000000E+04  0.10000000000E+04  0.00000000000E+00 0. -1.
          2   -1    0    0  501    0 -0.00000000000E+00 -0.00000000000E+00 -0.10596624970E+03  0.10596624970E+03  0.00000000000E+00 0. -1.
    9000006    2    1    2  501    0  0.00000000000E+00  0.00000000000E+00  0.89403375030E+03  0.11059662497E+04  0.65104915237E+03 0.  0.
         13    1    3    3    0    0  0.26751121606E+03  0.18477843900E+03  0.41957662967E+03  0.53080115901E+03  0.00000000000E+00 0. -1.
          4    1    3    3  501    0 -0.26751121606E+03 -0.18477843900E+03  0.47445712063E+03  0.57516509069E+03  0.00000000000E+00 0. -1.
<mgrwt>
<rscale>  0 0.65104915E+03</rscale>
<asrwt>0</asrwt>
<pdfrwt beam="1">0</pdfrwt>
<pdfrwt beam="2">  1        2 0.38533263E+00 0.65104915E+03</pdfrwt>
<totfact> 0.45168540E+00</totfact>
</mgrwt>
</event>
<event>
 5    1  0.2366700E-004  0.6491541E+03  0.7818608E-02  0.9808368E-01
         13   -1    0    0    0    0  0.00000000000E+00  0.00000000000E+00  0.10000000000E+04  0.10000000000E+04  0.00000000000E+00 0. -1.
          2   -1    0    0  501    0 -0.00000000000E+00 -0.00000000000E+00 -0.10535026732E+03  0.10535026732E+03  0.00000000000E+00 0. -1.
    9000006    2    1    2  501    0  0.00000000000E+00  0.00000000000E+00  0.89464973268E+03  0.11053502673E+04  0.64915411830E+03 0.  0.
         13    1    3    3    0    0  0.74036827513E+02  0.41953475011E+02  0.98066702203E+03  0.98435225097E+03  0.00000000000E+00 0. -1.
          2    1    3    3  501    0 -0.74036827513E+02 -0.41953475011E+02 -0.86017289355E+02  0.12099801635E+03  0.00000000000E+00 0. -1.
<mgrwt>
<rscale>  0 0.64915412E+03</rscale>
<asrwt>0</asrwt>
<pdfrwt beam="1">0</pdfrwt>
<pdfrwt beam="2">  1        2 0.38309269E+00 0.64915412E+03</pdfrwt>
<totfact> 0.46046035E+00</totfact>
</mgrwt>
</event>
<event>
 5    1  0.2366700E-004  0.6508637E+03  0.7818608E-02  0.9805160E-01
         13   -1    0    0    0    0  0.00000000000E+00  0.00000000000E+00  0.10000000000E+04  0.10000000000E+04  0.00000000000E+00 0. -1.
          2   -1    0    0  501    0 -0.00000000000E+00 -0.00000000000E+00 -0.10590589016E+03  0.10590589016E+03  0.00000000000E+00 0. -1.
    9000006    2    1    2  501    0  0.00000000000E+00  0.00000000000E+00  0.89409410984E+03  0.11059058902E+04  0.65086370358E+03 0.  0.
         13    1    3    3    0    0 -0.27220176701E+03  0.17262890851E+03  0.37084411219E+03  0.49134498834E+03  0.00000000000E+00 0. -1.
          2    1    3    3  501    0  0.27220176701E+03 -0.17262890851E+03  0.52324999764E+03  0.61456090182E+03  0.00000000000E+00 0. -1.
<mgrwt>
<rscale>  0 0.65086370E+03</rscale>
<asrwt>0</asrwt>
<pdfrwt beam="1">0</pdfrwt>
<pdfrwt beam="2">  1        2 0.38511314E+00 0.65086370E+03</pdfrwt>
<totfact> 0.45253849E+00</totfact>
</mgrwt>
</event>
<event>
 5    1  0.2366700E-004  0.5164084E+03  0.7818608E-02  0.1009583E+00
         13   -1    0    0    0    0  0.00000000000E+00  0.00000000000E+00  0.10000000000E+04  0.10000000000E+04  0.00000000000E+00 0. -1.
          2   -1    0    0  501    0 -0.00000000000E+00 -0.00000000000E+00 -0.66669397797E+02  0.66669397797E+02  0.00000000000E+00 0. -1.
    9000006    2    1    2  501    0  0.00000000000E+00  0.00000000000E+00  0.93333060220E+03  0.10666693978E+04  0.51640835701E+03 0.  0.
         13    1    3    3    0    0 -0.48845146677E+02  0.62698691047E+02 -0.40773802476E+02  0.89327919383E+02  0.00000000000E+00 0. -1.
          2    1    3    3  501    0  0.48845146677E+02 -0.62698691047E+02  0.97410440468E+03  0.97734147841E+03  0.00000000000E+00 0. -1.
<mgrwt>
<rscale>  0 0.51640836E+03</rscale>
<asrwt>0</asrwt>
<pdfrwt beam="1">0</pdfrwt>
<pdfrwt beam="2">  1        2 0.24243469E+00 0.51640836E+03</pdfrwt>
<totfact> 0.14842342E+01</totfact>
</mgrwt>
</event>
<event>
 5    1  0.2366700E-004  0.6423597E+03  0.7818608E-02  0.9821222E-01
         13   -1    0    0    0    0  0.00000000000E+00  0.00000000000E+00  0.10000000000E+04  0.10000000000E+04  0.00000000000E+00 0. -1.
          2   -1    0    0  501    0 -0.00000000000E+00 -0.00000000000E+00 -0.10315649470E+03  0.10315649470E+03  0.00000000000E+00 0. -1.
    9000006    2    1    2  501    0  0.00000000000E+00  0.00000000000E+00  0.89684350530E+03  0.11031564947E+04  0.64235969582E+03 0.  0.
         13    1    3    3    0    0  0.16862672422E+02 -0.13093365731E+03  0.95125213556E+03  0.96036899041E+03  0.00000000000E+00 0. -1.
          4    1    3    3  501    0 -0.16862672422E+02  0.13093365731E+03 -0.54408630261E+02  0.14278750430E+03  0.00000000000E+00 0. -1.
<mgrwt>
<rscale>  0 0.64235970E+03</rscale>
<asrwt>0</asrwt>
<pdfrwt beam="1">0</pdfrwt>
<pdfrwt beam="2">  1        2 0.37511532E+00 0.64235970E+03</pdfrwt>
<totfact> 0.49298569E+00</totfact>
</mgrwt>
</event>
<event>
 5    1  0.2366700E-004  0.6576116E+03  0.7818608E-02  0.9792600E-01
         13   -1    0    0    0    0  0.00000000000E+00  0.00000000000E+00  0.10000000000E+04  0.10000000000E+04  0.00000000000E+00 0. -1.
          2   -1    0    0  501    0 -0.00000000000E+00 -0.00000000000E+00 -0.10811326345E+03  0.10811326345E+03  0.00000000000E+00 0. -1.
    9000006    2    1    2  501    0  0.00000000000E+00  0.00000000000E+00  0.89188673655E+03  0.11081132635E+04  0.65761162841E+03 0.  0.
         13    1    3    3    0    0  0.60204150386E+01 -0.20098867034E+03  0.88431927856E+03  0.90689209801E+03  0.00000000000E+00 0. -1.
          2    1    3    3  501    0 -0.60204150386E+01  0.20098867034E+03  0.75674579858E+01  0.20122116544E+03  0.00000000000E+00 0. -1.
<mgrwt>
<rscale>  0 0.65761163E+03</rscale>
<asrwt>0</asrwt>
<pdfrwt beam="1">0</pdfrwt>
<pdfrwt beam="2">  1        2 0.39313997E+00 0.65761163E+03</pdfrwt>
<totfact> 0.42227078E+00</totfact>
</mgrwt>
</event>
<event>
 5    1  0.2366700E-004  0.6498169E+03  0.7818608E-02  0.9807123E-01
         13   -1    0    0    0    0  0.00000000000E+00  0.00000000000E+00  0.10000000000E+04  0.10000000000E+04  0.00000000000E+00 0. -1.
          2   -1    0    0  501    0 -0.00000000000E+00 -0.00000000000E+00 -0.10556551064E+03  0.10556551064E+03  0.00000000000E+00 0. -1.
    9000006    2    1    2  501    0  0.00000000000E+00  0.00000000000E+00  0.89443448936E+03  0.11055655106E+04  0.64981693003E+03 0.  0.
         13    1    3    3    0    0  0.14305354579E+03  0.28006078303E+03  0.30829761362E+03  0.44039275394E+03  0.00000000000E+00 0. -1.
          2    1    3    3  501    0 -0.14305354579E+03 -0.28006078303E+03  0.58613687574E+03  0.66517275670E+03  0.00000000000E+00 0. -1.
<mgrwt>
<rscale>  0 0.64981693E+03</rscale>
<asrwt>0</asrwt>
<pdfrwt beam="1">0</pdfrwt>
<pdfrwt beam="2">  1        2 0.38387539E+00 0.64981693E+03</pdfrwt>
<totfact> 0.45737668E+00</totfact>
</mgrwt>
</event>
<event>
 5    1  0.2366700E-004  0.6026097E+03  0.7818608E-02  0.9900007E-01
         13   -1    0    0    0    0  0.00000000000E+00  0.00000000000E+00  0.10000000000E+04  0.10000000000E+04  0.00000000000E+00 0. -1.
          2   -1    0    0  501    0 -0.00000000000E+00 -0.00000000000E+00 -0.90784612683E+02  0.90784612683E+02  0.00000000000E+00 0. -1.
    9000006    2    1    2  501    0  0.00000000000E+00  0.00000000000E+00  0.90921538732E+03  0.10907846127E+04  0.60260970016E+03 0.  0.
         13    1    3    3    0    0 -0.28004376115E+03  0.73134091351E+02  0.30303930312E+03  0.41905360362E+03  0.00000000000E+00 0. -1.
          2    1    3    3  501    0  0.28004376115E+03 -0.73134091351E+02  0.60617608420E+03  0.67173100906E+03  0.00000000000E+00 0. -1.
<mgrwt>
<rscale>  0 0.60260970E+03</rscale>
<asrwt>0</asrwt>
<pdfrwt beam="1">0</pdfrwt>
<pdfrwt beam="2">  1        2 0.33012656E+00 0.60260970E+03</pdfrwt>
<totfact> 0.71967700E+00</totfact>
</mgrwt>
</event>
<event>
 5    1  0.2366700E-004  0.6454032E+03  0.7818608E-02  0.9815443E-01
         13   -1    0    0    0    0  0.00000000000E+00  0.00000000000E+00  0.10000000000E+04  0.10000000000E+04  0.00000000000E+00 0. -1.
          2   -1    0    0  501    0 -0.00000000000E+00 -0.00000000000E+00 -0.10413632034E+03  0.10413632034E+03  0.00000000000E+00 0. -1.
    9000006    2    1    2  501    0  0.00000000000E+00  0.00000000000E+00  0.89586367966E+03  0.11041363203E+04  0.64540319287E+03 0.  0.
         13    1    3    3    0    0 -0.24372019504E+03 -0.15087351176E+03  0.70152985690E+03  0.75783011958E+03  0.00000000000E+00 0. -1.
          4    1    3    3  501    0  0.24372019504E+03  0.15087351176E+03  0.19433382276E+03  0.34630620076E+03  0.00000000000E+00 0. -1.
<mgrwt>
<rscale>  0 0.64540319E+03</rscale>
<asrwt>0</asrwt>
<pdfrwt beam="1">0</pdfrwt>
<pdfrwt beam="2">  1        2 0.37867833E+00 0.64540319E+03</pdfrwt>
<totfact> 0.47820842E+00</totfact>
</mgrwt>
</event>
<event>
 5    1  0.2366700E-004  0.6506030E+03  0.7818608E-02  0.9805648E-01
         13   -1    0    0    0    0  0.00000000000E+00  0.00000000000E+00  0.10000000000E+04  0.10000000000E+04  0.00000000000E+00 0. -1.
          2   -1    0    0  501    0 -0.00000000000E+00 -0.00000000000E+00 -0.10582107314E+03  0.10582107314E+03  0.00000000000E+00 0. -1.
    9000006    2    1    2  501    0  0.00000000000E+00  0.00000000000E+00  0.89417892686E+03  0.11058210731E+04  0.65060302225E+03 0.  0.
         13    1    3    3    0    0 -0.19761866595E+02  0.14332588379E+03 -0.48124100749E+02  0.15247547150E+03  0.00000000000E+00 0. -1.
          4    1    3    3  501    0  0.19761866595E+02 -0.14332588379E+03  0.94230302761E+03  0.95334560164E+03  0.00000000000E+00 0. -1.
<mgrwt>
<rscale>  0 0.65060302E+03</rscale>
<asrwt>0</asrwt>
<pdfrwt beam="1">0</pdfrwt>
<pdfrwt beam="2">  1        2 0.38480471E+00 0.65060302E+03</pdfrwt>
<totfact> 0.45373973E+00</totfact>
</mgrwt>
</event>
<event>
 5    1  0.2366700E-004  0.6530050E+03  0.7818608E-02  0.9801157E-01
         13   -1    0    0    0    0  0.00000000000E+00  0.00000000000E+00  0.10000000000E+04  0.10000000000E+04  0.00000000000E+00 0. -1.
          2   -1    0    0  501    0 -0.00000000000E+00 -0.00000000000E+00 -0.10660387831E+03  0.10660387831E+03  0.00000000000E+00 0. -1.
    9000006    2    1    2  501    0  0.00000000000E+00  0.00000000000E+00  0.89339612169E+03  0.11066038783E+04  0.65300498714E+03 0.  0.
         13    1    3    3    0    0  0.24050639952E+03  0.10733677660E+03  0.11967616498E+03  0.28928687541E+03  0.00000000000E+00 0. -1.
          4    1    3    3  501    0 -0.24050639952E+03 -0.10733677660E+03  0.77371995671E+03  0.81731700290E+03  0.00000000000E+00 0. -1.
<mgrwt>
<rscale>  0 0.65300499E+03</rscale>
<asrwt>0</asrwt>
<pdfrwt beam="1">0</pdfrwt>
<pdfrwt beam="2">  1        2 0.38765128E+00 0.65300499E+03</pdfrwt>
<totfact> 0.44276202E+00</totfact>
</mgrwt>
</event>
<event>
 5    1  0.2366700E-004  0.6371290E+03  0.7818608E-02  0.9831235E-01
         13   -1    0    0    0    0  0.00000000000E+00  0.00000000000E+00  0.10000000000E+04  0.10000000000E+04  0.00000000000E+00 0. -1.
          2   -1    0    0  501    0 -0.00000000000E+00 -0.00000000000E+00 -0.10148333146E+03  0.10148333146E+03  0.00000000000E+00 0. -1.
    9000006    2    1    2  501    0  0.00000000000E+00  0.00000000000E+00  0.89851666854E+03  0.11014833315E+04  0.63712897113E+03 0.  0.
         13    1    3    3    0    0 -0.63729718833E+02  0.31202507247E+03  0.43562269133E+03  0.53961861727E+03  0.00000000000E+00 0. -1.
          4    1    3    3  501    0  0.63729718833E+02 -0.31202507247E+03  0.46289397721E+03  0.56186471419E+03  0.00000000000E+00 0. -1.
<mgrwt>
<rscale>  0 0.63712897E+03</rscale>
<asrwt>0</asrwt>
<pdfrwt beam="1">0</pdfrwt>
<pdfrwt beam="2">  1        2 0.36903107E+00 0.63712897E+03</pdfrwt>
<totfact> 0.51918963E+00</totfact>
</mgrwt>
</event>
<event>
 5    1  0.2366700E-004  0.6523736E+03  0.7818608E-02  0.9802335E-01
         13   -1    0    0    0    0  0.00000000000E+00  0.00000000000E+00  0.10000000000E+04  0.10000000000E+04  0.00000000000E+00 0. -1.
          2   -1    0    0  501    0 -0.00000000000E+00 -0.00000000000E+00 -0.10639783370E+03  0.10639783370E+03  0.00000000000E+00 0. -1.
    9000006    2    1    2  501    0  0.00000000000E+00  0.00000000000E+00  0.89360216630E+03  0.11063978337E+04  0.65237361595E+03 0.  0.
         13    1    3    3    0    0  0.29792914574E+03  0.61907542591E+02  0.64605632628E+03  0.71413100790E+03  0.00000000000E+00 0. -1.
          4    1    3    3  501    0 -0.29792914574E+03 -0.61907542591E+02  0.24754584002E+03  0.39226682580E+03  0.00000000000E+00 0. -1.
<mgrwt>
<rscale>  0 0.65237362E+03</rscale>
<asrwt>0</asrwt>
<pdfrwt beam="1">0</pdfrwt>
<pdfrwt beam="2">  1        2 0.38690203E+00 0.65237362E+03</pdfrwt>
<totfact> 0.44562792E+00</totfact>
</mgrwt>
</event>
<event>
 5    1  0.2366700E-004  0.6489884E+03  0.7818608E-02  0.9808679E-01
         13   -1    0    0    0    0  0.00000000000E+00  0.00000000000E+00  0.10000000000E+04  0.10000000000E+04  0.00000000000E+00 0. -1.
          2   -1    0    0  501    0 -0.00000000000E+00 -0.00000000000E+00 -0.10529648955E+03  0.10529648955E+03  0.00000000000E+00 0. -1.
    9000006    2    1    2  501    0  0.00000000000E+00  0.00000000000E+00  0.89470351045E+03  0.11052964896E+04  0.64898841146E+03 0.  0.
         13    1    3    3    0    0 -0.24639017108E+03  0.19997242819E+03  0.56285454968E+03  0.64614420414E+03  0.00000000000E+00 0. -1.
          2    1    3    3  501    0  0.24639017108E+03 -0.19997242819E+03  0.33184896076E+03  0.45915228541E+03  0.00000000000E+00 0. -1.
<mgrwt>
<rscale>  0 0.64898841E+03</rscale>
<asrwt>0</asrwt>
<pdfrwt beam="1">0</pdfrwt>
<pdfrwt beam="2">  1        2 0.38289713E+00 0.64898841E+03</pdfrwt>
<totfact> 0.46123373E+00</totfact>
</mgrwt>
</event>
<event>
 5    1  0.2366700E-004  0.6627294E+03  0.7818608E-02  0.9783182E-01
         13   -1    0    0    0    0  0.00000000000E+00  0.00000000000E+00  0.10000000000E+04  0.10000000000E+04  0.00000000000E+00 0. -1.
          2   -1    0    0  501    0 -0.00000000000E+00 -0.00000000000E+00 -0.10980255067E+03  0.10980255067E+03  0.00000000000E+00 0. -1.
    9000006    2    1    2  501    0  0.00000000000E+00  0.00000000000E+00  0.89019744933E+03  0.11098025507E+04  0.66272935854E+03 0.  0.
         13    1    3    3    0    0 -0.77335948770E+02  0.32220822877E+03  0.44825790349E+03  0.55743532333E+03  0.00000000000E+00 0. -1.
          4    1    3    3  501    0  0.77335948770E+02 -0.32220822877E+03  0.44193954585E+03  0.55236722734E+03  0.00000000000E+00 0. -1.
<mgrwt>
<rscale>  0 0.66272936E+03</rscale>
<asrwt>0</asrwt>
<pdfrwt beam="1">0</pdfrwt>
<pdfrwt beam="2">  1        2 0.39928284E+00 0.66272936E+03</pdfrwt>
<totfact> 0.40035621E+00</totfact>
</mgrwt>
</event>
<event>
 5    1  0.2366700E-004  0.6284005E+03  0.7818608E-02  0.9848175E-01
         13   -1    0    0    0    0  0.00000000000E+00  0.00000000000E+00  0.10000000000E+04  0.10000000000E+04  0.00000000000E+00 0. -1.
          2   -1    0    0  501    0 -0.00000000000E+00 -0.00000000000E+00 -0.98721788726E+02  0.98721788726E+02  0.00000000000E+00 0. -1.
    9000006    2    1    2  501    0  0.00000000000E+00  0.00000000000E+00  0.90127821127E+03  0.10987217887E+04  0.62840047335E+03 0.  0.
         13    1    3    3    0    0 -0.39572623364E+02 -0.55362585530E+02  0.98696006409E+03  0.98930337941E+03  0.00000000000E+00 0. -1.
          4    1    3    3  501    0  0.39572623364E+02  0.55362585530E+02 -0.85681852816E+02  0.10941840932E+03  0.00000000000E+00 0. -1.
<mgrwt>
<rscale>  0 0.62840047E+03</rscale>
<asrwt>0</asrwt>
<pdfrwt beam="1">0</pdfrwt>
<pdfrwt beam="2">  1        2 0.35898908E+00 0.62840047E+03</pdfrwt>
<totfact> 0.56525084E+00</totfact>
</mgrwt>
</event>
<event>
 5    1  0.2366700E-004  0.6485426E+03  0.7818608E-02  0.9809518E-01
         13   -1    0    0    0    0  0.00000000000E+00  0.00000000000E+00  0.10000000000E+04  0.10000000000E+04  0.00000000000E+00 0. -1.
          2   -1    0    0  501    0 -0.00000000000E+00 -0.00000000000E+00 -0.10515188179E+03  0.10515188179E+03  0.00000000000E+00 0. -1.
    9000006    2    1    2  501    0  0.00000000000E+00  0.00000000000E+00  0.89484811821E+03  0.11051518818E+04  0.64854261783E+03 0.  0.
         13    1    3    3    0    0  0.28078070936E+03  0.15818370152E+03  0.38617304350E+03  0.50298062557E+03  0.00000000000E+00 0. -1.
          2    1    3    3  501    0 -0.28078070936E+03 -0.15818370152E+03  0.50867507471E+03  0.60217125621E+03  0.00000000000E+00 0. -1.
<mgrwt>
<rscale>  0 0.64854262E+03</rscale>
<asrwt>0</asrwt>
<pdfrwt beam="1">0</pdfrwt>
<pdfrwt beam="2">  1        2 0.38237129E+00 0.64854262E+03</pdfrwt>
<totfact> 0.46331920E+00</totfact>
</mgrwt>
</event>
<event>
 5    1  0.2366700E-004  0.6535699E+03  0.7818608E-02  0.9800104E-01
         13   -1    0    0    0    0  0.00000000000E+00  0.00000000000E+00  0.10000000000E+04  0.10000000000E+04  0.00000000000E+00 0. -1.
          2   -1    0    0  501    0 -0.00000000000E+00 -0.00000000000E+00 -0.10678839807E+03  0.10678839807E+03  0.00000000000E+00 0. -1.
    9000006    2    1    2  501    0  0.00000000000E+00  0.00000000000E+00  0.89321160193E+03  0.11067883981E+04  0.65356988325E+03 0.  0.
         13    1    3    3    0    0 -0.25574201037E+03 -0.20181155868E+03  0.40321521143E+03  0.51837668525E+03  0.00000000000E+00 0. -1.
          2    1    3    3  501    0  0.25574201037E+03  0.20181155868E+03  0.48999639049E+03  0.58841171282E+03  0.00000000000E+00 0. -1.
<mgrwt>
<rscale>  0 0.65356988E+03</rscale>
<asrwt>0</asrwt>
<pdfrwt beam="1">0</pdfrwt>
<pdfrwt beam="2">  1        2 0.38832227E+00 0.65356988E+03</pdfrwt>
<totfact> 0.44020968E+00</totfact>
</mgrwt>
</event>
<event>
 5    1  0.2366700E-004  0.6548072E+03  0.7818608E-02  0.9797800E-01
         13   -1    0    0    0    0  0.00000000000E+00  0.00000000000E+00  0.10000000000E+04  0.10000000000E+04  0.00000000000E+00 0. -1.
          2   -1    0    0  501    0 -0.00000000000E+00 -0.00000000000E+00 -0.10719312906E+03  0.10719312906E+03  0.00000000000E+00 0. -1.
    9000006    2    1    2  501    0  0.00000000000E+00  0.00000000000E+00  0.89280687094E+03  0.11071931291E+04  0.65480723595E+03 0.  0.
         13    1    3    3    0    0 -0.37930188018E+02  0.32169704436E+03  0.36592373665E+03  0.48870018269E+03  0.00000000000E+00 0. -1.
          2    1    3    3  501    0  0.37930188018E+02 -0.32169704436E+03  0.52688313429E+03  0.61849294638E+03  0.00000000000E+00 0. -1.
<mgrwt>
<rscale>  0 0.65480724E+03</rscale>
<asrwt>0</asrwt>
<pdfrwt beam="1">0</pdfrwt>
<pdfrwt beam="2">  1        2 0.38979402E+00 0.65480724E+03</pdfrwt>
<totfact> 0.43465787E+00</totfact>
</mgrwt>
</event>
<event>
 5    1  0.2366700E-004  0.6454417E+03  0.7818608E-02  0.9815370E-01
         13   -1    0    0    0    0  0.00000000000E+00  0.00000000000E+00  0.10000000000E+04  0.10000000000E+04  0.00000000000E+00 0. -1.
          2   -1    0    0  501    0 -0.00000000000E+00 -0.00000000000E+00 -0.10414875659E+03  0.10414875659E+03  0.00000000000E+00 0. -1.
    9000006    2    1    2  501    0  0.00000000000E+00  0.00000000000E+00  0.89585124341E+03  0.11041487566E+04  0.64544172964E+03 0.  0.
         13    1    3    3    0    0  0.15929225774E+03  0.22518932104E+03  0.16134341370E+03  0.31955586496E+03  0.00000000000E+00 0. -1.
          4    1    3    3  501    0 -0.15929225774E+03 -0.22518932104E+03  0.73450782971E+03  0.78459289163E+03  0.00000000000E+00 0. -1.
<mgrwt>
<rscale>  0 0.64544173E+03</rscale>
<asrwt>0</asrwt>
<pdfrwt beam="1">0</pdfrwt>
<pdfrwt beam="2">  1        2 0.37872355E+00 0.64544173E+03</pdfrwt>
<totfact> 0.47802349E+00</totfact>
</mgrwt>
</event>
<event>
 5    1  0.2366700E-004  0.6486331E+03  0.7818608E-02  0.9809348E-01
         13   -1    0    0    0    0  0.00000000000E+00  0.00000000000E+00  0.10000000000E+04  0.10000000000E+04  0.00000000000E+00 0. -1.
          2   -1    0    0  501    0 -0.00000000000E+00 -0.00000000000E+00 -0.10518120948E+03  0.10518120948E+03  0.00000000000E+00 0. -1.
    9000006    2    1    2  501    0  0.00000000000E+00  0.00000000000E+00  0.89481879052E+03  0.11051812095E+04  0.64863305336E+03 0.  0.
         13    1    3    3    0    0 -0.27649611287E+03 -0.13197274876E+03  0.26617179133E+03  0.40585013163E+03  0.00000000000E+00 0. -1.
          2    1    3    3  501    0  0.27649611287E+03  0.13197274876E+03  0.62864699919E+03  0.69933107785E+03  0.00000000000E+00 0. -1.
<mgrwt>
<rscale>  0 0.64863305E+03</rscale>
<asrwt>0</asrwt>
<pdfrwt beam="1">0</pdfrwt>
<pdfrwt beam="2">  1        2 0.38247793E+00 0.64863305E+03</pdfrwt>
<totfact> 0.46289556E+00</totfact>
</mgrwt>
</event>
<event>
 5    1  0.2366700E-004  0.6466691E+03  0.7818608E-02  0.9813050E-01
         13   -1    0    0    0    0  0.00000000000E+00  0.00000000000E+00  0.10000000000E+04  0.10000000000E+04  0.00000000000E+00 0. -1.
          2   -1    0    0  501    0 -0.00000000000E+00 -0.00000000000E+00 -0.10454523133E+03  0.10454523133E+03  0.00000000000E+00 0. -1.
    9000006    2    1    2  501    0  0.00000000000E+00  0.00000000000E+00  0.89545476867E+03  0.11045452313E+04  0.64666910031E+03 0.  0.
         13    1    3    3    0    0  0.54409094025E+02  0.10605165632E+03  0.96110444377E+03  0.96846737434E+03  0.00000000000E+00 0. -1.
          4    1    3    3  501    0 -0.54409094025E+02 -0.10605165632E+03 -0.65649675098E+02  0.13607785699E+03  0.00000000000E+00 0. -1.
<mgrwt>
<rscale>  0 0.64666910E+03</rscale>
<asrwt>0</asrwt>
<pdfrwt beam="1">0</pdfrwt>
<pdfrwt beam="2">  1        2 0.38016528E+00 0.64666910E+03</pdfrwt>
<totfact> 0.47216178E+00</totfact>
</mgrwt>
</event>
<event>
 5    1  0.2366700E-004  0.6407469E+03  0.7818608E-02  0.9824298E-01
         13   -1    0    0    0    0  0.00000000000E+00  0.00000000000E+00  0.10000000000E+04  0.10000000000E+04  0.00000000000E+00 0. -1.
          2   -1    0    0  501    0 -0.00000000000E+00 -0.00000000000E+00 -0.10263915876E+03  0.10263915876E+03  0.00000000000E+00 0. -1.
    9000006    2    1    2  501    0  0.00000000000E+00  0.00000000000E+00  0.89736084124E+03  0.11026391588E+04  0.64074693526E+03 0.  0.
         13    1    3    3    0    0  0.11808017993E+03  0.10956427782E+03  0.92524484575E+03  0.93916201182E+03  0.00000000000E+00 0. -1.
          4    1    3    3  501    0 -0.11808017993E+03 -0.10956427782E+03 -0.27884004505E+02  0.16347714694E+03  0.00000000000E+00 0. -1.
<mgrwt>
<rscale>  0 0.64074694E+03</rscale>
<asrwt>0</asrwt>
<pdfrwt beam="1">0</pdfrwt>
<pdfrwt beam="2">  1        2 0.37323409E+00 0.64074694E+03</pdfrwt>
<totfact> 0.50095561E+00</totfact>
</mgrwt>
</event>
<event>
 5    1  0.2366700E-004  0.6572196E+03  0.7818608E-02  0.9793326E-01
         13   -1    0    0    0    0  0.00000000000E+00  0.00000000000E+00  0.10000000000E+04  0.10000000000E+04  0.00000000000E+00 0. -1.
          2   -1    0    0  501    0 -0.00000000000E+00 -0.00000000000E+00 -0.10798439591E+03  0.10798439591E+03  0.00000000000E+00 0. -1.
    9000006    2    1    2  501    0  0.00000000000E+00  0.00000000000E+00  0.89201560409E+03  0.11079843959E+04  0.65721958555E+03 0.  0.
         13    1    3    3    0    0  0.28740748699E+03 -0.18986787448E+01  0.17744274224E+03  0.33777595434E+03  0.00000000000E+00 0. -1.
          4    1    3    3  501    0 -0.28740748699E+03  0.18986787448E+01  0.71457286186E+03  0.77020844157E+03  0.00000000000E+00 0. -1.
<mgrwt>
<rscale>  0 0.65721959E+03</rscale>
<asrwt>0</asrwt>
<pdfrwt beam="1">0</pdfrwt>
<pdfrwt beam="2">  1        2 0.39267136E+00 0.65721959E+03</pdfrwt>
<totfact> 0.42398621E+00</totfact>
</mgrwt>
</event>
<event>
 5    1  0.2366700E-004  0.6555171E+03  0.7818608E-02  0.9796481E-01
         13   -1    0    0    0    0  0.00000000000E+00  0.00000000000E+00  0.10000000000E+04  0.10000000000E+04  0.00000000000E+00 0. -1.
          2   -1    0    0  501    0 -0.00000000000E+00 -0.00000000000E+00 -0.10742566583E+03  0.10742566583E+03  0.00000000000E+00 0. -1.
    9000006    2    1    2  501    0  0.00000000000E+00  0.00000000000E+00  0.89257433417E+03  0.11074256658E+04  0.65551709614E+03 0.  0.
         13    1    3    3    0    0 -0.13128099424E+03  0.10904641673E+03 -0.26440492672E+02  0.17269892908E+03  0.00000000000E+00 0. -1.
          4    1    3    3  501    0  0.13128099424E+03 -0.10904641673E+03  0.91901482684E+03  0.93472673675E+03  0.00000000000E+00 0. -1.
<mgrwt>
<rscale>  0 0.65551710E+03</rscale>
<asrwt>0</asrwt>
<pdfrwt beam="1">0</pdfrwt>
<pdfrwt beam="2">  1        2 0.39063961E+00 0.65551710E+03</pdfrwt>
<totfact> 0.43149680E+00</totfact>
</mgrwt>
</event>
<event>
 5    1  0.2366700E-004  0.6435001E+03  0.7818608E-02  0.9819053E-01
         13   -1    0    0    0    0  0.00000000000E+00  0.00000000000E+00  0.10000000000E+04  0.10000000000E+04  0.00000000000E+00 0. -1.
          4   -1    0    0  501    0 -0.00000000000E+00 -0.00000000000E+00 -0.10352309841E+03  0.10352309841E+03  0.00000000000E+00 0. -1.
    9000006    2    1    2  501    0  0.00000000000E+00  0.00000000000E+00  0.89647690159E+03  0.11035230984E+04  0.64350011160E+03 0.  0.
         13    1    3    3    0    0  0.16570026930E+03 -0.74889420720E+02 -0.69573492122E+01  0.18197090232E+03  0.00000000000E+00 0. -1.
          2    1    3    3  501    0 -0.16570026930E+03  0.74889420720E+02  0.90343425081E+03  0.92155219609E+03  0.00000000000E+00 0. -1.
<mgrwt>
<rscale>  0 0.64350011E+03</rscale>
<asrwt>0</asrwt>
<pdfrwt beam="1">0</pdfrwt>
<pdfrwt beam="2">  1        4 0.37644842E+00 0.64350011E+03</pdfrwt>
<totfact> 0.46347004E-02</totfact>
</mgrwt>
</event>
<event>
 5    1  0.2366700E-004  0.6246350E+03  0.7818608E-02  0.9855575E-01
         13   -1    0    0    0    0  0.00000000000E+00  0.00000000000E+00  0.10000000000E+04  0.10000000000E+04  0.00000000000E+00 0. -1.
          2   -1    0    0  501    0 -0.00000000000E+00 -0.00000000000E+00 -0.97542207755E+02  0.97542207755E+02  0.00000000000E+00 0. -1.
    9000006    2    1    2  501    0  0.00000000000E+00  0.00000000000E+00  0.90245779224E+03  0.10975422078E+04  0.62463495821E+03 0.  0.
         13    1    3    3    0    0  0.11467687736E+02  0.71901801618E+02  0.98487893759E+03  0.98756665530E+03  0.00000000000E+00 0. -1.
          2    1    3    3  501    0 -0.11467687736E+02 -0.71901801618E+02 -0.82421145349E+02  0.10997555246E+03  0.00000000000E+00 0. -1.
<mgrwt>
<rscale>  0 0.62463496E+03</rscale>
<asrwt>0</asrwt>
<pdfrwt beam="1">0</pdfrwt>
<pdfrwt beam="2">  1        2 0.35469969E+00 0.62463496E+03</pdfrwt>
<totfact> 0.58605318E+00</totfact>
</mgrwt>
</event>
<event>
 5    1  0.2366700E-004  0.6638654E+03  0.7818608E-02  0.9781104E-01
         13   -1    0    0    0    0  0.00000000000E+00  0.00000000000E+00  0.10000000000E+04  0.10000000000E+04  0.00000000000E+00 0. -1.
          2   -1    0    0  501    0 -0.00000000000E+00 -0.00000000000E+00 -0.11017932018E+03  0.11017932018E+03  0.00000000000E+00 0. -1.
    9000006    2    1    2  501    0  0.00000000000E+00  0.00000000000E+00  0.88982067982E+03  0.11101793202E+04  0.66386540858E+03 0.  0.
         13    1    3    3    0    0  0.89740937198E+02 -0.17718416811E+03  0.88966448379E+03  0.91156489564E+03  0.00000000000E+00 0. -1.
          2    1    3    3  501    0 -0.89740937198E+02  0.17718416811E+03  0.15619603031E+00  0.19861442454E+03  0.00000000000E+00 0. -1.
<mgrwt>
<rscale>  0 0.66386541E+03</rscale>
<asrwt>0</asrwt>
<pdfrwt beam="1">0</pdfrwt>
<pdfrwt beam="2">  1        2 0.40065292E+00 0.66386541E+03</pdfrwt>
<totfact> 0.39561033E+00</totfact>
</mgrwt>
</event>
<event>
 5    1  0.2366700E-004  0.6445940E+03  0.7818608E-02  0.9816976E-01
         13   -1    0    0    0    0  0.00000000000E+00  0.00000000000E+00  0.10000000000E+04  0.10000000000E+04  0.00000000000E+00 0. -1.
          2   -1    0    0  501    0 -0.00000000000E+00 -0.00000000000E+00 -0.10387536483E+03  0.10387536483E+03  0.00000000000E+00 0. -1.
    9000006    2    1    2  501    0  0.00000000000E+00  0.00000000000E+00  0.89612463517E+03  0.11038753648E+04  0.64459402673E+03 0.  0.
         13    1    3    3    0    0  0.54842945331E+02  0.28514923032E+03  0.68755419928E+03  0.74635689127E+03  0.00000000000E+00 0. -1.
          2    1    3    3  501    0 -0.54842945331E+02 -0.28514923032E+03  0.20857043590E+03  0.35751847356E+03  0.00000000000E+00 0. -1.
<mgrwt>
<rscale>  0 0.64459403E+03</rscale>
<asrwt>0</asrwt>
<pdfrwt beam="1">0</pdfrwt>
<pdfrwt beam="2">  1        2 0.37772940E+00 0.64459403E+03</pdfrwt>
<totfact> 0.48210400E+00</totfact>
</mgrwt>
</event>
<event>
 5    1  0.2366700E-004  0.6498735E+03  0.7818608E-02  0.9807017E-01
         13   -1    0    0    0    0  0.00000000000E+00  0.00000000000E+00  0.10000000000E+04  0.10000000000E+04  0.00000000000E+00 0. -1.
          2   -1    0    0  501    0 -0.00000000000E+00 -0.00000000000E+00 -0.10558389044E+03  0.10558389044E+03  0.00000000000E+00 0. -1.
    9000006    2    1    2  501    0  0.00000000000E+00  0.00000000000E+00  0.89441610956E+03  0.11055838904E+04  0.64987349673E+03 0.  0.
         13    1    3    3    0    0  0.18338207014E+03 -0.23045164850E+03  0.68075992633E+03  0.74173514360E+03  0.00000000000E+00 0. -1.
          4    1    3    3  501    0 -0.18338207014E+03  0.23045164850E+03  0.21365618323E+03  0.36384874684E+03  0.00000000000E+00 0. -1.
<mgrwt>
<rscale>  0 0.64987350E+03</rscale>
<asrwt>0</asrwt>
<pdfrwt beam="1">0</pdfrwt>
<pdfrwt beam="2">  1        2 0.38394223E+00 0.64987350E+03</pdfrwt>
<totfact> 0.45711424E+00</totfact>
</mgrwt>
</event>
<event>
 5    1  0.2366700E-004  0.6368605E+03  0.7818608E-02  0.9831752E-01
         13   -1    0    0    0    0  0.00000000000E+00  0.00000000000E+00  0.10000000000E+04  0.10000000000E+04  0.00000000000E+00 0. -1.
          2   -1    0    0  501    0 -0.00000000000E+00 -0.00000000000E+00 -0.10139782655E+03  0.10139782655E+03  0.00000000000E+00 0. -1.
    9000006    2    1    2  501    0  0.00000000000E+00  0.00000000000E+00  0.89860217345E+03  0.11013978266E+04  0.63686050766E+03 0.  0.
         13    1    3    3    0    0  0.52448664766E+02  0.14725570553E+03  0.92907883752E+03  0.94213724668E+03  0.00000000000E+00 0. -1.
          2    1    3    3  501    0 -0.52448664766E+02 -0.14725570553E+03 -0.30476664079E+02  0.15926057987E+03  0.00000000000E+00 0. -1.
<mgrwt>
<rscale>  0 0.63686051E+03</rscale>
<asrwt>0</asrwt>
<pdfrwt beam="1">0</pdfrwt>
<pdfrwt beam="2">  1        2 0.36872015E+00 0.63686051E+03</pdfrwt>
<totfact> 0.52056240E+00</totfact>
</mgrwt>
</event>
<event>
 5    1  0.2366700E-004  0.7134407E+03  0.7818608E-02  0.9694519E-01
         13   -1    0    0    0    0  0.00000000000E+00  0.00000000000E+00  0.10000000000E+04  0.10000000000E+04  0.00000000000E+00 0. -1.
          2   -1    0    0  501    0 -0.00000000000E+00 -0.00000000000E+00 -0.12724942553E+03  0.12724942553E+03  0.00000000000E+00 0. -1.
    9000006    2    1    2  501    0  0.00000000000E+00  0.00000000000E+00  0.87275057447E+03  0.11272494255E+04  0.71344074884E+03 0.  0.
         13    1    3    3    0    0 -0.92200105469E+02  0.33058171821E+03  0.28266383863E+03  0.44461666358E+03  0.00000000000E+00 0. -1.
          4    1    3    3  501    0  0.92200105469E+02 -0.33058171821E+03  0.59008673584E+03  0.68263276194E+03  0.00000000000E+00 0. -1.
<mgrwt>
<rscale>  0 0.71344075E+03</rscale>
<asrwt>0</asrwt>
<pdfrwt beam="1">0</pdfrwt>
<pdfrwt beam="2">  1        2 0.46272616E+00 0.71344075E+03</pdfrwt>
<totfact> 0.22647330E+00</totfact>
</mgrwt>
</event>
<event>
 5    1  0.2366700E-004  0.6494100E+03  0.7818608E-02  0.9807887E-01
         13   -1    0    0    0    0  0.00000000000E+00  0.00000000000E+00  0.10000000000E+04  0.10000000000E+04  0.00000000000E+00 0. -1.
          2   -1    0    0  501    0 -0.00000000000E+00 -0.00000000000E+00 -0.10543332751E+03  0.10543332751E+03  0.00000000000E+00 0. -1.
    9000006    2    1    2  501    0  0.00000000000E+00  0.00000000000E+00  0.89456667249E+03  0.11054333275E+04  0.64940997071E+03 0.  0.
         13    1    3    3    0    0 -0.19076259889E+03  0.80627643753E+02  0.21586938348E+02  0.20822387466E+03  0.00000000000E+00 0. -1.
          4    1    3    3  501    0  0.19076259889E+03 -0.80627643753E+02  0.87297973414E+03  0.89720945285E+03  0.00000000000E+00 0. -1.
<mgrwt>
<rscale>  0 0.64940997E+03</rscale>
<asrwt>0</asrwt>
<pdfrwt beam="1">0</pdfrwt>
<pdfrwt beam="2">  1        2 0.38339473E+00 0.64940997E+03</pdfrwt>
<totfact> 0.45926816E+00</totfact>
</mgrwt>
</event>
<event>
 5    1  0.2366700E-004  0.6510360E+03  0.7818608E-02  0.9804837E-01
         13   -1    0    0    0    0  0.00000000000E+00  0.00000000000E+00  0.10000000000E+04  0.10000000000E+04  0.00000000000E+00 0. -1.
          2   -1    0    0  501    0 -0.00000000000E+00 -0.00000000000E+00 -0.10596196016E+03  0.10596196016E+03  0.00000000000E+00 0. -1.
    9000006    2    1    2  501    0  0.00000000000E+00  0.00000000000E+00  0.89403803984E+03  0.11059619602E+04  0.65103597493E+03 0.  0.
         13    1    3    3    0    0  0.10754832099E+03 -0.26193844250E+03  0.71979538427E+03  0.77348806340E+03  0.00000000000E+00 0. -1.
          2    1    3    3  501    0 -0.10754832099E+03  0.26193844250E+03  0.17424265557E+03  0.33247389676E+03  0.00000000000E+00 0. -1.
<mgrwt>
<rscale>  0 0.65103597E+03</rscale>
<asrwt>0</asrwt>
<pdfrwt beam="1">0</pdfrwt>
<pdfrwt beam="2">  1        2 0.38531703E+00 0.65103597E+03</pdfrwt>
<totfact> 0.45174598E+00</totfact>
</mgrwt>
</event>
<event>
 5    1  0.2366700E-004  0.6468875E+03  0.7818608E-02  0.9812637E-01
         13   -1    0    0    0    0  0.00000000000E+00  0.00000000000E+00  0.10000000000E+04  0.10000000000E+04  0.00000000000E+00 0. -1.
          2   -1    0    0  501    0 -0.00000000000E+00 -0.00000000000E+00 -0.10461587031E+03  0.10461587031E+03  0.00000000000E+00 0. -1.
    9000006    2    1    2  501    0  0.00000000000E+00  0.00000000000E+00  0.89538412969E+03  0.11046158703E+04  0.64688753368E+03 0.  0.
         13    1    3    3    0    0  0.28560643690E+03 -0.19145957979E+02  0.70484259101E+03  0.76075007894E+03  0.00000000000E+00 0. -1.
          2    1    3    3  501    0 -0.28560643690E+03  0.19145957979E+02  0.19054153868E+03  0.34386579137E+03  0.00000000000E+00 0. -1.
<mgrwt>
<rscale>  0 0.64688753E+03</rscale>
<asrwt>0</asrwt>
<pdfrwt beam="1">0</pdfrwt>
<pdfrwt beam="2">  1        2 0.38042215E+00 0.64688753E+03</pdfrwt>
<totfact> 0.47112430E+00</totfact>
</mgrwt>
</event>
<event>
 5    1  0.2366700E-004  0.6467422E+03  0.7818608E-02  0.9812912E-01
         13   -1    0    0    0    0  0.00000000000E+00  0.00000000000E+00  0.10000000000E+04  0.10000000000E+04  0.00000000000E+00 0. -1.
          2   -1    0    0  501    0 -0.00000000000E+00 -0.00000000000E+00 -0.10456886519E+03  0.10456886519E+03  0.00000000000E+00 0. -1.
    9000006    2    1    2  501    0  0.00000000000E+00  0.00000000000E+00  0.89543113481E+03  0.11045688652E+04  0.64674219032E+03 0.  0.
         13    1    3    3    0    0 -0.27460330531E+03  0.13311730810E+03  0.63040202498E+03  0.70038125768E+03  0.00000000000E+00 0. -1.
          4    1    3    3  501    0  0.27460330531E+03 -0.13311730810E+03  0.26502910983E+03  0.40418760751E+03  0.00000000000E+00 0. -1.
<mgrwt>
<rscale>  0 0.64674219E+03</rscale>
<asrwt>0</asrwt>
<pdfrwt beam="1">0</pdfrwt>
<pdfrwt beam="2">  1        2 0.38025122E+00 0.64674219E+03</pdfrwt>
<totfact> 0.47181444E+00</totfact>
</mgrwt>
</event>
<event>
 5    1  0.2366700E-004  0.6219480E+03  0.7818608E-02  0.9860889E-01
         13   -1    0    0    0    0  0.00000000000E+00  0.00000000000E+00  0.10000000000E+04  0.10000000000E+04  0.00000000000E+00 0. -1.
          2   -1    0    0  501    0 -0.00000000000E+00 -0.00000000000E+00 -0.96704816285E+02  0.96704816285E+02  0.00000000000E+00 0. -1.
    9000006    2    1    2  501    0  0.00000000000E+00  0.00000000000E+00  0.90329518372E+03  0.10967048163E+04  0.62194796015E+03 0.  0.
         13    1    3    3    0    0 -0.26004780603E+03  0.14372893723E+03  0.61347123230E+03  0.68163760289E+03  0.00000000000E+00 0. -1.
          4    1    3    3  501    0  0.26004780603E+03 -0.14372893723E+03  0.28982395141E+03  0.41506721339E+03  0.00000000000E+00 0. -1.
<mgrwt>
<rscale>  0 0.62194796E+03</rscale>
<asrwt>0</asrwt>
<pdfrwt beam="1">0</pdfrwt>
<pdfrwt beam="2">  1        2 0.35165462E+00 0.62194796E+03</pdfrwt>
<totfact> 0.60125001E+00</totfact>
</mgrwt>
</event>
<event>
 5    1  0.2366700E-004  0.6112873E+03  0.7818608E-02  0.9882261E-01
         13   -1    0    0    0    0  0.00000000000E+00  0.00000000000E+00  0.10000000000E+04  0.10000000000E+04  0.00000000000E+00 0. -1.
          2   -1    0    0  501    0 -0.00000000000E+00 -0.00000000000E+00 -0.93418033705E+02  0.93418033705E+02  0.00000000000E+00 0. -1.
    9000006    2    1    2  501    0  0.00000000000E+00  0.00000000000E+00  0.90658196630E+03  0.10934180337E+04  0.61128727683E+03 0.  0.
         13    1    3    3    0    0  0.43646522334E+02 -0.22719931308E+03  0.81055713714E+03  0.84292788502E+03  0.00000000000E+00 0. -1.
          2    1    3    3  501    0 -0.43646522334E+02  0.22719931308E+03  0.96024829158E+02  0.25049014869E+03  0.00000000000E+00 0. -1.
<mgrwt>
<rscale>  0 0.61128728E+03</rscale>
<asrwt>0</asrwt>
<pdfrwt beam="1">0</pdfrwt>
<pdfrwt beam="2">  1        2 0.33970266E+00 0.61128728E+03</pdfrwt>
<totfact> 0.66452097E+00</totfact>
</mgrwt>
</event>
<event>
 5    1  0.2366700E-004  0.5138649E+03  0.7818608E-02  0.1010222E+00
         13   -1    0    0    0    0  0.00000000000E+00  0.00000000000E+00  0.10000000000E+04  0.10000000000E+04  0.00000000000E+00 0. -1.
          2   -1    0    0  501    0 -0.00000000000E+00 -0.00000000000E+00 -0.66014282290E+02  0.66014282290E+02  0.00000000000E+00 0. -1.
    9000006    2    1    2  501    0  0.00000000000E+00  0.00000000000E+00  0.93398571771E+03  0.10660142823E+04  0.51386489388E+03 0.  0.
         13    1    3    3    0    0 -0.14199061650E+03 -0.14935355338E+03  0.14866333745E+03  0.25410353595E+03  0.00000000000E+00 0. -1.
          4    1    3    3  501    0  0.14199061650E+03  0.14935355338E+03  0.78532238026E+03  0.81191074634E+03  0.00000000000E+00 0. -1.
<mgrwt>
<rscale>  0 0.51386489E+03</rscale>
<asrwt>0</asrwt>
<pdfrwt beam="1">0</pdfrwt>
<pdfrwt beam="2">  1        2 0.24005244E+00 0.51386489E+03</pdfrwt>
<totfact> 0.15139311E+01</totfact>
</mgrwt>
</event>
<event>
 5    1  0.2366700E-004  0.6456723E+03  0.7818608E-02  0.9814934E-01
         13   -1    0    0    0    0  0.00000000000E+00  0.00000000000E+00  0.10000000000E+04  0.10000000000E+04  0.00000000000E+00 0. -1.
          2   -1    0    0  501    0 -0.00000000000E+00 -0.00000000000E+00 -0.10422317190E+03  0.10422317190E+03  0.00000000000E+00 0. -1.
    9000006    2    1    2  501    0  0.00000000000E+00  0.00000000000E+00  0.89577682810E+03  0.11042231719E+04  0.64567227569E+03 0.  0.
         13    1    3    3    0    0  0.27830965535E+03  0.15321837229E+03  0.54599793800E+03  0.63170078531E+03  0.00000000000E+00 0. -1.
          2    1    3    3  501    0 -0.27830965535E+03 -0.15321837229E+03  0.34977889011E+03  0.47252238659E+03  0.00000000000E+00 0. -1.
<mgrwt>
<rscale>  0 0.64567228E+03</rscale>
<asrwt>0</asrwt>
<pdfrwt beam="1">0</pdfrwt>
<pdfrwt beam="2">  1        2 0.37899415E+00 0.64567228E+03</pdfrwt>
<totfact> 0.47691826E+00</totfact>
</mgrwt>
</event>
<event>
 5    1  0.2366700E-004  0.6362053E+03  0.7818608E-02  0.9833014E-01
         13   -1    0    0    0    0  0.00000000000E+00  0.00000000000E+00  0.10000000000E+04  0.10000000000E+04  0.00000000000E+00 0. -1.
          2   -1    0    0  501    0 -0.00000000000E+00 -0.00000000000E+00 -0.10118929370E+03  0.10118929370E+03  0.00000000000E+00 0. -1.
    9000006    2    1    2  501    0  0.00000000000E+00  0.00000000000E+00  0.89881070630E+03  0.11011892937E+04  0.63620529298E+03 0.  0.
         13    1    3    3    0    0  0.11700124098E+03 -0.37687172563E+02 -0.58420755307E+02  0.13609775170E+03  0.00000000000E+00 0. -1.
          2    1    3    3  501    0 -0.11700124098E+03  0.37687172563E+02  0.95723146160E+03  0.96509154200E+03  0.00000000000E+00 0. -1.
<mgrwt>
<rscale>  0 0.63620529E+03</rscale>
<asrwt>0</asrwt>
<pdfrwt beam="1">0</pdfrwt>
<pdfrwt beam="2">  1        2 0.36796184E+00 0.63620529E+03</pdfrwt>
<totfact> 0.52392434E+00</totfact>
</mgrwt>
</event>
<event>
 5    1  0.2366700E-004  0.6614465E+03  0.7818608E-02  0.9785535E-01
         13   -1    0    0    0    0  0.00000000000E+00  0.00000000000E+00  0.10000000000E+04  0.10000000000E+04  0.00000000000E+00 0. -1.
          2   -1    0    0  501    0 -0.00000000000E+00 -0.00000000000E+00 -0.10937787452E+03  0.10937787452E+03  0.00000000000E+00 0. -1.
    9000006    2    1    2  501    0  0.00000000000E+00  0.00000000000E+00  0.89062212548E+03  0.11093778745E+04  0.66144651944E+03 0.  0.
         13    1    3    3    0    0 -0.17424216624E+03  0.19326929952E+03  0.78765918911E+03  0.82953020006E+03  0.00000000000E+00 0. -1.
          4    1    3    3  501    0  0.17424216624E+03 -0.19326929952E+03  0.10296293637E+03  0.27984767446E+03  0.00000000000E+00 0. -1.
<mgrwt>
<rscale>  0 0.66144652E+03</rscale>
<asrwt>0</asrwt>
<pdfrwt beam="1">0</pdfrwt>
<pdfrwt beam="2">  1        2 0.39773856E+00 0.66144652E+03</pdfrwt>
<totfact> 0.40576679E+00</totfact>
</mgrwt>
</event>
<event>
 5    1  0.2366700E-004  0.6567323E+03  0.7818608E-02  0.9794228E-01
         13   -1    0    0    0    0  0.00000000000E+00  0.00000000000E+00  0.10000000000E+04  0.10000000000E+04  0.00000000000E+00 0. -1.
          2   -1    0    0  501    0 -0.00000000000E+00 -0.00000000000E+00 -0.10782431480E+03  0.10782431480E+03  0.00000000000E+00 0. -1.
    9000006    2    1    2  501    0  0.00000000000E+00  0.00000000000E+00  0.89217568520E+03  0.11078243148E+04  0.65673225838E+03 0.  0.
         13    1    3    3    0    0 -0.20347991580E+03 -0.56472231467E+02  0.21909978732E+02  0.21230458363E+03  0.00000000000E+00 0. -1.
          4    1    3    3  501    0  0.20347991580E+03  0.56472231467E+02  0.87026570647E+03  0.89551973117E+03  0.00000000000E+00 0. -1.
<mgrwt>
<rscale>  0 0.65673226E+03</rscale>
<asrwt>0</asrwt>
<pdfrwt beam="1">0</pdfrwt>
<pdfrwt beam="2">  1        2 0.39208924E+00 0.65673226E+03</pdfrwt>
<totfact> 0.42612590E+00</totfact>
</mgrwt>
</event>
<event>
 5    1  0.2366700E-004  0.6494946E+03  0.7818608E-02  0.9807728E-01
         13   -1    0    0    0    0  0.00000000000E+00  0.00000000000E+00  0.10000000000E+04  0.10000000000E+04  0.00000000000E+00 0. -1.
          2   -1    0    0  501    0 -0.00000000000E+00 -0.00000000000E+00 -0.10546079698E+03  0.10546079698E+03  0.00000000000E+00 0. -1.
    9000006    2    1    2  501    0  0.00000000000E+00  0.00000000000E+00  0.89453920302E+03  0.11054607970E+04  0.64949456341E+03 0.  0.
         13    1    3    3    0    0  0.11078129404E+03 -0.20886434960E+03  0.68346629031E+02  0.24610581737E+03  0.00000000000E+00 0. -1.
          2    1    3    3  501    0 -0.11078129404E+03  0.20886434960E+03  0.82619257399E+03  0.85935497960E+03  0.00000000000E+00 0. -1.
<mgrwt>
<rscale>  0 0.64949456E+03</rscale>
<asrwt>0</asrwt>
<pdfrwt beam="1">0</pdfrwt>
<pdfrwt beam="2">  1        2 0.38349462E+00 0.64949456E+03</pdfrwt>
<totfact> 0.45887450E+00</totfact>
</mgrwt>
</event>
<event>
 5    1  0.2366700E-004  0.6416761E+03  0.7818608E-02  0.9822525E-01
         13   -1    0    0    0    0  0.00000000000E+00  0.00000000000E+00  0.10000000000E+04  0.10000000000E+04  0.00000000000E+00 0. -1.
          2   -1    0    0  501    0 -0.00000000000E+00 -0.00000000000E+00 -0.10293706942E+03  0.10293706942E+03  0.00000000000E+00 0. -1.
    9000006    2    1    2  501    0  0.00000000000E+00  0.00000000000E+00  0.89706293058E+03  0.11029370694E+04  0.64167614704E+03 0.  0.
         13    1    3    3    0    0  0.94871662293E+01  0.24919740140E+03  0.10156581225E+03  0.26926746072E+03  0.00000000000E+00 0. -1.
          4    1    3    3  501    0 -0.94871662293E+01 -0.24919740140E+03  0.79549711834E+03  0.83366960870E+03  0.00000000000E+00 0. -1.
<mgrwt>
<rscale>  0 0.64167615E+03</rscale>
<asrwt>0</asrwt>
<pdfrwt beam="1">0</pdfrwt>
<pdfrwt beam="2">  1        2 0.37431741E+00 0.64167615E+03</pdfrwt>
<totfact> 0.49635183E+00</totfact>
</mgrwt>
</event>
<event>
 5    1  0.2366700E-004  0.6515077E+03  0.7818608E-02  0.9803954E-01
         13   -1    0    0    0    0  0.00000000000E+00  0.00000000000E+00  0.10000000000E+04  0.10000000000E+04  0.00000000000E+00 0. -1.
          2   -1    0    0  501    0 -0.00000000000E+00 -0.00000000000E+00 -0.10611556641E+03  0.10611556641E+03  0.00000000000E+00 0. -1.
    9000006    2    1    2  501    0  0.00000000000E+00  0.00000000000E+00  0.89388443359E+03  0.11061155664E+04  0.65150768656E+03 0.  0.
         13    1    3    3    0    0  0.27907765581E+03 -0.16783990477E+03  0.43368270938E+03  0.54234238634E+03  0.00000000000E+00 0. -1.
          2    1    3    3  501    0 -0.27907765581E+03  0.16783990477E+03  0.46020172421E+03  0.56377318007E+03  0.00000000000E+00 0. -1.
<mgrwt>
<rscale>  0 0.65150769E+03</rscale>
<asrwt>0</asrwt>
<pdfrwt beam="1">0</pdfrwt>
<pdfrwt beam="2">  1        2 0.38587560E+00 0.65150769E+03</pdfrwt>
<totfact> 0.44958128E+00</totfact>
</mgrwt>
</event>
<event>
 5    1  0.2366700E-004  0.6461477E+03  0.7818608E-02  0.9814035E-01
         13   -1    0    0    0    0  0.00000000000E+00  0.00000000000E+00  0.10000000000E+04  0.10000000000E+04  0.00000000000E+00 0. -1.
          2   -1    0    0  501    0 -0.00000000000E+00 -0.00000000000E+00 -0.10437670073E+03  0.10437670073E+03  0.00000000000E+00 0. -1.
    9000006    2    1    2  501    0  0.00000000000E+00  0.00000000000E+00  0.89562329927E+03  0.11043767007E+04  0.64614766339E+03 0.  0.
         13    1    3    3    0    0  0.98576970229E+02 -0.16355294336E+03  0.24104157151E+01  0.19097851828E+03  0.00000000000E+00 0. -1.
          2    1    3    3  501    0 -0.98576970229E+02  0.16355294336E+03  0.89321288356E+03  0.91339818245E+03  0.00000000000E+00 0. -1.
<mgrwt>
<rscale>  0 0.64614766E+03</rscale>
<asrwt>0</asrwt>
<pdfrwt beam="1">0</pdfrwt>
<pdfrwt beam="2">  1        2 0.37955244E+00 0.64614766E+03</pdfrwt>
<totfact> 0.47464539E+00</totfact>
</mgrwt>
</event>
<event>
 5    1  0.2366700E-004  0.6343588E+03  0.7818608E-02  0.9836580E-01
         13   -1    0    0    0    0  0.00000000000E+00  0.00000000000E+00  0.10000000000E+04  0.10000000000E+04  0.00000000000E+00 0. -1.
          2   -1    0    0  501    0 -0.00000000000E+00 -0.00000000000E+00 -0.10060275738E+03  0.10060275738E+03  0.00000000000E+00 0. -1.
    9000006    2    1    2  501    0  0.00000000000E+00  0.00000000000E+00  0.89939724262E+03  0.11006027574E+04  0.63435875458E+03 0.  0.
         13    1    3    3    0    0  0.62010977049E+02 -0.17580566808E+03  0.89491667568E+03  0.91412737111E+03  0.00000000000E+00 0. -1.
          2    1    3    3  501    0 -0.62010977049E+02  0.17580566808E+03  0.44805669381E+01  0.18647538627E+03  0.00000000000E+00 0. -1.
<mgrwt>
<rscale>  0 0.63435875E+03</rscale>
<asrwt>0</asrwt>
<pdfrwt beam="1">0</pdfrwt>
<pdfrwt beam="2">  1        2 0.36582898E+00 0.63435875E+03</pdfrwt>
<totfact> 0.53348760E+00</totfact>
</mgrwt>
</event>
<event>
 5    1  0.2366700E-004  0.6374215E+03  0.7818608E-02  0.9830672E-01
         13   -1    0    0    0    0  0.00000000000E+00  0.00000000000E+00  0.10000000000E+04  0.10000000000E+04  0.00000000000E+00 0. -1.
          2   -1    0    0  501    0 -0.00000000000E+00 -0.00000000000E+00 -0.10157654824E+03  0.10157654824E+03  0.00000000000E+00 0. -1.
    9000006    2    1    2  501    0  0.00000000000E+00  0.00000000000E+00  0.89842345176E+03  0.11015765482E+04  0.63742151905E+03 0.  0.
         13    1    3    3    0    0 -0.21647235119E+02  0.78630352681E+02 -0.83238175490E+02  0.11653295246E+03  0.00000000000E+00 0. -1.
          2    1    3    3  501    0  0.21647235119E+02 -0.78630352681E+02  0.98166162725E+03  0.98504359577E+03  0.00000000000E+00 0. -1.
<mgrwt>
<rscale>  0 0.63742152E+03</rscale>
<asrwt>0</asrwt>
<pdfrwt beam="1">0</pdfrwt>
<pdfrwt beam="2">  1        2 0.36937005E+00 0.63742152E+03</pdfrwt>
<totfact> 0.51769683E+00</totfact>
</mgrwt>
</event>
<event>
 5    1  0.2366700E-004  0.6518693E+03  0.7818608E-02  0.9803278E-01
         13   -1    0    0    0    0  0.00000000000E+00  0.00000000000E+00  0.10000000000E+04  0.10000000000E+04  0.00000000000E+00 0. -1.
          2   -1    0    0  501    0 -0.00000000000E+00 -0.00000000000E+00 -0.10623339827E+03  0.10623339827E+03  0.00000000000E+00 0. -1.
    9000006    2    1    2  501    0  0.00000000000E+00  0.00000000000E+00  0.89376660173E+03  0.11062333983E+04  0.65186930675E+03 0.  0.
         13    1    3    3    0    0 -0.28360740529E+03 -0.36369215687E+02  0.71238660086E+03  0.76762656889E+03  0.00000000000E+00 0. -1.
          4    1    3    3  501    0  0.28360740529E+03  0.36369215687E+02  0.18138000087E+03  0.33860682938E+03  0.00000000000E+00 0. -1.
<mgrwt>
<rscale>  0 0.65186931E+03</rscale>
<asrwt>0</asrwt>
<pdfrwt beam="1">0</pdfrwt>
<pdfrwt beam="2">  1        2 0.38630408E+00 0.65186931E+03</pdfrwt>
<totfact> 0.44792711E+00</totfact>
</mgrwt>
</event>
<event>
 5    1  0.2366700E-004  0.6503148E+03  0.7818608E-02  0.9806189E-01
         13   -1    0    0    0    0  0.00000000000E+00  0.00000000000E+00  0.10000000000E+04  0.10000000000E+04  0.00000000000E+00 0. -1.
          2   -1    0    0  501    0 -0.00000000000E+00 -0.00000000000E+00 -0.10572732492E+03  0.10572732492E+03  0.00000000000E+00 0. -1.
    9000006    2    1    2  501    0  0.00000000000E+00  0.00000000000E+00  0.89427267508E+03  0.11057273249E+04  0.65031476970E+03 0.  0.
         13    1    3    3    0    0 -0.47619436044E+02  0.34776785666E+01  0.99400706340E+03  0.99515312743E+03  0.00000000000E+00 0. -1.
          2    1    3    3  501    0  0.47619436044E+02 -0.34776785666E+01 -0.99734388323E+02  0.11057419749E+03  0.00000000000E+00 0. -1.
<mgrwt>
<rscale>  0 0.65031477E+03</rscale>
<asrwt>0</asrwt>
<pdfrwt beam="1">0</pdfrwt>
<pdfrwt beam="2">  1        2 0.38446381E+00 0.65031477E+03</pdfrwt>
<totfact> 0.45507082E+00</totfact>
</mgrwt>
</event>
<event>
 5    1  0.2366700E-004  0.6335196E+03  0.7818608E-02  0.9838205E-01
         13   -1    0    0    0    0  0.00000000000E+00  0.00000000000E+00  0.10000000000E+04  0.10000000000E+04  0.00000000000E+00 0. -1.
          2   -1    0    0  501    0 -0.00000000000E+00 -0.00000000000E+00 -0.10033676069E+03  0.10033676069E+03  0.00000000000E+00 0. -1.
    9000006    2    1    2  501    0  0.00000000000E+00  0.00000000000E+00  0.89966323931E+03  0.11003367607E+04  0.63351956778E+03 0.  0.
         13    1    3    3    0    0  0.24600331208E+02  0.24141124413E+03  0.80345368645E+03  0.83929874976E+03  0.00000000000E+00 0. -1.
          2    1    3    3  501    0 -0.24600331208E+02 -0.24141124413E+03  0.96209552862E+02  0.26103801093E+03  0.00000000000E+00 0. -1.
<mgrwt>
<rscale>  0 0.63351957E+03</rscale>
<asrwt>0</asrwt>
<pdfrwt beam="1">0</pdfrwt>
<pdfrwt beam="2">  1        2 0.36486172E+00 0.63351957E+03</pdfrwt>
<totfact> 0.53787724E+00</totfact>
</mgrwt>
</event>
<event>
 5    1  0.2366700E-004  0.6480161E+03  0.7818608E-02  0.9810509E-01
         13   -1    0    0    0    0  0.00000000000E+00  0.00000000000E+00  0.10000000000E+04  0.10000000000E+04  0.00000000000E+00 0. -1.
          2   -1    0    0  501    0 -0.00000000000E+00 -0.00000000000E+00 -0.10498120078E+03  0.10498120078E+03  0.00000000000E+00 0. -1.
    9000006    2    1    2  501    0  0.00000000000E+00  0.00000000000E+00  0.89501879922E+03  0.11049812008E+04  0.64801605160E+03 0.  0.
         13    1    3    3    0    0 -0.13571384598E+03 -0.46281517301E+02  0.94295309332E+03  0.95379283025E+03  0.00000000000E+00 0. -1.
          4    1    3    3  501    0  0.13571384598E+03  0.46281517301E+02 -0.47934294098E+02  0.15118837054E+03  0.00000000000E+00 0. -1.
<mgrwt>
<rscale>  0 0.64801605E+03</rscale>
<asrwt>0</asrwt>
<pdfrwt beam="1">0</pdfrwt>
<pdfrwt beam="2">  1        2 0.38175063E+00 0.64801605E+03</pdfrwt>
<totfact> 0.46579171E+00</totfact>
</mgrwt>
</event>
<event>
 5    1  0.2366700E-004  0.6529187E+03  0.7818608E-02  0.9801318E-01
         13   -1    0    0    0    0  0.00000000000E+00  0.00000000000E+00  0.10000000000E+04  0.10000000000E+04  0.00000000000E+00 0. -1.
          2   -1    0    0  501    0 -0.00000000000E+00 -0.00000000000E+00 -0.10657572230E+03  0.10657572230E+03  0.00000000000E+00 0. -1.
    9000006    2    1    2  501    0  0.00000000000E+00  0.00000000000E+00  0.89342427770E+03  0.11065757223E+04  0.65291874624E+03 0.  0.
         13    1    3    3    0    0  0.60768425512E+02 -0.16194303680E+03  0.91595639744E+03  0.93214509102E+03  0.00000000000E+00 0. -1.
          4    1    3    3  501    0 -0.60768425512E+02  0.16194303680E+03 -0.22532119739E+02  0.17443063128E+03  0.00000000000E+00 0. -1.
<mgrwt>
<rscale>  0 0.65291875E+03</rscale>
<asrwt>0</asrwt>
<pdfrwt beam="1">0</pdfrwt>
<pdfrwt beam="2">  1        2 0.38754890E+00 0.65291875E+03</pdfrwt>
<totfact> 0.44315266E+00</totfact>
</mgrwt>
</event>
<event>
 5    1  0.2366700E-004  0.6511554E+03  0.7818608E-02  0.9804614E-01
         13   -1    0    0    0    0  0.00000000000E+00  0.00000000000E+00  0.10000000000E+04  0.10000000000E+04  0.00000000000E+00 0. -1.
          2   -1    0    0  501    0 -0.00000000000E+00 -0.00000000000E+00 -0.10600083130E+03  0.10600083130E+03  0.00000000000E+00 0. -1.
    9000006    2    1    2  501    0  0.00000000000E+00  0.00000000000E+00  0.89399916870E+03  0.11060008313E+04  0.65115537715E+03 0.  0.
         13    1    3    3    0    0  0.89974379605E+01  0.15343191503E+03  0.93450318485E+03  0.94705781710E+03  0.00000000000E+00 0. -1.
          2    1    3    3  501    0 -0.89974379605E+01 -0.15343191503E+03 -0.40504016146E+02  0.15894301420E+03  0.00000000000E+00 0. -1.
<mgrwt>
<rscale>  0 0.65115538E+03</rscale>
<asrwt>0</asrwt>
<pdfrwt beam="1">0</pdfrwt>
<pdfrwt beam="2">  1        2 0.38545838E+00 0.65115538E+03</pdfrwt>
<totfact> 0.45119729E+00</totfact>
</mgrwt>
</event>
<event>
 5    1  0.2366700E-004  0.6229723E+03  0.7818608E-02  0.9858860E-01
         13   -1    0    0    0    0  0.00000000000E+00  0.00000000000E+00  0.10000000000E+04  0.10000000000E+04  0.00000000000E+00 0. -1.
          2   -1    0    0  501    0 -0.00000000000E+00 -0.00000000000E+00 -0.97023616559E+02  0.97023616559E+02  0.00000000000E+00 0. -1.
    9000006    2    1    2  501    0  0.00000000000E+00  0.00000000000E+00  0.90297638344E+03  0.10970236166E+04  0.62297228368E+03 0.  0.
         13    1    3    3    0    0  0.18678598748E+03 -0.22397250587E+03  0.64415688961E+03  0.70710026654E+03  0.00000000000E+00 0. -1.
          2    1    3    3  501    0 -0.18678598748E+03  0.22397250587E+03  0.25881949383E+03  0.38992335002E+03  0.00000000000E+00 0. -1.
<mgrwt>
<rscale>  0 0.62297228E+03</rscale>
<asrwt>0</asrwt>
<pdfrwt beam="1">0</pdfrwt>
<pdfrwt beam="2">  1        2 0.35281390E+00 0.62297228E+03</pdfrwt>
<totfact> 0.59542184E+00</totfact>
</mgrwt>
</event>
<event>
 5    1  0.2366700E-004  0.6563366E+03  0.7818608E-02  0.9794961E-01
         13   -1    0    0    0    0  0.00000000000E+00  0.00000000000E+00  0.10000000000E+04  0.10000000000E+04  0.00000000000E+00 0. -1.
          2   -1    0    0  501    0 -0.00000000000E+00 -0.00000000000E+00 -0.10769444465E+03  0.10769444465E+03  0.00000000000E+00 0. -1.
    9000006    2    1    2  501    0  0.00000000000E+00  0.00000000000E+00  0.89230555535E+03  0.11076944446E+04  0.65633663512E+03 0.  0.
         13    1    3    3    0    0 -0.26632974479E+03  0.18793290041E+03  0.51028812834E+03  0.60551158696E+03  0.00000000000E+00 0. -1.
          2    1    3    3  501    0  0.26632974479E+03 -0.18793290041E+03  0.38201742701E+03  0.50218285769E+03  0.00000000000E+00 0. -1.
<mgrwt>
<rscale>  0 0.65633664E+03</rscale>
<asrwt>0</asrwt>
<pdfrwt beam="1">0</pdfrwt>
<pdfrwt beam="2">  1        2 0.39161699E+00 0.65633664E+03</pdfrwt>
<totfact> 0.42786894E+00</totfact>
</mgrwt>
</event>
<event>
 5    1  0.2366700E-004  0.6495770E+03  0.7818608E-02  0.9807573E-01
         13   -1    0    0    0    0  0.00000000000E+00  0.00000000000E+00  0.10000000000E+04  0.10000000000E+04  0.00000000000E+00 0. -1.
          2   -1    0    0  501    0 -0.00000000000E+00 -0.00000000000E+00 -0.10548758540E+03  0.10548758540E+03  0.00000000000E+00 0. -1.
    9000006    2    1    2  501    0  0.00000000000E+00  0.00000000000E+00  0.89451241460E+03  0.11054875854E+04  0.64957704825E+03 0.  0.
         13    1    3    3    0    0  0.16448397822E+03  0.26619158915E+03  0.29913940868E+03  0.43289412915E+03  0.00000000000E+00 0. -1.
          2    1    3    3  501    0 -0.16448397822E+03 -0.26619158915E+03  0.59537300592E+03  0.67259345626E+03  0.00000000000E+00 0. -1.
<mgrwt>
<rscale>  0 0.64957705E+03</rscale>
<asrwt>0</asrwt>
<pdfrwt beam="1">0</pdfrwt>
<pdfrwt beam="2">  1        2 0.38359203E+00 0.64957705E+03</pdfrwt>
<totfact> 0.45849090E+00</totfact>
</mgrwt>
</event>
<event>
 5    1  0.2366700E-004  0.6494738E+03  0.7818608E-02  0.9807767E-01
         13   -1    0    0    0    0  0.00000000000E+00  0.00000000000E+00  0.10000000000E+04  0.10000000000E+04  0.00000000000E+00 0. -1.
          2   -1    0    0  501    0 -0.00000000000E+00 -0.00000000000E+00 -0.10545404989E+03  0.10545404989E+03  0.00000000000E+00 0. -1.
    9000006    2    1    2  501    0  0.00000000000E+00  0.00000000000E+00  0.89454595011E+03  0.11054540499E+04  0.64947378667E+03 0.  0.
         13    1    3    3    0    0  0.17256201456E+02 -0.10693668254E+03 -0.73798268277E+02  0.13107026727E+03  0.00000000000E+00 0. -1.
          2    1    3    3  501    0 -0.17256201456E+02  0.10693668254E+03  0.96834421838E+03  0.97438378262E+03  0.00000000000E+00 0. -1.
<mgrwt>
<rscale>  0 0.64947379E+03</rscale>
<asrwt>0</asrwt>
<pdfrwt beam="1">0</pdfrwt>
<pdfrwt beam="2">  1        2 0.38347008E+00 0.64947379E+03</pdfrwt>
<totfact> 0.45897117E+00</totfact>
</mgrwt>
</event>
<event>
 5    1  0.2366700E-004  0.6451978E+03  0.7818608E-02  0.9815832E-01
         13   -1    0    0    0    0  0.00000000000E+00  0.00000000000E+00  0.10000000000E+04  0.10000000000E+04  0.00000000000E+00 0. -1.
          2   -1    0    0  501    0 -0.00000000000E+00 -0.00000000000E+00 -0.10407003482E+03  0.10407003482E+03  0.00000000000E+00 0. -1.
    9000006    2    1    2  501    0  0.00000000000E+00  0.00000000000E+00  0.89592996518E+03  0.11040700348E+04  0.64519775206E+03 0.  0.
         13    1    3    3    0    0  0.11685068708E+03 -0.29734519130E+03  0.52452692119E+03  0.61416344479E+03  0.00000000000E+00 0. -1.
          2    1    3    3  501    0 -0.11685068708E+03  0.29734519130E+03  0.37140304399E+03  0.48990659002E+03  0.00000000000E+00 0. -1.
<mgrwt>
<rscale>  0 0.64519775E+03</rscale>
<asrwt>0</asrwt>
<pdfrwt beam="1">0</pdfrwt>
<pdfrwt beam="2">  1        2 0.37843729E+00 0.64519775E+03</pdfrwt>
<totfact> 0.47919521E+00</totfact>
</mgrwt>
</event>
<event>
 5    1  0.2366700E-004  0.6402000E+03  0.7818608E-02  0.9825344E-01
         13   -1    0    0    0    0  0.00000000000E+00  0.00000000000E+00  0.10000000000E+04  0.10000000000E+04  0.00000000000E+00 0. -1.
          2   -1    0    0  501    0 -0.00000000000E+00 -0.00000000000E+00 -0.10246402380E+03  0.10246402380E+03  0.00000000000E+00 0. -1.
    9000006    2    1    2  501    0  0.00000000000E+00  0.00000000000E+00  0.89753597620E+03  0.11024640238E+04  0.64020004311E+03 0.  0.
         13    1    3    3    0    0  0.18453165712E+03 -0.15788626887E+03  0.80786646056E+03  0.84358059750E+03  0.00000000000E+00 0. -1.
          4    1    3    3  501    0 -0.18453165712E+03  0.15788626887E+03  0.89669515642E+02  0.25888342630E+03  0.00000000000E+00 0. -1.
<mgrwt>
<rscale>  0 0.64020004E+03</rscale>
<asrwt>0</asrwt>
<pdfrwt beam="1">0</pdfrwt>
<pdfrwt beam="2">  1        2 0.37259724E+00 0.64020004E+03</pdfrwt>
<totfact> 0.50368026E+00</totfact>
</mgrwt>
</event>
<event>
 5    1  0.2366700E-004  0.6513442E+03  0.7818608E-02  0.9804260E-01
         13   -1    0    0    0    0  0.00000000000E+00  0.00000000000E+00  0.10000000000E+04  0.10000000000E+04  0.00000000000E+00 0. -1.
          2   -1    0    0  501    0 -0.00000000000E+00 -0.00000000000E+00 -0.10606232074E+03  0.10606232074E+03  0.00000000000E+00 0. -1.
    9000006    2    1    2  501    0  0.00000000000E+00  0.00000000000E+00  0.89393767926E+03  0.11060623207E+04  0.65134421235E+03 0.  0.
         13    1    3    3    0    0 -0.16713093077E+03 -0.27536998835E+03  0.52842461790E+03  0.61886505420E+03  0.00000000000E+00 0. -1.
          2    1    3    3  501    0  0.16713093077E+03  0.27536998835E+03  0.36551306136E+03  0.48719726654E+03  0.00000000000E+00 0. -1.
<mgrwt>
<rscale>  0 0.65134421E+03</rscale>
<asrwt>0</asrwt>
<pdfrwt beam="1">0</pdfrwt>
<pdfrwt beam="2">  1        2 0.38568198E+00 0.65134421E+03</pdfrwt>
<totfact> 0.45033058E+00</totfact>
</mgrwt>
</event>
<event>
 5    1  0.2366700E-004  0.5533271E+03  0.7818608E-02  0.1000727E+00
         13   -1    0    0    0    0  0.00000000000E+00  0.00000000000E+00  0.10000000000E+04  0.10000000000E+04  0.00000000000E+00 0. -1.
          2   -1    0    0  501    0 -0.00000000000E+00 -0.00000000000E+00 -0.76542723065E+02  0.76542723065E+02  0.00000000000E+00 0. -1.
    9000006    2    1    2  501    0  0.00000000000E+00  0.00000000000E+00  0.92345727693E+03  0.10765427231E+04  0.55332711145E+03 0.  0.
         13    1    3    3    0    0 -0.96517422052E+02 -0.23600698532E+03  0.25283616870E+03  0.35908360876E+03  0.00000000000E+00 0. -1.
          4    1    3    3  501    0  0.96517422052E+02  0.23600698532E+03  0.67062110824E+03  0.71745911430E+03  0.00000000000E+00 0. -1.
<mgrwt>
<rscale>  0 0.55332711E+03</rscale>
<asrwt>0</asrwt>
<pdfrwt beam="1">0</pdfrwt>
<pdfrwt beam="2">  1        2 0.27833776E+00 0.55332711E+03</pdfrwt>
<totfact> 0.11034513E+01</totfact>
</mgrwt>
</event>
<event>
 5    1  0.2366700E-004  0.6512219E+03  0.7818608E-02  0.9804489E-01
         13   -1    0    0    0    0  0.00000000000E+00  0.00000000000E+00  0.10000000000E+04  0.10000000000E+04  0.00000000000E+00 0. -1.
          2   -1    0    0  501    0 -0.00000000000E+00 -0.00000000000E+00 -0.10602249346E+03  0.10602249346E+03  0.00000000000E+00 0. -1.
    9000006    2    1    2  501    0  0.00000000000E+00  0.00000000000E+00  0.89397750654E+03  0.11060224935E+04  0.65122190830E+03 0.  0.
         13    1    3    3    0    0 -0.31550117307E+03 -0.66056308725E+02  0.36882510216E+03  0.48983301452E+03  0.00000000000E+00 0. -1.
          2    1    3    3  501    0  0.31550117307E+03  0.66056308725E+02  0.52515240438E+03  0.61618947894E+03  0.00000000000E+00 0. -1.
<mgrwt>
<rscale>  0 0.65122191E+03</rscale>
<asrwt>0</asrwt>
<pdfrwt beam="1">0</pdfrwt>
<pdfrwt beam="2">  1        2 0.38553715E+00 0.65122191E+03</pdfrwt>
<totfact> 0.45089179E+00</totfact>
</mgrwt>
</event>
<event>
 5    1  0.2366700E-004  0.6470442E+03  0.7818608E-02  0.9812341E-01
         13   -1    0    0    0    0  0.00000000000E+00  0.00000000000E+00  0.10000000000E+04  0.10000000000E+04  0.00000000000E+00 0. -1.
          2   -1    0    0  501    0 -0.00000000000E+00 -0.00000000000E+00 -0.10466654414E+03  0.10466654414E+03  0.00000000000E+00 0. -1.
    9000006    2    1    2  501    0  0.00000000000E+00  0.00000000000E+00  0.89533345586E+03  0.11046665441E+04  0.64704418439E+03 0.  0.
         13    1    3    3    0    0  0.24317337648E+03 -0.16687094888E+03  0.22061306141E+03  0.36830602421E+03  0.00000000000E+00 0. -1.
          4    1    3    3  501    0 -0.24317337648E+03  0.16687094888E+03  0.67472039445E+03  0.73636051992E+03  0.00000000000E+00 0. -1.
<mgrwt>
<rscale>  0 0.64704418E+03</rscale>
<asrwt>0</asrwt>
<pdfrwt beam="1">0</pdfrwt>
<pdfrwt beam="2">  1        2 0.38060642E+00 0.64704418E+03</pdfrwt>
<totfact> 0.47038134E+00</totfact>
</mgrwt>
</event>
<event>
 5    1  0.2366700E-004  0.6642032E+03  0.7818608E-02  0.9780487E-01
         13   -1    0    0    0    0  0.00000000000E+00  0.00000000000E+00  0.10000000000E+04  0.10000000000E+04  0.00000000000E+00 0. -1.
          2   -1    0    0  501    0 -0.00000000000E+00 -0.00000000000E+00 -0.11029147678E+03  0.11029147678E+03  0.00000000000E+00 0. -1.
    9000006    2    1    2  501    0  0.00000000000E+00  0.00000000000E+00  0.88970852322E+03  0.11102914768E+04  0.66420321222E+03 0.  0.
         13    1    3    3    0    0 -0.18566411947E+03 -0.33703483823E+02  0.90168039861E+03  0.92121367300E+03  0.00000000000E+00 0. -1.
          2    1    3    3  501    0  0.18566411947E+03  0.33703483823E+02 -0.11971875392E+02  0.18907780378E+03  0.00000000000E+00 0. -1.
<mgrwt>
<rscale>  0 0.66420321E+03</rscale>
<asrwt>0</asrwt>
<pdfrwt beam="1">0</pdfrwt>
<pdfrwt beam="2">  1        2 0.40106076E+00 0.66420321E+03</pdfrwt>
<totfact> 0.39420737E+00</totfact>
</mgrwt>
</event>
<event>
 5    1  0.2366700E-004  0.6467783E+03  0.7818608E-02  0.9812843E-01
         13   -1    0    0    0    0  0.00000000000E+00  0.00000000000E+00  0.10000000000E+04  0.10000000000E+04  0.00000000000E+00 0. -1.
          2   -1    0    0  501    0 -0.00000000000E+00 -0.00000000000E+00 -0.10458055336E+03  0.10458055336E+03  0.00000000000E+00 0. -1.
    9000006    2    1    2  501    0  0.00000000000E+00  0.00000000000E+00  0.89541944664E+03  0.11045805534E+04  0.64677833409E+03 0.  0.
         13    1    3    3    0    0  0.14239858298E+02 -0.21750425146E+03  0.39724297077E+02  0.22156013347E+03  0.00000000000E+00 0. -1.
          2    1    3    3  501    0 -0.14239858298E+02  0.21750425146E+03  0.85569514956E+03  0.88302041989E+03  0.00000000000E+00 0. -1.
<mgrwt>
<rscale>  0 0.64677833E+03</rscale>
<asrwt>0</asrwt>
<pdfrwt beam="1">0</pdfrwt>
<pdfrwt beam="2">  1        2 0.38029372E+00 0.64677833E+03</pdfrwt>
<totfact> 0.47164274E+00</totfact>
</mgrwt>
</event>
<event>
 5    1  0.2366700E-004  0.6385389E+03  0.7818608E-02  0.9828526E-01
         13   -1    0    0    0    0  0.00000000000E+00  0.00000000000E+00  0.10000000000E+04  0.10000000000E+04  0.00000000000E+00 0. -1.
          2   -1    0    0  501    0 -0.00000000000E+00 -0.00000000000E+00 -0.10193297467E+03  0.10193297467E+03  0.00000000000E+00 0. -1.
    9000006    2    1    2  501    0  0.00000000000E+00  0.00000000000E+00  0.89806702533E+03  0.11019329747E+04  0.63853887797E+03 0.  0.
         13    1    3    3    0    0 -0.26481145878E+03 -0.10473914488E+03  0.19992334819E+03  0.34794359072E+03  0.00000000000E+00 0. -1.
          4    1    3    3  501    0  0.26481145878E+03  0.10473914488E+03  0.69814367714E+03  0.75398938395E+03  0.00000000000E+00 0. -1.
<mgrwt>
<rscale>  0 0.63853888E+03</rscale>
<asrwt>0</asrwt>
<pdfrwt beam="1">0</pdfrwt>
<pdfrwt beam="2">  1        2 0.37066614E+00 0.63853888E+03</pdfrwt>
<totfact> 0.51202514E+00</totfact>
</mgrwt>
</event>
<event>
 5    1  0.2366700E-004  0.6468221E+03  0.7818608E-02  0.9812761E-01
         13   -1    0    0    0    0  0.00000000000E+00  0.00000000000E+00  0.10000000000E+04  0.10000000000E+04  0.00000000000E+00 0. -1.
          2   -1    0    0  501    0 -0.00000000000E+00 -0.00000000000E+00 -0.10459470048E+03  0.10459470048E+03  0.00000000000E+00 0. -1.
    9000006    2    1    2  501    0  0.00000000000E+00  0.00000000000E+00  0.89540529952E+03  0.11045947005E+04  0.64682207902E+03 0.  0.
         13    1    3    3    0    0 -0.16547873201E+03  0.27385862357E+03  0.52803737893E+03  0.61741819701E+03  0.00000000000E+00 0. -1.
          4    1    3    3  501    0  0.16547873201E+03 -0.27385862357E+03  0.36736792059E+03  0.48717650347E+03  0.00000000000E+00 0. -1.
<mgrwt>
<rscale>  0 0.64682208E+03</rscale>
<asrwt>0</asrwt>
<pdfrwt beam="1">0</pdfrwt>
<pdfrwt beam="2">  1        2 0.38034517E+00 0.64682208E+03</pdfrwt>
<totfact> 0.47143501E+00</totfact>
</mgrwt>
</event>
<event>
 5    1  0.2366700E-004  0.6508824E+03  0.7818608E-02  0.9805125E-01
         13   -1    0    0    0    0  0.00000000000E+00  0.00000000000E+00  0.10000000000E+04  0.10000000000E+04  0.00000000000E+00 0. -1.
          2   -1    0    0  501    0 -0.00000000000E+00 -0.00000000000E+00 -0.10591197793E+03  0.10591197793E+03  0.00000000000E+00 0. -1.
    9000006    2    1    2  501    0  0.00000000000E+00  0.00000000000E+00  0.89408802207E+03  0.11059119779E+04  0.65088241004E+03 0.  0.
         13    1    3    3    0    0  0.16542387498E+03 -0.13470495384E+03  0.29461914324E+02  0.21535665162E+03  0.00000000000E+00 0. -1.
          2    1    3    3  501    0 -0.16542387498E+03  0.13470495384E+03  0.86462610775E+03  0.89055532630E+03  0.00000000000E+00 0. -1.
<mgrwt>
<rscale>  0 0.65088241E+03</rscale>
<asrwt>0</asrwt>
<pdfrwt beam="1">0</pdfrwt>
<pdfrwt beam="2">  1        2 0.38513528E+00 0.65088241E+03</pdfrwt>
<totfact> 0.45245238E+00</totfact>
</mgrwt>
</event>
<event>
 5    1  0.2366700E-004  0.6490786E+03  0.7818608E-02  0.9808510E-01
         13   -1    0    0    0    0  0.00000000000E+00  0.00000000000E+00  0.10000000000E+04  0.10000000000E+04  0.00000000000E+00 0. -1.
          2   -1    0    0  501    0 -0.00000000000E+00 -0.00000000000E+00 -0.10532574766E+03  0.10532574766E+03  0.00000000000E+00 0. -1.
    9000006    2    1    2  501    0  0.00000000000E+00  0.00000000000E+00  0.89467425234E+03  0.11053257477E+04  0.64907857048E+03 0.  0.
         13    1    3    3    0    0  0.20877331445E+03  0.10889646660E+03  0.67007079520E+02  0.24481561627E+03  0.00000000000E+00 0. -1.
          2    1    3    3  501    0 -0.20877331445E+03 -0.10889646660E+03  0.82766717282E+03  0.86051013139E+03  0.00000000000E+00 0. -1.
<mgrwt>
<rscale>  0 0.64907857E+03</rscale>
<asrwt>0</asrwt>
<pdfrwt beam="1">0</pdfrwt>
<pdfrwt beam="2">  1        2 0.38300353E+00 0.64907857E+03</pdfrwt>
<totfact> 0.46081282E+00</totfact>
</mgrwt>
</event>
<event>
 5    1  0.2366700E-004  0.6532920E+03  0.7818608E-02  0.9800622E-01
         13   -1    0    0    0    0  0.00000000000E+00  0.00000000000E+00  0.10000000000E+04  0.10000000000E+04  0.00000000000E+00 0. -1.
          2   -1    0    0  501    0 -0.00000000000E+00 -0.00000000000E+00 -0.10669759907E+03  0.10669759907E+03  0.00000000000E+00 0. -1.
    9000006    2    1    2  501    0  0.00000000000E+00  0.00000000000E+00  0.89330240093E+03  0.11066975991E+04  0.65329196865E+03 0.  0.
         13    1    3    3    0    0 -0.12732188620E+03 -0.29660921543E+03  0.53151713397E+03  0.62185074823E+03  0.00000000000E+00 0. -1.
          4    1    3    3  501    0  0.12732188620E+03  0.29660921543E+03  0.36178526696E+03  0.48484685084E+03  0.00000000000E+00 0. -1.
<mgrwt>
<rscale>  0 0.65329197E+03</rscale>
<asrwt>0</asrwt>
<pdfrwt beam="1">0</pdfrwt>
<pdfrwt beam="2">  1        2 0.38799209E+00 0.65329197E+03</pdfrwt>
<totfact> 0.44146398E+00</totfact>
</mgrwt>
</event>
<event>
 5    1  0.2366700E-004  0.6533405E+03  0.7818608E-02  0.9800531E-01
         13   -1    0    0    0    0  0.00000000000E+00  0.00000000000E+00  0.10000000000E+04  0.10000000000E+04  0.00000000000E+00 0. -1.
          2   -1    0    0  501    0 -0.00000000000E+00 -0.00000000000E+00 -0.10671345170E+03  0.10671345170E+03  0.00000000000E+00 0. -1.
    9000006    2    1    2  501    0  0.00000000000E+00  0.00000000000E+00  0.89328654830E+03  0.11067134517E+04  0.65334049836E+03 0.  0.
         13    1    3    3    0    0  0.63500350579E+02  0.25776992728E+03  0.76909497095E+03  0.81362442458E+03  0.00000000000E+00 0. -1.
          4    1    3    3  501    0 -0.63500350579E+02 -0.25776992728E+03  0.12419157735E+03  0.29308902712E+03  0.00000000000E+00 0. -1.
<mgrwt>
<rscale>  0 0.65334050E+03</rscale>
<asrwt>0</asrwt>
<pdfrwt beam="1">0</pdfrwt>
<pdfrwt beam="2">  1        2 0.38804973E+00 0.65334050E+03</pdfrwt>
<totfact> 0.44124476E+00</totfact>
</mgrwt>
</event>
<event>
 5    1  0.2366700E-004  0.6504846E+03  0.7818608E-02  0.9805870E-01
         13   -1    0    0    0    0  0.00000000000E+00  0.00000000000E+00  0.10000000000E+04  0.10000000000E+04  0.00000000000E+00 0. -1.
          2   -1    0    0  501    0 -0.00000000000E+00 -0.00000000000E+00 -0.10578256043E+03  0.10578256043E+03  0.00000000000E+00 0. -1.
    9000006    2    1    2  501    0  0.00000000000E+00  0.00000000000E+00  0.89421743957E+03  0.11057825604E+04  0.65048462066E+03 0.  0.
         13    1    3    3    0    0  0.37604810212E+02 -0.29097561837E+03  0.20850139989E+03  0.35993578037E+03  0.00000000000E+00 0. -1.
          2    1    3    3  501    0 -0.37604810212E+02  0.29097561837E+03  0.68571603968E+03  0.74584678005E+03  0.00000000000E+00 0. -1.
<mgrwt>
<rscale>  0 0.65048462E+03</rscale>
<asrwt>0</asrwt>
<pdfrwt beam="1">0</pdfrwt>
<pdfrwt beam="2">  1        2 0.38466467E+00 0.65048462E+03</pdfrwt>
<totfact> 0.45428612E+00</totfact>
</mgrwt>
</event>
<event>
 5    1  0.2366700E-004  0.6540179E+03  0.7818608E-02  0.9799269E-01
         13   -1    0    0    0    0  0.00000000000E+00  0.00000000000E+00  0.10000000000E+04  0.10000000000E+04  0.00000000000E+00 0. -1.
          2   -1    0    0  501    0 -0.00000000000E+00 -0.00000000000E+00 -0.10693486477E+03  0.10693486477E+03  0.00000000000E+00 0. -1.
    9000006    2    1    2  501    0  0.00000000000E+00  0.00000000000E+00  0.89306513523E+03  0.11069348648E+04  0.65401793482E+03 0.  0.
         13    1    3    3    0    0  0.60215699163E+02  0.67088834447E+01 -0.97351983743E+02  0.11466624735E+03  0.00000000000E+00 0. -1.
          2    1    3    3  501    0 -0.60215699163E+02 -0.67088834447E+01  0.99041711898E+03  0.99226861741E+03  0.00000000000E+00 0. -1.
<mgrwt>
<rscale>  0 0.65401793E+03</rscale>
<asrwt>0</asrwt>
<pdfrwt beam="1">0</pdfrwt>
<pdfrwt beam="2">  1        2 0.38885487E+00 0.65401793E+03</pdfrwt>
<totfact> 0.43819319E+00</totfact>
</mgrwt>
</event>
<event>
 5    1  0.2366700E-004  0.6555620E+03  0.7818608E-02  0.9796398E-01
         13   -1    0    0    0    0  0.00000000000E+00  0.00000000000E+00  0.10000000000E+04  0.10000000000E+04  0.00000000000E+00 0. -1.
          2   -1    0    0  501    0 -0.00000000000E+00 -0.00000000000E+00 -0.10744037301E+03  0.10744037301E+03  0.00000000000E+00 0. -1.
    9000006    2    1    2  501    0  0.00000000000E+00  0.00000000000E+00  0.89255962699E+03  0.11074403730E+04  0.65556196658E+03 0.  0.
         13    1    3    3    0    0  0.18985687802E+03  0.26395752565E+03  0.37619600886E+03  0.49723500134E+03  0.00000000000E+00 0. -1.
          2    1    3    3  501    0 -0.18985687802E+03 -0.26395752565E+03  0.51636361813E+03  0.61020537166E+03  0.00000000000E+00 0. -1.
<mgrwt>
<rscale>  0 0.65556197E+03</rscale>
<asrwt>0</asrwt>
<pdfrwt beam="1">0</pdfrwt>
<pdfrwt beam="2">  1        2 0.39069309E+00 0.65556197E+03</pdfrwt>
<totfact> 0.43129757E+00</totfact>
</mgrwt>
</event>
<event>
 5    1  0.2366700E-004  0.6447584E+03  0.7818608E-02  0.9816665E-01
         13   -1    0    0    0    0  0.00000000000E+00  0.00000000000E+00  0.10000000000E+04  0.10000000000E+04  0.00000000000E+00 0. -1.
          2   -1    0    0  501    0 -0.00000000000E+00 -0.00000000000E+00 -0.10392834916E+03  0.10392834916E+03  0.00000000000E+00 0. -1.
    9000006    2    1    2  501    0  0.00000000000E+00  0.00000000000E+00  0.89607165084E+03  0.11039283492E+04  0.64475840175E+03 0.  0.
         13    1    3    3    0    0 -0.25125013332E+03 -0.17955024275E+03  0.28959476081E+03  0.42335569520E+03  0.00000000000E+00 0. -1.
          2    1    3    3  501    0  0.25125013332E+03  0.17955024275E+03  0.60647689003E+03  0.68057265395E+03  0.00000000000E+00 0. -1.
<mgrwt>
<rscale>  0 0.64475840E+03</rscale>
<asrwt>0</asrwt>
<pdfrwt beam="1">0</pdfrwt>
<pdfrwt beam="2">  1        2 0.37792207E+00 0.64475840E+03</pdfrwt>
<totfact> 0.48131071E+00</totfact>
</mgrwt>
</event>
<event>
 5    1  0.2366700E-004  0.6430499E+03  0.7818608E-02  0.9819909E-01
         13   -1    0    0    0    0  0.00000000000E+00  0.00000000000E+00  0.10000000000E+04  0.10000000000E+04  0.00000000000E+00 0. -1.
          2   -1    0    0  501    0 -0.00000000000E+00 -0.00000000000E+00 -0.10337828598E+03  0.10337828598E+03  0.00000000000E+00 0. -1.
    9000006    2    1    2  501    0  0.00000000000E+00  0.00000000000E+00  0.89662171402E+03  0.11033782860E+04  0.64304987669E+03 0.  0.
         13    1    3    3    0    0 -0.15169075189E+03  0.41974823021E+01  0.93468926801E+03  0.94692752141E+03  0.00000000000E+00 0. -1.
          4    1    3    3  501    0  0.15169075189E+03 -0.41974823021E+01 -0.38067553989E+02  0.15645076457E+03  0.00000000000E+00 0. -1.
<mgrwt>
<rscale>  0 0.64304988E+03</rscale>
<asrwt>0</asrwt>
<pdfrwt beam="1">0</pdfrwt>
<pdfrwt beam="2">  1        2 0.37592183E+00 0.64304988E+03</pdfrwt>
<totfact> 0.48960461E+00</totfact>
</mgrwt>
</event>
<event>
 5    1  0.2366700E-004  0.6403805E+03  0.7818608E-02  0.9824999E-01
         13   -1    0    0    0    0  0.00000000000E+00  0.00000000000E+00  0.10000000000E+04  0.10000000000E+04  0.00000000000E+00 0. -1.
          2   -1    0    0  501    0 -0.00000000000E+00 -0.00000000000E+00 -0.10252180968E+03  0.10252180968E+03  0.00000000000E+00 0. -1.
    9000006    2    1    2  501    0  0.00000000000E+00  0.00000000000E+00  0.89747819032E+03  0.11025218097E+04  0.64038054212E+03 0.  0.
         13    1    3    3    0    0  0.13421001472E+03 -0.26490727595E+03  0.24261585708E+03  0.38347183339E+03  0.00000000000E+00 0. -1.
          2    1    3    3  501    0 -0.13421001472E+03  0.26490727595E+03  0.65486233324E+03  0.71904997629E+03  0.00000000000E+00 0. -1.
<mgrwt>
<rscale>  0 0.64038054E+03</rscale>
<asrwt>0</asrwt>
<pdfrwt beam="1">0</pdfrwt>
<pdfrwt beam="2">  1        2 0.37280737E+00 0.64038054E+03</pdfrwt>
<totfact> 0.50277976E+00</totfact>
</mgrwt>
</event>
<event>
 5    1  0.2366700E-004  0.6446124E+03  0.7818608E-02  0.9816942E-01
         13   -1    0    0    0    0  0.00000000000E+00  0.00000000000E+00  0.10000000000E+04  0.10000000000E+04  0.00000000000E+00 0. -1.
          2   -1    0    0  501    0 -0.00000000000E+00 -0.00000000000E+00 -0.10388127261E+03  0.10388127261E+03  0.00000000000E+00 0. -1.
    9000006    2    1    2  501    0  0.00000000000E+00  0.00000000000E+00  0.89611872739E+03  0.11038812726E+04  0.64461235671E+03 0.  0.
         13    1    3    3    0    0  0.17010517408E+03 -0.27247416412E+03  0.49347485347E+03  0.58880843351E+03  0.00000000000E+00 0. -1.
          4    1    3    3  501    0 -0.17010517408E+03  0.27247416412E+03  0.40264387392E+03  0.51507283909E+03  0.00000000000E+00 0. -1.
<mgrwt>
<rscale>  0 0.64461236E+03</rscale>
<asrwt>0</asrwt>
<pdfrwt beam="1">0</pdfrwt>
<pdfrwt beam="2">  1        2 0.37775088E+00 0.64461236E+03</pdfrwt>
<totfact> 0.48201548E+00</totfact>
</mgrwt>
</event>
<event>
 5    1  0.2366700E-004  0.6347883E+03  0.7818608E-02  0.9835749E-01
         13   -1    0    0    0    0  0.00000000000E+00  0.00000000000E+00  0.10000000000E+04  0.10000000000E+04  0.00000000000E+00 0. -1.
          2   -1    0    0  501    0 -0.00000000000E+00 -0.00000000000E+00 -0.10073904141E+03  0.10073904141E+03  0.00000000000E+00 0. -1.
    9000006    2    1    2  501    0  0.00000000000E+00  0.00000000000E+00  0.89926095859E+03  0.11007390414E+04  0.63478828409E+03 0.  0.
         13    1    3    3    0    0 -0.13973415372E+03  0.28485903597E+03  0.43525402622E+03  0.53862451803E+03  0.00000000000E+00 0. -1.
          4    1    3    3  501    0  0.13973415372E+03 -0.28485903597E+03  0.46400693238E+03  0.56211452337E+03  0.00000000000E+00 0. -1.
<mgrwt>
<rscale>  0 0.63478828E+03</rscale>
<asrwt>0</asrwt>
<pdfrwt beam="1">0</pdfrwt>
<pdfrwt beam="2">  1        2 0.36632456E+00 0.63478828E+03</pdfrwt>
<totfact> 0.53125135E+00</totfact>
</mgrwt>
</event>
<event>
 5    1  0.2366700E-004  0.7797285E+03  0.7818608E-02  0.9589832E-01
         13   -1    0    0    0    0  0.00000000000E+00  0.00000000000E+00  0.10000000000E+04  0.10000000000E+04  0.00000000000E+00 0. -1.
          2   -1    0    0  501    0 -0.00000000000E+00 -0.00000000000E+00 -0.15199411666E+03  0.15199411666E+03  0.00000000000E+00 0. -1.
    9000006    2    1    2  501    0  0.00000000000E+00  0.00000000000E+00  0.84800588334E+03  0.11519941167E+04  0.77972845700E+03 0.  0.
         13    1    3    3    0    0 -0.16467124677E+03  0.14136090566E+03 -0.54498691690E+02  0.22376244671E+03  0.00000000000E+00 0. -1.
          4    1    3    3  501    0  0.16467124677E+03 -0.14136090566E+03  0.90250457503E+03  0.92823166995E+03  0.00000000000E+00 0. -1.
<mgrwt>
<rscale>  0 0.77972846E+03</rscale>
<asrwt>0</asrwt>
<pdfrwt beam="1">0</pdfrwt>
<pdfrwt beam="2">  1        2 0.55270704E+00 0.77972846E+03</pdfrwt>
<totfact> 0.92922182E-01</totfact>
</mgrwt>
</event>
<event>
 5    1  0.2366700E-004  0.6550357E+03  0.7818608E-02  0.9797376E-01
         13   -1    0    0    0    0  0.00000000000E+00  0.00000000000E+00  0.10000000000E+04  0.10000000000E+04  0.00000000000E+00 0. -1.
          2   -1    0    0  501    0 -0.00000000000E+00 -0.00000000000E+00 -0.10726795316E+03  0.10726795316E+03  0.00000000000E+00 0. -1.
    9000006    2    1    2  501    0  0.00000000000E+00  0.00000000000E+00  0.89273204684E+03  0.11072679532E+04  0.65503573385E+03 0.  0.
         13    1    3    3    0    0  0.10589063860E+03  0.23408575165E+03  0.10300814492E+03  0.27680253681E+03  0.00000000000E+00 0. -1.
          4    1    3    3  501    0 -0.10589063860E+03 -0.23408575165E+03  0.78972390193E+03  0.83046541634E+03  0.00000000000E+00 0. -1.
<mgrwt>
<rscale>  0 0.65503573E+03</rscale>
<asrwt>0</asrwt>
<pdfrwt beam="1">0</pdfrwt>
<pdfrwt beam="2">  1        2 0.39006611E+00 0.65503573E+03</pdfrwt>
<totfact> 0.43363844E+00</totfact>
</mgrwt>
</event>
<event>
 5    1  0.2366700E-004  0.6571268E+03  0.7818608E-02  0.9793497E-01
         13   -1    0    0    0    0  0.00000000000E+00  0.00000000000E+00  0.10000000000E+04  0.10000000000E+04  0.00000000000E+00 0. -1.
          2   -1    0    0  501    0 -0.00000000000E+00 -0.00000000000E+00 -0.10795391551E+03  0.10795391551E+03  0.00000000000E+00 0. -1.
    9000006    2    1    2  501    0  0.00000000000E+00  0.00000000000E+00  0.89204608449E+03  0.11079539155E+04  0.65712682341E+03 0.  0.
         13    1    3    3    0    0 -0.24513199380E+03  0.13615321871E+03  0.73476027040E+03  0.78644774035E+03  0.00000000000E+00 0. -1.
          2    1    3    3  501    0  0.24513199380E+03 -0.13615321871E+03  0.15728581409E+03  0.32150617516E+03  0.00000000000E+00 0. -1.
<mgrwt>
<rscale>  0 0.65712682E+03</rscale>
<asrwt>0</asrwt>
<pdfrwt beam="1">0</pdfrwt>
<pdfrwt beam="2">  1        2 0.39256052E+00 0.65712682E+03</pdfrwt>
<totfact> 0.42439287E+00</totfact>
</mgrwt>
</event>
<event>
 5    1  0.2366700E-004  0.6466685E+03  0.7818608E-02  0.9813051E-01
         13   -1    0    0    0    0  0.00000000000E+00  0.00000000000E+00  0.10000000000E+04  0.10000000000E+04  0.00000000000E+00 0. -1.
          2   -1    0    0  501    0 -0.00000000000E+00 -0.00000000000E+00 -0.10454502659E+03  0.10454502659E+03  0.00000000000E+00 0. -1.
    9000006    2    1    2  501    0  0.00000000000E+00  0.00000000000E+00  0.89545497341E+03  0.11045450266E+04  0.64666846711E+03 0.  0.
         13    1    3    3    0    0  0.14955970369E+03  0.28453090097E+03  0.50736496491E+03  0.60062063417E+03  0.00000000000E+00 0. -1.
          2    1    3    3  501    0 -0.14955970369E+03 -0.28453090097E+03  0.38809000850E+03  0.50392439242E+03  0.00000000000E+00 0. -1.
<mgrwt>
<rscale>  0 0.64666847E+03</rscale>
<asrwt>0</asrwt>
<pdfrwt beam="1">0</pdfrwt>
<pdfrwt beam="2">  1        2 0.38016453E+00 0.64666847E+03</pdfrwt>
<totfact> 0.47216479E+00</totfact>
</mgrwt>
</event>
<event>
 5    1  0.2366700E-004  0.5716780E+03  0.7818608E-02  0.9965972E-01
         13   -1    0    0    0    0  0.00000000000E+00  0.00000000000E+00  0.10000000000E+04  0.10000000000E+04  0.00000000000E+00 0. -1.
          2   -1    0    0  501    0 -0.00000000000E+00 -0.00000000000E+00 -0.81703934233E+02  0.81703934233E+02  0.00000000000E+00 0. -1.
    9000006    2    1    2  501    0  0.00000000000E+00  0.00000000000E+00  0.91829606577E+03  0.10817039342E+04  0.57167800109E+03 0.  0.
         13    1    3    3    0    0 -0.27077118827E+03  0.30958829989E+02  0.62223001927E+03  0.67929793348E+03  0.00000000000E+00 0. -1.
          4    1    3    3  501    0  0.27077118827E+03 -0.30958829989E+02  0.29606604650E+03  0.40240600075E+03  0.00000000000E+00 0. -1.
<mgrwt>
<rscale>  0 0.57167800E+03</rscale>
<asrwt>0</asrwt>
<pdfrwt beam="1">0</pdfrwt>
<pdfrwt beam="2">  1        2 0.29710584E+00 0.57167800E+03</pdfrwt>
<totfact> 0.94555011E+00</totfact>
</mgrwt>
</event>
<event>
 5    1  0.2366700E-004  0.6459520E+03  0.7818608E-02  0.9814405E-01
         13   -1    0    0    0    0  0.00000000000E+00  0.00000000000E+00  0.10000000000E+04  0.10000000000E+04  0.00000000000E+00 0. -1.
          2   -1    0    0  501    0 -0.00000000000E+00 -0.00000000000E+00 -0.10431349683E+03  0.10431349683E+03  0.00000000000E+00 0. -1.
    9000006    2    1    2  501    0  0.00000000000E+00  0.00000000000E+00  0.89568650317E+03  0.11043134968E+04  0.64595200079E+03 0.  0.
         13    1    3    3    0    0  0.18298951263E+03 -0.19522539256E+03  0.75706364251E+03  0.80295919849E+03  0.00000000000E+00 0. -1.
          4    1    3    3  501    0 -0.18298951263E+03  0.19522539256E+03  0.13862286066E+03  0.30135429834E+03  0.00000000000E+00 0. -1.
<mgrwt>
<rscale>  0 0.64595200E+03</rscale>
<asrwt>0</asrwt>
<pdfrwt beam="1">0</pdfrwt>
<pdfrwt beam="2">  1        2 0.37932261E+00 0.64595200E+03</pdfrwt>
<totfact> 0.47557987E+00</totfact>
</mgrwt>
</event>
<event>
 5    1  0.2366700E-004  0.6544814E+03  0.7818608E-02  0.9798406E-01
         13   -1    0    0    0    0  0.00000000000E+00  0.00000000000E+00  0.10000000000E+04  0.10000000000E+04  0.00000000000E+00 0. -1.
          2   -1    0    0  501    0 -0.00000000000E+00 -0.00000000000E+00 -0.10708646906E+03  0.10708646906E+03  0.00000000000E+00 0. -1.
    9000006    2    1    2  501    0  0.00000000000E+00  0.00000000000E+00  0.89291353094E+03  0.11070864691E+04  0.65448137959E+03 0.  0.
         13    1    3    3    0    0  0.13066316648E+03  0.13933816217E+03 -0.29937997012E+01  0.19104174765E+03  0.00000000000E+00 0. -1.
          4    1    3    3  501    0 -0.13066316648E+03 -0.13933816217E+03  0.89590733064E+03  0.91604472140E+03  0.00000000000E+00 0. -1.
<mgrwt>
<rscale>  0 0.65448138E+03</rscale>
<asrwt>0</asrwt>
<pdfrwt beam="1">0</pdfrwt>
<pdfrwt beam="2">  1        2 0.38940616E+00 0.65448138E+03</pdfrwt>
<totfact> 0.43611478E+00</totfact>
</mgrwt>
</event>
<event>
 5    1  0.2366700E-004  0.6632302E+03  0.7818608E-02  0.9782266E-01
         13   -1    0    0    0    0  0.00000000000E+00  0.00000000000E+00  0.10000000000E+04  0.10000000000E+04  0.00000000000E+00 0. -1.
          2   -1    0    0  501    0 -0.00000000000E+00 -0.00000000000E+00 -0.10996856719E+03  0.10996856719E+03  0.00000000000E+00 0. -1.
    9000006    2    1    2  501    0  0.00000000000E+00  0.00000000000E+00  0.89003143281E+03  0.11099685672E+04  0.66323017782E+03 0.  0.
         13    1    3    3    0    0  0.19673732352E+03  0.17232547445E+03  0.10380682249E+03  0.28138496763E+03  0.00000000000E+00 0. -1.
          4    1    3    3  501    0 -0.19673732352E+03 -0.17232547445E+03  0.78622461031E+03  0.82858359957E+03  0.00000000000E+00 0. -1.
<mgrwt>
<rscale>  0 0.66323018E+03</rscale>
<asrwt>0</asrwt>
<pdfrwt beam="1">0</pdfrwt>
<pdfrwt beam="2">  1        2 0.39988654E+00 0.66323018E+03</pdfrwt>
<totfact> 0.39825876E+00</totfact>
</mgrwt>
</event>
<event>
 5    1  0.2366700E-004  0.6342295E+03  0.7818608E-02  0.9836830E-01
         13   -1    0    0    0    0  0.00000000000E+00  0.00000000000E+00  0.10000000000E+04  0.10000000000E+04  0.00000000000E+00 0. -1.
          2   -1    0    0  501    0 -0.00000000000E+00 -0.00000000000E+00 -0.10056177980E+03  0.10056177980E+03  0.00000000000E+00 0. -1.
    9000006    2    1    2  501    0  0.00000000000E+00  0.00000000000E+00  0.89943822020E+03  0.11005617798E+04  0.63422954771E+03 0.  0.
         13    1    3    3    0    0  0.12846947414E+02 -0.29526985322E+03  0.25025735970E+03  0.38727003029E+03  0.00000000000E+00 0. -1.
          4    1    3    3  501    0 -0.12846947414E+02  0.29526985322E+03  0.64918086050E+03  0.71329174951E+03  0.00000000000E+00 0. -1.
<mgrwt>
<rscale>  0 0.63422955E+03</rscale>
<asrwt>0</asrwt>
<pdfrwt beam="1">0</pdfrwt>
<pdfrwt beam="2">  1        2 0.36567997E+00 0.63422955E+03</pdfrwt>
<totfact> 0.53416169E+00</totfact>
</mgrwt>
</event>
<event>
 5    1  0.2366700E-004  0.6535304E+03  0.7818608E-02  0.9800177E-01
         13   -1    0    0    0    0  0.00000000000E+00  0.00000000000E+00  0.10000000000E+04  0.10000000000E+04  0.00000000000E+00 0. -1.
          2   -1    0    0  501    0 -0.00000000000E+00 -0.00000000000E+00 -0.10677548246E+03  0.10677548246E+03  0.00000000000E+00 0. -1.
    9000006    2    1    2  501    0  0.00000000000E+00  0.00000000000E+00  0.89322451754E+03  0.11067754825E+04  0.65353035879E+03 0.  0.
         13    1    3    3    0    0  0.84089533889E+02 -0.31456772552E+03  0.49304037120E+03  0.59085760661E+03  0.00000000000E+00 0. -1.
          4    1    3    3  501    0 -0.84089533889E+02  0.31456772552E+03  0.40018414634E+03  0.51591787586E+03  0.00000000000E+00 0. -1.
<mgrwt>
<rscale>  0 0.65353036E+03</rscale>
<asrwt>0</asrwt>
<pdfrwt beam="1">0</pdfrwt>
<pdfrwt beam="2">  1        2 0.38827530E+00 0.65353036E+03</pdfrwt>
<totfact> 0.44038790E+00</totfact>
</mgrwt>
</event>
<event>
 5    1  0.2366700E-004  0.6549891E+03  0.7818608E-02  0.9797462E-01
         13   -1    0    0    0    0  0.00000000000E+00  0.00000000000E+00  0.10000000000E+04  0.10000000000E+04  0.00000000000E+00 0. -1.
          2   -1    0    0  501    0 -0.00000000000E+00 -0.00000000000E+00 -0.10725266812E+03  0.10725266812E+03  0.00000000000E+00 0. -1.
    9000006    2    1    2  501    0  0.00000000000E+00  0.00000000000E+00  0.89274733188E+03  0.11072526681E+04  0.65498906286E+03 0.  0.
         13    1    3    3    0    0 -0.27119578978E+03 -0.18188717424E+03  0.48855360376E+03  0.58763485626E+03  0.00000000000E+00 0. -1.
          2    1    3    3  501    0  0.27119578978E+03  0.18188717424E+03  0.40419372812E+03  0.51961781185E+03  0.00000000000E+00 0. -1.
<mgrwt>
<rscale>  0 0.65498906E+03</rscale>
<asrwt>0</asrwt>
<pdfrwt beam="1">0</pdfrwt>
<pdfrwt beam="2">  1        2 0.39001052E+00 0.65498906E+03</pdfrwt>
<totfact> 0.43384651E+00</totfact>
</mgrwt>
</event>
<event>
 5    1  0.2366700E-004  0.6477405E+03  0.7818608E-02  0.9811028E-01
         13   -1    0    0    0    0  0.00000000000E+00  0.00000000000E+00  0.10000000000E+04  0.10000000000E+04  0.00000000000E+00 0. -1.
          2   -1    0    0  501    0 -0.00000000000E+00 -0.00000000000E+00 -0.10489193549E+03  0.10489193549E+03  0.00000000000E+00 0. -1.
    9000006    2    1    2  501    0  0.00000000000E+00  0.00000000000E+00  0.89510806451E+03  0.11048919355E+04  0.64774048966E+03 0.  0.
         13    1    3    3    0    0 -0.13610778436E+03 -0.20558650239E+03  0.80576755396E+03  0.84264612379E+03  0.00000000000E+00 0. -1.
          2    1    3    3  501    0  0.13610778436E+03  0.20558650239E+03  0.89340510557E+02  0.26224581170E+03  0.00000000000E+00 0. -1.
<mgrwt>
<rscale>  0 0.64774049E+03</rscale>
<asrwt>0</asrwt>
<pdfrwt beam="1">0</pdfrwt>
<pdfrwt beam="2">  1        2 0.38142602E+00 0.64774049E+03</pdfrwt>
<totfact> 0.46708959E+00</totfact>
</mgrwt>
</event>
<event>
 5    1  0.2366700E-004  0.6521802E+03  0.7818608E-02  0.9802697E-01
         13   -1    0    0    0    0  0.00000000000E+00  0.00000000000E+00  0.10000000000E+04  0.10000000000E+04  0.00000000000E+00 0. -1.
          2   -1    0    0  501    0 -0.00000000000E+00 -0.00000000000E+00 -0.10633475404E+03  0.10633475404E+03  0.00000000000E+00 0. -1.
    9000006    2    1    2  501    0  0.00000000000E+00  0.00000000000E+00  0.89366524596E+03  0.11063347540E+04  0.65218020223E+03 0.  0.
         13    1    3    3    0    0 -0.31720414861E+00 -0.32107799317E+03  0.35022064688E+03  0.47512701440E+03  0.00000000000E+00 0. -1.
          2    1    3    3  501    0  0.31720414861E+00  0.32107799317E+03  0.54344459908E+03  0.63120773964E+03  0.00000000000E+00 0. -1.
<mgrwt>
<rscale>  0 0.65218020E+03</rscale>
<asrwt>0</asrwt>
<pdfrwt beam="1">0</pdfrwt>
<pdfrwt beam="2">  1        2 0.38667265E+00 0.65218020E+03</pdfrwt>
<totfact> 0.44650865E+00</totfact>
</mgrwt>
</event>
<event>
 5    1  0.2366700E-004  0.6484026E+03  0.7818608E-02  0.9809781E-01
         13   -1    0    0    0    0  0.00000000000E+00  0.00000000000E+00  0.10000000000E+04  0.10000000000E+04  0.00000000000E+00 0. -1.
          2   -1    0    0  501    0 -0.00000000000E+00 -0.00000000000E+00 -0.10510646866E+03  0.10510646866E+03  0.00000000000E+00 0. -1.
    9000006    2    1    2  501    0  0.00000000000E+00  0.00000000000E+00  0.89489353134E+03  0.11051064687E+04  0.64840255600E+03 0.  0.
         13    1    3    3    0    0  0.19171408384E+03 -0.11127780106E+03  0.85066006088E+03  0.87906744800E+03  0.00000000000E+00 0. -1.
          4    1    3    3  501    0 -0.19171408384E+03  0.11127780106E+03  0.44233470465E+02  0.22603902066E+03  0.00000000000E+00 0. -1.
<mgrwt>
<rscale>  0 0.64840256E+03</rscale>
<asrwt>0</asrwt>
<pdfrwt beam="1">0</pdfrwt>
<pdfrwt beam="2">  1        2 0.38220615E+00 0.64840256E+03</pdfrwt>
<totfact> 0.46397590E+00</totfact>
</mgrwt>
</event>
<event>
 5    1  0.2366700E-004  0.6505859E+03  0.7818608E-02  0.9805680E-01
         13   -1    0    0    0    0  0.00000000000E+00  0.00000000000E+00  0.10000000000E+04  0.10000000000E+04  0.00000000000E+00 0. -1.
          2   -1    0    0  501    0 -0.00000000000E+00 -0.00000000000E+00 -0.10581548879E+03  0.10581548879E+03  0.00000000000E+00 0. -1.
    9000006    2    1    2  501    0  0.00000000000E+00  0.00000000000E+00  0.89418451121E+03  0.11058154888E+04  0.65058585535E+03 0.  0.
         13    1    3    3    0    0  0.14730811519E+03  0.29000808778E+03  0.44142500754E+03  0.54832509432E+03  0.00000000000E+00 0. -1.
          2    1    3    3  501    0 -0.14730811519E+03 -0.29000808778E+03  0.45275950366E+03  0.55749039448E+03  0.00000000000E+00 0. -1.
<mgrwt>
<rscale>  0 0.65058586E+03</rscale>
<asrwt>0</asrwt>
<pdfrwt beam="1">0</pdfrwt>
<pdfrwt beam="2">  1        2 0.38478441E+00 0.65058586E+03</pdfrwt>
<totfact> 0.45381892E+00</totfact>
</mgrwt>
</event>
<event>
 5    1  0.2366700E-004  0.6469837E+03  0.7818608E-02  0.9812456E-01
         13   -1    0    0    0    0  0.00000000000E+00  0.00000000000E+00  0.10000000000E+04  0.10000000000E+04  0.00000000000E+00 0. -1.
          2   -1    0    0  501    0 -0.00000000000E+00 -0.00000000000E+00 -0.10464696309E+03  0.10464696309E+03  0.00000000000E+00 0. -1.
    9000006    2    1    2  501    0  0.00000000000E+00  0.00000000000E+00  0.89535303691E+03  0.11046469631E+04  0.64698365695E+03 0.  0.
         13    1    3    3    0    0  0.29731139597E+03 -0.61822610483E+02  0.63803876036E+03  0.70661839847E+03  0.00000000000E+00 0. -1.
          2    1    3    3  501    0 -0.29731139597E+03  0.61822610483E+02  0.25731427655E+03  0.39802856462E+03  0.00000000000E+00 0. -1.
<mgrwt>
<rscale>  0 0.64698366E+03</rscale>
<asrwt>0</asrwt>
<pdfrwt beam="1">0</pdfrwt>
<pdfrwt beam="2">  1        2 0.38053521E+00 0.64698366E+03</pdfrwt>
<totfact> 0.47066830E+00</totfact>
</mgrwt>
</event>
<event>
 5    1  0.2366700E-004  0.6477870E+03  0.7818608E-02  0.9810941E-01
         13   -1    0    0    0    0  0.00000000000E+00  0.00000000000E+00  0.10000000000E+04  0.10000000000E+04  0.00000000000E+00 0. -1.
          2   -1    0    0  501    0 -0.00000000000E+00 -0.00000000000E+00 -0.10490698466E+03  0.10490698466E+03  0.00000000000E+00 0. -1.
    9000006    2    1    2  501    0  0.00000000000E+00  0.00000000000E+00  0.89509301534E+03  0.11049069847E+04  0.64778695467E+03 0.  0.
         13    1    3    3    0    0  0.18432749981E+03  0.18488629098E+03  0.12057724401E+03  0.28757336378E+03  0.00000000000E+00 0. -1.
          2    1    3    3  501    0 -0.18432749981E+03 -0.18488629098E+03  0.77451577133E+03  0.81733362088E+03  0.00000000000E+00 0. -1.
<mgrwt>
<rscale>  0 0.64778695E+03</rscale>
<asrwt>0</asrwt>
<pdfrwt beam="1">0</pdfrwt>
<pdfrwt beam="2">  1        2 0.38148075E+00 0.64778695E+03</pdfrwt>
<totfact> 0.46687055E+00</totfact>
</mgrwt>
</event>
<event>
 5    1  0.2366700E-004  0.6611635E+03  0.7818608E-02  0.9786054E-01
         13   -1    0    0    0    0  0.00000000000E+00  0.00000000000E+00  0.10000000000E+04  0.10000000000E+04  0.00000000000E+00 0. -1.
          2   -1    0    0  501    0 -0.00000000000E+00 -0.00000000000E+00 -0.10928428695E+03  0.10928428695E+03  0.00000000000E+00 0. -1.
    9000006    2    1    2  501    0  0.00000000000E+00  0.00000000000E+00  0.89071571305E+03  0.11092842869E+04  0.66116348038E+03 0.  0.
         13    1    3    3    0    0 -0.81855107802E+02 -0.14739805902E+03  0.92244209966E+03  0.93772377260E+03  0.00000000000E+00 0. -1.
          4    1    3    3  501    0  0.81855107802E+02  0.14739805902E+03 -0.31726386610E+02  0.17156051435E+03  0.00000000000E+00 0. -1.
<mgrwt>
<rscale>  0 0.66116348E+03</rscale>
<asrwt>0</asrwt>
<pdfrwt beam="1">0</pdfrwt>
<pdfrwt beam="2">  1        2 0.39739825E+00 0.66116348E+03</pdfrwt>
<totfact> 0.40696795E+00</totfact>
</mgrwt>
</event>
<event>
 5    1  0.2366700E-004  0.6662598E+03  0.7818608E-02  0.9776738E-01
         13   -1    0    0    0    0  0.00000000000E+00  0.00000000000E+00  0.10000000000E+04  0.10000000000E+04  0.00000000000E+00 0. -1.
          2   -1    0    0  501    0 -0.00000000000E+00 -0.00000000000E+00 -0.11097553447E+03  0.11097553447E+03  0.00000000000E+00 0. -1.
    9000006    2    1    2  501    0  0.00000000000E+00  0.00000000000E+00  0.88902446553E+03  0.11109755345E+04  0.66625981260E+03 0.  0.
         13    1    3    3    0    0 -0.87530783719E+02  0.24030376636E+03  0.88560720186E+02  0.27064836852E+03  0.00000000000E+00 0. -1.
          2    1    3    3  501    0  0.87530783719E+02 -0.24030376636E+03  0.80046374534E+03  0.84032716595E+03  0.00000000000E+00 0. -1.
<mgrwt>
<rscale>  0 0.66625981E+03</rscale>
<asrwt>0</asrwt>
<pdfrwt beam="1">0</pdfrwt>
<pdfrwt beam="2">  1        2 0.40354825E+00 0.66625981E+03</pdfrwt>
<totfact> 0.38574669E+00</totfact>
</mgrwt>
</event>
<event>
 5    1  0.2366700E-004  0.6438683E+03  0.7818608E-02  0.9818353E-01
         13   -1    0    0    0    0  0.00000000000E+00  0.00000000000E+00  0.10000000000E+04  0.10000000000E+04  0.00000000000E+00 0. -1.
          2   -1    0    0  501    0 -0.00000000000E+00 -0.00000000000E+00 -0.10364161212E+03  0.10364161212E+03  0.00000000000E+00 0. -1.
    9000006    2    1    2  501    0  0.00000000000E+00  0.00000000000E+00  0.89635838788E+03  0.11036416121E+04  0.64386834716E+03 0.  0.
         13    1    3    3    0    0  0.33103968518E+01  0.29210187000E+03  0.68010088684E+03  0.74018354309E+03  0.00000000000E+00 0. -1.
          4    1    3    3  501    0 -0.33103968518E+01 -0.29210187000E+03  0.21625750104E+03  0.36345806903E+03  0.00000000000E+00 0. -1.
<mgrwt>
<rscale>  0 0.64386835E+03</rscale>
<asrwt>0</asrwt>
<pdfrwt beam="1">0</pdfrwt>
<pdfrwt beam="2">  1        2 0.37687938E+00 0.64386835E+03</pdfrwt>
<totfact> 0.48561803E+00</totfact>
</mgrwt>
</event>
<event>
 5    1  0.2366700E-004  0.6507246E+03  0.7818608E-02  0.9805420E-01
         13   -1    0    0    0    0  0.00000000000E+00  0.00000000000E+00  0.10000000000E+04  0.10000000000E+04  0.00000000000E+00 0. -1.
          2   -1    0    0  501    0 -0.00000000000E+00 -0.00000000000E+00 -0.10586063050E+03  0.10586063050E+03  0.00000000000E+00 0. -1.
    9000006    2    1    2  501    0  0.00000000000E+00  0.00000000000E+00  0.89413936950E+03  0.11058606305E+04  0.65072461302E+03 0.  0.
         13    1    3    3    0    0 -0.96420945212E+02 -0.25536130024E+03  0.74798984869E+03  0.79623815914E+03  0.00000000000E+00 0. -1.
          4    1    3    3  501    0  0.96420945212E+02  0.25536130024E+03  0.14614952082E+03  0.30962247136E+03  0.00000000000E+00 0. -1.
<mgrwt>
<rscale>  0 0.65072461E+03</rscale>
<asrwt>0</asrwt>
<pdfrwt beam="1">0</pdfrwt>
<pdfrwt beam="2">  1        2 0.38494856E+00 0.65072461E+03</pdfrwt>
<totfact> 0.45317913E+00</totfact>
</mgrwt>
</event>
<event>
 5    1  0.2366700E-004  0.6472142E+03  0.7818608E-02  0.9812021E-01
         13   -1    0    0    0    0  0.00000000000E+00  0.00000000000E+00  0.10000000000E+04  0.10000000000E+04  0.00000000000E+00 0. -1.
          2   -1    0    0  501    0 -0.00000000000E+00 -0.00000000000E+00 -0.10472154594E+03  0.10472154594E+03  0.00000000000E+00 0. -1.
    9000006    2    1    2  501    0  0.00000000000E+00  0.00000000000E+00  0.89527845406E+03  0.11047215459E+04  0.64721417148E+03 0.  0.
         13    1    3    3    0    0  0.13664152001E+03 -0.79027106924E+02 -0.34553693113E+02  0.16158634326E+03  0.00000000000E+00 0. -1.
          2    1    3    3  501    0 -0.13664152001E+03  0.79027106924E+02  0.92983214717E+03  0.94313520268E+03  0.00000000000E+00 0. -1.
<mgrwt>
<rscale>  0 0.64721417E+03</rscale>
<asrwt>0</asrwt>
<pdfrwt beam="1">0</pdfrwt>
<pdfrwt beam="2">  1        2 0.38080642E+00 0.64721417E+03</pdfrwt>
<totfact> 0.46957612E+00</totfact>
</mgrwt>
</event>
<event>
 5    1  0.2366700E-004  0.6478953E+03  0.7818608E-02  0.9810737E-01
         13   -1    0    0    0    0  0.00000000000E+00  0.00000000000E+00  0.10000000000E+04  0.10000000000E+04  0.00000000000E+00 0. -1.
          2   -1    0    0  501    0 -0.00000000000E+00 -0.00000000000E+00 -0.10494206499E+03  0.10494206499E+03  0.00000000000E+00 0. -1.
    9000006    2    1    2  501    0  0.00000000000E+00  0.00000000000E+00  0.89505793501E+03  0.11049420650E+04  0.64789525385E+03 0.  0.
         13    1    3    3    0    0 -0.31937030924E+03 -0.34093837293E+02  0.51952735605E+03  0.61079330206E+03  0.00000000000E+00 0. -1.
          4    1    3    3  501    0  0.31937030924E+03  0.34093837293E+02  0.37553057896E+03  0.49414876293E+03  0.00000000000E+00 0. -1.
<mgrwt>
<rscale>  0 0.64789525E+03</rscale>
<asrwt>0</asrwt>
<pdfrwt beam="1">0</pdfrwt>
<pdfrwt beam="2">  1        2 0.38160831E+00 0.64789525E+03</pdfrwt>
<totfact> 0.46636033E+00</totfact>
</mgrwt>
</event>
<event>
 5    1  0.2366700E-004  0.6364620E+03  0.7818608E-02  0.9832519E-01
         13   -1    0    0    0    0  0.00000000000E+00  0.00000000000E+00  0.10000000000E+04  0.10000000000E+04  0.00000000000E+00 0. -1.
          2   -1    0    0  501    0 -0.00000000000E+00 -0.00000000000E+00 -0.10127096180E+03  0.10127096180E+03  0.00000000000E+00 0. -1.
    9000006    2    1    2  501    0  0.00000000000E+00  0.00000000000E+00  0.89872903820E+03  0.11012709618E+04  0.63646197625E+03 0.  0.
         13    1    3    3    0    0 -0.25956075948E+03  0.42799273807E+01  0.76785680152E+03  0.81055177088E+03  0.00000000000E+00 0. -1.
          4    1    3    3  501    0  0.25956075948E+03 -0.42799273807E+01  0.13087223668E+03  0.29071919092E+03  0.00000000000E+00 0. -1.
<mgrwt>
<rscale>  0 0.63646198E+03</rscale>
<asrwt>0</asrwt>
<pdfrwt beam="1">0</pdfrwt>
<pdfrwt beam="2">  1        2 0.36825882E+00 0.63646198E+03</pdfrwt>
<totfact> 0.52260533E+00</totfact>
</mgrwt>
</event>
<event>
 5    1  0.2366700E-004  0.6484719E+03  0.7818608E-02  0.9809651E-01
         13   -1    0    0    0    0  0.00000000000E+00  0.00000000000E+00  0.10000000000E+04  0.10000000000E+04  0.00000000000E+00 0. -1.
          2   -1    0    0  501    0 -0.00000000000E+00 -0.00000000000E+00 -0.10512895312E+03  0.10512895312E+03  0.00000000000E+00 0. -1.
    9000006    2    1    2  501    0  0.00000000000E+00  0.00000000000E+00  0.89487104688E+03  0.11051289531E+04  0.64847190570E+03 0.  0.
         13    1    3    3    0    0  0.13984928768E+03  0.27450126135E+03  0.61972201243E+03  0.69207235058E+03  0.00000000000E+00 0. -1.
          4    1    3    3  501    0 -0.13984928768E+03 -0.27450126135E+03  0.27514903445E+03  0.41305660254E+03  0.00000000000E+00 0. -1.
<mgrwt>
<rscale>  0 0.64847191E+03</rscale>
<asrwt>0</asrwt>
<pdfrwt beam="1">0</pdfrwt>
<pdfrwt beam="2">  1        2 0.38228791E+00 0.64847191E+03</pdfrwt>
<totfact> 0.46365066E+00</totfact>
</mgrwt>
</event>
<event>
 5    1  0.2366700E-004  0.5158889E+03  0.7818608E-02  0.1009713E+00
         13   -1    0    0    0    0  0.00000000000E+00  0.00000000000E+00  0.10000000000E+04  0.10000000000E+04  0.00000000000E+00 0. -1.
          2   -1    0    0  501    0 -0.00000000000E+00 -0.00000000000E+00 -0.66535339892E+02  0.66535339892E+02  0.00000000000E+00 0. -1.
    9000006    2    1    2  501    0  0.00000000000E+00  0.00000000000E+00  0.93346466011E+03  0.10665353399E+04  0.51588890235E+03 0.  0.
         13    1    3    3    0    0  0.17906126110E+02  0.24356152162E+03  0.63836790833E+03  0.68348842752E+03  0.00000000000E+00 0. -1.
          2    1    3    3  501    0 -0.17906126110E+02 -0.24356152162E+03  0.29509675178E+03  0.38304691238E+03  0.00000000000E+00 0. -1.
<mgrwt>
<rscale>  0 0.51588890E+03</rscale>
<asrwt>0</asrwt>
<pdfrwt beam="1">0</pdfrwt>
<pdfrwt beam="2">  1        2 0.24194720E+00 0.51588890E+03</pdfrwt>
<totfact> 0.14902603E+01</totfact>
</mgrwt>
</event>
<event>
 5    1  0.2366700E-004  0.6268428E+03  0.7818608E-02  0.9851229E-01
         13   -1    0    0    0    0  0.00000000000E+00  0.00000000000E+00  0.10000000000E+04  0.10000000000E+04  0.00000000000E+00 0. -1.
          2   -1    0    0  501    0 -0.00000000000E+00 -0.00000000000E+00 -0.98232960799E+02  0.98232960799E+02  0.00000000000E+00 0. -1.
    9000006    2    1    2  501    0  0.00000000000E+00  0.00000000000E+00  0.90176703920E+03  0.10982329608E+04  0.62684275795E+03 0.  0.
         13    1    3    3    0    0 -0.15079755341E+03  0.23823528136E+03  0.69070385081E+03  0.74603469150E+03  0.00000000000E+00 0. -1.
          4    1    3    3  501    0  0.15079755341E+03 -0.23823528136E+03  0.21106318839E+03  0.35219826929E+03  0.00000000000E+00 0. -1.
<mgrwt>
<rscale>  0 0.62684276E+03</rscale>
<asrwt>0</asrwt>
<pdfrwt beam="1">0</pdfrwt>
<pdfrwt beam="2">  1        2 0.35721152E+00 0.62684276E+03</pdfrwt>
<totfact> 0.57378664E+00</totfact>
</mgrwt>
</event>
<event>
 5    1  0.2366700E-004  0.5323710E+03  0.7818608E-02  0.1005659E+00
         13   -1    0    0    0    0  0.00000000000E+00  0.00000000000E+00  0.10000000000E+04  0.10000000000E+04  0.00000000000E+00 0. -1.
          2   -1    0    0  501    0 -0.00000000000E+00 -0.00000000000E+00 -0.70854720859E+02  0.70854720859E+02  0.00000000000E+00 0. -1.
    9000006    2    1    2  501    0  0.00000000000E+00  0.00000000000E+00  0.92914527914E+03  0.10708547209E+04  0.53237100168E+03 0.  0.
         13    1    3    3    0    0 -0.12623331705E+03  0.21965163297E+03  0.30025744540E+03  0.39285649252E+03  0.00000000000E+00 0. -1.
          2    1    3    3  501    0  0.12623331705E+03 -0.21965163297E+03  0.62888783374E+03  0.67799822834E+03  0.00000000000E+00 0. -1.
<mgrwt>
<rscale>  0 0.53237100E+03</rscale>
<asrwt>0</asrwt>
<pdfrwt beam="1">0</pdfrwt>
<pdfrwt beam="2">  1        2 0.25765407E+00 0.53237100E+03</pdfrwt>
<totfact> 0.13084661E+01</totfact>
</mgrwt>
</event>
<event>
 5    1  0.2366700E-004  0.7178535E+03  0.7818608E-02  0.9687178E-01
         13   -1    0    0    0    0  0.00000000000E+00  0.00000000000E+00  0.10000000000E+04  0.10000000000E+04  0.00000000000E+00 0. -1.
          2   -1    0    0  501    0 -0.00000000000E+00 -0.00000000000E+00 -0.12882842352E+03  0.12882842352E+03  0.00000000000E+00 0. -1.
    9000006    2    1    2  501    0  0.00000000000E+00  0.00000000000E+00  0.87117157648E+03  0.11288284235E+04  0.71785353247E+03 0.  0.
         13    1    3    3    0    0 -0.14802992424E+03  0.91221475298E+02  0.92934793736E+03  0.94547438078E+03  0.00000000000E+00 0. -1.
          2    1    3    3  501    0  0.14802992424E+03 -0.91221475298E+02 -0.58176360882E+02  0.18335404274E+03  0.00000000000E+00 0. -1.
<mgrwt>
<rscale>  0 0.71785353E+03</rscale>
<asrwt>0</asrwt>
<pdfrwt beam="1">0</pdfrwt>
<pdfrwt beam="2">  1        2 0.46846798E+00 0.71785353E+03</pdfrwt>
<totfact> 0.21465495E+00</totfact>
</mgrwt>
</event>
<event>
 5    1  0.2366700E-004  0.6437999E+03  0.7818608E-02  0.9818483E-01
         13   -1    0    0    0    0  0.00000000000E+00  0.00000000000E+00  0.10000000000E+04  0.10000000000E+04  0.00000000000E+00 0. -1.
          2   -1    0    0  501    0 -0.00000000000E+00 -0.00000000000E+00 -0.10361957886E+03  0.10361957886E+03  0.00000000000E+00 0. -1.
    9000006    2    1    2  501    0  0.00000000000E+00  0.00000000000E+00  0.89638042114E+03  0.11036195789E+04  0.64379990325E+03 0.  0.
         13    1    3    3    0    0 -0.19863532510E+03 -0.12506710117E+03  0.82579454520E+03  0.85850707805E+03  0.00000000000E+00 0. -1.
          2    1    3    3  501    0  0.19863532510E+03  0.12506710117E+03  0.70585875944E+02  0.24511250081E+03  0.00000000000E+00 0. -1.
<mgrwt>
<rscale>  0 0.64379990E+03</rscale>
<asrwt>0</asrwt>
<pdfrwt beam="1">0</pdfrwt>
<pdfrwt beam="2">  1        2 0.37679926E+00 0.64379990E+03</pdfrwt>
<totfact> 0.48595046E+00</totfact>
</mgrwt>
</event>
<event>
 5    1  0.2366700E-004  0.6551295E+03  0.7818608E-02  0.9797201E-01
         13   -1    0    0    0    0  0.00000000000E+00  0.00000000000E+00  0.10000000000E+04  0.10000000000E+04  0.00000000000E+00 0. -1.
          2   -1    0    0  501    0 -0.00000000000E+00 -0.00000000000E+00 -0.10729865476E+03  0.10729865476E+03  0.00000000000E+00 0. -1.
    9000006    2    1    2  501    0  0.00000000000E+00  0.00000000000E+00  0.89270134524E+03  0.11072986548E+04  0.65512946738E+03 0.  0.
         13    1    3    3    0    0  0.32371451879E+03  0.41208164245E+02  0.39826305470E+03  0.51488121272E+03  0.00000000000E+00 0. -1.
          2    1    3    3  501    0 -0.32371451879E+03 -0.41208164245E+02  0.49443829055E+03  0.59241744204E+03  0.00000000000E+00 0. -1.
<mgrwt>
<rscale>  0 0.65512947E+03</rscale>
<asrwt>0</asrwt>
<pdfrwt beam="1">0</pdfrwt>
<pdfrwt beam="2">  1        2 0.39017775E+00 0.65512947E+03</pdfrwt>
<totfact> 0.43322078E+00</totfact>
</mgrwt>
</event>
<event>
 5    1  0.2366700E-004  0.6616463E+03  0.7818608E-02  0.9785168E-01
         13   -1    0    0    0    0  0.00000000000E+00  0.00000000000E+00  0.10000000000E+04  0.10000000000E+04  0.00000000000E+00 0. -1.
          2   -1    0    0  501    0 -0.00000000000E+00 -0.00000000000E+00 -0.10944396237E+03  0.10944396237E+03  0.00000000000E+00 0. -1.
    9000006    2    1    2  501    0  0.00000000000E+00  0.00000000000E+00  0.89055603763E+03  0.11094439624E+04  0.66164631752E+03 0.  0.
         13    1    3    3    0    0 -0.15657949655E+03  0.11959864592E+03 -0.32950396274E+00  0.19703066618E+03  0.00000000000E+00 0. -1.
          2    1    3    3  501    0  0.15657949655E+03 -0.11959864592E+03  0.89088554159E+03  0.91241329619E+03  0.00000000000E+00 0. -1.
<mgrwt>
<rscale>  0 0.66164632E+03</rscale>
<asrwt>0</asrwt>
<pdfrwt beam="1">0</pdfrwt>
<pdfrwt beam="2">  1        2 0.39797888E+00 0.66164632E+03</pdfrwt>
<totfact> 0.40492051E+00</totfact>
</mgrwt>
</event>
<event>
 5    1  0.2366700E-004  0.6247624E+03  0.7818608E-02  0.9855323E-01
         13   -1    0    0    0    0  0.00000000000E+00  0.00000000000E+00  0.10000000000E+04  0.10000000000E+04  0.00000000000E+00 0. -1.
          2   -1    0    0  501    0 -0.00000000000E+00 -0.00000000000E+00 -0.97582012112E+02  0.97582012112E+02  0.00000000000E+00 0. -1.
    9000006    2    1    2  501    0  0.00000000000E+00  0.00000000000E+00  0.90241798789E+03  0.10975820121E+04  0.62476239359E+03 0.  0.
         13    1    3    3    0    0 -0.17744152505E+03 -0.24257307355E+03  0.30157321107E+03  0.42576236619E+03  0.00000000000E+00 0. -1.
          2    1    3    3  501    0  0.17744152505E+03  0.24257307355E+03  0.60084477681E+03  0.67181964592E+03  0.00000000000E+00 0. -1.
<mgrwt>
<rscale>  0 0.62476239E+03</rscale>
<asrwt>0</asrwt>
<pdfrwt beam="1">0</pdfrwt>
<pdfrwt beam="2">  1        2 0.35484443E+00 0.62476239E+03</pdfrwt>
<totfact> 0.58533977E+00</totfact>
</mgrwt>
</event>
<event>
 5    1  0.2366700E-004  0.6548555E+03  0.7818608E-02  0.9797711E-01
         13   -1    0    0    0    0  0.00000000000E+00  0.00000000000E+00  0.10000000000E+04  0.10000000000E+04  0.00000000000E+00 0. -1.
          2   -1    0    0  501    0 -0.00000000000E+00 -0.00000000000E+00 -0.10720893102E+03  0.10720893102E+03  0.00000000000E+00 0. -1.
    9000006    2    1    2  501    0  0.00000000000E+00  0.00000000000E+00  0.89279106898E+03  0.11072089310E+04  0.65485549862E+03 0.  0.
         13    1    3    3    0    0 -0.26636606517E+03 -0.72570620153E+02  0.14874560189E+03  0.31359628452E+03  0.00000000000E+00 0. -1.
          2    1    3    3  501    0  0.26636606517E+03  0.72570620153E+02  0.74404546709E+03  0.79361264650E+03  0.00000000000E+00 0. -1.
<mgrwt>
<rscale>  0 0.65485550E+03</rscale>
<asrwt>0</asrwt>
<pdfrwt beam="1">0</pdfrwt>
<pdfrwt beam="2">  1        2 0.38985148E+00 0.65485550E+03</pdfrwt>
<totfact> 0.43444240E+00</totfact>
</mgrwt>
</event>
<event>
 5    1  0.2366700E-004  0.6498443E+03  0.7818608E-02  0.9807071E-01
         13   -1    0    0    0    0  0.00000000000E+00  0.00000000000E+00  0.10000000000E+04  0.10000000000E+04  0.00000000000E+00 0. -1.
          2   -1    0    0  501    0 -0.00000000000E+00 -0.00000000000E+00 -0.10557441133E+03  0.10557441133E+03  0.00000000000E+00 0. -1.
    9000006    2    1    2  501    0  0.00000000000E+00  0.00000000000E+00  0.89442558867E+03  0.11055744113E+04  0.64984432392E+03 0.  0.
         13    1    3    3    0    0 -0.26662357345E+03  0.13985732334E+03  0.65506442202E+03  0.72094215982E+03  0.00000000000E+00 0. -1.
          2    1    3    3  501    0  0.26662357345E+03 -0.13985732334E+03  0.23936116665E+03  0.38463225152E+03  0.00000000000E+00 0. -1.
<mgrwt>
<rscale>  0 0.64984432E+03</rscale>
<asrwt>0</asrwt>
<pdfrwt beam="1">0</pdfrwt>
<pdfrwt beam="2">  1        2 0.38390776E+00 0.64984432E+03</pdfrwt>
<totfact> 0.45724957E+00</totfact>
</mgrwt>
</event>
<event>
 5    1  0.2366700E-004  0.6510022E+03  0.7818608E-02  0.9804900E-01
         13   -1    0    0    0    0  0.00000000000E+00  0.00000000000E+00  0.10000000000E+04  0.10000000000E+04  0.00000000000E+00 0. -1.
          2   -1    0    0  501    0 -0.00000000000E+00 -0.00000000000E+00 -0.10595097167E+03  0.10595097167E+03  0.00000000000E+00 0. -1.
    9000006    2    1    2  501    0  0.00000000000E+00  0.00000000000E+00  0.89404902833E+03  0.11059509717E+04  0.65100221712E+03 0.  0.
         13    1    3    3    0    0  0.31455673790E+03 -0.82902161660E+02  0.42748693299E+03  0.53718133590E+03  0.00000000000E+00 0. -1.
          2    1    3    3  501    0 -0.31455673790E+03  0.82902161660E+02  0.46656209534E+03  0.56876963577E+03  0.00000000000E+00 0. -1.
<mgrwt>
<rscale>  0 0.65100222E+03</rscale>
<asrwt>0</asrwt>
<pdfrwt beam="1">0</pdfrwt>
<pdfrwt beam="2">  1        2 0.38527707E+00 0.65100222E+03</pdfrwt>
<totfact> 0.45190119E+00</totfact>
</mgrwt>
</event>
<event>
 5    1  0.2366700E-004  0.6603755E+03  0.7818608E-02  0.9787503E-01
         13   -1    0    0    0    0  0.00000000000E+00  0.00000000000E+00  0.10000000000E+04  0.10000000000E+04  0.00000000000E+00 0. -1.
          2   -1    0    0  501    0 -0.00000000000E+00 -0.00000000000E+00 -0.10902395110E+03  0.10902395110E+03  0.00000000000E+00 0. -1.
    9000006    2    1    2  501    0  0.00000000000E+00  0.00000000000E+00  0.89097604890E+03  0.11090239511E+04  0.66037550257E+03 0.  0.
         13    1    3    3    0    0 -0.91947312446E+02 -0.22604610526E+03  0.71951372691E+02  0.25441727536E+03  0.00000000000E+00 0. -1.
          2    1    3    3  501    0  0.91947312446E+02  0.22604610526E+03  0.81902467621E+03  0.85460667574E+03  0.00000000000E+00 0. -1.
<mgrwt>
<rscale>  0 0.66037550E+03</rscale>
<asrwt>0</asrwt>
<pdfrwt beam="1">0</pdfrwt>
<pdfrwt beam="2">  1        2 0.39645157E+00 0.66037550E+03</pdfrwt>
<totfact> 0.41032609E+00</totfact>
</mgrwt>
</event>
<event>
 5    1  0.2366700E-004  0.6523171E+03  0.7818608E-02  0.9802441E-01
         13   -1    0    0    0    0  0.00000000000E+00  0.00000000000E+00  0.10000000000E+04  0.10000000000E+04  0.00000000000E+00 0. -1.
          2   -1    0    0  501    0 -0.00000000000E+00 -0.00000000000E+00 -0.10637940689E+03  0.10637940689E+03  0.00000000000E+00 0. -1.
    9000006    2    1    2  501    0  0.00000000000E+00  0.00000000000E+00  0.89362059311E+03  0.11063794069E+04  0.65231712194E+03 0.  0.
         13    1    3    3    0    0 -0.74327936233E+02 -0.10556660056E+03 -0.61193363994E+02  0.14287608986E+03  0.00000000000E+00 0. -1.
          4    1    3    3  501    0  0.74327936233E+02  0.10556660056E+03  0.95481395710E+03  0.96350331703E+03  0.00000000000E+00 0. -1.
<mgrwt>
<rscale>  0 0.65231712E+03</rscale>
<asrwt>0</asrwt>
<pdfrwt beam="1">0</pdfrwt>
<pdfrwt beam="2">  1        2 0.38683502E+00 0.65231712E+03</pdfrwt>
<totfact> 0.44588504E+00</totfact>
</mgrwt>
</event>
<event>
 5    1  0.2366700E-004  0.6493530E+03  0.7818608E-02  0.9807994E-01
         13   -1    0    0    0    0  0.00000000000E+00  0.00000000000E+00  0.10000000000E+04  0.10000000000E+04  0.00000000000E+00 0. -1.
          2   -1    0    0  501    0 -0.00000000000E+00 -0.00000000000E+00 -0.10541481439E+03  0.10541481439E+03  0.00000000000E+00 0. -1.
    9000006    2    1    2  501    0  0.00000000000E+00  0.00000000000E+00  0.89458518561E+03  0.11054148144E+04  0.64935295300E+03 0.  0.
         13    1    3    3    0    0  0.32118498500E+02 -0.31795090353E+03  0.34964278150E+03  0.47368180212E+03  0.00000000000E+00 0. -1.
          2    1    3    3  501    0 -0.32118498500E+02  0.31795090353E+03  0.54494240411E+03  0.63173301227E+03  0.00000000000E+00 0. -1.
<mgrwt>
<rscale>  0 0.64935295E+03</rscale>
<asrwt>0</asrwt>
<pdfrwt beam="1">0</pdfrwt>
<pdfrwt beam="2">  1        2 0.38332741E+00 0.64935295E+03</pdfrwt>
<totfact> 0.45953364E+00</totfact>
</mgrwt>
</event>
<event>
 5    1  0.2366700E-004  0.6511701E+03  0.7818608E-02  0.9804586E-01
         13   -1    0    0    0    0  0.00000000000E+00  0.00000000000E+00  0.10000000000E+04  0.10000000000E+04  0.00000000000E+00 0. -1.
          2   -1    0    0  501    0 -0.00000000000E+00 -0.00000000000E+00 -0.10600563264E+03  0.10600563264E+03  0.00000000000E+00 0. -1.
    9000006    2    1    2  501    0  0.00000000000E+00  0.00000000000E+00  0.89399436736E+03  0.11060056326E+04  0.65117012412E+03 0.  0.
         13    1    3    3    0    0 -0.30735612767E+03 -0.10741435113E+03  0.44703850757E+03  0.55303621879E+03  0.00000000000E+00 0. -1.
          4    1    3    3  501    0  0.30735612767E+03  0.10741435113E+03  0.44695585979E+03  0.55296941384E+03  0.00000000000E+00 0. -1.
<mgrwt>
<rscale>  0 0.65117012E+03</rscale>
<asrwt>0</asrwt>
<pdfrwt beam="1">0</pdfrwt>
<pdfrwt beam="2">  1        2 0.38547584E+00 0.65117012E+03</pdfrwt>
<totfact> 0.45112956E+00</totfact>
</mgrwt>
</event>
<event>
 5    1  0.2366700E-004  0.6550701E+03  0.7818608E-02  0.9797312E-01
         13   -1    0    0    0    0  0.00000000000E+00  0.00000000000E+00  0.10000000000E+04  0.10000000000E+04  0.00000000000E+00 0. -1.
          2   -1    0    0  501    0 -0.00000000000E+00 -0.00000000000E+00 -0.10727921608E+03  0.10727921608E+03  0.00000000000E+00 0. -1.
    9000006    2    1    2  501    0  0.00000000000E+00  0.00000000000E+00  0.89272078392E+03  0.11072792161E+04  0.65507012170E+03 0.  0.
         13    1    3    3    0    0 -0.10328052977E+03  0.19798957463E+03  0.85137668788E+03  0.88017555304E+03  0.00000000000E+00 0. -1.
          2    1    3    3  501    0  0.10328052977E+03 -0.19798957463E+03  0.41344096031E+02  0.22710366305E+03  0.00000000000E+00 0. -1.
<mgrwt>
<rscale>  0 0.65507012E+03</rscale>
<asrwt>0</asrwt>
<pdfrwt beam="1">0</pdfrwt>
<pdfrwt beam="2">  1        2 0.39010706E+00 0.65507012E+03</pdfrwt>
<totfact> 0.43348518E+00</totfact>
</mgrwt>
</event>
<event>
 5    1  0.2366700E-004  0.6505054E+03  0.7818608E-02  0.9805831E-01
         13   -1    0    0    0    0  0.00000000000E+00  0.00000000000E+00  0.10000000000E+04  0.10000000000E+04  0.00000000000E+00 0. -1.
          2   -1    0    0  501    0 -0.00000000000E+00 -0.00000000000E+00 -0.10578933292E+03  0.10578933292E+03  0.00000000000E+00 0. -1.
    9000006    2    1    2  501    0  0.00000000000E+00  0.00000000000E+00  0.89421066708E+03  0.11057893329E+04  0.65050544324E+03 0.  0.
         13    1    3    3    0    0  0.26900633779E+03  0.17725299738E+03  0.37096422610E+03  0.49132218746E+03  0.00000000000E+00 0. -1.
          2    1    3    3  501    0 -0.26900633779E+03 -0.17725299738E+03  0.52324644098E+03  0.61446714546E+03  0.00000000000E+00 0. -1.
<mgrwt>
<rscale>  0 0.65050544E+03</rscale>
<asrwt>0</asrwt>
<pdfrwt beam="1">0</pdfrwt>
<pdfrwt beam="2">  1        2 0.38468929E+00 0.65050544E+03</pdfrwt>
<totfact> 0.45419000E+00</totfact>
</mgrwt>
</event>
<event>
 5    1  0.2366700E-004  0.6517443E+03  0.7818608E-02  0.9803512E-01
         13   -1    0    0    0    0  0.00000000000E+00  0.00000000000E+00  0.10000000000E+04  0.10000000000E+04  0.00000000000E+00 0. -1.
          2   -1    0    0  501    0 -0.00000000000E+00 -0.00000000000E+00 -0.10619266786E+03  0.10619266786E+03  0.00000000000E+00 0. -1.
    9000006    2    1    2  501    0  0.00000000000E+00  0.00000000000E+00  0.89380733214E+03  0.11061926679E+04  0.65174432982E+03 0.  0.
         13    1    3    3    0    0  0.51219960707E+02  0.10686153128E+03  0.96213314651E+03  0.96940345721E+03  0.00000000000E+00 0. -1.
          2    1    3    3  501    0 -0.51219960707E+02 -0.10686153128E+03 -0.68325814372E+02  0.13678921065E+03  0.00000000000E+00 0. -1.
<mgrwt>
<rscale>  0 0.65174433E+03</rscale>
<asrwt>0</asrwt>
<pdfrwt beam="1">0</pdfrwt>
<pdfrwt beam="2">  1        2 0.38615597E+00 0.65174433E+03</pdfrwt>
<totfact> 0.44849828E+00</totfact>
</mgrwt>
</event>
<event>
 5    1  0.2366700E-004  0.6266404E+03  0.7818608E-02  0.9851627E-01
         13   -1    0    0    0    0  0.00000000000E+00  0.00000000000E+00  0.10000000000E+04  0.10000000000E+04  0.00000000000E+00 0. -1.
          2   -1    0    0  501    0 -0.00000000000E+00 -0.00000000000E+00 -0.98169535147E+02  0.98169535147E+02  0.00000000000E+00 0. -1.
    9000006    2    1    2  501    0  0.00000000000E+00  0.00000000000E+00  0.90183046485E+03  0.10981695351E+04  0.62664035985E+03 0.  0.
         13    1    3    3    0    0  0.18455721900E+03 -0.21225068913E+03  0.20898643896E+03  0.35040983689E+03  0.00000000000E+00 0. -1.
          2    1    3    3  501    0 -0.18455721900E+03  0.21225068913E+03  0.69284402590E+03  0.74775969826E+03  0.00000000000E+00 0. -1.
<mgrwt>
<rscale>  0 0.62664036E+03</rscale>
<asrwt>0</asrwt>
<pdfrwt beam="1">0</pdfrwt>
<pdfrwt beam="2">  1        2 0.35698088E+00 0.62664036E+03</pdfrwt>
<totfact> 0.57490294E+00</totfact>
</mgrwt>
</event>
<event>
 5    1  0.2366700E-004  0.6549971E+03  0.7818608E-02  0.9797447E-01
         13   -1    0    0    0    0  0.00000000000E+00  0.00000000000E+00  0.10000000000E+04  0.10000000000E+04  0.00000000000E+00 0. -1.
          2   -1    0    0  501    0 -0.00000000000E+00 -0.00000000000E+00 -0.10725530171E+03  0.10725530171E+03  0.00000000000E+00 0. -1.
    9000006    2    1    2  501    0  0.00000000000E+00  0.00000000000E+00  0.89274469829E+03  0.11072553017E+04  0.65499710445E+03 0.  0.
         13    1    3    3    0    0 -0.28625288996E+01  0.11314357027E+03 -0.73144151058E+02  0.13475803649E+03  0.00000000000E+00 0. -1.
          2    1    3    3  501    0  0.28625288996E+01 -0.11314357027E+03  0.96588884935E+03  0.97249726522E+03  0.00000000000E+00 0. -1.
<mgrwt>
<rscale>  0 0.65499710E+03</rscale>
<asrwt>0</asrwt>
<pdfrwt beam="1">0</pdfrwt>
<pdfrwt beam="2">  1        2 0.39002010E+00 0.65499710E+03</pdfrwt>
<totfact> 0.43381066E+00</totfact>
</mgrwt>
</event>
<event>
 5    1  0.2366700E-004  0.6616910E+03  0.7818608E-02  0.9785086E-01
         13   -1    0    0    0    0  0.00000000000E+00  0.00000000000E+00  0.10000000000E+04  0.10000000000E+04  0.00000000000E+00 0. -1.
          2   -1    0    0  501    0 -0.00000000000E+00 -0.00000000000E+00 -0.10945873813E+03  0.10945873813E+03  0.00000000000E+00 0. -1.
    9000006    2    1    2  501    0  0.00000000000E+00  0.00000000000E+00  0.89054126187E+03  0.11094587381E+04  0.66169097962E+03 0.  0.
         13    1    3    3    0    0 -0.43446767488E+02  0.22383800819E+03  0.84721662758E+03  0.87736371567E+03  0.00000000000E+00 0. -1.
          2    1    3    3  501    0  0.43446767488E+02 -0.22383800819E+03  0.43324634289E+02  0.23209502246E+03  0.00000000000E+00 0. -1.
<mgrwt>
<rscale>  0 0.66169098E+03</rscale>
<asrwt>0</asrwt>
<pdfrwt beam="1">0</pdfrwt>
<pdfrwt beam="2">  1        2 0.39803261E+00 0.66169098E+03</pdfrwt>
<totfact> 0.40473151E+00</totfact>
</mgrwt>
</event>
<event>
 5    1  0.2366700E-004  0.6468004E+03  0.7818608E-02  0.9812802E-01
         13   -1    0    0    0    0  0.00000000000E+00  0.00000000000E+00  0.10000000000E+04  0.10000000000E+04  0.00000000000E+00 0. -1.
          2   -1    0    0  501    0 -0.00000000000E+00 -0.00000000000E+00 -0.10458770171E+03  0.10458770171E+03  0.00000000000E+00 0. -1.
    9000006    2    1    2  501    0  0.00000000000E+00  0.00000000000E+00  0.89541229829E+03  0.11045877017E+04  0.64680043817E+03 0.  0.
         13    1    3    3    0    0 -0.27041252330E+03 -0.75421611662E+01  0.14505018089E+03  0.30695174202E+03  0.00000000000E+00 0. -1.
          4    1    3    3  501    0  0.27041252330E+03  0.75421611662E+01  0.75036211740E+03  0.79763595969E+03  0.00000000000E+00 0. -1.
<mgrwt>
<rscale>  0 0.64680044E+03</rscale>
<asrwt>0</asrwt>
<pdfrwt beam="1">0</pdfrwt>
<pdfrwt beam="2">  1        2 0.38031972E+00 0.64680044E+03</pdfrwt>
<totfact> 0.47153777E+00</totfact>
</mgrwt>
</event>
<event>
 5    1  0.2366700E-004  0.6423315E+03  0.7818608E-02  0.9821276E-01
         13   -1    0    0    0    0  0.00000000000E+00  0.00000000000E+00  0.10000000000E+04  0.10000000000E+04  0.00000000000E+00 0. -1.
          2   -1    0    0  501    0 -0.00000000000E+00 -0.00000000000E+00 -0.10314744186E+03  0.10314744186E+03  0.00000000000E+00 0. -1.
    9000006    2    1    2  501    0  0.00000000000E+00  0.00000000000E+00  0.89685255814E+03  0.11031474419E+04  0.64233150899E+03 0.  0.
         13    1    3    3    0    0  0.19889856363E+03 -0.25065424466E+03  0.49574876597E+03  0.59004663201E+03  0.00000000000E+00 0. -1.
          4    1    3    3  501    0 -0.19889856363E+03  0.25065424466E+03  0.40110379217E+03  0.51310080985E+03  0.00000000000E+00 0. -1.
<mgrwt>
<rscale>  0 0.64233151E+03</rscale>
<asrwt>0</asrwt>
<pdfrwt beam="1">0</pdfrwt>
<pdfrwt beam="2">  1        2 0.37508240E+00 0.64233151E+03</pdfrwt>
<totfact> 0.49312416E+00</totfact>
</mgrwt>
</event>
<event>
 5    1  0.2366700E-004  0.6441344E+03  0.7818608E-02  0.9817848E-01
         13   -1    0    0    0    0  0.00000000000E+00  0.00000000000E+00  0.10000000000E+04  0.10000000000E+04  0.00000000000E+00 0. -1.
          2   -1    0    0  501    0 -0.00000000000E+00 -0.00000000000E+00 -0.10372728875E+03  0.10372728875E+03  0.00000000000E+00 0. -1.
    9000006    2    1    2  501    0  0.00000000000E+00  0.00000000000E+00  0.89627271125E+03  0.11037272887E+04  0.64413442307E+03 0.  0.
         13    1    3    3    0    0  0.15276124821E+02 -0.17284135460E+03 -0.16788294602E+02  0.17432538738E+03  0.00000000000E+00 0. -1.
          4    1    3    3  501    0 -0.15276124821E+02  0.17284135460E+03  0.91306100585E+03  0.92940190137E+03  0.00000000000E+00 0. -1.
<mgrwt>
<rscale>  0 0.64413442E+03</rscale>
<asrwt>0</asrwt>
<pdfrwt beam="1">0</pdfrwt>
<pdfrwt beam="2">  1        2 0.37719094E+00 0.64413442E+03</pdfrwt>
<totfact> 0.48432734E+00</totfact>
</mgrwt>
</event>
<event>
 5    1  0.2366700E-004  0.6480967E+03  0.7818608E-02  0.9810357E-01
         13   -1    0    0    0    0  0.00000000000E+00  0.00000000000E+00  0.10000000000E+04  0.10000000000E+04  0.00000000000E+00 0. -1.
          2   -1    0    0  501    0 -0.00000000000E+00 -0.00000000000E+00 -0.10500734435E+03  0.10500734435E+03  0.00000000000E+00 0. -1.
    9000006    2    1    2  501    0  0.00000000000E+00  0.00000000000E+00  0.89499265565E+03  0.11050073444E+04  0.64809673461E+03 0.  0.
         13    1    3    3    0    0 -0.31814054441E+03 -0.29133797285E+02  0.35496691771E+03  0.47756014994E+03  0.00000000000E+00 0. -1.
          4    1    3    3  501    0  0.31814054441E+03  0.29133797285E+02  0.54002573794E+03  0.62744719441E+03  0.00000000000E+00 0. -1.
<mgrwt>
<rscale>  0 0.64809673E+03</rscale>
<asrwt>0</asrwt>
<pdfrwt beam="1">0</pdfrwt>
<pdfrwt beam="2">  1        2 0.38184569E+00 0.64809673E+03</pdfrwt>
<totfact> 0.46541222E+00</totfact>
</mgrwt>
</event>
<event>
 5    1  0.2366700E-004  0.6413858E+03  0.7818608E-02  0.9823079E-01
         13   -1    0    0    0    0  0.00000000000E+00  0.00000000000E+00  0.10000000000E+04  0.10000000000E+04  0.00000000000E+00 0. -1.
          2   -1    0    0  501    0 -0.00000000000E+00 -0.00000000000E+00 -0.10284393737E+03  0.10284393737E+03  0.00000000000E+00 0. -1.
    9000006    2    1    2  501    0  0.00000000000E+00  0.00000000000E+00  0.89715606263E+03  0.11028439374E+04  0.64138580391E+03 0.  0.
         13    1    3    3    0    0  0.12315504550E+03  0.14942260011E+03  0.88813622370E+03  0.90899957673E+03  0.00000000000E+00 0. -1.
          4    1    3    3  501    0 -0.12315504550E+03 -0.14942260011E+03  0.90198389350E+01  0.19384436063E+03  0.00000000000E+00 0. -1.
<mgrwt>
<rscale>  0 0.64138580E+03</rscale>
<asrwt>0</asrwt>
<pdfrwt beam="1">0</pdfrwt>
<pdfrwt beam="2">  1        2 0.37397874E+00 0.64138580E+03</pdfrwt>
<totfact> 0.49778688E+00</totfact>
</mgrwt>
</event>
<event>
 5    1  0.2366700E-004  0.6436170E+03  0.7818608E-02  0.9818831E-01
         13   -1    0    0    0    0  0.00000000000E+00  0.00000000000E+00  0.10000000000E+04  0.10000000000E+04  0.00000000000E+00 0. -1.
          2   -1    0    0  501    0 -0.00000000000E+00 -0.00000000000E+00 -0.10356069517E+03  0.10356069517E+03  0.00000000000E+00 0. -1.
    9000006    2    1    2  501    0  0.00000000000E+00  0.00000000000E+00  0.89643930483E+03  0.11035606952E+04  0.64361695181E+03 0.  0.
         13    1    3    3    0    0 -0.16039294628E+03  0.18032484272E+03  0.83211205425E+02  0.25527837908E+03  0.00000000000E+00 0. -1.
          2    1    3    3  501    0  0.16039294628E+03 -0.18032484272E+03  0.81322809941E+03  0.84828231609E+03  0.00000000000E+00 0. -1.
<mgrwt>
<rscale>  0 0.64361695E+03</rscale>
<asrwt>0</asrwt>
<pdfrwt beam="1">0</pdfrwt>
<pdfrwt beam="2">  1        2 0.37658514E+00 0.64361695E+03</pdfrwt>
<totfact> 0.48683989E+00</totfact>
</mgrwt>
</event>
<event>
 5    1  0.2366700E-004  0.6442935E+03  0.7818608E-02  0.9817546E-01
         13   -1    0    0    0    0  0.00000000000E+00  0.00000000000E+00  0.10000000000E+04  0.10000000000E+04  0.00000000000E+00 0. -1.
          2   -1    0    0  501    0 -0.00000000000E+00 -0.00000000000E+00 -0.10377853695E+03  0.10377853695E+03  0.00000000000E+00 0. -1.
    9000006    2    1    2  501    0  0.00000000000E+00  0.00000000000E+00  0.89622146305E+03  0.11037785370E+04  0.64429352613E+03 0.  0.
         13    1    3    3    0    0 -0.89650045633E+02  0.20449139066E+03  0.84593562508E+03  0.87490624716E+03  0.00000000000E+00 0. -1.
          4    1    3    3  501    0  0.89650045633E+02 -0.20449139066E+03  0.50285837963E+02  0.22887228979E+03  0.00000000000E+00 0. -1.
<mgrwt>
<rscale>  0 0.64429353E+03</rscale>
<asrwt>0</asrwt>
<pdfrwt beam="1">0</pdfrwt>
<pdfrwt beam="2">  1        2 0.37737729E+00 0.64429353E+03</pdfrwt>
<totfact> 0.48355680E+00</totfact>
</mgrwt>
</event>
<event>
 5    1  0.2366700E-004  0.6505433E+03  0.7818608E-02  0.9805760E-01
         13   -1    0    0    0    0  0.00000000000E+00  0.00000000000E+00  0.10000000000E+04  0.10000000000E+04  0.00000000000E+00 0. -1.
          2   -1    0    0  501    0 -0.00000000000E+00 -0.00000000000E+00 -0.10580163803E+03  0.10580163803E+03  0.00000000000E+00 0. -1.
    9000006    2    1    2  501    0  0.00000000000E+00  0.00000000000E+00  0.89419836197E+03  0.11058016380E+04  0.65054327459E+03 0.  0.
         13    1    3    3    0    0  0.19536586016E+03  0.24243150206E+03  0.28709285632E+03  0.42351288134E+03  0.00000000000E+00 0. -1.
          2    1    3    3  501    0 -0.19536586016E+03 -0.24243150206E+03  0.60710550565E+03  0.68228875669E+03  0.00000000000E+00 0. -1.
<mgrwt>
<rscale>  0 0.65054327E+03</rscale>
<asrwt>0</asrwt>
<pdfrwt beam="1">0</pdfrwt>
<pdfrwt beam="2">  1        2 0.38473404E+00 0.65054327E+03</pdfrwt>
<totfact> 0.45401539E+00</totfact>
</mgrwt>
</event>
<event>
 5    1  0.2366700E-004  0.6499782E+03  0.7818608E-02  0.9806820E-01
         13   -1    0    0    0    0  0.00000000000E+00  0.00000000000E+00  0.10000000000E+04  0.10000000000E+04  0.00000000000E+00 0. -1.
          2   -1    0    0  501    0 -0.00000000000E+00 -0.00000000000E+00 -0.10561792564E+03  0.10561792564E+03  0.00000000000E+00 0. -1.
    9000006    2    1    2  501    0  0.00000000000E+00  0.00000000000E+00  0.89438207436E+03  0.11056179256E+04  0.64997823238E+03 0.  0.
         13    1    3    3    0    0 -0.24616636858E+03 -0.17874846053E+03  0.25273206875E+03  0.39550270763E+03  0.00000000000E+00 0. -1.
          2    1    3    3  501    0  0.24616636858E+03  0.17874846053E+03  0.64165000560E+03  0.71011521802E+03  0.00000000000E+00 0. -1.
<mgrwt>
<rscale>  0 0.64997823E+03</rscale>
<asrwt>0</asrwt>
<pdfrwt beam="1">0</pdfrwt>
<pdfrwt beam="2">  1        2 0.38406599E+00 0.64997823E+03</pdfrwt>
<totfact> 0.45662861E+00</totfact>
</mgrwt>
</event>
<event>
 5    1  0.2366700E-004  0.7296103E+03  0.7818608E-02  0.9667893E-01
         13   -1    0    0    0    0  0.00000000000E+00  0.00000000000E+00  0.10000000000E+04  0.10000000000E+04  0.00000000000E+00 0. -1.
          2   -1    0    0  501    0 -0.00000000000E+00 -0.00000000000E+00 -0.13308280516E+03  0.13308280516E+03  0.00000000000E+00 0. -1.
    9000006    2    1    2  501    0  0.00000000000E+00  0.00000000000E+00  0.86691719484E+03  0.11330828052E+04  0.72961032110E+03 0.  0.
         13    1    3    3    0    0 -0.85405883430E+02 -0.18291364341E+02  0.98352238039E+03  0.98739303808E+03  0.00000000000E+00 0. -1.
          4    1    3    3  501    0  0.85405883430E+02  0.18291364341E+02 -0.11660518555E+03  0.14568976708E+03  0.00000000000E+00 0. -1.
<mgrwt>
<rscale>  0 0.72961032E+03</rscale>
<asrwt>0</asrwt>
<pdfrwt beam="1">0</pdfrwt>
<pdfrwt beam="2">  1        2 0.48393849E+00 0.72961032E+03</pdfrwt>
<totfact> 0.18544255E+00</totfact>
</mgrwt>
</event>
<event>
 5    1  0.2366700E-004  0.6450872E+03  0.7818608E-02  0.9816042E-01
         13   -1    0    0    0    0  0.00000000000E+00  0.00000000000E+00  0.10000000000E+04  0.10000000000E+04  0.00000000000E+00 0. -1.
          2   -1    0    0  501    0 -0.00000000000E+00 -0.00000000000E+00 -0.10403438298E+03  0.10403438298E+03  0.00000000000E+00 0. -1.
    9000006    2    1    2  501    0  0.00000000000E+00  0.00000000000E+00  0.89596561702E+03  0.11040343830E+04  0.64508722816E+03 0.  0.
         13    1    3    3    0    0  0.30917265746E+01  0.23513854976E+03  0.82580133005E+03  0.85863119735E+03  0.00000000000E+00 0. -1.
          2    1    3    3  501    0 -0.30917265746E+01 -0.23513854976E+03  0.70164286968E+02  0.24540318564E+03  0.00000000000E+00 0. -1.
<mgrwt>
<rscale>  0 0.64508723E+03</rscale>
<asrwt>0</asrwt>
<pdfrwt beam="1">0</pdfrwt>
<pdfrwt beam="2">  1        2 0.37830764E+00 0.64508723E+03</pdfrwt>
<totfact> 0.47972673E+00</totfact>
</mgrwt>
</event>
<event>
 5    1  0.2366700E-004  0.6472109E+03  0.7818608E-02  0.9812027E-01
         13   -1    0    0    0    0  0.00000000000E+00  0.00000000000E+00  0.10000000000E+04  0.10000000000E+04  0.00000000000E+00 0. -1.
          2   -1    0    0  501    0 -0.00000000000E+00 -0.00000000000E+00 -0.10472048811E+03  0.10472048811E+03  0.00000000000E+00 0. -1.
    9000006    2    1    2  501    0  0.00000000000E+00  0.00000000000E+00  0.89527951189E+03  0.11047204881E+04  0.64721090258E+03 0.  0.
         13    1    3    3    0    0 -0.52045842094E+01  0.32214877252E+03  0.49923114330E+03  0.59417055950E+03  0.00000000000E+00 0. -1.
          4    1    3    3  501    0  0.52045842094E+01 -0.32214877252E+03  0.39604836860E+03  0.51054992861E+03  0.00000000000E+00 0. -1.
<mgrwt>
<rscale>  0 0.64721090E+03</rscale>
<asrwt>0</asrwt>
<pdfrwt beam="1">0</pdfrwt>
<pdfrwt beam="2">  1        2 0.38080258E+00 0.64721090E+03</pdfrwt>
<totfact> 0.46959159E+00</totfact>
</mgrwt>
</event>
<event>
 5    1  0.2366700E-004  0.6380536E+03  0.7818608E-02  0.9829458E-01
         13   -1    0    0    0    0  0.00000000000E+00  0.00000000000E+00  0.10000000000E+04  0.10000000000E+04  0.00000000000E+00 0. -1.
          2   -1    0    0  501    0 -0.00000000000E+00 -0.00000000000E+00 -0.10177809722E+03  0.10177809722E+03  0.00000000000E+00 0. -1.
    9000006    2    1    2  501    0  0.00000000000E+00  0.00000000000E+00  0.89822190278E+03  0.11017780972E+04  0.63805359406E+03 0.  0.
         13    1    3    3    0    0 -0.25107951356E+03  0.19665314000E+03  0.43521948001E+03  0.53956406050E+03  0.00000000000E+00 0. -1.
          4    1    3    3  501    0  0.25107951356E+03 -0.19665314000E+03  0.46300242277E+03  0.56221403672E+03  0.00000000000E+00 0. -1.
<mgrwt>
<rscale>  0 0.63805359E+03</rscale>
<asrwt>0</asrwt>
<pdfrwt beam="1">0</pdfrwt>
<pdfrwt beam="2">  1        2 0.37010295E+00 0.63805359E+03</pdfrwt>
<totfact> 0.51448262E+00</totfact>
</mgrwt>
</event>
<event>
 5    1  0.2366700E-004  0.6521871E+03  0.7818608E-02  0.9802684E-01
         13   -1    0    0    0    0  0.00000000000E+00  0.00000000000E+00  0.10000000000E+04  0.10000000000E+04  0.00000000000E+00 0. -1.
          2   -1    0    0  501    0 -0.00000000000E+00 -0.00000000000E+00 -0.10633700852E+03  0.10633700852E+03  0.00000000000E+00 0. -1.
    9000006    2    1    2  501    0  0.00000000000E+00  0.00000000000E+00  0.89366299148E+03  0.11063370085E+04  0.65218711584E+03 0.  0.
         13    1    3    3    0    0  0.41798210635E+02 -0.73212897328E+02  0.98119435018E+03  0.98480940876E+03  0.00000000000E+00 0. -1.
          2    1    3    3  501    0 -0.41798210635E+02  0.73212897328E+02 -0.87531358700E+02  0.12152759976E+03  0.00000000000E+00 0. -1.
<mgrwt>
<rscale>  0 0.65218712E+03</rscale>
<asrwt>0</asrwt>
<pdfrwt beam="1">0</pdfrwt>
<pdfrwt beam="2">  1        2 0.38668085E+00 0.65218712E+03</pdfrwt>
<totfact> 0.44647715E+00</totfact>
</mgrwt>
</event>
<event>
 5    1  0.2366700E-004  0.6441227E+03  0.7818608E-02  0.9817870E-01
         13   -1    0    0    0    0  0.00000000000E+00  0.00000000000E+00  0.10000000000E+04  0.10000000000E+04  0.00000000000E+00 0. -1.
          2   -1    0    0  501    0 -0.00000000000E+00 -0.00000000000E+00 -0.10372351785E+03  0.10372351785E+03  0.00000000000E+00 0. -1.
    9000006    2    1    2  501    0  0.00000000000E+00  0.00000000000E+00  0.89627648215E+03  0.11037235179E+04  0.64412271456E+03 0.  0.
         13    1    3    3    0    0 -0.11596288780E+03 -0.93459924915E+02 -0.41167916484E+02  0.15452166922E+03  0.00000000000E+00 0. -1.
          4    1    3    3  501    0  0.11596288780E+03  0.93459924915E+02  0.93744439863E+03  0.94920184863E+03  0.00000000000E+00 0. -1.
<mgrwt>
<rscale>  0 0.64412271E+03</rscale>
<asrwt>0</asrwt>
<pdfrwt beam="1">0</pdfrwt>
<pdfrwt beam="2">  1        2 0.37717722E+00 0.64412271E+03</pdfrwt>
<totfact> 0.48438408E+00</totfact>
</mgrwt>
</event>
<event>
 5    1  0.2366700E-004  0.6503241E+03  0.7818608E-02  0.9806171E-01
         13   -1    0    0    0    0  0.00000000000E+00  0.00000000000E+00  0.10000000000E+04  0.10000000000E+04  0.00000000000E+00 0. -1.
          2   -1    0    0  501    0 -0.00000000000E+00 -0.00000000000E+00 -0.10573034622E+03  0.10573034622E+03  0.00000000000E+00 0. -1.
    9000006    2    1    2  501    0  0.00000000000E+00  0.00000000000E+00  0.89426965378E+03  0.11057303462E+04  0.65032406143E+03 0.  0.
         13    1    3    3    0    0 -0.27547841515E+03  0.10172681249E+03  0.68452674424E+03  0.74485808392E+03  0.00000000000E+00 0. -1.
          4    1    3    3  501    0  0.27547841515E+03 -0.10172681249E+03  0.20974290954E+03  0.36087226230E+03  0.00000000000E+00 0. -1.
<mgrwt>
<rscale>  0 0.65032406E+03</rscale>
<asrwt>0</asrwt>
<pdfrwt beam="1">0</pdfrwt>
<pdfrwt beam="2">  1        2 0.38447480E+00 0.65032406E+03</pdfrwt>
<totfact> 0.45502786E+00</totfact>
</mgrwt>
</event>
<event>
 5    1  0.2366700E-004  0.6452012E+03  0.7818608E-02  0.9815826E-01
         13   -1    0    0    0    0  0.00000000000E+00  0.00000000000E+00  0.10000000000E+04  0.10000000000E+04  0.00000000000E+00 0. -1.
          2   -1    0    0  501    0 -0.00000000000E+00 -0.00000000000E+00 -0.10407113541E+03  0.10407113541E+03  0.00000000000E+00 0. -1.
    9000006    2    1    2  501    0  0.00000000000E+00  0.00000000000E+00  0.89592886459E+03  0.11040711354E+04  0.64520116370E+03 0.  0.
         13    1    3    3    0    0  0.27454817926E+03  0.14454072497E+03  0.29681158251E+03  0.42937843381E+03  0.00000000000E+00 0. -1.
          2    1    3    3  501    0 -0.27454817926E+03 -0.14454072497E+03  0.59911728208E+03  0.67469270160E+03  0.00000000000E+00 0. -1.
<mgrwt>
<rscale>  0 0.64520116E+03</rscale>
<asrwt>0</asrwt>
<pdfrwt beam="1">0</pdfrwt>
<pdfrwt beam="2">  1        2 0.37844129E+00 0.64520116E+03</pdfrwt>
<totfact> 0.47917881E+00</totfact>
</mgrwt>
</event>
<event>
 5    1  0.2366700E-004  0.6781872E+03  0.7818608E-02  0.9755280E-01
         13   -1    0    0    0    0  0.00000000000E+00  0.00000000000E+00  0.10000000000E+04  0.10000000000E+04  0.00000000000E+00 0. -1.
          2   -1    0    0  501    0 -0.00000000000E+00 -0.00000000000E+00 -0.11498445509E+03  0.11498445509E+03  0.00000000000E+00 0. -1.
    9000006    2    1    2  501    0  0.00000000000E+00  0.00000000000E+00  0.88501554491E+03  0.11149844551E+04  0.67818715732E+03 0.  0.
         13    1    3    3    0    0  0.10252041575E+03  0.31975598398E+03  0.36486798177E+03  0.49586587810E+03  0.00000000000E+00 0. -1.
          4    1    3    3  501    0 -0.10252041575E+03 -0.31975598398E+03  0.52014756314E+03  0.61911857699E+03  0.00000000000E+00 0. -1.
<mgrwt>
<rscale>  0 0.67818716E+03</rscale>
<asrwt>0</asrwt>
<pdfrwt beam="1">0</pdfrwt>
<pdfrwt beam="2">  1        2 0.41812617E+00 0.67818716E+03</pdfrwt>
<totfact> 0.33934556E+00</totfact>
</mgrwt>
</event>
<event>
 5    1  0.2366700E-004  0.6905890E+03  0.7818608E-02  0.9733463E-01
         13   -1    0    0    0    0  0.00000000000E+00  0.00000000000E+00  0.10000000000E+04  0.10000000000E+04  0.00000000000E+00 0. -1.
          2   -1    0    0  501    0 -0.00000000000E+00 -0.00000000000E+00 -0.11922829877E+03  0.11922829877E+03  0.00000000000E+00 0. -1.
    9000006    2    1    2  501    0  0.00000000000E+00  0.00000000000E+00  0.88077170123E+03  0.11192282988E+04  0.69058902038E+03 0.  0.
         13    1    3    3    0    0 -0.28967288351E+03 -0.18344762818E+03  0.50651476596E+03  0.61165400339E+03  0.00000000000E+00 0. -1.
          2    1    3    3  501    0  0.28967288351E+03  0.18344762818E+03  0.37425693527E+03  0.50757429537E+03  0.00000000000E+00 0. -1.
<mgrwt>
<rscale>  0 0.69058902E+03</rscale>
<asrwt>0</asrwt>
<pdfrwt beam="1">0</pdfrwt>
<pdfrwt beam="2">  1        2 0.43355836E+00 0.69058902E+03</pdfrwt>
<totfact> 0.29569294E+00</totfact>
</mgrwt>
</event>
<event>
 5    1  0.2366700E-004  0.6348305E+03  0.7818608E-02  0.9835668E-01
         13   -1    0    0    0    0  0.00000000000E+00  0.00000000000E+00  0.10000000000E+04  0.10000000000E+04  0.00000000000E+00 0. -1.
          2   -1    0    0  501    0 -0.00000000000E+00 -0.00000000000E+00 -0.10075242784E+03  0.10075242784E+03  0.00000000000E+00 0. -1.
    9000006    2    1    2  501    0  0.00000000000E+00  0.00000000000E+00  0.89924757216E+03  0.11007524278E+04  0.63483045874E+03 0.  0.
         13    1    3    3    0    0 -0.24587820080E+03  0.19147363610E+03  0.34509512073E+03  0.46498267204E+03  0.00000000000E+00 0. -1.
          4    1    3    3  501    0  0.24587820080E+03 -0.19147363610E+03  0.55415245143E+03  0.63576975579E+03  0.00000000000E+00 0. -1.
<mgrwt>
<rscale>  0 0.63483046E+03</rscale>
<asrwt>0</asrwt>
<pdfrwt beam="1">0</pdfrwt>
<pdfrwt beam="2">  1        2 0.36637324E+00 0.63483046E+03</pdfrwt>
<totfact> 0.53103216E+00</totfact>
</mgrwt>
</event>
<event>
 5    1  0.2366700E-004  0.6464081E+03  0.7818608E-02  0.9813543E-01
         13   -1    0    0    0    0  0.00000000000E+00  0.00000000000E+00  0.10000000000E+04  0.10000000000E+04  0.00000000000E+00 0. -1.
          2   -1    0    0  501    0 -0.00000000000E+00 -0.00000000000E+00 -0.10446084623E+03  0.10446084623E+03  0.00000000000E+00 0. -1.
    9000006    2    1    2  501    0  0.00000000000E+00  0.00000000000E+00  0.89553915377E+03  0.11044608462E+04  0.64640806377E+03 0.  0.
         13    1    3    3    0    0  0.27975543070E+03  0.16118384364E+03  0.42257036618E+03  0.53179793797E+03  0.00000000000E+00 0. -1.
          2    1    3    3  501    0 -0.27975543070E+03 -0.16118384364E+03  0.47296878759E+03  0.57266290826E+03  0.00000000000E+00 0. -1.
<mgrwt>
<rscale>  0 0.64640806E+03</rscale>
<asrwt>0</asrwt>
<pdfrwt beam="1">0</pdfrwt>
<pdfrwt beam="2">  1        2 0.37985842E+00 0.64640806E+03</pdfrwt>
<totfact> 0.47340386E+00</totfact>
</mgrwt>
</event>
<event>
 5    1  0.2366700E-004  0.6186051E+03  0.7818608E-02  0.9867541E-01
         13   -1    0    0    0    0  0.00000000000E+00  0.00000000000E+00  0.10000000000E+04  0.10000000000E+04  0.00000000000E+00 0. -1.
          2   -1    0    0  501    0 -0.00000000000E+00 -0.00000000000E+00 -0.95668066225E+02  0.95668066225E+02  0.00000000000E+00 0. -1.
    9000006    2    1    2  501    0  0.00000000000E+00  0.00000000000E+00  0.90433193377E+03  0.10956680662E+04  0.61860509608E+03 0.  0.
         13    1    3    3    0    0 -0.25474423725E+03  0.57594478511E+02  0.74565146188E+03  0.79006825843E+03  0.00000000000E+00 0. -1.
          4    1    3    3  501    0  0.25474423725E+03 -0.57594478511E+02  0.15868047189E+03  0.30559980780E+03  0.00000000000E+00 0. -1.
<mgrwt>
<rscale>  0 0.61860510E+03</rscale>
<asrwt>0</asrwt>
<pdfrwt beam="1">0</pdfrwt>
<pdfrwt beam="2">  1        2 0.34788461E+00 0.61860510E+03</pdfrwt>
<totfact> 0.62057258E+00</totfact>
</mgrwt>
</event>
<event>
 5    1  0.2366700E-004  0.6445873E+03  0.7818608E-02  0.9816989E-01
         13   -1    0    0    0    0  0.00000000000E+00  0.00000000000E+00  0.10000000000E+04  0.10000000000E+04  0.00000000000E+00 0. -1.
          2   -1    0    0  501    0 -0.00000000000E+00 -0.00000000000E+00 -0.10387318837E+03  0.10387318837E+03  0.00000000000E+00 0. -1.
    9000006    2    1    2  501    0  0.00000000000E+00  0.00000000000E+00  0.89612681163E+03  0.11038731884E+04  0.64458727376E+03 0.  0.
         13    1    3    3    0    0 -0.31974456542E+03 -0.40115613084E+02  0.43910919009E+03  0.54466754112E+03  0.00000000000E+00 0. -1.
          4    1    3    3  501    0  0.31974456542E+03  0.40115613084E+02  0.45701762154E+03  0.55920564726E+03  0.00000000000E+00 0. -1.
<mgrwt>
<rscale>  0 0.64458727E+03</rscale>
<asrwt>0</asrwt>
<pdfrwt beam="1">0</pdfrwt>
<pdfrwt beam="2">  1        2 0.37772148E+00 0.64458727E+03</pdfrwt>
<totfact> 0.48213661E+00</totfact>
</mgrwt>
</event>
<event>
 5    1  0.2366700E-004  0.6640654E+03  0.7818608E-02  0.9780739E-01
         13   -1    0    0    0    0  0.00000000000E+00  0.00000000000E+00  0.10000000000E+04  0.10000000000E+04  0.00000000000E+00 0. -1.
          2   -1    0    0  501    0 -0.00000000000E+00 -0.00000000000E+00 -0.11024571565E+03  0.11024571565E+03  0.00000000000E+00 0. -1.
    9000006    2    1    2  501    0  0.00000000000E+00  0.00000000000E+00  0.88975428435E+03  0.11102457156E+04  0.66406540536E+03 0.  0.
         13    1    3    3    0    0  0.31608643773E+03 -0.82176462944E+02  0.54494108611E+03  0.63531440603E+03  0.00000000000E+00 0. -1.
          4    1    3    3  501    0 -0.31608643773E+03  0.82176462944E+02  0.34481319824E+03  0.47493130962E+03  0.00000000000E+00 0. -1.
<mgrwt>
<rscale>  0 0.66406541E+03</rscale>
<asrwt>0</asrwt>
<pdfrwt beam="1">0</pdfrwt>
<pdfrwt beam="2">  1        2 0.40089436E+00 0.66406541E+03</pdfrwt>
<totfact> 0.39477925E+00</totfact>
</mgrwt>
</event>
<event>
 5    1  0.2366700E-004  0.6459229E+03  0.7818608E-02  0.9814460E-01
         13   -1    0    0    0    0  0.00000000000E+00  0.00000000000E+00  0.10000000000E+04  0.10000000000E+04  0.00000000000E+00 0. -1.
          2   -1    0    0  501    0 -0.00000000000E+00 -0.00000000000E+00 -0.10430411007E+03  0.10430411007E+03  0.00000000000E+00 0. -1.
    9000006    2    1    2  501    0  0.00000000000E+00  0.00000000000E+00  0.89569588993E+03  0.11043041101E+04  0.64592293681E+03 0.  0.
         13    1    3    3    0    0  0.13982950578E+03  0.50470581593E+02  0.93802827855E+03  0.94973502708E+03  0.00000000000E+00 0. -1.
          2    1    3    3  501    0 -0.13982950578E+03 -0.50470581593E+02 -0.42332388624E+02  0.15456908300E+03  0.00000000000E+00 0. -1.
<mgrwt>
<rscale>  0 0.64592294E+03</rscale>
<asrwt>0</asrwt>
<pdfrwt beam="1">0</pdfrwt>
<pdfrwt beam="2">  1        2 0.37928847E+00 0.64592294E+03</pdfrwt>
<totfact> 0.47571880E+00</totfact>
</mgrwt>
</event>
<event>
 5    1  0.2366700E-004  0.6630638E+03  0.7818608E-02  0.9782570E-01
         13   -1    0    0    0    0  0.00000000000E+00  0.00000000000E+00  0.10000000000E+04  0.10000000000E+04  0.00000000000E+00 0. -1.
          2   -1    0    0  501    0 -0.00000000000E+00 -0.00000000000E+00 -0.10991339830E+03  0.10991339830E+03  0.00000000000E+00 0. -1.
    9000006    2    1    2  501    0  0.00000000000E+00  0.00000000000E+00  0.89008660170E+03  0.11099133983E+04  0.66306379271E+03 0.  0.
         13    1    3    3    0    0  0.12305356314E+03 -0.25282942810E+03  0.73904564999E+03  0.79072964525E+03  0.00000000000E+00 0. -1.
          4    1    3    3  501    0 -0.12305356314E+03  0.25282942810E+03  0.15104095171E+03  0.31918375305E+03  0.00000000000E+00 0. -1.
<mgrwt>
<rscale>  0 0.66306379E+03</rscale>
<asrwt>0</asrwt>
<pdfrwt beam="1">0</pdfrwt>
<pdfrwt beam="2">  1        2 0.39968593E+00 0.66306379E+03</pdfrwt>
<totfact> 0.39895467E+00</totfact>
</mgrwt>
</event>
<event>
 5    1  0.2366700E-004  0.6448678E+03  0.7818608E-02  0.9816457E-01
         13   -1    0    0    0    0  0.00000000000E+00  0.00000000000E+00  0.10000000000E+04  0.10000000000E+04  0.00000000000E+00 0. -1.
          2   -1    0    0  501    0 -0.00000000000E+00 -0.00000000000E+00 -0.10396360522E+03  0.10396360522E+03  0.00000000000E+00 0. -1.
    9000006    2    1    2  501    0  0.00000000000E+00  0.00000000000E+00  0.89603639478E+03  0.11039636052E+04  0.64486775458E+03 0.  0.
         13    1    3    3    0    0 -0.26377308263E+03 -0.18511158564E+03  0.42918183995E+03  0.53669319914E+03  0.00000000000E+00 0. -1.
          2    1    3    3  501    0  0.26377308263E+03  0.18511158564E+03  0.46685455483E+03  0.56727040609E+03  0.00000000000E+00 0. -1.
<mgrwt>
<rscale>  0 0.64486775E+03</rscale>
<asrwt>0</asrwt>
<pdfrwt beam="1">0</pdfrwt>
<pdfrwt beam="2">  1        2 0.37805027E+00 0.64486775E+03</pdfrwt>
<totfact> 0.48078351E+00</totfact>
</mgrwt>
</event>
<event>
 5    1  0.2366700E-004  0.6428925E+03  0.7818608E-02  0.9820208E-01
         13   -1    0    0    0    0  0.00000000000E+00  0.00000000000E+00  0.10000000000E+04  0.10000000000E+04  0.00000000000E+00 0. -1.
          2   -1    0    0  501    0 -0.00000000000E+00 -0.00000000000E+00 -0.10332767823E+03  0.10332767823E+03  0.00000000000E+00 0. -1.
    9000006    2    1    2  501    0  0.00000000000E+00  0.00000000000E+00  0.89667232177E+03  0.11033276782E+04  0.64289245828E+03 0.  0.
         13    1    3    3    0    0  0.30454528616E+03 -0.52040168713E+02  0.29607134582E+03  0.42791851128E+03  0.00000000000E+00 0. -1.
          2    1    3    3  501    0 -0.30454528616E+03  0.52040168713E+02  0.60060097595E+03  0.67540916694E+03  0.00000000000E+00 0. -1.
<mgrwt>
<rscale>  0 0.64289246E+03</rscale>
<asrwt>0</asrwt>
<pdfrwt beam="1">0</pdfrwt>
<pdfrwt beam="2">  1        2 0.37573780E+00 0.64289246E+03</pdfrwt>
<totfact> 0.49037420E+00</totfact>
</mgrwt>
</event>
<event>
 5    1  0.2366700E-004  0.6686533E+03  0.7818608E-02  0.9772394E-01
         13   -1    0    0    0    0  0.00000000000E+00  0.00000000000E+00  0.10000000000E+04  0.10000000000E+04  0.00000000000E+00 0. -1.
          2   -1    0    0  501    0 -0.00000000000E+00 -0.00000000000E+00 -0.11177429633E+03  0.11177429633E+03  0.00000000000E+00 0. -1.
    9000006    2    1    2  501    0  0.00000000000E+00  0.00000000000E+00  0.88822570367E+03  0.11117742963E+04  0.66865326240E+03 0.  0.
         13    1    3    3    0    0 -0.21433251147E+03 -0.24425941699E+03  0.31347437181E+03  0.45151663319E+03  0.00000000000E+00 0. -1.
          4    1    3    3  501    0  0.21433251147E+03  0.24425941699E+03  0.57475133186E+03  0.66025766314E+03  0.00000000000E+00 0. -1.
<mgrwt>
<rscale>  0 0.66865326E+03</rscale>
<asrwt>0</asrwt>
<pdfrwt beam="1">0</pdfrwt>
<pdfrwt beam="2">  1        2 0.40645284E+00 0.66865326E+03</pdfrwt>
<totfact> 0.37607343E+00</totfact>
</mgrwt>
</event>
<event>
 5    1  0.2366700E-004  0.6369978E+03  0.7818608E-02  0.9831488E-01
         13   -1    0    0    0    0  0.00000000000E+00  0.00000000000E+00  0.10000000000E+04  0.10000000000E+04  0.00000000000E+00 0. -1.
          2   -1    0    0  501    0 -0.00000000000E+00 -0.00000000000E+00 -0.10144153968E+03  0.10144153968E+03  0.00000000000E+00 0. -1.
    9000006    2    1    2  501    0  0.00000000000E+00  0.00000000000E+00  0.89855846032E+03  0.11014415397E+04  0.63699776979E+03 0.  0.
         13    1    3    3    0    0 -0.12766645740E+03 -0.11384360954E+03  0.91383658760E+03  0.92970769633E+03  0.00000000000E+00 0. -1.
          4    1    3    3  501    0  0.12766645740E+03  0.11384360954E+03 -0.15278127282E+02  0.17173384334E+03  0.00000000000E+00 0. -1.
<mgrwt>
<rscale>  0 0.63699777E+03</rscale>
<asrwt>0</asrwt>
<pdfrwt beam="1">0</pdfrwt>
<pdfrwt beam="2">  1        2 0.36887910E+00 0.63699777E+03</pdfrwt>
<totfact> 0.51986017E+00</totfact>
</mgrwt>
</event>
<event>
 5    1  0.2366700E-004  0.6404371E+03  0.7818608E-02  0.9824891E-01
         13   -1    0    0    0    0  0.00000000000E+00  0.00000000000E+00  0.10000000000E+04  0.10000000000E+04  0.00000000000E+00 0. -1.
          2   -1    0    0  501    0 -0.00000000000E+00 -0.00000000000E+00 -0.10253991437E+03  0.10253991437E+03  0.00000000000E+00 0. -1.
    9000006    2    1    2  501    0  0.00000000000E+00  0.00000000000E+00  0.89746008563E+03  0.11025399144E+04  0.64043708315E+03 0.  0.
         13    1    3    3    0    0  0.18531520376E+03 -0.25877269766E+03  0.50922655379E+03  0.60051371082E+03  0.00000000000E+00 0. -1.
          4    1    3    3  501    0 -0.18531520376E+03  0.25877269766E+03  0.38823353184E+03  0.50202620355E+03  0.00000000000E+00 0. -1.
<mgrwt>
<rscale>  0 0.64043708E+03</rscale>
<asrwt>0</asrwt>
<pdfrwt beam="1">0</pdfrwt>
<pdfrwt beam="2">  1        2 0.37287320E+00 0.64043708E+03</pdfrwt>
<totfact> 0.50249793E+00</totfact>
</mgrwt>
</event>
<event>
 5    1  0.2366700E-004  0.6166015E+03  0.7818608E-02  0.9871549E-01
         13   -1    0    0    0    0  0.00000000000E+00  0.00000000000E+00  0.10000000000E+04  0.10000000000E+04  0.00000000000E+00 0. -1.
          2   -1    0    0  501    0 -0.00000000000E+00 -0.00000000000E+00 -0.95049365414E+02  0.95049365414E+02  0.00000000000E+00 0. -1.
    9000006    2    1    2  501    0  0.00000000000E+00  0.00000000000E+00  0.90495063459E+03  0.10950493654E+04  0.61660154205E+03 0.  0.
         13    1    3    3    0    0 -0.10394180550E+03 -0.28144044409E+02  0.96551511408E+03  0.97150163236E+03  0.00000000000E+00 0. -1.
          4    1    3    3  501    0  0.10394180550E+03  0.28144044409E+02 -0.60564479493E+02  0.12354773305E+03  0.00000000000E+00 0. -1.
<mgrwt>
<rscale>  0 0.61660154E+03</rscale>
<asrwt>0</asrwt>
<pdfrwt beam="1">0</pdfrwt>
<pdfrwt beam="2">  1        2 0.34563478E+00 0.61660154E+03</pdfrwt>
<totfact> 0.63237800E+00</totfact>
</mgrwt>
</event>
<event>
 5    1  0.2366700E-004  0.6490260E+03  0.7818608E-02  0.9808608E-01
         13   -1    0    0    0    0  0.00000000000E+00  0.00000000000E+00  0.10000000000E+04  0.10000000000E+04  0.00000000000E+00 0. -1.
          2   -1    0    0  501    0 -0.00000000000E+00 -0.00000000000E+00 -0.10530869666E+03  0.10530869666E+03  0.00000000000E+00 0. -1.
    9000006    2    1    2  501    0  0.00000000000E+00  0.00000000000E+00  0.89469130334E+03  0.11053086967E+04  0.64902602924E+03 0.  0.
         13    1    3    3    0    0 -0.93516929924E+02 -0.24708619232E+03  0.76827332508E+03  0.81242901514E+03  0.00000000000E+00 0. -1.
          4    1    3    3  501    0  0.93516929924E+02  0.24708619232E+03  0.12641797827E+03  0.29287968152E+03  0.00000000000E+00 0. -1.
<mgrwt>
<rscale>  0 0.64902603E+03</rscale>
<asrwt>0</asrwt>
<pdfrwt beam="1">0</pdfrwt>
<pdfrwt beam="2">  1        2 0.38294152E+00 0.64902603E+03</pdfrwt>
<totfact> 0.46105807E+00</totfact>
</mgrwt>
</event>
<event>
 5    1  0.2366700E-004  0.6554141E+03  0.7818608E-02  0.9796673E-01
         13   -1    0    0    0    0  0.00000000000E+00  0.00000000000E+00  0.10000000000E+04  0.10000000000E+04  0.00000000000E+00 0. -1.
          2   -1    0    0  501    0 -0.00000000000E+00 -0.00000000000E+00 -0.10739192342E+03  0.10739192342E+03  0.00000000000E+00 0. -1.
    9000006    2    1    2  501    0  0.00000000000E+00  0.00000000000E+00  0.89260807658E+03  0.11073919234E+04  0.65541413905E+03 0.  0.
         13    1    3    3    0    0 -0.25244436544E+02  0.23187420575E+03  0.83524025480E+03  0.86719617856E+03  0.00000000000E+00 0. -1.
          2    1    3    3  501    0  0.25244436544E+02 -0.23187420575E+03  0.57367821784E+02  0.24019574485E+03  0.00000000000E+00 0. -1.
<mgrwt>
<rscale>  0 0.65541414E+03</rscale>
<asrwt>0</asrwt>
<pdfrwt beam="1">0</pdfrwt>
<pdfrwt beam="2">  1        2 0.39051691E+00 0.65541414E+03</pdfrwt>
<totfact> 0.43195419E+00</totfact>
</mgrwt>
</event>
<event>
 5    1  0.2366700E-004  0.6500878E+03  0.7818608E-02  0.9806614E-01
         13   -1    0    0    0    0  0.00000000000E+00  0.00000000000E+00  0.10000000000E+04  0.10000000000E+04  0.00000000000E+00 0. -1.
          2   -1    0    0  501    0 -0.00000000000E+00 -0.00000000000E+00 -0.10565353713E+03  0.10565353713E+03  0.00000000000E+00 0. -1.
    9000006    2    1    2  501    0  0.00000000000E+00  0.00000000000E+00  0.89434646287E+03  0.11056535371E+04  0.65008780062E+03 0.  0.
         13    1    3    3    0    0  0.17949153346E+03  0.43784332231E+02  0.90201312143E+03  0.92073989245E+03  0.00000000000E+00 0. -1.
          2    1    3    3  501    0 -0.17949153346E+03 -0.43784332231E+02 -0.76666585556E+01  0.18491364468E+03  0.00000000000E+00 0. -1.
<mgrwt>
<rscale>  0 0.65008780E+03</rscale>
<asrwt>0</asrwt>
<pdfrwt beam="1">0</pdfrwt>
<pdfrwt beam="2">  1        2 0.38419549E+00 0.65008780E+03</pdfrwt>
<totfact> 0.45612099E+00</totfact>
</mgrwt>
</event>
<event>
 5    1  0.2366700E-004  0.6539503E+03  0.7818608E-02  0.9799395E-01
         13   -1    0    0    0    0  0.00000000000E+00  0.00000000000E+00  0.10000000000E+04  0.10000000000E+04  0.00000000000E+00 0. -1.
          2   -1    0    0  501    0 -0.00000000000E+00 -0.00000000000E+00 -0.10691275165E+03  0.10691275165E+03  0.00000000000E+00 0. -1.
    9000006    2    1    2  501    0  0.00000000000E+00  0.00000000000E+00  0.89308724835E+03  0.11069127517E+04  0.65395030898E+03 0.  0.
         13    1    3    3    0    0  0.19228496895E+02 -0.31176799101E+03  0.28292643451E+03  0.42144558683E+03  0.00000000000E+00 0. -1.
          4    1    3    3  501    0 -0.19228496895E+02  0.31176799101E+03  0.61016081383E+03  0.68546716482E+03  0.00000000000E+00 0. -1.
<mgrwt>
<rscale>  0 0.65395031E+03</rscale>
<asrwt>0</asrwt>
<pdfrwt beam="1">0</pdfrwt>
<pdfrwt beam="2">  1        2 0.38877446E+00 0.65395031E+03</pdfrwt>
<totfact> 0.43849710E+00</totfact>
</mgrwt>
</event>
<event>
 5    1  0.2366700E-004  0.5620481E+03  0.7818608E-02  0.9987431E-01
         13   -1    0    0    0    0  0.00000000000E+00  0.00000000000E+00  0.10000000000E+04  0.10000000000E+04  0.00000000000E+00 0. -1.
          2   -1    0    0  501    0 -0.00000000000E+00 -0.00000000000E+00 -0.78974513278E+02  0.78974513278E+02  0.00000000000E+00 0. -1.
    9000006    2    1    2  501    0  0.00000000000E+00  0.00000000000E+00  0.92102548672E+03  0.10789745133E+04  0.56204808790E+03 0.  0.
         13    1    3    3    0    0 -0.15924014876E+03 -0.20312654712E+01  0.90501361146E+03  0.91891848819E+03  0.00000000000E+00 0. -1.
          4    1    3    3  501    0  0.15924014876E+03  0.20312654712E+01  0.16011875261E+02  0.16005602508E+03  0.00000000000E+00 0. -1.
<mgrwt>
<rscale>  0 0.56204809E+03</rscale>
<asrwt>0</asrwt>
<pdfrwt beam="1">0</pdfrwt>
<pdfrwt beam="2">  1        2 0.28718065E+00 0.56204809E+03</pdfrwt>
<totfact> 0.10260286E+01</totfact>
</mgrwt>
</event>
<event>
 5    1  0.2366700E-004  0.6618875E+03  0.7818608E-02  0.9784725E-01
         13   -1    0    0    0    0  0.00000000000E+00  0.00000000000E+00  0.10000000000E+04  0.10000000000E+04  0.00000000000E+00 0. -1.
          2   -1    0    0  501    0 -0.00000000000E+00 -0.00000000000E+00 -0.10952376592E+03  0.10952376592E+03  0.00000000000E+00 0. -1.
    9000006    2    1    2  501    0  0.00000000000E+00  0.00000000000E+00  0.89047623408E+03  0.11095237659E+04  0.66188750078E+03 0.  0.
         13    1    3    3    0    0  0.76383642328E+02  0.10864023762E+02 -0.94237843747E+02  0.12179186763E+03  0.00000000000E+00 0. -1.
          2    1    3    3  501    0 -0.76383642328E+02 -0.10864023762E+02  0.98471407783E+03  0.98773189829E+03  0.00000000000E+00 0. -1.
<mgrwt>
<rscale>  0 0.66188750E+03</rscale>
<asrwt>0</asrwt>
<pdfrwt beam="1">0</pdfrwt>
<pdfrwt beam="2">  1        2 0.39826908E+00 0.66188750E+03</pdfrwt>
<totfact> 0.40390070E+00</totfact>
</mgrwt>
</event>
<event>
 5    1  0.2366700E-004  0.6733022E+03  0.7818608E-02  0.9764011E-01
         13   -1    0    0    0    0  0.00000000000E+00  0.00000000000E+00  0.10000000000E+04  0.10000000000E+04  0.00000000000E+00 0. -1.
          2   -1    0    0  501    0 -0.00000000000E+00 -0.00000000000E+00 -0.11333394839E+03  0.11333394839E+03  0.00000000000E+00 0. -1.
    9000006    2    1    2  501    0  0.00000000000E+00  0.00000000000E+00  0.88666605161E+03  0.11133339484E+04  0.67330215621E+03 0.  0.
         13    1    3    3    0    0  0.31025037435E+03  0.11731239194E+03  0.53855837772E+03  0.63250503421E+03  0.00000000000E+00 0. -1.
          2    1    3    3  501    0 -0.31025037435E+03 -0.11731239194E+03  0.34810767389E+03  0.48082891418E+03  0.00000000000E+00 0. -1.
<mgrwt>
<rscale>  0 0.67330216E+03</rscale>
<asrwt>0</asrwt>
<pdfrwt beam="1">0</pdfrwt>
<pdfrwt beam="2">  1        2 0.41212432E+00 0.67330216E+03</pdfrwt>
<totfact> 0.35780824E+00</totfact>
</mgrwt>
</event>
<event>
 5    1  0.2366700E-004  0.6578133E+03  0.7818608E-02  0.9792227E-01
         13   -1    0    0    0    0  0.00000000000E+00  0.00000000000E+00  0.10000000000E+04  0.10000000000E+04  0.00000000000E+00 0. -1.
          2   -1    0    0  501    0 -0.00000000000E+00 -0.00000000000E+00 -0.10817959190E+03  0.10817959190E+03  0.00000000000E+00 0. -1.
    9000006    2    1    2  501    0  0.00000000000E+00  0.00000000000E+00  0.89182040810E+03  0.11081795919E+04  0.65781332276E+03 0.  0.
         13    1    3    3    0    0 -0.22096977253E+03 -0.41098913970E+02  0.41375800075E+02  0.22853603203E+03  0.00000000000E+00 0. -1.
          2    1    3    3  501    0  0.22096977253E+03  0.41098913970E+02  0.85044460803E+03  0.87964355987E+03  0.00000000000E+00 0. -1.
<mgrwt>
<rscale>  0 0.65781332E+03</rscale>
<asrwt>0</asrwt>
<pdfrwt beam="1">0</pdfrwt>
<pdfrwt beam="2">  1        2 0.39338116E+00 0.65781332E+03</pdfrwt>
<totfact> 0.42139028E+00</totfact>
</mgrwt>
</event>
<event>
 5    1  0.2366700E-004  0.6464873E+03  0.7818608E-02  0.9813393E-01
         13   -1    0    0    0    0  0.00000000000E+00  0.00000000000E+00  0.10000000000E+04  0.10000000000E+04  0.00000000000E+00 0. -1.
          2   -1    0    0  501    0 -0.00000000000E+00 -0.00000000000E+00 -0.10448644526E+03  0.10448644526E+03  0.00000000000E+00 0. -1.
    9000006    2    1    2  501    0  0.00000000000E+00  0.00000000000E+00  0.89551355474E+03  0.11044864453E+04  0.64648726287E+03 0.  0.
         13    1    3    3    0    0 -0.48260391711E+02  0.31957366503E+03  0.43839107100E+03  0.54464954229E+03  0.00000000000E+00 0. -1.
          4    1    3    3  501    0  0.48260391711E+02 -0.31957366503E+03  0.45712248374E+03  0.55983690297E+03  0.00000000000E+00 0. -1.
<mgrwt>
<rscale>  0 0.64648726E+03</rscale>
<asrwt>0</asrwt>
<pdfrwt beam="1">0</pdfrwt>
<pdfrwt beam="2">  1        2 0.37995151E+00 0.64648726E+03</pdfrwt>
<totfact> 0.47302675E+00</totfact>
</mgrwt>
</event>
<event>
 5    1  0.2366700E-004  0.6533554E+03  0.7818608E-02  0.9800503E-01
         13   -1    0    0    0    0  0.00000000000E+00  0.00000000000E+00  0.10000000000E+04  0.10000000000E+04  0.00000000000E+00 0. -1.
          2   -1    0    0  501    0 -0.00000000000E+00 -0.00000000000E+00 -0.10671832214E+03  0.10671832214E+03  0.00000000000E+00 0. -1.
    9000006    2    1    2  501    0  0.00000000000E+00  0.00000000000E+00  0.89328167786E+03  0.11067183221E+04  0.65335540755E+03 0.  0.
         13    1    3    3    0    0  0.14335119573E+03 -0.27998263184E+03  0.59603549230E+03  0.67394224347E+03  0.00000000000E+00 0. -1.
          2    1    3    3  501    0 -0.14335119573E+03  0.27998263184E+03  0.29724618555E+03  0.43277607867E+03  0.00000000000E+00 0. -1.
<mgrwt>
<rscale>  0 0.65335541E+03</rscale>
<asrwt>0</asrwt>
<pdfrwt beam="1">0</pdfrwt>
<pdfrwt beam="2">  1        2 0.38806744E+00 0.65335541E+03</pdfrwt>
<totfact> 0.44117742E+00</totfact>
</mgrwt>
</event>
<event>
 5    1  0.2366700E-004  0.6269863E+03  0.7818608E-02  0.9850948E-01
         13   -1    0    0    0    0  0.00000000000E+00  0.00000000000E+00  0.10000000000E+04  0.10000000000E+04  0.00000000000E+00 0. -1.
          2   -1    0    0  501    0 -0.00000000000E+00 -0.00000000000E+00 -0.98277942739E+02  0.98277942739E+02  0.00000000000E+00 0. -1.
    9000006    2    1    2  501    0  0.00000000000E+00  0.00000000000E+00  0.90172205726E+03  0.10982779427E+04  0.62698626058E+03 0.  0.
         13    1    3    3    0    0 -0.21214567442E+03 -0.21402137161E+03  0.60222675437E+03  0.67341517532E+03  0.00000000000E+00 0. -1.
          4    1    3    3  501    0  0.21214567442E+03  0.21402137161E+03  0.29949530289E+03  0.42486276742E+03  0.00000000000E+00 0. -1.
<mgrwt>
<rscale>  0 0.62698626E+03</rscale>
<asrwt>0</asrwt>
<pdfrwt beam="1">0</pdfrwt>
<pdfrwt beam="2">  1        2 0.35737509E+00 0.62698626E+03</pdfrwt>
<totfact> 0.57299622E+00</totfact>
</mgrwt>
</event>
<event>
 5    1  0.2366700E-004  0.6686146E+03  0.7818608E-02  0.9772464E-01
         13   -1    0    0    0    0  0.00000000000E+00  0.00000000000E+00  0.10000000000E+04  0.10000000000E+04  0.00000000000E+00 0. -1.
          2   -1    0    0  501    0 -0.00000000000E+00 -0.00000000000E+00 -0.11176136248E+03  0.11176136248E+03  0.00000000000E+00 0. -1.
    9000006    2    1    2  501    0  0.00000000000E+00  0.00000000000E+00  0.88823863752E+03  0.11117613625E+04  0.66861457500E+03 0.  0.
         13    1    3    3    0    0 -0.13998975182E+03  0.25568330320E+03  0.17195927488E+03  0.33843917380E+03  0.00000000000E+00 0. -1.
          4    1    3    3  501    0  0.13998975182E+03 -0.25568330320E+03  0.71627936264E+03  0.77332218867E+03  0.00000000000E+00 0. -1.
<mgrwt>
<rscale>  0 0.66861458E+03</rscale>
<asrwt>0</asrwt>
<pdfrwt beam="1">0</pdfrwt>
<pdfrwt beam="2">  1        2 0.40640581E+00 0.66861458E+03</pdfrwt>
<totfact> 0.37622831E+00</totfact>
</mgrwt>
</event>
<event>
 5    1  0.2366700E-004  0.6528652E+03  0.7818608E-02  0.9801418E-01
         13   -1    0    0    0    0  0.00000000000E+00  0.00000000000E+00  0.10000000000E+04  0.10000000000E+04  0.00000000000E+00 0. -1.
          2   -1    0    0  501    0 -0.00000000000E+00 -0.00000000000E+00 -0.10655825076E+03  0.10655825076E+03  0.00000000000E+00 0. -1.
    9000006    2    1    2  501    0  0.00000000000E+00  0.00000000000E+00  0.89344174924E+03  0.11065582508E+04  0.65286522577E+03 0.  0.
         13    1    3    3    0    0 -0.13183536118E+03 -0.70670820569E+02  0.93849285148E+03  0.95033876045E+03  0.00000000000E+00 0. -1.
          2    1    3    3  501    0  0.13183536118E+03  0.70670820569E+02 -0.45051102237E+02  0.15621949030E+03  0.00000000000E+00 0. -1.
<mgrwt>
<rscale>  0 0.65286523E+03</rscale>
<asrwt>0</asrwt>
<pdfrwt beam="1">0</pdfrwt>
<pdfrwt beam="2">  1        2 0.38748537E+00 0.65286523E+03</pdfrwt>
<totfact> 0.44339522E+00</totfact>
</mgrwt>
</event>
<event>
 5    1  0.2366700E-004  0.6575317E+03  0.7818608E-02  0.9792748E-01
         13   -1    0    0    0    0  0.00000000000E+00  0.00000000000E+00  0.10000000000E+04  0.10000000000E+04  0.00000000000E+00 0. -1.
          2   -1    0    0  501    0 -0.00000000000E+00 -0.00000000000E+00 -0.10808698600E+03  0.10808698600E+03  0.00000000000E+00 0. -1.
    9000006    2    1    2  501    0  0.00000000000E+00  0.00000000000E+00  0.89191301400E+03  0.11080869860E+04  0.65753170569E+03 0.  0.
         13    1    3    3    0    0 -0.29071424163E+03  0.12314744614E+03  0.60047329436E+03  0.67841597934E+03  0.00000000000E+00 0. -1.
          2    1    3    3  501    0  0.29071424163E+03 -0.12314744614E+03  0.29143971964E+03  0.42967100666E+03  0.00000000000E+00 0. -1.
<mgrwt>
<rscale>  0 0.65753171E+03</rscale>
<asrwt>0</asrwt>
<pdfrwt beam="1">0</pdfrwt>
<pdfrwt beam="2">  1        2 0.39304441E+00 0.65753171E+03</pdfrwt>
<totfact> 0.42262006E+00</totfact>
</mgrwt>
</event>
<event>
 5    1  0.2366700E-004  0.6447322E+03  0.7818608E-02  0.9816714E-01
         13   -1    0    0    0    0  0.00000000000E+00  0.00000000000E+00  0.10000000000E+04  0.10000000000E+04  0.00000000000E+00 0. -1.
          2   -1    0    0  501    0 -0.00000000000E+00 -0.00000000000E+00 -0.10391990528E+03  0.10391990528E+03  0.00000000000E+00 0. -1.
    9000006    2    1    2  501    0  0.00000000000E+00  0.00000000000E+00  0.89608009472E+03  0.11039199053E+04  0.64473220884E+03 0.  0.
         13    1    3    3    0    0  0.29006227889E+03 -0.82154372724E+02  0.64352096291E+03  0.71063682447E+03  0.00000000000E+00 0. -1.
          4    1    3    3  501    0 -0.29006227889E+03  0.82154372724E+02  0.25255913181E+03  0.39328308081E+03  0.00000000000E+00 0. -1.
<mgrwt>
<rscale>  0 0.64473221E+03</rscale>
<asrwt>0</asrwt>
<pdfrwt beam="1">0</pdfrwt>
<pdfrwt beam="2">  1        2 0.37789136E+00 0.64473221E+03</pdfrwt>
<totfact> 0.48143705E+00</totfact>
</mgrwt>
</event>
<event>
 5    1  0.2366700E-004  0.6662714E+03  0.7818608E-02  0.9776717E-01
         13   -1    0    0    0    0  0.00000000000E+00  0.00000000000E+00  0.10000000000E+04  0.10000000000E+04  0.00000000000E+00 0. -1.
          2   -1    0    0  501    0 -0.00000000000E+00 -0.00000000000E+00 -0.11097939322E+03  0.11097939322E+03  0.00000000000E+00 0. -1.
    9000006    2    1    2  501    0  0.00000000000E+00  0.00000000000E+00  0.88902060678E+03  0.11109793932E+04  0.66627139581E+03 0.  0.
         13    1    3    3    0    0  0.11135185669E+03  0.54088792269E+02  0.96022282181E+03  0.96816976867E+03  0.00000000000E+00 0. -1.
          4    1    3    3  501    0 -0.11135185669E+03 -0.54088792269E+02 -0.71202215032E+02  0.14280962454E+03  0.00000000000E+00 0. -1.
<mgrwt>
<rscale>  0 0.66627140E+03</rscale>
<asrwt>0</asrwt>
<pdfrwt beam="1">0</pdfrwt>
<pdfrwt beam="2">  1        2 0.40356228E+00 0.66627140E+03</pdfrwt>
<totfact> 0.38569943E+00</totfact>
</mgrwt>
</event>
<event>
 5    1  0.2366700E-004  0.6415088E+03  0.7818608E-02  0.9822844E-01
         13   -1    0    0    0    0  0.00000000000E+00  0.00000000000E+00  0.10000000000E+04  0.10000000000E+04  0.00000000000E+00 0. -1.
          2   -1    0    0  501    0 -0.00000000000E+00 -0.00000000000E+00 -0.10288338097E+03  0.10288338097E+03  0.00000000000E+00 0. -1.
    9000006    2    1    2  501    0  0.00000000000E+00  0.00000000000E+00  0.89711661903E+03  0.11028833810E+04  0.64150878707E+03 0.  0.
         13    1    3    3    0    0  0.23556920727E+03 -0.20370646793E+03  0.58054786988E+03  0.65880574201E+03  0.00000000000E+00 0. -1.
          4    1    3    3  501    0 -0.23556920727E+03  0.20370646793E+03  0.31656874915E+03  0.44407763896E+03  0.00000000000E+00 0. -1.
<mgrwt>
<rscale>  0 0.64150879E+03</rscale>
<asrwt>0</asrwt>
<pdfrwt beam="1">0</pdfrwt>
<pdfrwt beam="2">  1        2 0.37412217E+00 0.64150879E+03</pdfrwt>
<totfact> 0.49717864E+00</totfact>
</mgrwt>
</event>
<event>
 5    1  0.2366700E-004  0.6495208E+03  0.7818608E-02  0.9807679E-01
         13   -1    0    0    0    0  0.00000000000E+00  0.00000000000E+00  0.10000000000E+04  0.10000000000E+04  0.00000000000E+00 0. -1.
          2   -1    0    0  501    0 -0.00000000000E+00 -0.00000000000E+00 -0.10546931761E+03  0.10546931761E+03  0.00000000000E+00 0. -1.
    9000006    2    1    2  501    0  0.00000000000E+00  0.00000000000E+00  0.89453068239E+03  0.11054693176E+04  0.64952080061E+03 0.  0.
         13    1    3    3    0    0  0.11388821764E+03  0.28838549055E+03  0.28284522030E+03  0.41968814127E+03  0.00000000000E+00 0. -1.
          4    1    3    3  501    0 -0.11388821764E+03 -0.28838549055E+03  0.61168546209E+03  0.68578117633E+03  0.00000000000E+00 0. -1.
<mgrwt>
<rscale>  0 0.64952080E+03</rscale>
<asrwt>0</asrwt>
<pdfrwt beam="1">0</pdfrwt>
<pdfrwt beam="2">  1        2 0.38352560E+00 0.64952080E+03</pdfrwt>
<totfact> 0.45875246E+00</totfact>
</mgrwt>
</event>
<event>
 5    1  0.2366700E-004  0.5971621E+03  0.7818608E-02  0.9911311E-01
         13   -1    0    0    0    0  0.00000000000E+00  0.00000000000E+00  0.10000000000E+04  0.10000000000E+04  0.00000000000E+00 0. -1.
          2   -1    0    0  501    0 -0.00000000000E+00 -0.00000000000E+00 -0.89150633519E+02  0.89150633519E+02  0.00000000000E+00 0. -1.
    9000006    2    1    2  501    0  0.00000000000E+00  0.00000000000E+00  0.91084936648E+03  0.10891506335E+04  0.59716206684E+03 0.  0.
         13    1    3    3    0    0 -0.14322884259E+03  0.12870593575E+03  0.39233057451E+02  0.19651705281E+03  0.00000000000E+00 0. -1.
          2    1    3    3  501    0  0.14322884259E+03 -0.12870593575E+03  0.87161630903E+03  0.89263358071E+03  0.00000000000E+00 0. -1.
<mgrwt>
<rscale>  0 0.59716207E+03</rscale>
<asrwt>0</asrwt>
<pdfrwt beam="1">0</pdfrwt>
<pdfrwt beam="2">  1        2 0.32418481E+00 0.59716207E+03</pdfrwt>
<totfact> 0.75605106E+00</totfact>
</mgrwt>
</event>
<event>
 5    1  0.2366700E-004  0.7186737E+03  0.7818608E-02  0.9685820E-01
         13   -1    0    0    0    0  0.00000000000E+00  0.00000000000E+00  0.10000000000E+04  0.10000000000E+04  0.00000000000E+00 0. -1.
          2   -1    0    0  501    0 -0.00000000000E+00 -0.00000000000E+00 -0.12912297826E+03  0.12912297826E+03  0.00000000000E+00 0. -1.
    9000006    2    1    2  501    0  0.00000000000E+00  0.00000000000E+00  0.87087702174E+03  0.11291229783E+04  0.71867371807E+03 0.  0.
         13    1    3    3    0    0 -0.16032101358E+03  0.11188002748E+03 -0.38256287041E+02  0.19920720730E+03  0.00000000000E+00 0. -1.
          2    1    3    3  501    0  0.16032101358E+03 -0.11188002748E+03  0.90913330878E+03  0.92991577096E+03  0.00000000000E+00 0. -1.
<mgrwt>
<rscale>  0 0.71867372E+03</rscale>
<asrwt>0</asrwt>
<pdfrwt beam="1">0</pdfrwt>
<pdfrwt beam="2">  1        2 0.46953909E+00 0.71867372E+03</pdfrwt>
<totfact> 0.21251058E+00</totfact>
</mgrwt>
</event>
<event>
 5    1  0.2366700E-004  0.6510028E+03  0.7818608E-02  0.9804899E-01
         13   -1    0    0    0    0  0.00000000000E+00  0.00000000000E+00  0.10000000000E+04  0.10000000000E+04  0.00000000000E+00 0. -1.
          2   -1    0    0  501    0 -0.00000000000E+00 -0.00000000000E+00 -0.10595115762E+03  0.10595115762E+03  0.00000000000E+00 0. -1.
    9000006    2    1    2  501    0  0.00000000000E+00  0.00000000000E+00  0.89404884238E+03  0.11059511576E+04  0.65100278839E+03 0.  0.
         13    1    3    3    0    0 -0.12428583036E+03  0.26511378413E+03  0.68858805523E+03  0.74825516769E+03  0.00000000000E+00 0. -1.
          4    1    3    3  501    0  0.12428583036E+03 -0.26511378413E+03  0.20546078714E+03  0.35769598994E+03  0.00000000000E+00 0. -1.
<mgrwt>
<rscale>  0 0.65100279E+03</rscale>
<asrwt>0</asrwt>
<pdfrwt beam="1">0</pdfrwt>
<pdfrwt beam="2">  1        2 0.38527775E+00 0.65100279E+03</pdfrwt>
<totfact> 0.45189857E+00</totfact>
</mgrwt>
</event>
<event>
 5    1  0.2366700E-004  0.6300273E+03  0.7818608E-02  0.9844995E-01
         13   -1    0    0    0    0  0.00000000000E+00  0.00000000000E+00  0.10000000000E+04  0.10000000000E+04  0.00000000000E+00 0. -1.
          2   -1    0    0  501    0 -0.00000000000E+00 -0.00000000000E+00 -0.99233606544E+02  0.99233606544E+02  0.00000000000E+00 0. -1.
    9000006    2    1    2  501    0  0.00000000000E+00  0.00000000000E+00  0.90076639346E+03  0.10992336065E+04  0.63002732177E+03 0.  0.
         13    1    3    3    0    0 -0.32828314269E+02  0.31049196244E+03  0.37738195853E+03  0.48979597751E+03  0.00000000000E+00 0. -1.
          2    1    3    3  501    0  0.32828314269E+02 -0.31049196244E+03  0.52338443493E+03  0.60943762903E+03  0.00000000000E+00 0. -1.
<mgrwt>
<rscale>  0 0.63002732E+03</rscale>
<asrwt>0</asrwt>
<pdfrwt beam="1">0</pdfrwt>
<pdfrwt beam="2">  1        2 0.36085024E+00 0.63002732E+03</pdfrwt>
<totfact> 0.55643954E+00</totfact>
</mgrwt>
</event>
<event>
 5    1  0.2366700E-004  0.6484465E+03  0.7818608E-02  0.9809699E-01
         13   -1    0    0    0    0  0.00000000000E+00  0.00000000000E+00  0.10000000000E+04  0.10000000000E+04  0.00000000000E+00 0. -1.
          2   -1    0    0  501    0 -0.00000000000E+00 -0.00000000000E+00 -0.10512072328E+03  0.10512072328E+03  0.00000000000E+00 0. -1.
    9000006    2    1    2  501    0  0.00000000000E+00  0.00000000000E+00  0.89487927672E+03  0.11051207233E+04  0.64844652295E+03 0.  0.
         13    1    3    3    0    0 -0.14320365775E+03  0.90536268871E+02  0.91855738970E+03  0.93405127362E+03  0.00000000000E+00 0. -1.
          2    1    3    3  501    0  0.14320365775E+03 -0.90536268871E+02 -0.23678112984E+02  0.17106944966E+03  0.00000000000E+00 0. -1.
<mgrwt>
<rscale>  0 0.64844652E+03</rscale>
<asrwt>0</asrwt>
<pdfrwt beam="1">0</pdfrwt>
<pdfrwt beam="2">  1        2 0.38225798E+00 0.64844652E+03</pdfrwt>
<totfact> 0.46376968E+00</totfact>
</mgrwt>
</event>
<event>
 5    1  0.2366700E-004  0.5639641E+03  0.7818608E-02  0.9983125E-01
         13   -1    0    0    0    0  0.00000000000E+00  0.00000000000E+00  0.10000000000E+04  0.10000000000E+04  0.00000000000E+00 0. -1.
          2   -1    0    0  501    0 -0.00000000000E+00 -0.00000000000E+00 -0.79513863388E+02  0.79513863388E+02  0.00000000000E+00 0. -1.
    9000006    2    1    2  501    0  0.00000000000E+00  0.00000000000E+00  0.92048613661E+03  0.10795138634E+04  0.56396405342E+03 0.  0.
         13    1    3    3    0    0  0.12951723427E+03 -0.13335593298E+03  0.54391278062E+02  0.19369287535E+03  0.00000000000E+00 0. -1.
          4    1    3    3  501    0 -0.12951723427E+03  0.13335593298E+03  0.86609485855E+03  0.88582098803E+03  0.00000000000E+00 0. -1.
<mgrwt>
<rscale>  0 0.56396405E+03</rscale>
<asrwt>0</asrwt>
<pdfrwt beam="1">0</pdfrwt>
<pdfrwt beam="2">  1        2 0.28914193E+00 0.56396405E+03</pdfrwt>
<totfact> 0.10096059E+01</totfact>
</mgrwt>
</event>
<event>
 5    1  0.2366700E-004  0.6615908E+03  0.7818608E-02  0.9785270E-01
         13   -1    0    0    0    0  0.00000000000E+00  0.00000000000E+00  0.10000000000E+04  0.10000000000E+04  0.00000000000E+00 0. -1.
          2   -1    0    0  501    0 -0.00000000000E+00 -0.00000000000E+00 -0.10942559963E+03  0.10942559963E+03  0.00000000000E+00 0. -1.
    9000006    2    1    2  501    0  0.00000000000E+00  0.00000000000E+00  0.89057440037E+03  0.11094255996E+04  0.66159080896E+03 0.  0.
         13    1    3    3    0    0 -0.35781186531E+02 -0.12529270552E+03  0.95515224038E+03  0.96399914816E+03  0.00000000000E+00 0. -1.
          4    1    3    3  501    0  0.35781186531E+02  0.12529270552E+03 -0.64577840000E+02  0.14542645146E+03  0.00000000000E+00 0. -1.
<mgrwt>
<rscale>  0 0.66159081E+03</rscale>
<asrwt>0</asrwt>
<pdfrwt beam="1">0</pdfrwt>
<pdfrwt beam="2">  1        2 0.39791211E+00 0.66159081E+03</pdfrwt>
<totfact> 0.40515549E+00</totfact>
</mgrwt>
</event>
<event>
 5    1  0.2366700E-004  0.6647149E+03  0.7818608E-02  0.9779553E-01
         13   -1    0    0    0    0  0.00000000000E+00  0.00000000000E+00  0.10000000000E+04  0.10000000000E+04  0.00000000000E+00 0. -1.
          2   -1    0    0  501    0 -0.00000000000E+00 -0.00000000000E+00 -0.11046148740E+03  0.11046148740E+03  0.00000000000E+00 0. -1.
    9000006    2    1    2  501    0  0.00000000000E+00  0.00000000000E+00  0.88953851260E+03  0.11104614874E+04  0.66471493859E+03 0.  0.
         13    1    3    3    0    0 -0.14505017375E+02 -0.15417938867E+03 -0.46506598909E+02  0.16169274307E+03  0.00000000000E+00 0. -1.
          4    1    3    3  501    0  0.14505017375E+02  0.15417938867E+03  0.93604511151E+03  0.94876874432E+03  0.00000000000E+00 0. -1.
<mgrwt>
<rscale>  0 0.66471494E+03</rscale>
<asrwt>0</asrwt>
<pdfrwt beam="1">0</pdfrwt>
<pdfrwt beam="2">  1        2 0.40167898E+00 0.66471494E+03</pdfrwt>
<totfact> 0.39208922E+00</totfact>
</mgrwt>
</event>
<event>
 5    1  0.2366700E-004  0.6593123E+03  0.7818608E-02  0.9789461E-01
         13   -1    0    0    0    0  0.00000000000E+00  0.00000000000E+00  0.10000000000E+04  0.10000000000E+04  0.00000000000E+00 0. -1.
          2   -1    0    0  501    0 -0.00000000000E+00 -0.00000000000E+00 -0.10867318138E+03  0.10867318138E+03  0.00000000000E+00 0. -1.
    9000006    2    1    2  501    0  0.00000000000E+00  0.00000000000E+00  0.89132681862E+03  0.11086731814E+04  0.65931231258E+03 0.  0.
         13    1    3    3    0    0  0.23666471721E+02  0.14785376378E+01  0.99856403843E+03  0.99884554702E+03  0.00000000000E+00 0. -1.
          2    1    3    3  501    0 -0.23666471721E+02 -0.14785376378E+01 -0.10723721981E+03  0.10982763436E+03  0.00000000000E+00 0. -1.
<mgrwt>
<rscale>  0 0.65931231E+03</rscale>
<asrwt>0</asrwt>
<pdfrwt beam="1">0</pdfrwt>
<pdfrwt beam="2">  1        2 0.39517604E+00 0.65931231E+03</pdfrwt>
<totfact> 0.41489020E+00</totfact>
</mgrwt>
</event>
<event>
 5    1  0.2366700E-004  0.6517053E+03  0.7818608E-02  0.9803585E-01
         13   -1    0    0    0    0  0.00000000000E+00  0.00000000000E+00  0.10000000000E+04  0.10000000000E+04  0.00000000000E+00 0. -1.
          2   -1    0    0  501    0 -0.00000000000E+00 -0.00000000000E+00 -0.10617994224E+03  0.10617994224E+03  0.00000000000E+00 0. -1.
    9000006    2    1    2  501    0  0.00000000000E+00  0.00000000000E+00  0.89382005776E+03  0.11061799422E+04  0.65170527769E+03 0.  0.
         13    1    3    3    0    0 -0.12909891595E+03 -0.12898664838E+03  0.90512194367E+03  0.92333624346E+03  0.00000000000E+00 0. -1.
          4    1    3    3  501    0  0.12909891595E+03  0.12898664838E+03 -0.11301885916E+02  0.18284369878E+03  0.00000000000E+00 0. -1.
<mgrwt>
<rscale>  0 0.65170528E+03</rscale>
<asrwt>0</asrwt>
<pdfrwt beam="1">0</pdfrwt>
<pdfrwt beam="2">  1        2 0.38610970E+00 0.65170528E+03</pdfrwt>
<totfact> 0.44867686E+00</totfact>
</mgrwt>
</event>
<event>
 5    1  0.2366700E-004  0.6691844E+03  0.7818608E-02  0.9771432E-01
         13   -1    0    0    0    0  0.00000000000E+00  0.00000000000E+00  0.10000000000E+04  0.10000000000E+04  0.00000000000E+00 0. -1.
          2   -1    0    0  501    0 -0.00000000000E+00 -0.00000000000E+00 -0.11195192873E+03  0.11195192873E+03  0.00000000000E+00 0. -1.
    9000006    2    1    2  501    0  0.00000000000E+00  0.00000000000E+00  0.88804807127E+03  0.11119519287E+04  0.66918436541E+03 0.  0.
         13    1    3    3    0    0  0.32409800247E+03  0.82585473729E+02  0.42808142929E+03  0.54324357868E+03  0.00000000000E+00 0. -1.
          4    1    3    3  501    0 -0.32409800247E+03 -0.82585473729E+02  0.45996664199E+03  0.56870835005E+03  0.00000000000E+00 0. -1.
<mgrwt>
<rscale>  0 0.66918437E+03</rscale>
<asrwt>0</asrwt>
<pdfrwt beam="1">0</pdfrwt>
<pdfrwt beam="2">  1        2 0.40709878E+00 0.66918437E+03</pdfrwt>
<totfact> 0.37395197E+00</totfact>
</mgrwt>
</event>
<event>
 5    1  0.2366700E-004  0.6520676E+03  0.7818608E-02  0.9802907E-01
         13   -1    0    0    0    0  0.00000000000E+00  0.00000000000E+00  0.10000000000E+04  0.10000000000E+04  0.00000000000E+00 0. -1.
          2   -1    0    0  501    0 -0.00000000000E+00 -0.00000000000E+00 -0.10629804491E+03  0.10629804491E+03  0.00000000000E+00 0. -1.
    9000006    2    1    2  501    0  0.00000000000E+00  0.00000000000E+00  0.89370195509E+03  0.11062980449E+04  0.65206761891E+03 0.  0.
         13    1    3    3    0    0  0.27012018050E+03  0.17967882424E+03  0.39191011976E+03  0.50876608944E+03  0.00000000000E+00 0. -1.
          2    1    3    3  501    0 -0.27012018050E+03 -0.17967882424E+03  0.50179183533E+03  0.59753195547E+03  0.00000000000E+00 0. -1.
<mgrwt>
<rscale>  0 0.65206762E+03</rscale>
<asrwt>0</asrwt>
<pdfrwt beam="1">0</pdfrwt>
<pdfrwt beam="2">  1        2 0.38653916E+00 0.65206762E+03</pdfrwt>
<totfact> 0.44702192E+00</totfact>
</mgrwt>
</event>
<event>
 5    1  0.2366700E-004  0.6474454E+03  0.7818608E-02  0.9811584E-01
         13   -1    0    0    0    0  0.00000000000E+00  0.00000000000E+00  0.10000000000E+04  0.10000000000E+04  0.00000000000E+00 0. -1.
          2   -1    0    0  501    0 -0.00000000000E+00 -0.00000000000E+00 -0.10479640124E+03  0.10479640124E+03  0.00000000000E+00 0. -1.
    9000006    2    1    2  501    0  0.00000000000E+00  0.00000000000E+00  0.89520359876E+03  0.11047964012E+04  0.64744544553E+03 0.  0.
         13    1    3    3    0    0 -0.10886051931E+03 -0.29638105473E+03  0.56951112039E+03  0.65117989720E+03  0.00000000000E+00 0. -1.
          2    1    3    3  501    0  0.10886051931E+03  0.29638105473E+03  0.32569247837E+03  0.45361650404E+03  0.00000000000E+00 0. -1.
<mgrwt>
<rscale>  0 0.64744545E+03</rscale>
<asrwt>0</asrwt>
<pdfrwt beam="1">0</pdfrwt>
<pdfrwt beam="2">  1        2 0.38107863E+00 0.64744545E+03</pdfrwt>
<totfact> 0.46848226E+00</totfact>
</mgrwt>
</event>
<event>
 5    1  0.2366700E-004  0.5645996E+03  0.7818608E-02  0.9981701E-01
         13   -1    0    0    0    0  0.00000000000E+00  0.00000000000E+00  0.10000000000E+04  0.10000000000E+04  0.00000000000E+00 0. -1.
          2   -1    0    0  501    0 -0.00000000000E+00 -0.00000000000E+00 -0.79693182981E+02  0.79693182981E+02  0.00000000000E+00 0. -1.
    9000006    2    1    2  501    0  0.00000000000E+00  0.00000000000E+00  0.92030681702E+03  0.10796931830E+04  0.56459962090E+03 0.  0.
         13    1    3    3    0    0  0.27985478227E+03 -0.60585723226E+01  0.53009761128E+03  0.59946549771E+03  0.00000000000E+00 0. -1.
          4    1    3    3  501    0 -0.27985478227E+03  0.60585723226E+01  0.39020920574E+03  0.48022768527E+03  0.00000000000E+00 0. -1.
<mgrwt>
<rscale>  0 0.56459962E+03</rscale>
<asrwt>0</asrwt>
<pdfrwt beam="1">0</pdfrwt>
<pdfrwt beam="2">  1        2 0.28979400E+00 0.56459962E+03</pdfrwt>
<totfact> 0.10042037E+01</totfact>
</mgrwt>
</event>
<event>
 5    1  0.2366700E-004  0.6570509E+03  0.7818608E-02  0.9793638E-01
         13   -1    0    0    0    0  0.00000000000E+00  0.00000000000E+00  0.10000000000E+04  0.10000000000E+04  0.00000000000E+00 0. -1.
          2   -1    0    0  501    0 -0.00000000000E+00 -0.00000000000E+00 -0.10792897436E+03  0.10792897436E+03  0.00000000000E+00 0. -1.
    9000006    2    1    2  501    0  0.00000000000E+00  0.00000000000E+00  0.89207102564E+03  0.11079289744E+04  0.65705090932E+03 0.  0.
         13    1    3    3    0    0 -0.48554406758E+02 -0.88095517393E+00  0.99391436085E+03  0.99510002673E+03  0.00000000000E+00 0. -1.
          2    1    3    3  501    0  0.48554406758E+02  0.88095517393E+00 -0.10184333521E+03  0.11282894763E+03  0.00000000000E+00 0. -1.
<mgrwt>
<rscale>  0 0.65705091E+03</rscale>
<asrwt>0</asrwt>
<pdfrwt beam="1">0</pdfrwt>
<pdfrwt beam="2">  1        2 0.39246983E+00 0.65705091E+03</pdfrwt>
<totfact> 0.42472589E+00</totfact>
</mgrwt>
</event>
<event>
 5    1  0.2366700E-004  0.6563169E+03  0.7818608E-02  0.9794998E-01
         13   -1    0    0    0    0  0.00000000000E+00  0.00000000000E+00  0.10000000000E+04  0.10000000000E+04  0.00000000000E+00 0. -1.
          2   -1    0    0  501    0 -0.00000000000E+00 -0.00000000000E+00 -0.10768797154E+03  0.10768797154E+03  0.00000000000E+00 0. -1.
    9000006    2    1    2  501    0  0.00000000000E+00  0.00000000000E+00  0.89231202846E+03  0.11076879715E+04  0.65631690984E+03 0.  0.
         13    1    3    3    0    0  0.23113352335E+02 -0.28930745655E+03  0.18767954682E+03  0.34562500454E+03  0.00000000000E+00 0. -1.
          2    1    3    3  501    0 -0.23113352335E+02  0.28930745655E+03  0.70463248165E+03  0.76206296699E+03  0.00000000000E+00 0. -1.
<mgrwt>
<rscale>  0 0.65631691E+03</rscale>
<asrwt>0</asrwt>
<pdfrwt beam="1">0</pdfrwt>
<pdfrwt beam="2">  1        2 0.39159345E+00 0.65631691E+03</pdfrwt>
<totfact> 0.42795599E+00</totfact>
</mgrwt>
</event>
<event>
 5    1  0.2366700E-004  0.6541381E+03  0.7818608E-02  0.9799045E-01
         13   -1    0    0    0    0  0.00000000000E+00  0.00000000000E+00  0.10000000000E+04  0.10000000000E+04  0.00000000000E+00 0. -1.
          2   -1    0    0  501    0 -0.00000000000E+00 -0.00000000000E+00 -0.10697416358E+03  0.10697416358E+03  0.00000000000E+00 0. -1.
    9000006    2    1    2  501    0  0.00000000000E+00  0.00000000000E+00  0.89302583642E+03  0.11069741636E+04  0.65413810035E+03 0.  0.
         13    1    3    3    0    0 -0.28130302184E+03 -0.16535239748E+03  0.40862139424E+03  0.52291897009E+03  0.00000000000E+00 0. -1.
          2    1    3    3  501    0  0.28130302184E+03  0.16535239748E+03  0.48440444218E+03  0.58405519349E+03  0.00000000000E+00 0. -1.
<mgrwt>
<rscale>  0 0.65413810E+03</rscale>
<asrwt>0</asrwt>
<pdfrwt beam="1">0</pdfrwt>
<pdfrwt beam="2">  1        2 0.38899778E+00 0.65413810E+03</pdfrwt>
<totfact> 0.43765357E+00</totfact>
</mgrwt>
</event>
<event>
 5    1  0.2366700E-004  0.6441562E+03  0.7818608E-02  0.9817807E-01
         13   -1    0    0    0    0  0.00000000000E+00  0.00000000000E+00  0.10000000000E+04  0.10000000000E+04  0.00000000000E+00 0. -1.
          2   -1    0    0  501    0 -0.00000000000E+00 -0.00000000000E+00 -0.10373431396E+03  0.10373431396E+03  0.00000000000E+00 0. -1.
    9000006    2    1    2  501    0  0.00000000000E+00  0.00000000000E+00  0.89626568604E+03  0.11037343140E+04  0.64415623559E+03 0.  0.
         13    1    3    3    0    0 -0.61684436725E+02 -0.21289180463E+03  0.84853388295E+03  0.87700492628E+03  0.00000000000E+00 0. -1.
          2    1    3    3  501    0  0.61684436725E+02  0.21289180463E+03  0.47731803090E+02  0.22672938768E+03  0.00000000000E+00 0. -1.
<mgrwt>
<rscale>  0 0.64415624E+03</rscale>
<asrwt>0</asrwt>
<pdfrwt beam="1">0</pdfrwt>
<pdfrwt beam="2">  1        2 0.37721648E+00 0.64415624E+03</pdfrwt>
<totfact> 0.48422164E+00</totfact>
</mgrwt>
</event>
<event>
 5    1  0.2366700E-004  0.6490649E+03  0.7818608E-02  0.9808535E-01
         13   -1    0    0    0    0  0.00000000000E+00  0.00000000000E+00  0.10000000000E+04  0.10000000000E+04  0.00000000000E+00 0. -1.
          2   -1    0    0  501    0 -0.00000000000E+00 -0.00000000000E+00 -0.10532130517E+03  0.10532130517E+03  0.00000000000E+00 0. -1.
    9000006    2    1    2  501    0  0.00000000000E+00  0.00000000000E+00  0.89467869483E+03  0.11053213052E+04  0.64906488173E+03 0.  0.
         13    1    3    3    0    0  0.31622867226E+03  0.50980762983E+02  0.35849699228E+03  0.48074910798E+03  0.00000000000E+00 0. -1.
          4    1    3    3  501    0 -0.31622867226E+03 -0.50980762983E+02  0.53618170255E+03  0.62457219719E+03  0.00000000000E+00 0. -1.
<mgrwt>
<rscale>  0 0.64906488E+03</rscale>
<asrwt>0</asrwt>
<pdfrwt beam="1">0</pdfrwt>
<pdfrwt beam="2">  1        2 0.38298737E+00 0.64906488E+03</pdfrwt>
<totfact> 0.46087671E+00</totfact>
</mgrwt>
</event>
<event>
 5    1  0.2366700E-004  0.6940069E+03  0.7818608E-02  0.9727536E-01
         13   -1    0    0    0    0  0.00000000000E+00  0.00000000000E+00  0.10000000000E+04  0.10000000000E+04  0.00000000000E+00 0. -1.
          2   -1    0    0  501    0 -0.00000000000E+00 -0.00000000000E+00 -0.12041138024E+03  0.12041138024E+03  0.00000000000E+00 0. -1.
    9000006    2    1    2  501    0  0.00000000000E+00  0.00000000000E+00  0.87958861976E+03  0.11204113802E+04  0.69400685944E+03 0.  0.
         13    1    3    3    0    0  0.10544264384E+03 -0.26646405986E+03  0.12388880713E+03  0.31220134989E+03  0.00000000000E+00 0. -1.
          2    1    3    3  501    0 -0.10544264384E+03  0.26646405986E+03  0.75569981264E+03  0.80821003035E+03  0.00000000000E+00 0. -1.
<mgrwt>
<rscale>  0 0.69400686E+03</rscale>
<asrwt>0</asrwt>
<pdfrwt beam="1">0</pdfrwt>
<pdfrwt beam="2">  1        2 0.43786049E+00 0.69400686E+03</pdfrwt>
<totfact> 0.28444401E+00</totfact>
</mgrwt>
</event>
<event>
 5    1  0.2366700E-004  0.6452087E+03  0.7818608E-02  0.9815812E-01
         13   -1    0    0    0    0  0.00000000000E+00  0.00000000000E+00  0.10000000000E+04  0.10000000000E+04  0.00000000000E+00 0. -1.
          2   -1    0    0  501    0 -0.00000000000E+00 -0.00000000000E+00 -0.10407355690E+03  0.10407355690E+03  0.00000000000E+00 0. -1.
    9000006    2    1    2  501    0  0.00000000000E+00  0.00000000000E+00  0.89592644310E+03  0.11040735569E+04  0.64520866980E+03 0.  0.
         13    1    3    3    0    0  0.13165985373E+03 -0.14385673036E+03  0.82028613951E+01  0.19518289599E+03  0.00000000000E+00 0. -1.
          2    1    3    3  501    0 -0.13165985373E+03  0.14385673036E+03  0.88772358171E+03  0.90889066090E+03  0.00000000000E+00 0. -1.
<mgrwt>
<rscale>  0 0.64520867E+03</rscale>
<asrwt>0</asrwt>
<pdfrwt beam="1">0</pdfrwt>
<pdfrwt beam="2">  1        2 0.37845010E+00 0.64520867E+03</pdfrwt>
<totfact> 0.47914273E+00</totfact>
</mgrwt>
</event>
<event>
 5    1  0.2366700E-004  0.5586988E+03  0.7818608E-02  0.9995003E-01
         13   -1    0    0    0    0  0.00000000000E+00  0.00000000000E+00  0.10000000000E+04  0.10000000000E+04  0.00000000000E+00 0. -1.
          2   -1    0    0  501    0 -0.00000000000E+00 -0.00000000000E+00 -0.78036096749E+02  0.78036096749E+02  0.00000000000E+00 0. -1.
    9000006    2    1    2  501    0  0.00000000000E+00  0.00000000000E+00  0.92196390325E+03  0.10780360967E+04  0.55869883390E+03 0.  0.
         13    1    3    3    0    0  0.20401221895E+03  0.12798449016E+03  0.18786346631E+03  0.30544016955E+03  0.00000000000E+00 0. -1.
          2    1    3    3  501    0 -0.20401221895E+03 -0.12798449016E+03  0.73410043694E+03  0.77259592720E+03  0.00000000000E+00 0. -1.
<mgrwt>
<rscale>  0 0.55869883E+03</rscale>
<asrwt>0</asrwt>
<pdfrwt beam="1">0</pdfrwt>
<pdfrwt beam="2">  1        2 0.28376822E+00 0.55869883E+03</pdfrwt>
<totfact> 0.10552386E+01</totfact>
</mgrwt>
</event>
<event>
 5    1  0.2366700E-004  0.6255673E+03  0.7818608E-02  0.9853737E-01
         13   -1    0    0    0    0  0.00000000000E+00  0.00000000000E+00  0.10000000000E+04  0.10000000000E+04  0.00000000000E+00 0. -1.
          2   -1    0    0  501    0 -0.00000000000E+00 -0.00000000000E+00 -0.97833605462E+02  0.97833605462E+02  0.00000000000E+00 0. -1.
    9000006    2    1    2  501    0  0.00000000000E+00  0.00000000000E+00  0.90216639454E+03  0.10978336055E+04  0.62556728003E+03 0.  0.
         13    1    3    3    0    0 -0.16570854981E+03 -0.10380135355E+03  0.22649101235E+02  0.19684264341E+03  0.00000000000E+00 0. -1.
          2    1    3    3  501    0  0.16570854981E+03  0.10380135355E+03  0.87951729330E+03  0.90099096205E+03  0.00000000000E+00 0. -1.
<mgrwt>
<rscale>  0 0.62556728E+03</rscale>
<asrwt>0</asrwt>
<pdfrwt beam="1">0</pdfrwt>
<pdfrwt beam="2">  1        2 0.35575932E+00 0.62556728E+03</pdfrwt>
<totfact> 0.58084912E+00</totfact>
</mgrwt>
</event>
<event>
 5    1  0.2366700E-004  0.6535633E+03  0.7818608E-02  0.9800116E-01
         13   -1    0    0    0    0  0.00000000000E+00  0.00000000000E+00  0.10000000000E+04  0.10000000000E+04  0.00000000000E+00 0. -1.
          2   -1    0    0  501    0 -0.00000000000E+00 -0.00000000000E+00 -0.10678626098E+03  0.10678626098E+03  0.00000000000E+00 0. -1.
    9000006    2    1    2  501    0  0.00000000000E+00  0.00000000000E+00  0.89321373902E+03  0.11067862610E+04  0.65356334347E+03 0.  0.
         13    1    3    3    0    0 -0.11983228231E+03 -0.29066611743E+03  0.59750294201E+03  0.67517133634E+03  0.00000000000E+00 0. -1.
          2    1    3    3  501    0  0.11983228231E+03  0.29066611743E+03  0.29571079701E+03  0.43161492464E+03  0.00000000000E+00 0. -1.
<mgrwt>
<rscale>  0 0.65356334E+03</rscale>
<asrwt>0</asrwt>
<pdfrwt beam="1">0</pdfrwt>
<pdfrwt beam="2">  1        2 0.38831450E+00 0.65356334E+03</pdfrwt>
<totfact> 0.44023917E+00</totfact>
</mgrwt>
</event>
<event>
 5    1  0.2366700E-004  0.6441084E+03  0.7818608E-02  0.9817898E-01
         13   -1    0    0    0    0  0.00000000000E+00  0.00000000000E+00  0.10000000000E+04  0.10000000000E+04  0.00000000000E+00 0. -1.
          2   -1    0    0  501    0 -0.00000000000E+00 -0.00000000000E+00 -0.10371889879E+03  0.10371889879E+03  0.00000000000E+00 0. -1.
    9000006    2    1    2  501    0  0.00000000000E+00  0.00000000000E+00  0.89628110121E+03  0.11037188988E+04  0.64410837222E+03 0.  0.
         13    1    3    3    0    0 -0.50134911099E+01 -0.18999477990E+03  0.26287401289E+01  0.19007909343E+03  0.00000000000E+00 0. -1.
          4    1    3    3  501    0  0.50134911099E+01  0.18999477990E+03  0.89365236108E+03  0.91363980536E+03  0.00000000000E+00 0. -1.
<mgrwt>
<rscale>  0 0.64410837E+03</rscale>
<asrwt>0</asrwt>
<pdfrwt beam="1">0</pdfrwt>
<pdfrwt beam="2">  1        2 0.37716043E+00 0.64410837E+03</pdfrwt>
<totfact> 0.48445359E+00</totfact>
</mgrwt>
</event>
<event>
 5    1  0.2366700E-004  0.6569871E+03  0.7818608E-02  0.9793756E-01
         13   -1    0    0    0    0  0.00000000000E+00  0.00000000000E+00  0.10000000000E+04  0.10000000000E+04  0.00000000000E+00 0. -1.
          2   -1    0    0  501    0 -0.00000000000E+00 -0.00000000000E+00 -0.10790800337E+03  0.10790800337E+03  0.00000000000E+00 0. -1.
    9000006    2    1    2  501    0  0.00000000000E+00  0.00000000000E+00  0.89209199663E+03  0.11079080034E+04  0.65698707255E+03 0.  0.
         13    1    3    3    0    0  0.20975691282E+03  0.97097518233E+02  0.52428998938E+02  0.23701200487E+03  0.00000000000E+00 0. -1.
          2    1    3    3  501    0 -0.20975691282E+03 -0.97097518233E+02  0.83966299769E+03  0.87089599850E+03  0.00000000000E+00 0. -1.
<mgrwt>
<rscale>  0 0.65698707E+03</rscale>
<asrwt>0</asrwt>
<pdfrwt beam="1">0</pdfrwt>
<pdfrwt beam="2">  1        2 0.39239357E+00 0.65698707E+03</pdfrwt>
<totfact> 0.42500608E+00</totfact>
</mgrwt>
</event>
<event>
 5    1  0.2366700E-004  0.6502179E+03  0.7818608E-02  0.9806370E-01
         13   -1    0    0    0    0  0.00000000000E+00  0.00000000000E+00  0.10000000000E+04  0.10000000000E+04  0.00000000000E+00 0. -1.
          2   -1    0    0  501    0 -0.00000000000E+00 -0.00000000000E+00 -0.10569584115E+03  0.10569584115E+03  0.00000000000E+00 0. -1.
    9000006    2    1    2  501    0  0.00000000000E+00  0.00000000000E+00  0.89430415885E+03  0.11056958412E+04  0.65021793624E+03 0.  0.
         13    1    3    3    0    0  0.25107868395E+03 -0.19959653120E+03  0.53739980413E+03  0.62584169746E+03  0.00000000000E+00 0. -1.
          4    1    3    3  501    0 -0.25107868395E+03  0.19959653120E+03  0.35690435472E+03  0.47985414369E+03  0.00000000000E+00 0. -1.
<mgrwt>
<rscale>  0 0.65021794E+03</rscale>
<asrwt>0</asrwt>
<pdfrwt beam="1">0</pdfrwt>
<pdfrwt beam="2">  1        2 0.38434932E+00 0.65021794E+03</pdfrwt>
<totfact> 0.45551863E+00</totfact>
</mgrwt>
</event>
<event>
 5    1  0.2366700E-004  0.5442205E+03  0.7818608E-02  0.1002841E+00
         13   -1    0    0    0    0  0.00000000000E+00  0.00000000000E+00  0.10000000000E+04  0.10000000000E+04  0.00000000000E+00 0. -1.
          2   -1    0    0  501    0 -0.00000000000E+00 -0.00000000000E+00 -0.74043978091E+02  0.74043978091E+02  0.00000000000E+00 0. -1.
    9000006    2    1    2  501    0  0.00000000000E+00  0.00000000000E+00  0.92595602191E+03  0.10740439781E+04  0.54422046301E+03 0.  0.
         13    1    3    3    0    0 -0.10751113158E+03 -0.24543532175E+03  0.55652569282E+03  0.61767142345E+03  0.00000000000E+00 0. -1.
          4    1    3    3  501    0  0.10751113158E+03  0.24543532175E+03  0.36943032909E+03  0.45637255464E+03  0.00000000000E+00 0. -1.
<mgrwt>
<rscale>  0 0.54422046E+03</rscale>
<asrwt>0</asrwt>
<pdfrwt beam="1">0</pdfrwt>
<pdfrwt beam="2">  1        2 0.26925140E+00 0.54422046E+03</pdfrwt>
<totfact> 0.11891394E+01</totfact>
</mgrwt>
</event>
<event>
 5    1  0.2366700E-004  0.6478146E+03  0.7818608E-02  0.9810889E-01
         13   -1    0    0    0    0  0.00000000000E+00  0.00000000000E+00  0.10000000000E+04  0.10000000000E+04  0.00000000000E+00 0. -1.
          2   -1    0    0  501    0 -0.00000000000E+00 -0.00000000000E+00 -0.10491593947E+03  0.10491593947E+03  0.00000000000E+00 0. -1.
    9000006    2    1    2  501    0  0.00000000000E+00  0.00000000000E+00  0.89508406053E+03  0.11049159395E+04  0.64781460147E+03 0.  0.
         13    1    3    3    0    0  0.53535419330E+02  0.25510561000E+03  0.11959080472E+03  0.28678715792E+03  0.00000000000E+00 0. -1.
          4    1    3    3  501    0 -0.53535419330E+02 -0.25510561000E+03  0.77549325582E+03  0.81812878155E+03  0.00000000000E+00 0. -1.
<mgrwt>
<rscale>  0 0.64781460E+03</rscale>
<asrwt>0</asrwt>
<pdfrwt beam="1">0</pdfrwt>
<pdfrwt beam="2">  1        2 0.38151331E+00 0.64781460E+03</pdfrwt>
<totfact> 0.46674026E+00</totfact>
</mgrwt>
</event>
<event>
 5    1  0.2366700E-004  0.6513216E+03  0.7818608E-02  0.9804302E-01
         13   -1    0    0    0    0  0.00000000000E+00  0.00000000000E+00  0.10000000000E+04  0.10000000000E+04  0.00000000000E+00 0. -1.
          2   -1    0    0  501    0 -0.00000000000E+00 -0.00000000000E+00 -0.10605497126E+03  0.10605497126E+03  0.00000000000E+00 0. -1.
    9000006    2    1    2  501    0  0.00000000000E+00  0.00000000000E+00  0.89394502874E+03  0.11060549713E+04  0.65132164485E+03 0.  0.
         13    1    3    3    0    0  0.45481305568E+02  0.29454564666E+03  0.22407007681E+03  0.37287140738E+03  0.00000000000E+00 0. -1.
          2    1    3    3  501    0 -0.45481305568E+02 -0.29454564666E+03  0.66987495193E+03  0.73318356388E+03  0.00000000000E+00 0. -1.
<mgrwt>
<rscale>  0 0.65132164E+03</rscale>
<asrwt>0</asrwt>
<pdfrwt beam="1">0</pdfrwt>
<pdfrwt beam="2">  1        2 0.38565525E+00 0.65132164E+03</pdfrwt>
<totfact> 0.45043409E+00</totfact>
</mgrwt>
</event>
<event>
 5    1  0.2366700E-004  0.6523548E+03  0.7818608E-02  0.9802371E-01
         13   -1    0    0    0    0  0.00000000000E+00  0.00000000000E+00  0.10000000000E+04  0.10000000000E+04  0.00000000000E+00 0. -1.
          2   -1    0    0  501    0 -0.00000000000E+00 -0.00000000000E+00 -0.10639168608E+03  0.10639168608E+03  0.00000000000E+00 0. -1.
    9000006    2    1    2  501    0  0.00000000000E+00  0.00000000000E+00  0.89360831392E+03  0.11063916861E+04  0.65235476875E+03 0.  0.
         13    1    3    3    0    0 -0.26886059808E+03 -0.78874592073E+01  0.13387800244E+03  0.30045224704E+03  0.00000000000E+00 0. -1.
          4    1    3    3  501    0  0.26886059808E+03  0.78874592073E+01  0.75973031148E+03  0.80593943904E+03  0.00000000000E+00 0. -1.
<mgrwt>
<rscale>  0 0.65235477E+03</rscale>
<asrwt>0</asrwt>
<pdfrwt beam="1">0</pdfrwt>
<pdfrwt beam="2">  1        2 0.38687967E+00 0.65235477E+03</pdfrwt>
<totfact> 0.44571368E+00</totfact>
</mgrwt>
</event>
<event>
 5    1  0.2366700E-004  0.6470456E+03  0.7818608E-02  0.9812339E-01
         13   -1    0    0    0    0  0.00000000000E+00  0.00000000000E+00  0.10000000000E+04  0.10000000000E+04  0.00000000000E+00 0. -1.
          2   -1    0    0  501    0 -0.00000000000E+00 -0.00000000000E+00 -0.10466699128E+03  0.10466699128E+03  0.00000000000E+00 0. -1.
    9000006    2    1    2  501    0  0.00000000000E+00  0.00000000000E+00  0.89533300872E+03  0.11046669913E+04  0.64704556649E+03 0.  0.
         13    1    3    3    0    0 -0.22011388601E+03  0.23675069681E+03  0.46966126242E+03  0.57016025525E+03  0.00000000000E+00 0. -1.
          2    1    3    3  501    0  0.22011388601E+03 -0.23675069681E+03  0.42567174630E+03  0.53450673602E+03  0.00000000000E+00 0. -1.
<mgrwt>
<rscale>  0 0.64704557E+03</rscale>
<asrwt>0</asrwt>
<pdfrwt beam="1">0</pdfrwt>
<pdfrwt beam="2">  1        2 0.38060804E+00 0.64704557E+03</pdfrwt>
<totfact> 0.47037478E+00</totfact>
</mgrwt>
</event>
<event>
 5    1  0.2366700E-004  0.6580719E+03  0.7818608E-02  0.9791750E-01
         13   -1    0    0    0    0  0.00000000000E+00  0.00000000000E+00  0.10000000000E+04  0.10000000000E+04  0.00000000000E+00 0. -1.
          2   -1    0    0  501    0 -0.00000000000E+00 -0.00000000000E+00 -0.10826465451E+03  0.10826465451E+03  0.00000000000E+00 0. -1.
    9000006    2    1    2  501    0  0.00000000000E+00  0.00000000000E+00  0.89173534549E+03  0.11082646545E+04  0.65807189429E+03 0.  0.
         13    1    3    3    0    0  0.35416324734E+02  0.31489546182E+03  0.29664397797E+03  0.43406349490E+03  0.00000000000E+00 0. -1.
          4    1    3    3  501    0 -0.35416324734E+02 -0.31489546182E+03  0.59509136752E+03  0.67420115962E+03  0.00000000000E+00 0. -1.
<mgrwt>
<rscale>  0 0.65807189E+03</rscale>
<asrwt>0</asrwt>
<pdfrwt beam="1">0</pdfrwt>
<pdfrwt beam="2">  1        2 0.39369048E+00 0.65807189E+03</pdfrwt>
<totfact> 0.42026352E+00</totfact>
</mgrwt>
</event>
<event>
 5    1  0.2366700E-004  0.6600863E+03  0.7818608E-02  0.9788035E-01
         13   -1    0    0    0    0  0.00000000000E+00  0.00000000000E+00  0.10000000000E+04  0.10000000000E+04  0.00000000000E+00 0. -1.
          2   -1    0    0  501    0 -0.00000000000E+00 -0.00000000000E+00 -0.10892846959E+03  0.10892846959E+03  0.00000000000E+00 0. -1.
    9000006    2    1    2  501    0  0.00000000000E+00  0.00000000000E+00  0.89107153041E+03  0.11089284696E+04  0.66008626586E+03 0.  0.
         13    1    3    3    0    0 -0.30244347087E+01  0.33468138672E+02  0.99711844163E+03  0.99768454441E+03  0.00000000000E+00 0. -1.
          4    1    3    3  501    0  0.30244347087E+01 -0.33468138672E+02 -0.10604691122E+03  0.11124392519E+03  0.00000000000E+00 0. -1.
<mgrwt>
<rscale>  0 0.66008627E+03</rscale>
<asrwt>0</asrwt>
<pdfrwt beam="1">0</pdfrwt>
<pdfrwt beam="2">  1        2 0.39610436E+00 0.66008627E+03</pdfrwt>
<totfact> 0.41156397E+00</totfact>
</mgrwt>
</event>
<event>
 5    1  0.2366700E-004  0.6068436E+03  0.7818608E-02  0.9891309E-01
         13   -1    0    0    0    0  0.00000000000E+00  0.00000000000E+00  0.10000000000E+04  0.10000000000E+04  0.00000000000E+00 0. -1.
          2   -1    0    0  501    0 -0.00000000000E+00 -0.00000000000E+00 -0.92064792808E+02  0.92064792808E+02  0.00000000000E+00 0. -1.
    9000006    2    1    2  501    0  0.00000000000E+00  0.00000000000E+00  0.90793520719E+03  0.10920647928E+04  0.60684361349E+03 0.  0.
         13    1    3    3    0    0  0.26300319704E+03  0.24407153695E+02  0.18524234422E+03  0.32261605183E+03  0.00000000000E+00 0. -1.
          2    1    3    3  501    0 -0.26300319704E+03 -0.24407153695E+02  0.72269286297E+03  0.76944874098E+03  0.00000000000E+00 0. -1.
<mgrwt>
<rscale>  0 0.60684361E+03</rscale>
<asrwt>0</asrwt>
<pdfrwt beam="1">0</pdfrwt>
<pdfrwt beam="2">  1        2 0.33478177E+00 0.60684361E+03</pdfrwt>
<totfact> 0.69234520E+00</totfact>
</mgrwt>
</event>
<event>
 5    1  0.2366700E-004  0.6098663E+03  0.7818608E-02  0.9885145E-01
         13   -1    0    0    0    0  0.00000000000E+00  0.00000000000E+00  0.10000000000E+04  0.10000000000E+04  0.00000000000E+00 0. -1.
          2   -1    0    0  501    0 -0.00000000000E+00 -0.00000000000E+00 -0.92984228466E+02  0.92984228466E+02  0.00000000000E+00 0. -1.
    9000006    2    1    2  501    0  0.00000000000E+00  0.00000000000E+00  0.90701577153E+03  0.10929842285E+04  0.60986630819E+03 0.  0.
         13    1    3    3    0    0 -0.14512301435E+03  0.25566085871E+03  0.30834138545E+03  0.42602532079E+03  0.00000000000E+00 0. -1.
          4    1    3    3  501    0  0.14512301435E+03 -0.25566085871E+03  0.59867438609E+03  0.66695890768E+03  0.00000000000E+00 0. -1.
<mgrwt>
<rscale>  0 0.60986631E+03</rscale>
<asrwt>0</asrwt>
<pdfrwt beam="1">0</pdfrwt>
<pdfrwt beam="2">  1        2 0.33812518E+00 0.60986631E+03</pdfrwt>
<totfact> 0.67332340E+00</totfact>
</mgrwt>
</event>
<event>
 5    1  0.2366700E-004  0.6369199E+03  0.7818608E-02  0.9831637E-01
         13   -1    0    0    0    0  0.00000000000E+00  0.00000000000E+00  0.10000000000E+04  0.10000000000E+04  0.00000000000E+00 0. -1.
          2   -1    0    0  501    0 -0.00000000000E+00 -0.00000000000E+00 -0.10141673148E+03  0.10141673148E+03  0.00000000000E+00 0. -1.
    9000006    2    1    2  501    0  0.00000000000E+00  0.00000000000E+00  0.89858326852E+03  0.11014167315E+04  0.63691987401E+03 0.  0.
         13    1    3    3    0    0 -0.13983080802E+03  0.13535984996E+03  0.13381883929E+02  0.19507439266E+03  0.00000000000E+00 0. -1.
          4    1    3    3  501    0  0.13983080802E+03 -0.13535984996E+03  0.88520138459E+03  0.90634233882E+03  0.00000000000E+00 0. -1.
<mgrwt>
<rscale>  0 0.63691987E+03</rscale>
<asrwt>0</asrwt>
<pdfrwt beam="1">0</pdfrwt>
<pdfrwt beam="2">  1        2 0.36878889E+00 0.63691987E+03</pdfrwt>
<totfact> 0.52025860E+00</totfact>
</mgrwt>
</event>
<event>
 5    1  0.2366700E-004  0.6770674E+03  0.7818608E-02  0.9757274E-01
         13   -1    0    0    0    0  0.00000000000E+00  0.00000000000E+00  0.10000000000E+04  0.10000000000E+04  0.00000000000E+00 0. -1.
          2   -1    0    0  501    0 -0.00000000000E+00 -0.00000000000E+00 -0.11460506561E+03  0.11460506561E+03  0.00000000000E+00 0. -1.
    9000006    2    1    2  501    0  0.00000000000E+00  0.00000000000E+00  0.88539493439E+03  0.11146050656E+04  0.67706739874E+03 0.  0.
         13    1    3    3    0    0 -0.66805047665E+02 -0.32481285727E+03  0.55481925479E+03  0.64636731982E+03  0.00000000000E+00 0. -1.
          4    1    3    3  501    0  0.66805047665E+02  0.32481285727E+03  0.33057567960E+03  0.46823774579E+03  0.00000000000E+00 0. -1.
<mgrwt>
<rscale>  0 0.67706740E+03</rscale>
<asrwt>0</asrwt>
<pdfrwt beam="1">0</pdfrwt>
<pdfrwt beam="2">  1        2 0.41674657E+00 0.67706740E+03</pdfrwt>
<totfact> 0.34351271E+00</totfact>
</mgrwt>
</event>
<event>
 5    1  0.2366700E-004  0.6314346E+03  0.7818608E-02  0.9842253E-01
         13   -1    0    0    0    0  0.00000000000E+00  0.00000000000E+00  0.10000000000E+04  0.10000000000E+04  0.00000000000E+00 0. -1.
          2   -1    0    0  501    0 -0.00000000000E+00 -0.00000000000E+00 -0.99677401570E+02  0.99677401570E+02  0.00000000000E+00 0. -1.
    9000006    2    1    2  501    0  0.00000000000E+00  0.00000000000E+00  0.90032259843E+03  0.10996774016E+04  0.63143456215E+03 0.  0.
         13    1    3    3    0    0  0.24780403173E+03  0.17728162564E+03  0.30610847493E+03  0.43190046464E+03  0.00000000000E+00 0. -1.
          4    1    3    3  501    0 -0.24780403173E+03 -0.17728162564E+03  0.59421412350E+03  0.66777693693E+03  0.00000000000E+00 0. -1.
<mgrwt>
<rscale>  0 0.63143456E+03</rscale>
<asrwt>0</asrwt>
<pdfrwt beam="1">0</pdfrwt>
<pdfrwt beam="2">  1        2 0.36246404E+00 0.63143456E+03</pdfrwt>
<totfact> 0.54890214E+00</totfact>
</mgrwt>
</event>
<event>
 5    1  0.2366700E-004  0.6361971E+03  0.7818608E-02  0.9833030E-01
         13   -1    0    0    0    0  0.00000000000E+00  0.00000000000E+00  0.10000000000E+04  0.10000000000E+04  0.00000000000E+00 0. -1.
          2   -1    0    0  501    0 -0.00000000000E+00 -0.00000000000E+00 -0.10118668486E+03  0.10118668486E+03  0.00000000000E+00 0. -1.
    9000006    2    1    2  501    0  0.00000000000E+00  0.00000000000E+00  0.89881331514E+03  0.11011866849E+04  0.63619709166E+03 0.  0.
         13    1    3    3    0    0  0.50243085406E+02 -0.34488588563E+02 -0.90988083874E+02  0.10951101214E+03  0.00000000000E+00 0. -1.
          4    1    3    3  501    0 -0.50243085406E+02  0.34488588563E+02  0.98980139902E+03  0.99167567272E+03  0.00000000000E+00 0. -1.
<mgrwt>
<rscale>  0 0.63619709E+03</rscale>
<asrwt>0</asrwt>
<pdfrwt beam="1">0</pdfrwt>
<pdfrwt beam="2">  1        2 0.36795236E+00 0.63619709E+03</pdfrwt>
<totfact> 0.52396652E+00</totfact>
</mgrwt>
</event>
<event>
 5    1  0.2366700E-004  0.6457692E+03  0.7818608E-02  0.9814751E-01
         13   -1    0    0    0    0  0.00000000000E+00  0.00000000000E+00  0.10000000000E+04  0.10000000000E+04  0.00000000000E+00 0. -1.
          2   -1    0    0  501    0 -0.00000000000E+00 -0.00000000000E+00 -0.10425446599E+03  0.10425446599E+03  0.00000000000E+00 0. -1.
    9000006    2    1    2  501    0  0.00000000000E+00  0.00000000000E+00  0.89574553401E+03  0.11042544660E+04  0.64576920334E+03 0.  0.
         13    1    3    3    0    0  0.47428308999E+02 -0.31804874751E+03  0.49772737542E+03  0.59256813155E+03  0.00000000000E+00 0. -1.
          2    1    3    3  501    0 -0.47428308999E+02  0.31804874751E+03  0.39801815859E+03  0.51168633444E+03  0.00000000000E+00 0. -1.
<mgrwt>
<rscale>  0 0.64576920E+03</rscale>
<asrwt>0</asrwt>
<pdfrwt beam="1">0</pdfrwt>
<pdfrwt beam="2">  1        2 0.37910795E+00 0.64576920E+03</pdfrwt>
<totfact> 0.47645418E+00</totfact>
</mgrwt>
</event>
<event>
 5    1  0.2366700E-004  0.6463097E+03  0.7818608E-02  0.9813728E-01
         13   -1    0    0    0    0  0.00000000000E+00  0.00000000000E+00  0.10000000000E+04  0.10000000000E+04  0.00000000000E+00 0. -1.
          2   -1    0    0  501    0 -0.00000000000E+00 -0.00000000000E+00 -0.10442906917E+03  0.10442906917E+03  0.00000000000E+00 0. -1.
    9000006    2    1    2  501    0  0.00000000000E+00  0.00000000000E+00  0.89557093083E+03  0.11044290692E+04  0.64630973743E+03 0.  0.
         13    1    3    3    0    0 -0.13059254877E+03 -0.14399186829E+03  0.66541656305E+01  0.19450539799E+03  0.00000000000E+00 0. -1.
          2    1    3    3  501    0  0.13059254877E+03  0.14399186829E+03  0.88891676520E+03  0.90992367118E+03  0.00000000000E+00 0. -1.
<mgrwt>
<rscale>  0 0.64630974E+03</rscale>
<asrwt>0</asrwt>
<pdfrwt beam="1">0</pdfrwt>
<pdfrwt beam="2">  1        2 0.37974287E+00 0.64630974E+03</pdfrwt>
<totfact> 0.47387237E+00</totfact>
</mgrwt>
</event>
<event>
 5    1  0.2366700E-004  0.6655477E+03  0.7818608E-02  0.9778035E-01
         13   -1    0    0    0    0  0.00000000000E+00  0.00000000000E+00  0.10000000000E+04  0.10000000000E+04  0.00000000000E+00 0. -1.
          2   -1    0    0  501    0 -0.00000000000E+00 -0.00000000000E+00 -0.11073843145E+03  0.11073843145E+03  0.00000000000E+00 0. -1.
    9000006    2    1    2  501    0  0.00000000000E+00  0.00000000000E+00  0.88926156855E+03  0.11107384314E+04  0.66554768859E+03 0.  0.
         13    1    3    3    0    0 -0.13987730209E+02 -0.29469511927E+03  0.70154281915E+03  0.76105400400E+03  0.00000000000E+00 0. -1.
          4    1    3    3  501    0  0.13987730209E+02  0.29469511927E+03  0.18771874941E+03  0.34968442744E+03  0.00000000000E+00 0. -1.
<mgrwt>
<rscale>  0 0.66554769E+03</rscale>
<asrwt>0</asrwt>
<pdfrwt beam="1">0</pdfrwt>
<pdfrwt beam="2">  1        2 0.40268605E+00 0.66554769E+03</pdfrwt>
<totfact> 0.38866065E+00</totfact>
</mgrwt>
</event>
<event>
 5    1  0.2366700E-004  0.6414841E+03  0.7818608E-02  0.9822891E-01
         13   -1    0    0    0    0  0.00000000000E+00  0.00000000000E+00  0.10000000000E+04  0.10000000000E+04  0.00000000000E+00 0. -1.
          2   -1    0    0  501    0 -0.00000000000E+00 -0.00000000000E+00 -0.10287546549E+03  0.10287546549E+03  0.00000000000E+00 0. -1.
    9000006    2    1    2  501    0  0.00000000000E+00  0.00000000000E+00  0.89712453451E+03  0.11028754655E+04  0.64148410890E+03 0.  0.
         13    1    3    3    0    0  0.16035414448E+03 -0.24714655007E+03  0.23054461817E+03  0.37409315662E+03  0.00000000000E+00 0. -1.
          2    1    3    3  501    0 -0.16035414448E+03  0.24714655007E+03  0.66657991634E+03  0.72878230887E+03  0.00000000000E+00 0. -1.
<mgrwt>
<rscale>  0 0.64148411E+03</rscale>
<asrwt>0</asrwt>
<pdfrwt beam="1">0</pdfrwt>
<pdfrwt beam="2">  1        2 0.37409339E+00 0.64148411E+03</pdfrwt>
<totfact> 0.49730064E+00</totfact>
</mgrwt>
</event>
<event>
 5    1  0.2366700E-004  0.6388409E+03  0.7818608E-02  0.9827947E-01
         13   -1    0    0    0    0  0.00000000000E+00  0.00000000000E+00  0.10000000000E+04  0.10000000000E+04  0.00000000000E+00 0. -1.
          2   -1    0    0  501    0 -0.00000000000E+00 -0.00000000000E+00 -0.10202941049E+03  0.10202941049E+03  0.00000000000E+00 0. -1.
    9000006    2    1    2  501    0  0.00000000000E+00  0.00000000000E+00  0.89797058951E+03  0.11020294105E+04  0.63884085809E+03 0.  0.
         13    1    3    3    0    0  0.43800387621E+02 -0.50725389596E+02  0.98773511387E+03  0.99000615871E+03  0.00000000000E+00 0. -1.
          4    1    3    3  501    0 -0.43800387621E+02  0.50725389596E+02 -0.89764524365E+02  0.11202325178E+03  0.00000000000E+00 0. -1.
<mgrwt>
<rscale>  0 0.63884086E+03</rscale>
<asrwt>0</asrwt>
<pdfrwt beam="1">0</pdfrwt>
<pdfrwt beam="2">  1        2 0.37101682E+00 0.63884086E+03</pdfrwt>
<totfact> 0.51050041E+00</totfact>
</mgrwt>
</event>
<event>
 5    1  0.2366700E-004  0.6528130E+03  0.7818608E-02  0.9801515E-01
         13   -1    0    0    0    0  0.00000000000E+00  0.00000000000E+00  0.10000000000E+04  0.10000000000E+04  0.00000000000E+00 0. -1.
          2   -1    0    0  501    0 -0.00000000000E+00 -0.00000000000E+00 -0.10654120555E+03  0.10654120555E+03  0.00000000000E+00 0. -1.
    9000006    2    1    2  501    0  0.00000000000E+00  0.00000000000E+00  0.89345879445E+03  0.11065412055E+04  0.65281300707E+03 0.  0.
         13    1    3    3    0    0  0.19419718066E+03 -0.18068782676E+03  0.12431346589E+03  0.29294107517E+03  0.00000000000E+00 0. -1.
          2    1    3    3  501    0 -0.19419718066E+03  0.18068782676E+03  0.76914532856E+03  0.81360013038E+03  0.00000000000E+00 0. -1.
<mgrwt>
<rscale>  0 0.65281301E+03</rscale>
<asrwt>0</asrwt>
<pdfrwt beam="1">0</pdfrwt>
<pdfrwt beam="2">  1        2 0.38742338E+00 0.65281301E+03</pdfrwt>
<totfact> 0.44363197E+00</totfact>
</mgrwt>
</event>
<event>
 5    1  0.2366700E-004  0.6663837E+03  0.7818608E-02  0.9776513E-01
         13   -1    0    0    0    0  0.00000000000E+00  0.00000000000E+00  0.10000000000E+04  0.10000000000E+04  0.00000000000E+00 0. -1.
          2   -1    0    0  501    0 -0.00000000000E+00 -0.00000000000E+00 -0.11101681004E+03  0.11101681004E+03  0.00000000000E+00 0. -1.
    9000006    2    1    2  501    0  0.00000000000E+00  0.00000000000E+00  0.88898318996E+03  0.11110168100E+04  0.66638370341E+03 0.  0.
         13    1    3    3    0    0  0.21288064907E+03 -0.25378514295E+03  0.50441326417E+03  0.60345489525E+03  0.00000000000E+00 0. -1.
          2    1    3    3  501    0 -0.21288064907E+03  0.25378514295E+03  0.38456992578E+03  0.50756191479E+03  0.00000000000E+00 0. -1.
<mgrwt>
<rscale>  0 0.66638370E+03</rscale>
<asrwt>0</asrwt>
<pdfrwt beam="1">0</pdfrwt>
<pdfrwt beam="2">  1        2 0.40369834E+00 0.66638370E+03</pdfrwt>
<totfact> 0.38524142E+00</totfact>
</mgrwt>
</event>
<event>
 5    1  0.2366700E-004  0.5533323E+03  0.7818608E-02  0.1000726E+00
         13   -1    0    0    0    0  0.00000000000E+00  0.00000000000E+00  0.10000000000E+04  0.10000000000E+04  0.00000000000E+00 0. -1.
          2   -1    0    0  501    0 -0.00000000000E+00 -0.00000000000E+00 -0.76544146832E+02  0.76544146832E+02  0.00000000000E+00 0. -1.
    9000006    2    1    2  501    0  0.00000000000E+00  0.00000000000E+00  0.92345585317E+03  0.10765441468E+04  0.55333225763E+03 0.  0.
         13    1    3    3    0    0 -0.11671529172E+03  0.42901859555E+02  0.94256654833E+03  0.95073378341E+03  0.00000000000E+00 0. -1.
          2    1    3    3  501    0  0.11671529172E+03 -0.42901859555E+02 -0.19110695167E+02  0.12581036342E+03  0.00000000000E+00 0. -1.
<mgrwt>
<rscale>  0 0.55333226E+03</rscale>
<asrwt>0</asrwt>
<pdfrwt beam="1">0</pdfrwt>
<pdfrwt beam="2">  1        2 0.27834294E+00 0.55333226E+03</pdfrwt>
<totfact> 0.11034043E+01</totfact>
</mgrwt>
</event>
<event>
 5    1  0.2366700E-004  0.6519386E+03  0.7818608E-02  0.9803148E-01
         13   -1    0    0    0    0  0.00000000000E+00  0.00000000000E+00  0.10000000000E+04  0.10000000000E+04  0.00000000000E+00 0. -1.
          2   -1    0    0  501    0 -0.00000000000E+00 -0.00000000000E+00 -0.10625597031E+03  0.10625597031E+03  0.00000000000E+00 0. -1.
    9000006    2    1    2  501    0  0.00000000000E+00  0.00000000000E+00  0.89374402969E+03  0.11062559703E+04  0.65193855635E+03 0.  0.
         13    1    3    3    0    0  0.28727192213E+03  0.53718913120E+02  0.20188060134E+03  0.35519945956E+03  0.00000000000E+00 0. -1.
          2    1    3    3  501    0 -0.28727192213E+03 -0.53718913120E+02  0.69186342834E+03  0.75105651076E+03  0.00000000000E+00 0. -1.
<mgrwt>
<rscale>  0 0.65193856E+03</rscale>
<asrwt>0</asrwt>
<pdfrwt beam="1">0</pdfrwt>
<pdfrwt beam="2">  1        2 0.38638616E+00 0.65193856E+03</pdfrwt>
<totfact> 0.44761087E+00</totfact>
</mgrwt>
</event>
<event>
 5    1  0.2366700E-004  0.5578094E+03  0.7818608E-02  0.9997024E-01
         13   -1    0    0    0    0  0.00000000000E+00  0.00000000000E+00  0.10000000000E+04  0.10000000000E+04  0.00000000000E+00 0. -1.
          2   -1    0    0  501    0 -0.00000000000E+00 -0.00000000000E+00 -0.77787826987E+02  0.77787826987E+02  0.00000000000E+00 0. -1.
    9000006    2    1    2  501    0  0.00000000000E+00  0.00000000000E+00  0.92221217301E+03  0.10777878270E+04  0.55780938317E+03 0.  0.
         13    1    3    3    0    0 -0.30716713304E+02 -0.20766672497E+03  0.81590622724E+03  0.84247964770E+03  0.00000000000E+00 0. -1.
          4    1    3    3  501    0  0.30716713304E+02  0.20766672497E+03  0.10630594577E+03  0.23530817929E+03  0.00000000000E+00 0. -1.
<mgrwt>
<rscale>  0 0.55780938E+03</rscale>
<asrwt>0</asrwt>
<pdfrwt beam="1">0</pdfrwt>
<pdfrwt beam="2">  1        2 0.28286542E+00 0.55780938E+03</pdfrwt>
<totfact> 0.10631050E+01</totfact>
</mgrwt>
</event>
<event>
 5    1  0.2366700E-004  0.6535540E+03  0.7818608E-02  0.9800133E-01
         13   -1    0    0    0    0  0.00000000000E+00  0.00000000000E+00  0.10000000000E+04  0.10000000000E+04  0.00000000000E+00 0. -1.
          2   -1    0    0  501    0 -0.00000000000E+00 -0.00000000000E+00 -0.10678321509E+03  0.10678321509E+03  0.00000000000E+00 0. -1.
    9000006    2    1    2  501    0  0.00000000000E+00  0.00000000000E+00  0.89321678491E+03  0.11067832151E+04  0.65355402254E+03 0.  0.
         13    1    3    3    0    0  0.28791658698E+03  0.11234547226E+03  0.62635516692E+03  0.69845419415E+03  0.00000000000E+00 0. -1.
          2    1    3    3  501    0 -0.28791658698E+03 -0.11234547226E+03  0.26686161798E+03  0.40832902095E+03  0.00000000000E+00 0. -1.
<mgrwt>
<rscale>  0 0.65355402E+03</rscale>
<asrwt>0</asrwt>
<pdfrwt beam="1">0</pdfrwt>
<pdfrwt beam="2">  1        2 0.38830342E+00 0.65355402E+03</pdfrwt>
<totfact> 0.44028119E+00</totfact>
</mgrwt>
</event>
<event>
 5    1  0.2366700E-004  0.6495817E+03  0.7818608E-02  0.9807564E-01
         13   -1    0    0    0    0  0.00000000000E+00  0.00000000000E+00  0.10000000000E+04  0.10000000000E+04  0.00000000000E+00 0. -1.
          2   -1    0    0  501    0 -0.00000000000E+00 -0.00000000000E+00 -0.10548909201E+03  0.10548909201E+03  0.00000000000E+00 0. -1.
    9000006    2    1    2  501    0  0.00000000000E+00  0.00000000000E+00  0.89451090799E+03  0.11054890920E+04  0.64958168696E+03 0.  0.
         13    1    3    3    0    0 -0.18709827852E+03  0.12593091834E+02 -0.40543388227E+01  0.18756542712E+03  0.00000000000E+00 0. -1.
          2    1    3    3  501    0  0.18709827852E+03 -0.12593091834E+02  0.89856524681E+03  0.91792366489E+03  0.00000000000E+00 0. -1.
<mgrwt>
<rscale>  0 0.64958169E+03</rscale>
<asrwt>0</asrwt>
<pdfrwt beam="1">0</pdfrwt>
<pdfrwt beam="2">  1        2 0.38359751E+00 0.64958169E+03</pdfrwt>
<totfact> 0.45846933E+00</totfact>
</mgrwt>
</event>
<event>
 5    1  0.2366700E-004  0.6946803E+03  0.7818608E-02  0.9726373E-01
         13   -1    0    0    0    0  0.00000000000E+00  0.00000000000E+00  0.10000000000E+04  0.10000000000E+04  0.00000000000E+00 0. -1.
          2   -1    0    0  501    0 -0.00000000000E+00 -0.00000000000E+00 -0.12064517784E+03  0.12064517784E+03  0.00000000000E+00 0. -1.
    9000006    2    1    2  501    0  0.00000000000E+00  0.00000000000E+00  0.87935482216E+03  0.11206451778E+04  0.69468029434E+03 0.  0.
         13    1    3    3    0    0  0.26730131481E+03  0.97754323584E+02  0.11849924777E+03  0.30829851183E+03  0.00000000000E+00 0. -1.
          2    1    3    3  501    0 -0.26730131481E+03 -0.97754323584E+02  0.76085557440E+03  0.81234666600E+03  0.00000000000E+00 0. -1.
<mgrwt>
<rscale>  0 0.69468029E+03</rscale>
<asrwt>0</asrwt>
<pdfrwt beam="1">0</pdfrwt>
<pdfrwt beam="2">  1        2 0.43871066E+00 0.69468029E+03</pdfrwt>
<totfact> 0.28226610E+00</totfact>
</mgrwt>
</event>
<event>
 5    1  0.2366700E-004  0.6447945E+03  0.7818608E-02  0.9816596E-01
         13   -1    0    0    0    0  0.00000000000E+00  0.00000000000E+00  0.10000000000E+04  0.10000000000E+04  0.00000000000E+00 0. -1.
          2   -1    0    0  501    0 -0.00000000000E+00 -0.00000000000E+00 -0.10393999435E+03  0.10393999435E+03  0.00000000000E+00 0. -1.
    9000006    2    1    2  501    0  0.00000000000E+00  0.00000000000E+00  0.89606000565E+03  0.11039399944E+04  0.64479452341E+03 0.  0.
         13    1    3    3    0    0  0.23861036473E+03  0.21631523639E+03  0.47300565158E+03  0.57224254829E+03  0.00000000000E+00 0. -1.
          4    1    3    3  501    0 -0.23861036473E+03 -0.21631523639E+03  0.42305435407E+03  0.53169744606E+03  0.00000000000E+00 0. -1.
<mgrwt>
<rscale>  0 0.64479452E+03</rscale>
<asrwt>0</asrwt>
<pdfrwt beam="1">0</pdfrwt>
<pdfrwt beam="2">  1        2 0.37796441E+00 0.64479452E+03</pdfrwt>
<totfact> 0.48113651E+00</totfact>
</mgrwt>
</event>
<event>
 5    1  0.2366700E-004  0.6546641E+03  0.7818608E-02  0.9798066E-01
         13   -1    0    0    0    0  0.00000000000E+00  0.00000000000E+00  0.10000000000E+04  0.10000000000E+04  0.00000000000E+00 0. -1.
          2   -1    0    0  501    0 -0.00000000000E+00 -0.00000000000E+00 -0.10714628650E+03  0.10714628650E+03  0.00000000000E+00 0. -1.
    9000006    2    1    2  501    0  0.00000000000E+00  0.00000000000E+00  0.89285371350E+03  0.11071462865E+04  0.65466414747E+03 0.  0.
         13    1    3    3    0    0 -0.24756956368E+03 -0.21345083859E+03  0.41741276484E+03  0.53017484437E+03  0.00000000000E+00 0. -1.
          2    1    3    3  501    0  0.24756956368E+03  0.21345083859E+03  0.47544094867E+03  0.57697144212E+03  0.00000000000E+00 0. -1.
<mgrwt>
<rscale>  0 0.65466415E+03</rscale>
<asrwt>0</asrwt>
<pdfrwt beam="1">0</pdfrwt>
<pdfrwt beam="2">  1        2 0.38962368E+00 0.65466415E+03</pdfrwt>
<totfact> 0.43529716E+00</totfact>
</mgrwt>
</event>
<event>
 5    1  0.2366700E-004  0.6519054E+03  0.7818608E-02  0.9803210E-01
         13   -1    0    0    0    0  0.00000000000E+00  0.00000000000E+00  0.10000000000E+04  0.10000000000E+04  0.00000000000E+00 0. -1.
          2   -1    0    0  501    0 -0.00000000000E+00 -0.00000000000E+00 -0.10624517881E+03  0.10624517881E+03  0.00000000000E+00 0. -1.
    9000006    2    1    2  501    0  0.00000000000E+00  0.00000000000E+00  0.89375482119E+03  0.11062451788E+04  0.65190544962E+03 0.  0.
         13    1    3    3    0    0 -0.14497769030E+03  0.22470845192E+03  0.76313170076E+03  0.80862995971E+03  0.00000000000E+00 0. -1.
          2    1    3    3  501    0  0.14497769030E+03 -0.22470845192E+03  0.13062312043E+03  0.29761521910E+03  0.00000000000E+00 0. -1.
<mgrwt>
<rscale>  0 0.65190545E+03</rscale>
<asrwt>0</asrwt>
<pdfrwt beam="1">0</pdfrwt>
<pdfrwt beam="2">  1        2 0.38634692E+00 0.65190545E+03</pdfrwt>
<totfact> 0.44776204E+00</totfact>
</mgrwt>
</event>
<event>
 5    1  0.2366700E-004  0.6995192E+03  0.7818608E-02  0.9718055E-01
         13   -1    0    0    0    0  0.00000000000E+00  0.00000000000E+00  0.10000000000E+04  0.10000000000E+04  0.00000000000E+00 0. -1.
          2   -1    0    0  501    0 -0.00000000000E+00 -0.00000000000E+00 -0.12233178557E+03  0.12233178557E+03  0.00000000000E+00 0. -1.
    9000006    2    1    2  501    0  0.00000000000E+00  0.00000000000E+00  0.87766821443E+03  0.11223317856E+04  0.69951922224E+03 0.  0.
         13    1    3    3    0    0 -0.43332847732E+02 -0.14795439609E+03 -0.64874962447E+02  0.16726326484E+03  0.00000000000E+00 0. -1.
          2    1    3    3  501    0  0.43332847732E+02  0.14795439609E+03  0.94254317687E+03  0.95506852073E+03  0.00000000000E+00 0. -1.
<mgrwt>
<rscale>  0 0.69951922E+03</rscale>
<asrwt>0</asrwt>
<pdfrwt beam="1">0</pdfrwt>
<pdfrwt beam="2">  1        2 0.44484379E+00 0.69951922E+03</pdfrwt>
<totfact> 0.26698342E+00</totfact>
</mgrwt>
</event>
<event>
 5    1  0.2366700E-004  0.6465954E+03  0.7818608E-02  0.9813189E-01
         13   -1    0    0    0    0  0.00000000000E+00  0.00000000000E+00  0.10000000000E+04  0.10000000000E+04  0.00000000000E+00 0. -1.
          2   -1    0    0  501    0 -0.00000000000E+00 -0.00000000000E+00 -0.10452141042E+03  0.10452141042E+03  0.00000000000E+00 0. -1.
    9000006    2    1    2  501    0  0.00000000000E+00  0.00000000000E+00  0.89547858958E+03  0.11045214104E+04  0.64659542349E+03 0.  0.
         13    1    3    3    0    0 -0.25484587450E+03 -0.19083797896E+03  0.54370148085E+03  0.63006099248E+03  0.00000000000E+00 0. -1.
          2    1    3    3  501    0  0.25484587450E+03  0.19083797896E+03  0.35177710873E+03  0.47446041794E+03  0.00000000000E+00 0. -1.
<mgrwt>
<rscale>  0 0.64659542E+03</rscale>
<asrwt>0</asrwt>
<pdfrwt beam="1">0</pdfrwt>
<pdfrwt beam="2">  1        2 0.38007866E+00 0.64659542E+03</pdfrwt>
<totfact> 0.47251210E+00</totfact>
</mgrwt>
</event>
<event>
 5    1  0.2366700E-004  0.6258127E+03  0.7818608E-02  0.9853254E-01
         13   -1    0    0    0    0  0.00000000000E+00  0.00000000000E+00  0.10000000000E+04  0.10000000000E+04  0.00000000000E+00 0. -1.
          2   -1    0    0  501    0 -0.00000000000E+00 -0.00000000000E+00 -0.97910393581E+02  0.97910393581E+02  0.00000000000E+00 0. -1.
    9000006    2    1    2  501    0  0.00000000000E+00  0.00000000000E+00  0.90208960642E+03  0.10979103936E+04  0.62581273103E+03 0.  0.
         13    1    3    3    0    0 -0.43874068422E+02  0.12589081477E+03 -0.45592047131E+02  0.14089735940E+03  0.00000000000E+00 0. -1.
          4    1    3    3  501    0  0.43874068422E+02 -0.12589081477E+03  0.94768165355E+03  0.95701303418E+03  0.00000000000E+00 0. -1.
<mgrwt>
<rscale>  0 0.62581273E+03</rscale>
<asrwt>0</asrwt>
<pdfrwt beam="1">0</pdfrwt>
<pdfrwt beam="2">  1        2 0.35603855E+00 0.62581273E+03</pdfrwt>
<totfact> 0.57948492E+00</totfact>
</mgrwt>
</event>
<event>
 5    1  0.2366700E-004  0.6020888E+03  0.7818608E-02  0.9901082E-01
         13   -1    0    0    0    0  0.00000000000E+00  0.00000000000E+00  0.10000000000E+04  0.10000000000E+04  0.00000000000E+00 0. -1.
          2   -1    0    0  501    0 -0.00000000000E+00 -0.00000000000E+00 -0.90627726345E+02  0.90627726345E+02  0.00000000000E+00 0. -1.
    9000006    2    1    2  501    0  0.00000000000E+00  0.00000000000E+00  0.90937227366E+03  0.10906277263E+04  0.60208878530E+03 0.  0.
         13    1    3    3    0    0 -0.10181157520E+03 -0.25160948306E+03  0.21882178877E+03  0.34864868285E+03  0.00000000000E+00 0. -1.
          4    1    3    3  501    0  0.10181157520E+03  0.25160948306E+03  0.69055048488E+03  0.74197904349E+03  0.00000000000E+00 0. -1.
<mgrwt>
<rscale>  0 0.60208879E+03</rscale>
<asrwt>0</asrwt>
<pdfrwt beam="1">0</pdfrwt>
<pdfrwt beam="2">  1        2 0.32955606E+00 0.60208879E+03</pdfrwt>
<totfact> 0.72309594E+00</totfact>
</mgrwt>
</event>
<event>
 5    1  0.2366700E-004  0.6217671E+03  0.7818608E-02  0.9861248E-01
         13   -1    0    0    0    0  0.00000000000E+00  0.00000000000E+00  0.10000000000E+04  0.10000000000E+04  0.00000000000E+00 0. -1.
          2   -1    0    0  501    0 -0.00000000000E+00 -0.00000000000E+00 -0.96648590261E+02  0.96648590261E+02  0.00000000000E+00 0. -1.
    9000006    2    1    2  501    0  0.00000000000E+00  0.00000000000E+00  0.90335140974E+03  0.10966485903E+04  0.62176712766E+03 0.  0.
         13    1    3    3    0    0 -0.80550765384E+00  0.27976130587E+03  0.21254748580E+03  0.35134523026E+03  0.00000000000E+00 0. -1.
          2    1    3    3  501    0  0.80550765384E+00 -0.27976130587E+03  0.69080392394E+03  0.74530336000E+03  0.00000000000E+00 0. -1.
<mgrwt>
<rscale>  0 0.62176713E+03</rscale>
<asrwt>0</asrwt>
<pdfrwt beam="1">0</pdfrwt>
<pdfrwt beam="2">  1        2 0.35145016E+00 0.62176713E+03</pdfrwt>
<totfact> 0.60228339E+00</totfact>
</mgrwt>
</event>
<event>
 5    1  0.2366700E-004  0.6509975E+03  0.7818608E-02  0.9804909E-01
         13   -1    0    0    0    0  0.00000000000E+00  0.00000000000E+00  0.10000000000E+04  0.10000000000E+04  0.00000000000E+00 0. -1.
          2   -1    0    0  501    0 -0.00000000000E+00 -0.00000000000E+00 -0.10594943457E+03  0.10594943457E+03  0.00000000000E+00 0. -1.
    9000006    2    1    2  501    0  0.00000000000E+00  0.00000000000E+00  0.89405056543E+03  0.11059494346E+04  0.65099749484E+03 0.  0.
         13    1    3    3    0    0  0.70669706545E+01  0.85108840362E+02 -0.86576972280E+02  0.12161015135E+03  0.00000000000E+00 0. -1.
          4    1    3    3  501    0 -0.70669706545E+01 -0.85108840362E+02  0.98062753771E+03  0.98433928322E+03  0.00000000000E+00 0. -1.
<mgrwt>
<rscale>  0 0.65099749E+03</rscale>
<asrwt>0</asrwt>
<pdfrwt beam="1">0</pdfrwt>
<pdfrwt beam="2">  1        2 0.38527148E+00 0.65099749E+03</pdfrwt>
<totfact> 0.45192291E+00</totfact>
</mgrwt>
</event>
<event>
 5    1  0.2366700E-004  0.6707583E+03  0.7818608E-02  0.9768589E-01
         13   -1    0    0    0    0  0.00000000000E+00  0.00000000000E+00  0.10000000000E+04  0.10000000000E+04  0.00000000000E+00 0. -1.
          2   -1    0    0  501    0 -0.00000000000E+00 -0.00000000000E+00 -0.11247915970E+03  0.11247915970E+03  0.00000000000E+00 0. -1.
    9000006    2    1    2  501    0  0.00000000000E+00  0.00000000000E+00  0.88752084030E+03  0.11124791597E+04  0.67075825660E+03 0.  0.
         13    1    3    3    0    0 -0.10560165064E+03  0.10227177971E+01  0.97170358826E+03  0.97742550509E+03  0.00000000000E+00 0. -1.
          2    1    3    3  501    0  0.10560165064E+03 -0.10227177971E+01 -0.84182747957E+02  0.13505365461E+03  0.00000000000E+00 0. -1.
<mgrwt>
<rscale>  0 0.67075826E+03</rscale>
<asrwt>0</asrwt>
<pdfrwt beam="1">0</pdfrwt>
<pdfrwt beam="2">  1        2 0.40901599E+00 0.67075826E+03</pdfrwt>
<totfact> 0.36771811E+00</totfact>
</mgrwt>
</event>
<event>
 5    1  0.2366700E-004  0.6425660E+03  0.7818608E-02  0.9820829E-01
         13   -1    0    0    0    0  0.00000000000E+00  0.00000000000E+00  0.10000000000E+04  0.10000000000E+04  0.00000000000E+00 0. -1.
          2   -1    0    0  501    0 -0.00000000000E+00 -0.00000000000E+00 -0.10322277403E+03  0.10322277403E+03  0.00000000000E+00 0. -1.
    9000006    2    1    2  501    0  0.00000000000E+00  0.00000000000E+00  0.89677722597E+03  0.11032227740E+04  0.64256602472E+03 0.  0.
         13    1    3    3    0    0 -0.31615178769E+03 -0.39313770497E+02  0.37707518643E+03  0.49364280773E+03  0.00000000000E+00 0. -1.
          4    1    3    3  501    0  0.31615178769E+03  0.39313770497E+02  0.51970203954E+03  0.60957996630E+03  0.00000000000E+00 0. -1.
<mgrwt>
<rscale>  0 0.64256602E+03</rscale>
<asrwt>0</asrwt>
<pdfrwt beam="1">0</pdfrwt>
<pdfrwt beam="2">  1        2 0.37535633E+00 0.64256602E+03</pdfrwt>
<totfact> 0.49197303E+00</totfact>
</mgrwt>
</event>
<event>
 5    1  0.2366700E-004  0.6394931E+03  0.7818608E-02  0.9826697E-01
         13   -1    0    0    0    0  0.00000000000E+00  0.00000000000E+00  0.10000000000E+04  0.10000000000E+04  0.00000000000E+00 0. -1.
          2   -1    0    0  501    0 -0.00000000000E+00 -0.00000000000E+00 -0.10223786534E+03  0.10223786534E+03  0.00000000000E+00 0. -1.
    9000006    2    1    2  501    0  0.00000000000E+00  0.00000000000E+00  0.89776213466E+03  0.11022378653E+04  0.63949312848E+03 0.  0.
         13    1    3    3    0    0 -0.29640283617E+03  0.11201505228E+03  0.37502974237E+03  0.49096773916E+03  0.00000000000E+00 0. -1.
          2    1    3    3  501    0  0.29640283617E+03 -0.11201505228E+03  0.52273239228E+03  0.61127012619E+03  0.00000000000E+00 0. -1.
<mgrwt>
<rscale>  0 0.63949313E+03</rscale>
<asrwt>0</asrwt>
<pdfrwt beam="1">0</pdfrwt>
<pdfrwt beam="2">  1        2 0.37177484E+00 0.63949313E+03</pdfrwt>
<totfact> 0.50721876E+00</totfact>
</mgrwt>
</event>
<event>
 5    1  0.2366700E-004  0.6530238E+03  0.7818608E-02  0.9801122E-01
         13   -1    0    0    0    0  0.00000000000E+00  0.00000000000E+00  0.10000000000E+04  0.10000000000E+04  0.00000000000E+00 0. -1.
          2   -1    0    0  501    0 -0.00000000000E+00 -0.00000000000E+00 -0.10661002912E+03  0.10661002912E+03  0.00000000000E+00 0. -1.
    9000006    2    1    2  501    0  0.00000000000E+00  0.00000000000E+00  0.89338997088E+03  0.11066100291E+04  0.65302382537E+03 0.  0.
         13    1    3    3    0    0 -0.24384083457E+03  0.96759580922E+02  0.11727513240E+03  0.28735731378E+03  0.00000000000E+00 0. -1.
          4    1    3    3  501    0  0.24384083457E+03 -0.96759580922E+02  0.77611483848E+03  0.81925271535E+03  0.00000000000E+00 0. -1.
<mgrwt>
<rscale>  0 0.65302383E+03</rscale>
<asrwt>0</asrwt>
<pdfrwt beam="1">0</pdfrwt>
<pdfrwt beam="2">  1        2 0.38767365E+00 0.65302383E+03</pdfrwt>
<totfact> 0.44267673E+00</totfact>
</mgrwt>
</event>
<event>
 5    1  0.2366700E-004  0.6472695E+03  0.7818608E-02  0.9811916E-01
         13   -1    0    0    0    0  0.00000000000E+00  0.00000000000E+00  0.10000000000E+04  0.10000000000E+04  0.00000000000E+00 0. -1.
          2   -1    0    0  501    0 -0.00000000000E+00 -0.00000000000E+00 -0.10473945168E+03  0.10473945168E+03  0.00000000000E+00 0. -1.
    9000006    2    1    2  501    0  0.00000000000E+00  0.00000000000E+00  0.89526054832E+03  0.11047394517E+04  0.64726950085E+03 0.  0.
         13    1    3    3    0    0 -0.43241069338E+02 -0.32001539718E+03  0.48422871562E+03  0.58202843018E+03  0.00000000000E+00 0. -1.
          4    1    3    3  501    0  0.43241069338E+02  0.32001539718E+03  0.41103183270E+03  0.52271102150E+03  0.00000000000E+00 0. -1.
<mgrwt>
<rscale>  0 0.64726950E+03</rscale>
<asrwt>0</asrwt>
<pdfrwt beam="1">0</pdfrwt>
<pdfrwt beam="2">  1        2 0.38087154E+00 0.64726950E+03</pdfrwt>
<totfact> 0.46931425E+00</totfact>
</mgrwt>
</event>
<event>
 5    1  0.2366700E-004  0.6547173E+03  0.7818608E-02  0.9797968E-01
         13   -1    0    0    0    0  0.00000000000E+00  0.00000000000E+00  0.10000000000E+04  0.10000000000E+04  0.00000000000E+00 0. -1.
          2   -1    0    0  501    0 -0.00000000000E+00 -0.00000000000E+00 -0.10716368417E+03  0.10716368417E+03  0.00000000000E+00 0. -1.
    9000006    2    1    2  501    0  0.00000000000E+00  0.00000000000E+00  0.89283631583E+03  0.11071636842E+04  0.65471729524E+03 0.  0.
         13    1    3    3    0    0  0.16124112750E+03 -0.73168619116E+02  0.91203115439E+03  0.92906037188E+03  0.00000000000E+00 0. -1.
          4    1    3    3  501    0 -0.16124112750E+03  0.73168619116E+02 -0.19194838565E+02  0.17810331229E+03  0.00000000000E+00 0. -1.
<mgrwt>
<rscale>  0 0.65471730E+03</rscale>
<asrwt>0</asrwt>
<pdfrwt beam="1">0</pdfrwt>
<pdfrwt beam="2">  1        2 0.38968695E+00 0.65471730E+03</pdfrwt>
<totfact> 0.43505962E+00</totfact>
</mgrwt>
</event>
<event>
 5    1  0.2366700E-004  0.6525462E+03  0.7818608E-02  0.9802013E-01
         13   -1    0    0    0    0  0.00000000000E+00  0.00000000000E+00  0.10000000000E+04  0.10000000000E+04  0.00000000000E+00 0. -1.
          2   -1    0    0  501    0 -0.00000000000E+00 -0.00000000000E+00 -0.10645414603E+03  0.10645414603E+03  0.00000000000E+00 0. -1.
    9000006    2    1    2  501    0  0.00000000000E+00  0.00000000000E+00  0.89354585397E+03  0.11064541460E+04  0.65254623140E+03 0.  0.
         13    1    3    3    0    0 -0.25977527109E+03 -0.85484264212E+02  0.74849068707E+03  0.79688710589E+03  0.00000000000E+00 0. -1.
          2    1    3    3  501    0  0.25977527109E+03  0.85484264212E+02  0.14505516690E+03  0.30956704014E+03  0.00000000000E+00 0. -1.
<mgrwt>
<rscale>  0 0.65254623E+03</rscale>
<asrwt>0</asrwt>
<pdfrwt beam="1">0</pdfrwt>
<pdfrwt beam="2">  1        2 0.38710680E+00 0.65254623E+03</pdfrwt>
<totfact> 0.44484300E+00</totfact>
</mgrwt>
</event>
<event>
 5    1  0.2366700E-004  0.6442225E+03  0.7818608E-02  0.9817681E-01
         13   -1    0    0    0    0  0.00000000000E+00  0.00000000000E+00  0.10000000000E+04  0.10000000000E+04  0.00000000000E+00 0. -1.
          2   -1    0    0  501    0 -0.00000000000E+00 -0.00000000000E+00 -0.10375564368E+03  0.10375564368E+03  0.00000000000E+00 0. -1.
    9000006    2    1    2  501    0  0.00000000000E+00  0.00000000000E+00  0.89624435632E+03  0.11037556437E+04  0.64422245747E+03 0.  0.
         13    1    3    3    0    0  0.11700411697E+03 -0.27425291653E+03  0.65691482038E+03  0.72141645868E+03  0.00000000000E+00 0. -1.
          4    1    3    3  501    0 -0.11700411697E+03  0.27425291653E+03  0.23932953594E+03  0.38233918500E+03  0.00000000000E+00 0. -1.
<mgrwt>
<rscale>  0 0.64422246E+03</rscale>
<asrwt>0</asrwt>
<pdfrwt beam="1">0</pdfrwt>
<pdfrwt beam="2">  1        2 0.37729405E+00 0.64422246E+03</pdfrwt>
<totfact> 0.48390087E+00</totfact>
</mgrwt>
</event>
<event>
 5    1  0.2366700E-004  0.6541509E+03  0.7818608E-02  0.9799021E-01
         13   -1    0    0    0    0  0.00000000000E+00  0.00000000000E+00  0.10000000000E+04  0.10000000000E+04  0.00000000000E+00 0. -1.
          2   -1    0    0  501    0 -0.00000000000E+00 -0.00000000000E+00 -0.10697834961E+03  0.10697834961E+03  0.00000000000E+00 0. -1.
    9000006    2    1    2  501    0  0.00000000000E+00  0.00000000000E+00  0.89302165039E+03  0.11069783496E+04  0.65415089882E+03 0.  0.
         13    1    3    3    0    0  0.86778629886E+02  0.68078261729E+01  0.98003928834E+03  0.98389729332E+03  0.00000000000E+00 0. -1.
          2    1    3    3  501    0 -0.86778629886E+02 -0.68078261729E+01 -0.87017637950E+02  0.12308105629E+03  0.00000000000E+00 0. -1.
<mgrwt>
<rscale>  0 0.65415090E+03</rscale>
<asrwt>0</asrwt>
<pdfrwt beam="1">0</pdfrwt>
<pdfrwt beam="2">  1        2 0.38901300E+00 0.65415090E+03</pdfrwt>
<totfact> 0.43759613E+00</totfact>
</mgrwt>
</event>
<event>
 5    1  0.2366700E-004  0.6972185E+03  0.7818608E-02  0.9722001E-01
         13   -1    0    0    0    0  0.00000000000E+00  0.00000000000E+00  0.10000000000E+04  0.10000000000E+04  0.00000000000E+00 0. -1.
          2   -1    0    0  501    0 -0.00000000000E+00 -0.00000000000E+00 -0.12152841519E+03  0.12152841519E+03  0.00000000000E+00 0. -1.
    9000006    2    1    2  501    0  0.00000000000E+00  0.00000000000E+00  0.87847158481E+03  0.11215284152E+04  0.69721851721E+03 0.  0.
         13    1    3    3    0    0 -0.31511864143E+03  0.32241205631E+01  0.19946492692E+03  0.37295631139E+03  0.00000000000E+00 0. -1.
          4    1    3    3  501    0  0.31511864143E+03 -0.32241205631E+01  0.67900665789E+03  0.74857210380E+03  0.00000000000E+00 0. -1.
<mgrwt>
<rscale>  0 0.69721852E+03</rscale>
<asrwt>0</asrwt>
<pdfrwt beam="1">0</pdfrwt>
<pdfrwt beam="2">  1        2 0.44192244E+00 0.69721852E+03</pdfrwt>
<totfact> 0.27416994E+00</totfact>
</mgrwt>
</event>
<event>
 5    1  0.2366700E-004  0.6200696E+03  0.7818608E-02  0.9864621E-01
         13   -1    0    0    0    0  0.00000000000E+00  0.00000000000E+00  0.10000000000E+04  0.10000000000E+04  0.00000000000E+00 0. -1.
          2   -1    0    0  501    0 -0.00000000000E+00 -0.00000000000E+00 -0.96121588787E+02  0.96121588787E+02  0.00000000000E+00 0. -1.
    9000006    2    1    2  501    0  0.00000000000E+00  0.00000000000E+00  0.90387841121E+03  0.10961215888E+04  0.62006963734E+03 0.  0.
         13    1    3    3    0    0 -0.28063379883E+03 -0.12202848816E+03  0.53988860383E+03  0.62058519602E+03  0.00000000000E+00 0. -1.
          4    1    3    3  501    0  0.28063379883E+03  0.12202848816E+03  0.36398980738E+03  0.47553639277E+03  0.00000000000E+00 0. -1.
<mgrwt>
<rscale>  0 0.62006964E+03</rscale>
<asrwt>0</asrwt>
<pdfrwt beam="1">0</pdfrwt>
<pdfrwt beam="2">  1        2 0.34953379E+00 0.62006964E+03</pdfrwt>
<totfact> 0.61204990E+00</totfact>
</mgrwt>
</event>
<event>
 5    1  0.2366700E-004  0.6391531E+03  0.7818608E-02  0.9827348E-01
         13   -1    0    0    0    0  0.00000000000E+00  0.00000000000E+00  0.10000000000E+04  0.10000000000E+04  0.00000000000E+00 0. -1.
          2   -1    0    0  501    0 -0.00000000000E+00 -0.00000000000E+00 -0.10212918687E+03  0.10212918687E+03  0.00000000000E+00 0. -1.
    9000006    2    1    2  501    0  0.00000000000E+00  0.00000000000E+00  0.89787081313E+03  0.11021291869E+04  0.63915314870E+03 0.  0.
         13    1    3    3    0    0  0.71218504180E+02  0.30913801406E+03  0.38235641179E+03  0.49682473037E+03  0.00000000000E+00 0. -1.
          2    1    3    3  501    0 -0.71218504180E+02 -0.30913801406E+03  0.51551440134E+03  0.60530445650E+03  0.00000000000E+00 0. -1.
<mgrwt>
<rscale>  0 0.63915315E+03</rscale>
<asrwt>0</asrwt>
<pdfrwt beam="1">0</pdfrwt>
<pdfrwt beam="2">  1        2 0.37137964E+00 0.63915315E+03</pdfrwt>
<totfact> 0.50892724E+00</totfact>
</mgrwt>
</event>
<event>
 5    1  0.2366700E-004  0.6640904E+03  0.7818608E-02  0.9780693E-01
         13   -1    0    0    0    0  0.00000000000E+00  0.00000000000E+00  0.10000000000E+04  0.10000000000E+04  0.00000000000E+00 0. -1.
          2   -1    0    0  501    0 -0.00000000000E+00 -0.00000000000E+00 -0.11025402131E+03  0.11025402131E+03  0.00000000000E+00 0. -1.
    9000006    2    1    2  501    0  0.00000000000E+00  0.00000000000E+00  0.88974597869E+03  0.11102540213E+04  0.66409041948E+03 0.  0.
         13    1    3    3    0    0  0.24816443258E+03 -0.21610209337E+03  0.37070045857E+03  0.49568591905E+03  0.00000000000E+00 0. -1.
          4    1    3    3  501    0 -0.24816443258E+03  0.21610209337E+03  0.51904552012E+03  0.61456810226E+03  0.00000000000E+00 0. -1.
<mgrwt>
<rscale>  0 0.66409042E+03</rscale>
<asrwt>0</asrwt>
<pdfrwt beam="1">0</pdfrwt>
<pdfrwt beam="2">  1        2 0.40092456E+00 0.66409042E+03</pdfrwt>
<totfact> 0.39467540E+00</totfact>
</mgrwt>
</event>
<event>
 5    1  0.2366700E-004  0.6502804E+03  0.7818608E-02  0.9806253E-01
         13   -1    0    0    0    0  0.00000000000E+00  0.00000000000E+00  0.10000000000E+04  0.10000000000E+04  0.00000000000E+00 0. -1.
          2   -1    0    0  501    0 -0.00000000000E+00 -0.00000000000E+00 -0.10571616406E+03  0.10571616406E+03  0.00000000000E+00 0. -1.
    9000006    2    1    2  501    0  0.00000000000E+00  0.00000000000E+00  0.89428383594E+03  0.11057161641E+04  0.65028044432E+03 0.  0.
         13    1    3    3    0    0  0.28773356895E+02 -0.24310562911E+03  0.81098856748E+03  0.84713086920E+03  0.00000000000E+00 0. -1.
          4    1    3    3  501    0 -0.28773356895E+02  0.24310562911E+03  0.83295268457E+02  0.25858529486E+03  0.00000000000E+00 0. -1.
<mgrwt>
<rscale>  0 0.65028044E+03</rscale>
<asrwt>0</asrwt>
<pdfrwt beam="1">0</pdfrwt>
<pdfrwt beam="2">  1        2 0.38442323E+00 0.65028044E+03</pdfrwt>
<totfact> 0.45522952E+00</totfact>
</mgrwt>
</event>
<event>
 5    1  0.2366700E-004  0.6479627E+03  0.7818608E-02  0.9810610E-01
         13   -1    0    0    0    0  0.00000000000E+00  0.00000000000E+00  0.10000000000E+04  0.10000000000E+04  0.00000000000E+00 0. -1.
          2   -1    0    0  501    0 -0.00000000000E+00 -0.00000000000E+00 -0.10496391286E+03  0.10496391286E+03  0.00000000000E+00 0. -1.
    9000006    2    1    2  501    0  0.00000000000E+00  0.00000000000E+00  0.89503608714E+03  0.11049639129E+04  0.64796269294E+03 0.  0.
         13    1    3    3    0    0 -0.27559072611E+03  0.68268121824E+02  0.18139929691E+03  0.33692208253E+03  0.00000000000E+00 0. -1.
          2    1    3    3  501    0  0.27559072611E+03 -0.68268121824E+02  0.71363679023E+03  0.76804183033E+03  0.00000000000E+00 0. -1.
<mgrwt>
<rscale>  0 0.64796269E+03</rscale>
<asrwt>0</asrwt>
<pdfrwt beam="1">0</pdfrwt>
<pdfrwt beam="2">  1        2 0.38168776E+00 0.64796269E+03</pdfrwt>
<totfact> 0.46604282E+00</totfact>
</mgrwt>
</event>
<event>
 5    1  0.2366700E-004  0.6516844E+03  0.7818608E-02  0.9803624E-01
         13   -1    0    0    0    0  0.00000000000E+00  0.00000000000E+00  0.10000000000E+04  0.10000000000E+04  0.00000000000E+00 0. -1.
          2   -1    0    0  501    0 -0.00000000000E+00 -0.00000000000E+00 -0.10617313732E+03  0.10617313732E+03  0.00000000000E+00 0. -1.
    9000006    2    1    2  501    0  0.00000000000E+00  0.00000000000E+00  0.89382686268E+03  0.11061731373E+04  0.65168439393E+03 0.  0.
         13    1    3    3    0    0  0.10291564635E+02 -0.19215499990E+02 -0.10493414817E+03  0.10717428421E+03  0.00000000000E+00 0. -1.
          2    1    3    3  501    0 -0.10291564635E+02  0.19215499990E+02  0.99876101085E+03  0.99899885312E+03  0.00000000000E+00 0. -1.
<mgrwt>
<rscale>  0 0.65168439E+03</rscale>
<asrwt>0</asrwt>
<pdfrwt beam="1">0</pdfrwt>
<pdfrwt beam="2">  1        2 0.38608495E+00 0.65168439E+03</pdfrwt>
<totfact> 0.44877239E+00</totfact>
</mgrwt>
</event>
<event>
 5    1  0.2366700E-004  0.6561758E+03  0.7818608E-02  0.9795259E-01
         13   -1    0    0    0    0  0.00000000000E+00  0.00000000000E+00  0.10000000000E+04  0.10000000000E+04  0.00000000000E+00 0. -1.
          2   -1    0    0  501    0 -0.00000000000E+00 -0.00000000000E+00 -0.10764167608E+03  0.10764167608E+03  0.00000000000E+00 0. -1.
    9000006    2    1    2  501    0  0.00000000000E+00  0.00000000000E+00  0.89235832392E+03  0.11076416761E+04  0.65617581813E+03 0.  0.
         13    1    3    3    0    0 -0.32653065716E+03  0.20469088539E+02  0.48754173226E+03  0.58714410015E+03  0.00000000000E+00 0. -1.
          2    1    3    3  501    0  0.32653065716E+03 -0.20469088539E+02  0.40481659167E+03  0.52049757592E+03  0.00000000000E+00 0. -1.
<mgrwt>
<rscale>  0 0.65617582E+03</rscale>
<asrwt>0</asrwt>
<pdfrwt beam="1">0</pdfrwt>
<pdfrwt beam="2">  1        2 0.39142510E+00 0.65617582E+03</pdfrwt>
<totfact> 0.42857901E+00</totfact>
</mgrwt>
</event>
<event>
 5    1  0.2366700E-004  0.6724810E+03  0.7818608E-02  0.9765486E-01
         13   -1    0    0    0    0  0.00000000000E+00  0.00000000000E+00  0.10000000000E+04  0.10000000000E+04  0.00000000000E+00 0. -1.
          2   -1    0    0  501    0 -0.00000000000E+00 -0.00000000000E+00 -0.11305766292E+03  0.11305766292E+03  0.00000000000E+00 0. -1.
    9000006    2    1    2  501    0  0.00000000000E+00  0.00000000000E+00  0.88694233708E+03  0.11130576629E+04  0.67248096753E+03 0.  0.
         13    1    3    3    0    0 -0.29230442510E+03  0.10910361179E+03  0.23600083830E+03  0.39120566294E+03  0.00000000000E+00 0. -1.
          2    1    3    3  501    0  0.29230442510E+03 -0.10910361179E+03  0.65094149878E+03  0.72185199998E+03  0.00000000000E+00 0. -1.
<mgrwt>
<rscale>  0 0.67248097E+03</rscale>
<asrwt>0</asrwt>
<pdfrwt beam="1">0</pdfrwt>
<pdfrwt beam="2">  1        2 0.41111964E+00 0.67248097E+03</pdfrwt>
<totfact> 0.36098493E+00</totfact>
</mgrwt>
</event>
<event>
 5    1  0.2366700E-004  0.6801718E+03  0.7818608E-02  0.9751755E-01
         13   -1    0    0    0    0  0.00000000000E+00  0.00000000000E+00  0.10000000000E+04  0.10000000000E+04  0.00000000000E+00 0. -1.
          2   -1    0    0  501    0 -0.00000000000E+00 -0.00000000000E+00 -0.11565841433E+03  0.11565841433E+03  0.00000000000E+00 0. -1.
    9000006    2    1    2  501    0  0.00000000000E+00  0.00000000000E+00  0.88434158567E+03  0.11156584143E+04  0.68017178515E+03 0.  0.
         13    1    3    3    0    0 -0.32737151658E+03  0.65441313866E+02  0.33582250569E+03  0.47353081289E+03  0.00000000000E+00 0. -1.
          2    1    3    3  501    0  0.32737151658E+03 -0.65441313866E+02  0.54851907998E+03  0.64212760144E+03  0.00000000000E+00 0. -1.
<mgrwt>
<rscale>  0 0.68017179E+03</rscale>
<asrwt>0</asrwt>
<pdfrwt beam="1">0</pdfrwt>
<pdfrwt beam="2">  1        2 0.42057694E+00 0.68017179E+03</pdfrwt>
<totfact> 0.33205349E+00</totfact>
</mgrwt>
</event>
<event>
 5    1  0.2366700E-004  0.6697002E+03  0.7818608E-02  0.9770500E-01
         13   -1    0    0    0    0  0.00000000000E+00  0.00000000000E+00  0.10000000000E+04  0.10000000000E+04  0.00000000000E+00 0. -1.
          2   -1    0    0  501    0 -0.00000000000E+00 -0.00000000000E+00 -0.11212459959E+03  0.11212459959E+03  0.00000000000E+00 0. -1.
    9000006    2    1    2  501    0  0.00000000000E+00  0.00000000000E+00  0.88787540041E+03  0.11121245996E+04  0.66970023022E+03 0.  0.
         13    1    3    3    0    0  0.93774777407E+02 -0.27191500328E+03  0.15923220126E+03  0.32876491875E+03  0.00000000000E+00 0. -1.
          4    1    3    3  501    0 -0.93774777407E+02  0.27191500328E+03  0.72864319915E+03  0.78335968084E+03  0.00000000000E+00 0. -1.
<mgrwt>
<rscale>  0 0.66970023E+03</rscale>
<asrwt>0</asrwt>
<pdfrwt beam="1">0</pdfrwt>
<pdfrwt beam="2">  1        2 0.40772668E+00 0.66970023E+03</pdfrwt>
<totfact> 0.37190003E+00</totfact>
</mgrwt>
</event>
<event>
 5    1  0.2366700E-004  0.6347743E+03  0.7818608E-02  0.9835776E-01
         13   -1    0    0    0    0  0.00000000000E+00  0.00000000000E+00  0.10000000000E+04  0.10000000000E+04  0.00000000000E+00 0. -1.
          2   -1    0    0  501    0 -0.00000000000E+00 -0.00000000000E+00 -0.10073459140E+03  0.10073459140E+03  0.00000000000E+00 0. -1.
    9000006    2    1    2  501    0  0.00000000000E+00  0.00000000000E+00  0.89926540860E+03  0.11007345914E+04  0.63477426350E+03 0.  0.
         13    1    3    3    0    0 -0.15254167195E+03  0.27830834972E+03  0.44412391564E+03  0.54586678929E+03  0.00000000000E+00 0. -1.
          4    1    3    3  501    0  0.15254167195E+03 -0.27830834972E+03  0.45514149296E+03  0.55486780211E+03  0.00000000000E+00 0. -1.
<mgrwt>
<rscale>  0 0.63477426E+03</rscale>
<asrwt>0</asrwt>
<pdfrwt beam="1">0</pdfrwt>
<pdfrwt beam="2">  1        2 0.36630838E+00 0.63477426E+03</pdfrwt>
<totfact> 0.53132423E+00</totfact>
</mgrwt>
</event>
<event>
 5    1  0.2366700E-004  0.6495546E+03  0.7818608E-02  0.9807615E-01
         13   -1    0    0    0    0  0.00000000000E+00  0.00000000000E+00  0.10000000000E+04  0.10000000000E+04  0.00000000000E+00 0. -1.
          2   -1    0    0  501    0 -0.00000000000E+00 -0.00000000000E+00 -0.10548030921E+03  0.10548030921E+03  0.00000000000E+00 0. -1.
    9000006    2    1    2  501    0  0.00000000000E+00  0.00000000000E+00  0.89451969079E+03  0.11054803092E+04  0.64955464499E+03 0.  0.
         13    1    3    3    0    0 -0.19768506656E+03 -0.11446662692E+03  0.54350771909E+02  0.23481056328E+03  0.00000000000E+00 0. -1.
          2    1    3    3  501    0  0.19768506656E+03  0.11446662692E+03  0.84016891888E+03  0.87066974593E+03  0.00000000000E+00 0. -1.
<mgrwt>
<rscale>  0 0.64955464E+03</rscale>
<asrwt>0</asrwt>
<pdfrwt beam="1">0</pdfrwt>
<pdfrwt beam="2">  1        2 0.38356557E+00 0.64955464E+03</pdfrwt>
<totfact> 0.45859506E+00</totfact>
</mgrwt>
</event>
<event>
 5    1  0.2366700E-004  0.6480875E+03  0.7818608E-02  0.9810375E-01
         13   -1    0    0    0    0  0.00000000000E+00  0.00000000000E+00  0.10000000000E+04  0.10000000000E+04  0.00000000000E+00 0. -1.
          2   -1    0    0  501    0 -0.00000000000E+00 -0.00000000000E+00 -0.10500433575E+03  0.10500433575E+03  0.00000000000E+00 0. -1.
    9000006    2    1    2  501    0  0.00000000000E+00  0.00000000000E+00  0.89499566425E+03  0.11050043357E+04  0.64808745011E+03 0.  0.
         13    1    3    3    0    0 -0.84551859751E+02 -0.18285692117E+03  0.88024698967E+03  0.90300633078E+03  0.00000000000E+00 0. -1.
          2    1    3    3  501    0  0.84551859751E+02  0.18285692117E+03  0.14748674577E+02  0.20199800496E+03  0.00000000000E+00 0. -1.
<mgrwt>
<rscale>  0 0.64808745E+03</rscale>
<asrwt>0</asrwt>
<pdfrwt beam="1">0</pdfrwt>
<pdfrwt beam="2">  1        2 0.38183475E+00 0.64808745E+03</pdfrwt>
<totfact> 0.46545588E+00</totfact>
</mgrwt>
</event>
<event>
 5    1  0.2366700E-004  0.6414651E+03  0.7818608E-02  0.9822927E-01
         13   -1    0    0    0    0  0.00000000000E+00  0.00000000000E+00  0.10000000000E+04  0.10000000000E+04  0.00000000000E+00 0. -1.
          2   -1    0    0  501    0 -0.00000000000E+00 -0.00000000000E+00 -0.10286938463E+03  0.10286938463E+03  0.00000000000E+00 0. -1.
    9000006    2    1    2  501    0  0.00000000000E+00  0.00000000000E+00  0.89713061537E+03  0.11028693846E+04  0.64146514990E+03 0.  0.
         13    1    3    3    0    0 -0.31025038915E+03  0.30844962234E+02  0.31918695966E+03  0.44619169746E+03  0.00000000000E+00 0. -1.
          4    1    3    3  501    0  0.31025038915E+03 -0.30844962234E+02  0.57794365571E+03  0.65667768718E+03  0.00000000000E+00 0. -1.
<mgrwt>
<rscale>  0 0.64146515E+03</rscale>
<asrwt>0</asrwt>
<pdfrwt beam="1">0</pdfrwt>
<pdfrwt beam="2">  1        2 0.37407128E+00 0.64146515E+03</pdfrwt>
<totfact> 0.49739439E+00</totfact>
</mgrwt>
</event>
<event>
 5    1  0.2366700E-004  0.6687568E+03  0.7818608E-02  0.9772206E-01
         13   -1    0    0    0    0  0.00000000000E+00  0.00000000000E+00  0.10000000000E+04  0.10000000000E+04  0.00000000000E+00 0. -1.
          2   -1    0    0  501    0 -0.00000000000E+00 -0.00000000000E+00 -0.11180892287E+03  0.11180892287E+03  0.00000000000E+00 0. -1.
    9000006    2    1    2  501    0  0.00000000000E+00  0.00000000000E+00  0.88819107713E+03  0.11118089229E+04  0.66875682536E+03 0.  0.
         13    1    3    3    0    0 -0.96322567181E+02 -0.31836493974E+03  0.38711633618E+03  0.51038547152E+03  0.00000000000E+00 0. -1.
          4    1    3    3  501    0  0.96322567181E+02  0.31836493974E+03  0.50107474095E+03  0.60142345134E+03  0.00000000000E+00 0. -1.
<mgrwt>
<rscale>  0 0.66875683E+03</rscale>
<asrwt>0</asrwt>
<pdfrwt beam="1">0</pdfrwt>
<pdfrwt beam="2">  1        2 0.40657876E+00 0.66875683E+03</pdfrwt>
<totfact> 0.37565904E+00</totfact>
</mgrwt>
</event>
<event>
 5    1  0.2366700E-004  0.6518947E+03  0.7818608E-02  0.9803230E-01
         13   -1    0    0    0    0  0.00000000000E+00  0.00000000000E+00  0.10000000000E+04  0.10000000000E+04  0.00000000000E+00 0. -1.
          2   -1    0    0  501    0 -0.00000000000E+00 -0.00000000000E+00 -0.10624168048E+03  0.10624168048E+03  0.00000000000E+00 0. -1.
    9000006    2    1    2  501    0  0.00000000000E+00  0.00000000000E+00  0.89375831952E+03  0.11062416805E+04  0.65189471691E+03 0.  0.
         13    1    3    3    0    0  0.74629817727E+02 -0.31565109512E+03  0.50151129668E+03  0.59725941118E+03  0.00000000000E+00 0. -1.
          4    1    3    3  501    0 -0.74629817727E+02  0.31565109512E+03  0.39224702284E+03  0.50898226930E+03  0.00000000000E+00 0. -1.
<mgrwt>
<rscale>  0 0.65189472E+03</rscale>
<asrwt>0</asrwt>
<pdfrwt beam="1">0</pdfrwt>
<pdfrwt beam="2">  1        2 0.38633420E+00 0.65189472E+03</pdfrwt>
<totfact> 0.44781105E+00</totfact>
</mgrwt>
</event>
<event>
 5    1  0.2366700E-004  0.6110214E+03  0.7818608E-02  0.9882800E-01
         13   -1    0    0    0    0  0.00000000000E+00  0.00000000000E+00  0.10000000000E+04  0.10000000000E+04  0.00000000000E+00 0. -1.
          2   -1    0    0  501    0 -0.00000000000E+00 -0.00000000000E+00 -0.93336791337E+02  0.93336791337E+02  0.00000000000E+00 0. -1.
    9000006    2    1    2  501    0  0.00000000000E+00  0.00000000000E+00  0.90666320866E+03  0.10933367913E+04  0.61102141153E+03 0.  0.
         13    1    3    3    0    0  0.28291063650E+03 -0.80870676485E+02  0.60043278654E+03  0.66865389082E+03  0.00000000000E+00 0. -1.
          4    1    3    3  501    0 -0.28291063650E+03  0.80870676485E+02  0.30623042213E+03  0.42468290052E+03  0.00000000000E+00 0. -1.
<mgrwt>
<rscale>  0 0.61102141E+03</rscale>
<asrwt>0</asrwt>
<pdfrwt beam="1">0</pdfrwt>
<pdfrwt beam="2">  1        2 0.33940723E+00 0.61102141E+03</pdfrwt>
<totfact> 0.66616114E+00</totfact>
</mgrwt>
</event>
<event>
 5    1  0.2366700E-004  0.6740474E+03  0.7818608E-02  0.9762674E-01
         13   -1    0    0    0    0  0.00000000000E+00  0.00000000000E+00  0.10000000000E+04  0.10000000000E+04  0.00000000000E+00 0. -1.
          2   -1    0    0  501    0 -0.00000000000E+00 -0.00000000000E+00 -0.11358497701E+03  0.11358497701E+03  0.00000000000E+00 0. -1.
    9000006    2    1    2  501    0  0.00000000000E+00  0.00000000000E+00  0.88641502299E+03  0.11135849770E+04  0.67404740786E+03 0.  0.
         13    1    3    3    0    0 -0.14163681507E+03  0.14405690848E+03  0.88887799567E+03  0.91154674672E+03  0.00000000000E+00 0. -1.
          4    1    3    3  501    0  0.14163681507E+03 -0.14405690848E+03 -0.24629726853E+01  0.20203823029E+03  0.00000000000E+00 0. -1.
<mgrwt>
<rscale>  0 0.67404741E+03</rscale>
<asrwt>0</asrwt>
<pdfrwt beam="1">0</pdfrwt>
<pdfrwt beam="2">  1        2 0.41303715E+00 0.67404741E+03</pdfrwt>
<totfact> 0.35494378E+00</totfact>
</mgrwt>
</event>
<event>
 5    1  0.2366700E-004  0.6545680E+03  0.7818608E-02  0.9798245E-01
         13   -1    0    0    0    0  0.00000000000E+00  0.00000000000E+00  0.10000000000E+04  0.10000000000E+04  0.00000000000E+00 0. -1.
          2   -1    0    0  501    0 -0.00000000000E+00 -0.00000000000E+00 -0.10711482577E+03  0.10711482577E+03  0.00000000000E+00 0. -1.
    9000006    2    1    2  501    0  0.00000000000E+00  0.00000000000E+00  0.89288517423E+03  0.11071148258E+04  0.65456802784E+03 0.  0.
         13    1    3    3    0    0 -0.18757930140E+03  0.17047311828E+03  0.96253015044E+02  0.27113045066E+03  0.00000000000E+00 0. -1.
          4    1    3    3  501    0  0.18757930140E+03 -0.17047311828E+03  0.79663215919E+03  0.83598437511E+03  0.00000000000E+00 0. -1.
<mgrwt>
<rscale>  0 0.65456803E+03</rscale>
<asrwt>0</asrwt>
<pdfrwt beam="1">0</pdfrwt>
<pdfrwt beam="2">  1        2 0.38950928E+00 0.65456803E+03</pdfrwt>
<totfact> 0.43572701E+00</totfact>
</mgrwt>
</event>
<event>
 5    1  0.2366700E-004  0.6364721E+03  0.7818608E-02  0.9832500E-01
         13   -1    0    0    0    0  0.00000000000E+00  0.00000000000E+00  0.10000000000E+04  0.10000000000E+04  0.00000000000E+00 0. -1.
          2   -1    0    0  501    0 -0.00000000000E+00 -0.00000000000E+00 -0.10127417715E+03  0.10127417715E+03  0.00000000000E+00 0. -1.
    9000006    2    1    2  501    0  0.00000000000E+00  0.00000000000E+00  0.89872582285E+03  0.11012741772E+04  0.63647207999E+03 0.  0.
         13    1    3    3    0    0 -0.27358637385E+03  0.14349905740E+03  0.58150789605E+03  0.65847772673E+03  0.00000000000E+00 0. -1.
          2    1    3    3  501    0  0.27358637385E+03 -0.14349905740E+03  0.31721792680E+03  0.44279645043E+03  0.00000000000E+00 0. -1.
<mgrwt>
<rscale>  0 0.63647208E+03</rscale>
<asrwt>0</asrwt>
<pdfrwt beam="1">0</pdfrwt>
<pdfrwt beam="2">  1        2 0.36827051E+00 0.63647208E+03</pdfrwt>
<totfact> 0.52255346E+00</totfact>
</mgrwt>
</event>
<event>
 5    1  0.2366700E-004  0.6490642E+03  0.7818608E-02  0.9808537E-01
         13   -1    0    0    0    0  0.00000000000E+00  0.00000000000E+00  0.10000000000E+04  0.10000000000E+04  0.00000000000E+00 0. -1.
          2   -1    0    0  501    0 -0.00000000000E+00 -0.00000000000E+00 -0.10532108905E+03  0.10532108905E+03  0.00000000000E+00 0. -1.
    9000006    2    1    2  501    0  0.00000000000E+00  0.00000000000E+00  0.89467891095E+03  0.11053210891E+04  0.64906421579E+03 0.  0.
         13    1    3    3    0    0  0.40769986729E+02 -0.16578834497E+03 -0.22664667440E+02  0.17222559129E+03  0.00000000000E+00 0. -1.
          4    1    3    3  501    0 -0.40769986729E+02  0.16578834497E+03  0.91734357838E+03  0.93309549776E+03  0.00000000000E+00 0. -1.
<mgrwt>
<rscale>  0 0.64906422E+03</rscale>
<asrwt>0</asrwt>
<pdfrwt beam="1">0</pdfrwt>
<pdfrwt beam="2">  1        2 0.38298659E+00 0.64906422E+03</pdfrwt>
<totfact> 0.46087981E+00</totfact>
</mgrwt>
</event>
<event>
 5    1  0.2366700E-004  0.6538059E+03  0.7818608E-02  0.9799664E-01
         13   -1    0    0    0    0  0.00000000000E+00  0.00000000000E+00  0.10000000000E+04  0.10000000000E+04  0.00000000000E+00 0. -1.
          2   -1    0    0  501    0 -0.00000000000E+00 -0.00000000000E+00 -0.10686554560E+03  0.10686554560E+03  0.00000000000E+00 0. -1.
    9000006    2    1    2  501    0  0.00000000000E+00  0.00000000000E+00  0.89313445440E+03  0.11068655456E+04  0.65380592106E+03 0.  0.
         13    1    3    3    0    0 -0.14830851653E+03  0.28412205280E+03  0.33757457668E+03  0.46548614564E+03  0.00000000000E+00 0. -1.
          4    1    3    3  501    0  0.14830851653E+03 -0.28412205280E+03  0.55555987772E+03  0.64137939996E+03  0.00000000000E+00 0. -1.
<mgrwt>
<rscale>  0 0.65380592E+03</rscale>
<asrwt>0</asrwt>
<pdfrwt beam="1">0</pdfrwt>
<pdfrwt beam="2">  1        2 0.38860280E+00 0.65380592E+03</pdfrwt>
<totfact> 0.43914651E+00</totfact>
</mgrwt>
</event>
<event>
 5    1  0.2366700E-004  0.6570898E+03  0.7818608E-02  0.9793566E-01
         13   -1    0    0    0    0  0.00000000000E+00  0.00000000000E+00  0.10000000000E+04  0.10000000000E+04  0.00000000000E+00 0. -1.
          2   -1    0    0  501    0 -0.00000000000E+00 -0.00000000000E+00 -0.10794173787E+03  0.10794173787E+03  0.00000000000E+00 0. -1.
    9000006    2    1    2  501    0  0.00000000000E+00  0.00000000000E+00  0.89205826213E+03  0.11079417379E+04  0.65708975907E+03 0.  0.
         13    1    3    3    0    0 -0.26790891985E+02 -0.32736701532E+03  0.43354453119E+03  0.54391890493E+03  0.00000000000E+00 0. -1.
          2    1    3    3  501    0  0.26790891985E+02  0.32736701532E+03  0.45851373094E+03  0.56402283294E+03  0.00000000000E+00 0. -1.
<mgrwt>
<rscale>  0 0.65708976E+03</rscale>
<asrwt>0</asrwt>
<pdfrwt beam="1">0</pdfrwt>
<pdfrwt beam="2">  1        2 0.39251624E+00 0.65708976E+03</pdfrwt>
<totfact> 0.42455544E+00</totfact>
</mgrwt>
</event>
<event>
 5    1  0.2366700E-004  0.6566471E+03  0.7818608E-02  0.9794386E-01
         13   -1    0    0    0    0  0.00000000000E+00  0.00000000000E+00  0.10000000000E+04  0.10000000000E+04  0.00000000000E+00 0. -1.
          2   -1    0    0  501    0 -0.00000000000E+00 -0.00000000000E+00 -0.10779635766E+03  0.10779635766E+03  0.00000000000E+00 0. -1.
    9000006    2    1    2  501    0  0.00000000000E+00  0.00000000000E+00  0.89220364234E+03  0.11077963577E+04  0.65664711272E+03 0.  0.
         13    1    3    3    0    0 -0.50787196500E+02 -0.31364143713E+03  0.58568994639E+03  0.66632049624E+03  0.00000000000E+00 0. -1.
          2    1    3    3  501    0  0.50787196500E+02  0.31364143713E+03  0.30651369595E+03  0.44147586142E+03  0.00000000000E+00 0. -1.
<mgrwt>
<rscale>  0 0.65664711E+03</rscale>
<asrwt>0</asrwt>
<pdfrwt beam="1">0</pdfrwt>
<pdfrwt beam="2">  1        2 0.39198758E+00 0.65664711E+03</pdfrwt>
<totfact> 0.42650058E+00</totfact>
</mgrwt>
</event>
<event>
 5    1  0.2366700E-004  0.6468100E+03  0.7818608E-02  0.9812783E-01
         13   -1    0    0    0    0  0.00000000000E+00  0.00000000000E+00  0.10000000000E+04  0.10000000000E+04  0.00000000000E+00 0. -1.
          2   -1    0    0  501    0 -0.00000000000E+00 -0.00000000000E+00 -0.10459080830E+03  0.10459080830E+03  0.00000000000E+00 0. -1.
    9000006    2    1    2  501    0  0.00000000000E+00  0.00000000000E+00  0.89540919170E+03  0.11045908083E+04  0.64681004412E+03 0.  0.
         13    1    3    3    0    0 -0.23371714976E+03 -0.19450734199E+03  0.25958822341E+03  0.39980352414E+03  0.00000000000E+00 0. -1.
          2    1    3    3  501    0  0.23371714976E+03  0.19450734199E+03  0.63582096830E+03  0.70478728416E+03  0.00000000000E+00 0. -1.
<mgrwt>
<rscale>  0 0.64681004E+03</rscale>
<asrwt>0</asrwt>
<pdfrwt beam="1">0</pdfrwt>
<pdfrwt beam="2">  1        2 0.38033101E+00 0.64681004E+03</pdfrwt>
<totfact> 0.47149215E+00</totfact>
</mgrwt>
</event>
<event>
 5    1  0.2366700E-004  0.6491362E+03  0.7818608E-02  0.9808401E-01
         13   -1    0    0    0    0  0.00000000000E+00  0.00000000000E+00  0.10000000000E+04  0.10000000000E+04  0.00000000000E+00 0. -1.
          2   -1    0    0  501    0 -0.00000000000E+00 -0.00000000000E+00 -0.10534443940E+03  0.10534443940E+03  0.00000000000E+00 0. -1.
    9000006    2    1    2  501    0  0.00000000000E+00  0.00000000000E+00  0.89465556060E+03  0.11053444394E+04  0.64913616260E+03 0.  0.
         13    1    3    3    0    0 -0.15586836256E+03  0.19875949053E+03  0.79439756545E+03  0.83358729208E+03  0.00000000000E+00 0. -1.
          2    1    3    3  501    0  0.15586836256E+03 -0.19875949053E+03  0.10025799515E+03  0.27175714731E+03  0.00000000000E+00 0. -1.
<mgrwt>
<rscale>  0 0.64913616E+03</rscale>
<asrwt>0</asrwt>
<pdfrwt beam="1">0</pdfrwt>
<pdfrwt beam="2">  1        2 0.38307150E+00 0.64913616E+03</pdfrwt>
<totfact> 0.46054410E+00</totfact>
</mgrwt>
</event>
<event>
 5    1  0.2366700E-004  0.6592147E+03  0.7818608E-02  0.9789640E-01
         13   -1    0    0    0    0  0.00000000000E+00  0.00000000000E+00  0.10000000000E+04  0.10000000000E+04  0.00000000000E+00 0. -1.
          2   -1    0    0  501    0 -0.00000000000E+00 -0.00000000000E+00 -0.10864100425E+03  0.10864100425E+03  0.00000000000E+00 0. -1.
    9000006    2    1    2  501    0  0.00000000000E+00  0.00000000000E+00  0.89135899575E+03  0.11086410043E+04  0.65921469721E+03 0.  0.
         13    1    3    3    0    0  0.29648064627E+03 -0.91179259981E+02  0.63315293728E+03  0.70505111378E+03  0.00000000000E+00 0. -1.
          2    1    3    3  501    0 -0.29648064627E+03  0.91179259981E+02  0.25820605847E+03  0.40358989047E+03  0.00000000000E+00 0. -1.
<mgrwt>
<rscale>  0 0.65921470E+03</rscale>
<asrwt>0</asrwt>
<pdfrwt beam="1">0</pdfrwt>
<pdfrwt beam="2">  1        2 0.39505903E+00 0.65921470E+03</pdfrwt>
<totfact> 0.41531117E+00</totfact>
</mgrwt>
</event>
<event>
 5    1  0.2366700E-004  0.6540386E+03  0.7818608E-02  0.9799231E-01
         13   -1    0    0    0    0  0.00000000000E+00  0.00000000000E+00  0.10000000000E+04  0.10000000000E+04  0.00000000000E+00 0. -1.
          2   -1    0    0  501    0 -0.00000000000E+00 -0.00000000000E+00 -0.10694160671E+03  0.10694160671E+03  0.00000000000E+00 0. -1.
    9000006    2    1    2  501    0  0.00000000000E+00  0.00000000000E+00  0.89305839329E+03  0.11069416067E+04  0.65403855150E+03 0.  0.
         13    1    3    3    0    0 -0.25680436485E+03 -0.16465638161E+03  0.24712329292E+03  0.39259410046E+03  0.00000000000E+00 0. -1.
          4    1    3    3  501    0  0.25680436485E+03  0.16465638161E+03  0.64593510036E+03  0.71434750625E+03  0.00000000000E+00 0. -1.
<mgrwt>
<rscale>  0 0.65403855E+03</rscale>
<asrwt>0</asrwt>
<pdfrwt beam="1">0</pdfrwt>
<pdfrwt beam="2">  1        2 0.38887939E+00 0.65403855E+03</pdfrwt>
<totfact> 0.43810058E+00</totfact>
</mgrwt>
</event>
<event>
 5    1  0.2366700E-004  0.6403750E+03  0.7818608E-02  0.9825009E-01
         13   -1    0    0    0    0  0.00000000000E+00  0.00000000000E+00  0.10000000000E+04  0.10000000000E+04  0.00000000000E+00 0. -1.
          2   -1    0    0  501    0 -0.00000000000E+00 -0.00000000000E+00 -0.10252002033E+03  0.10252002033E+03  0.00000000000E+00 0. -1.
    9000006    2    1    2  501    0  0.00000000000E+00  0.00000000000E+00  0.89747997967E+03  0.11025200203E+04  0.64037495370E+03 0.  0.
         13    1    3    3    0    0 -0.47226638619E+02 -0.11739137454E+03 -0.57647091250E+02  0.13904775202E+03  0.00000000000E+00 0. -1.
          4    1    3    3  501    0  0.47226638619E+02  0.11739137454E+03  0.95512707092E+03  0.96347226832E+03  0.00000000000E+00 0. -1.
<mgrwt>
<rscale>  0 0.64037495E+03</rscale>
<asrwt>0</asrwt>
<pdfrwt beam="1">0</pdfrwt>
<pdfrwt beam="2">  1        2 0.37280086E+00 0.64037495E+03</pdfrwt>
<totfact> 0.50280762E+00</totfact>
</mgrwt>
</event>
<event>
 5    1  0.2366700E-004  0.6561415E+03  0.7818608E-02  0.9795323E-01
         13   -1    0    0    0    0  0.00000000000E+00  0.00000000000E+00  0.10000000000E+04  0.10000000000E+04  0.00000000000E+00 0. -1.
          2   -1    0    0  501    0 -0.00000000000E+00 -0.00000000000E+00 -0.10763042102E+03  0.10763042102E+03  0.00000000000E+00 0. -1.
    9000006    2    1    2  501    0  0.00000000000E+00  0.00000000000E+00  0.89236957898E+03  0.11076304210E+04  0.65614151225E+03 0.  0.
         13    1    3    3    0    0  0.76753572412E+02 -0.29189750398E+03  0.66325564880E+03  0.72869974569E+03  0.00000000000E+00 0. -1.
          4    1    3    3  501    0 -0.76753572412E+02  0.29189750398E+03  0.22911393018E+03  0.37893067533E+03  0.00000000000E+00 0. -1.
<mgrwt>
<rscale>  0 0.65614151E+03</rscale>
<asrwt>0</asrwt>
<pdfrwt beam="1">0</pdfrwt>
<pdfrwt beam="2">  1        2 0.39138417E+00 0.65614151E+03</pdfrwt>
<totfact> 0.42873060E+00</totfact>
</mgrwt>
</event>
<event>
 5    1  0.2366700E-004  0.6045768E+03  0.7818608E-02  0.9895956E-01
         13   -1    0    0    0    0  0.00000000000E+00  0.00000000000E+00  0.10000000000E+04  0.10000000000E+04  0.00000000000E+00 0. -1.
          2   -1    0    0  501    0 -0.00000000000E+00 -0.00000000000E+00 -0.91378284917E+02  0.91378284917E+02  0.00000000000E+00 0. -1.
    9000006    2    1    2  501    0  0.00000000000E+00  0.00000000000E+00  0.90862171508E+03  0.10913782849E+04  0.60457682693E+03 0.  0.
         13    1    3    3    0    0 -0.47313462656E+02 -0.24704171142E+03  0.75697091822E+03  0.79766731284E+03  0.00000000000E+00 0. -1.
          4    1    3    3  501    0  0.47313462656E+02  0.24704171142E+03  0.15165079686E+03  0.29371097208E+03  0.00000000000E+00 0. -1.
<mgrwt>
<rscale>  0 0.60457683E+03</rscale>
<asrwt>0</asrwt>
<pdfrwt beam="1">0</pdfrwt>
<pdfrwt beam="2">  1        2 0.33228537E+00 0.60457683E+03</pdfrwt>
<totfact> 0.70687758E+00</totfact>
</mgrwt>
</event>
<event>
 5    1  0.2366700E-004  0.6412852E+03  0.7818608E-02  0.9823271E-01
         13   -1    0    0    0    0  0.00000000000E+00  0.00000000000E+00  0.10000000000E+04  0.10000000000E+04  0.00000000000E+00 0. -1.
          2   -1    0    0  501    0 -0.00000000000E+00 -0.00000000000E+00 -0.10281166097E+03  0.10281166097E+03  0.00000000000E+00 0. -1.
    9000006    2    1    2  501    0  0.00000000000E+00  0.00000000000E+00  0.89718833903E+03  0.11028116610E+04  0.64128515020E+03 0.  0.
         13    1    3    3    0    0  0.28434287065E+03 -0.14803748474E+03  0.43696926978E+03  0.54194843639E+03  0.00000000000E+00 0. -1.
          2    1    3    3  501    0 -0.28434287065E+03  0.14803748474E+03  0.46021906925E+03  0.56086322457E+03  0.00000000000E+00 0. -1.
<mgrwt>
<rscale>  0 0.64128515E+03</rscale>
<asrwt>0</asrwt>
<pdfrwt beam="1">0</pdfrwt>
<pdfrwt beam="2">  1        2 0.37386137E+00 0.64128515E+03</pdfrwt>
<totfact> 0.49828510E+00</totfact>
</mgrwt>
</event>
<event>
 5    1  0.2366700E-004  0.6554902E+03  0.7818608E-02  0.9796531E-01
         13   -1    0    0    0    0  0.00000000000E+00  0.00000000000E+00  0.10000000000E+04  0.10000000000E+04  0.00000000000E+00 0. -1.
          2   -1    0    0  501    0 -0.00000000000E+00 -0.00000000000E+00 -0.10741684022E+03  0.10741684022E+03  0.00000000000E+00 0. -1.
    9000006    2    1    2  501    0  0.00000000000E+00  0.00000000000E+00  0.89258315978E+03  0.11074168402E+04  0.65549016840E+03 0.  0.
         13    1    3    3    0    0  0.17298663411E+03 -0.12372192907E+03  0.86758917394E+03  0.89327625405E+03  0.00000000000E+00 0. -1.
          4    1    3    3  501    0 -0.17298663411E+03  0.12372192907E+03  0.24993985843E+02  0.21414058616E+03  0.00000000000E+00 0. -1.
<mgrwt>
<rscale>  0 0.65549017E+03</rscale>
<asrwt>0</asrwt>
<pdfrwt beam="1">0</pdfrwt>
<pdfrwt beam="2">  1        2 0.39060752E+00 0.65549017E+03</pdfrwt>
<totfact> 0.43161639E+00</totfact>
</mgrwt>
</event>
<event>
 5    1  0.2366700E-004  0.6505093E+03  0.7818608E-02  0.9805824E-01
         13   -1    0    0    0    0  0.00000000000E+00  0.00000000000E+00  0.10000000000E+04  0.10000000000E+04  0.00000000000E+00 0. -1.
          2   -1    0    0  501    0 -0.00000000000E+00 -0.00000000000E+00 -0.10579059730E+03  0.10579059730E+03  0.00000000000E+00 0. -1.
    9000006    2    1    2  501    0  0.00000000000E+00  0.00000000000E+00  0.89420940270E+03  0.11057905973E+04  0.65050933061E+03 0.  0.
         13    1    3    3    0    0  0.30221409404E+03  0.10571858841E+03  0.34973799478E+03  0.47415866919E+03  0.00000000000E+00 0. -1.
          2    1    3    3  501    0 -0.30221409404E+03 -0.10571858841E+03  0.54447140792E+03  0.63163192811E+03  0.00000000000E+00 0. -1.
<mgrwt>
<rscale>  0 0.65050933E+03</rscale>
<asrwt>0</asrwt>
<pdfrwt beam="1">0</pdfrwt>
<pdfrwt beam="2">  1        2 0.38469389E+00 0.65050933E+03</pdfrwt>
<totfact> 0.45417205E+00</totfact>
</mgrwt>
</event>
<event>
 5    1  0.2366700E-004  0.6499131E+03  0.7818608E-02  0.9806942E-01
         13   -1    0    0    0    0  0.00000000000E+00  0.00000000000E+00  0.10000000000E+04  0.10000000000E+04  0.00000000000E+00 0. -1.
          2   -1    0    0  501    0 -0.00000000000E+00 -0.00000000000E+00 -0.10559674782E+03  0.10559674782E+03  0.00000000000E+00 0. -1.
    9000006    2    1    2  501    0  0.00000000000E+00  0.00000000000E+00  0.89440325218E+03  0.11055967478E+04  0.64991306439E+03 0.  0.
         13    1    3    3    0    0 -0.31618285639E+03  0.67699835532E+02  0.50211152324E+03  0.59721926306E+03  0.00000000000E+00 0. -1.
          2    1    3    3  501    0  0.31618285639E+03 -0.67699835532E+02  0.39229172895E+03  0.50837748475E+03  0.00000000000E+00 0. -1.
<mgrwt>
<rscale>  0 0.64991306E+03</rscale>
<asrwt>0</asrwt>
<pdfrwt beam="1">0</pdfrwt>
<pdfrwt beam="2">  1        2 0.38398898E+00 0.64991306E+03</pdfrwt>
<totfact> 0.45693073E+00</totfact>
</mgrwt>
</event>
<event>
 5    1  0.2366700E-004  0.6442659E+03  0.7818608E-02  0.9817599E-01
         13   -1    0    0    0    0  0.00000000000E+00  0.00000000000E+00  0.10000000000E+04  0.10000000000E+04  0.00000000000E+00 0. -1.
          2   -1    0    0  501    0 -0.00000000000E+00 -0.00000000000E+00 -0.10376964027E+03  0.10376964027E+03  0.00000000000E+00 0. -1.
    9000006    2    1    2  501    0  0.00000000000E+00  0.00000000000E+00  0.89623035973E+03  0.11037696403E+04  0.64426590866E+03 0.  0.
         13    1    3    3    0    0  0.20662091631E+03  0.24635888659E+03  0.41451088225E+03  0.52459906173E+03  0.00000000000E+00 0. -1.
          4    1    3    3  501    0 -0.20662091631E+03 -0.24635888659E+03  0.48171947748E+03  0.57917057854E+03  0.00000000000E+00 0. -1.
<mgrwt>
<rscale>  0 0.64426591E+03</rscale>
<asrwt>0</asrwt>
<pdfrwt beam="1">0</pdfrwt>
<pdfrwt beam="2">  1        2 0.37734494E+00 0.64426591E+03</pdfrwt>
<totfact> 0.48369048E+00</totfact>
</mgrwt>
</event>
<event>
 5    1  0.2366700E-004  0.6481040E+03  0.7818608E-02  0.9810343E-01
         13   -1    0    0    0    0  0.00000000000E+00  0.00000000000E+00  0.10000000000E+04  0.10000000000E+04  0.00000000000E+00 0. -1.
          2   -1    0    0  501    0 -0.00000000000E+00 -0.00000000000E+00 -0.10500971098E+03  0.10500971098E+03  0.00000000000E+00 0. -1.
    9000006    2    1    2  501    0  0.00000000000E+00  0.00000000000E+00  0.89499028902E+03  0.11050097110E+04  0.64810403789E+03 0.  0.
         13    1    3    3    0    0  0.96130294971E+02 -0.11167036147E+03  0.93957968056E+03  0.95106323626E+03  0.00000000000E+00 0. -1.
          4    1    3    3  501    0 -0.96130294971E+02  0.11167036147E+03 -0.44589391544E+02  0.15394647472E+03  0.00000000000E+00 0. -1.
<mgrwt>
<rscale>  0 0.64810404E+03</rscale>
<asrwt>0</asrwt>
<pdfrwt beam="1">0</pdfrwt>
<pdfrwt beam="2">  1        2 0.38185430E+00 0.64810404E+03</pdfrwt>
<totfact> 0.46537788E+00</totfact>
</mgrwt>
</event>
<event>
 5    1  0.2366700E-004  0.6717797E+03  0.7818608E-02  0.9766748E-01
         13   -1    0    0    0    0  0.00000000000E+00  0.00000000000E+00  0.10000000000E+04  0.10000000000E+04  0.00000000000E+00 0. -1.
          2   -1    0    0  501    0 -0.00000000000E+00 -0.00000000000E+00 -0.11282198731E+03  0.11282198731E+03  0.00000000000E+00 0. -1.
    9000006    2    1    2  501    0  0.00000000000E+00  0.00000000000E+00  0.88717801269E+03  0.11128219873E+04  0.67177968801E+03 0.  0.
         13    1    3    3    0    0  0.26616060526E+03  0.10744575698E+03  0.73258519118E+03  0.78680818553E+03  0.00000000000E+00 0. -1.
          2    1    3    3  501    0 -0.26616060526E+03 -0.10744575698E+03  0.15459282152E+03  0.32601380177E+03  0.00000000000E+00 0. -1.
<mgrwt>
<rscale>  0 0.67177969E+03</rscale>
<asrwt>0</asrwt>
<pdfrwt beam="1">0</pdfrwt>
<pdfrwt beam="2">  1        2 0.41026264E+00 0.67177969E+03</pdfrwt>
<totfact> 0.36371455E+00</totfact>
</mgrwt>
</event>
<event>
 5    1  0.2366700E-004  0.6414778E+03  0.7818608E-02  0.9822903E-01
         13   -1    0    0    0    0  0.00000000000E+00  0.00000000000E+00  0.10000000000E+04  0.10000000000E+04  0.00000000000E+00 0. -1.
          2   -1    0    0  501    0 -0.00000000000E+00 -0.00000000000E+00 -0.10287343496E+03  0.10287343496E+03  0.00000000000E+00 0. -1.
    9000006    2    1    2  501    0  0.00000000000E+00  0.00000000000E+00  0.89712656504E+03  0.11028734350E+04  0.64147777814E+03 0.  0.
         13    1    3    3    0    0 -0.16323963917E+03 -0.15283591408E+02  0.92251041820E+03  0.93696650936E+03  0.00000000000E+00 0. -1.
          4    1    3    3  501    0  0.16323963917E+03  0.15283591408E+02 -0.25383853166E+02  0.16590692561E+03  0.00000000000E+00 0. -1.
<mgrwt>
<rscale>  0 0.64147778E+03</rscale>
<asrwt>0</asrwt>
<pdfrwt beam="1">0</pdfrwt>
<pdfrwt beam="2">  1        2 0.37408601E+00 0.64147778E+03</pdfrwt>
<totfact> 0.49733195E+00</totfact>
</mgrwt>
</event>
<event>
 5    1  0.2366700E-004  0.6388503E+03  0.7818608E-02  0.9827929E-01
         13   -1    0    0    0    0  0.00000000000E+00  0.00000000000E+00  0.10000000000E+04  0.10000000000E+04  0.00000000000E+00 0. -1.
          2   -1    0    0  501    0 -0.00000000000E+00 -0.00000000000E+00 -0.10203243077E+03  0.10203243077E+03  0.00000000000E+00 0. -1.
    9000006    2    1    2  501    0  0.00000000000E+00  0.00000000000E+00  0.89796756923E+03  0.11020324308E+04  0.63885031351E+03 0.  0.
         13    1    3    3    0    0 -0.26828746677E+03 -0.11480395587E+03  0.22490106168E+03  0.36842719858E+03  0.00000000000E+00 0. -1.
          2    1    3    3  501    0  0.26828746677E+03  0.11480395587E+03  0.67306650755E+03  0.73360523219E+03  0.00000000000E+00 0. -1.
<mgrwt>
<rscale>  0 0.63885031E+03</rscale>
<asrwt>0</asrwt>
<pdfrwt beam="1">0</pdfrwt>
<pdfrwt beam="2">  1        2 0.37102780E+00 0.63885031E+03</pdfrwt>
<totfact> 0.51045272E+00</totfact>
</mgrwt>
</event>
<event>
 5    1  0.2366700E-004  0.6416747E+03  0.7818608E-02  0.9822528E-01
         13   -1    0    0    0    0  0.00000000000E+00  0.00000000000E+00  0.10000000000E+04  0.10000000000E+04  0.00000000000E+00 0. -1.
          2   -1    0    0  501    0 -0.00000000000E+00 -0.00000000000E+00 -0.10293661640E+03  0.10293661640E+03  0.00000000000E+00 0. -1.
    9000006    2    1    2  501    0  0.00000000000E+00  0.00000000000E+00  0.89706338360E+03  0.11029366164E+04  0.64167473506E+03 0.  0.
         13    1    3    3    0    0 -0.17177924226E+03 -0.12714611178E+03  0.37220722449E+02  0.21693230279E+03  0.00000000000E+00 0. -1.
          4    1    3    3  501    0  0.17177924226E+03  0.12714611178E+03  0.85984266115E+03  0.88600431361E+03  0.00000000000E+00 0. -1.
<mgrwt>
<rscale>  0 0.64167474E+03</rscale>
<asrwt>0</asrwt>
<pdfrwt beam="1">0</pdfrwt>
<pdfrwt beam="2">  1        2 0.37431576E+00 0.64167474E+03</pdfrwt>
<totfact> 0.49635880E+00</totfact>
</mgrwt>
</event>
<event>
 5    1  0.2366700E-004  0.6457001E+03  0.7818608E-02  0.9814881E-01
         13   -1    0    0    0    0  0.00000000000E+00  0.00000000000E+00  0.10000000000E+04  0.10000000000E+04  0.00000000000E+00 0. -1.
          2   -1    0    0  501    0 -0.00000000000E+00 -0.00000000000E+00 -0.10423216627E+03  0.10423216627E+03  0.00000000000E+00 0. -1.
    9000006    2    1    2  501    0  0.00000000000E+00  0.00000000000E+00  0.89576783373E+03  0.11042321663E+04  0.64570013558E+03 0.  0.
         13    1    3    3    0    0  0.93452419468E+01  0.24737077646E+03  0.93459282660E+02  0.26460210148E+03  0.00000000000E+00 0. -1.
          4    1    3    3  501    0 -0.93452419468E+01 -0.24737077646E+03  0.80230855107E+03  0.83963006479E+03  0.00000000000E+00 0. -1.
<mgrwt>
<rscale>  0 0.64570014E+03</rscale>
<asrwt>0</asrwt>
<pdfrwt beam="1">0</pdfrwt>
<pdfrwt beam="2">  1        2 0.37902686E+00 0.64570014E+03</pdfrwt>
<totfact> 0.47678484E+00</totfact>
</mgrwt>
</event>
<event>
 5    1  0.2366700E-004  0.6476197E+03  0.7818608E-02  0.9811256E-01
         13   -1    0    0    0    0  0.00000000000E+00  0.00000000000E+00  0.10000000000E+04  0.10000000000E+04  0.00000000000E+00 0. -1.
          2   -1    0    0  501    0 -0.00000000000E+00 -0.00000000000E+00 -0.10485281975E+03  0.10485281975E+03  0.00000000000E+00 0. -1.
    9000006    2    1    2  501    0  0.00000000000E+00  0.00000000000E+00  0.89514718025E+03  0.11048528198E+04  0.64761970246E+03 0.  0.
         13    1    3    3    0    0  0.17164806948E+03 -0.14605603782E+03  0.50919508514E+02  0.23105891519E+03  0.00000000000E+00 0. -1.
          4    1    3    3  501    0 -0.17164806948E+03  0.14605603782E+03  0.84422767173E+03  0.87379390457E+03  0.00000000000E+00 0. -1.
<mgrwt>
<rscale>  0 0.64761970E+03</rscale>
<asrwt>0</asrwt>
<pdfrwt beam="1">0</pdfrwt>
<pdfrwt beam="2">  1        2 0.38128378E+00 0.64761970E+03</pdfrwt>
<totfact> 0.46765935E+00</totfact>
</mgrwt>
</event>
<event>
 5    1  0.2366700E-004  0.6580059E+03  0.7818608E-02  0.9791872E-01
         13   -1    0    0    0    0  0.00000000000E+00  0.00000000000E+00  0.10000000000E+04  0.10000000000E+04  0.00000000000E+00 0. -1.
          2   -1    0    0  501    0 -0.00000000000E+00 -0.00000000000E+00 -0.10824295328E+03  0.10824295328E+03  0.00000000000E+00 0. -1.
    9000006    2    1    2  501    0  0.00000000000E+00  0.00000000000E+00  0.89175704672E+03  0.11082429533E+04  0.65800593699E+03 0.  0.
         13    1    3    3    0    0 -0.26819703388E+03 -0.47545196838E+02  0.13507830450E+03  0.30403345716E+03  0.00000000000E+00 0. -1.
          4    1    3    3  501    0  0.26819703388E+03  0.47545196838E+02  0.75667874222E+03  0.80420949612E+03  0.00000000000E+00 0. -1.
<mgrwt>
<rscale>  0 0.65800594E+03</rscale>
<asrwt>0</asrwt>
<pdfrwt beam="1">0</pdfrwt>
<pdfrwt beam="2">  1        2 0.39361157E+00 0.65800594E+03</pdfrwt>
<totfact> 0.42055072E+00</totfact>
</mgrwt>
</event>
<event>
 5    1  0.2366700E-004  0.6474501E+03  0.7818608E-02  0.9811576E-01
         13   -1    0    0    0    0  0.00000000000E+00  0.00000000000E+00  0.10000000000E+04  0.10000000000E+04  0.00000000000E+00 0. -1.
          2   -1    0    0  501    0 -0.00000000000E+00 -0.00000000000E+00 -0.10479792007E+03  0.10479792007E+03  0.00000000000E+00 0. -1.
    9000006    2    1    2  501    0  0.00000000000E+00  0.00000000000E+00  0.89520207993E+03  0.11047979201E+04  0.64745013730E+03 0.  0.
         13    1    3    3    0    0 -0.27860028708E+02  0.26452682412E+03  0.13274078134E+03  0.29727215966E+03  0.00000000000E+00 0. -1.
          4    1    3    3  501    0  0.27860028708E+02 -0.26452682412E+03  0.76246129859E+03  0.80752576041E+03  0.00000000000E+00 0. -1.
<mgrwt>
<rscale>  0 0.64745014E+03</rscale>
<asrwt>0</asrwt>
<pdfrwt beam="1">0</pdfrwt>
<pdfrwt beam="2">  1        2 0.38108415E+00 0.64745014E+03</pdfrwt>
<totfact> 0.46846009E+00</totfact>
</mgrwt>
</event>
<event>
 5    1  0.2366700E-004  0.7681595E+03  0.7818608E-02  0.9607284E-01
         13   -1    0    0    0    0  0.00000000000E+00  0.00000000000E+00  0.10000000000E+04  0.10000000000E+04  0.00000000000E+00 0. -1.
          2   -1    0    0  501    0 -0.00000000000E+00 -0.00000000000E+00 -0.14751725651E+03  0.14751725651E+03  0.00000000000E+00 0. -1.
    9000006    2    1    2  501    0  0.00000000000E+00  0.00000000000E+00  0.85248274349E+03  0.11475172565E+04  0.76815950560E+03 0.  0.
         13    1    3    3    0    0 -0.30596163944E+03 -0.52742957962E+02  0.76400712097E+03  0.82468249970E+03  0.00000000000E+00 0. -1.
          4    1    3    3  501    0  0.30596163944E+03  0.52742957962E+02  0.88475622524E+02  0.32283475681E+03  0.00000000000E+00 0. -1.
<mgrwt>
<rscale>  0 0.76815951E+03</rscale>
<asrwt>0</asrwt>
<pdfrwt beam="1">0</pdfrwt>
<pdfrwt beam="2">  1        2 0.53642752E+00 0.76815951E+03</pdfrwt>
<totfact> 0.11017833E+00</totfact>
</mgrwt>
</event>
<event>
 5    1  0.2366700E-004  0.6518396E+03  0.7818608E-02  0.9803333E-01
         13   -1    0    0    0    0  0.00000000000E+00  0.00000000000E+00  0.10000000000E+04  0.10000000000E+04  0.00000000000E+00 0. -1.
          2   -1    0    0  501    0 -0.00000000000E+00 -0.00000000000E+00 -0.10622372513E+03  0.10622372513E+03  0.00000000000E+00 0. -1.
    9000006    2    1    2  501    0  0.00000000000E+00  0.00000000000E+00  0.89377627487E+03  0.11062237251E+04  0.65183962793E+03 0.  0.
         13    1    3    3    0    0  0.26315093778E+02  0.27953266641E+03  0.72776752056E+03  0.78004907521E+03  0.00000000000E+00 0. -1.
          2    1    3    3  501    0 -0.26315093778E+02 -0.27953266641E+03  0.16600875430E+03  0.32617464992E+03  0.00000000000E+00 0. -1.
<mgrwt>
<rscale>  0 0.65183963E+03</rscale>
<asrwt>0</asrwt>
<pdfrwt beam="1">0</pdfrwt>
<pdfrwt beam="2">  1        2 0.38626891E+00 0.65183963E+03</pdfrwt>
<totfact> 0.44806270E+00</totfact>
</mgrwt>
</event>
<event>
 5    1  0.2366700E-004  0.6060760E+03  0.7818608E-02  0.9892880E-01
         13   -1    0    0    0    0  0.00000000000E+00  0.00000000000E+00  0.10000000000E+04  0.10000000000E+04  0.00000000000E+00 0. -1.
          2   -1    0    0  501    0 -0.00000000000E+00 -0.00000000000E+00 -0.91832020786E+02  0.91832020786E+02  0.00000000000E+00 0. -1.
    9000006    2    1    2  501    0  0.00000000000E+00  0.00000000000E+00  0.90816797921E+03  0.10918320208E+04  0.60607597143E+03 0.  0.
         13    1    3    3    0    0 -0.30038297995E+03 -0.38695703385E+02  0.43564820671E+03  0.53058142835E+03  0.00000000000E+00 0. -1.
          4    1    3    3  501    0  0.30038297995E+03  0.38695703385E+02  0.47251977250E+03  0.56125059243E+03  0.00000000000E+00 0. -1.
<mgrwt>
<rscale>  0 0.60607597E+03</rscale>
<asrwt>0</asrwt>
<pdfrwt beam="1">0</pdfrwt>
<pdfrwt beam="2">  1        2 0.33393533E+00 0.60607597E+03</pdfrwt>
<totfact> 0.69724071E+00</totfact>
</mgrwt>
</event>
<event>
 5    1  0.2366700E-004  0.6467013E+03  0.7818608E-02  0.9812989E-01
         13   -1    0    0    0    0  0.00000000000E+00  0.00000000000E+00  0.10000000000E+04  0.10000000000E+04  0.00000000000E+00 0. -1.
          2   -1    0    0  501    0 -0.00000000000E+00 -0.00000000000E+00 -0.10455564608E+03  0.10455564608E+03  0.00000000000E+00 0. -1.
    9000006    2    1    2  501    0  0.00000000000E+00  0.00000000000E+00  0.89544435392E+03  0.11045556461E+04  0.64670130998E+03 0.  0.
         13    1    3    3    0    0  0.18888828429E+03 -0.32232962740E+02  0.28655635170E+01  0.19164018181E+03  0.00000000000E+00 0. -1.
          2    1    3    3  501    0 -0.18888828429E+03  0.32232962740E+02  0.89257879040E+03  0.91291546427E+03  0.00000000000E+00 0. -1.
<mgrwt>
<rscale>  0 0.64670131E+03</rscale>
<asrwt>0</asrwt>
<pdfrwt beam="1">0</pdfrwt>
<pdfrwt beam="2">  1        2 0.38020315E+00 0.64670131E+03</pdfrwt>
<totfact> 0.47200869E+00</totfact>
</mgrwt>
</event>
<event>
 5    1  0.2366700E-004  0.6522375E+03  0.7818608E-02  0.9802590E-01
         13   -1    0    0    0    0  0.00000000000E+00  0.00000000000E+00  0.10000000000E+04  0.10000000000E+04  0.00000000000E+00 0. -1.
          2   -1    0    0  501    0 -0.00000000000E+00 -0.00000000000E+00 -0.10635342444E+03  0.10635342444E+03  0.00000000000E+00 0. -1.
    9000006    2    1    2  501    0  0.00000000000E+00  0.00000000000E+00  0.89364657556E+03  0.11063534244E+04  0.65223745506E+03 0.  0.
         13    1    3    3    0    0 -0.29888898618E+03 -0.85965090722E+02  0.28037694085E+03  0.41873124059E+03  0.00000000000E+00 0. -1.
          4    1    3    3  501    0  0.29888898618E+03  0.85965090722E+02  0.61326963471E+03  0.68762218386E+03  0.00000000000E+00 0. -1.
<mgrwt>
<rscale>  0 0.65223746E+03</rscale>
<asrwt>0</asrwt>
<pdfrwt beam="1">0</pdfrwt>
<pdfrwt beam="2">  1        2 0.38674054E+00 0.65223746E+03</pdfrwt>
<totfact> 0.44624781E+00</totfact>
</mgrwt>
</event>
<event>
 5    1  0.2366700E-004  0.6164637E+03  0.7818608E-02  0.9871826E-01
         13   -1    0    0    0    0  0.00000000000E+00  0.00000000000E+00  0.10000000000E+04  0.10000000000E+04  0.00000000000E+00 0. -1.
          2   -1    0    0  501    0 -0.00000000000E+00 -0.00000000000E+00 -0.95006871903E+02  0.95006871903E+02  0.00000000000E+00 0. -1.
    9000006    2    1    2  501    0  0.00000000000E+00  0.00000000000E+00  0.90499312810E+03  0.10950068719E+04  0.61646369529E+03 0.  0.
         13    1    3    3    0    0 -0.17887166874E+03  0.21879081114E+03  0.67107453756E+03  0.72815213237E+03  0.00000000000E+00 0. -1.
          4    1    3    3  501    0  0.17887166874E+03 -0.21879081114E+03  0.23391859054E+03  0.36685473953E+03  0.00000000000E+00 0. -1.
<mgrwt>
<rscale>  0 0.61646370E+03</rscale>
<asrwt>0</asrwt>
<pdfrwt beam="1">0</pdfrwt>
<pdfrwt beam="2">  1        2 0.34548026E+00 0.61646370E+03</pdfrwt>
<totfact> 0.63319647E+00</totfact>
</mgrwt>
</event>
<event>
 5    1  0.2366700E-004  0.6486522E+03  0.7818608E-02  0.9809312E-01
         13   -1    0    0    0    0  0.00000000000E+00  0.00000000000E+00  0.10000000000E+04  0.10000000000E+04  0.00000000000E+00 0. -1.
          2   -1    0    0  501    0 -0.00000000000E+00 -0.00000000000E+00 -0.10518740722E+03  0.10518740722E+03  0.00000000000E+00 0. -1.
    9000006    2    1    2  501    0  0.00000000000E+00  0.00000000000E+00  0.89481259278E+03  0.11051874072E+04  0.64865216325E+03 0.  0.
         13    1    3    3    0    0  0.15685930657E+03 -0.24313809465E+03  0.19777214991E+03  0.35047795709E+03  0.00000000000E+00 0. -1.
          2    1    3    3  501    0 -0.15685930657E+03  0.24313809465E+03  0.69704044286E+03  0.75470945013E+03  0.00000000000E+00 0. -1.
<mgrwt>
<rscale>  0 0.64865216E+03</rscale>
<asrwt>0</asrwt>
<pdfrwt beam="1">0</pdfrwt>
<pdfrwt beam="2">  1        2 0.38250047E+00 0.64865216E+03</pdfrwt>
<totfact> 0.46280608E+00</totfact>
</mgrwt>
</event>
<event>
 5    1  0.2366700E-004  0.5058202E+03  0.7818608E-02  0.1012271E+00
         13   -1    0    0    0    0  0.00000000000E+00  0.00000000000E+00  0.10000000000E+04  0.10000000000E+04  0.00000000000E+00 0. -1.
          2   -1    0    0  501    0 -0.00000000000E+00 -0.00000000000E+00 -0.63963514085E+02  0.63963514085E+02  0.00000000000E+00 0. -1.
    9000006    2    1    2  501    0  0.00000000000E+00  0.00000000000E+00  0.93603648591E+03  0.10639635141E+04  0.50582018182E+03 0.  0.
         13    1    3    3    0    0 -0.19317521244E+03 -0.16255437338E+03  0.49942419724E+03  0.55961157582E+03  0.00000000000E+00 0. -1.
          4    1    3    3  501    0  0.19317521244E+03  0.16255437338E+03  0.43661228867E+03  0.50435193826E+03  0.00000000000E+00 0. -1.
<mgrwt>
<rscale>  0 0.50582018E+03</rscale>
<asrwt>0</asrwt>
<pdfrwt beam="1">0</pdfrwt>
<pdfrwt beam="2">  1        2 0.23259509E+00 0.50582018E+03</pdfrwt>
<totfact> 0.16110808E+01</totfact>
</mgrwt>
</event>
<event>
 5    1  0.2366700E-004  0.6650402E+03  0.7818608E-02  0.9778959E-01
         13   -1    0    0    0    0  0.00000000000E+00  0.00000000000E+00  0.10000000000E+04  0.10000000000E+04  0.00000000000E+00 0. -1.
          2   -1    0    0  501    0 -0.00000000000E+00 -0.00000000000E+00 -0.11056962360E+03  0.11056962360E+03  0.00000000000E+00 0. -1.
    9000006    2    1    2  501    0  0.00000000000E+00  0.00000000000E+00  0.88943037640E+03  0.11105696236E+04  0.66504022013E+03 0.  0.
         13    1    3    3    0    0 -0.55165593128E+02 -0.18963919395E+03  0.89144324764E+03  0.91305932463E+03  0.00000000000E+00 0. -1.
          4    1    3    3  501    0  0.55165593128E+02  0.18963919395E+03 -0.20128712319E+01  0.19751029896E+03  0.00000000000E+00 0. -1.
<mgrwt>
<rscale>  0 0.66504022E+03</rscale>
<asrwt>0</asrwt>
<pdfrwt beam="1">0</pdfrwt>
<pdfrwt beam="2">  1        2 0.40207221E+00 0.66504022E+03</pdfrwt>
<totfact> 0.39074728E+00</totfact>
</mgrwt>
</event>
<event>
 5    1  0.2366700E-004  0.6517378E+03  0.7818608E-02  0.9803524E-01
         13   -1    0    0    0    0  0.00000000000E+00  0.00000000000E+00  0.10000000000E+04  0.10000000000E+04  0.00000000000E+00 0. -1.
          2   -1    0    0  501    0 -0.00000000000E+00 -0.00000000000E+00 -0.10619053380E+03  0.10619053380E+03  0.00000000000E+00 0. -1.
    9000006    2    1    2  501    0  0.00000000000E+00  0.00000000000E+00  0.89380946620E+03  0.11061905338E+04  0.65173778101E+03 0.  0.
         13    1    3    3    0    0  0.94391634604E+02 -0.14508644247E+03  0.91552593047E+03  0.93174437795E+03  0.00000000000E+00 0. -1.
          4    1    3    3  501    0 -0.94391634604E+02  0.14508644247E+03 -0.21716464271E+02  0.17444615585E+03  0.00000000000E+00 0. -1.
<mgrwt>
<rscale>  0 0.65173778E+03</rscale>
<asrwt>0</asrwt>
<pdfrwt beam="1">0</pdfrwt>
<pdfrwt beam="2">  1        2 0.38614821E+00 0.65173778E+03</pdfrwt>
<totfact> 0.44852822E+00</totfact>
</mgrwt>
</event>
<event>
 5    1  0.2366700E-004  0.6550782E+03  0.7818608E-02  0.9797297E-01
         13   -1    0    0    0    0  0.00000000000E+00  0.00000000000E+00  0.10000000000E+04  0.10000000000E+04  0.00000000000E+00 0. -1.
          2   -1    0    0  501    0 -0.00000000000E+00 -0.00000000000E+00 -0.10728186226E+03  0.10728186226E+03  0.00000000000E+00 0. -1.
    9000006    2    1    2  501    0  0.00000000000E+00  0.00000000000E+00  0.89271813774E+03  0.11072818623E+04  0.65507820070E+03 0.  0.
         13    1    3    3    0    0 -0.14970621933E+03 -0.50936343071E+02  0.93120084934E+03  0.94453241604E+03  0.00000000000E+00 0. -1.
          2    1    3    3  501    0  0.14970621933E+03  0.50936343071E+02 -0.38482711594E+02  0.16274944621E+03  0.00000000000E+00 0. -1.
<mgrwt>
<rscale>  0 0.65507820E+03</rscale>
<asrwt>0</asrwt>
<pdfrwt beam="1">0</pdfrwt>
<pdfrwt beam="2">  1        2 0.39011669E+00 0.65507820E+03</pdfrwt>
<totfact> 0.43344918E+00</totfact>
</mgrwt>
</event>
<event>
 5    1  0.2366700E-004  0.6379095E+03  0.7818608E-02  0.9829734E-01
         13   -1    0    0    0    0  0.00000000000E+00  0.00000000000E+00  0.10000000000E+04  0.10000000000E+04  0.00000000000E+00 0. -1.
          2   -1    0    0  501    0 -0.00000000000E+00 -0.00000000000E+00 -0.10173212187E+03  0.10173212187E+03  0.00000000000E+00 0. -1.
    9000006    2    1    2  501    0  0.00000000000E+00  0.00000000000E+00  0.89826787813E+03  0.11017321219E+04  0.63790946651E+03 0.  0.
         13    1    3    3    0    0 -0.57952623031E+02 -0.69059725006E+02  0.97753663705E+03  0.98168509661E+03  0.00000000000E+00 0. -1.
          2    1    3    3  501    0  0.57952623031E+02  0.69059725006E+02 -0.79268758913E+02  0.12004702526E+03  0.00000000000E+00 0. -1.
<mgrwt>
<rscale>  0 0.63790947E+03</rscale>
<asrwt>0</asrwt>
<pdfrwt beam="1">0</pdfrwt>
<pdfrwt beam="2">  1        2 0.36993577E+00 0.63790947E+03</pdfrwt>
<totfact> 0.51521420E+00</totfact>
</mgrwt>
</event>
<event>
 5    1  0.2366700E-004  0.6417290E+03  0.7818608E-02  0.9822424E-01
         13   -1    0    0    0    0  0.00000000000E+00  0.00000000000E+00  0.10000000000E+04  0.10000000000E+04  0.00000000000E+00 0. -1.
          2   -1    0    0  501    0 -0.00000000000E+00 -0.00000000000E+00 -0.10295401606E+03  0.10295401606E+03  0.00000000000E+00 0. -1.
    9000006    2    1    2  501    0  0.00000000000E+00  0.00000000000E+00  0.89704598394E+03  0.11029540161E+04  0.64172896480E+03 0.  0.
         13    1    3    3    0    0 -0.27001224816E+03 -0.72391731751E+02  0.17782098274E+03  0.33131175482E+03  0.00000000000E+00 0. -1.
          4    1    3    3  501    0  0.27001224816E+03  0.72391731751E+02  0.71922500120E+03  0.77164226124E+03  0.00000000000E+00 0. -1.
<mgrwt>
<rscale>  0 0.64172896E+03</rscale>
<asrwt>0</asrwt>
<pdfrwt beam="1">0</pdfrwt>
<pdfrwt beam="2">  1        2 0.37437903E+00 0.64172896E+03</pdfrwt>
<totfact> 0.49609111E+00</totfact>
</mgrwt>
</event>
<event>
 5    1  0.2366700E-004  0.6399938E+03  0.7818608E-02  0.9825738E-01
         13   -1    0    0    0    0  0.00000000000E+00  0.00000000000E+00  0.10000000000E+04  0.10000000000E+04  0.00000000000E+00 0. -1.
          2   -1    0    0  501    0 -0.00000000000E+00 -0.00000000000E+00 -0.10239800652E+03  0.10239800652E+03  0.00000000000E+00 0. -1.
    9000006    2    1    2  501    0  0.00000000000E+00  0.00000000000E+00  0.89760199348E+03  0.11023980065E+04  0.63999377036E+03 0.  0.
         13    1    3    3    0    0 -0.31165303914E+03  0.35858167038E+01  0.57369846065E+03  0.65289386476E+03  0.00000000000E+00 0. -1.
          4    1    3    3  501    0  0.31165303914E+03 -0.35858167038E+01  0.32390353283E+03  0.44950414177E+03  0.00000000000E+00 0. -1.
<mgrwt>
<rscale>  0 0.63999377E+03</rscale>
<asrwt>0</asrwt>
<pdfrwt beam="1">0</pdfrwt>
<pdfrwt beam="2">  1        2 0.37235717E+00 0.63999377E+03</pdfrwt>
<totfact> 0.50471083E+00</totfact>
</mgrwt>
</event>
<event>
 5    1  0.2366700E-004  0.6510977E+03  0.7818608E-02  0.9804722E-01
         13   -1    0    0    0    0  0.00000000000E+00  0.00000000000E+00  0.10000000000E+04  0.10000000000E+04  0.00000000000E+00 0. -1.
          2   -1    0    0  501    0 -0.00000000000E+00 -0.00000000000E+00 -0.10598205404E+03  0.10598205404E+03  0.00000000000E+00 0. -1.
    9000006    2    1    2  501    0  0.00000000000E+00  0.00000000000E+00  0.89401794596E+03  0.11059820540E+04  0.65109770094E+03 0.  0.
         13    1    3    3    0    0  0.28090167359E+03  0.14145994556E+03  0.30422813886E+03  0.43757448154E+03  0.00000000000E+00 0. -1.
          2    1    3    3  501    0 -0.28090167359E+03 -0.14145994556E+03  0.58978980710E+03  0.66840757250E+03  0.00000000000E+00 0. -1.
<mgrwt>
<rscale>  0 0.65109770E+03</rscale>
<asrwt>0</asrwt>
<pdfrwt beam="1">0</pdfrwt>
<pdfrwt beam="2">  1        2 0.38539010E+00 0.65109770E+03</pdfrwt>
<totfact> 0.45146227E+00</totfact>
</mgrwt>
</event>
<event>
 5    1  0.2366700E-004  0.6435087E+03  0.7818608E-02  0.9819036E-01
         13   -1    0    0    0    0  0.00000000000E+00  0.00000000000E+00  0.10000000000E+04  0.10000000000E+04  0.00000000000E+00 0. -1.
          2   -1    0    0  501    0 -0.00000000000E+00 -0.00000000000E+00 -0.10352586713E+03  0.10352586713E+03  0.00000000000E+00 0. -1.
    9000006    2    1    2  501    0  0.00000000000E+00  0.00000000000E+00  0.89647413287E+03  0.11035258671E+04  0.64350871675E+03 0.  0.
         13    1    3    3    0    0 -0.28331319609E+03 -0.12341372585E+03  0.29458206366E+03  0.42693782573E+03  0.00000000000E+00 0. -1.
          4    1    3    3  501    0  0.28331319609E+03  0.12341372585E+03  0.60189206921E+03  0.67658804141E+03  0.00000000000E+00 0. -1.
<mgrwt>
<rscale>  0 0.64350872E+03</rscale>
<asrwt>0</asrwt>
<pdfrwt beam="1">0</pdfrwt>
<pdfrwt beam="2">  1        2 0.37645849E+00 0.64350872E+03</pdfrwt>
<totfact> 0.48736667E+00</totfact>
</mgrwt>
</event>
<event>
 5    1  0.2366700E-004  0.6454835E+03  0.7818608E-02  0.9815291E-01
         13   -1    0    0    0    0  0.00000000000E+00  0.00000000000E+00  0.10000000000E+04  0.10000000000E+04  0.00000000000E+00 0. -1.
          2   -1    0    0  501    0 -0.00000000000E+00 -0.00000000000E+00 -0.10416224011E+03  0.10416224011E+03  0.00000000000E+00 0. -1.
    9000006    2    1    2  501    0  0.00000000000E+00  0.00000000000E+00  0.89583775989E+03  0.11041622401E+04  0.64548350902E+03 0.  0.
         13    1    3    3    0    0  0.16990112406E+03  0.11410590898E+03  0.87480006431E+03  0.89842178454E+03  0.00000000000E+00 0. -1.
          2    1    3    3  501    0 -0.16990112406E+03 -0.11410590898E+03  0.21037695588E+02  0.20574045557E+03  0.00000000000E+00 0. -1.
<mgrwt>
<rscale>  0 0.64548351E+03</rscale>
<asrwt>0</asrwt>
<pdfrwt beam="1">0</pdfrwt>
<pdfrwt beam="2">  1        2 0.37877258E+00 0.64548351E+03</pdfrwt>
<totfact> 0.47782306E+00</totfact>
</mgrwt>
</event>
<event>
 5    1  0.2366700E-004  0.6474733E+03  0.7818608E-02  0.9811532E-01
         13   -1    0    0    0    0  0.00000000000E+00  0.00000000000E+00  0.10000000000E+04  0.10000000000E+04  0.00000000000E+00 0. -1.
          2   -1    0    0  501    0 -0.00000000000E+00 -0.00000000000E+00 -0.10480543068E+03  0.10480543068E+03  0.00000000000E+00 0. -1.
    9000006    2    1    2  501    0  0.00000000000E+00  0.00000000000E+00  0.89519456932E+03  0.11048054307E+04  0.64747333745E+03 0.  0.
         13    1    3    3    0    0 -0.26197842699E+03 -0.15979856973E+03  0.27161190671E+03  0.40980642621E+03  0.00000000000E+00 0. -1.
          4    1    3    3  501    0  0.26197842699E+03  0.15979856973E+03  0.62358266262E+03  0.69499900447E+03  0.00000000000E+00 0. -1.
<mgrwt>
<rscale>  0 0.64747334E+03</rscale>
<asrwt>0</asrwt>
<pdfrwt beam="1">0</pdfrwt>
<pdfrwt beam="2">  1        2 0.38111146E+00 0.64747334E+03</pdfrwt>
<totfact> 0.46835047E+00</totfact>
</mgrwt>
</event>
<event>
 5    1  0.2366700E-004  0.6646959E+03  0.7818608E-02  0.9779587E-01
         13   -1    0    0    0    0  0.00000000000E+00  0.00000000000E+00  0.10000000000E+04  0.10000000000E+04  0.00000000000E+00 0. -1.
          2   -1    0    0  501    0 -0.00000000000E+00 -0.00000000000E+00 -0.11045517302E+03  0.11045517302E+03  0.00000000000E+00 0. -1.
    9000006    2    1    2  501    0  0.00000000000E+00  0.00000000000E+00  0.88954482698E+03  0.11104551730E+04  0.66469593958E+03 0.  0.
         13    1    3    3    0    0 -0.14171109731E+03 -0.14260018683E+03  0.26465915085E+01  0.20105683980E+03  0.00000000000E+00 0. -1.
          4    1    3    3  501    0  0.14171109731E+03  0.14260018683E+03  0.88689823547E+03  0.90939833322E+03  0.00000000000E+00 0. -1.
<mgrwt>
<rscale>  0 0.66469594E+03</rscale>
<asrwt>0</asrwt>
<pdfrwt beam="1">0</pdfrwt>
<pdfrwt beam="2">  1        2 0.40165602E+00 0.66469594E+03</pdfrwt>
<totfact> 0.39216771E+00</totfact>
</mgrwt>
</event>
<event>
 5    1  0.2366700E-004  0.7001604E+03  0.7818608E-02  0.9716958E-01
         13   -1    0    0    0    0  0.00000000000E+00  0.00000000000E+00  0.10000000000E+04  0.10000000000E+04  0.00000000000E+00 0. -1.
          2   -1    0    0  501    0 -0.00000000000E+00 -0.00000000000E+00 -0.12255613216E+03  0.12255613216E+03  0.00000000000E+00 0. -1.
    9000006    2    1    2  501    0  0.00000000000E+00  0.00000000000E+00  0.87744386784E+03  0.11225561322E+04  0.70016035922E+03 0.  0.
         13    1    3    3    0    0 -0.31167625533E+03 -0.15847998107E+03  0.41103847225E+03  0.53963934086E+03  0.00000000000E+00 0. -1.
          4    1    3    3  501    0  0.31167625533E+03  0.15847998107E+03  0.46640539560E+03  0.58291679130E+03  0.00000000000E+00 0. -1.
<mgrwt>
<rscale>  0 0.70016036E+03</rscale>
<asrwt>0</asrwt>
<pdfrwt beam="1">0</pdfrwt>
<pdfrwt beam="2">  1        2 0.44565960E+00 0.70016036E+03</pdfrwt>
<totfact> 0.26500624E+00</totfact>
</mgrwt>
</event>
<event>
 5    1  0.2366700E-004  0.6469223E+03  0.7818608E-02  0.9812571E-01
         13   -1    0    0    0    0  0.00000000000E+00  0.00000000000E+00  0.10000000000E+04  0.10000000000E+04  0.00000000000E+00 0. -1.
          2   -1    0    0  501    0 -0.00000000000E+00 -0.00000000000E+00 -0.10462711425E+03  0.10462711425E+03  0.00000000000E+00 0. -1.
    9000006    2    1    2  501    0  0.00000000000E+00  0.00000000000E+00  0.89537288575E+03  0.11046271142E+04  0.64692229594E+03 0.  0.
         13    1    3    3    0    0 -0.90975039112E+02 -0.25912146888E+02 -0.80481923791E+02  0.12419837823E+03  0.00000000000E+00 0. -1.
          2    1    3    3  501    0  0.90975039112E+02  0.25912146888E+02  0.97585480954E+03  0.98042873602E+03  0.00000000000E+00 0. -1.
<mgrwt>
<rscale>  0 0.64692230E+03</rscale>
<asrwt>0</asrwt>
<pdfrwt beam="1">0</pdfrwt>
<pdfrwt beam="2">  1        2 0.38046304E+00 0.64692230E+03</pdfrwt>
<totfact> 0.47095936E+00</totfact>
</mgrwt>
</event>
<event>
 5    1  0.2366700E-004  0.6517649E+03  0.7818608E-02  0.9803473E-01
         13   -1    0    0    0    0  0.00000000000E+00  0.00000000000E+00  0.10000000000E+04  0.10000000000E+04  0.00000000000E+00 0. -1.
          2   -1    0    0  501    0 -0.00000000000E+00 -0.00000000000E+00 -0.10619935928E+03  0.10619935928E+03  0.00000000000E+00 0. -1.
    9000006    2    1    2  501    0  0.00000000000E+00  0.00000000000E+00  0.89380064072E+03  0.11061993593E+04  0.65176486335E+03 0.  0.
         13    1    3    3    0    0  0.28287204480E+03 -0.14949263180E+03  0.55200189140E+03  0.63802094699E+03  0.00000000000E+00 0. -1.
          4    1    3    3  501    0 -0.28287204480E+03  0.14949263180E+03  0.34179874932E+03  0.46817841228E+03  0.00000000000E+00 0. -1.
<mgrwt>
<rscale>  0 0.65176486E+03</rscale>
<asrwt>0</asrwt>
<pdfrwt beam="1">0</pdfrwt>
<pdfrwt beam="2">  1        2 0.38618030E+00 0.65176486E+03</pdfrwt>
<totfact> 0.44840440E+00</totfact>
</mgrwt>
</event>
<event>
 5    1  0.2366700E-004  0.6650598E+03  0.7818608E-02  0.9778924E-01
         13   -1    0    0    0    0  0.00000000000E+00  0.00000000000E+00  0.10000000000E+04  0.10000000000E+04  0.00000000000E+00 0. -1.
          2   -1    0    0  501    0 -0.00000000000E+00 -0.00000000000E+00 -0.11057613568E+03  0.11057613568E+03  0.00000000000E+00 0. -1.
    9000006    2    1    2  501    0  0.00000000000E+00  0.00000000000E+00  0.88942386432E+03  0.11105761357E+04  0.66505980387E+03 0.  0.
         13    1    3    3    0    0 -0.60938895068E+02  0.24377153490E+03  0.81005535456E+02  0.26400758878E+03  0.00000000000E+00 0. -1.
          4    1    3    3  501    0  0.60938895068E+02 -0.24377153490E+03  0.80841832886E+03  0.84656854690E+03  0.00000000000E+00 0. -1.
<mgrwt>
<rscale>  0 0.66505980E+03</rscale>
<asrwt>0</asrwt>
<pdfrwt beam="1">0</pdfrwt>
<pdfrwt beam="2">  1        2 0.40209589E+00 0.66505980E+03</pdfrwt>
<totfact> 0.39066660E+00</totfact>
</mgrwt>
</event>
<event>
 5    1  0.2366700E-004  0.6277008E+03  0.7818608E-02  0.9849546E-01
         13   -1    0    0    0    0  0.00000000000E+00  0.00000000000E+00  0.10000000000E+04  0.10000000000E+04  0.00000000000E+00 0. -1.
          2   -1    0    0  501    0 -0.00000000000E+00 -0.00000000000E+00 -0.98502085328E+02  0.98502085328E+02  0.00000000000E+00 0. -1.
    9000006    2    1    2  501    0  0.00000000000E+00  0.00000000000E+00  0.90149791467E+03  0.10985020853E+04  0.62770083743E+03 0.  0.
         13    1    3    3    0    0  0.26921549103E+03  0.11685045285E+03  0.64539784305E+03  0.70899180866E+03  0.00000000000E+00 0. -1.
          4    1    3    3  501    0 -0.26921549103E+03 -0.11685045285E+03  0.25610007162E+03  0.38951027666E+03  0.00000000000E+00 0. -1.
<mgrwt>
<rscale>  0 0.62770084E+03</rscale>
<asrwt>0</asrwt>
<pdfrwt beam="1">0</pdfrwt>
<pdfrwt beam="2">  1        2 0.35819016E+00 0.62770084E+03</pdfrwt>
<totfact> 0.56907261E+00</totfact>
</mgrwt>
</event>
<event>
 5    1  0.2366700E-004  0.6504971E+03  0.7818608E-02  0.9805847E-01
         13   -1    0    0    0    0  0.00000000000E+00  0.00000000000E+00  0.10000000000E+04  0.10000000000E+04  0.00000000000E+00 0. -1.
          2   -1    0    0  501    0 -0.00000000000E+00 -0.00000000000E+00 -0.10578660555E+03  0.10578660555E+03  0.00000000000E+00 0. -1.
    9000006    2    1    2  501    0  0.00000000000E+00  0.00000000000E+00  0.89421339445E+03  0.11057866055E+04  0.65049705779E+03 0.  0.
         13    1    3    3    0    0 -0.94191704261E+02  0.28333072324E+03  0.22783653101E+03  0.37557670421E+03  0.00000000000E+00 0. -1.
          4    1    3    3  501    0  0.94191704261E+02 -0.28333072324E+03  0.66637686344E+03  0.73020990134E+03  0.00000000000E+00 0. -1.
<mgrwt>
<rscale>  0 0.65049706E+03</rscale>
<asrwt>0</asrwt>
<pdfrwt beam="1">0</pdfrwt>
<pdfrwt beam="2">  1        2 0.38467938E+00 0.65049706E+03</pdfrwt>
<totfact> 0.45422871E+00</totfact>
</mgrwt>
</event>
<event>
 5    1  0.2366700E-004  0.6541023E+03  0.7818608E-02  0.9799112E-01
         13   -1    0    0    0    0  0.00000000000E+00  0.00000000000E+00  0.10000000000E+04  0.10000000000E+04  0.00000000000E+00 0. -1.
          2   -1    0    0  501    0 -0.00000000000E+00 -0.00000000000E+00 -0.10696245752E+03  0.10696245752E+03  0.00000000000E+00 0. -1.
    9000006    2    1    2  501    0  0.00000000000E+00  0.00000000000E+00  0.89303754248E+03  0.11069624575E+04  0.65410230857E+03 0.  0.
         13    1    3    3    0    0 -0.11922909668E+03 -0.17123924202E+03  0.87271934626E+03  0.89731684083E+03  0.00000000000E+00 0. -1.
          2    1    3    3  501    0  0.11922909668E+03  0.17123924202E+03  0.20318196222E+02  0.20964561669E+03  0.00000000000E+00 0. -1.
<mgrwt>
<rscale>  0 0.65410231E+03</rscale>
<asrwt>0</asrwt>
<pdfrwt beam="1">0</pdfrwt>
<pdfrwt beam="2">  1        2 0.38895521E+00 0.65410231E+03</pdfrwt>
<totfact> 0.43781425E+00</totfact>
</mgrwt>
</event>
<event>
 5    1  0.2366700E-004  0.6501649E+03  0.7818608E-02  0.9806470E-01
         13   -1    0    0    0    0  0.00000000000E+00  0.00000000000E+00  0.10000000000E+04  0.10000000000E+04  0.00000000000E+00 0. -1.
          2   -1    0    0  501    0 -0.00000000000E+00 -0.00000000000E+00 -0.10567858389E+03  0.10567858389E+03  0.00000000000E+00 0. -1.
    9000006    2    1    2  501    0  0.00000000000E+00  0.00000000000E+00  0.89432141611E+03  0.11056785839E+04  0.65016485259E+03 0.  0.
         13    1    3    3    0    0  0.29842197076E+03 -0.12848570237E+03  0.42897643118E+03  0.53813104989E+03  0.00000000000E+00 0. -1.
          4    1    3    3  501    0 -0.29842197076E+03  0.12848570237E+03  0.46534498493E+03  0.56754753400E+03  0.00000000000E+00 0. -1.
<mgrwt>
<rscale>  0 0.65016485E+03</rscale>
<asrwt>0</asrwt>
<pdfrwt beam="1">0</pdfrwt>
<pdfrwt beam="2">  1        2 0.38428657E+00 0.65016485E+03</pdfrwt>
<totfact> 0.45576427E+00</totfact>
</mgrwt>
</event>
<event>
 5    1  0.2366700E-004  0.6490636E+03  0.7818608E-02  0.9808538E-01
         13   -1    0    0    0    0  0.00000000000E+00  0.00000000000E+00  0.10000000000E+04  0.10000000000E+04  0.00000000000E+00 0. -1.
          2   -1    0    0  501    0 -0.00000000000E+00 -0.00000000000E+00 -0.10532089787E+03  0.10532089787E+03  0.00000000000E+00 0. -1.
    9000006    2    1    2  501    0  0.00000000000E+00  0.00000000000E+00  0.89467910213E+03  0.11053208979E+04  0.64906362667E+03 0.  0.
         13    1    3    3    0    0 -0.29097555445E+03  0.11772798495E+03  0.30697037613E+03  0.43904152828E+03  0.00000000000E+00 0. -1.
          2    1    3    3  501    0  0.29097555445E+03 -0.11772798495E+03  0.58770872600E+03  0.66627936959E+03  0.00000000000E+00 0. -1.
<mgrwt>
<rscale>  0 0.64906363E+03</rscale>
<asrwt>0</asrwt>
<pdfrwt beam="1">0</pdfrwt>
<pdfrwt beam="2">  1        2 0.38298589E+00 0.64906363E+03</pdfrwt>
<totfact> 0.46088256E+00</totfact>
</mgrwt>
</event>
<event>
 5    1  0.2366700E-004  0.6623887E+03  0.7818608E-02  0.9783806E-01
         13   -1    0    0    0    0  0.00000000000E+00  0.00000000000E+00  0.10000000000E+04  0.10000000000E+04  0.00000000000E+00 0. -1.
          2   -1    0    0  501    0 -0.00000000000E+00 -0.00000000000E+00 -0.10968970630E+03  0.10968970630E+03  0.00000000000E+00 0. -1.
    9000006    2    1    2  501    0  0.00000000000E+00  0.00000000000E+00  0.89031029370E+03  0.11096897063E+04  0.66238872667E+03 0.  0.
         13    1    3    3    0    0 -0.29501871370E+03 -0.54324678188E+02  0.68030744597E+03  0.74350886554E+03  0.00000000000E+00 0. -1.
          4    1    3    3  501    0  0.29501871370E+03  0.54324678188E+02  0.21000284772E+03  0.36618084076E+03  0.00000000000E+00 0. -1.
<mgrwt>
<rscale>  0 0.66238873E+03</rscale>
<asrwt>0</asrwt>
<pdfrwt beam="1">0</pdfrwt>
<pdfrwt beam="2">  1        2 0.39887250E+00 0.66238873E+03</pdfrwt>
<totfact> 0.40178754E+00</totfact>
</mgrwt>
</event>
<event>
 5    1  0.2366700E-004  0.6366563E+03  0.7818608E-02  0.9832145E-01
         13   -1    0    0    0    0  0.00000000000E+00  0.00000000000E+00  0.10000000000E+04  0.10000000000E+04  0.00000000000E+00 0. -1.
          2   -1    0    0  501    0 -0.00000000000E+00 -0.00000000000E+00 -0.10133279743E+03  0.10133279743E+03  0.00000000000E+00 0. -1.
    9000006    2    1    2  501    0  0.00000000000E+00  0.00000000000E+00  0.89866720257E+03  0.11013327974E+04  0.63665625713E+03 0.  0.
         13    1    3    3    0    0 -0.26974592046E+03  0.97062977526E+02  0.68871112484E+03  0.74599403261E+03  0.00000000000E+00 0. -1.
          4    1    3    3  501    0  0.26974592046E+03 -0.97062977526E+02  0.20995607773E+03  0.35533876482E+03  0.00000000000E+00 0. -1.
<mgrwt>
<rscale>  0 0.63665626E+03</rscale>
<asrwt>0</asrwt>
<pdfrwt beam="1">0</pdfrwt>
<pdfrwt beam="2">  1        2 0.36848368E+00 0.63665626E+03</pdfrwt>
<totfact> 0.52160866E+00</totfact>
</mgrwt>
</event>
<event>
 5    1  0.2366700E-004  0.6622801E+03  0.7818608E-02  0.9784005E-01
         13   -1    0    0    0    0  0.00000000000E+00  0.00000000000E+00  0.10000000000E+04  0.10000000000E+04  0.00000000000E+00 0. -1.
          2   -1    0    0  501    0 -0.00000000000E+00 -0.00000000000E+00 -0.10965373449E+03  0.10965373449E+03  0.00000000000E+00 0. -1.
    9000006    2    1    2  501    0  0.00000000000E+00  0.00000000000E+00  0.89034626551E+03  0.11096537345E+04  0.66228010537E+03 0.  0.
         13    1    3    3    0    0  0.28966036503E+03 -0.13576012551E+03  0.30182394021E+03  0.43980862842E+03  0.00000000000E+00 0. -1.
          2    1    3    3  501    0 -0.28966036503E+03  0.13576012551E+03  0.58852232530E+03  0.66984510607E+03  0.00000000000E+00 0. -1.
<mgrwt>
<rscale>  0 0.66228011E+03</rscale>
<asrwt>0</asrwt>
<pdfrwt beam="1">0</pdfrwt>
<pdfrwt beam="2">  1        2 0.39874169E+00 0.66228011E+03</pdfrwt>
<totfact> 0.40224478E+00</totfact>
</mgrwt>
</event>
<event>
 5    1  0.2366700E-004  0.6340527E+03  0.7818608E-02  0.9837172E-01
         13   -1    0    0    0    0  0.00000000000E+00  0.00000000000E+00  0.10000000000E+04  0.10000000000E+04  0.00000000000E+00 0. -1.
          2   -1    0    0  501    0 -0.00000000000E+00 -0.00000000000E+00 -0.10050569444E+03  0.10050569444E+03  0.00000000000E+00 0. -1.
    9000006    2    1    2  501    0  0.00000000000E+00  0.00000000000E+00  0.89949430556E+03  0.11005056944E+04  0.63405266168E+03 0.  0.
         13    1    3    3    0    0  0.12514848324E+03  0.47616546672E+02  0.94851041077E+03  0.95791517251E+03  0.00000000000E+00 0. -1.
          4    1    3    3  501    0 -0.12514848324E+03 -0.47616546672E+02 -0.49016105218E+02  0.14259052194E+03  0.00000000000E+00 0. -1.
<mgrwt>
<rscale>  0 0.63405266E+03</rscale>
<asrwt>0</asrwt>
<pdfrwt beam="1">0</pdfrwt>
<pdfrwt beam="2">  1        2 0.36547602E+00 0.63405266E+03</pdfrwt>
<totfact> 0.53508556E+00</totfact>
</mgrwt>
</event>
<event>
 5    1  0.2366700E-004  0.6476055E+03  0.7818608E-02  0.9811283E-01
         13   -1    0    0    0    0  0.00000000000E+00  0.00000000000E+00  0.10000000000E+04  0.10000000000E+04  0.00000000000E+00 0. -1.
          2   -1    0    0  501    0 -0.00000000000E+00 -0.00000000000E+00 -0.10484823591E+03  0.10484823591E+03  0.00000000000E+00 0. -1.
    9000006    2    1    2  501    0  0.00000000000E+00  0.00000000000E+00  0.89515176409E+03  0.11048482359E+04  0.64760554632E+03 0.  0.
         13    1    3    3    0    0 -0.83414887987E+02  0.31924334436E+02  0.97856916105E+03  0.98263666206E+03  0.00000000000E+00 0. -1.
          2    1    3    3  501    0  0.83414887987E+02 -0.31924334436E+02 -0.83417396956E+02  0.12221157385E+03  0.00000000000E+00 0. -1.
<mgrwt>
<rscale>  0 0.64760555E+03</rscale>
<asrwt>0</asrwt>
<pdfrwt beam="1">0</pdfrwt>
<pdfrwt beam="2">  1        2 0.38126712E+00 0.64760555E+03</pdfrwt>
<totfact> 0.46772616E+00</totfact>
</mgrwt>
</event>
<event>
 5    1  0.2366700E-004  0.6617215E+03  0.7818608E-02  0.9785030E-01
         13   -1    0    0    0    0  0.00000000000E+00  0.00000000000E+00  0.10000000000E+04  0.10000000000E+04  0.00000000000E+00 0. -1.
          2   -1    0    0  501    0 -0.00000000000E+00 -0.00000000000E+00 -0.10946883026E+03  0.10946883026E+03  0.00000000000E+00 0. -1.
    9000006    2    1    2  501    0  0.00000000000E+00  0.00000000000E+00  0.89053116974E+03  0.11094688303E+04  0.66172148298E+03 0.  0.
         13    1    3    3    0    0 -0.10741245486E+03  0.12309321408E+03  0.92765875882E+03  0.94193425866E+03  0.00000000000E+00 0. -1.
          4    1    3    3  501    0  0.10741245486E+03 -0.12309321408E+03 -0.37127589082E+02  0.16753457161E+03  0.00000000000E+00 0. -1.
<mgrwt>
<rscale>  0 0.66172148E+03</rscale>
<asrwt>0</asrwt>
<pdfrwt beam="1">0</pdfrwt>
<pdfrwt beam="2">  1        2 0.39806931E+00 0.66172148E+03</pdfrwt>
<totfact> 0.40460247E+00</totfact>
</mgrwt>
</event>
<event>
 5    1  0.2366700E-004  0.6784653E+03  0.7818608E-02  0.9754785E-01
         13   -1    0    0    0    0  0.00000000000E+00  0.00000000000E+00  0.10000000000E+04  0.10000000000E+04  0.00000000000E+00 0. -1.
          2   -1    0    0  501    0 -0.00000000000E+00 -0.00000000000E+00 -0.11507879167E+03  0.11507879167E+03  0.00000000000E+00 0. -1.
    9000006    2    1    2  501    0  0.00000000000E+00  0.00000000000E+00  0.88492120833E+03  0.11150787917E+04  0.67846530250E+03 0.  0.
         13    1    3    3    0    0 -0.21406411463E+02 -0.28172589094E+03  0.75103801069E+03  0.80242495324E+03  0.00000000000E+00 0. -1.
          4    1    3    3  501    0  0.21406411463E+02  0.28172589094E+03  0.13388319763E+03  0.31265383843E+03  0.00000000000E+00 0. -1.
<mgrwt>
<rscale>  0 0.67846530E+03</rscale>
<asrwt>0</asrwt>
<pdfrwt beam="1">0</pdfrwt>
<pdfrwt beam="2">  1        2 0.41846922E+00 0.67846530E+03</pdfrwt>
<totfact> 0.33831638E+00</totfact>
</mgrwt>
</event>
<event>
 5    1  0.2366700E-004  0.6474869E+03  0.7818608E-02  0.9811506E-01
         13   -1    0    0    0    0  0.00000000000E+00  0.00000000000E+00  0.10000000000E+04  0.10000000000E+04  0.00000000000E+00 0. -1.
          2   -1    0    0  501    0 -0.00000000000E+00 -0.00000000000E+00 -0.10480983469E+03  0.10480983469E+03  0.00000000000E+00 0. -1.
    9000006    2    1    2  501    0  0.00000000000E+00  0.00000000000E+00  0.89519016531E+03  0.11048098347E+04  0.64748694098E+03 0.  0.
         13    1    3    3    0    0 -0.29680196588E+03 -0.45938247641E+02  0.24136431383E+03  0.38530307751E+03  0.00000000000E+00 0. -1.
          2    1    3    3  501    0  0.29680196588E+03  0.45938247641E+02  0.65382585149E+03  0.71950675718E+03  0.00000000000E+00 0. -1.
<mgrwt>
<rscale>  0 0.64748694E+03</rscale>
<asrwt>0</asrwt>
<pdfrwt beam="1">0</pdfrwt>
<pdfrwt beam="2">  1        2 0.38112748E+00 0.64748694E+03</pdfrwt>
<totfact> 0.46828621E+00</totfact>
</mgrwt>
</event>
<event>
 5    1  0.2366700E-004  0.6284138E+03  0.7818608E-02  0.9848149E-01
         13   -1    0    0    0    0  0.00000000000E+00  0.00000000000E+00  0.10000000000E+04  0.10000000000E+04  0.00000000000E+00 0. -1.
          2   -1    0    0  501    0 -0.00000000000E+00 -0.00000000000E+00 -0.98725965033E+02  0.98725965033E+02  0.00000000000E+00 0. -1.
    9000006    2    1    2  501    0  0.00000000000E+00  0.00000000000E+00  0.90127403497E+03  0.10987259650E+04  0.62841376507E+03 0.  0.
         13    1    3    3    0    0 -0.88228449248E+02  0.24843123818E+03  0.74952657808E+03  0.79453913095E+03  0.00000000000E+00 0. -1.
          2    1    3    3  501    0  0.88228449248E+02 -0.24843123818E+03  0.15174745688E+03  0.30418683408E+03  0.00000000000E+00 0. -1.
<mgrwt>
<rscale>  0 0.62841377E+03</rscale>
<asrwt>0</asrwt>
<pdfrwt beam="1">0</pdfrwt>
<pdfrwt beam="2">  1        2 0.35900427E+00 0.62841377E+03</pdfrwt>
<totfact> 0.56517842E+00</totfact>
</mgrwt>
</event>
<event>
 5    1  0.2366700E-004  0.6482128E+03  0.7818608E-02  0.9810139E-01
         13   -1    0    0    0    0  0.00000000000E+00  0.00000000000E+00  0.10000000000E+04  0.10000000000E+04  0.00000000000E+00 0. -1.
          2   -1    0    0  501    0 -0.00000000000E+00 -0.00000000000E+00 -0.10504495983E+03  0.10504495983E+03  0.00000000000E+00 0. -1.
    9000006    2    1    2  501    0  0.00000000000E+00  0.00000000000E+00  0.89495504017E+03  0.11050449598E+04  0.64821280404E+03 0.  0.
         13    1    3    3    0    0 -0.80581826853E+02  0.12929662194E+03  0.93515084468E+03  0.94747989402E+03  0.00000000000E+00 0. -1.
          2    1    3    3  501    0  0.80581826853E+02 -0.12929662194E+03 -0.40195804513E+02  0.15756506581E+03  0.00000000000E+00 0. -1.
<mgrwt>
<rscale>  0 0.64821280E+03</rscale>
<asrwt>0</asrwt>
<pdfrwt beam="1">0</pdfrwt>
<pdfrwt beam="2">  1        2 0.38198248E+00 0.64821280E+03</pdfrwt>
<totfact> 0.46486669E+00</totfact>
</mgrwt>
</event>
<event>
 5    1  0.2366700E-004  0.6464853E+03  0.7818608E-02  0.9813397E-01
         13   -1    0    0    0    0  0.00000000000E+00  0.00000000000E+00  0.10000000000E+04  0.10000000000E+04  0.00000000000E+00 0. -1.
          2   -1    0    0  501    0 -0.00000000000E+00 -0.00000000000E+00 -0.10448581346E+03  0.10448581346E+03  0.00000000000E+00 0. -1.
    9000006    2    1    2  501    0  0.00000000000E+00  0.00000000000E+00  0.89551418654E+03  0.11044858135E+04  0.64648530828E+03 0.  0.
         13    1    3    3    0    0  0.63893422556E+01  0.23993056958E+03  0.77854426211E+02  0.25232679920E+03  0.00000000000E+00 0. -1.
          4    1    3    3  501    0 -0.63893422556E+01 -0.23993056958E+03  0.81765976033E+03  0.85215901426E+03  0.00000000000E+00 0. -1.
<mgrwt>
<rscale>  0 0.64648531E+03</rscale>
<asrwt>0</asrwt>
<pdfrwt beam="1">0</pdfrwt>
<pdfrwt beam="2">  1        2 0.37994921E+00 0.64648531E+03</pdfrwt>
<totfact> 0.47303606E+00</totfact>
</mgrwt>
</event>
<event>
 5    1  0.2366700E-004  0.6435557E+03  0.7818608E-02  0.9818947E-01
         13   -1    0    0    0    0  0.00000000000E+00  0.00000000000E+00  0.10000000000E+04  0.10000000000E+04  0.00000000000E+00 0. -1.
          2   -1    0    0  501    0 -0.00000000000E+00 -0.00000000000E+00 -0.10354097241E+03  0.10354097241E+03  0.00000000000E+00 0. -1.
    9000006    2    1    2  501    0  0.00000000000E+00  0.00000000000E+00  0.89645902759E+03  0.11035409724E+04  0.64355566166E+03 0.  0.
         13    1    3    3    0    0  0.54082822468E+02 -0.28200293678E+03  0.19920368823E+03  0.34947491676E+03  0.00000000000E+00 0. -1.
          2    1    3    3  501    0 -0.54082822468E+02  0.28200293678E+03  0.69725533935E+03  0.75406605566E+03  0.00000000000E+00 0. -1.
<mgrwt>
<rscale>  0 0.64355566E+03</rscale>
<asrwt>0</asrwt>
<pdfrwt beam="1">0</pdfrwt>
<pdfrwt beam="2">  1        2 0.37651342E+00 0.64355566E+03</pdfrwt>
<totfact> 0.48713813E+00</totfact>
</mgrwt>
</event>
<event>
 5    1  0.2366700E-004  0.6498297E+03  0.7818608E-02  0.9807099E-01
         13   -1    0    0    0    0  0.00000000000E+00  0.00000000000E+00  0.10000000000E+04  0.10000000000E+04  0.00000000000E+00 0. -1.
          2   -1    0    0  501    0 -0.00000000000E+00 -0.00000000000E+00 -0.10556966753E+03  0.10556966753E+03  0.00000000000E+00 0. -1.
    9000006    2    1    2  501    0  0.00000000000E+00  0.00000000000E+00  0.89443033247E+03  0.11055696675E+04  0.64982972394E+03 0.  0.
         13    1    3    3    0    0  0.14882459253E+03 -0.22053832035E+02  0.93716797722E+03  0.94916750281E+03  0.00000000000E+00 0. -1.
          4    1    3    3  501    0 -0.14882459253E+03  0.22053832035E+02 -0.42737644753E+02  0.15640216472E+03  0.00000000000E+00 0. -1.
<mgrwt>
<rscale>  0 0.64982972E+03</rscale>
<asrwt>0</asrwt>
<pdfrwt beam="1">0</pdfrwt>
<pdfrwt beam="2">  1        2 0.38389051E+00 0.64982972E+03</pdfrwt>
<totfact> 0.45731731E+00</totfact>
</mgrwt>
</event>
<event>
 5    1  0.2366700E-004  0.6494549E+03  0.7818608E-02  0.9807803E-01
         13   -1    0    0    0    0  0.00000000000E+00  0.00000000000E+00  0.10000000000E+04  0.10000000000E+04  0.00000000000E+00 0. -1.
          2   -1    0    0  501    0 -0.00000000000E+00 -0.00000000000E+00 -0.10544791768E+03  0.10544791768E+03  0.00000000000E+00 0. -1.
    9000006    2    1    2  501    0  0.00000000000E+00  0.00000000000E+00  0.89455208232E+03  0.11054479177E+04  0.64945490275E+03 0.  0.
         13    1    3    3    0    0 -0.21020444403E+03 -0.10842141067E+03  0.82599909729E+03  0.85919475051E+03  0.00000000000E+00 0. -1.
          2    1    3    3  501    0  0.21020444403E+03  0.10842141067E+03  0.68552985034E+02  0.24625316717E+03  0.00000000000E+00 0. -1.
<mgrwt>
<rscale>  0 0.64945490E+03</rscale>
<asrwt>0</asrwt>
<pdfrwt beam="1">0</pdfrwt>
<pdfrwt beam="2">  1        2 0.38344778E+00 0.64945490E+03</pdfrwt>
<totfact> 0.45905904E+00</totfact>
</mgrwt>
</event>
<event>
 5    1  0.2366700E-004  0.6017869E+03  0.7818608E-02  0.9901706E-01
         13   -1    0    0    0    0  0.00000000000E+00  0.00000000000E+00  0.10000000000E+04  0.10000000000E+04  0.00000000000E+00 0. -1.
          2   -1    0    0  501    0 -0.00000000000E+00 -0.00000000000E+00 -0.90536873192E+02  0.90536873192E+02  0.00000000000E+00 0. -1.
    9000006    2    1    2  501    0  0.00000000000E+00  0.00000000000E+00  0.90946312681E+03  0.10905368732E+04  0.60178691642E+03 0.  0.
         13    1    3    3    0    0  0.84283665108E+01 -0.28626765441E+03  0.62196858237E+03  0.68473726698E+03  0.00000000000E+00 0. -1.
          4    1    3    3  501    0 -0.84283665108E+01  0.28626765441E+03  0.28749454443E+03  0.40579960622E+03  0.00000000000E+00 0. -1.
<mgrwt>
<rscale>  0 0.60178692E+03</rscale>
<asrwt>0</asrwt>
<pdfrwt beam="1">0</pdfrwt>
<pdfrwt beam="2">  1        2 0.32922569E+00 0.60178692E+03</pdfrwt>
<totfact> 0.72508289E+00</totfact>
</mgrwt>
</event>
<event>
 5    1  0.2366700E-004  0.6232067E+03  0.7818608E-02  0.9858396E-01
         13   -1    0    0    0    0  0.00000000000E+00  0.00000000000E+00  0.10000000000E+04  0.10000000000E+04  0.00000000000E+00 0. -1.
          2   -1    0    0  501    0 -0.00000000000E+00 -0.00000000000E+00 -0.97096649444E+02  0.97096649444E+02  0.00000000000E+00 0. -1.
    9000006    2    1    2  501    0  0.00000000000E+00  0.00000000000E+00  0.90290335056E+03  0.10970966494E+04  0.62320670550E+03 0.  0.
         13    1    3    3    0    0 -0.16086675095E+03 -0.25531389146E+03  0.58819061265E+03  0.66108357380E+03  0.00000000000E+00 0. -1.
          2    1    3    3  501    0  0.16086675095E+03  0.25531389146E+03  0.31471273790E+03  0.43601307564E+03  0.00000000000E+00 0. -1.
<mgrwt>
<rscale>  0 0.62320671E+03</rscale>
<asrwt>0</asrwt>
<pdfrwt beam="1">0</pdfrwt>
<pdfrwt beam="2">  1        2 0.35307947E+00 0.62320671E+03</pdfrwt>
<totfact> 0.59409409E+00</totfact>
</mgrwt>
</event>
<event>
 5    1  0.2366700E-004  0.6467938E+03  0.7818608E-02  0.9812814E-01
         13   -1    0    0    0    0  0.00000000000E+00  0.00000000000E+00  0.10000000000E+04  0.10000000000E+04  0.00000000000E+00 0. -1.
          2   -1    0    0  501    0 -0.00000000000E+00 -0.00000000000E+00 -0.10458554196E+03  0.10458554196E+03  0.00000000000E+00 0. -1.
    9000006    2    1    2  501    0  0.00000000000E+00  0.00000000000E+00  0.89541445804E+03  0.11045855420E+04  0.64679375989E+03 0.  0.
         13    1    3    3    0    0 -0.58880468164E+02  0.28181323531E+03  0.19613498255E+03  0.34835978601E+03  0.00000000000E+00 0. -1.
          2    1    3    3  501    0  0.58880468164E+02 -0.28181323531E+03  0.69927947549E+03  0.75622575595E+03  0.00000000000E+00 0. -1.
<mgrwt>
<rscale>  0 0.64679376E+03</rscale>
<asrwt>0</asrwt>
<pdfrwt beam="1">0</pdfrwt>
<pdfrwt beam="2">  1        2 0.38031186E+00 0.64679376E+03</pdfrwt>
<totfact> 0.47156948E+00</totfact>
</mgrwt>
</event>
<event>
 5    1  0.2366700E-004  0.5188371E+03  0.7818608E-02  0.1008976E+00
         13   -1    0    0    0    0  0.00000000000E+00  0.00000000000E+00  0.10000000000E+04  0.10000000000E+04  0.00000000000E+00 0. -1.
          2   -1    0    0  501    0 -0.00000000000E+00 -0.00000000000E+00 -0.67297995078E+02  0.67297995078E+02  0.00000000000E+00 0. -1.
    9000006    2    1    2  501    0  0.00000000000E+00  0.00000000000E+00  0.93270200492E+03  0.10672979951E+04  0.51883714238E+03 0.  0.
         13    1    3    3    0    0  0.21618592644E+03 -0.13613834505E+03  0.37371332078E+03  0.45269377057E+03  0.00000000000E+00 0. -1.
          2    1    3    3  501    0 -0.21618592644E+03  0.13613834505E+03  0.55898868414E+03  0.61460422451E+03  0.00000000000E+00 0. -1.
<mgrwt>
<rscale>  0 0.51883714E+03</rscale>
<asrwt>0</asrwt>
<pdfrwt beam="1">0</pdfrwt>
<pdfrwt beam="2">  1        2 0.24472050E+00 0.51883714E+03</pdfrwt>
<totfact> 0.14563210E+01</totfact>
</mgrwt>
</event>
<event>
 5    1  0.2366700E-004  0.5598099E+03  0.7818608E-02  0.9992485E-01
         13   -1    0    0    0    0  0.00000000000E+00  0.00000000000E+00  0.10000000000E+04  0.10000000000E+04  0.00000000000E+00 0. -1.
          2   -1    0    0  501    0 -0.00000000000E+00 -0.00000000000E+00 -0.78346787978E+02  0.78346787978E+02  0.00000000000E+00 0. -1.
    9000006    2    1    2  501    0  0.00000000000E+00  0.00000000000E+00  0.92165321202E+03  0.10783467880E+04  0.55980992481E+03 0.  0.
         13    1    3    3    0    0  0.71398498953E+02  0.21524807013E+03  0.14479269296E+03  0.26906207700E+03  0.00000000000E+00 0. -1.
          4    1    3    3  501    0 -0.71398498953E+02 -0.21524807013E+03  0.77686051906E+03  0.80928471097E+03  0.00000000000E+00 0. -1.
<mgrwt>
<rscale>  0 0.55980992E+03</rscale>
<asrwt>0</asrwt>
<pdfrwt beam="1">0</pdfrwt>
<pdfrwt beam="2">  1        2 0.28489801E+00 0.55980992E+03</pdfrwt>
<totfact> 0.10454771E+01</totfact>
</mgrwt>
</event>
<event>
 5    1  0.2366700E-004  0.6372608E+03  0.7818608E-02  0.9830981E-01
         13   -1    0    0    0    0  0.00000000000E+00  0.00000000000E+00  0.10000000000E+04  0.10000000000E+04  0.00000000000E+00 0. -1.
          2   -1    0    0  501    0 -0.00000000000E+00 -0.00000000000E+00 -0.10152533190E+03  0.10152533190E+03  0.00000000000E+00 0. -1.
    9000006    2    1    2  501    0  0.00000000000E+00  0.00000000000E+00  0.89847466810E+03  0.11015253319E+04  0.63726080030E+03 0.  0.
         13    1    3    3    0    0 -0.56736675311E+02  0.27072267816E+03  0.72262693568E+03  0.77375674922E+03  0.00000000000E+00 0. -1.
          4    1    3    3  501    0  0.56736675311E+02 -0.27072267816E+03  0.17584773243E+03  0.32776858268E+03  0.00000000000E+00 0. -1.
<mgrwt>
<rscale>  0 0.63726080E+03</rscale>
<asrwt>0</asrwt>
<pdfrwt beam="1">0</pdfrwt>
<pdfrwt beam="2">  1        2 0.36918380E+00 0.63726080E+03</pdfrwt>
<totfact> 0.51851654E+00</totfact>
</mgrwt>
</event>
<event>
 5    1  0.2366700E-004  0.6396479E+03  0.7818608E-02  0.9826400E-01
         13   -1    0    0    0    0  0.00000000000E+00  0.00000000000E+00  0.10000000000E+04  0.10000000000E+04  0.00000000000E+00 0. -1.
          2   -1    0    0  501    0 -0.00000000000E+00 -0.00000000000E+00 -0.10228735557E+03  0.10228735557E+03  0.00000000000E+00 0. -1.
    9000006    2    1    2  501    0  0.00000000000E+00  0.00000000000E+00  0.89771264443E+03  0.11022873556E+04  0.63964788928E+03 0.  0.
         13    1    3    3    0    0  0.53227083957E+01  0.65406266934E+02 -0.90560997907E+02  0.11183740573E+03  0.00000000000E+00 0. -1.
          4    1    3    3  501    0 -0.53227083957E+01 -0.65406266934E+02  0.98827364234E+03  0.99044994983E+03  0.00000000000E+00 0. -1.
<mgrwt>
<rscale>  0 0.63964789E+03</rscale>
<asrwt>0</asrwt>
<pdfrwt beam="1">0</pdfrwt>
<pdfrwt beam="2">  1        2 0.37195480E+00 0.63964789E+03</pdfrwt>
<totfact> 0.50644249E+00</totfact>
</mgrwt>
</event>
<event>
 5    1  0.2366700E-004  0.6390744E+03  0.7818608E-02  0.9827499E-01
         13   -1    0    0    0    0  0.00000000000E+00  0.00000000000E+00  0.10000000000E+04  0.10000000000E+04  0.00000000000E+00 0. -1.
          2   -1    0    0  501    0 -0.00000000000E+00 -0.00000000000E+00 -0.10210401338E+03  0.10210401338E+03  0.00000000000E+00 0. -1.
    9000006    2    1    2  501    0  0.00000000000E+00  0.00000000000E+00  0.89789598662E+03  0.11021040134E+04  0.63907437245E+03 0.  0.
         13    1    3    3    0    0  0.46825438993E+02 -0.10801363721E+03  0.96123680576E+03  0.96841920897E+03  0.00000000000E+00 0. -1.
          4    1    3    3  501    0 -0.46825438993E+02  0.10801363721E+03 -0.63340819138E+02  0.13368480441E+03  0.00000000000E+00 0. -1.
<mgrwt>
<rscale>  0 0.63907437E+03</rscale>
<asrwt>0</asrwt>
<pdfrwt beam="1">0</pdfrwt>
<pdfrwt beam="2">  1        2 0.37128810E+00 0.63907437E+03</pdfrwt>
<totfact> 0.50932373E+00</totfact>
</mgrwt>
</event>
<event>
 5    1  0.2366700E-004  0.7016256E+03  0.7818608E-02  0.9714456E-01
         13   -1    0    0    0    0  0.00000000000E+00  0.00000000000E+00  0.10000000000E+04  0.10000000000E+04  0.00000000000E+00 0. -1.
          2   -1    0    0  501    0 -0.00000000000E+00 -0.00000000000E+00 -0.12306963432E+03  0.12306963432E+03  0.00000000000E+00 0. -1.
    9000006    2    1    2  501    0  0.00000000000E+00  0.00000000000E+00  0.87693036568E+03  0.11230696343E+04  0.70162563900E+03 0.  0.
         13    1    3    3    0    0 -0.17639420705E+02  0.31385266554E+03  0.68775341604E+03  0.75618741467E+03  0.00000000000E+00 0. -1.
          2    1    3    3  501    0  0.17639420705E+02 -0.31385266554E+03  0.18917694963E+03  0.36688221965E+03  0.00000000000E+00 0. -1.
<mgrwt>
<rscale>  0 0.70162564E+03</rscale>
<asrwt>0</asrwt>
<pdfrwt beam="1">0</pdfrwt>
<pdfrwt beam="2">  1        2 0.44752689E+00 0.70162564E+03</pdfrwt>
<totfact> 0.26052885E+00</totfact>
</mgrwt>
</event>
<event>
 5    1  0.2366700E-004  0.6330555E+03  0.7818608E-02  0.9839104E-01
         13   -1    0    0    0    0  0.00000000000E+00  0.00000000000E+00  0.10000000000E+04  0.10000000000E+04  0.00000000000E+00 0. -1.
          2   -1    0    0  501    0 -0.00000000000E+00 -0.00000000000E+00 -0.10018982457E+03  0.10018982457E+03  0.00000000000E+00 0. -1.
    9000006    2    1    2  501    0  0.00000000000E+00  0.00000000000E+00  0.89981017543E+03  0.11001898246E+04  0.63305552543E+03 0.  0.
         13    1    3    3    0    0 -0.31408655356E+03 -0.43089686906E+01  0.51768099285E+03  0.60552666390E+03  0.00000000000E+00 0. -1.
          4    1    3    3  501    0  0.31408655356E+03  0.43089686906E+01  0.38212918258E+03  0.49466316067E+03  0.00000000000E+00 0. -1.
<mgrwt>
<rscale>  0 0.63305553E+03</rscale>
<asrwt>0</asrwt>
<pdfrwt beam="1">0</pdfrwt>
<pdfrwt beam="2">  1        2 0.36432740E+00 0.63305553E+03</pdfrwt>
<totfact> 0.54031630E+00</totfact>
</mgrwt>
</event>
<event>
 5    1  0.2366700E-004  0.6287121E+03  0.7818608E-02  0.9847565E-01
         13   -1    0    0    0    0  0.00000000000E+00  0.00000000000E+00  0.10000000000E+04  0.10000000000E+04  0.00000000000E+00 0. -1.
          4   -1    0    0  501    0 -0.00000000000E+00 -0.00000000000E+00 -0.98819717367E+02  0.98819717367E+02  0.00000000000E+00 0. -1.
    9000006    2    1    2  501    0  0.00000000000E+00  0.00000000000E+00  0.90118028263E+03  0.10988197174E+04  0.62871207199E+03 0.  0.
         13    1    3    3    0    0 -0.34837878669E+02 -0.30981523969E+03  0.38023322803E+03  0.49170770609E+03  0.00000000000E+00 0. -1.
          4    1    3    3  501    0  0.34837878669E+02  0.30981523969E+03  0.52094705461E+03  0.60711201128E+03  0.00000000000E+00 0. -1.
<mgrwt>
<rscale>  0 0.62871207E+03</rscale>
<asrwt>0</asrwt>
<pdfrwt beam="1">0</pdfrwt>
<pdfrwt beam="2">  1        4 0.35934518E+00 0.62871207E+03</pdfrwt>
<totfact> 0.60126267E-02</totfact>
</mgrwt>
</event>
<event>
 5    1  0.2366700E-004  0.6628983E+03  0.7818608E-02  0.9782873E-01
         13   -1    0    0    0    0  0.00000000000E+00  0.00000000000E+00  0.10000000000E+04  0.10000000000E+04  0.00000000000E+00 0. -1.
          2   -1    0    0  501    0 -0.00000000000E+00 -0.00000000000E+00 -0.10985853589E+03  0.10985853589E+03  0.00000000000E+00 0. -1.
    9000006    2    1    2  501    0  0.00000000000E+00  0.00000000000E+00  0.89014146411E+03  0.11098585359E+04  0.66289829050E+03 0.  0.
         13    1    3    3    0    0 -0.50794234074E+02  0.27125113140E+03  0.13771303813E+03  0.30841872733E+03  0.00000000000E+00 0. -1.
          2    1    3    3  501    0  0.50794234074E+02 -0.27125113140E+03  0.75242842599E+03  0.80143980855E+03  0.00000000000E+00 0. -1.
<mgrwt>
<rscale>  0 0.66289829E+03</rscale>
<asrwt>0</asrwt>
<pdfrwt beam="1">0</pdfrwt>
<pdfrwt beam="2">  1        2 0.39948643E+00 0.66289829E+03</pdfrwt>
<totfact> 0.39964779E+00</totfact>
</mgrwt>
</event>
<event>
 5    1  0.2366700E-004  0.6591906E+03  0.7818608E-02  0.9789685E-01
         13   -1    0    0    0    0  0.00000000000E+00  0.00000000000E+00  0.10000000000E+04  0.10000000000E+04  0.00000000000E+00 0. -1.
          2   -1    0    0  501    0 -0.00000000000E+00 -0.00000000000E+00 -0.10863304750E+03  0.10863304750E+03  0.00000000000E+00 0. -1.
    9000006    2    1    2  501    0  0.00000000000E+00  0.00000000000E+00  0.89136695250E+03  0.11086330475E+04  0.65919055665E+03 0.  0.
         13    1    3    3    0    0  0.25923971574E+03  0.16791704320E+03  0.63914045523E+03  0.70986046877E+03  0.00000000000E+00 0. -1.
          2    1    3    3  501    0 -0.25923971574E+03 -0.16791704320E+03  0.25222649727E+03  0.39877257872E+03  0.00000000000E+00 0. -1.
<mgrwt>
<rscale>  0 0.65919056E+03</rscale>
<asrwt>0</asrwt>
<pdfrwt beam="1">0</pdfrwt>
<pdfrwt beam="2">  1        2 0.39503010E+00 0.65919056E+03</pdfrwt>
<totfact> 0.41541532E+00</totfact>
</mgrwt>
</event>
<event>
 5    1  0.2366700E-004  0.6528504E+03  0.7818608E-02  0.9801445E-01
         13   -1    0    0    0    0  0.00000000000E+00  0.00000000000E+00  0.10000000000E+04  0.10000000000E+04  0.00000000000E+00 0. -1.
          2   -1    0    0  501    0 -0.00000000000E+00 -0.00000000000E+00 -0.10655341053E+03  0.10655341053E+03  0.00000000000E+00 0. -1.
    9000006    2    1    2  501    0  0.00000000000E+00  0.00000000000E+00  0.89344658947E+03  0.11065534105E+04  0.65285039797E+03 0.  0.
         13    1    3    3    0    0  0.21011588757E+03 -0.23696900207E+03  0.31272070779E+03  0.44508115578E+03  0.00000000000E+00 0. -1.
          2    1    3    3  501    0 -0.21011588757E+03  0.23696900207E+03  0.58072588168E+03  0.66147225475E+03  0.00000000000E+00 0. -1.
<mgrwt>
<rscale>  0 0.65285040E+03</rscale>
<asrwt>0</asrwt>
<pdfrwt beam="1">0</pdfrwt>
<pdfrwt beam="2">  1        2 0.38746776E+00 0.65285040E+03</pdfrwt>
<totfact> 0.44346244E+00</totfact>
</mgrwt>
</event>
<event>
 5    1  0.2366700E-004  0.6368155E+03  0.7818608E-02  0.9831838E-01
         13   -1    0    0    0    0  0.00000000000E+00  0.00000000000E+00  0.10000000000E+04  0.10000000000E+04  0.00000000000E+00 0. -1.
          2   -1    0    0  501    0 -0.00000000000E+00 -0.00000000000E+00 -0.10138349611E+03  0.10138349611E+03  0.00000000000E+00 0. -1.
    9000006    2    1    2  501    0  0.00000000000E+00  0.00000000000E+00  0.89861650389E+03  0.11013834961E+04  0.63681550267E+03 0.  0.
         13    1    3    3    0    0 -0.15578339595E+03 -0.27465536156E+03  0.37843048428E+03  0.49286272482E+03  0.00000000000E+00 0. -1.
          2    1    3    3  501    0  0.15578339595E+03  0.27465536156E+03  0.52018601961E+03  0.60852077129E+03  0.00000000000E+00 0. -1.
<mgrwt>
<rscale>  0 0.63681550E+03</rscale>
<asrwt>0</asrwt>
<pdfrwt beam="1">0</pdfrwt>
<pdfrwt beam="2">  1        2 0.36866804E+00 0.63681550E+03</pdfrwt>
<totfact> 0.52079280E+00</totfact>
</mgrwt>
</event>
<event>
 5    1  0.2366700E-004  0.6489392E+03  0.7818608E-02  0.9808772E-01
         13   -1    0    0    0    0  0.00000000000E+00  0.00000000000E+00  0.10000000000E+04  0.10000000000E+04  0.00000000000E+00 0. -1.
          2   -1    0    0  501    0 -0.00000000000E+00 -0.00000000000E+00 -0.10528052591E+03  0.10528052591E+03  0.00000000000E+00 0. -1.
    9000006    2    1    2  501    0  0.00000000000E+00  0.00000000000E+00  0.89471947409E+03  0.11052805259E+04  0.64893921412E+03 0.  0.
         13    1    3    3    0    0  0.17809721117E+03 -0.24797069207E+03  0.63449951947E+03  0.70412905135E+03  0.00000000000E+00 0. -1.
          4    1    3    3  501    0 -0.17809721117E+03  0.24797069207E+03  0.26021995463E+03  0.40115147455E+03  0.00000000000E+00 0. -1.
<mgrwt>
<rscale>  0 0.64893921E+03</rscale>
<asrwt>0</asrwt>
<pdfrwt beam="1">0</pdfrwt>
<pdfrwt beam="2">  1        2 0.38283908E+00 0.64893921E+03</pdfrwt>
<totfact> 0.46146353E+00</totfact>
</mgrwt>
</event>
<event>
 5    1  0.2366700E-004  0.6522350E+03  0.7818608E-02  0.9802594E-01
         13   -1    0    0    0    0  0.00000000000E+00  0.00000000000E+00  0.10000000000E+04  0.10000000000E+04  0.00000000000E+00 0. -1.
          2   -1    0    0  501    0 -0.00000000000E+00 -0.00000000000E+00 -0.10635262171E+03  0.10635262171E+03  0.00000000000E+00 0. -1.
    9000006    2    1    2  501    0  0.00000000000E+00  0.00000000000E+00  0.89364737829E+03  0.11063526217E+04  0.65223499357E+03 0.  0.
         13    1    3    3    0    0  0.10248443975E+03  0.59069096169E+02 -0.68680719348E+02  0.13678179602E+03  0.00000000000E+00 0. -1.
          4    1    3    3  501    0 -0.10248443975E+03 -0.59069096169E+02  0.96232809764E+03  0.96957082568E+03  0.00000000000E+00 0. -1.
<mgrwt>
<rscale>  0 0.65223499E+03</rscale>
<asrwt>0</asrwt>
<pdfrwt beam="1">0</pdfrwt>
<pdfrwt beam="2">  1        2 0.38673762E+00 0.65223499E+03</pdfrwt>
<totfact> 0.44625902E+00</totfact>
</mgrwt>
</event>
<event>
 5    1  0.2366700E-004  0.6553649E+03  0.7818608E-02  0.9796764E-01
         13   -1    0    0    0    0  0.00000000000E+00  0.00000000000E+00  0.10000000000E+04  0.10000000000E+04  0.00000000000E+00 0. -1.
          2   -1    0    0  501    0 -0.00000000000E+00 -0.00000000000E+00 -0.10737577441E+03  0.10737577441E+03  0.00000000000E+00 0. -1.
    9000006    2    1    2  501    0  0.00000000000E+00  0.00000000000E+00  0.89262422559E+03  0.11073757744E+04  0.65536485843E+03 0.  0.
         13    1    3    3    0    0 -0.20245453403E+02 -0.29261483759E+03  0.19946160010E+03  0.35470868537E+03  0.00000000000E+00 0. -1.
          2    1    3    3  501    0  0.20245453403E+02  0.29261483759E+03  0.69316262548E+03  0.75266708904E+03  0.00000000000E+00 0. -1.
<mgrwt>
<rscale>  0 0.65536486E+03</rscale>
<asrwt>0</asrwt>
<pdfrwt beam="1">0</pdfrwt>
<pdfrwt beam="2">  1        2 0.39045818E+00 0.65536486E+03</pdfrwt>
<totfact> 0.43217326E+00</totfact>
</mgrwt>
</event>
<event>
 5    1  0.2366700E-004  0.6531329E+03  0.7818608E-02  0.9800918E-01
         13   -1    0    0    0    0  0.00000000000E+00  0.00000000000E+00  0.10000000000E+04  0.10000000000E+04  0.00000000000E+00 0. -1.
          2   -1    0    0  501    0 -0.00000000000E+00 -0.00000000000E+00 -0.10664565464E+03  0.10664565464E+03  0.00000000000E+00 0. -1.
    9000006    2    1    2  501    0  0.00000000000E+00  0.00000000000E+00  0.89335434536E+03  0.11066456546E+04  0.65313292563E+03 0.  0.
         13    1    3    3    0    0  0.26764034114E+03 -0.15545092843E+02  0.13072167578E+03  0.29826357243E+03  0.00000000000E+00 0. -1.
          2    1    3    3  501    0 -0.26764034114E+03  0.15545092843E+02  0.76263266958E+03  0.80838208220E+03  0.00000000000E+00 0. -1.
<mgrwt>
<rscale>  0 0.65313293E+03</rscale>
<asrwt>0</asrwt>
<pdfrwt beam="1">0</pdfrwt>
<pdfrwt beam="2">  1        2 0.38780320E+00 0.65313293E+03</pdfrwt>
<totfact> 0.44218299E+00</totfact>
</mgrwt>
</event>
<event>
 5    1  0.2366700E-004  0.6570285E+03  0.7818608E-02  0.9793679E-01
         13   -1    0    0    0    0  0.00000000000E+00  0.00000000000E+00  0.10000000000E+04  0.10000000000E+04  0.00000000000E+00 0. -1.
          2   -1    0    0  501    0 -0.00000000000E+00 -0.00000000000E+00 -0.10792162831E+03  0.10792162831E+03  0.00000000000E+00 0. -1.
    9000006    2    1    2  501    0  0.00000000000E+00  0.00000000000E+00  0.89207837169E+03  0.11079216283E+04  0.65702854828E+03 0.  0.
         13    1    3    3    0    0 -0.24339064083E+03  0.20595845838E+03  0.31258211718E+03  0.44650360648E+03  0.00000000000E+00 0. -1.
          2    1    3    3  501    0  0.24339064083E+03 -0.20595845838E+03  0.57949625451E+03  0.66141802183E+03  0.00000000000E+00 0. -1.
<mgrwt>
<rscale>  0 0.65702855E+03</rscale>
<asrwt>0</asrwt>
<pdfrwt beam="1">0</pdfrwt>
<pdfrwt beam="2">  1        2 0.39244311E+00 0.65702855E+03</pdfrwt>
<totfact> 0.42482402E+00</totfact>
</mgrwt>
</event>
<event>
 5    1  0.2366700E-004  0.6443994E+03  0.7818608E-02  0.9817345E-01
         13   -1    0    0    0    0  0.00000000000E+00  0.00000000000E+00  0.10000000000E+04  0.10000000000E+04  0.00000000000E+00 0. -1.
          2   -1    0    0  501    0 -0.00000000000E+00 -0.00000000000E+00 -0.10381265636E+03  0.10381265636E+03  0.00000000000E+00 0. -1.
    9000006    2    1    2  501    0  0.00000000000E+00  0.00000000000E+00  0.89618734364E+03  0.11038126564E+04  0.64439943004E+03 0.  0.
         13    1    3    3    0    0  0.28742936706E+03  0.11012589799E+03  0.61122116085E+03  0.68434980962E+03  0.00000000000E+00 0. -1.
          4    1    3    3  501    0 -0.28742936706E+03 -0.11012589799E+03  0.28496618280E+03  0.41946284674E+03  0.00000000000E+00 0. -1.
<mgrwt>
<rscale>  0 0.64439943E+03</rscale>
<asrwt>0</asrwt>
<pdfrwt beam="1">0</pdfrwt>
<pdfrwt beam="2">  1        2 0.37750136E+00 0.64439943E+03</pdfrwt>
<totfact> 0.48304442E+00</totfact>
</mgrwt>
</event>
<event>
 5    1  0.2366700E-004  0.6452557E+03  0.7818608E-02  0.9815722E-01
         13   -1    0    0    0    0  0.00000000000E+00  0.00000000000E+00  0.10000000000E+04  0.10000000000E+04  0.00000000000E+00 0. -1.
          2   -1    0    0  501    0 -0.00000000000E+00 -0.00000000000E+00 -0.10408874172E+03  0.10408874172E+03  0.00000000000E+00 0. -1.
    9000006    2    1    2  501    0  0.00000000000E+00  0.00000000000E+00  0.89591125828E+03  0.11040887417E+04  0.64525573759E+03 0.  0.
         13    1    3    3    0    0 -0.96314973113E+02  0.30578010675E+03  0.38600827503E+03  0.50177727740E+03  0.00000000000E+00 0. -1.
          2    1    3    3  501    0  0.96314973113E+02 -0.30578010675E+03  0.50990298325E+03  0.60231146432E+03  0.00000000000E+00 0. -1.
<mgrwt>
<rscale>  0 0.64525574E+03</rscale>
<asrwt>0</asrwt>
<pdfrwt beam="1">0</pdfrwt>
<pdfrwt beam="2">  1        2 0.37850531E+00 0.64525574E+03</pdfrwt>
<totfact> 0.47891653E+00</totfact>
</mgrwt>
</event>
<event>
 5    1  0.2366700E-004  0.6499814E+03  0.7818608E-02  0.9806814E-01
         13   -1    0    0    0    0  0.00000000000E+00  0.00000000000E+00  0.10000000000E+04  0.10000000000E+04  0.00000000000E+00 0. -1.
          2   -1    0    0  501    0 -0.00000000000E+00 -0.00000000000E+00 -0.10561896363E+03  0.10561896363E+03  0.00000000000E+00 0. -1.
    9000006    2    1    2  501    0  0.00000000000E+00  0.00000000000E+00  0.89438103637E+03  0.11056189636E+04  0.64998142630E+03 0.  0.
         13    1    3    3    0    0  0.27925723659E+02  0.30501375469E+03  0.63201134188E+03  0.70231871174E+03  0.00000000000E+00 0. -1.
          2    1    3    3  501    0 -0.27925723659E+02 -0.30501375469E+03  0.26236969449E+03  0.40330025190E+03  0.00000000000E+00 0. -1.
<mgrwt>
<rscale>  0 0.64998143E+03</rscale>
<asrwt>0</asrwt>
<pdfrwt beam="1">0</pdfrwt>
<pdfrwt beam="2">  1        2 0.38406977E+00 0.64998143E+03</pdfrwt>
<totfact> 0.45661380E+00</totfact>
</mgrwt>
</event>
<event>
 5    1  0.2366700E-004  0.6313099E+03  0.7818608E-02  0.9842496E-01
         13   -1    0    0    0    0  0.00000000000E+00  0.00000000000E+00  0.10000000000E+04  0.10000000000E+04  0.00000000000E+00 0. -1.
          2   -1    0    0  501    0 -0.00000000000E+00 -0.00000000000E+00 -0.99638042678E+02  0.99638042678E+02  0.00000000000E+00 0. -1.
    9000006    2    1    2  501    0  0.00000000000E+00  0.00000000000E+00  0.90036195732E+03  0.10996380427E+04  0.63130988485E+03 0.  0.
         13    1    3    3    0    0  0.20390397743E+03 -0.17078956929E+03  0.15410922602E+03  0.30740130535E+03  0.00000000000E+00 0. -1.
          4    1    3    3  501    0 -0.20390397743E+03  0.17078956929E+03  0.74625273130E+03  0.79223673732E+03  0.00000000000E+00 0. -1.
<mgrwt>
<rscale>  0 0.63130988E+03</rscale>
<asrwt>0</asrwt>
<pdfrwt beam="1">0</pdfrwt>
<pdfrwt beam="2">  1        2 0.36232092E+00 0.63130988E+03</pdfrwt>
<totfact> 0.54956678E+00</totfact>
</mgrwt>
</event>
<event>
 5    1  0.2366700E-004  0.6390499E+03  0.7818608E-02  0.9827546E-01
         13   -1    0    0    0    0  0.00000000000E+00  0.00000000000E+00  0.10000000000E+04  0.10000000000E+04  0.00000000000E+00 0. -1.
          2   -1    0    0  501    0 -0.00000000000E+00 -0.00000000000E+00 -0.10209618370E+03  0.10209618370E+03  0.00000000000E+00 0. -1.
    9000006    2    1    2  501    0  0.00000000000E+00  0.00000000000E+00  0.89790381630E+03  0.11020961837E+04  0.63904986880E+03 0.  0.
         13    1    3    3    0    0 -0.13439152965E+03  0.28954038064E+03  0.42447321344E+03  0.53110472055E+03  0.00000000000E+00 0. -1.
          2    1    3    3  501    0  0.13439152965E+03 -0.28954038064E+03  0.47343060286E+03  0.57099146315E+03  0.00000000000E+00 0. -1.
<mgrwt>
<rscale>  0 0.63904987E+03</rscale>
<asrwt>0</asrwt>
<pdfrwt beam="1">0</pdfrwt>
<pdfrwt beam="2">  1        2 0.37125963E+00 0.63904987E+03</pdfrwt>
<totfact> 0.50944711E+00</totfact>
</mgrwt>
</event>
<event>
 5    1  0.2366700E-004  0.6380035E+03  0.7818608E-02  0.9829554E-01
         13   -1    0    0    0    0  0.00000000000E+00  0.00000000000E+00  0.10000000000E+04  0.10000000000E+04  0.00000000000E+00 0. -1.
          2   -1    0    0  501    0 -0.00000000000E+00 -0.00000000000E+00 -0.10176210577E+03  0.10176210577E+03  0.00000000000E+00 0. -1.
    9000006    2    1    2  501    0  0.00000000000E+00  0.00000000000E+00  0.89823789423E+03  0.11017621058E+04  0.63800346636E+03 0.  0.
         13    1    3    3    0    0 -0.19901761755E+03 -0.24444028489E+03  0.36446536017E+03  0.48186519249E+03  0.00000000000E+00 0. -1.
          2    1    3    3  501    0  0.19901761755E+03  0.24444028489E+03  0.53377253406E+03  0.61989691328E+03  0.00000000000E+00 0. -1.
<mgrwt>
<rscale>  0 0.63800347E+03</rscale>
<asrwt>0</asrwt>
<pdfrwt beam="1">0</pdfrwt>
<pdfrwt beam="2">  1        2 0.37004480E+00 0.63800347E+03</pdfrwt>
<totfact> 0.51473697E+00</totfact>
</mgrwt>
</event>
<event>
 5    1  0.2366700E-004  0.6476917E+03  0.7818608E-02  0.9811120E-01
         13   -1    0    0    0    0  0.00000000000E+00  0.00000000000E+00  0.10000000000E+04  0.10000000000E+04  0.00000000000E+00 0. -1.
          2   -1    0    0  501    0 -0.00000000000E+00 -0.00000000000E+00 -0.10487611930E+03  0.10487611930E+03  0.00000000000E+00 0. -1.
    9000006    2    1    2  501    0  0.00000000000E+00  0.00000000000E+00  0.89512388070E+03  0.11048761193E+04  0.64769165287E+03 0.  0.
         13    1    3    3    0    0  0.22954595595E+03  0.16943363616E+03  0.70893856054E+03  0.76419433757E+03  0.00000000000E+00 0. -1.
          4    1    3    3  501    0 -0.22954595595E+03 -0.16943363616E+03  0.18618532016E+03  0.34068178173E+03  0.00000000000E+00 0. -1.
<mgrwt>
<rscale>  0 0.64769165E+03</rscale>
<asrwt>0</asrwt>
<pdfrwt beam="1">0</pdfrwt>
<pdfrwt beam="2">  1        2 0.38136851E+00 0.64769165E+03</pdfrwt>
<totfact> 0.46731990E+00</totfact>
</mgrwt>
</event>
<event>
 5    1  0.2366700E-004  0.6584231E+03  0.7818608E-02  0.9791101E-01
         13   -1    0    0    0    0  0.00000000000E+00  0.00000000000E+00  0.10000000000E+04  0.10000000000E+04  0.00000000000E+00 0. -1.
          2   -1    0    0  501    0 -0.00000000000E+00 -0.00000000000E+00 -0.10838023752E+03  0.10838023752E+03  0.00000000000E+00 0. -1.
    9000006    2    1    2  501    0  0.00000000000E+00  0.00000000000E+00  0.89161976248E+03  0.11083802375E+04  0.65842307834E+03 0.  0.
         13    1    3    3    0    0 -0.28503567368E+03 -0.16428902216E+03  0.42560788434E+03  0.53793892710E+03  0.00000000000E+00 0. -1.
          4    1    3    3  501    0  0.28503567368E+03  0.16428902216E+03  0.46601187814E+03  0.57044131043E+03  0.00000000000E+00 0. -1.
<mgrwt>
<rscale>  0 0.65842308E+03</rscale>
<asrwt>0</asrwt>
<pdfrwt beam="1">0</pdfrwt>
<pdfrwt beam="2">  1        2 0.39411079E+00 0.65842308E+03</pdfrwt>
<totfact> 0.41873690E+00</totfact>
</mgrwt>
</event>
<event>
 5    1  0.2366700E-004  0.6202579E+03  0.7818608E-02  0.9864246E-01
         13   -1    0    0    0    0  0.00000000000E+00  0.00000000000E+00  0.10000000000E+04  0.10000000000E+04  0.00000000000E+00 0. -1.
          2   -1    0    0  501    0 -0.00000000000E+00 -0.00000000000E+00 -0.96179977219E+02  0.96179977219E+02  0.00000000000E+00 0. -1.
    9000006    2    1    2  501    0  0.00000000000E+00  0.00000000000E+00  0.90382002278E+03  0.10961799772E+04  0.62025793737E+03 0.  0.
         13    1    3    3    0    0 -0.13241976097E+03  0.51902184976E+02  0.93896355085E+03  0.94967435457E+03  0.00000000000E+00 0. -1.
          4    1    3    3  501    0  0.13241976097E+03 -0.51902184976E+02 -0.35143528071E+02  0.14650562265E+03  0.00000000000E+00 0. -1.
<mgrwt>
<rscale>  0 0.62025794E+03</rscale>
<asrwt>0</asrwt>
<pdfrwt beam="1">0</pdfrwt>
<pdfrwt beam="2">  1        2 0.34974611E+00 0.62025794E+03</pdfrwt>
<totfact> 0.61096061E+00</totfact>
</mgrwt>
</event>
<event>
 5    1  0.2366700E-004  0.6573244E+03  0.7818608E-02  0.9793132E-01
         13   -1    0    0    0    0  0.00000000000E+00  0.00000000000E+00  0.10000000000E+04  0.10000000000E+04  0.00000000000E+00 0. -1.
          4   -1    0    0  501    0 -0.00000000000E+00 -0.00000000000E+00 -0.10801884174E+03  0.10801884174E+03  0.00000000000E+00 0. -1.
    9000006    2    1    2  501    0  0.00000000000E+00  0.00000000000E+00  0.89198115826E+03  0.11080188417E+04  0.65732440010E+03 0.  0.
         13    1    3    3    0    0  0.17194590261E+03  0.31681514763E+02 -0.23122288547E+02  0.17636255847E+03  0.00000000000E+00 0. -1.
          2    1    3    3  501    0 -0.17194590261E+03 -0.31681514763E+02  0.91510344680E+03  0.93165628327E+03  0.00000000000E+00 0. -1.
<mgrwt>
<rscale>  0 0.65732440E+03</rscale>
<asrwt>0</asrwt>
<pdfrwt beam="1">0</pdfrwt>
<pdfrwt beam="2">  1        4 0.39279662E+00 0.65732440E+03</pdfrwt>
<totfact> 0.35923597E-02</totfact>
</mgrwt>
</event>
<event>
 5    1  0.2366700E-004  0.6471869E+03  0.7818608E-02  0.9812072E-01
         13   -1    0    0    0    0  0.00000000000E+00  0.00000000000E+00  0.10000000000E+04  0.10000000000E+04  0.00000000000E+00 0. -1.
          2   -1    0    0  501    0 -0.00000000000E+00 -0.00000000000E+00 -0.10471271432E+03  0.10471271432E+03  0.00000000000E+00 0. -1.
    9000006    2    1    2  501    0  0.00000000000E+00  0.00000000000E+00  0.89528728568E+03  0.11047127143E+04  0.64718687973E+03 0.  0.
         13    1    3    3    0    0 -0.25643951765E+03  0.17754525691E+03  0.30051751937E+03  0.43312160407E+03  0.00000000000E+00 0. -1.
          2    1    3    3  501    0  0.25643951765E+03 -0.17754525691E+03  0.59476976631E+03  0.67159111026E+03  0.00000000000E+00 0. -1.
<mgrwt>
<rscale>  0 0.64718688E+03</rscale>
<asrwt>0</asrwt>
<pdfrwt beam="1">0</pdfrwt>
<pdfrwt beam="2">  1        2 0.38077431E+00 0.64718688E+03</pdfrwt>
<totfact> 0.46970533E+00</totfact>
</mgrwt>
</event>
<event>
 5    1  0.2366700E-004  0.5335299E+03  0.7818608E-02  0.1005380E+00
         13   -1    0    0    0    0  0.00000000000E+00  0.00000000000E+00  0.10000000000E+04  0.10000000000E+04  0.00000000000E+00 0. -1.
          2   -1    0    0  501    0 -0.00000000000E+00 -0.00000000000E+00 -0.71163546910E+02  0.71163546910E+02  0.00000000000E+00 0. -1.
    9000006    2    1    2  501    0  0.00000000000E+00  0.00000000000E+00  0.92883645309E+03  0.10711635469E+04  0.53352993134E+03 0.  0.
         13    1    3    3    0    0  0.80037205529E+02 -0.95898890422E+02 -0.88223830417E+01  0.12522134760E+03  0.00000000000E+00 0. -1.
          2    1    3    3  501    0 -0.80037205529E+02  0.95898890422E+02  0.93765883613E+03  0.94594219931E+03  0.00000000000E+00 0. -1.
<mgrwt>
<rscale>  0 0.53352993E+03</rscale>
<asrwt>0</asrwt>
<pdfrwt beam="1">0</pdfrwt>
<pdfrwt beam="2">  1        2 0.25877708E+00 0.53352993E+03</pdfrwt>
<totfact> 0.12963899E+01</totfact>
</mgrwt>
</event>
<event>
 5    1  0.2366700E-004  0.6560054E+03  0.7818608E-02  0.9795575E-01
         13   -1    0    0    0    0  0.00000000000E+00  0.00000000000E+00  0.10000000000E+04  0.10000000000E+04  0.00000000000E+00 0. -1.
          2   -1    0    0  501    0 -0.00000000000E+00 -0.00000000000E+00 -0.10758575905E+03  0.10758575905E+03  0.00000000000E+00 0. -1.
    9000006    2    1    2  501    0  0.00000000000E+00  0.00000000000E+00  0.89241424095E+03  0.11075857591E+04  0.65600536294E+03 0.  0.
         13    1    3    3    0    0  0.30248099081E+03  0.24362400651E+02  0.65639155623E+03  0.72314462693E+03  0.00000000000E+00 0. -1.
          4    1    3    3  501    0 -0.30248099081E+03 -0.24362400651E+02  0.23602268472E+03  0.38444113213E+03  0.00000000000E+00 0. -1.
<mgrwt>
<rscale>  0 0.65600536E+03</rscale>
<asrwt>0</asrwt>
<pdfrwt beam="1">0</pdfrwt>
<pdfrwt beam="2">  1        2 0.39122177E+00 0.65600536E+03</pdfrwt>
<totfact> 0.42933260E+00</totfact>
</mgrwt>
</event>
<event>
 5    1  0.2366700E-004  0.6372088E+03  0.7818608E-02  0.9831082E-01
         13   -1    0    0    0    0  0.00000000000E+00  0.00000000000E+00  0.10000000000E+04  0.10000000000E+04  0.00000000000E+00 0. -1.
          2   -1    0    0  501    0 -0.00000000000E+00 -0.00000000000E+00 -0.10150875714E+03  0.10150875714E+03  0.00000000000E+00 0. -1.
    9000006    2    1    2  501    0  0.00000000000E+00  0.00000000000E+00  0.89849124286E+03  0.11015087571E+04  0.63720877940E+03 0.  0.
         13    1    3    3    0    0 -0.18394034718E+03 -0.19391802437E+03  0.74900761530E+03  0.79526766518E+03  0.00000000000E+00 0. -1.
          4    1    3    3  501    0  0.18394034718E+03  0.19391802437E+03  0.14948362756E+03  0.30624109196E+03  0.00000000000E+00 0. -1.
<mgrwt>
<rscale>  0 0.63720878E+03</rscale>
<asrwt>0</asrwt>
<pdfrwt beam="1">0</pdfrwt>
<pdfrwt beam="2">  1        2 0.36912353E+00 0.63720878E+03</pdfrwt>
<totfact> 0.51878207E+00</totfact>
</mgrwt>
</event>
<event>
 5    1  0.2366700E-004  0.6422431E+03  0.7818608E-02  0.9821444E-01
         13   -1    0    0    0    0  0.00000000000E+00  0.00000000000E+00  0.10000000000E+04  0.10000000000E+04  0.00000000000E+00 0. -1.
          2   -1    0    0  501    0 -0.00000000000E+00 -0.00000000000E+00 -0.10311903721E+03  0.10311903721E+03  0.00000000000E+00 0. -1.
    9000006    2    1    2  501    0  0.00000000000E+00  0.00000000000E+00  0.89688096279E+03  0.11031190372E+04  0.64224306057E+03 0.  0.
         13    1    3    3    0    0 -0.27307920727E+03 -0.15116355009E+03  0.31880560441E+03  0.44616105357E+03  0.00000000000E+00 0. -1.
          4    1    3    3  501    0  0.27307920727E+03  0.15116355009E+03  0.57807535838E+03  0.65695798365E+03  0.00000000000E+00 0. -1.
<mgrwt>
<rscale>  0 0.64224306E+03</rscale>
<asrwt>0</asrwt>
<pdfrwt beam="1">0</pdfrwt>
<pdfrwt beam="2">  1        2 0.37497911E+00 0.64224306E+03</pdfrwt>
<totfact> 0.49355884E+00</totfact>
</mgrwt>
</event>
<event>
 5    1  0.2366700E-004  0.4653130E+03  0.7818608E-02  0.1023251E+00
         13   -1    0    0    0    0  0.00000000000E+00  0.00000000000E+00  0.10000000000E+04  0.10000000000E+04  0.00000000000E+00 0. -1.
          2   -1    0    0  501    0 -0.00000000000E+00 -0.00000000000E+00 -0.54129050083E+02  0.54129050083E+02  0.00000000000E+00 0. -1.
    9000006    2    1    2  501    0  0.00000000000E+00  0.00000000000E+00  0.94587094992E+03  0.10541290501E+04  0.46531301328E+03 0.  0.
         13    1    3    3    0    0 -0.97641541335E+02  0.15908421453E+03  0.15831619046E+03  0.24475635654E+03  0.00000000000E+00 0. -1.
          4    1    3    3  501    0  0.97641541335E+02 -0.15908421453E+03  0.78755475946E+03  0.80937269354E+03  0.00000000000E+00 0. -1.
<mgrwt>
<rscale>  0 0.46531301E+03</rscale>
<asrwt>0</asrwt>
<pdfrwt beam="1">0</pdfrwt>
<pdfrwt beam="2">  1        2 0.19683332E+00 0.46531301E+03</pdfrwt>
<totfact> 0.21835432E+01</totfact>
</mgrwt>
</event>
<event>
 5    1  0.2366700E-004  0.6542451E+03  0.7818608E-02  0.9798846E-01
         13   -1    0    0    0    0  0.00000000000E+00  0.00000000000E+00  0.10000000000E+04  0.10000000000E+04  0.00000000000E+00 0. -1.
          2   -1    0    0  501    0 -0.00000000000E+00 -0.00000000000E+00 -0.10700917600E+03  0.10700917600E+03  0.00000000000E+00 0. -1.
    9000006    2    1    2  501    0  0.00000000000E+00  0.00000000000E+00  0.89299082400E+03  0.11070091760E+04  0.65424514061E+03 0.  0.
         13    1    3    3    0    0 -0.15698251068E+03  0.91314417561E+02  0.90686518449E+03  0.92487096092E+03  0.00000000000E+00 0. -1.
          2    1    3    3  501    0  0.15698251068E+03 -0.91314417561E+02 -0.13874360492E+02  0.18213821508E+03  0.00000000000E+00 0. -1.
<mgrwt>
<rscale>  0 0.65424514E+03</rscale>
<asrwt>0</asrwt>
<pdfrwt beam="1">0</pdfrwt>
<pdfrwt beam="2">  1        2 0.38912510E+00 0.65424514E+03</pdfrwt>
<totfact> 0.43717331E+00</totfact>
</mgrwt>
</event>
<event>
 5    1  0.2366700E-004  0.6610731E+03  0.7818608E-02  0.9786220E-01
         13   -1    0    0    0    0  0.00000000000E+00  0.00000000000E+00  0.10000000000E+04  0.10000000000E+04  0.00000000000E+00 0. -1.
          2   -1    0    0  501    0 -0.00000000000E+00 -0.00000000000E+00 -0.10925440138E+03  0.10925440138E+03  0.00000000000E+00 0. -1.
    9000006    2    1    2  501    0  0.00000000000E+00  0.00000000000E+00  0.89074559862E+03  0.11092544014E+04  0.66107307123E+03 0.  0.
         13    1    3    3    0    0 -0.30135568757E+03 -0.14702655690E+01  0.67321108038E+03  0.73758428051E+03  0.00000000000E+00 0. -1.
          4    1    3    3  501    0  0.30135568757E+03  0.14702655690E+01  0.21753451824E+03  0.37167012086E+03  0.00000000000E+00 0. -1.
<mgrwt>
<rscale>  0 0.66107307E+03</rscale>
<asrwt>0</asrwt>
<pdfrwt beam="1">0</pdfrwt>
<pdfrwt beam="2">  1        2 0.39728957E+00 0.66107307E+03</pdfrwt>
<totfact> 0.40735219E+00</totfact>
</mgrwt>
</event>
<event>
 5    1  0.2366700E-004  0.6645254E+03  0.7818608E-02  0.9779899E-01
         13   -1    0    0    0    0  0.00000000000E+00  0.00000000000E+00  0.10000000000E+04  0.10000000000E+04  0.00000000000E+00 0. -1.
          2   -1    0    0  501    0 -0.00000000000E+00 -0.00000000000E+00 -0.11039850703E+03  0.11039850703E+03  0.00000000000E+00 0. -1.
    9000006    2    1    2  501    0  0.00000000000E+00  0.00000000000E+00  0.88960149297E+03  0.11103985070E+04  0.66452541570E+03 0.  0.
         13    1    3    3    0    0 -0.51839214846E+02 -0.13671389531E+03 -0.53753387024E+02  0.15578003717E+03  0.00000000000E+00 0. -1.
          4    1    3    3  501    0  0.51839214846E+02  0.13671389531E+03  0.94335488000E+03  0.95461846985E+03  0.00000000000E+00 0. -1.
<mgrwt>
<rscale>  0 0.66452542E+03</rscale>
<asrwt>0</asrwt>
<pdfrwt beam="1">0</pdfrwt>
<pdfrwt beam="2">  1        2 0.40144996E+00 0.66452542E+03</pdfrwt>
<totfact> 0.39287269E+00</totfact>
</mgrwt>
</event>
<event>
 5    1  0.2366700E-004  0.6582354E+03  0.7818608E-02  0.9791448E-01
         13   -1    0    0    0    0  0.00000000000E+00  0.00000000000E+00  0.10000000000E+04  0.10000000000E+04  0.00000000000E+00 0. -1.
          2   -1    0    0  501    0 -0.00000000000E+00 -0.00000000000E+00 -0.10831844510E+03  0.10831844510E+03  0.00000000000E+00 0. -1.
    9000006    2    1    2  501    0  0.00000000000E+00  0.00000000000E+00  0.89168155490E+03  0.11083184451E+04  0.65823535334E+03 0.  0.
         13    1    3    3    0    0  0.46335766207E+01  0.30229048654E+03  0.66484406704E+03  0.73035514769E+03  0.00000000000E+00 0. -1.
          4    1    3    3  501    0 -0.46335766207E+01 -0.30229048654E+03  0.22683748786E+03  0.37796329741E+03  0.00000000000E+00 0. -1.
<mgrwt>
<rscale>  0 0.65823535E+03</rscale>
<asrwt>0</asrwt>
<pdfrwt beam="1">0</pdfrwt>
<pdfrwt beam="2">  1        2 0.39388609E+00 0.65823535E+03</pdfrwt>
<totfact> 0.41955240E+00</totfact>
</mgrwt>
</event>
<event>
 5    1  0.2366700E-004  0.6693409E+03  0.7818608E-02  0.9771149E-01
         13   -1    0    0    0    0  0.00000000000E+00  0.00000000000E+00  0.10000000000E+04  0.10000000000E+04  0.00000000000E+00 0. -1.
          2   -1    0    0  501    0 -0.00000000000E+00 -0.00000000000E+00 -0.11200432470E+03  0.11200432470E+03  0.00000000000E+00 0. -1.
    9000006    2    1    2  501    0  0.00000000000E+00  0.00000000000E+00  0.88799567530E+03  0.11120043247E+04  0.66934094361E+03 0.  0.
         13    1    3    3    0    0 -0.16356321580E+03 -0.93016938837E+01  0.92882768473E+03  0.94316505182E+03  0.00000000000E+00 0. -1.
          2    1    3    3  501    0  0.16356321580E+03  0.93016938837E+01 -0.40832009425E+02  0.16883927287E+03  0.00000000000E+00 0. -1.
<mgrwt>
<rscale>  0 0.66934094E+03</rscale>
<asrwt>0</asrwt>
<pdfrwt beam="1">0</pdfrwt>
<pdfrwt beam="2">  1        2 0.40728931E+00 0.66934094E+03</pdfrwt>
<totfact> 0.37332825E+00</totfact>
</mgrwt>
</event>
<event>
 5    1  0.2366700E-004  0.6498655E+03  0.7818608E-02  0.9807032E-01
         13   -1    0    0    0    0  0.00000000000E+00  0.00000000000E+00  0.10000000000E+04  0.10000000000E+04  0.00000000000E+00 0. -1.
          2   -1    0    0  501    0 -0.00000000000E+00 -0.00000000000E+00 -0.10558129278E+03  0.10558129278E+03  0.00000000000E+00 0. -1.
    9000006    2    1    2  501    0  0.00000000000E+00  0.00000000000E+00  0.89441870722E+03  0.11055812928E+04  0.64986550233E+03 0.  0.
         13    1    3    3    0    0 -0.65651881796E+02  0.17983769447E+03  0.55677371181E+00  0.19144731895E+03  0.00000000000E+00 0. -1.
          2    1    3    3  501    0  0.65651881796E+02 -0.17983769447E+03  0.89386193351E+03  0.91413397383E+03  0.00000000000E+00 0. -1.
<mgrwt>
<rscale>  0 0.64986550E+03</rscale>
<asrwt>0</asrwt>
<pdfrwt beam="1">0</pdfrwt>
<pdfrwt beam="2">  1        2 0.38393278E+00 0.64986550E+03</pdfrwt>
<totfact> 0.45715132E+00</totfact>
</mgrwt>
</event>
<event>
 5    1  0.2366700E-004  0.6544580E+03  0.7818608E-02  0.9798450E-01
         13   -1    0    0    0    0  0.00000000000E+00  0.00000000000E+00  0.10000000000E+04  0.10000000000E+04  0.00000000000E+00 0. -1.
          2   -1    0    0  501    0 -0.00000000000E+00 -0.00000000000E+00 -0.10707881224E+03  0.10707881224E+03  0.00000000000E+00 0. -1.
    9000006    2    1    2  501    0  0.00000000000E+00  0.00000000000E+00  0.89292118776E+03  0.11070788122E+04  0.65445798106E+03 0.  0.
         13    1    3    3    0    0  0.21256259847E+03  0.16194104288E+02  0.26502545889E+02  0.21481967373E+03  0.00000000000E+00 0. -1.
          2    1    3    3  501    0 -0.21256259847E+03 -0.16194104288E+02  0.86641864187E+03  0.89225913851E+03  0.00000000000E+00 0. -1.
<mgrwt>
<rscale>  0 0.65445798E+03</rscale>
<asrwt>0</asrwt>
<pdfrwt beam="1">0</pdfrwt>
<pdfrwt beam="2">  1        2 0.38937832E+00 0.65445798E+03</pdfrwt>
<totfact> 0.43621953E+00</totfact>
</mgrwt>
</event>
<event>
 5    1  0.2366700E-004  0.6743605E+03  0.7818608E-02  0.9762113E-01
         13   -1    0    0    0    0  0.00000000000E+00  0.00000000000E+00  0.10000000000E+04  0.10000000000E+04  0.00000000000E+00 0. -1.
          2   -1    0    0  501    0 -0.00000000000E+00 -0.00000000000E+00 -0.11369050650E+03  0.11369050650E+03  0.00000000000E+00 0. -1.
    9000006    2    1    2  501    0  0.00000000000E+00  0.00000000000E+00  0.88630949350E+03  0.11136905065E+04  0.67436045704E+03 0.  0.
         13    1    3    3    0    0 -0.79459709113E+01 -0.94503420082E+02 -0.91210793833E+02  0.13158056001E+03  0.00000000000E+00 0. -1.
          2    1    3    3  501    0  0.79459709113E+01  0.94503420082E+02  0.97752028733E+03  0.98210994649E+03  0.00000000000E+00 0. -1.
<mgrwt>
<rscale>  0 0.67436046E+03</rscale>
<asrwt>0</asrwt>
<pdfrwt beam="1">0</pdfrwt>
<pdfrwt beam="2">  1        2 0.41342090E+00 0.67436046E+03</pdfrwt>
<totfact> 0.35374572E+00</totfact>
</mgrwt>
</event>
<event>
 5    1  0.2366700E-004  0.5956761E+03  0.7818608E-02  0.9914418E-01
         13   -1    0    0    0    0  0.00000000000E+00  0.00000000000E+00  0.10000000000E+04  0.10000000000E+04  0.00000000000E+00 0. -1.
          2   -1    0    0  501    0 -0.00000000000E+00 -0.00000000000E+00 -0.88707516195E+02  0.88707516195E+02  0.00000000000E+00 0. -1.
    9000006    2    1    2  501    0  0.00000000000E+00  0.00000000000E+00  0.91129248381E+03  0.10887075162E+04  0.59567614085E+03 0.  0.
         13    1    3    3    0    0  0.25758750763E+03  0.12486523475E+03  0.30532145691E+03  0.41852579728E+03  0.00000000000E+00 0. -1.
          4    1    3    3  501    0 -0.25758750763E+03 -0.12486523475E+03  0.60597102689E+03  0.67018171892E+03  0.00000000000E+00 0. -1.
<mgrwt>
<rscale>  0 0.59567614E+03</rscale>
<asrwt>0</asrwt>
<pdfrwt beam="1">0</pdfrwt>
<pdfrwt beam="2">  1        2 0.32257347E+00 0.59567614E+03</pdfrwt>
<totfact> 0.76621601E+00</totfact>
</mgrwt>
</event>
<event>
 5    1  0.2366700E-004  0.6429166E+03  0.7818608E-02  0.9820162E-01
         13   -1    0    0    0    0  0.00000000000E+00  0.00000000000E+00  0.10000000000E+04  0.10000000000E+04  0.00000000000E+00 0. -1.
          2   -1    0    0  501    0 -0.00000000000E+00 -0.00000000000E+00 -0.10333543101E+03  0.10333543101E+03  0.00000000000E+00 0. -1.
    9000006    2    1    2  501    0  0.00000000000E+00  0.00000000000E+00  0.89666456899E+03  0.11033354310E+04  0.64291657627E+03 0.  0.
         13    1    3    3    0    0  0.14723820583E+03  0.32058510208E+02 -0.38968918938E+02  0.15564515404E+03  0.00000000000E+00 0. -1.
          2    1    3    3  501    0 -0.14723820583E+03 -0.32058510208E+02  0.93563348793E+03  0.94769027697E+03  0.00000000000E+00 0. -1.
<mgrwt>
<rscale>  0 0.64291658E+03</rscale>
<asrwt>0</asrwt>
<pdfrwt beam="1">0</pdfrwt>
<pdfrwt beam="2">  1        2 0.37576600E+00 0.64291658E+03</pdfrwt>
<totfact> 0.49025623E+00</totfact>
</mgrwt>
</event>
<event>
 5    1  0.2366700E-004  0.6588738E+03  0.7818608E-02  0.9790269E-01
         13   -1    0    0    0    0  0.00000000000E+00  0.00000000000E+00  0.10000000000E+04  0.10000000000E+04  0.00000000000E+00 0. -1.
          2   -1    0    0  501    0 -0.00000000000E+00 -0.00000000000E+00 -0.10852868292E+03  0.10852868292E+03  0.00000000000E+00 0. -1.
    9000006    2    1    2  501    0  0.00000000000E+00  0.00000000000E+00  0.89147131708E+03  0.11085286829E+04  0.65887383593E+03 0.  0.
         13    1    3    3    0    0  0.73239878497E+02  0.19579119971E+03  0.17350856863E+02  0.20976016285E+03  0.00000000000E+00 0. -1.
          2    1    3    3  501    0 -0.73239878497E+02 -0.19579119971E+03  0.87412046022E+03  0.89876852006E+03  0.00000000000E+00 0. -1.
<mgrwt>
<rscale>  0 0.65887384E+03</rscale>
<asrwt>0</asrwt>
<pdfrwt beam="1">0</pdfrwt>
<pdfrwt beam="2">  1        2 0.39465059E+00 0.65887384E+03</pdfrwt>
<totfact> 0.41678364E+00</totfact>
</mgrwt>
</event>
<event>
 5    1  0.2366700E-004  0.6343788E+03  0.7818608E-02  0.9836541E-01
         13   -1    0    0    0    0  0.00000000000E+00  0.00000000000E+00  0.10000000000E+04  0.10000000000E+04  0.00000000000E+00 0. -1.
          2   -1    0    0  501    0 -0.00000000000E+00 -0.00000000000E+00 -0.10060911223E+03  0.10060911223E+03  0.00000000000E+00 0. -1.
    9000006    2    1    2  501    0  0.00000000000E+00  0.00000000000E+00  0.89939088777E+03  0.11006091122E+04  0.63437878978E+03 0.  0.
         13    1    3    3    0    0 -0.11043777040E+03  0.45646008828E+02 -0.60061251171E+02  0.13374383404E+03  0.00000000000E+00 0. -1.
          4    1    3    3  501    0  0.11043777040E+03 -0.45646008828E+02  0.95945213894E+03  0.96686527819E+03  0.00000000000E+00 0. -1.
<mgrwt>
<rscale>  0 0.63437879E+03</rscale>
<asrwt>0</asrwt>
<pdfrwt beam="1">0</pdfrwt>
<pdfrwt beam="2">  1        2 0.36585209E+00 0.63437879E+03</pdfrwt>
<totfact> 0.53338314E+00</totfact>
</mgrwt>
</event>
<event>
 5    1  0.2366700E-004  0.6484881E+03  0.7818608E-02  0.9809620E-01
         13   -1    0    0    0    0  0.00000000000E+00  0.00000000000E+00  0.10000000000E+04  0.10000000000E+04  0.00000000000E+00 0. -1.
          2   -1    0    0  501    0 -0.00000000000E+00 -0.00000000000E+00 -0.10513421119E+03  0.10513421119E+03  0.00000000000E+00 0. -1.
    9000006    2    1    2  501    0  0.00000000000E+00  0.00000000000E+00  0.89486578881E+03  0.11051342112E+04  0.64848812231E+03 0.  0.
         13    1    3    3    0    0  0.24459449282E+03 -0.10033979491E+03  0.12752208178E+03  0.29352414160E+03  0.00000000000E+00 0. -1.
          2    1    3    3  501    0 -0.24459449282E+03  0.10033979491E+03  0.76734370702E+03  0.81161006959E+03  0.00000000000E+00 0. -1.
<mgrwt>
<rscale>  0 0.64848812E+03</rscale>
<asrwt>0</asrwt>
<pdfrwt beam="1">0</pdfrwt>
<pdfrwt beam="2">  1        2 0.38230703E+00 0.64848812E+03</pdfrwt>
<totfact> 0.46357463E+00</totfact>
</mgrwt>
</event>
<event>
 5    1  0.2366700E-004  0.4901279E+03  0.7818608E-02  0.1016388E+00
         13   -1    0    0    0    0  0.00000000000E+00  0.00000000000E+00  0.10000000000E+04  0.10000000000E+04  0.00000000000E+00 0. -1.
          2   -1    0    0  501    0 -0.00000000000E+00 -0.00000000000E+00 -0.60056330090E+02  0.60056330090E+02  0.00000000000E+00 0. -1.
    9000006    2    1    2  501    0  0.00000000000E+00  0.00000000000E+00  0.93994366991E+03  0.10600563301E+04  0.49012786124E+03 0.  0.
         13    1    3    3    0    0  0.51882361038E+02 -0.23247045824E+03  0.59463029835E+03  0.64056185108E+03  0.00000000000E+00 0. -1.
          2    1    3    3  501    0 -0.51882361038E+02  0.23247045824E+03  0.34531337156E+03  0.41949447901E+03  0.00000000000E+00 0. -1.
<mgrwt>
<rscale>  0 0.49012786E+03</rscale>
<asrwt>0</asrwt>
<pdfrwt beam="1">0</pdfrwt>
<pdfrwt beam="2">  1        2 0.21838712E+00 0.49012786E+03</pdfrwt>
<totfact> 0.18155047E+01</totfact>
</mgrwt>
</event>
<event>
 5    1  0.2366700E-004  0.6411947E+03  0.7818608E-02  0.9823443E-01
         13   -1    0    0    0    0  0.00000000000E+00  0.00000000000E+00  0.10000000000E+04  0.10000000000E+04  0.00000000000E+00 0. -1.
          2   -1    0    0  501    0 -0.00000000000E+00 -0.00000000000E+00 -0.10278267612E+03  0.10278267612E+03  0.00000000000E+00 0. -1.
    9000006    2    1    2  501    0  0.00000000000E+00  0.00000000000E+00  0.89721732388E+03  0.11027826761E+04  0.64119474770E+03 0.  0.
         13    1    3    3    0    0  0.24328508842E+03  0.36437401460E+02  0.80220074141E+03  0.83907171802E+03  0.00000000000E+00 0. -1.
          4    1    3    3  501    0 -0.24328508842E+03 -0.36437401460E+02  0.95016582475E+02  0.26371095810E+03  0.00000000000E+00 0. -1.
<mgrwt>
<rscale>  0 0.64119475E+03</rscale>
<asrwt>0</asrwt>
<pdfrwt beam="1">0</pdfrwt>
<pdfrwt beam="2">  1        2 0.37375597E+00 0.64119475E+03</pdfrwt>
<totfact> 0.49873290E+00</totfact>
</mgrwt>
</event>
<event>
 5    1  0.2366700E-004  0.6546325E+03  0.7818608E-02  0.9798125E-01
         13   -1    0    0    0    0  0.00000000000E+00  0.00000000000E+00  0.10000000000E+04  0.10000000000E+04  0.00000000000E+00 0. -1.
          2   -1    0    0  501    0 -0.00000000000E+00 -0.00000000000E+00 -0.10713592019E+03  0.10713592019E+03  0.00000000000E+00 0. -1.
    9000006    2    1    2  501    0  0.00000000000E+00  0.00000000000E+00  0.89286407981E+03  0.11071359202E+04  0.65463247762E+03 0.  0.
         13    1    3    3    0    0  0.20913781451E+03 -0.10930606613E+03  0.83004554028E+03  0.86293802818E+03  0.00000000000E+00 0. -1.
          2    1    3    3  501    0 -0.20913781451E+03  0.10930606613E+03  0.62818539535E+02  0.24419789201E+03  0.00000000000E+00 0. -1.
<mgrwt>
<rscale>  0 0.65463248E+03</rscale>
<asrwt>0</asrwt>
<pdfrwt beam="1">0</pdfrwt>
<pdfrwt beam="2">  1        2 0.38958599E+00 0.65463248E+03</pdfrwt>
<totfact> 0.43543876E+00</totfact>
</mgrwt>
</event>
<event>
 5    1  0.2366700E-004  0.6610765E+03  0.7818608E-02  0.9786214E-01
         13   -1    0    0    0    0  0.00000000000E+00  0.00000000000E+00  0.10000000000E+04  0.10000000000E+04  0.00000000000E+00 0. -1.
          2   -1    0    0  501    0 -0.00000000000E+00 -0.00000000000E+00 -0.10925554572E+03  0.10925554572E+03  0.00000000000E+00 0. -1.
    9000006    2    1    2  501    0  0.00000000000E+00  0.00000000000E+00  0.89074445428E+03  0.11092555457E+04  0.66107653331E+03 0.  0.
         13    1    3    3    0    0  0.14463592023E+03  0.14061792710E+03  0.60092173650E+01  0.20181442351E+03  0.00000000000E+00 0. -1.
          4    1    3    3  501    0 -0.14463592023E+03 -0.14061792710E+03  0.88473523691E+03  0.90744112221E+03  0.00000000000E+00 0. -1.
<mgrwt>
<rscale>  0 0.66107653E+03</rscale>
<asrwt>0</asrwt>
<pdfrwt beam="1">0</pdfrwt>
<pdfrwt beam="2">  1        2 0.39729373E+00 0.66107653E+03</pdfrwt>
<totfact> 0.40733747E+00</totfact>
</mgrwt>
</event>
<event>
 5    1  0.2366700E-004  0.6453160E+03  0.7818608E-02  0.9815608E-01
         13   -1    0    0    0    0  0.00000000000E+00  0.00000000000E+00  0.10000000000E+04  0.10000000000E+04  0.00000000000E+00 0. -1.
          2   -1    0    0  501    0 -0.00000000000E+00 -0.00000000000E+00 -0.10410819684E+03  0.10410819684E+03  0.00000000000E+00 0. -1.
    9000006    2    1    2  501    0  0.00000000000E+00  0.00000000000E+00  0.89589180316E+03  0.11041081968E+04  0.64531603680E+03 0.  0.
         13    1    3    3    0    0 -0.19970746961E+03  0.25120294839E+03  0.50526174964E+03  0.59856113335E+03  0.00000000000E+00 0. -1.
          4    1    3    3  501    0  0.19970746961E+03 -0.25120294839E+03  0.39063005352E+03  0.50554706349E+03  0.00000000000E+00 0. -1.
<mgrwt>
<rscale>  0 0.64531604E+03</rscale>
<asrwt>0</asrwt>
<pdfrwt beam="1">0</pdfrwt>
<pdfrwt beam="2">  1        2 0.37857606E+00 0.64531604E+03</pdfrwt>
<totfact> 0.47862687E+00</totfact>
</mgrwt>
</event>
<event>
 5    1  0.2366700E-004  0.6509468E+03  0.7818608E-02  0.9805004E-01
         13   -1    0    0    0    0  0.00000000000E+00  0.00000000000E+00  0.10000000000E+04  0.10000000000E+04  0.00000000000E+00 0. -1.
          2   -1    0    0  501    0 -0.00000000000E+00 -0.00000000000E+00 -0.10593292830E+03  0.10593292830E+03  0.00000000000E+00 0. -1.
    9000006    2    1    2  501    0  0.00000000000E+00  0.00000000000E+00  0.89406707170E+03  0.11059329283E+04  0.65094678215E+03 0.  0.
         13    1    3    3    0    0 -0.12419266221E+03 -0.60904746721E+02 -0.53510710500E+02  0.14831251350E+03  0.00000000000E+00 0. -1.
          4    1    3    3  501    0  0.12419266221E+03  0.60904746721E+02  0.94757778220E+03  0.95762041480E+03  0.00000000000E+00 0. -1.
<mgrwt>
<rscale>  0 0.65094678E+03</rscale>
<asrwt>0</asrwt>
<pdfrwt beam="1">0</pdfrwt>
<pdfrwt beam="2">  1        2 0.38521146E+00 0.65094678E+03</pdfrwt>
<totfact> 0.45215617E+00</totfact>
</mgrwt>
</event>
<event>
 5    1  0.2366700E-004  0.6488071E+03  0.7818608E-02  0.9809020E-01
         13   -1    0    0    0    0  0.00000000000E+00  0.00000000000E+00  0.10000000000E+04  0.10000000000E+04  0.00000000000E+00 0. -1.
          2   -1    0    0  501    0 -0.00000000000E+00 -0.00000000000E+00 -0.10523764804E+03  0.10523764804E+03  0.00000000000E+00 0. -1.
    9000006    2    1    2  501    0  0.00000000000E+00  0.00000000000E+00  0.89476235196E+03  0.11052376480E+04  0.64880705311E+03 0.  0.
         13    1    3    3    0    0  0.17395150293E+02  0.32387292489E+03  0.43642237015E+03  0.54374695208E+03  0.00000000000E+00 0. -1.
          4    1    3    3  501    0 -0.17395150293E+02 -0.32387292489E+03  0.45833998181E+03  0.56149069596E+03  0.00000000000E+00 0. -1.
<mgrwt>
<rscale>  0 0.64880705E+03</rscale>
<asrwt>0</asrwt>
<pdfrwt beam="1">0</pdfrwt>
<pdfrwt beam="2">  1        2 0.38268316E+00 0.64880705E+03</pdfrwt>
<totfact> 0.46208129E+00</totfact>
</mgrwt>
</event>
<event>
 5    1  0.2366700E-004  0.6342630E+03  0.7818608E-02  0.9836765E-01
         13   -1    0    0    0    0  0.00000000000E+00  0.00000000000E+00  0.10000000000E+04  0.10000000000E+04  0.00000000000E+00 0. -1.
          2   -1    0    0  501    0 -0.00000000000E+00 -0.00000000000E+00 -0.10057237486E+03  0.10057237486E+03  0.00000000000E+00 0. -1.
    9000006    2    1    2  501    0  0.00000000000E+00  0.00000000000E+00  0.89942762514E+03  0.11005723749E+04  0.63426295763E+03 0.  0.
         13    1    3    3    0    0  0.29084113798E+03 -0.58726519155E+02  0.25544124283E+03  0.39151960376E+03  0.00000000000E+00 0. -1.
          2    1    3    3  501    0 -0.29084113798E+03  0.58726519155E+02  0.64398638231E+03  0.70905277109E+03  0.00000000000E+00 0. -1.
<mgrwt>
<rscale>  0 0.63426296E+03</rscale>
<asrwt>0</asrwt>
<pdfrwt beam="1">0</pdfrwt>
<pdfrwt beam="2">  1        2 0.36571850E+00 0.63426296E+03</pdfrwt>
<totfact> 0.53398732E+00</totfact>
</mgrwt>
</event>
<event>
 5    1  0.2366700E-004  0.6422107E+03  0.7818608E-02  0.9821506E-01
         13   -1    0    0    0    0  0.00000000000E+00  0.00000000000E+00  0.10000000000E+04  0.10000000000E+04  0.00000000000E+00 0. -1.
          2   -1    0    0  501    0 -0.00000000000E+00 -0.00000000000E+00 -0.10310865726E+03  0.10310865726E+03  0.00000000000E+00 0. -1.
    9000006    2    1    2  501    0  0.00000000000E+00  0.00000000000E+00  0.89689134274E+03  0.11031086573E+04  0.64221073570E+03 0.  0.
         13    1    3    3    0    0  0.13006703466E+03 -0.20720089232E+03  0.91190075779E+02  0.26108480079E+03  0.00000000000E+00 0. -1.
          4    1    3    3  501    0 -0.13006703466E+03  0.20720089232E+03  0.80570126696E+03  0.84202385647E+03  0.00000000000E+00 0. -1.
<mgrwt>
<rscale>  0 0.64221074E+03</rscale>
<asrwt>0</asrwt>
<pdfrwt beam="1">0</pdfrwt>
<pdfrwt beam="2">  1        2 0.37494136E+00 0.64221074E+03</pdfrwt>
<totfact> 0.49371777E+00</totfact>
</mgrwt>
</event>
<event>
 5    1  0.2366700E-004  0.6298243E+03  0.7818608E-02  0.9845392E-01
         13   -1    0    0    0    0  0.00000000000E+00  0.00000000000E+00  0.10000000000E+04  0.10000000000E+04  0.00000000000E+00 0. -1.
          2   -1    0    0  501    0 -0.00000000000E+00 -0.00000000000E+00 -0.99169650847E+02  0.99169650847E+02  0.00000000000E+00 0. -1.
    9000006    2    1    2  501    0  0.00000000000E+00  0.00000000000E+00  0.90083034915E+03  0.10991696508E+04  0.62982426389E+03 0.  0.
         13    1    3    3    0    0 -0.18762647745E+03 -0.17471411099E+03  0.76955760506E+03  0.81113970629E+03  0.00000000000E+00 0. -1.
          2    1    3    3  501    0  0.18762647745E+03  0.17471411099E+03  0.13127274410E+03  0.28802994456E+03  0.00000000000E+00 0. -1.
<mgrwt>
<rscale>  0 0.62982426E+03</rscale>
<asrwt>0</asrwt>
<pdfrwt beam="1">0</pdfrwt>
<pdfrwt beam="2">  1        2 0.36061767E+00 0.62982426E+03</pdfrwt>
<totfact> 0.55753360E+00</totfact>
</mgrwt>
</event>
<event>
 5    1  0.2366700E-004  0.6463440E+03  0.7818608E-02  0.9813664E-01
         13   -1    0    0    0    0  0.00000000000E+00  0.00000000000E+00  0.10000000000E+04  0.10000000000E+04  0.00000000000E+00 0. -1.
          2   -1    0    0  501    0 -0.00000000000E+00 -0.00000000000E+00 -0.10444014092E+03  0.10444014092E+03  0.00000000000E+00 0. -1.
    9000006    2    1    2  501    0  0.00000000000E+00  0.00000000000E+00  0.89555985908E+03  0.11044401409E+04  0.64634399796E+03 0.  0.
         13    1    3    3    0    0 -0.22719827726E+03  0.22346680971E+03  0.53953945177E+03  0.62662532047E+03  0.00000000000E+00 0. -1.
          4    1    3    3  501    0  0.22719827726E+03 -0.22346680971E+03  0.35602040730E+03  0.47781482045E+03  0.00000000000E+00 0. -1.
<mgrwt>
<rscale>  0 0.64634400E+03</rscale>
<asrwt>0</asrwt>
<pdfrwt beam="1">0</pdfrwt>
<pdfrwt beam="2">  1        2 0.37978313E+00 0.64634400E+03</pdfrwt>
<totfact> 0.47370909E+00</totfact>
</mgrwt>
</event>
<event>
 5    1  0.2366700E-004  0.6561663E+03  0.7818608E-02  0.9795277E-01
         13   -1    0    0    0    0  0.00000000000E+00  0.00000000000E+00  0.10000000000E+04  0.10000000000E+04  0.00000000000E+00 0. -1.
          2   -1    0    0  501    0 -0.00000000000E+00 -0.00000000000E+00 -0.10763855701E+03  0.10763855701E+03  0.00000000000E+00 0. -1.
    9000006    2    1    2  501    0  0.00000000000E+00  0.00000000000E+00  0.89236144299E+03  0.11076385570E+04  0.65616631127E+03 0.  0.
         13    1    3    3    0    0 -0.25881237696E+02  0.27216556585E+03  0.14002202881E+03  0.30716461751E+03  0.00000000000E+00 0. -1.
          4    1    3    3  501    0  0.25881237696E+02 -0.27216556585E+03  0.75233941418E+03  0.80047393950E+03  0.00000000000E+00 0. -1.
<mgrwt>
<rscale>  0 0.65616631E+03</rscale>
<asrwt>0</asrwt>
<pdfrwt beam="1">0</pdfrwt>
<pdfrwt beam="2">  1        2 0.39141376E+00 0.65616631E+03</pdfrwt>
<totfact> 0.42862101E+00</totfact>
</mgrwt>
</event>
<event>
 5    1  0.2366700E-004  0.6358927E+03  0.7818608E-02  0.9833617E-01
         13   -1    0    0    0    0  0.00000000000E+00  0.00000000000E+00  0.10000000000E+04  0.10000000000E+04  0.00000000000E+00 0. -1.
          2   -1    0    0  501    0 -0.00000000000E+00 -0.00000000000E+00 -0.10108987923E+03  0.10108987923E+03  0.00000000000E+00 0. -1.
    9000006    2    1    2  501    0  0.00000000000E+00  0.00000000000E+00  0.89891012077E+03  0.11010898792E+04  0.63589269294E+03 0.  0.
         13    1    3    3    0    0  0.10476730454E+03  0.10034109434E+03  0.93935457176E+03  0.95049015503E+03  0.00000000000E+00 0. -1.
          2    1    3    3  501    0 -0.10476730454E+03 -0.10034109434E+03 -0.40444450994E+02  0.15059972420E+03  0.00000000000E+00 0. -1.
<mgrwt>
<rscale>  0 0.63589269E+03</rscale>
<asrwt>0</asrwt>
<pdfrwt beam="1">0</pdfrwt>
<pdfrwt beam="2">  1        2 0.36760034E+00 0.63589269E+03</pdfrwt>
<totfact> 0.52553409E+00</totfact>
</mgrwt>
</event>
<event>
 5    1  0.2366700E-004  0.6338733E+03  0.7818608E-02  0.9837519E-01
         13   -1    0    0    0    0  0.00000000000E+00  0.00000000000E+00  0.10000000000E+04  0.10000000000E+04  0.00000000000E+00 0. -1.
          2   -1    0    0  501    0 -0.00000000000E+00 -0.00000000000E+00 -0.10044885096E+03  0.10044885096E+03  0.00000000000E+00 0. -1.
    9000006    2    1    2  501    0  0.00000000000E+00  0.00000000000E+00  0.89955114904E+03  0.11004488510E+04  0.63387333422E+03 0.  0.
         13    1    3    3    0    0 -0.25645166490E+03 -0.17229273333E+03  0.32705848592E+03  0.44991054177E+03  0.00000000000E+00 0. -1.
          2    1    3    3  501    0  0.25645166490E+03  0.17229273333E+03  0.57249266313E+03  0.65053830919E+03  0.00000000000E+00 0. -1.
<mgrwt>
<rscale>  0 0.63387333E+03</rscale>
<asrwt>0</asrwt>
<pdfrwt beam="1">0</pdfrwt>
<pdfrwt beam="2">  1        2 0.36526932E+00 0.63387333E+03</pdfrwt>
<totfact> 0.53602343E+00</totfact>
</mgrwt>
</event>
<event>
 5    1  0.2366700E-004  0.6624044E+03  0.7818608E-02  0.9783778E-01
         13   -1    0    0    0    0  0.00000000000E+00  0.00000000000E+00  0.10000000000E+04  0.10000000000E+04  0.00000000000E+00 0. -1.
          2   -1    0    0  501    0 -0.00000000000E+00 -0.00000000000E+00 -0.10969489179E+03  0.10969489179E+03  0.00000000000E+00 0. -1.
    9000006    2    1    2  501    0  0.00000000000E+00  0.00000000000E+00  0.89030510821E+03  0.11096948918E+04  0.66240438342E+03 0.  0.
         13    1    3    3    0    0  0.25097475661E+03  0.20503721389E+03  0.55958967309E+03  0.64666002641E+03  0.00000000000E+00 0. -1.
          2    1    3    3  501    0 -0.25097475661E+03 -0.20503721389E+03  0.33071543512E+03  0.46303486538E+03  0.00000000000E+00 0. -1.
<mgrwt>
<rscale>  0 0.66240438E+03</rscale>
<asrwt>0</asrwt>
<pdfrwt beam="1">0</pdfrwt>
<pdfrwt beam="2">  1        2 0.39889136E+00 0.66240438E+03</pdfrwt>
<totfact> 0.40172167E+00</totfact>
</mgrwt>
</event>
<event>
 5    1  0.2366700E-004  0.5971169E+03  0.7818608E-02  0.9911406E-01
         13   -1    0    0    0    0  0.00000000000E+00  0.00000000000E+00  0.10000000000E+04  0.10000000000E+04  0.00000000000E+00 0. -1.
          2   -1    0    0  501    0 -0.00000000000E+00 -0.00000000000E+00 -0.89137144573E+02  0.89137144573E+02  0.00000000000E+00 0. -1.
    9000006    2    1    2  501    0  0.00000000000E+00  0.00000000000E+00  0.91086285543E+03  0.10891371446E+04  0.59711688830E+03 0.  0.
         13    1    3    3    0    0 -0.47407284718E+02  0.15033456219E+03  0.91791069788E+03  0.93134740055E+03  0.00000000000E+00 0. -1.
          2    1    3    3  501    0  0.47407284718E+02 -0.15033456219E+03 -0.70478424541E+01  0.15778974402E+03  0.00000000000E+00 0. -1.
<mgrwt>
<rscale>  0 0.59711689E+03</rscale>
<asrwt>0</asrwt>
<pdfrwt beam="1">0</pdfrwt>
<pdfrwt beam="2">  1        2 0.32413575E+00 0.59711689E+03</pdfrwt>
<totfact> 0.75635850E+00</totfact>
</mgrwt>
</event>
<event>
 5    1  0.2366700E-004  0.6478578E+03  0.7818608E-02  0.9810807E-01
         13   -1    0    0    0    0  0.00000000000E+00  0.00000000000E+00  0.10000000000E+04  0.10000000000E+04  0.00000000000E+00 0. -1.
          2   -1    0    0  501    0 -0.00000000000E+00 -0.00000000000E+00 -0.10492993916E+03  0.10492993916E+03  0.00000000000E+00 0. -1.
    9000006    2    1    2  501    0  0.00000000000E+00  0.00000000000E+00  0.89507006084E+03  0.11049299392E+04  0.64785782132E+03 0.  0.
         13    1    3    3    0    0 -0.36879850865E+01 -0.23604638873E+03  0.69239942073E+02  0.24601965053E+03  0.00000000000E+00 0. -1.
          4    1    3    3  501    0  0.36879850865E+01  0.23604638873E+03  0.82583011876E+03  0.85891028864E+03  0.00000000000E+00 0. -1.
<mgrwt>
<rscale>  0 0.64785782E+03</rscale>
<asrwt>0</asrwt>
<pdfrwt beam="1">0</pdfrwt>
<pdfrwt beam="2">  1        2 0.38156422E+00 0.64785782E+03</pdfrwt>
<totfact> 0.46653663E+00</totfact>
</mgrwt>
</event>
<event>
 5    1  0.2366700E-004  0.6459707E+03  0.7818608E-02  0.9814369E-01
         13   -1    0    0    0    0  0.00000000000E+00  0.00000000000E+00  0.10000000000E+04  0.10000000000E+04  0.00000000000E+00 0. -1.
          2   -1    0    0  501    0 -0.00000000000E+00 -0.00000000000E+00 -0.10431952105E+03  0.10431952105E+03  0.00000000000E+00 0. -1.
    9000006    2    1    2  501    0  0.00000000000E+00  0.00000000000E+00  0.89568047895E+03  0.11043195211E+04  0.64597065275E+03 0.  0.
         13    1    3    3    0    0 -0.79104706913E+02  0.13737859627E+03  0.92891728058E+03  0.94234693586E+03  0.00000000000E+00 0. -1.
          4    1    3    3  501    0  0.79104706913E+02 -0.13737859627E+03 -0.33236801636E+02  0.16197258519E+03  0.00000000000E+00 0. -1.
<mgrwt>
<rscale>  0 0.64597065E+03</rscale>
<asrwt>0</asrwt>
<pdfrwt beam="1">0</pdfrwt>
<pdfrwt beam="2">  1        2 0.37934451E+00 0.64597065E+03</pdfrwt>
<totfact> 0.47549073E+00</totfact>
</mgrwt>
</event>
<event>
 5    1  0.2366700E-004  0.6403487E+03  0.7818608E-02  0.9825060E-01
         13   -1    0    0    0    0  0.00000000000E+00  0.00000000000E+00  0.10000000000E+04  0.10000000000E+04  0.00000000000E+00 0. -1.
          2   -1    0    0  501    0 -0.00000000000E+00 -0.00000000000E+00 -0.10251162845E+03  0.10251162845E+03  0.00000000000E+00 0. -1.
    9000006    2    1    2  501    0  0.00000000000E+00  0.00000000000E+00  0.89748837155E+03  0.11025116284E+04  0.64034874388E+03 0.  0.
         13    1    3    3    0    0  0.31621718760E+03  0.11103977657E+02  0.36448423042E+03  0.48266485503E+03  0.00000000000E+00 0. -1.
          4    1    3    3  501    0 -0.31621718760E+03 -0.11103977657E+02  0.53300414113E+03  0.61984677342E+03  0.00000000000E+00 0. -1.
<mgrwt>
<rscale>  0 0.64034874E+03</rscale>
<asrwt>0</asrwt>
<pdfrwt beam="1">0</pdfrwt>
<pdfrwt beam="2">  1        2 0.37277034E+00 0.64034874E+03</pdfrwt>
<totfact> 0.50293831E+00</totfact>
</mgrwt>
</event>
<event>
 5    1  0.2366700E-004  0.6622694E+03  0.7818608E-02  0.9784025E-01
         13   -1    0    0    0    0  0.00000000000E+00  0.00000000000E+00  0.10000000000E+04  0.10000000000E+04  0.00000000000E+00 0. -1.
          2   -1    0    0  501    0 -0.00000000000E+00 -0.00000000000E+00 -0.10965018754E+03  0.10965018754E+03  0.00000000000E+00 0. -1.
    9000006    2    1    2  501    0  0.00000000000E+00  0.00000000000E+00  0.89034981246E+03  0.11096501875E+04  0.66226939394E+03 0.  0.
         13    1    3    3    0    0  0.15666452066E+03 -0.12343152818E+03  0.88806922895E+03  0.91019012827E+03  0.00000000000E+00 0. -1.
          4    1    3    3  501    0 -0.15666452066E+03  0.12343152818E+03  0.22805835098E+01  0.19946005927E+03  0.00000000000E+00 0. -1.
<mgrwt>
<rscale>  0 0.66226939E+03</rscale>
<asrwt>0</asrwt>
<pdfrwt beam="1">0</pdfrwt>
<pdfrwt beam="2">  1        2 0.39872880E+00 0.66226939E+03</pdfrwt>
<totfact> 0.40228989E+00</totfact>
</mgrwt>
</event>
<event>
 5    1  0.2366700E-004  0.6508251E+03  0.7818608E-02  0.9805232E-01
         13   -1    0    0    0    0  0.00000000000E+00  0.00000000000E+00  0.10000000000E+04  0.10000000000E+04  0.00000000000E+00 0. -1.
          2   -1    0    0  501    0 -0.00000000000E+00 -0.00000000000E+00 -0.10589332998E+03  0.10589332998E+03  0.00000000000E+00 0. -1.
    9000006    2    1    2  501    0  0.00000000000E+00  0.00000000000E+00  0.89410667002E+03  0.11058933300E+04  0.65082510700E+03 0.  0.
         13    1    3    3    0    0  0.42786255817E+02  0.50357633474E+02 -0.94372825194E+02  0.11520757384E+03  0.00000000000E+00 0. -1.
          4    1    3    3  501    0 -0.42786255817E+02 -0.50357633474E+02  0.98847949522E+03  0.99068575613E+03  0.00000000000E+00 0. -1.
<mgrwt>
<rscale>  0 0.65082511E+03</rscale>
<asrwt>0</asrwt>
<pdfrwt beam="1">0</pdfrwt>
<pdfrwt beam="2">  1        2 0.38506747E+00 0.65082511E+03</pdfrwt>
<totfact> 0.45271620E+00</totfact>
</mgrwt>
</event>
<event>
 5    1  0.2366700E-004  0.6360849E+03  0.7818608E-02  0.9833246E-01
         13   -1    0    0    0    0  0.00000000000E+00  0.00000000000E+00  0.10000000000E+04  0.10000000000E+04  0.00000000000E+00 0. -1.
          2   -1    0    0  501    0 -0.00000000000E+00 -0.00000000000E+00 -0.10115098572E+03  0.10115098572E+03  0.00000000000E+00 0. -1.
    9000006    2    1    2  501    0  0.00000000000E+00  0.00000000000E+00  0.89884901428E+03  0.11011509857E+04  0.63608485509E+03 0.  0.
         13    1    3    3    0    0 -0.76766060643E+02  0.29669925169E+03  0.30225215932E+03  0.43044144995E+03  0.00000000000E+00 0. -1.
          4    1    3    3  501    0  0.76766060643E+02 -0.29669925169E+03  0.59659685496E+03  0.67070953577E+03  0.00000000000E+00 0. -1.
<mgrwt>
<rscale>  0 0.63608486E+03</rscale>
<asrwt>0</asrwt>
<pdfrwt beam="1">0</pdfrwt>
<pdfrwt beam="2">  1        2 0.36782254E+00 0.63608486E+03</pdfrwt>
<totfact> 0.52454410E+00</totfact>
</mgrwt>
</event>
<event>
 5    1  0.2366700E-004  0.6160112E+03  0.7818608E-02  0.9872734E-01
         13   -1    0    0    0    0  0.00000000000E+00  0.00000000000E+00  0.10000000000E+04  0.10000000000E+04  0.00000000000E+00 0. -1.
          2   -1    0    0  501    0 -0.00000000000E+00 -0.00000000000E+00 -0.94867453898E+02  0.94867453898E+02  0.00000000000E+00 0. -1.
    9000006    2    1    2  501    0  0.00000000000E+00  0.00000000000E+00  0.90513254610E+03  0.10948674539E+04  0.61601121385E+03 0.  0.
         13    1    3    3    0    0 -0.22943992827E+03 -0.16299959719E+03  0.23017793456E+03  0.36358414559E+03  0.00000000000E+00 0. -1.
          2    1    3    3  501    0  0.22943992827E+03  0.16299959719E+03  0.67495461154E+03  0.73128330831E+03  0.00000000000E+00 0. -1.
<mgrwt>
<rscale>  0 0.61601121E+03</rscale>
<asrwt>0</asrwt>
<pdfrwt beam="1">0</pdfrwt>
<pdfrwt beam="2">  1        2 0.34497329E+00 0.61601121E+03</pdfrwt>
<totfact> 0.63588876E+00</totfact>
</mgrwt>
</event>
<event>
 5    1  0.2366700E-004  0.6769265E+03  0.7818608E-02  0.9757525E-01
         13   -1    0    0    0    0  0.00000000000E+00  0.00000000000E+00  0.10000000000E+04  0.10000000000E+04  0.00000000000E+00 0. -1.
          2   -1    0    0  501    0 -0.00000000000E+00 -0.00000000000E+00 -0.11455736499E+03  0.11455736499E+03  0.00000000000E+00 0. -1.
    9000006    2    1    2  501    0  0.00000000000E+00  0.00000000000E+00  0.88544263501E+03  0.11145573650E+04  0.67692648046E+03 0.  0.
         13    1    3    3    0    0 -0.33828795900E+03 -0.88545960322E+01  0.43227963083E+03  0.54898344812E+03  0.00000000000E+00 0. -1.
          4    1    3    3  501    0  0.33828795900E+03  0.88545960322E+01  0.45316300418E+03  0.56557391687E+03  0.00000000000E+00 0. -1.
<mgrwt>
<rscale>  0 0.67692648E+03</rscale>
<asrwt>0</asrwt>
<pdfrwt beam="1">0</pdfrwt>
<pdfrwt beam="2">  1        2 0.41657311E+00 0.67692648E+03</pdfrwt>
<totfact> 0.34403985E+00</totfact>
</mgrwt>
</event>
<event>
 5    1  0.2366700E-004  0.6494765E+03  0.7818608E-02  0.9807762E-01
         13   -1    0    0    0    0  0.00000000000E+00  0.00000000000E+00  0.10000000000E+04  0.10000000000E+04  0.00000000000E+00 0. -1.
          2   -1    0    0  501    0 -0.00000000000E+00 -0.00000000000E+00 -0.10545493556E+03  0.10545493556E+03  0.00000000000E+00 0. -1.
    9000006    2    1    2  501    0  0.00000000000E+00  0.00000000000E+00  0.89454506444E+03  0.11054549356E+04  0.64947651401E+03 0.  0.
         13    1    3    3    0    0  0.27634913815E+03 -0.25459517245E+02  0.16024313983E+03  0.32046044535E+03  0.00000000000E+00 0. -1.
          2    1    3    3  501    0 -0.27634913815E+03  0.25459517245E+02  0.73430192461E+03  0.78499449021E+03  0.00000000000E+00 0. -1.
<mgrwt>
<rscale>  0 0.64947651E+03</rscale>
<asrwt>0</asrwt>
<pdfrwt beam="1">0</pdfrwt>
<pdfrwt beam="2">  1        2 0.38347330E+00 0.64947651E+03</pdfrwt>
<totfact> 0.45895848E+00</totfact>
</mgrwt>
</event>
<event>
 5    1  0.2366700E-004  0.6264570E+03  0.7818608E-02  0.9851987E-01
         13   -1    0    0    0    0  0.00000000000E+00  0.00000000000E+00  0.10000000000E+04  0.10000000000E+04  0.00000000000E+00 0. -1.
          2   -1    0    0  501    0 -0.00000000000E+00 -0.00000000000E+00 -0.98112107159E+02  0.98112107159E+02  0.00000000000E+00 0. -1.
    9000006    2    1    2  501    0  0.00000000000E+00  0.00000000000E+00  0.90188789284E+03  0.10981121072E+04  0.62645704453E+03 0.  0.
         13    1    3    3    0    0  0.25829967550E+03  0.50752555417E+02  0.74851042639E+03  0.79344968502E+03  0.00000000000E+00 0. -1.
          4    1    3    3  501    0 -0.25829967550E+03 -0.50752555417E+02  0.15337746645E+03  0.30466242214E+03  0.00000000000E+00 0. -1.
<mgrwt>
<rscale>  0 0.62645704E+03</rscale>
<asrwt>0</asrwt>
<pdfrwt beam="1">0</pdfrwt>
<pdfrwt beam="2">  1        2 0.35677205E+00 0.62645704E+03</pdfrwt>
<totfact> 0.57591544E+00</totfact>
</mgrwt>
</event>
<event>
 5    1  0.2366700E-004  0.6470434E+03  0.7818608E-02  0.9812343E-01
         13   -1    0    0    0    0  0.00000000000E+00  0.00000000000E+00  0.10000000000E+04  0.10000000000E+04  0.00000000000E+00 0. -1.
          2   -1    0    0  501    0 -0.00000000000E+00 -0.00000000000E+00 -0.10466627452E+03  0.10466627452E+03  0.00000000000E+00 0. -1.
    9000006    2    1    2  501    0  0.00000000000E+00  0.00000000000E+00  0.89533372548E+03  0.11046662745E+04  0.64704335100E+03 0.  0.
         13    1    3    3    0    0 -0.26453247205E+03 -0.14863921075E+03  0.25606453496E+03  0.39703915400E+03  0.00000000000E+00 0. -1.
          4    1    3    3  501    0  0.26453247205E+03  0.14863921075E+03  0.63926919052E+03  0.70762712052E+03  0.00000000000E+00 0. -1.
<mgrwt>
<rscale>  0 0.64704335E+03</rscale>
<asrwt>0</asrwt>
<pdfrwt beam="1">0</pdfrwt>
<pdfrwt beam="2">  1        2 0.38060544E+00 0.64704335E+03</pdfrwt>
<totfact> 0.47038529E+00</totfact>
</mgrwt>
</event>
<event>
 5    1  0.2366700E-004  0.6663106E+03  0.7818608E-02  0.9776646E-01
         13   -1    0    0    0    0  0.00000000000E+00  0.00000000000E+00  0.10000000000E+04  0.10000000000E+04  0.00000000000E+00 0. -1.
          2   -1    0    0  501    0 -0.00000000000E+00 -0.00000000000E+00 -0.11099246436E+03  0.11099246436E+03  0.00000000000E+00 0. -1.
    9000006    2    1    2  501    0  0.00000000000E+00  0.00000000000E+00  0.88900753564E+03  0.11109924644E+04  0.66631063133E+03 0.  0.
         13    1    3    3    0    0  0.32470260632E+03 -0.72514314653E+02  0.41551073510E+03  0.53229623272E+03  0.00000000000E+00 0. -1.
          2    1    3    3  501    0 -0.32470260632E+03  0.72514314653E+02  0.47349680055E+03  0.57869623164E+03  0.00000000000E+00 0. -1.
<mgrwt>
<rscale>  0 0.66631063E+03</rscale>
<asrwt>0</asrwt>
<pdfrwt beam="1">0</pdfrwt>
<pdfrwt beam="2">  1        2 0.40360981E+00 0.66631063E+03</pdfrwt>
<totfact> 0.38553937E+00</totfact>
</mgrwt>
</event>
<event>
 5    1  0.2366700E-004  0.6354770E+03  0.7818608E-02  0.9834419E-01
         13   -1    0    0    0    0  0.00000000000E+00  0.00000000000E+00  0.10000000000E+04  0.10000000000E+04  0.00000000000E+00 0. -1.
          2   -1    0    0  501    0 -0.00000000000E+00 -0.00000000000E+00 -0.10095774601E+03  0.10095774601E+03  0.00000000000E+00 0. -1.
    9000006    2    1    2  501    0  0.00000000000E+00  0.00000000000E+00  0.89904225399E+03  0.11009577460E+04  0.63547697365E+03 0.  0.
         13    1    3    3    0    0 -0.24099007556E+03 -0.18614556579E+03  0.60670448893E+03  0.67883482900E+03  0.00000000000E+00 0. -1.
          2    1    3    3  501    0  0.24099007556E+03  0.18614556579E+03  0.29233776506E+03  0.42212291701E+03  0.00000000000E+00 0. -1.
<mgrwt>
<rscale>  0 0.63547697E+03</rscale>
<asrwt>0</asrwt>
<pdfrwt beam="1">0</pdfrwt>
<pdfrwt beam="2">  1        2 0.36711985E+00 0.63547697E+03</pdfrwt>
<totfact> 0.52768067E+00</totfact>
</mgrwt>
</event>
<event>
 5    1  0.2366700E-004  0.6391676E+03  0.7818608E-02  0.9827320E-01
         13   -1    0    0    0    0  0.00000000000E+00  0.00000000000E+00  0.10000000000E+04  0.10000000000E+04  0.00000000000E+00 0. -1.
          2   -1    0    0  501    0 -0.00000000000E+00 -0.00000000000E+00 -0.10213379944E+03  0.10213379944E+03  0.00000000000E+00 0. -1.
    9000006    2    1    2  501    0  0.00000000000E+00  0.00000000000E+00  0.89786620056E+03  0.11021337994E+04  0.63916758191E+03 0.  0.
         13    1    3    3    0    0  0.27460062386E+03  0.63541039851E+02  0.70867666821E+03  0.76267003772E+03  0.00000000000E+00 0. -1.
          4    1    3    3  501    0 -0.27460062386E+03 -0.63541039851E+02  0.18918953235E+03  0.33946376172E+03  0.00000000000E+00 0. -1.
<mgrwt>
<rscale>  0 0.63916758E+03</rscale>
<asrwt>0</asrwt>
<pdfrwt beam="1">0</pdfrwt>
<pdfrwt beam="2">  1        2 0.37139642E+00 0.63916758E+03</pdfrwt>
<totfact> 0.50885462E+00</totfact>
</mgrwt>
</event>
<event>
 5    1  0.2366700E-004  0.6547077E+03  0.7818608E-02  0.9797985E-01
         13   -1    0    0    0    0  0.00000000000E+00  0.00000000000E+00  0.10000000000E+04  0.10000000000E+04  0.00000000000E+00 0. -1.
          2   -1    0    0  501    0 -0.00000000000E+00 -0.00000000000E+00 -0.10716053660E+03  0.10716053660E+03  0.00000000000E+00 0. -1.
    9000006    2    1    2  501    0  0.00000000000E+00  0.00000000000E+00  0.89283946340E+03  0.11071605366E+04  0.65470768012E+03 0.  0.
         13    1    3    3    0    0  0.17972539948E+03 -0.26249061527E+03  0.31588887061E+03  0.44831721013E+03  0.00000000000E+00 0. -1.
          4    1    3    3  501    0 -0.17972539948E+03  0.26249061527E+03  0.57695059279E+03  0.65884332648E+03  0.00000000000E+00 0. -1.
<mgrwt>
<rscale>  0 0.65470768E+03</rscale>
<asrwt>0</asrwt>
<pdfrwt beam="1">0</pdfrwt>
<pdfrwt beam="2">  1        2 0.38967550E+00 0.65470768E+03</pdfrwt>
<totfact> 0.43510259E+00</totfact>
</mgrwt>
</event>
<event>
 5    1  0.2366700E-004  0.6300625E+03  0.7818608E-02  0.9844927E-01
         13   -1    0    0    0    0  0.00000000000E+00  0.00000000000E+00  0.10000000000E+04  0.10000000000E+04  0.00000000000E+00 0. -1.
          2   -1    0    0  501    0 -0.00000000000E+00 -0.00000000000E+00 -0.99244684874E+02  0.99244684874E+02  0.00000000000E+00 0. -1.
    9000006    2    1    2  501    0  0.00000000000E+00  0.00000000000E+00  0.90075531513E+03  0.10992446849E+04  0.63006248856E+03 0.  0.
         13    1    3    3    0    0 -0.24410809094E+03 -0.99326060483E+02  0.14925191346E+03  0.30287053344E+03  0.00000000000E+00 0. -1.
          4    1    3    3  501    0  0.24410809094E+03  0.99326060483E+02  0.75150340167E+03  0.79637415144E+03  0.00000000000E+00 0. -1.
<mgrwt>
<rscale>  0 0.63006249E+03</rscale>
<asrwt>0</asrwt>
<pdfrwt beam="1">0</pdfrwt>
<pdfrwt beam="2">  1        2 0.36089052E+00 0.63006249E+03</pdfrwt>
<totfact> 0.55625023E+00</totfact>
</mgrwt>
</event>
<event>
 5    1  0.2366700E-004  0.6365957E+03  0.7818608E-02  0.9832262E-01
         13   -1    0    0    0    0  0.00000000000E+00  0.00000000000E+00  0.10000000000E+04  0.10000000000E+04  0.00000000000E+00 0. -1.
          2   -1    0    0  501    0 -0.00000000000E+00 -0.00000000000E+00 -0.10131352254E+03  0.10131352254E+03  0.00000000000E+00 0. -1.
    9000006    2    1    2  501    0  0.00000000000E+00  0.00000000000E+00  0.89868647746E+03  0.11013135225E+04  0.63659570385E+03 0.  0.
         13    1    3    3    0    0  0.24236469823E+03  0.17522300280E+03  0.63782464332E+03  0.70446009346E+03  0.00000000000E+00 0. -1.
          2    1    3    3  501    0 -0.24236469823E+03 -0.17522300280E+03  0.26086183414E+03  0.39685342907E+03  0.00000000000E+00 0. -1.
<mgrwt>
<rscale>  0 0.63659570E+03</rscale>
<asrwt>0</asrwt>
<pdfrwt beam="1">0</pdfrwt>
<pdfrwt beam="2">  1        2 0.36841359E+00 0.63659570E+03</pdfrwt>
<totfact> 0.52191915E+00</totfact>
</mgrwt>
</event>
<event>
 5    1  0.2366700E-004  0.6643532E+03  0.7818608E-02  0.9780213E-01
         13   -1    0    0    0    0  0.00000000000E+00  0.00000000000E+00  0.10000000000E+04  0.10000000000E+04  0.00000000000E+00 0. -1.
          2   -1    0    0  501    0 -0.00000000000E+00 -0.00000000000E+00 -0.11034130683E+03  0.11034130683E+03  0.00000000000E+00 0. -1.
    9000006    2    1    2  501    0  0.00000000000E+00  0.00000000000E+00  0.88965869317E+03  0.11103413068E+04  0.66435323987E+03 0.  0.
         13    1    3    3    0    0  0.24722251286E+03 -0.21742246661E+03  0.51862881773E+03  0.61430232820E+03  0.00000000000E+00 0. -1.
          2    1    3    3  501    0 -0.24722251286E+03  0.21742246661E+03  0.37102987544E+03  0.49603897863E+03  0.00000000000E+00 0. -1.
<mgrwt>
<rscale>  0 0.66435324E+03</rscale>
<asrwt>0</asrwt>
<pdfrwt beam="1">0</pdfrwt>
<pdfrwt beam="2">  1        2 0.40124196E+00 0.66435324E+03</pdfrwt>
<totfact> 0.39358548E+00</totfact>
</mgrwt>
</event>
<event>
 5    1  0.2366700E-004  0.6577101E+03  0.7818608E-02  0.9792418E-01
         13   -1    0    0    0    0  0.00000000000E+00  0.00000000000E+00  0.10000000000E+04  0.10000000000E+04  0.00000000000E+00 0. -1.
          2   -1    0    0  501    0 -0.00000000000E+00 -0.00000000000E+00 -0.10814565292E+03  0.10814565292E+03  0.00000000000E+00 0. -1.
    9000006    2    1    2  501    0  0.00000000000E+00  0.00000000000E+00  0.89185434708E+03  0.11081456529E+04  0.65771012740E+03 0.  0.
         13    1    3    3    0    0  0.10489403710E+02 -0.78785562817E+02 -0.91719430201E+02  0.12136575454E+03  0.00000000000E+00 0. -1.
          2    1    3    3  501    0 -0.10489403710E+02  0.78785562817E+02  0.98357377728E+03  0.98677989838E+03  0.00000000000E+00 0. -1.
<mgrwt>
<rscale>  0 0.65771013E+03</rscale>
<asrwt>0</asrwt>
<pdfrwt beam="1">0</pdfrwt>
<pdfrwt beam="2">  1        2 0.39325775E+00 0.65771013E+03</pdfrwt>
<totfact> 0.42184061E+00</totfact>
</mgrwt>
</event>
<event>
 5    1  0.2366700E-004  0.6501165E+03  0.7818608E-02  0.9806561E-01
         13   -1    0    0    0    0  0.00000000000E+00  0.00000000000E+00  0.10000000000E+04  0.10000000000E+04  0.00000000000E+00 0. -1.
          2   -1    0    0  501    0 -0.00000000000E+00 -0.00000000000E+00 -0.10566286925E+03  0.10566286925E+03  0.00000000000E+00 0. -1.
    9000006    2    1    2  501    0  0.00000000000E+00  0.00000000000E+00  0.89433713075E+03  0.11056628692E+04  0.65011651031E+03 0.  0.
         13    1    3    3    0    0 -0.16348872062E+03  0.25969142912E+03  0.26482948219E+03  0.40534288543E+03  0.00000000000E+00 0. -1.
          4    1    3    3  501    0  0.16348872062E+03 -0.25969142912E+03  0.62950764857E+03  0.70031998382E+03  0.00000000000E+00 0. -1.
<mgrwt>
<rscale>  0 0.65011651E+03</rscale>
<asrwt>0</asrwt>
<pdfrwt beam="1">0</pdfrwt>
<pdfrwt beam="2">  1        2 0.38422943E+00 0.65011651E+03</pdfrwt>
<totfact> 0.45598805E+00</totfact>
</mgrwt>
</event>
<event>
 5    1  0.2366700E-004  0.6616922E+03  0.7818608E-02  0.9785084E-01
         13   -1    0    0    0    0  0.00000000000E+00  0.00000000000E+00  0.10000000000E+04  0.10000000000E+04  0.00000000000E+00 0. -1.
          2   -1    0    0  501    0 -0.00000000000E+00 -0.00000000000E+00 -0.10945913975E+03  0.10945913975E+03  0.00000000000E+00 0. -1.
    9000006    2    1    2  501    0  0.00000000000E+00  0.00000000000E+00  0.89054086025E+03  0.11094591397E+04  0.66169219354E+03 0.  0.
         13    1    3    3    0    0 -0.26082459016E+03 -0.20022235787E+03  0.38387756250E+03  0.50545073194E+03  0.00000000000E+00 0. -1.
          2    1    3    3  501    0  0.26082459016E+03  0.20022235787E+03  0.50666329775E+03  0.60400840781E+03  0.00000000000E+00 0. -1.
<mgrwt>
<rscale>  0 0.66169219E+03</rscale>
<asrwt>0</asrwt>
<pdfrwt beam="1">0</pdfrwt>
<pdfrwt beam="2">  1        2 0.39803407E+00 0.66169219E+03</pdfrwt>
<totfact> 0.40472638E+00</totfact>
</mgrwt>
</event>
<event>
 5    1  0.2366700E-004  0.6286356E+03  0.7818608E-02  0.9847715E-01
         13   -1    0    0    0    0  0.00000000000E+00  0.00000000000E+00  0.10000000000E+04  0.10000000000E+04  0.00000000000E+00 0. -1.
          2   -1    0    0  501    0 -0.00000000000E+00 -0.00000000000E+00 -0.98795682494E+02  0.98795682494E+02  0.00000000000E+00 0. -1.
    9000006    2    1    2  501    0  0.00000000000E+00  0.00000000000E+00  0.90120431751E+03  0.10987956825E+04  0.62863560985E+03 0.  0.
         13    1    3    3    0    0 -0.13155130472E+03 -0.25693058248E+03  0.23315390701E+03  0.37105230675E+03  0.00000000000E+00 0. -1.
          4    1    3    3  501    0  0.13155130472E+03  0.25693058248E+03  0.66805041049E+03  0.72774337575E+03  0.00000000000E+00 0. -1.
<mgrwt>
<rscale>  0 0.62863561E+03</rscale>
<asrwt>0</asrwt>
<pdfrwt beam="1">0</pdfrwt>
<pdfrwt beam="2">  1        2 0.35925778E+00 0.62863561E+03</pdfrwt>
<totfact> 0.56397079E+00</totfact>
</mgrwt>
</event>
<event>
 5    1  0.2366700E-004  0.6501919E+03  0.7818608E-02  0.9806419E-01
         13   -1    0    0    0    0  0.00000000000E+00  0.00000000000E+00  0.10000000000E+04  0.10000000000E+04  0.00000000000E+00 0. -1.
          2   -1    0    0  501    0 -0.00000000000E+00 -0.00000000000E+00 -0.10568737624E+03  0.10568737624E+03  0.00000000000E+00 0. -1.
    9000006    2    1    2  501    0  0.00000000000E+00  0.00000000000E+00  0.89431262376E+03  0.11056873762E+04  0.65019189858E+03 0.  0.
         13    1    3    3    0    0 -0.48539133230E+02 -0.27366012929E+03  0.16036449247E+03  0.32087798968E+03  0.00000000000E+00 0. -1.
          2    1    3    3  501    0  0.48539133230E+02  0.27366012929E+03  0.73394813129E+03  0.78480938656E+03  0.00000000000E+00 0. -1.
<mgrwt>
<rscale>  0 0.65019190E+03</rscale>
<asrwt>0</asrwt>
<pdfrwt beam="1">0</pdfrwt>
<pdfrwt beam="2">  1        2 0.38431854E+00 0.65019190E+03</pdfrwt>
<totfact> 0.45563911E+00</totfact>
</mgrwt>
</event>
<event>
 5    1  0.2366700E-004  0.6327934E+03  0.7818608E-02  0.9839613E-01
         13   -1    0    0    0    0  0.00000000000E+00  0.00000000000E+00  0.10000000000E+04  0.10000000000E+04  0.00000000000E+00 0. -1.
          2   -1    0    0  501    0 -0.00000000000E+00 -0.00000000000E+00 -0.10010688756E+03  0.10010688756E+03  0.00000000000E+00 0. -1.
    9000006    2    1    2  501    0  0.00000000000E+00  0.00000000000E+00  0.89989311244E+03  0.11001068876E+04  0.63279344992E+03 0.  0.
         13    1    3    3    0    0  0.14611343983E+03 -0.22118941923E+03  0.14967008202E+03  0.30442573796E+03  0.00000000000E+00 0. -1.
          4    1    3    3  501    0 -0.14611343983E+03  0.22118941923E+03  0.75022303041E+03  0.79568114961E+03  0.00000000000E+00 0. -1.
<mgrwt>
<rscale>  0 0.63279345E+03</rscale>
<asrwt>0</asrwt>
<pdfrwt beam="1">0</pdfrwt>
<pdfrwt beam="2">  1        2 0.36402581E+00 0.63279345E+03</pdfrwt>
<totfact> 0.54169749E+00</totfact>
</mgrwt>
</event>
<event>
 5    1  0.2366700E-004  0.6515302E+03  0.7818608E-02  0.9803912E-01
         13   -1    0    0    0    0  0.00000000000E+00  0.00000000000E+00  0.10000000000E+04  0.10000000000E+04  0.00000000000E+00 0. -1.
          2   -1    0    0  501    0 -0.00000000000E+00 -0.00000000000E+00 -0.10612291645E+03  0.10612291645E+03  0.00000000000E+00 0. -1.
    9000006    2    1    2  501    0  0.00000000000E+00  0.00000000000E+00  0.89387708355E+03  0.11061229164E+04  0.65153024933E+03 0.  0.
         13    1    3    3    0    0  0.25942689906E+03 -0.39155079419E+01  0.11250166668E+03  0.28279722800E+03  0.00000000000E+00 0. -1.
          2    1    3    3  501    0 -0.25942689906E+03  0.39155079419E+01  0.78137541687E+03  0.82332568845E+03  0.00000000000E+00 0. -1.
<mgrwt>
<rscale>  0 0.65153025E+03</rscale>
<asrwt>0</asrwt>
<pdfrwt beam="1">0</pdfrwt>
<pdfrwt beam="2">  1        2 0.38590233E+00 0.65153025E+03</pdfrwt>
<totfact> 0.44947794E+00</totfact>
</mgrwt>
</event>
<event>
 5    1  0.2366700E-004  0.6567687E+03  0.7818608E-02  0.9794161E-01
         13   -1    0    0    0    0  0.00000000000E+00  0.00000000000E+00  0.10000000000E+04  0.10000000000E+04  0.00000000000E+00 0. -1.
          2   -1    0    0  501    0 -0.00000000000E+00 -0.00000000000E+00 -0.10783627055E+03  0.10783627055E+03  0.00000000000E+00 0. -1.
    9000006    2    1    2  501    0  0.00000000000E+00  0.00000000000E+00  0.89216372945E+03  0.11078362705E+04  0.65676866718E+03 0.  0.
         13    1    3    3    0    0 -0.27266234755E+03 -0.47532260410E+02  0.14798017625E+03  0.31385060795E+03  0.00000000000E+00 0. -1.
          4    1    3    3  501    0  0.27266234755E+03  0.47532260410E+02  0.74418355320E+03  0.79398566259E+03  0.00000000000E+00 0. -1.
<mgrwt>
<rscale>  0 0.65676867E+03</rscale>
<asrwt>0</asrwt>
<pdfrwt beam="1">0</pdfrwt>
<pdfrwt beam="2">  1        2 0.39213272E+00 0.65676867E+03</pdfrwt>
<totfact> 0.42596576E+00</totfact>
</mgrwt>
</event>
<event>
 5    1  0.2366700E-004  0.6325857E+03  0.7818608E-02  0.9840016E-01
         13   -1    0    0    0    0  0.00000000000E+00  0.00000000000E+00  0.10000000000E+04  0.10000000000E+04  0.00000000000E+00 0. -1.
          2   -1    0    0  501    0 -0.00000000000E+00 -0.00000000000E+00 -0.10004116641E+03  0.10004116641E+03  0.00000000000E+00 0. -1.
    9000006    2    1    2  501    0  0.00000000000E+00  0.00000000000E+00  0.89995883359E+03  0.11000411664E+04  0.63258569825E+03 0.  0.
         13    1    3    3    0    0 -0.12757346905E+03  0.23725306376E+03  0.73823351553E+03  0.78584523268E+03  0.00000000000E+00 0. -1.
          2    1    3    3  501    0  0.12757346905E+03 -0.23725306376E+03  0.16172531806E+03  0.31419593373E+03  0.00000000000E+00 0. -1.
<mgrwt>
<rscale>  0 0.63258570E+03</rscale>
<asrwt>0</asrwt>
<pdfrwt beam="1">0</pdfrwt>
<pdfrwt beam="2">  1        2 0.36378683E+00 0.63258570E+03</pdfrwt>
<totfact> 0.54279429E+00</totfact>
</mgrwt>
</event>
<event>
 5    1  0.2366700E-004  0.6187265E+03  0.7818608E-02  0.9867299E-01
         13   -1    0    0    0    0  0.00000000000E+00  0.00000000000E+00  0.10000000000E+04  0.10000000000E+04  0.00000000000E+00 0. -1.
          2   -1    0    0  501    0 -0.00000000000E+00 -0.00000000000E+00 -0.95705606468E+02  0.95705606468E+02  0.00000000000E+00 0. -1.
    9000006    2    1    2  501    0  0.00000000000E+00  0.00000000000E+00  0.90429439353E+03  0.10957056065E+04  0.61872645480E+03 0.  0.
         13    1    3    3    0    0 -0.20081120270E+03 -0.22011883603E+03  0.59954951737E+03  0.66950508951E+03  0.00000000000E+00 0. -1.
          4    1    3    3  501    0  0.20081120270E+03  0.22011883603E+03  0.30474487616E+03  0.42620051695E+03  0.00000000000E+00 0. -1.
<mgrwt>
<rscale>  0 0.61872645E+03</rscale>
<asrwt>0</asrwt>
<pdfrwt beam="1">0</pdfrwt>
<pdfrwt beam="2">  1        2 0.34802112E+00 0.61872645E+03</pdfrwt>
<totfact> 0.61986294E+00</totfact>
</mgrwt>
</event>
<event>
 5    1  0.2366700E-004  0.7005324E+03  0.7818608E-02  0.9716322E-01
         13   -1    0    0    0    0  0.00000000000E+00  0.00000000000E+00  0.10000000000E+04  0.10000000000E+04  0.00000000000E+00 0. -1.
          2   -1    0    0  501    0 -0.00000000000E+00 -0.00000000000E+00 -0.12268640810E+03  0.12268640810E+03  0.00000000000E+00 0. -1.
    9000006    2    1    2  501    0  0.00000000000E+00  0.00000000000E+00  0.87731359190E+03  0.11226864081E+04  0.70053239212E+03 0.  0.
         13    1    3    3    0    0  0.12313103104E+03  0.31216444768E+03  0.27776699500E+03  0.43561725943E+03  0.00000000000E+00 0. -1.
          2    1    3    3  501    0 -0.12313103104E+03 -0.31216444768E+03  0.59954659690E+03  0.68706914867E+03  0.00000000000E+00 0. -1.
<mgrwt>
<rscale>  0 0.70053239E+03</rscale>
<asrwt>0</asrwt>
<pdfrwt beam="1">0</pdfrwt>
<pdfrwt beam="2">  1        2 0.44613333E+00 0.70053239E+03</pdfrwt>
<totfact> 0.26386400E+00</totfact>
</mgrwt>
</event>
<event>
 5    1  0.2366700E-004  0.6330259E+03  0.7818608E-02  0.9839162E-01
         13   -1    0    0    0    0  0.00000000000E+00  0.00000000000E+00  0.10000000000E+04  0.10000000000E+04  0.00000000000E+00 0. -1.
          2   -1    0    0  501    0 -0.00000000000E+00 -0.00000000000E+00 -0.10018043757E+03  0.10018043757E+03  0.00000000000E+00 0. -1.
    9000006    2    1    2  501    0  0.00000000000E+00  0.00000000000E+00  0.89981956243E+03  0.11001804376E+04  0.63302586856E+03 0.  0.
         13    1    3    3    0    0 -0.28869934950E+03  0.42746816285E+01  0.22454348739E+03  0.36576681784E+03  0.00000000000E+00 0. -1.
          4    1    3    3  501    0  0.28869934950E+03 -0.42746816285E+01  0.67527607505E+03  0.73441361972E+03  0.00000000000E+00 0. -1.
<mgrwt>
<rscale>  0 0.63302587E+03</rscale>
<asrwt>0</asrwt>
<pdfrwt beam="1">0</pdfrwt>
<pdfrwt beam="2">  1        2 0.36429327E+00 0.63302587E+03</pdfrwt>
<totfact> 0.54047246E+00</totfact>
</mgrwt>
</event>
<event>
 5    1  0.2366700E-004  0.6453343E+03  0.7818608E-02  0.9815574E-01
         13   -1    0    0    0    0  0.00000000000E+00  0.00000000000E+00  0.10000000000E+04  0.10000000000E+04  0.00000000000E+00 0. -1.
          2   -1    0    0  501    0 -0.00000000000E+00 -0.00000000000E+00 -0.10411408264E+03  0.10411408264E+03  0.00000000000E+00 0. -1.
    9000006    2    1    2  501    0  0.00000000000E+00  0.00000000000E+00  0.89588591736E+03  0.11041140826E+04  0.64533427815E+03 0.  0.
         13    1    3    3    0    0 -0.24249355943E+02 -0.27216669709E+03  0.74156033090E+03  0.79030023829E+03  0.00000000000E+00 0. -1.
          4    1    3    3  501    0  0.24249355943E+02  0.27216669709E+03  0.15432558646E+03  0.31381384435E+03  0.00000000000E+00 0. -1.
<mgrwt>
<rscale>  0 0.64533428E+03</rscale>
<asrwt>0</asrwt>
<pdfrwt beam="1">0</pdfrwt>
<pdfrwt beam="2">  1        2 0.37859746E+00 0.64533428E+03</pdfrwt>
<totfact> 0.47853926E+00</totfact>
</mgrwt>
</event>
<event>
 5    1  0.2366700E-004  0.6463809E+03  0.7818608E-02  0.9813594E-01
         13   -1    0    0    0    0  0.00000000000E+00  0.00000000000E+00  0.10000000000E+04  0.10000000000E+04  0.00000000000E+00 0. -1.
          2   -1    0    0  501    0 -0.00000000000E+00 -0.00000000000E+00 -0.10445207213E+03  0.10445207213E+03  0.00000000000E+00 0. -1.
    9000006    2    1    2  501    0  0.00000000000E+00  0.00000000000E+00  0.89554792787E+03  0.11044520721E+04  0.64638091596E+03 0.  0.
         13    1    3    3    0    0  0.32240517413E+03 -0.82227237216E+01  0.48358937261E+03  0.58126705635E+03  0.00000000000E+00 0. -1.
          2    1    3    3  501    0 -0.32240517413E+03  0.82227237216E+01  0.41195855526E+03  0.52318501578E+03  0.00000000000E+00 0. -1.
<mgrwt>
<rscale>  0 0.64638092E+03</rscale>
<asrwt>0</asrwt>
<pdfrwt beam="1">0</pdfrwt>
<pdfrwt beam="2">  1        2 0.37982652E+00 0.64638092E+03</pdfrwt>
<totfact> 0.47353318E+00</totfact>
</mgrwt>
</event>
<event>
 5    1  0.2366700E-004  0.6466299E+03  0.7818608E-02  0.9813123E-01
         13   -1    0    0    0    0  0.00000000000E+00  0.00000000000E+00  0.10000000000E+04  0.10000000000E+04  0.00000000000E+00 0. -1.
          2   -1    0    0  501    0 -0.00000000000E+00 -0.00000000000E+00 -0.10453257120E+03  0.10453257120E+03  0.00000000000E+00 0. -1.
    9000006    2    1    2  501    0  0.00000000000E+00  0.00000000000E+00  0.89546742880E+03  0.11045325712E+04  0.64662994424E+03 0.  0.
         13    1    3    3    0    0  0.92617023217E+02 -0.26137412088E+03  0.16376021984E+03  0.32204309286E+03  0.00000000000E+00 0. -1.
          2    1    3    3  501    0 -0.92617023217E+02  0.26137412088E+03  0.73170720896E+03  0.78248947833E+03  0.00000000000E+00 0. -1.
<mgrwt>
<rscale>  0 0.64662994E+03</rscale>
<asrwt>0</asrwt>
<pdfrwt beam="1">0</pdfrwt>
<pdfrwt beam="2">  1        2 0.38011924E+00 0.64662994E+03</pdfrwt>
<totfact> 0.47234794E+00</totfact>
</mgrwt>
</event>
<event>
 5    1  0.2366700E-004  0.6423609E+03  0.7818608E-02  0.9821220E-01
         13   -1    0    0    0    0  0.00000000000E+00  0.00000000000E+00  0.10000000000E+04  0.10000000000E+04  0.00000000000E+00 0. -1.
          2   -1    0    0  501    0 -0.00000000000E+00 -0.00000000000E+00 -0.10315689163E+03  0.10315689163E+03  0.00000000000E+00 0. -1.
    9000006    2    1    2  501    0  0.00000000000E+00  0.00000000000E+00  0.89684310837E+03  0.11031568916E+04  0.64236093166E+03 0.  0.
         13    1    3    3    0    0  0.87590253258E+02  0.30898873832E+03  0.44277809924E+03  0.54699043688E+03  0.00000000000E+00 0. -1.
          4    1    3    3  501    0 -0.87590253258E+02 -0.30898873832E+03  0.45406500913E+03  0.55616645475E+03  0.00000000000E+00 0. -1.
<mgrwt>
<rscale>  0 0.64236093E+03</rscale>
<asrwt>0</asrwt>
<pdfrwt beam="1">0</pdfrwt>
<pdfrwt beam="2">  1        2 0.37511676E+00 0.64236093E+03</pdfrwt>
<totfact> 0.49297962E+00</totfact>
</mgrwt>
</event>
<event>
 5    1  0.2366700E-004  0.6388429E+03  0.7818608E-02  0.9827943E-01
         13   -1    0    0    0    0  0.00000000000E+00  0.00000000000E+00  0.10000000000E+04  0.10000000000E+04  0.00000000000E+00 0. -1.
          2   -1    0    0  501    0 -0.00000000000E+00 -0.00000000000E+00 -0.10203006000E+03  0.10203006000E+03  0.00000000000E+00 0. -1.
    9000006    2    1    2  501    0  0.00000000000E+00  0.00000000000E+00  0.89796994000E+03  0.11020300600E+04  0.63884289149E+03 0.  0.
         13    1    3    3    0    0  0.12241164971E+03 -0.28302162624E+03  0.30523402567E+03  0.43388208459E+03  0.00000000000E+00 0. -1.
          2    1    3    3  501    0 -0.12241164971E+03  0.28302162624E+03  0.59273591433E+03  0.66814797541E+03  0.00000000000E+00 0. -1.
<mgrwt>
<rscale>  0 0.63884289E+03</rscale>
<asrwt>0</asrwt>
<pdfrwt beam="1">0</pdfrwt>
<pdfrwt beam="2">  1        2 0.37101918E+00 0.63884289E+03</pdfrwt>
<totfact> 0.51049015E+00</totfact>
</mgrwt>
</event>
<event>
 5    1  0.2366700E-004  0.6595496E+03  0.7818608E-02  0.9789023E-01
         13   -1    0    0    0    0  0.00000000000E+00  0.00000000000E+00  0.10000000000E+04  0.10000000000E+04  0.00000000000E+00 0. -1.
          2   -1    0    0  501    0 -0.00000000000E+00 -0.00000000000E+00 -0.10875141770E+03  0.10875141770E+03  0.00000000000E+00 0. -1.
    9000006    2    1    2  501    0  0.00000000000E+00  0.00000000000E+00  0.89124858230E+03  0.11087514177E+04  0.65954959693E+03 0.  0.
         13    1    3    3    0    0 -0.26194727776E+03 -0.19921689718E+03  0.48119277574E+03  0.58296675366E+03  0.00000000000E+00 0. -1.
          4    1    3    3  501    0  0.26194727776E+03  0.19921689718E+03  0.41005580656E+03  0.52578466404E+03  0.00000000000E+00 0. -1.
<mgrwt>
<rscale>  0 0.65954960E+03</rscale>
<asrwt>0</asrwt>
<pdfrwt beam="1">0</pdfrwt>
<pdfrwt beam="2">  1        2 0.39546053E+00 0.65954960E+03</pdfrwt>
<totfact> 0.41386827E+00</totfact>
</mgrwt>
</event>
<event>
 5    1  0.2366700E-004  0.6486596E+03  0.7818608E-02  0.9809298E-01
         13   -1    0    0    0    0  0.00000000000E+00  0.00000000000E+00  0.10000000000E+04  0.10000000000E+04  0.00000000000E+00 0. -1.
          2   -1    0    0  501    0 -0.00000000000E+00 -0.00000000000E+00 -0.10518981093E+03  0.10518981093E+03  0.00000000000E+00 0. -1.
    9000006    2    1    2  501    0  0.00000000000E+00  0.00000000000E+00  0.89481018907E+03  0.11051898109E+04  0.64865957460E+03 0.  0.
         13    1    3    3    0    0 -0.17696117107E+03 -0.95662694462E+02  0.13944080482E+02  0.20164583943E+03  0.00000000000E+00 0. -1.
          2    1    3    3  501    0  0.17696117107E+03  0.95662694462E+02  0.88086610859E+03  0.90354397150E+03  0.00000000000E+00 0. -1.
<mgrwt>
<rscale>  0 0.64865957E+03</rscale>
<asrwt>0</asrwt>
<pdfrwt beam="1">0</pdfrwt>
<pdfrwt beam="2">  1        2 0.38250921E+00 0.64865957E+03</pdfrwt>
<totfact> 0.46277138E+00</totfact>
</mgrwt>
</event>
<event>
 5    1  0.2366700E-004  0.6826812E+03  0.7818608E-02  0.9747317E-01
         13   -1    0    0    0    0  0.00000000000E+00  0.00000000000E+00  0.10000000000E+04  0.10000000000E+04  0.00000000000E+00 0. -1.
          2   -1    0    0  501    0 -0.00000000000E+00 -0.00000000000E+00 -0.11651341755E+03  0.11651341755E+03  0.00000000000E+00 0. -1.
    9000006    2    1    2  501    0  0.00000000000E+00  0.00000000000E+00  0.88348658245E+03  0.11165134176E+04  0.68268123617E+03 0.  0.
         13    1    3    3    0    0 -0.25588283787E+03  0.93566078191E+02  0.77804397186E+03  0.82436827926E+03  0.00000000000E+00 0. -1.
          4    1    3    3  501    0  0.25588283787E+03 -0.93566078191E+02  0.10544261059E+03  0.29214513829E+03  0.00000000000E+00 0. -1.
<mgrwt>
<rscale>  0 0.68268124E+03</rscale>
<asrwt>0</asrwt>
<pdfrwt beam="1">0</pdfrwt>
<pdfrwt beam="2">  1        2 0.42368605E+00 0.68268124E+03</pdfrwt>
<totfact> 0.32300269E+00</totfact>
</mgrwt>
</event>
<event>
 5    1  0.2366700E-004  0.4987499E+03  0.7818608E-02  0.1014106E+00
         13   -1    0    0    0    0  0.00000000000E+00  0.00000000000E+00  0.10000000000E+04  0.10000000000E+04  0.00000000000E+00 0. -1.
          2   -1    0    0  501    0 -0.00000000000E+00 -0.00000000000E+00 -0.62187868503E+02  0.62187868503E+02  0.00000000000E+00 0. -1.
    9000006    2    1    2  501    0  0.00000000000E+00  0.00000000000E+00  0.93781213150E+03  0.10621878685E+04  0.49874991129E+03 0.  0.
         13    1    3    3    0    0 -0.38330469941E+02 -0.52695998446E+02 -0.43736193891E+02  0.78478964278E+02  0.00000000000E+00 0. -1.
          2    1    3    3  501    0  0.38330469941E+02  0.52695998446E+02  0.98154832539E+03  0.98370890422E+03  0.00000000000E+00 0. -1.
<mgrwt>
<rscale>  0 0.49874991E+03</rscale>
<asrwt>0</asrwt>
<pdfrwt beam="1">0</pdfrwt>
<pdfrwt beam="2">  1        2 0.22613818E+00 0.49874991E+03</pdfrwt>
<totfact> 0.17006576E+01</totfact>
</mgrwt>
</event>
<event>
 5    1  0.2366700E-004  0.6566964E+03  0.7818608E-02  0.9794294E-01
         13   -1    0    0    0    0  0.00000000000E+00  0.00000000000E+00  0.10000000000E+04  0.10000000000E+04  0.00000000000E+00 0. -1.
          2   -1    0    0  501    0 -0.00000000000E+00 -0.00000000000E+00 -0.10781253945E+03  0.10781253945E+03  0.00000000000E+00 0. -1.
    9000006    2    1    2  501    0  0.00000000000E+00  0.00000000000E+00  0.89218746055E+03  0.11078125394E+04  0.65669639697E+03 0.  0.
         13    1    3    3    0    0 -0.86871492217E+02 -0.76095922234E+02  0.96460806704E+03  0.97149676712E+03  0.00000000000E+00 0. -1.
          2    1    3    3  501    0  0.86871492217E+02  0.76095922234E+02 -0.72420606484E+02  0.13631577232E+03  0.00000000000E+00 0. -1.
<mgrwt>
<rscale>  0 0.65669640E+03</rscale>
<asrwt>0</asrwt>
<pdfrwt beam="1">0</pdfrwt>
<pdfrwt beam="2">  1        2 0.39204642E+00 0.65669640E+03</pdfrwt>
<totfact> 0.42628368E+00</totfact>
</mgrwt>
</event>
<event>
 5    1  0.2366700E-004  0.6449093E+03  0.7818608E-02  0.9816379E-01
         13   -1    0    0    0    0  0.00000000000E+00  0.00000000000E+00  0.10000000000E+04  0.10000000000E+04  0.00000000000E+00 0. -1.
          2   -1    0    0  501    0 -0.00000000000E+00 -0.00000000000E+00 -0.10397701423E+03  0.10397701423E+03  0.00000000000E+00 0. -1.
    9000006    2    1    2  501    0  0.00000000000E+00  0.00000000000E+00  0.89602298577E+03  0.11039770142E+04  0.64490934008E+03 0.  0.
         13    1    3    3    0    0  0.16250081571E+02 -0.31768745532E+03  0.35763012405E+03  0.47863210302E+03  0.00000000000E+00 0. -1.
          4    1    3    3  501    0 -0.16250081571E+02  0.31768745532E+03  0.53839286172E+03  0.62534491120E+03  0.00000000000E+00 0. -1.
<mgrwt>
<rscale>  0 0.64490934E+03</rscale>
<asrwt>0</asrwt>
<pdfrwt beam="1">0</pdfrwt>
<pdfrwt beam="2">  1        2 0.37809903E+00 0.64490934E+03</pdfrwt>
<totfact> 0.48058313E+00</totfact>
</mgrwt>
</event>
<event>
 5    1  0.2366700E-004  0.5494125E+03  0.7818608E-02  0.1001630E+00
         13   -1    0    0    0    0  0.00000000000E+00  0.00000000000E+00  0.10000000000E+04  0.10000000000E+04  0.00000000000E+00 0. -1.
          2   -1    0    0  501    0 -0.00000000000E+00 -0.00000000000E+00 -0.75463527337E+02  0.75463527337E+02  0.00000000000E+00 0. -1.
    9000006    2    1    2  501    0  0.00000000000E+00  0.00000000000E+00  0.92453647266E+03  0.10754635273E+04  0.54941251292E+03 0.  0.
         13    1    3    3    0    0  0.23193853350E+03 -0.71865424829E+02  0.71373692406E+03  0.75391015338E+03  0.00000000000E+00 0. -1.
          4    1    3    3  501    0 -0.23193853350E+03  0.71865424829E+02  0.21079954860E+03  0.32155337395E+03  0.00000000000E+00 0. -1.
<mgrwt>
<rscale>  0 0.54941251E+03</rscale>
<asrwt>0</asrwt>
<pdfrwt beam="1">0</pdfrwt>
<pdfrwt beam="2">  1        2 0.27441341E+00 0.54941251E+03</pdfrwt>
<totfact> 0.11396654E+01</totfact>
</mgrwt>
</event>
<event>
 5    1  0.2366700E-004  0.6493440E+03  0.7818608E-02  0.9808011E-01
         13   -1    0    0    0    0  0.00000000000E+00  0.00000000000E+00  0.10000000000E+04  0.10000000000E+04  0.00000000000E+00 0. -1.
          2   -1    0    0  501    0 -0.00000000000E+00 -0.00000000000E+00 -0.10541190996E+03  0.10541190996E+03  0.00000000000E+00 0. -1.
    9000006    2    1    2  501    0  0.00000000000E+00  0.00000000000E+00  0.89458809004E+03  0.11054119100E+04  0.64934400731E+03 0.  0.
         13    1    3    3    0    0  0.20246071489E+03  0.22894418607E+03  0.63382494993E+03  0.70366174300E+03  0.00000000000E+00 0. -1.
          4    1    3    3  501    0 -0.20246071489E+03 -0.22894418607E+03  0.26076314011E+03  0.40175016695E+03  0.00000000000E+00 0. -1.
<mgrwt>
<rscale>  0 0.64934401E+03</rscale>
<asrwt>0</asrwt>
<pdfrwt beam="1">0</pdfrwt>
<pdfrwt beam="2">  1        2 0.38331684E+00 0.64934401E+03</pdfrwt>
<totfact> 0.45957530E+00</totfact>
</mgrwt>
</event>
<event>
 5    1  0.2366700E-004  0.6606328E+03  0.7818608E-02  0.9787029E-01
         13   -1    0    0    0    0  0.00000000000E+00  0.00000000000E+00  0.10000000000E+04  0.10000000000E+04  0.00000000000E+00 0. -1.
          2   -1    0    0  501    0 -0.00000000000E+00 -0.00000000000E+00 -0.10910893256E+03  0.10910893256E+03  0.00000000000E+00 0. -1.
    9000006    2    1    2  501    0  0.00000000000E+00  0.00000000000E+00  0.89089106744E+03  0.11091089326E+04  0.66063282560E+03 0.  0.
         13    1    3    3    0    0 -0.70295672107E+02 -0.24616694090E+03  0.95013106640E+02  0.27306983492E+03  0.00000000000E+00 0. -1.
          4    1    3    3  501    0  0.70295672107E+02  0.24616694090E+03  0.79587796080E+03  0.83603909764E+03  0.00000000000E+00 0. -1.
<mgrwt>
<rscale>  0 0.66063283E+03</rscale>
<asrwt>0</asrwt>
<pdfrwt beam="1">0</pdfrwt>
<pdfrwt beam="2">  1        2 0.39676059E+00 0.66063283E+03</pdfrwt>
<totfact> 0.40922716E+00</totfact>
</mgrwt>
</event>
<event>
 5    1  0.2366700E-004  0.6463448E+03  0.7818608E-02  0.9813662E-01
         13   -1    0    0    0    0  0.00000000000E+00  0.00000000000E+00  0.10000000000E+04  0.10000000000E+04  0.00000000000E+00 0. -1.
          2   -1    0    0  501    0 -0.00000000000E+00 -0.00000000000E+00 -0.10444040071E+03  0.10444040071E+03  0.00000000000E+00 0. -1.
    9000006    2    1    2  501    0  0.00000000000E+00  0.00000000000E+00  0.89555959929E+03  0.11044404007E+04  0.64634480181E+03 0.  0.
         13    1    3    3    0    0  0.25937878597E+02 -0.29263639027E+03  0.21769086514E+03  0.36564756696E+03  0.00000000000E+00 0. -1.
          2    1    3    3  501    0 -0.25937878597E+02  0.29263639027E+03  0.67786873416E+03  0.73879283375E+03  0.00000000000E+00 0. -1.
<mgrwt>
<rscale>  0 0.64634480E+03</rscale>
<asrwt>0</asrwt>
<pdfrwt beam="1">0</pdfrwt>
<pdfrwt beam="2">  1        2 0.37978408E+00 0.64634480E+03</pdfrwt>
<totfact> 0.47370526E+00</totfact>
</mgrwt>
</event>
<event>
 5    1  0.2366700E-004  0.6518579E+03  0.7818608E-02  0.9803299E-01
         13   -1    0    0    0    0  0.00000000000E+00  0.00000000000E+00  0.10000000000E+04  0.10000000000E+04  0.00000000000E+00 0. -1.
          2   -1    0    0  501    0 -0.00000000000E+00 -0.00000000000E+00 -0.10622969108E+03  0.10622969108E+03  0.00000000000E+00 0. -1.
    9000006    2    1    2  501    0  0.00000000000E+00  0.00000000000E+00  0.89377030892E+03  0.11062296911E+04  0.65185793263E+03 0.  0.
         13    1    3    3    0    0  0.88481155071E+02 -0.30866624045E+03  0.54176672417E+03  0.62977372620E+03  0.00000000000E+00 0. -1.
          4    1    3    3  501    0 -0.88481155071E+02  0.30866624045E+03  0.35200358475E+03  0.47645596488E+03  0.00000000000E+00 0. -1.
<mgrwt>
<rscale>  0 0.65185793E+03</rscale>
<asrwt>0</asrwt>
<pdfrwt beam="1">0</pdfrwt>
<pdfrwt beam="2">  1        2 0.38629060E+00 0.65185793E+03</pdfrwt>
<totfact> 0.44797907E+00</totfact>
</mgrwt>
</event>
<event>
 5    1  0.2366700E-004  0.6464431E+03  0.7818608E-02  0.9813476E-01
         13   -1    0    0    0    0  0.00000000000E+00  0.00000000000E+00  0.10000000000E+04  0.10000000000E+04  0.00000000000E+00 0. -1.
          2   -1    0    0  501    0 -0.00000000000E+00 -0.00000000000E+00 -0.10447217552E+03  0.10447217552E+03  0.00000000000E+00 0. -1.
    9000006    2    1    2  501    0  0.00000000000E+00  0.00000000000E+00  0.89552782448E+03  0.11044721755E+04  0.64644311588E+03 0.  0.
         13    1    3    3    0    0  0.25445161824E+03 -0.14408427779E+03  0.21246743062E+03  0.36145305948E+03  0.00000000000E+00 0. -1.
          4    1    3    3  501    0 -0.25445161824E+03  0.14408427779E+03  0.68306039387E+03  0.74301911604E+03  0.00000000000E+00 0. -1.
<mgrwt>
<rscale>  0 0.64644312E+03</rscale>
<asrwt>0</asrwt>
<pdfrwt beam="1">0</pdfrwt>
<pdfrwt beam="2">  1        2 0.37989962E+00 0.64644312E+03</pdfrwt>
<totfact> 0.47323693E+00</totfact>
</mgrwt>
</event>
<event>
 5    1  0.2366700E-004  0.6738544E+03  0.7818608E-02  0.9763020E-01
         13   -1    0    0    0    0  0.00000000000E+00  0.00000000000E+00  0.10000000000E+04  0.10000000000E+04  0.00000000000E+00 0. -1.
          2   -1    0    0  501    0 -0.00000000000E+00 -0.00000000000E+00 -0.11351994188E+03  0.11351994188E+03  0.00000000000E+00 0. -1.
    9000006    2    1    2  501    0  0.00000000000E+00  0.00000000000E+00  0.88648005812E+03  0.11135199419E+04  0.67385441121E+03 0.  0.
         13    1    3    3    0    0 -0.13167933401E+03 -0.15020011811E+03 -0.51243137351E+01  0.19981436654E+03  0.00000000000E+00 0. -1.
          4    1    3    3  501    0  0.13167933401E+03  0.15020011811E+03  0.89160437186E+03  0.91370557534E+03  0.00000000000E+00 0. -1.
<mgrwt>
<rscale>  0 0.67385441E+03</rscale>
<asrwt>0</asrwt>
<pdfrwt beam="1">0</pdfrwt>
<pdfrwt beam="2">  1        2 0.41280066E+00 0.67385441E+03</pdfrwt>
<totfact> 0.35568391E+00</totfact>
</mgrwt>
</event>
<event>
 5    1  0.2366700E-004  0.6492299E+03  0.7818608E-02  0.9808225E-01
         13   -1    0    0    0    0  0.00000000000E+00  0.00000000000E+00  0.10000000000E+04  0.10000000000E+04  0.00000000000E+00 0. -1.
          2   -1    0    0  501    0 -0.00000000000E+00 -0.00000000000E+00 -0.10537486557E+03  0.10537486557E+03  0.00000000000E+00 0. -1.
    9000006    2    1    2  501    0  0.00000000000E+00  0.00000000000E+00  0.89462513443E+03  0.11053748656E+04  0.64922989941E+03 0.  0.
         13    1    3    3    0    0  0.20839460819E+03  0.24784765581E+03  0.48606640055E+03  0.58405249675E+03  0.00000000000E+00 0. -1.
          4    1    3    3  501    0 -0.20839460819E+03 -0.24784765581E+03  0.40855873388E+03  0.52132236883E+03  0.00000000000E+00 0. -1.
<mgrwt>
<rscale>  0 0.64922990E+03</rscale>
<asrwt>0</asrwt>
<pdfrwt beam="1">0</pdfrwt>
<pdfrwt beam="2">  1        2 0.38318214E+00 0.64922990E+03</pdfrwt>
<totfact> 0.46010699E+00</totfact>
</mgrwt>
</event>
<event>
 5    1  0.2366700E-004  0.4800549E+03  0.7818608E-02  0.1019120E+00
         13   -1    0    0    0    0  0.00000000000E+00  0.00000000000E+00  0.10000000000E+04  0.10000000000E+04  0.00000000000E+00 0. -1.
          2   -1    0    0  501    0 -0.00000000000E+00 -0.00000000000E+00 -0.57613181356E+02  0.57613181356E+02  0.00000000000E+00 0. -1.
    9000006    2    1    2  501    0  0.00000000000E+00  0.00000000000E+00  0.94238681864E+03  0.10576131814E+04  0.48005491917E+03 0.  0.
         13    1    3    3    0    0 -0.85310587464E+02 -0.22387861318E+03  0.43899095399E+03  0.50011257479E+03  0.00000000000E+00 0. -1.
          2    1    3    3  501    0  0.85310587464E+02  0.22387861318E+03  0.50339586465E+03  0.55750060657E+03  0.00000000000E+00 0. -1.
<mgrwt>
<rscale>  0 0.48005492E+03</rscale>
<asrwt>0</asrwt>
<pdfrwt beam="1">0</pdfrwt>
<pdfrwt beam="2">  1        2 0.20950292E+00 0.48005492E+03</pdfrwt>
<totfact> 0.19579201E+01</totfact>
</mgrwt>
</event>
<event>
 5    1  0.2366700E-004  0.6428879E+03  0.7818608E-02  0.9820217E-01
         13   -1    0    0    0    0  0.00000000000E+00  0.00000000000E+00  0.10000000000E+04  0.10000000000E+04  0.00000000000E+00 0. -1.
          2   -1    0    0  501    0 -0.00000000000E+00 -0.00000000000E+00 -0.10332620029E+03  0.10332620029E+03  0.00000000000E+00 0. -1.
    9000006    2    1    2  501    0  0.00000000000E+00  0.00000000000E+00  0.89667379971E+03  0.11033262003E+04  0.64288786048E+03 0.  0.
         13    1    3    3    0    0  0.84479950851E+02  0.28143562239E+03  0.67199267305E+03  0.73342826799E+03  0.00000000000E+00 0. -1.
          2    1    3    3  501    0 -0.84479950851E+02 -0.28143562239E+03  0.22468112666E+03  0.36989793230E+03  0.00000000000E+00 0. -1.
<mgrwt>
<rscale>  0 0.64288786E+03</rscale>
<asrwt>0</asrwt>
<pdfrwt beam="1">0</pdfrwt>
<pdfrwt beam="2">  1        2 0.37573243E+00 0.64288786E+03</pdfrwt>
<totfact> 0.49039669E+00</totfact>
</mgrwt>
</event>
<event>
 5    1  0.2366700E-004  0.6279993E+03  0.7818608E-02  0.9848961E-01
         13   -1    0    0    0    0  0.00000000000E+00  0.00000000000E+00  0.10000000000E+04  0.10000000000E+04  0.00000000000E+00 0. -1.
          2   -1    0    0  501    0 -0.00000000000E+00 -0.00000000000E+00 -0.98595784751E+02  0.98595784751E+02  0.00000000000E+00 0. -1.
    9000006    2    1    2  501    0  0.00000000000E+00  0.00000000000E+00  0.90140421525E+03  0.10985957848E+04  0.62799931449E+03 0.  0.
         13    1    3    3    0    0  0.22109102158E+03 -0.19297680327E+03  0.25531751973E+03  0.38898370442E+03  0.00000000000E+00 0. -1.
          4    1    3    3  501    0 -0.22109102158E+03  0.19297680327E+03  0.64608669552E+03  0.70961208033E+03  0.00000000000E+00 0. -1.
<mgrwt>
<rscale>  0 0.62799931E+03</rscale>
<asrwt>0</asrwt>
<pdfrwt beam="1">0</pdfrwt>
<pdfrwt beam="2">  1        2 0.35853088E+00 0.62799931E+03</pdfrwt>
<totfact> 0.56743978E+00</totfact>
</mgrwt>
</event>
<event>
 5    1  0.2366700E-004  0.5951051E+03  0.7818608E-02  0.9915614E-01
         13   -1    0    0    0    0  0.00000000000E+00  0.00000000000E+00  0.10000000000E+04  0.10000000000E+04  0.00000000000E+00 0. -1.
          2   -1    0    0  501    0 -0.00000000000E+00 -0.00000000000E+00 -0.88537514675E+02  0.88537514675E+02  0.00000000000E+00 0. -1.
    9000006    2    1    2  501    0  0.00000000000E+00  0.00000000000E+00  0.91146248533E+03  0.10885375147E+04  0.59510508206E+03 0.  0.
         13    1    3    3    0    0  0.23534377764E+02  0.25322998141E+03  0.73826399486E+03  0.78084122364E+03  0.00000000000E+00 0. -1.
          4    1    3    3  501    0 -0.23534377764E+02 -0.25322998141E+03  0.17319849046E+03  0.30769629104E+03  0.00000000000E+00 0. -1.
<mgrwt>
<rscale>  0 0.59510508E+03</rscale>
<asrwt>0</asrwt>
<pdfrwt beam="1">0</pdfrwt>
<pdfrwt beam="2">  1        2 0.32195528E+00 0.59510508E+03</pdfrwt>
<totfact> 0.77015161E+00</totfact>
</mgrwt>
</event>
<event>
 5    1  0.2366700E-004  0.6451260E+03  0.7818608E-02  0.9815968E-01
         13   -1    0    0    0    0  0.00000000000E+00  0.00000000000E+00  0.10000000000E+04  0.10000000000E+04  0.00000000000E+00 0. -1.
          2   -1    0    0  501    0 -0.00000000000E+00 -0.00000000000E+00 -0.10404690345E+03  0.10404690345E+03  0.00000000000E+00 0. -1.
    9000006    2    1    2  501    0  0.00000000000E+00  0.00000000000E+00  0.89595309655E+03  0.11040469035E+04  0.64512604490E+03 0.  0.
         13    1    3    3    0    0  0.13162681024E+03  0.28946976318E+03  0.54058885742E+03  0.62717993728E+03  0.00000000000E+00 0. -1.
          4    1    3    3  501    0 -0.13162681024E+03 -0.28946976318E+03  0.35536423913E+03  0.47686696617E+03  0.00000000000E+00 0. -1.
<mgrwt>
<rscale>  0 0.64512604E+03</rscale>
<asrwt>0</asrwt>
<pdfrwt beam="1">0</pdfrwt>
<pdfrwt beam="2">  1        2 0.37835317E+00 0.64512604E+03</pdfrwt>
<totfact> 0.47954000E+00</totfact>
</mgrwt>
</event>
<event>
 5    1  0.2366700E-004  0.6513524E+03  0.7818608E-02  0.9804245E-01
         13   -1    0    0    0    0  0.00000000000E+00  0.00000000000E+00  0.10000000000E+04  0.10000000000E+04  0.00000000000E+00 0. -1.
          2   -1    0    0  501    0 -0.00000000000E+00 -0.00000000000E+00 -0.10606497919E+03  0.10606497919E+03  0.00000000000E+00 0. -1.
    9000006    2    1    2  501    0  0.00000000000E+00  0.00000000000E+00  0.89393502081E+03  0.11060649792E+04  0.65135237525E+03 0.  0.
         13    1    3    3    0    0  0.23095951949E+03  0.21453970564E+03  0.58591564410E+03  0.66533204263E+03  0.00000000000E+00 0. -1.
          4    1    3    3  501    0 -0.23095951949E+03 -0.21453970564E+03  0.30801937671E+03  0.44073293656E+03  0.00000000000E+00 0. -1.
<mgrwt>
<rscale>  0 0.65135238E+03</rscale>
<asrwt>0</asrwt>
<pdfrwt beam="1">0</pdfrwt>
<pdfrwt beam="2">  1        2 0.38569165E+00 0.65135238E+03</pdfrwt>
<totfact> 0.45029314E+00</totfact>
</mgrwt>
</event>
<event>
 5    1  0.2366700E-004  0.6854424E+03  0.7818608E-02  0.9742457E-01
         13   -1    0    0    0    0  0.00000000000E+00  0.00000000000E+00  0.10000000000E+04  0.10000000000E+04  0.00000000000E+00 0. -1.
          2   -1    0    0  501    0 -0.00000000000E+00 -0.00000000000E+00 -0.11745783262E+03  0.11745783262E+03  0.00000000000E+00 0. -1.
    9000006    2    1    2  501    0  0.00000000000E+00  0.00000000000E+00  0.88254216738E+03  0.11174578326E+04  0.68544243412E+03 0.  0.
         13    1    3    3    0    0 -0.22417438828E+03 -0.53571735251E+02  0.85477495042E+03  0.88530463856E+03  0.00000000000E+00 0. -1.
          2    1    3    3  501    0  0.22417438828E+03  0.53571735251E+02  0.27767216955E+02  0.23215319407E+03  0.00000000000E+00 0. -1.
<mgrwt>
<rscale>  0 0.68544243E+03</rscale>
<asrwt>0</asrwt>
<pdfrwt beam="1">0</pdfrwt>
<pdfrwt beam="2">  1        2 0.42712029E+00 0.68544243E+03</pdfrwt>
<totfact> 0.31325985E+00</totfact>
</mgrwt>
</event>
<event>
 5    1  0.2366700E-004  0.6478548E+03  0.7818608E-02  0.9810813E-01
         13   -1    0    0    0    0  0.00000000000E+00  0.00000000000E+00  0.10000000000E+04  0.10000000000E+04  0.00000000000E+00 0. -1.
          2   -1    0    0  501    0 -0.00000000000E+00 -0.00000000000E+00 -0.10492895986E+03  0.10492895986E+03  0.00000000000E+00 0. -1.
    9000006    2    1    2  501    0  0.00000000000E+00  0.00000000000E+00  0.89507104014E+03  0.11049289599E+04  0.64785479812E+03 0.  0.
         13    1    3    3    0    0 -0.54877564307E+02  0.20040509229E+03  0.23703772786E+02  0.20913062168E+03  0.00000000000E+00 0. -1.
          4    1    3    3  501    0  0.54877564307E+02 -0.20040509229E+03  0.87136726735E+03  0.89579833818E+03  0.00000000000E+00 0. -1.
<mgrwt>
<rscale>  0 0.64785480E+03</rscale>
<asrwt>0</asrwt>
<pdfrwt beam="1">0</pdfrwt>
<pdfrwt beam="2">  1        2 0.38156066E+00 0.64785480E+03</pdfrwt>
<totfact> 0.46655088E+00</totfact>
</mgrwt>
</event>
<event>
 5    1  0.2366700E-004  0.6477903E+03  0.7818608E-02  0.9810934E-01
         13   -1    0    0    0    0  0.00000000000E+00  0.00000000000E+00  0.10000000000E+04  0.10000000000E+04  0.00000000000E+00 0. -1.
          2   -1    0    0  501    0 -0.00000000000E+00 -0.00000000000E+00 -0.10490808026E+03  0.10490808026E+03  0.00000000000E+00 0. -1.
    9000006    2    1    2  501    0  0.00000000000E+00  0.00000000000E+00  0.89509191974E+03  0.11049080803E+04  0.64779033724E+03 0.  0.
         13    1    3    3    0    0 -0.30469925007E+03  0.75331265151E+02  0.58390944755E+03  0.66292282767E+03  0.00000000000E+00 0. -1.
          4    1    3    3  501    0  0.30469925007E+03 -0.75331265151E+02  0.31118247220E+03  0.44198525259E+03  0.00000000000E+00 0. -1.
<mgrwt>
<rscale>  0 0.64779034E+03</rscale>
<asrwt>0</asrwt>
<pdfrwt beam="1">0</pdfrwt>
<pdfrwt beam="2">  1        2 0.38148473E+00 0.64779034E+03</pdfrwt>
<totfact> 0.46685461E+00</totfact>
</mgrwt>
</event>
<event>
 5    1  0.2366700E-004  0.6635403E+03  0.7818608E-02  0.9781698E-01
         13   -1    0    0    0    0  0.00000000000E+00  0.00000000000E+00  0.10000000000E+04  0.10000000000E+04  0.00000000000E+00 0. -1.
          2   -1    0    0  501    0 -0.00000000000E+00 -0.00000000000E+00 -0.11007143941E+03  0.11007143941E+03  0.00000000000E+00 0. -1.
    9000006    2    1    2  501    0  0.00000000000E+00  0.00000000000E+00  0.88992856059E+03  0.11100714394E+04  0.66354032105E+03 0.  0.
         13    1    3    3    0    0 -0.80151874106E+02  0.27677265697E+03  0.16984617162E+03  0.33447742612E+03  0.00000000000E+00 0. -1.
          4    1    3    3  501    0  0.80151874106E+02 -0.27677265697E+03  0.72008238897E+03  0.77559401330E+03  0.00000000000E+00 0. -1.
<mgrwt>
<rscale>  0 0.66354032E+03</rscale>
<asrwt>0</asrwt>
<pdfrwt beam="1">0</pdfrwt>
<pdfrwt beam="2">  1        2 0.40026062E+00 0.66354032E+03</pdfrwt>
<totfact> 0.39696403E+00</totfact>
</mgrwt>
</event>
<event>
 5    1  0.2366700E-004  0.6588911E+03  0.7818608E-02  0.9790237E-01
         13   -1    0    0    0    0  0.00000000000E+00  0.00000000000E+00  0.10000000000E+04  0.10000000000E+04  0.00000000000E+00 0. -1.
          2   -1    0    0  501    0 -0.00000000000E+00 -0.00000000000E+00 -0.10853438163E+03  0.10853438163E+03  0.00000000000E+00 0. -1.
    9000006    2    1    2  501    0  0.00000000000E+00  0.00000000000E+00  0.89146561837E+03  0.11085343816E+04  0.65889113405E+03 0.  0.
         13    1    3    3    0    0 -0.25200805747E+02 -0.10633377145E+03 -0.77153233930E+02  0.13377059867E+03  0.00000000000E+00 0. -1.
          4    1    3    3  501    0  0.25200805747E+02  0.10633377145E+03  0.96861885230E+03  0.97476378297E+03  0.00000000000E+00 0. -1.
<mgrwt>
<rscale>  0 0.65889113E+03</rscale>
<asrwt>0</asrwt>
<pdfrwt beam="1">0</pdfrwt>
<pdfrwt beam="2">  1        2 0.39467131E+00 0.65889113E+03</pdfrwt>
<totfact> 0.41670882E+00</totfact>
</mgrwt>
</event>
<event>
 5    1  0.2366700E-004  0.6568973E+03  0.7818608E-02  0.9793922E-01
         13   -1    0    0    0    0  0.00000000000E+00  0.00000000000E+00  0.10000000000E+04  0.10000000000E+04  0.00000000000E+00 0. -1.
          2   -1    0    0  501    0 -0.00000000000E+00 -0.00000000000E+00 -0.10787852911E+03  0.10787852911E+03  0.00000000000E+00 0. -1.
    9000006    2    1    2  501    0  0.00000000000E+00  0.00000000000E+00  0.89212147089E+03  0.11078785291E+04  0.65689734085E+03 0.  0.
         13    1    3    3    0    0 -0.27607532090E+02  0.24715572075E+03  0.84220355807E+02  0.26256655244E+03  0.00000000000E+00 0. -1.
          4    1    3    3  501    0  0.27607532090E+02 -0.24715572075E+03  0.80790111509E+03  0.84531197666E+03  0.00000000000E+00 0. -1.
<mgrwt>
<rscale>  0 0.65689734E+03</rscale>
<asrwt>0</asrwt>
<pdfrwt beam="1">0</pdfrwt>
<pdfrwt beam="2">  1        2 0.39228639E+00 0.65689734E+03</pdfrwt>
<totfact> 0.42540017E+00</totfact>
</mgrwt>
</event>
<event>
 5    1  0.2366700E-004  0.6436440E+03  0.7818608E-02  0.9818779E-01
         13   -1    0    0    0    0  0.00000000000E+00  0.00000000000E+00  0.10000000000E+04  0.10000000000E+04  0.00000000000E+00 0. -1.
          2   -1    0    0  501    0 -0.00000000000E+00 -0.00000000000E+00 -0.10356939608E+03  0.10356939608E+03  0.00000000000E+00 0. -1.
    9000006    2    1    2  501    0  0.00000000000E+00  0.00000000000E+00  0.89643060392E+03  0.11035693961E+04  0.64364398882E+03 0.  0.
         13    1    3    3    0    0  0.20007823328E+02  0.30129041720E+03  0.63908856238E+03  0.70683125218E+03  0.00000000000E+00 0. -1.
          2    1    3    3  501    0 -0.20007823328E+02 -0.30129041720E+03  0.25734204154E+03  0.39673814391E+03  0.00000000000E+00 0. -1.
<mgrwt>
<rscale>  0 0.64364399E+03</rscale>
<asrwt>0</asrwt>
<pdfrwt beam="1">0</pdfrwt>
<pdfrwt beam="2">  1        2 0.37661678E+00 0.64364399E+03</pdfrwt>
<totfact> 0.48670837E+00</totfact>
</mgrwt>
</event>
<event>
 5    1  0.2366700E-004  0.6500752E+03  0.7818608E-02  0.9806638E-01
         13   -1    0    0    0    0  0.00000000000E+00  0.00000000000E+00  0.10000000000E+04  0.10000000000E+04  0.00000000000E+00 0. -1.
          2   -1    0    0  501    0 -0.00000000000E+00 -0.00000000000E+00 -0.10564943009E+03  0.10564943009E+03  0.00000000000E+00 0. -1.
    9000006    2    1    2  501    0  0.00000000000E+00  0.00000000000E+00  0.89435056991E+03  0.11056494301E+04  0.65007516515E+03 0.  0.
         13    1    3    3    0    0  0.29922337608E+03 -0.15009529681E+02  0.66156759133E+03  0.72624485725E+03  0.00000000000E+00 0. -1.
          2    1    3    3  501    0 -0.29922337608E+03  0.15009529681E+02  0.23278297858E+03  0.37940457284E+03  0.00000000000E+00 0. -1.
<mgrwt>
<rscale>  0 0.65007517E+03</rscale>
<asrwt>0</asrwt>
<pdfrwt beam="1">0</pdfrwt>
<pdfrwt beam="2">  1        2 0.38418056E+00 0.65007517E+03</pdfrwt>
<totfact> 0.45617950E+00</totfact>
</mgrwt>
</event>
<event>
 5    1  0.2366700E-004  0.6539390E+03  0.7818608E-02  0.9799416E-01
         13   -1    0    0    0    0  0.00000000000E+00  0.00000000000E+00  0.10000000000E+04  0.10000000000E+04  0.00000000000E+00 0. -1.
          2   -1    0    0  501    0 -0.00000000000E+00 -0.00000000000E+00 -0.10690905200E+03  0.10690905200E+03  0.00000000000E+00 0. -1.
    9000006    2    1    2  501    0  0.00000000000E+00  0.00000000000E+00  0.89309094800E+03  0.11069090520E+04  0.65393899411E+03 0.  0.
         13    1    3    3    0    0  0.11820317108E+03 -0.21937890769E+03  0.80485798188E+03  0.84255294539E+03  0.00000000000E+00 0. -1.
          4    1    3    3  501    0 -0.11820317108E+03  0.21937890769E+03  0.88232966120E+02  0.26435610661E+03  0.00000000000E+00 0. -1.
<mgrwt>
<rscale>  0 0.65393899E+03</rscale>
<asrwt>0</asrwt>
<pdfrwt beam="1">0</pdfrwt>
<pdfrwt beam="2">  1        2 0.38876101E+00 0.65393899E+03</pdfrwt>
<totfact> 0.43854797E+00</totfact>
</mgrwt>
</event>
<event>
 5    1  0.2366700E-004  0.6181229E+03  0.7818608E-02  0.9868504E-01
         13   -1    0    0    0    0  0.00000000000E+00  0.00000000000E+00  0.10000000000E+04  0.10000000000E+04  0.00000000000E+00 0. -1.
          2   -1    0    0  501    0 -0.00000000000E+00 -0.00000000000E+00 -0.95518988155E+02  0.95518988155E+02  0.00000000000E+00 0. -1.
    9000006    2    1    2  501    0  0.00000000000E+00  0.00000000000E+00  0.90448101185E+03  0.10955189882E+04  0.61812292679E+03 0.  0.
         13    1    3    3    0    0 -0.87534383260E+02 -0.64355241340E+02  0.96503932509E+03  0.97113581146E+03  0.00000000000E+00 0. -1.
          2    1    3    3  501    0  0.87534383260E+02  0.64355241340E+02 -0.60558313244E+02  0.12438317669E+03  0.00000000000E+00 0. -1.
<mgrwt>
<rscale>  0 0.61812293E+03</rscale>
<asrwt>0</asrwt>
<pdfrwt beam="1">0</pdfrwt>
<pdfrwt beam="2">  1        2 0.34734251E+00 0.61812293E+03</pdfrwt>
<totfact> 0.62339817E+00</totfact>
</mgrwt>
</event>
<event>
 5    1  0.2366700E-004  0.6431086E+03  0.7818608E-02  0.9819797E-01
         13   -1    0    0    0    0  0.00000000000E+00  0.00000000000E+00  0.10000000000E+04  0.10000000000E+04  0.00000000000E+00 0. -1.
          2   -1    0    0  501    0 -0.00000000000E+00 -0.00000000000E+00 -0.10339717351E+03  0.10339717351E+03  0.00000000000E+00 0. -1.
    9000006    2    1    2  501    0  0.00000000000E+00  0.00000000000E+00  0.89660282649E+03  0.11033971735E+04  0.64310861760E+03 0.  0.
         13    1    3    3    0    0  0.46082474327E+02  0.21643023929E+03  0.48013191593E+02  0.22643080507E+03  0.00000000000E+00 0. -1.
          2    1    3    3  501    0 -0.46082474327E+02 -0.21643023929E+03  0.84858963490E+03  0.87696636844E+03  0.00000000000E+00 0. -1.
<mgrwt>
<rscale>  0 0.64310862E+03</rscale>
<asrwt>0</asrwt>
<pdfrwt beam="1">0</pdfrwt>
<pdfrwt beam="2">  1        2 0.37599051E+00 0.64310862E+03</pdfrwt>
<totfact> 0.48931768E+00</totfact>
</mgrwt>
</event>
<event>
 5    1  0.2366700E-004  0.6403155E+03  0.7818608E-02  0.9825123E-01
         13   -1    0    0    0    0  0.00000000000E+00  0.00000000000E+00  0.10000000000E+04  0.10000000000E+04  0.00000000000E+00 0. -1.
          2   -1    0    0  501    0 -0.00000000000E+00 -0.00000000000E+00 -0.10250097194E+03  0.10250097194E+03  0.00000000000E+00 0. -1.
    9000006    2    1    2  501    0  0.00000000000E+00  0.00000000000E+00  0.89749902806E+03  0.11025009719E+04  0.64031545956E+03 0.  0.
         13    1    3    3    0    0  0.12732469412E+03 -0.11981374405E+03  0.91054776407E+03  0.92718074918E+03  0.00000000000E+00 0. -1.
          4    1    3    3  501    0 -0.12732469412E+03  0.11981374405E+03 -0.13048736009E+02  0.17532022276E+03  0.00000000000E+00 0. -1.
<mgrwt>
<rscale>  0 0.64031546E+03</rscale>
<asrwt>0</asrwt>
<pdfrwt beam="1">0</pdfrwt>
<pdfrwt beam="2">  1        2 0.37273159E+00 0.64031546E+03</pdfrwt>
<totfact> 0.50310431E+00</totfact>
</mgrwt>
</event>
<event>
 5    1  0.2366700E-004  0.6420088E+03  0.7818608E-02  0.9821891E-01
         13   -1    0    0    0    0  0.00000000000E+00  0.00000000000E+00  0.10000000000E+04  0.10000000000E+04  0.00000000000E+00 0. -1.
          2   -1    0    0  501    0 -0.00000000000E+00 -0.00000000000E+00 -0.10304384057E+03  0.10304384057E+03  0.00000000000E+00 0. -1.
    9000006    2    1    2  501    0  0.00000000000E+00  0.00000000000E+00  0.89695615943E+03  0.11030438406E+04  0.64200884908E+03 0.  0.
         13    1    3    3    0    0  0.25709050624E+03 -0.19013058546E+03  0.39992283288E+03  0.51203851435E+03  0.00000000000E+00 0. -1.
          2    1    3    3  501    0 -0.25709050624E+03  0.19013058546E+03  0.49703332655E+03  0.59100532622E+03  0.00000000000E+00 0. -1.
<mgrwt>
<rscale>  0 0.64200885E+03</rscale>
<asrwt>0</asrwt>
<pdfrwt beam="1">0</pdfrwt>
<pdfrwt beam="2">  1        2 0.37470566E+00 0.64200885E+03</pdfrwt>
<totfact> 0.49471127E+00</totfact>
</mgrwt>
</event>
<event>
 5    1  0.2366700E-004  0.6426628E+03  0.7818608E-02  0.9820645E-01
         13   -1    0    0    0    0  0.00000000000E+00  0.00000000000E+00  0.10000000000E+04  0.10000000000E+04  0.00000000000E+00 0. -1.
          2   -1    0    0  501    0 -0.00000000000E+00 -0.00000000000E+00 -0.10325386694E+03  0.10325386694E+03  0.00000000000E+00 0. -1.
    9000006    2    1    2  501    0  0.00000000000E+00  0.00000000000E+00  0.89674613306E+03  0.11032538669E+04  0.64266279474E+03 0.  0.
         13    1    3    3    0    0 -0.25535447765E+02 -0.32008316723E+03  0.46929797459E+03  0.56863510443E+03  0.00000000000E+00 0. -1.
          2    1    3    3  501    0  0.25535447765E+02  0.32008316723E+03  0.42744815847E+03  0.53461876250E+03  0.00000000000E+00 0. -1.
<mgrwt>
<rscale>  0 0.64266279E+03</rscale>
<asrwt>0</asrwt>
<pdfrwt beam="1">0</pdfrwt>
<pdfrwt beam="2">  1        2 0.37546940E+00 0.64266279E+03</pdfrwt>
<totfact> 0.49149863E+00</totfact>
</mgrwt>
</event>
<event>
 5    1  0.2366700E-004  0.6707640E+03  0.7818608E-02  0.9768579E-01
         13   -1    0    0    0    0  0.00000000000E+00  0.00000000000E+00  0.10000000000E+04  0.10000000000E+04  0.00000000000E+00 0. -1.
          2   -1    0    0  501    0 -0.00000000000E+00 -0.00000000000E+00 -0.11248108058E+03  0.11248108058E+03  0.00000000000E+00 0. -1.
    9000006    2    1    2  501    0  0.00000000000E+00  0.00000000000E+00  0.88751891942E+03  0.11124810806E+04  0.67076398407E+03 0.  0.
         13    1    3    3    0    0  0.31363327114E+03 -0.18526360907E+02  0.63839485060E+03  0.71151742079E+03  0.00000000000E+00 0. -1.
          2    1    3    3  501    0 -0.31363327114E+03  0.18526360907E+02  0.24912406882E+03  0.40096365980E+03  0.00000000000E+00 0. -1.
<mgrwt>
<rscale>  0 0.67076398E+03</rscale>
<asrwt>0</asrwt>
<pdfrwt beam="1">0</pdfrwt>
<pdfrwt beam="2">  1        2 0.40902297E+00 0.67076398E+03</pdfrwt>
<totfact> 0.36769557E+00</totfact>
</mgrwt>
</event>
<event>
 5    1  0.2366700E-004  0.6212307E+03  0.7818608E-02  0.9862312E-01
         13   -1    0    0    0    0  0.00000000000E+00  0.00000000000E+00  0.10000000000E+04  0.10000000000E+04  0.00000000000E+00 0. -1.
          2   -1    0    0  501    0 -0.00000000000E+00 -0.00000000000E+00 -0.96481891144E+02  0.96481891144E+02  0.00000000000E+00 0. -1.
    9000006    2    1    2  501    0  0.00000000000E+00  0.00000000000E+00  0.90351810886E+03  0.10964818911E+04  0.62123068547E+03 0.  0.
         13    1    3    3    0    0  0.52301767592E+02  0.36867018302E+02 -0.84722208916E+02  0.10617205195E+03  0.00000000000E+00 0. -1.
          4    1    3    3  501    0 -0.52301767592E+02 -0.36867018302E+02  0.98824031777E+03  0.99030983919E+03  0.00000000000E+00 0. -1.
<mgrwt>
<rscale>  0 0.62123069E+03</rscale>
<asrwt>0</asrwt>
<pdfrwt beam="1">0</pdfrwt>
<pdfrwt beam="2">  1        2 0.35084398E+00 0.62123069E+03</pdfrwt>
<totfact> 0.60535690E+00</totfact>
</mgrwt>
</event>
<event>
 5    1  0.2366700E-004  0.6596022E+03  0.7818608E-02  0.9788926E-01
         13   -1    0    0    0    0  0.00000000000E+00  0.00000000000E+00  0.10000000000E+04  0.10000000000E+04  0.00000000000E+00 0. -1.
          2   -1    0    0  501    0 -0.00000000000E+00 -0.00000000000E+00 -0.10876877881E+03  0.10876877881E+03  0.00000000000E+00 0. -1.
    9000006    2    1    2  501    0  0.00000000000E+00  0.00000000000E+00  0.89123122119E+03  0.11087687788E+04  0.65960224016E+03 0.  0.
         13    1    3    3    0    0  0.19178593419E+03 -0.25592121811E+03  0.31018291732E+03  0.44552323916E+03  0.00000000000E+00 0. -1.
          4    1    3    3  501    0 -0.19178593419E+03  0.25592121811E+03  0.58104830387E+03  0.66324553965E+03  0.00000000000E+00 0. -1.
<mgrwt>
<rscale>  0 0.65960224E+03</rscale>
<asrwt>0</asrwt>
<pdfrwt beam="1">0</pdfrwt>
<pdfrwt beam="2">  1        2 0.39552367E+00 0.65960224E+03</pdfrwt>
<totfact> 0.41364181E+00</totfact>
</mgrwt>
</event>
<event>
 5    1  0.2366700E-004  0.6453494E+03  0.7818608E-02  0.9815545E-01
         13   -1    0    0    0    0  0.00000000000E+00  0.00000000000E+00  0.10000000000E+04  0.10000000000E+04  0.00000000000E+00 0. -1.
          2   -1    0    0  501    0 -0.00000000000E+00 -0.00000000000E+00 -0.10411896454E+03  0.10411896454E+03  0.00000000000E+00 0. -1.
    9000006    2    1    2  501    0  0.00000000000E+00  0.00000000000E+00  0.89588103546E+03  0.11041189645E+04  0.64534940781E+03 0.  0.
         13    1    3    3    0    0 -0.47788038793E+02  0.17816156404E+03 -0.50201828580E+01  0.18452761795E+03  0.00000000000E+00 0. -1.
          4    1    3    3  501    0  0.47788038793E+02 -0.17816156404E+03  0.90090121832E+03  0.91959134659E+03  0.00000000000E+00 0. -1.
<mgrwt>
<rscale>  0 0.64534941E+03</rscale>
<asrwt>0</asrwt>
<pdfrwt beam="1">0</pdfrwt>
<pdfrwt beam="2">  1        2 0.37861521E+00 0.64534941E+03</pdfrwt>
<totfact> 0.47846662E+00</totfact>
</mgrwt>
</event>
<event>
 5    1  0.2366700E-004  0.6425682E+03  0.7818608E-02  0.9820825E-01
         13   -1    0    0    0    0  0.00000000000E+00  0.00000000000E+00  0.10000000000E+04  0.10000000000E+04  0.00000000000E+00 0. -1.
          2   -1    0    0  501    0 -0.00000000000E+00 -0.00000000000E+00 -0.10322346558E+03  0.10322346558E+03  0.00000000000E+00 0. -1.
    9000006    2    1    2  501    0  0.00000000000E+00  0.00000000000E+00  0.89677653442E+03  0.11032234656E+04  0.64256817718E+03 0.  0.
         13    1    3    3    0    0 -0.26353891404E+03 -0.10209344657E+03  0.71072899585E+03  0.76486046871E+03  0.00000000000E+00 0. -1.
          2    1    3    3  501    0  0.26353891404E+03  0.10209344657E+03  0.18604753857E+03  0.33836299687E+03  0.00000000000E+00 0. -1.
<mgrwt>
<rscale>  0 0.64256818E+03</rscale>
<asrwt>0</asrwt>
<pdfrwt beam="1">0</pdfrwt>
<pdfrwt beam="2">  1        2 0.37535885E+00 0.64256818E+03</pdfrwt>
<totfact> 0.49196247E+00</totfact>
</mgrwt>
</event>
<event>
 5    1  0.2366700E-004  0.6071558E+03  0.7818608E-02  0.9890670E-01
         13   -1    0    0    0    0  0.00000000000E+00  0.00000000000E+00  0.10000000000E+04  0.10000000000E+04  0.00000000000E+00 0. -1.
          2   -1    0    0  501    0 -0.00000000000E+00 -0.00000000000E+00 -0.92159537762E+02  0.92159537762E+02  0.00000000000E+00 0. -1.
    9000006    2    1    2  501    0  0.00000000000E+00  0.00000000000E+00  0.90784046224E+03  0.10921595378E+04  0.60715578812E+03 0.  0.
         13    1    3    3    0    0  0.30146305683E+03 -0.35667127244E+02  0.45881986152E+03  0.55015250970E+03  0.00000000000E+00 0. -1.
          2    1    3    3  501    0 -0.30146305683E+03  0.35667127244E+02  0.44902060071E+03  0.54200702806E+03  0.00000000000E+00 0. -1.
<mgrwt>
<rscale>  0 0.60715579E+03</rscale>
<asrwt>0</asrwt>
<pdfrwt beam="1">0</pdfrwt>
<pdfrwt beam="2">  1        2 0.33512630E+00 0.60715579E+03</pdfrwt>
<totfact> 0.69036189E+00</totfact>
</mgrwt>
</event>
<event>
 5    1  0.2366700E-004  0.6340884E+03  0.7818608E-02  0.9837103E-01
         13   -1    0    0    0    0  0.00000000000E+00  0.00000000000E+00  0.10000000000E+04  0.10000000000E+04  0.00000000000E+00 0. -1.
          2   -1    0    0  501    0 -0.00000000000E+00 -0.00000000000E+00 -0.10051702169E+03  0.10051702169E+03  0.00000000000E+00 0. -1.
    9000006    2    1    2  501    0  0.00000000000E+00  0.00000000000E+00  0.89948297831E+03  0.11005170217E+04  0.63408839035E+03 0.  0.
         13    1    3    3    0    0 -0.25911123560E+03 -0.18262515551E+03  0.44081680412E+03  0.54296411910E+03  0.00000000000E+00 0. -1.
          4    1    3    3  501    0  0.25911123560E+03  0.18262515551E+03  0.45866617419E+03  0.55755290259E+03  0.00000000000E+00 0. -1.
<mgrwt>
<rscale>  0 0.63408839E+03</rscale>
<asrwt>0</asrwt>
<pdfrwt beam="1">0</pdfrwt>
<pdfrwt beam="2">  1        2 0.36551721E+00 0.63408839E+03</pdfrwt>
<totfact> 0.53489886E+00</totfact>
</mgrwt>
</event>
<event>
 5    1  0.2366700E-004  0.6525104E+03  0.7818608E-02  0.9802080E-01
         13   -1    0    0    0    0  0.00000000000E+00  0.00000000000E+00  0.10000000000E+04  0.10000000000E+04  0.00000000000E+00 0. -1.
          2   -1    0    0  501    0 -0.00000000000E+00 -0.00000000000E+00 -0.10644243993E+03  0.10644243993E+03  0.00000000000E+00 0. -1.
    9000006    2    1    2  501    0  0.00000000000E+00  0.00000000000E+00  0.89355756007E+03  0.11064424399E+04  0.65251035220E+03 0.  0.
         13    1    3    3    0    0  0.31195795229E+02  0.12125661594E+03  0.95764036453E+03  0.96579056338E+03  0.00000000000E+00 0. -1.
          4    1    3    3  501    0 -0.31195795229E+02 -0.12125661594E+03 -0.64082804458E+02  0.14065187655E+03  0.00000000000E+00 0. -1.
<mgrwt>
<rscale>  0 0.65251035E+03</rscale>
<asrwt>0</asrwt>
<pdfrwt beam="1">0</pdfrwt>
<pdfrwt beam="2">  1        2 0.38706423E+00 0.65251035E+03</pdfrwt>
<totfact> 0.44500607E+00</totfact>
</mgrwt>
</event>
<event>
 5    1  0.2366700E-004  0.6482895E+03  0.7818608E-02  0.9809994E-01
         13   -1    0    0    0    0  0.00000000000E+00  0.00000000000E+00  0.10000000000E+04  0.10000000000E+04  0.00000000000E+00 0. -1.
          2   -1    0    0  501    0 -0.00000000000E+00 -0.00000000000E+00 -0.10506981065E+03  0.10506981065E+03  0.00000000000E+00 0. -1.
    9000006    2    1    2  501    0  0.00000000000E+00  0.00000000000E+00  0.89493018935E+03  0.11050698106E+04  0.64828947438E+03 0.  0.
         13    1    3    3    0    0  0.23659341401E+03  0.46966425471E+01  0.69862852766E+02  0.24673735064E+03  0.00000000000E+00 0. -1.
          2    1    3    3  501    0 -0.23659341401E+03 -0.46966425471E+01  0.82506733659E+03  0.85833246001E+03  0.00000000000E+00 0. -1.
<mgrwt>
<rscale>  0 0.64828947E+03</rscale>
<asrwt>0</asrwt>
<pdfrwt beam="1">0</pdfrwt>
<pdfrwt beam="2">  1        2 0.38207284E+00 0.64828947E+03</pdfrwt>
<totfact> 0.46450660E+00</totfact>
</mgrwt>
</event>
<event>
 5    1  0.2366700E-004  0.6616921E+03  0.7818608E-02  0.9785084E-01
         13   -1    0    0    0    0  0.00000000000E+00  0.00000000000E+00  0.10000000000E+04  0.10000000000E+04  0.00000000000E+00 0. -1.
          2   -1    0    0  501    0 -0.00000000000E+00 -0.00000000000E+00 -0.10945911131E+03  0.10945911131E+03  0.00000000000E+00 0. -1.
    9000006    2    1    2  501    0  0.00000000000E+00  0.00000000000E+00  0.89054088869E+03  0.11094591113E+04  0.66169210760E+03 0.  0.
         13    1    3    3    0    0  0.15530711038E+03 -0.20521924563E+03  0.79386226355E+03  0.83453731540E+03  0.00000000000E+00 0. -1.
          4    1    3    3  501    0 -0.15530711038E+03  0.20521924563E+03  0.96678625135E+02  0.27492179591E+03  0.00000000000E+00 0. -1.
<mgrwt>
<rscale>  0 0.66169211E+03</rscale>
<asrwt>0</asrwt>
<pdfrwt beam="1">0</pdfrwt>
<pdfrwt beam="2">  1        2 0.39803397E+00 0.66169211E+03</pdfrwt>
<totfact> 0.40472674E+00</totfact>
</mgrwt>
</event>
<event>
 5    1  0.2366700E-004  0.6422680E+03  0.7818608E-02  0.9821397E-01
         13   -1    0    0    0    0  0.00000000000E+00  0.00000000000E+00  0.10000000000E+04  0.10000000000E+04  0.00000000000E+00 0. -1.
          2   -1    0    0  501    0 -0.00000000000E+00 -0.00000000000E+00 -0.10312705922E+03  0.10312705922E+03  0.00000000000E+00 0. -1.
    9000006    2    1    2  501    0  0.00000000000E+00  0.00000000000E+00  0.89687294078E+03  0.11031270592E+04  0.64226804129E+03 0.  0.
         13    1    3    3    0    0 -0.58403538594E+02  0.31557166885E+03  0.42880767560E+03  0.53560477421E+03  0.00000000000E+00 0. -1.
          4    1    3    3  501    0  0.58403538594E+02 -0.31557166885E+03  0.46806526518E+03  0.56752228500E+03  0.00000000000E+00 0. -1.
<mgrwt>
<rscale>  0 0.64226804E+03</rscale>
<asrwt>0</asrwt>
<pdfrwt beam="1">0</pdfrwt>
<pdfrwt beam="2">  1        2 0.37500828E+00 0.64226804E+03</pdfrwt>
<totfact> 0.49343604E+00</totfact>
</mgrwt>
</event>
<event>
 5    1  0.2366700E-004  0.6274914E+03  0.7818608E-02  0.9849956E-01
         13   -1    0    0    0    0  0.00000000000E+00  0.00000000000E+00  0.10000000000E+04  0.10000000000E+04  0.00000000000E+00 0. -1.
          2   -1    0    0  501    0 -0.00000000000E+00 -0.00000000000E+00 -0.98436375274E+02  0.98436375274E+02  0.00000000000E+00 0. -1.
    9000006    2    1    2  501    0  0.00000000000E+00  0.00000000000E+00  0.90156362473E+03  0.10984363753E+04  0.62749143508E+03 0.  0.
         13    1    3    3    0    0 -0.98915436895E+02 -0.14640953920E+03  0.90462371802E+03  0.92171800895E+03  0.00000000000E+00 0. -1.
          2    1    3    3  501    0  0.98915436895E+02  0.14640953920E+03 -0.30600932951E+01  0.17671836632E+03  0.00000000000E+00 0. -1.
<mgrwt>
<rscale>  0 0.62749144E+03</rscale>
<asrwt>0</asrwt>
<pdfrwt beam="1">0</pdfrwt>
<pdfrwt beam="2">  1        2 0.35795121E+00 0.62749144E+03</pdfrwt>
<totfact> 0.57022028E+00</totfact>
</mgrwt>
</event>
<event>
 5    1  0.2366700E-004  0.6539178E+03  0.7818608E-02  0.9799455E-01
         13   -1    0    0    0    0  0.00000000000E+00  0.00000000000E+00  0.10000000000E+04  0.10000000000E+04  0.00000000000E+00 0. -1.
          2   -1    0    0  501    0 -0.00000000000E+00 -0.00000000000E+00 -0.10690213424E+03  0.10690213424E+03  0.00000000000E+00 0. -1.
    9000006    2    1    2  501    0  0.00000000000E+00  0.00000000000E+00  0.89309786576E+03  0.11069021342E+04  0.65391783656E+03 0.  0.
         13    1    3    3    0    0 -0.10594857385E+03  0.30804763635E+03  0.39916211449E+03  0.51521727476E+03  0.00000000000E+00 0. -1.
          2    1    3    3  501    0  0.10594857385E+03 -0.30804763635E+03  0.49393575127E+03  0.59168485949E+03  0.00000000000E+00 0. -1.
<mgrwt>
<rscale>  0 0.65391784E+03</rscale>
<asrwt>0</asrwt>
<pdfrwt beam="1">0</pdfrwt>
<pdfrwt beam="2">  1        2 0.38873585E+00 0.65391784E+03</pdfrwt>
<totfact> 0.43864309E+00</totfact>
</mgrwt>
</event>
<event>
 5    1  0.2366700E-004  0.6430829E+03  0.7818608E-02  0.9819846E-01
         13   -1    0    0    0    0  0.00000000000E+00  0.00000000000E+00  0.10000000000E+04  0.10000000000E+04  0.00000000000E+00 0. -1.
          2   -1    0    0  501    0 -0.00000000000E+00 -0.00000000000E+00 -0.10338888805E+03  0.10338888805E+03  0.00000000000E+00 0. -1.
    9000006    2    1    2  501    0  0.00000000000E+00  0.00000000000E+00  0.89661111195E+03  0.11033888881E+04  0.64308285019E+03 0.  0.
         13    1    3    3    0    0 -0.10988870552E+03 -0.24159259339E+03  0.75973919819E+03  0.80476466004E+03  0.00000000000E+00 0. -1.
          4    1    3    3  501    0  0.10988870552E+03  0.24159259339E+03  0.13687191376E+03  0.29862422801E+03  0.00000000000E+00 0. -1.
<mgrwt>
<rscale>  0 0.64308285E+03</rscale>
<asrwt>0</asrwt>
<pdfrwt beam="1">0</pdfrwt>
<pdfrwt beam="2">  1        2 0.37596039E+00 0.64308285E+03</pdfrwt>
<totfact> 0.48944353E+00</totfact>
</mgrwt>
</event>
<event>
 5    1  0.2366700E-004  0.6479128E+03  0.7818608E-02  0.9810704E-01
         13   -1    0    0    0    0  0.00000000000E+00  0.00000000000E+00  0.10000000000E+04  0.10000000000E+04  0.00000000000E+00 0. -1.
          2   -1    0    0  501    0 -0.00000000000E+00 -0.00000000000E+00 -0.10494775929E+03  0.10494775929E+03  0.00000000000E+00 0. -1.
    9000006    2    1    2  501    0  0.00000000000E+00  0.00000000000E+00  0.89505224071E+03  0.11049477593E+04  0.64791283147E+03 0.  0.
         13    1    3    3    0    0  0.91015703744E+02 -0.10958559486E+03 -0.48667539718E+02  0.15053700658E+03  0.00000000000E+00 0. -1.
          2    1    3    3  501    0 -0.91015703744E+02  0.10958559486E+03  0.94371978042E+03  0.95441075271E+03  0.00000000000E+00 0. -1.
<mgrwt>
<rscale>  0 0.64791283E+03</rscale>
<asrwt>0</asrwt>
<pdfrwt beam="1">0</pdfrwt>
<pdfrwt beam="2">  1        2 0.38162902E+00 0.64791283E+03</pdfrwt>
<totfact> 0.46627755E+00</totfact>
</mgrwt>
</event>
<event>
 5    1  0.2366700E-004  0.6486656E+03  0.7818608E-02  0.9809286E-01
         13   -1    0    0    0    0  0.00000000000E+00  0.00000000000E+00  0.10000000000E+04  0.10000000000E+04  0.00000000000E+00 0. -1.
          4   -1    0    0  501    0 -0.00000000000E+00 -0.00000000000E+00 -0.10519176807E+03  0.10519176807E+03  0.00000000000E+00 0. -1.
    9000006    2    1    2  501    0  0.00000000000E+00  0.00000000000E+00  0.89480823193E+03  0.11051917681E+04  0.64866560898E+03 0.  0.
         13    1    3    3    0    0  0.26468552486E+03 -0.59561280068E+02  0.75020885931E+03  0.79775892708E+03  0.00000000000E+00 0. -1.
          2    1    3    3  501    0 -0.26468552486E+03  0.59561280068E+02  0.14459937262E+03  0.30743284098E+03  0.00000000000E+00 0. -1.
<mgrwt>
<rscale>  0 0.64866561E+03</rscale>
<asrwt>0</asrwt>
<pdfrwt beam="1">0</pdfrwt>
<pdfrwt beam="2">  1        4 0.38251633E+00 0.64866561E+03</pdfrwt>
<totfact> 0.42194571E-02</totfact>
</mgrwt>
</event>
<event>
 5    1  0.2366700E-004  0.6213300E+03  0.7818608E-02  0.9862115E-01
         13   -1    0    0    0    0  0.00000000000E+00  0.00000000000E+00  0.10000000000E+04  0.10000000000E+04  0.00000000000E+00 0. -1.
          2   -1    0    0  501    0 -0.00000000000E+00 -0.00000000000E+00 -0.96512740038E+02  0.96512740038E+02  0.00000000000E+00 0. -1.
    9000006    2    1    2  501    0  0.00000000000E+00  0.00000000000E+00  0.90348725996E+03  0.10965127400E+04  0.62132999296E+03 0.  0.
         13    1    3    3    0    0  0.17919186069E+03 -0.14351825676E+02  0.45981211817E+01  0.17982447151E+03  0.00000000000E+00 0. -1.
          2    1    3    3  501    0 -0.17919186069E+03  0.14351825676E+02  0.89888913878E+03  0.91668826853E+03  0.00000000000E+00 0. -1.
<mgrwt>
<rscale>  0 0.62132999E+03</rscale>
<asrwt>0</asrwt>
<pdfrwt beam="1">0</pdfrwt>
<pdfrwt beam="2">  1        2 0.35095616E+00 0.62132999E+03</pdfrwt>
<totfact> 0.60478703E+00</totfact>
</mgrwt>
</event>
<event>
 5    1  0.2366700E-004  0.6458926E+03  0.7818608E-02  0.9814517E-01
         13   -1    0    0    0    0  0.00000000000E+00  0.00000000000E+00  0.10000000000E+04  0.10000000000E+04  0.00000000000E+00 0. -1.
          2   -1    0    0  501    0 -0.00000000000E+00 -0.00000000000E+00 -0.10429430527E+03  0.10429430527E+03  0.00000000000E+00 0. -1.
    9000006    2    1    2  501    0  0.00000000000E+00  0.00000000000E+00  0.89570569473E+03  0.11042943053E+04  0.64589257704E+03 0.  0.
         13    1    3    3    0    0  0.21844524709E+03  0.21759334794E+03  0.61210253402E+03  0.68537194515E+03  0.00000000000E+00 0. -1.
          4    1    3    3  501    0 -0.21844524709E+03 -0.21759334794E+03  0.28360316071E+03  0.41892236012E+03  0.00000000000E+00 0. -1.
<mgrwt>
<rscale>  0 0.64589258E+03</rscale>
<asrwt>0</asrwt>
<pdfrwt beam="1">0</pdfrwt>
<pdfrwt beam="2">  1        2 0.37925282E+00 0.64589258E+03</pdfrwt>
<totfact> 0.47586396E+00</totfact>
</mgrwt>
</event>
<event>
 5    1  0.2366700E-004  0.6170456E+03  0.7818608E-02  0.9870660E-01
         13   -1    0    0    0    0  0.00000000000E+00  0.00000000000E+00  0.10000000000E+04  0.10000000000E+04  0.00000000000E+00 0. -1.
          2   -1    0    0  501    0 -0.00000000000E+00 -0.00000000000E+00 -0.95186312927E+02  0.95186312927E+02  0.00000000000E+00 0. -1.
    9000006    2    1    2  501    0  0.00000000000E+00  0.00000000000E+00  0.90481368707E+03  0.10951863129E+04  0.61704558317E+03 0.  0.
         13    1    3    3    0    0  0.44231848610E+02 -0.10171920497E+03 -0.58572857037E+02  0.12543537250E+03  0.00000000000E+00 0. -1.
          4    1    3    3  501    0 -0.44231848610E+02  0.10171920497E+03  0.96338654411E+03  0.96975094043E+03  0.00000000000E+00 0. -1.
<mgrwt>
<rscale>  0 0.61704558E+03</rscale>
<asrwt>0</asrwt>
<pdfrwt beam="1">0</pdfrwt>
<pdfrwt beam="2">  1        2 0.34613278E+00 0.61704558E+03</pdfrwt>
<totfact> 0.62974697E+00</totfact>
</mgrwt>
</event>
<event>
 5    1  0.2366700E-004  0.6458992E+03  0.7818608E-02  0.9814505E-01
         13   -1    0    0    0    0  0.00000000000E+00  0.00000000000E+00  0.10000000000E+04  0.10000000000E+04  0.00000000000E+00 0. -1.
          2   -1    0    0  501    0 -0.00000000000E+00 -0.00000000000E+00 -0.10429643141E+03  0.10429643141E+03  0.00000000000E+00 0. -1.
    9000006    2    1    2  501    0  0.00000000000E+00  0.00000000000E+00  0.89570356859E+03  0.11042964314E+04  0.64589916058E+03 0.  0.
         13    1    3    3    0    0  0.93632403357E+02  0.30562947364E+03  0.52657301583E+03  0.61599962915E+03  0.00000000000E+00 0. -1.
          4    1    3    3  501    0 -0.93632403357E+02 -0.30562947364E+03  0.36913055276E+03  0.48829680226E+03  0.00000000000E+00 0. -1.
<mgrwt>
<rscale>  0 0.64589916E+03</rscale>
<asrwt>0</asrwt>
<pdfrwt beam="1">0</pdfrwt>
<pdfrwt beam="2">  1        2 0.37926055E+00 0.64589916E+03</pdfrwt>
<totfact> 0.47583248E+00</totfact>
</mgrwt>
</event>
<event>
 5    1  0.2366700E-004  0.6169205E+03  0.7818608E-02  0.9870910E-01
         13   -1    0    0    0    0  0.00000000000E+00  0.00000000000E+00  0.10000000000E+04  0.10000000000E+04  0.00000000000E+00 0. -1.
          2   -1    0    0  501    0 -0.00000000000E+00 -0.00000000000E+00 -0.95147720097E+02  0.95147720097E+02  0.00000000000E+00 0. -1.
    9000006    2    1    2  501    0  0.00000000000E+00  0.00000000000E+00  0.90485227990E+03  0.10951477201E+04  0.61692048141E+03 0.  0.
         13    1    3    3    0    0  0.17753398047E+03 -0.17636036447E+03  0.77258217945E+03  0.81209883412E+03  0.00000000000E+00 0. -1.
          2    1    3    3  501    0 -0.17753398047E+03  0.17636036447E+03  0.13227010045E+03  0.28304888598E+03  0.00000000000E+00 0. -1.
<mgrwt>
<rscale>  0 0.61692048E+03</rscale>
<asrwt>0</asrwt>
<pdfrwt beam="1">0</pdfrwt>
<pdfrwt beam="2">  1        2 0.34599244E+00 0.61692048E+03</pdfrwt>
<totfact> 0.63048738E+00</totfact>
</mgrwt>
</event>
<event>
 5    1  0.2366700E-004  0.6377651E+03  0.7818608E-02  0.9830012E-01
         13   -1    0    0    0    0  0.00000000000E+00  0.00000000000E+00  0.10000000000E+04  0.10000000000E+04  0.00000000000E+00 0. -1.
          2   -1    0    0  501    0 -0.00000000000E+00 -0.00000000000E+00 -0.10168609442E+03  0.10168609442E+03  0.00000000000E+00 0. -1.
    9000006    2    1    2  501    0  0.00000000000E+00  0.00000000000E+00  0.89831390558E+03  0.11016860944E+04  0.63776514304E+03 0.  0.
         13    1    3    3    0    0  0.63361488352E+02  0.28793343961E+03  0.65906295262E+03  0.72200022117E+03  0.00000000000E+00 0. -1.
          2    1    3    3  501    0 -0.63361488352E+02 -0.28793343961E+03  0.23925095296E+03  0.37968587325E+03  0.00000000000E+00 0. -1.
<mgrwt>
<rscale>  0 0.63776514E+03</rscale>
<asrwt>0</asrwt>
<pdfrwt beam="1">0</pdfrwt>
<pdfrwt beam="2">  1        2 0.36976840E+00 0.63776514E+03</pdfrwt>
<totfact> 0.51594756E+00</totfact>
</mgrwt>
</event>
<event>
 5    1  0.2366700E-004  0.6588144E+03  0.7818608E-02  0.9790379E-01
         13   -1    0    0    0    0  0.00000000000E+00  0.00000000000E+00  0.10000000000E+04  0.10000000000E+04  0.00000000000E+00 0. -1.
          4   -1    0    0  501    0 -0.00000000000E+00 -0.00000000000E+00 -0.10850909213E+03  0.10850909213E+03  0.00000000000E+00 0. -1.
    9000006    2    1    2  501    0  0.00000000000E+00  0.00000000000E+00  0.89149090787E+03  0.11085090921E+04  0.65881436575E+03 0.  0.
         13    1    3    3    0    0 -0.82098491747E+02  0.12550506410E+03 -0.47734342045E+02  0.15738567556E+03  0.00000000000E+00 0. -1.
          4    1    3    3  501    0  0.82098491747E+02 -0.12550506410E+03  0.93922524992E+03  0.95112341657E+03  0.00000000000E+00 0. -1.
<mgrwt>
<rscale>  0 0.65881437E+03</rscale>
<asrwt>0</asrwt>
<pdfrwt beam="1">0</pdfrwt>
<pdfrwt beam="2">  1        4 0.39457935E+00 0.65881437E+03</pdfrwt>
<totfact> 0.34926413E-02</totfact>
</mgrwt>
</event>
<event>
 5    1  0.2366700E-004  0.6175389E+03  0.7818608E-02  0.9869672E-01
         13   -1    0    0    0    0  0.00000000000E+00  0.00000000000E+00  0.10000000000E+04  0.10000000000E+04  0.00000000000E+00 0. -1.
          2   -1    0    0  501    0 -0.00000000000E+00 -0.00000000000E+00 -0.95338570395E+02  0.95338570395E+02  0.00000000000E+00 0. -1.
    9000006    2    1    2  501    0  0.00000000000E+00  0.00000000000E+00  0.90466142961E+03  0.10953385704E+04  0.61753889074E+03 0.  0.
         13    1    3    3    0    0 -0.24602298476E+03  0.18122755354E+03  0.53101326551E+03  0.61265473420E+03  0.00000000000E+00 0. -1.
          4    1    3    3  501    0  0.24602298476E+03 -0.18122755354E+03  0.37364816409E+03  0.48268383619E+03  0.00000000000E+00 0. -1.
<mgrwt>
<rscale>  0 0.61753889E+03</rscale>
<asrwt>0</asrwt>
<pdfrwt beam="1">0</pdfrwt>
<pdfrwt beam="2">  1        2 0.34668644E+00 0.61753889E+03</pdfrwt>
<totfact> 0.62683382E+00</totfact>
</mgrwt>
</event>
<event>
 5    1  0.2366700E-004  0.6096319E+03  0.7818608E-02  0.9885622E-01
         13   -1    0    0    0    0  0.00000000000E+00  0.00000000000E+00  0.10000000000E+04  0.10000000000E+04  0.00000000000E+00 0. -1.
          2   -1    0    0  501    0 -0.00000000000E+00 -0.00000000000E+00 -0.92912768148E+02  0.92912768148E+02  0.00000000000E+00 0. -1.
    9000006    2    1    2  501    0  0.00000000000E+00  0.00000000000E+00  0.90708723185E+03  0.10929127681E+04  0.60963191566E+03 0.  0.
         13    1    3    3    0    0  0.65216559870E+02 -0.29314479182E+03  0.54713950870E+03  0.62413837459E+03  0.00000000000E+00 0. -1.
          2    1    3    3  501    0 -0.65216559870E+02  0.29314479182E+03  0.35994772315E+03  0.46877439356E+03  0.00000000000E+00 0. -1.
<mgrwt>
<rscale>  0 0.60963192E+03</rscale>
<asrwt>0</asrwt>
<pdfrwt beam="1">0</pdfrwt>
<pdfrwt beam="2">  1        2 0.33786532E+00 0.60963192E+03</pdfrwt>
<totfact> 0.67478398E+00</totfact>
</mgrwt>
</event>
<event>
 5    1  0.2366700E-004  0.6890294E+03  0.7818608E-02  0.9736180E-01
         13   -1    0    0    0    0  0.00000000000E+00  0.00000000000E+00  0.10000000000E+04  0.10000000000E+04  0.00000000000E+00 0. -1.
          2   -1    0    0  501    0 -0.00000000000E+00 -0.00000000000E+00 -0.11869037181E+03  0.11869037181E+03  0.00000000000E+00 0. -1.
    9000006    2    1    2  501    0  0.00000000000E+00  0.00000000000E+00  0.88130962819E+03  0.11186903718E+04  0.68902938052E+03 0.  0.
         13    1    3    3    0    0  0.12569934182E+03 -0.41798854588E+02  0.95699968438E+03  0.96612414558E+03  0.00000000000E+00 0. -1.
          2    1    3    3  501    0 -0.12569934182E+03  0.41798854588E+02 -0.75690056183E+02  0.15256622622E+03  0.00000000000E+00 0. -1.
<mgrwt>
<rscale>  0 0.68902938E+03</rscale>
<asrwt>0</asrwt>
<pdfrwt beam="1">0</pdfrwt>
<pdfrwt beam="2">  1        2 0.43160226E+00 0.68902938E+03</pdfrwt>
<totfact> 0.30093584E+00</totfact>
</mgrwt>
</event>
<event>
 5    1  0.2366700E-004  0.6604024E+03  0.7818608E-02  0.9787453E-01
         13   -1    0    0    0    0  0.00000000000E+00  0.00000000000E+00  0.10000000000E+04  0.10000000000E+04  0.00000000000E+00 0. -1.
          2   -1    0    0  501    0 -0.00000000000E+00 -0.00000000000E+00 -0.10903281991E+03  0.10903281991E+03  0.00000000000E+00 0. -1.
    9000006    2    1    2  501    0  0.00000000000E+00  0.00000000000E+00  0.89096718009E+03  0.11090328199E+04  0.66040236192E+03 0.  0.
         13    1    3    3    0    0  0.26064990405E+03  0.16620304866E+03  0.64039425484E+03  0.71110240296E+03  0.00000000000E+00 0. -1.
          4    1    3    3  501    0 -0.26064990405E+03 -0.16620304866E+03  0.25057292525E+03  0.39793041694E+03  0.00000000000E+00 0. -1.
<mgrwt>
<rscale>  0 0.66040236E+03</rscale>
<asrwt>0</asrwt>
<pdfrwt beam="1">0</pdfrwt>
<pdfrwt beam="2">  1        2 0.39648382E+00 0.66040236E+03</pdfrwt>
<totfact> 0.41021128E+00</totfact>
</mgrwt>
</event>
<event>
 5    1  0.2366700E-004  0.6547525E+03  0.7818608E-02  0.9797902E-01
         13   -1    0    0    0    0  0.00000000000E+00  0.00000000000E+00  0.10000000000E+04  0.10000000000E+04  0.00000000000E+00 0. -1.
          2   -1    0    0  501    0 -0.00000000000E+00 -0.00000000000E+00 -0.10717522226E+03  0.10717522226E+03  0.00000000000E+00 0. -1.
    9000006    2    1    2  501    0  0.00000000000E+00  0.00000000000E+00  0.89282477774E+03  0.11071752223E+04  0.65475254030E+03 0.  0.
         13    1    3    3    0    0  0.31672295552E+03 -0.34939096704E+02  0.31940786585E+03  0.45117131536E+03  0.00000000000E+00 0. -1.
          4    1    3    3  501    0 -0.31672295552E+03  0.34939096704E+02  0.57341691189E+03  0.65600390690E+03  0.00000000000E+00 0. -1.
<mgrwt>
<rscale>  0 0.65475254E+03</rscale>
<asrwt>0</asrwt>
<pdfrwt beam="1">0</pdfrwt>
<pdfrwt beam="2">  1        2 0.38972890E+00 0.65475254E+03</pdfrwt>
<totfact> 0.43490215E+00</totfact>
</mgrwt>
</event>
<event>
 5    1  0.2366700E-004  0.6358881E+03  0.7818608E-02  0.9833626E-01
         13   -1    0    0    0    0  0.00000000000E+00  0.00000000000E+00  0.10000000000E+04  0.10000000000E+04  0.00000000000E+00 0. -1.
          2   -1    0    0  501    0 -0.00000000000E+00 -0.00000000000E+00 -0.10108841777E+03  0.10108841777E+03  0.00000000000E+00 0. -1.
    9000006    2    1    2  501    0  0.00000000000E+00  0.00000000000E+00  0.89891158223E+03  0.11010884178E+04  0.63588809636E+03 0.  0.
         13    1    3    3    0    0  0.20075120676E+03  0.23362948008E+03  0.31306040452E+03  0.43919312137E+03  0.00000000000E+00 0. -1.
          4    1    3    3  501    0 -0.20075120676E+03 -0.23362948008E+03  0.58585117771E+03  0.66189529640E+03  0.00000000000E+00 0. -1.
<mgrwt>
<rscale>  0 0.63588810E+03</rscale>
<asrwt>0</asrwt>
<pdfrwt beam="1">0</pdfrwt>
<pdfrwt beam="2">  1        2 0.36759502E+00 0.63588810E+03</pdfrwt>
<totfact> 0.52555779E+00</totfact>
</mgrwt>
</event>
<event>
 5    1  0.2366700E-004  0.6332275E+03  0.7818608E-02  0.9838771E-01
         13   -1    0    0    0    0  0.00000000000E+00  0.00000000000E+00  0.10000000000E+04  0.10000000000E+04  0.00000000000E+00 0. -1.
          2   -1    0    0  501    0 -0.00000000000E+00 -0.00000000000E+00 -0.10024427478E+03  0.10024427478E+03  0.00000000000E+00 0. -1.
    9000006    2    1    2  501    0  0.00000000000E+00  0.00000000000E+00  0.89975572522E+03  0.11002442748E+04  0.63322752555E+03 0.  0.
         13    1    3    3    0    0  0.64660690842E+02  0.25615456970E+03  0.14669163047E+03  0.30218306201E+03  0.00000000000E+00 0. -1.
          4    1    3    3  501    0 -0.64660690842E+02 -0.25615456970E+03  0.75306409475E+03  0.79806121276E+03  0.00000000000E+00 0. -1.
<mgrwt>
<rscale>  0 0.63322753E+03</rscale>
<asrwt>0</asrwt>
<pdfrwt beam="1">0</pdfrwt>
<pdfrwt beam="2">  1        2 0.36452540E+00 0.63322753E+03</pdfrwt>
<totfact> 0.53941127E+00</totfact>
</mgrwt>
</event>
<event>
 5    1  0.2366700E-004  0.6559356E+03  0.7818608E-02  0.9795705E-01
         13   -1    0    0    0    0  0.00000000000E+00  0.00000000000E+00  0.10000000000E+04  0.10000000000E+04  0.00000000000E+00 0. -1.
          2   -1    0    0  501    0 -0.00000000000E+00 -0.00000000000E+00 -0.10756288778E+03  0.10756288778E+03  0.00000000000E+00 0. -1.
    9000006    2    1    2  501    0  0.00000000000E+00  0.00000000000E+00  0.89243711222E+03  0.11075628878E+04  0.65593563032E+03 0.  0.
         13    1    3    3    0    0  0.17778470294E+03 -0.15311342907E+03  0.83315129778E+03  0.86555889907E+03  0.00000000000E+00 0. -1.
          4    1    3    3  501    0 -0.17778470294E+03  0.15311342907E+03  0.59285814438E+02  0.24200398872E+03  0.00000000000E+00 0. -1.
<mgrwt>
<rscale>  0 0.65593563E+03</rscale>
<asrwt>0</asrwt>
<pdfrwt beam="1">0</pdfrwt>
<pdfrwt beam="2">  1        2 0.39113860E+00 0.65593563E+03</pdfrwt>
<totfact> 0.42964118E+00</totfact>
</mgrwt>
</event>
<event>
 5    1  0.2366700E-004  0.6520912E+03  0.7818608E-02  0.9802863E-01
         13   -1    0    0    0    0  0.00000000000E+00  0.00000000000E+00  0.10000000000E+04  0.10000000000E+04  0.00000000000E+00 0. -1.
          2   -1    0    0  501    0 -0.00000000000E+00 -0.00000000000E+00 -0.10630572310E+03  0.10630572310E+03  0.00000000000E+00 0. -1.
    9000006    2    1    2  501    0  0.00000000000E+00  0.00000000000E+00  0.89369427690E+03  0.11063057231E+04  0.65209116877E+03 0.  0.
         13    1    3    3    0    0 -0.29630913876E+03 -0.12910272724E+03  0.51960331885E+03  0.61192665316E+03  0.00000000000E+00 0. -1.
          4    1    3    3  501    0  0.29630913876E+03  0.12910272724E+03  0.37409095805E+03  0.49437906993E+03  0.00000000000E+00 0. -1.
<mgrwt>
<rscale>  0 0.65209117E+03</rscale>
<asrwt>0</asrwt>
<pdfrwt beam="1">0</pdfrwt>
<pdfrwt beam="2">  1        2 0.38656708E+00 0.65209117E+03</pdfrwt>
<totfact> 0.44691452E+00</totfact>
</mgrwt>
</event>
<event>
 5    1  0.2366700E-004  0.6488825E+03  0.7818608E-02  0.9808878E-01
         13   -1    0    0    0    0  0.00000000000E+00  0.00000000000E+00  0.10000000000E+04  0.10000000000E+04  0.00000000000E+00 0. -1.
          2   -1    0    0  501    0 -0.00000000000E+00 -0.00000000000E+00 -0.10526210915E+03  0.10526210915E+03  0.00000000000E+00 0. -1.
    9000006    2    1    2  501    0  0.00000000000E+00  0.00000000000E+00  0.89473789085E+03  0.11052621091E+04  0.64888245206E+03 0.  0.
         13    1    3    3    0    0  0.14533781455E+03 -0.28864487279E+03  0.39849886861E+03  0.51306947990E+03  0.00000000000E+00 0. -1.
          4    1    3    3  501    0 -0.14533781455E+03  0.28864487279E+03  0.49623902225E+03  0.59219262924E+03  0.00000000000E+00 0. -1.
<mgrwt>
<rscale>  0 0.64888245E+03</rscale>
<asrwt>0</asrwt>
<pdfrwt beam="1">0</pdfrwt>
<pdfrwt beam="2">  1        2 0.38277211E+00 0.64888245E+03</pdfrwt>
<totfact> 0.46172877E+00</totfact>
</mgrwt>
</event>
<event>
 5    1  0.2366700E-004  0.6513746E+03  0.7818608E-02  0.9804203E-01
         13   -1    0    0    0    0  0.00000000000E+00  0.00000000000E+00  0.10000000000E+04  0.10000000000E+04  0.00000000000E+00 0. -1.
          2   -1    0    0  501    0 -0.00000000000E+00 -0.00000000000E+00 -0.10607221346E+03  0.10607221346E+03  0.00000000000E+00 0. -1.
    9000006    2    1    2  501    0  0.00000000000E+00  0.00000000000E+00  0.89392778654E+03  0.11060722135E+04  0.65137458795E+03 0.  0.
         13    1    3    3    0    0 -0.26602585307E+03  0.18781351914E+03  0.45603556135E+03  0.56036783071E+03  0.00000000000E+00 0. -1.
          2    1    3    3  501    0  0.26602585307E+03 -0.18781351914E+03  0.43789222519E+03  0.54570438275E+03  0.00000000000E+00 0. -1.
<mgrwt>
<rscale>  0 0.65137459E+03</rscale>
<asrwt>0</asrwt>
<pdfrwt beam="1">0</pdfrwt>
<pdfrwt beam="2">  1        2 0.38571795E+00 0.65137459E+03</pdfrwt>
<totfact> 0.45019128E+00</totfact>
</mgrwt>
</event>
<event>
 5    1  0.2366700E-004  0.7811392E+03  0.7818608E-02  0.9587726E-01
         13   -1    0    0    0    0  0.00000000000E+00  0.00000000000E+00  0.10000000000E+04  0.10000000000E+04  0.00000000000E+00 0. -1.
          2   -1    0    0  501    0 -0.00000000000E+00 -0.00000000000E+00 -0.15254460294E+03  0.15254460294E+03  0.00000000000E+00 0. -1.
    9000006    2    1    2  501    0  0.00000000000E+00  0.00000000000E+00  0.84745539706E+03  0.11525446029E+04  0.78113917566E+03 0.  0.
         13    1    3    3    0    0 -0.30140332480E+02 -0.28626673530E+03  0.81322712777E+03  0.86266763283E+03  0.00000000000E+00 0. -1.
          4    1    3    3  501    0  0.30140332480E+02  0.28626673530E+03  0.34228269291E+02  0.28987697011E+03  0.00000000000E+00 0. -1.
<mgrwt>
<rscale>  0 0.78113918E+03</rscale>
<asrwt>0</asrwt>
<pdfrwt beam="1">0</pdfrwt>
<pdfrwt beam="2">  1        2 0.55470882E+00 0.78113918E+03</pdfrwt>
<totfact> 0.90966446E-01</totfact>
</mgrwt>
</event>
<event>
 5    1  0.2366700E-004  0.6227768E+03  0.7818608E-02  0.9859247E-01
         13   -1    0    0    0    0  0.00000000000E+00  0.00000000000E+00  0.10000000000E+04  0.10000000000E+04  0.00000000000E+00 0. -1.
          2   -1    0    0  501    0 -0.00000000000E+00 -0.00000000000E+00 -0.96962733138E+02  0.96962733138E+02  0.00000000000E+00 0. -1.
    9000006    2    1    2  501    0  0.00000000000E+00  0.00000000000E+00  0.90303726686E+03  0.10969627331E+04  0.62277679192E+03 0.  0.
         13    1    3    3    0    0  0.18607337895E+03 -0.19357085138E+03  0.17374231457E+03  0.31981145810E+03  0.00000000000E+00 0. -1.
          4    1    3    3  501    0 -0.18607337895E+03  0.19357085138E+03  0.72929495229E+03  0.77715127504E+03  0.00000000000E+00 0. -1.
<mgrwt>
<rscale>  0 0.62277679E+03</rscale>
<asrwt>0</asrwt>
<pdfrwt beam="1">0</pdfrwt>
<pdfrwt beam="2">  1        2 0.35259250E+00 0.62277679E+03</pdfrwt>
<totfact> 0.59653081E+00</totfact>
</mgrwt>
</event>
<event>
 5    1  0.2366700E-004  0.6218398E+03  0.7818608E-02  0.9861103E-01
         13   -1    0    0    0    0  0.00000000000E+00  0.00000000000E+00  0.10000000000E+04  0.10000000000E+04  0.00000000000E+00 0. -1.
          2   -1    0    0  501    0 -0.00000000000E+00 -0.00000000000E+00 -0.96671192162E+02  0.96671192162E+02  0.00000000000E+00 0. -1.
    9000006    2    1    2  501    0  0.00000000000E+00  0.00000000000E+00  0.90332880784E+03  0.10966711922E+04  0.62183982556E+03 0.  0.
         13    1    3    3    0    0  0.27788469015E+03 -0.12157602820E+03  0.57219086478E+03  0.64761332397E+03  0.00000000000E+00 0. -1.
          2    1    3    3  501    0 -0.27788469015E+03  0.12157602820E+03  0.33113794306E+03  0.44905786819E+03  0.00000000000E+00 0. -1.
<mgrwt>
<rscale>  0 0.62183983E+03</rscale>
<asrwt>0</asrwt>
<pdfrwt beam="1">0</pdfrwt>
<pdfrwt beam="2">  1        2 0.35153235E+00 0.62183983E+03</pdfrwt>
<totfact> 0.60186779E+00</totfact>
</mgrwt>
</event>
<event>
 5    1  0.2366700E-004  0.6539919E+03  0.7818608E-02  0.9799317E-01
         13   -1    0    0    0    0  0.00000000000E+00  0.00000000000E+00  0.10000000000E+04  0.10000000000E+04  0.00000000000E+00 0. -1.
          2   -1    0    0  501    0 -0.00000000000E+00 -0.00000000000E+00 -0.10692633878E+03  0.10692633878E+03  0.00000000000E+00 0. -1.
    9000006    2    1    2  501    0  0.00000000000E+00  0.00000000000E+00  0.89307366122E+03  0.11069263388E+04  0.65399186167E+03 0.  0.
         13    1    3    3    0    0  0.31460825353E+03  0.40389583651E+02  0.31201574204E+03  0.44493088782E+03  0.00000000000E+00 0. -1.
          4    1    3    3  501    0 -0.31460825353E+03 -0.40389583651E+02  0.58105791918E+03  0.66199545096E+03  0.00000000000E+00 0. -1.
<mgrwt>
<rscale>  0 0.65399186E+03</rscale>
<asrwt>0</asrwt>
<pdfrwt beam="1">0</pdfrwt>
<pdfrwt beam="2">  1        2 0.38882387E+00 0.65399186E+03</pdfrwt>
<totfact> 0.43831035E+00</totfact>
</mgrwt>
</event>
<event>
 5    1  0.2366700E-004  0.6542685E+03  0.7818608E-02  0.9798802E-01
         13   -1    0    0    0    0  0.00000000000E+00  0.00000000000E+00  0.10000000000E+04  0.10000000000E+04  0.00000000000E+00 0. -1.
          2   -1    0    0  501    0 -0.00000000000E+00 -0.00000000000E+00 -0.10701681045E+03  0.10701681045E+03  0.00000000000E+00 0. -1.
    9000006    2    1    2  501    0  0.00000000000E+00  0.00000000000E+00  0.89298318955E+03  0.11070168104E+04  0.65426847838E+03 0.  0.
         13    1    3    3    0    0 -0.13169794449E+03 -0.18763556377E+03  0.51617724622E+02  0.23498051594E+03  0.00000000000E+00 0. -1.
          2    1    3    3  501    0  0.13169794449E+03  0.18763556377E+03  0.84136546493E+03  0.87203629451E+03  0.00000000000E+00 0. -1.
<mgrwt>
<rscale>  0 0.65426848E+03</rscale>
<asrwt>0</asrwt>
<pdfrwt beam="1">0</pdfrwt>
<pdfrwt beam="2">  1        2 0.38915286E+00 0.65426848E+03</pdfrwt>
<totfact> 0.43706865E+00</totfact>
</mgrwt>
</event>
<event>
 5    1  0.2366700E-004  0.6403490E+03  0.7818608E-02  0.9825059E-01
         13   -1    0    0    0    0  0.00000000000E+00  0.00000000000E+00  0.10000000000E+04  0.10000000000E+04  0.00000000000E+00 0. -1.
          2   -1    0    0  501    0 -0.00000000000E+00 -0.00000000000E+00 -0.10251171846E+03  0.10251171846E+03  0.00000000000E+00 0. -1.
    9000006    2    1    2  501    0  0.00000000000E+00  0.00000000000E+00  0.89748828154E+03  0.11025117185E+04  0.64034902502E+03 0.  0.
         13    1    3    3    0    0 -0.83323614173E+01  0.93232460462E+01 -0.10209116955E+03  0.10285406197E+03  0.00000000000E+00 0. -1.
          4    1    3    3  501    0  0.83323614173E+01 -0.93232460462E+01  0.99957945108E+03  0.99965765650E+03  0.00000000000E+00 0. -1.
<mgrwt>
<rscale>  0 0.64034903E+03</rscale>
<asrwt>0</asrwt>
<pdfrwt beam="1">0</pdfrwt>
<pdfrwt beam="2">  1        2 0.37277067E+00 0.64034903E+03</pdfrwt>
<totfact> 0.50293691E+00</totfact>
</mgrwt>
</event>
<event>
 5    1  0.2366700E-004  0.6693110E+03  0.7818608E-02  0.9771203E-01
         13   -1    0    0    0    0  0.00000000000E+00  0.00000000000E+00  0.10000000000E+04  0.10000000000E+04  0.00000000000E+00 0. -1.
          2   -1    0    0  501    0 -0.00000000000E+00 -0.00000000000E+00 -0.11199429765E+03  0.11199429765E+03  0.00000000000E+00 0. -1.
    9000006    2    1    2  501    0  0.00000000000E+00  0.00000000000E+00  0.88800570235E+03  0.11119942976E+04  0.66931098197E+03 0.  0.
         13    1    3    3    0    0  0.21543593250E+02 -0.30880845566E+03  0.23275312035E+03  0.38729937223E+03  0.00000000000E+00 0. -1.
          2    1    3    3  501    0 -0.21543593250E+02  0.30880845566E+03  0.65525258200E+03  0.72469492541E+03  0.00000000000E+00 0. -1.
<mgrwt>
<rscale>  0 0.66931098E+03</rscale>
<asrwt>0</asrwt>
<pdfrwt beam="1">0</pdfrwt>
<pdfrwt beam="2">  1        2 0.40725285E+00 0.66931098E+03</pdfrwt>
<totfact> 0.37344754E+00</totfact>
</mgrwt>
</event>
<event>
 5    1  0.2366700E-004  0.6451576E+03  0.7818608E-02  0.9815908E-01
         13   -1    0    0    0    0  0.00000000000E+00  0.00000000000E+00  0.10000000000E+04  0.10000000000E+04  0.00000000000E+00 0. -1.
          2   -1    0    0  501    0 -0.00000000000E+00 -0.00000000000E+00 -0.10405706925E+03  0.10405706925E+03  0.00000000000E+00 0. -1.
    9000006    2    1    2  501    0  0.00000000000E+00  0.00000000000E+00  0.89594293075E+03  0.11040570692E+04  0.64515755982E+03 0.  0.
         13    1    3    3    0    0 -0.11720366580E+03 -0.26980597670E+03  0.67451728124E+03  0.73587059122E+03  0.00000000000E+00 0. -1.
          4    1    3    3  501    0  0.11720366580E+03  0.26980597670E+03  0.22142564952E+03  0.36818647803E+03  0.00000000000E+00 0. -1.
<mgrwt>
<rscale>  0 0.64515756E+03</rscale>
<asrwt>0</asrwt>
<pdfrwt beam="1">0</pdfrwt>
<pdfrwt beam="2">  1        2 0.37839014E+00 0.64515756E+03</pdfrwt>
<totfact> 0.47938845E+00</totfact>
</mgrwt>
</event>
<event>
 5    1  0.2366700E-004  0.6671228E+03  0.7818608E-02  0.9775169E-01
         13   -1    0    0    0    0  0.00000000000E+00  0.00000000000E+00  0.10000000000E+04  0.10000000000E+04  0.00000000000E+00 0. -1.
          2   -1    0    0  501    0 -0.00000000000E+00 -0.00000000000E+00 -0.11126322352E+03  0.11126322352E+03  0.00000000000E+00 0. -1.
    9000006    2    1    2  501    0  0.00000000000E+00  0.00000000000E+00  0.88873677648E+03  0.11112632235E+04  0.66712284782E+03 0.  0.
         13    1    3    3    0    0 -0.22357027306E+03  0.16897023301E+03  0.14301578096E+03  0.31462377571E+03  0.00000000000E+00 0. -1.
          4    1    3    3  501    0  0.22357027306E+03 -0.16897023301E+03  0.74572099552E+03  0.79663944781E+03  0.00000000000E+00 0. -1.
<mgrwt>
<rscale>  0 0.66712285E+03</rscale>
<asrwt>0</asrwt>
<pdfrwt beam="1">0</pdfrwt>
<pdfrwt beam="2">  1        2 0.40459439E+00 0.66712285E+03</pdfrwt>
<totfact> 0.38223732E+00</totfact>
</mgrwt>
</event>
<event>
 5    1  0.2366700E-004  0.6284413E+03  0.7818608E-02  0.9848095E-01
         13   -1    0    0    0    0  0.00000000000E+00  0.00000000000E+00  0.10000000000E+04  0.10000000000E+04  0.00000000000E+00 0. -1.
          2   -1    0    0  501    0 -0.00000000000E+00 -0.00000000000E+00 -0.98734608510E+02  0.98734608510E+02  0.00000000000E+00 0. -1.
    9000006    2    1    2  501    0  0.00000000000E+00  0.00000000000E+00  0.90126539149E+03  0.10987346085E+04  0.62844127334E+03 0.  0.
         13    1    3    3    0    0 -0.40673509187E+01  0.30345710563E+03  0.59301153850E+03  0.66615722100E+03  0.00000000000E+00 0. -1.
          4    1    3    3  501    0  0.40673509187E+01 -0.30345710563E+03  0.30825385299E+03  0.43257738751E+03  0.00000000000E+00 0. -1.
<mgrwt>
<rscale>  0 0.62844127E+03</rscale>
<asrwt>0</asrwt>
<pdfrwt beam="1">0</pdfrwt>
<pdfrwt beam="2">  1        2 0.35903570E+00 0.62844127E+03</pdfrwt>
<totfact> 0.56502857E+00</totfact>
</mgrwt>
</event>
<event>
 5    1  0.2366700E-004  0.6514323E+03  0.7818608E-02  0.9804095E-01
         13   -1    0    0    0    0  0.00000000000E+00  0.00000000000E+00  0.10000000000E+04  0.10000000000E+04  0.00000000000E+00 0. -1.
          2   -1    0    0  501    0 -0.00000000000E+00 -0.00000000000E+00 -0.10609102239E+03  0.10609102239E+03  0.00000000000E+00 0. -1.
    9000006    2    1    2  501    0  0.00000000000E+00  0.00000000000E+00  0.89390897761E+03  0.11060910224E+04  0.65143233689E+03 0.  0.
         13    1    3    3    0    0  0.29320394029E+03 -0.95048781642E+02  0.62574814164E+03  0.69754107998E+03  0.00000000000E+00 0. -1.
          4    1    3    3  501    0 -0.29320394029E+03  0.95048781642E+02  0.26816083597E+03  0.40854994241E+03  0.00000000000E+00 0. -1.
<mgrwt>
<rscale>  0 0.65143234E+03</rscale>
<asrwt>0</asrwt>
<pdfrwt beam="1">0</pdfrwt>
<pdfrwt beam="2">  1        2 0.38578635E+00 0.65143234E+03</pdfrwt>
<totfact> 0.44992653E+00</totfact>
</mgrwt>
</event>
<event>
 5    1  0.2366700E-004  0.6614930E+03  0.7818608E-02  0.9785449E-01
         13   -1    0    0    0    0  0.00000000000E+00  0.00000000000E+00  0.10000000000E+04  0.10000000000E+04  0.00000000000E+00 0. -1.
          2   -1    0    0  501    0 -0.00000000000E+00 -0.00000000000E+00 -0.10939324966E+03  0.10939324966E+03  0.00000000000E+00 0. -1.
    9000006    2    1    2  501    0  0.00000000000E+00  0.00000000000E+00  0.89060675034E+03  0.11093932497E+04  0.66149300724E+03 0.  0.
         13    1    3    3    0    0 -0.95460748405E+02 -0.24438338748E+03  0.10755401215E+03  0.28355574424E+03  0.00000000000E+00 0. -1.
          4    1    3    3  501    0  0.95460748405E+02  0.24438338748E+03  0.78305273819E+03  0.82583750541E+03  0.00000000000E+00 0. -1.
<mgrwt>
<rscale>  0 0.66149301E+03</rscale>
<asrwt>0</asrwt>
<pdfrwt beam="1">0</pdfrwt>
<pdfrwt beam="2">  1        2 0.39779447E+00 0.66149301E+03</pdfrwt>
<totfact> 0.40556977E+00</totfact>
</mgrwt>
</event>
<event>
 5    1  0.2366700E-004  0.6396397E+03  0.7818608E-02  0.9826416E-01
         13   -1    0    0    0    0  0.00000000000E+00  0.00000000000E+00  0.10000000000E+04  0.10000000000E+04  0.00000000000E+00 0. -1.
          2   -1    0    0  501    0 -0.00000000000E+00 -0.00000000000E+00 -0.10228474164E+03  0.10228474164E+03  0.00000000000E+00 0. -1.
    9000006    2    1    2  501    0  0.00000000000E+00  0.00000000000E+00  0.89771525836E+03  0.11022847416E+04  0.63963971621E+03 0.  0.
         13    1    3    3    0    0 -0.25201555924E+03 -0.11821527225E+03  0.72023093816E+03  0.77215237938E+03  0.00000000000E+00 0. -1.
          2    1    3    3  501    0  0.25201555924E+03  0.11821527225E+03  0.17748432020E+03  0.33013236226E+03  0.00000000000E+00 0. -1.
<mgrwt>
<rscale>  0 0.63963972E+03</rscale>
<asrwt>0</asrwt>
<pdfrwt beam="1">0</pdfrwt>
<pdfrwt beam="2">  1        2 0.37194530E+00 0.63963972E+03</pdfrwt>
<totfact> 0.50648346E+00</totfact>
</mgrwt>
</event>
<event>
 5    1  0.2366700E-004  0.6541538E+03  0.7818608E-02  0.9799016E-01
         13   -1    0    0    0    0  0.00000000000E+00  0.00000000000E+00  0.10000000000E+04  0.10000000000E+04  0.00000000000E+00 0. -1.
          2   -1    0    0  501    0 -0.00000000000E+00 -0.00000000000E+00 -0.10697931225E+03  0.10697931225E+03  0.00000000000E+00 0. -1.
    9000006    2    1    2  501    0  0.00000000000E+00  0.00000000000E+00  0.89302068775E+03  0.11069793123E+04  0.65415384201E+03 0.  0.
         13    1    3    3    0    0  0.31595274481E+03 -0.70177304989E+02  0.52639226499E+03  0.61793187952E+03  0.00000000000E+00 0. -1.
          4    1    3    3  501    0 -0.31595274481E+03  0.70177304989E+02  0.36662842276E+03  0.48904743273E+03  0.00000000000E+00 0. -1.
<mgrwt>
<rscale>  0 0.65415384E+03</rscale>
<asrwt>0</asrwt>
<pdfrwt beam="1">0</pdfrwt>
<pdfrwt beam="2">  1        2 0.38901650E+00 0.65415384E+03</pdfrwt>
<totfact> 0.43758292E+00</totfact>
</mgrwt>
</event>
<event>
 5    1  0.2366700E-004  0.6491286E+03  0.7818608E-02  0.9808416E-01
         13   -1    0    0    0    0  0.00000000000E+00  0.00000000000E+00  0.10000000000E+04  0.10000000000E+04  0.00000000000E+00 0. -1.
          2   -1    0    0  501    0 -0.00000000000E+00 -0.00000000000E+00 -0.10534197545E+03  0.10534197545E+03  0.00000000000E+00 0. -1.
    9000006    2    1    2  501    0  0.00000000000E+00  0.00000000000E+00  0.89465802455E+03  0.11053419755E+04  0.64912857109E+03 0.  0.
         13    1    3    3    0    0  0.27747631083E+03  0.16261347546E+03  0.37299345175E+03  0.49250417310E+03  0.00000000000E+00 0. -1.
          4    1    3    3  501    0 -0.27747631083E+03 -0.16261347546E+03  0.52166457280E+03  0.61283780235E+03  0.00000000000E+00 0. -1.
<mgrwt>
<rscale>  0 0.64912857E+03</rscale>
<asrwt>0</asrwt>
<pdfrwt beam="1">0</pdfrwt>
<pdfrwt beam="2">  1        2 0.38306254E+00 0.64912857E+03</pdfrwt>
<totfact> 0.46057951E+00</totfact>
</mgrwt>
</event>
<event>
 5    1  0.2366700E-004  0.6268074E+03  0.7818608E-02  0.9851299E-01
         13   -1    0    0    0    0  0.00000000000E+00  0.00000000000E+00  0.10000000000E+04  0.10000000000E+04  0.00000000000E+00 0. -1.
          2   -1    0    0  501    0 -0.00000000000E+00 -0.00000000000E+00 -0.98221880839E+02  0.98221880839E+02  0.00000000000E+00 0. -1.
    9000006    2    1    2  501    0  0.00000000000E+00  0.00000000000E+00  0.90177811916E+03  0.10982218808E+04  0.62680740531E+03 0.  0.
         13    1    3    3    0    0 -0.15797117118E+03  0.68091584211E+02  0.90989112260E+03  0.92600929248E+03  0.00000000000E+00 0. -1.
          2    1    3    3  501    0  0.15797117118E+03 -0.68091584211E+02 -0.81130034393E+01  0.17221258836E+03  0.00000000000E+00 0. -1.
<mgrwt>
<rscale>  0 0.62680741E+03</rscale>
<asrwt>0</asrwt>
<pdfrwt beam="1">0</pdfrwt>
<pdfrwt beam="2">  1        2 0.35717123E+00 0.62680741E+03</pdfrwt>
<totfact> 0.57398150E+00</totfact>
</mgrwt>
</event>
<event>
 5    1  0.2366700E-004  0.6444697E+03  0.7818608E-02  0.9817212E-01
         13   -1    0    0    0    0  0.00000000000E+00  0.00000000000E+00  0.10000000000E+04  0.10000000000E+04  0.00000000000E+00 0. -1.
          2   -1    0    0  501    0 -0.00000000000E+00 -0.00000000000E+00 -0.10383529244E+03  0.10383529244E+03  0.00000000000E+00 0. -1.
    9000006    2    1    2  501    0  0.00000000000E+00  0.00000000000E+00  0.89616470756E+03  0.11038352924E+04  0.64446968103E+03 0.  0.
         13    1    3    3    0    0  0.21516455863E+03  0.14509587795E+03  0.12091570456E+03  0.28630265227E+03  0.00000000000E+00 0. -1.
          2    1    3    3  501    0 -0.21516455863E+03 -0.14509587795E+03  0.77524900300E+03  0.81753264017E+03  0.00000000000E+00 0. -1.
<mgrwt>
<rscale>  0 0.64446968E+03</rscale>
<asrwt>0</asrwt>
<pdfrwt beam="1">0</pdfrwt>
<pdfrwt beam="2">  1        2 0.37758368E+00 0.64446968E+03</pdfrwt>
<totfact> 0.48270476E+00</totfact>
</mgrwt>
</event>
<event>
 5    1  0.2366700E-004  0.6932972E+03  0.7818608E-02  0.9728764E-01
         13   -1    0    0    0    0  0.00000000000E+00  0.00000000000E+00  0.10000000000E+04  0.10000000000E+04  0.00000000000E+00 0. -1.
          2   -1    0    0  501    0 -0.00000000000E+00 -0.00000000000E+00 -0.12016524374E+03  0.12016524374E+03  0.00000000000E+00 0. -1.
    9000006    2    1    2  501    0  0.00000000000E+00  0.00000000000E+00  0.87983475626E+03  0.11201652437E+04  0.69329717651E+03 0.  0.
         13    1    3    3    0    0  0.10643501867E+03  0.10457583870E+03  0.94545748359E+03  0.95715953347E+03  0.00000000000E+00 0. -1.
          2    1    3    3  501    0 -0.10643501867E+03 -0.10457583870E+03 -0.65622727326E+02  0.16300571027E+03  0.00000000000E+00 0. -1.
<mgrwt>
<rscale>  0 0.69329718E+03</rscale>
<asrwt>0</asrwt>
<pdfrwt beam="1">0</pdfrwt>
<pdfrwt beam="2">  1        2 0.43696544E+00 0.69329718E+03</pdfrwt>
<totfact> 0.28675280E+00</totfact>
</mgrwt>
</event>
<event>
 5    1  0.2366700E-004  0.6619085E+03  0.7818608E-02  0.9784687E-01
         13   -1    0    0    0    0  0.00000000000E+00  0.00000000000E+00  0.10000000000E+04  0.10000000000E+04  0.00000000000E+00 0. -1.
          2   -1    0    0  501    0 -0.00000000000E+00 -0.00000000000E+00 -0.10953072401E+03  0.10953072401E+03  0.00000000000E+00 0. -1.
    9000006    2    1    2  501    0  0.00000000000E+00  0.00000000000E+00  0.89046927599E+03  0.11095307240E+04  0.66190852542E+03 0.  0.
         13    1    3    3    0    0 -0.33574753662E+01  0.24570214523E+03  0.73611531852E+02  0.25651408233E+03  0.00000000000E+00 0. -1.
          4    1    3    3  501    0  0.33574753662E+01 -0.24570214523E+03  0.81685774414E+03  0.85301664168E+03  0.00000000000E+00 0. -1.
<mgrwt>
<rscale>  0 0.66190853E+03</rscale>
<asrwt>0</asrwt>
<pdfrwt beam="1">0</pdfrwt>
<pdfrwt beam="2">  1        2 0.39829438E+00 0.66190853E+03</pdfrwt>
<totfact> 0.40381189E+00</totfact>
</mgrwt>
</event>
<event>
 5    1  0.2366700E-004  0.6466193E+03  0.7818608E-02  0.9813144E-01
         13   -1    0    0    0    0  0.00000000000E+00  0.00000000000E+00  0.10000000000E+04  0.10000000000E+04  0.00000000000E+00 0. -1.
          2   -1    0    0  501    0 -0.00000000000E+00 -0.00000000000E+00 -0.10452913384E+03  0.10452913384E+03  0.00000000000E+00 0. -1.
    9000006    2    1    2  501    0  0.00000000000E+00  0.00000000000E+00  0.89547086616E+03  0.11045291338E+04  0.64661931255E+03 0.  0.
         13    1    3    3    0    0  0.19008353545E+03 -0.25540601455E+03  0.54383595124E+03  0.63017578863E+03  0.00000000000E+00 0. -1.
          2    1    3    3  501    0 -0.19008353545E+03  0.25540601455E+03  0.35163491492E+03  0.47435334521E+03  0.00000000000E+00 0. -1.
<mgrwt>
<rscale>  0 0.64661931E+03</rscale>
<asrwt>0</asrwt>
<pdfrwt beam="1">0</pdfrwt>
<pdfrwt beam="2">  1        2 0.38010674E+00 0.64661931E+03</pdfrwt>
<totfact> 0.47239849E+00</totfact>
</mgrwt>
</event>
<event>
 5    1  0.2366700E-004  0.6521296E+03  0.7818608E-02  0.9802791E-01
         13   -1    0    0    0    0  0.00000000000E+00  0.00000000000E+00  0.10000000000E+04  0.10000000000E+04  0.00000000000E+00 0. -1.
          2   -1    0    0  501    0 -0.00000000000E+00 -0.00000000000E+00 -0.10631825423E+03  0.10631825423E+03  0.00000000000E+00 0. -1.
    9000006    2    1    2  501    0  0.00000000000E+00  0.00000000000E+00  0.89368174577E+03  0.11063182542E+04  0.65212960132E+03 0.  0.
         13    1    3    3    0    0 -0.33015583656E+02  0.30243708855E+03  0.64584216712E+03  0.71391198766E+03  0.00000000000E+00 0. -1.
          4    1    3    3  501    0  0.33015583656E+02 -0.30243708855E+03  0.24783957865E+03  0.39240626657E+03  0.00000000000E+00 0. -1.
<mgrwt>
<rscale>  0 0.65212960E+03</rscale>
<asrwt>0</asrwt>
<pdfrwt beam="1">0</pdfrwt>
<pdfrwt beam="2">  1        2 0.38661265E+00 0.65212960E+03</pdfrwt>
<totfact> 0.44673929E+00</totfact>
</mgrwt>
</event>
<event>
 5    1  0.2366700E-004  0.6478763E+03  0.7818608E-02  0.9810772E-01
         13   -1    0    0    0    0  0.00000000000E+00  0.00000000000E+00  0.10000000000E+04  0.10000000000E+04  0.00000000000E+00 0. -1.
          2   -1    0    0  501    0 -0.00000000000E+00 -0.00000000000E+00 -0.10493591929E+03  0.10493591929E+03  0.00000000000E+00 0. -1.
    9000006    2    1    2  501    0  0.00000000000E+00  0.00000000000E+00  0.89506408071E+03  0.11049359193E+04  0.64787628230E+03 0.  0.
         13    1    3    3    0    0  0.17464419147E+03 -0.25213144328E+03  0.26976096700E+03  0.40846277385E+03  0.00000000000E+00 0. -1.
          4    1    3    3  501    0 -0.17464419147E+03  0.25213144328E+03  0.62530311371E+03  0.69647314544E+03  0.00000000000E+00 0. -1.
<mgrwt>
<rscale>  0 0.64787628E+03</rscale>
<asrwt>0</asrwt>
<pdfrwt beam="1">0</pdfrwt>
<pdfrwt beam="2">  1        2 0.38158597E+00 0.64787628E+03</pdfrwt>
<totfact> 0.46644968E+00</totfact>
</mgrwt>
</event>
<event>
 5    1  0.2366700E-004  0.6275404E+03  0.7818608E-02  0.9849860E-01
         13   -1    0    0    0    0  0.00000000000E+00  0.00000000000E+00  0.10000000000E+04  0.10000000000E+04  0.00000000000E+00 0. -1.
          2   -1    0    0  501    0 -0.00000000000E+00 -0.00000000000E+00 -0.98451729243E+02  0.98451729243E+02  0.00000000000E+00 0. -1.
    9000006    2    1    2  501    0  0.00000000000E+00  0.00000000000E+00  0.90154827076E+03  0.10984517292E+04  0.62754037079E+03 0.  0.
         13    1    3    3    0    0  0.54345085697E+02  0.25413034330E+03  0.75854799120E+03  0.80182957957E+03  0.00000000000E+00 0. -1.
          2    1    3    3  501    0 -0.54345085697E+02 -0.25413034330E+03  0.14300027956E+03  0.29662214967E+03  0.00000000000E+00 0. -1.
<mgrwt>
<rscale>  0 0.62754037E+03</rscale>
<asrwt>0</asrwt>
<pdfrwt beam="1">0</pdfrwt>
<pdfrwt beam="2">  1        2 0.35800704E+00 0.62754037E+03</pdfrwt>
<totfact> 0.56995192E+00</totfact>
</mgrwt>
</event>
<event>
 5    1  0.2366700E-004  0.6594830E+03  0.7818608E-02  0.9789146E-01
         13   -1    0    0    0    0  0.00000000000E+00  0.00000000000E+00  0.10000000000E+04  0.10000000000E+04  0.00000000000E+00 0. -1.
          2   -1    0    0  501    0 -0.00000000000E+00 -0.00000000000E+00 -0.10872944494E+03  0.10872944494E+03  0.00000000000E+00 0. -1.
    9000006    2    1    2  501    0  0.00000000000E+00  0.00000000000E+00  0.89127055506E+03  0.11087294449E+04  0.65948296398E+03 0.  0.
         13    1    3    3    0    0 -0.31433749289E+03 -0.57117749954E+02  0.58282602327E+03  0.66464777905E+03  0.00000000000E+00 0. -1.
          4    1    3    3  501    0  0.31433749289E+03  0.57117749954E+02  0.30844453179E+03  0.44408166589E+03  0.00000000000E+00 0. -1.
<mgrwt>
<rscale>  0 0.65948296E+03</rscale>
<asrwt>0</asrwt>
<pdfrwt beam="1">0</pdfrwt>
<pdfrwt beam="2">  1        2 0.39538063E+00 0.65948296E+03</pdfrwt>
<totfact> 0.41415505E+00</totfact>
</mgrwt>
</event>
<event>
 5    1  0.2366700E-004  0.6484168E+03  0.7818608E-02  0.9809754E-01
         13   -1    0    0    0    0  0.00000000000E+00  0.00000000000E+00  0.10000000000E+04  0.10000000000E+04  0.00000000000E+00 0. -1.
          2   -1    0    0  501    0 -0.00000000000E+00 -0.00000000000E+00 -0.10511109942E+03  0.10511109942E+03  0.00000000000E+00 0. -1.
    9000006    2    1    2  501    0  0.00000000000E+00  0.00000000000E+00  0.89488890058E+03  0.11051110994E+04  0.64841683946E+03 0.  0.
         13    1    3    3    0    0 -0.11249347913E+03  0.30337604943E+03  0.48234308990E+03  0.58081551855E+03  0.00000000000E+00 0. -1.
          4    1    3    3  501    0  0.11249347913E+03 -0.30337604943E+03  0.41254581068E+03  0.52429558087E+03  0.00000000000E+00 0. -1.
<mgrwt>
<rscale>  0 0.64841684E+03</rscale>
<asrwt>0</asrwt>
<pdfrwt beam="1">0</pdfrwt>
<pdfrwt beam="2">  1        2 0.38222299E+00 0.64841684E+03</pdfrwt>
<totfact> 0.46390889E+00</totfact>
</mgrwt>
</event>
<event>
 5    1  0.2366700E-004  0.6474685E+03  0.7818608E-02  0.9811541E-01
         13   -1    0    0    0    0  0.00000000000E+00  0.00000000000E+00  0.10000000000E+04  0.10000000000E+04  0.00000000000E+00 0. -1.
          2   -1    0    0  501    0 -0.00000000000E+00 -0.00000000000E+00 -0.10480386537E+03  0.10480386537E+03  0.00000000000E+00 0. -1.
    9000006    2    1    2  501    0  0.00000000000E+00  0.00000000000E+00  0.89519613463E+03  0.11048038654E+04  0.64746850230E+03 0.  0.
         13    1    3    3    0    0  0.14333193641E+03 -0.14053733297E+01  0.94290193137E+03  0.95373480132E+03  0.00000000000E+00 0. -1.
          4    1    3    3  501    0 -0.14333193641E+03  0.14053733297E+01 -0.47705796736E+02  0.15106906405E+03  0.00000000000E+00 0. -1.
<mgrwt>
<rscale>  0 0.64746850E+03</rscale>
<asrwt>0</asrwt>
<pdfrwt beam="1">0</pdfrwt>
<pdfrwt beam="2">  1        2 0.38110577E+00 0.64746850E+03</pdfrwt>
<totfact> 0.46837332E+00</totfact>
</mgrwt>
</event>
<event>
 5    1  0.2366700E-004  0.6487607E+03  0.7818608E-02  0.9809107E-01
         13   -1    0    0    0    0  0.00000000000E+00  0.00000000000E+00  0.10000000000E+04  0.10000000000E+04  0.00000000000E+00 0. -1.
          2   -1    0    0  501    0 -0.00000000000E+00 -0.00000000000E+00 -0.10522259872E+03  0.10522259872E+03  0.00000000000E+00 0. -1.
    9000006    2    1    2  501    0  0.00000000000E+00  0.00000000000E+00  0.89477740128E+03  0.11052225987E+04  0.64876066070E+03 0.  0.
         13    1    3    3    0    0  0.16184574909E+03  0.26663710361E+03  0.59912505580E+03  0.67545556775E+03  0.00000000000E+00 0. -1.
          2    1    3    3  501    0 -0.16184574909E+03 -0.26663710361E+03  0.29565234548E+03  0.42976703096E+03  0.00000000000E+00 0. -1.
<mgrwt>
<rscale>  0 0.64876066E+03</rscale>
<asrwt>0</asrwt>
<pdfrwt beam="1">0</pdfrwt>
<pdfrwt beam="2">  1        2 0.38262844E+00 0.64876066E+03</pdfrwt>
<totfact> 0.46229828E+00</totfact>
</mgrwt>
</event>
<event>
 5    1  0.2366700E-004  0.6484960E+03  0.7818608E-02  0.9809605E-01
         13   -1    0    0    0    0  0.00000000000E+00  0.00000000000E+00  0.10000000000E+04  0.10000000000E+04  0.00000000000E+00 0. -1.
          2   -1    0    0  501    0 -0.00000000000E+00 -0.00000000000E+00 -0.10513675516E+03  0.10513675516E+03  0.00000000000E+00 0. -1.
    9000006    2    1    2  501    0  0.00000000000E+00  0.00000000000E+00  0.89486324484E+03  0.11051367552E+04  0.64849596809E+03 0.  0.
         13    1    3    3    0    0  0.25233989519E+03 -0.12504144404E+03  0.17356628899E+03  0.33081118800E+03  0.00000000000E+00 0. -1.
          4    1    3    3  501    0 -0.25233989519E+03  0.12504144404E+03  0.72129695585E+03  0.77432556716E+03  0.00000000000E+00 0. -1.
<mgrwt>
<rscale>  0 0.64849597E+03</rscale>
<asrwt>0</asrwt>
<pdfrwt beam="1">0</pdfrwt>
<pdfrwt beam="2">  1        2 0.38231628E+00 0.64849597E+03</pdfrwt>
<totfact> 0.46353785E+00</totfact>
</mgrwt>
</event>
<event>
 5    1  0.2366700E-004  0.6694718E+03  0.7818608E-02  0.9770913E-01
         13   -1    0    0    0    0  0.00000000000E+00  0.00000000000E+00  0.10000000000E+04  0.10000000000E+04  0.00000000000E+00 0. -1.
          2   -1    0    0  501    0 -0.00000000000E+00 -0.00000000000E+00 -0.11204811534E+03  0.11204811534E+03  0.00000000000E+00 0. -1.
    9000006    2    1    2  501    0  0.00000000000E+00  0.00000000000E+00  0.88795188466E+03  0.11120481153E+04  0.66947177788E+03 0.  0.
         13    1    3    3    0    0  0.10650577724E+03 -0.30003159822E+03  0.61568463505E+03  0.69313058680E+03  0.00000000000E+00 0. -1.
          4    1    3    3  501    0 -0.10650577724E+03  0.30003159822E+03  0.27226724960E+03  0.41891752854E+03  0.00000000000E+00 0. -1.
<mgrwt>
<rscale>  0 0.66947178E+03</rscale>
<asrwt>0</asrwt>
<pdfrwt beam="1">0</pdfrwt>
<pdfrwt beam="2">  1        2 0.40744855E+00 0.66947178E+03</pdfrwt>
<totfact> 0.37280769E+00</totfact>
</mgrwt>
</event>
<event>
 5    1  0.2366700E-004  0.6532249E+03  0.7818608E-02  0.9800747E-01
         13   -1    0    0    0    0  0.00000000000E+00  0.00000000000E+00  0.10000000000E+04  0.10000000000E+04  0.00000000000E+00 0. -1.
          2   -1    0    0  501    0 -0.00000000000E+00 -0.00000000000E+00 -0.10667568061E+03  0.10667568061E+03  0.00000000000E+00 0. -1.
    9000006    2    1    2  501    0  0.00000000000E+00  0.00000000000E+00  0.89332431939E+03  0.11066756806E+04  0.65322486361E+03 0.  0.
         13    1    3    3    0    0 -0.25105543760E+03  0.19090566848E+03  0.30288814267E+03  0.43728141280E+03  0.00000000000E+00 0. -1.
          2    1    3    3  501    0  0.25105543760E+03 -0.19090566848E+03  0.59043617672E+03  0.66939426781E+03  0.00000000000E+00 0. -1.
<mgrwt>
<rscale>  0 0.65322486E+03</rscale>
<asrwt>0</asrwt>
<pdfrwt beam="1">0</pdfrwt>
<pdfrwt beam="2">  1        2 0.38791238E+00 0.65322486E+03</pdfrwt>
<totfact> 0.44176724E+00</totfact>
</mgrwt>
</event>
<event>
 5    1  0.2366700E-004  0.6217836E+03  0.7818608E-02  0.9861215E-01
         13   -1    0    0    0    0  0.00000000000E+00  0.00000000000E+00  0.10000000000E+04  0.10000000000E+04  0.00000000000E+00 0. -1.
          2   -1    0    0  501    0 -0.00000000000E+00 -0.00000000000E+00 -0.96653696808E+02  0.96653696808E+02  0.00000000000E+00 0. -1.
    9000006    2    1    2  501    0  0.00000000000E+00  0.00000000000E+00  0.90334630319E+03  0.10966536968E+04  0.62178355336E+03 0.  0.
         13    1    3    3    0    0  0.21193818557E+03 -0.13848265902E+03  0.76991857992E+03  0.81047508355E+03  0.00000000000E+00 0. -1.
          4    1    3    3  501    0 -0.21193818557E+03  0.13848265902E+03  0.13342772328E+03  0.28617861326E+03  0.00000000000E+00 0. -1.
<mgrwt>
<rscale>  0 0.62178355E+03</rscale>
<asrwt>0</asrwt>
<pdfrwt beam="1">0</pdfrwt>
<pdfrwt beam="2">  1        2 0.35146873E+00 0.62178355E+03</pdfrwt>
<totfact> 0.60218947E+00</totfact>
</mgrwt>
</event>
<event>
 5    1  0.2366700E-004  0.6625249E+03  0.7818608E-02  0.9783557E-01
         13   -1    0    0    0    0  0.00000000000E+00  0.00000000000E+00  0.10000000000E+04  0.10000000000E+04  0.00000000000E+00 0. -1.
          2   -1    0    0  501    0 -0.00000000000E+00 -0.00000000000E+00 -0.10973479634E+03  0.10973479634E+03  0.00000000000E+00 0. -1.
    9000006    2    1    2  501    0  0.00000000000E+00  0.00000000000E+00  0.89026520366E+03  0.11097347963E+04  0.66252485641E+03 0.  0.
         13    1    3    3    0    0 -0.22203533383E+03 -0.21776356153E+03  0.63621678199E+03  0.70816131770E+03  0.00000000000E+00 0. -1.
          2    1    3    3  501    0  0.22203533383E+03  0.21776356153E+03  0.25404842167E+03  0.40157347864E+03  0.00000000000E+00 0. -1.
<mgrwt>
<rscale>  0 0.66252486E+03</rscale>
<asrwt>0</asrwt>
<pdfrwt beam="1">0</pdfrwt>
<pdfrwt beam="2">  1        2 0.39903646E+00 0.66252486E+03</pdfrwt>
<totfact> 0.40121506E+00</totfact>
</mgrwt>
</event>
<event>
 5    1  0.2366700E-004  0.6505101E+03  0.7818608E-02  0.9805822E-01
         13   -1    0    0    0    0  0.00000000000E+00  0.00000000000E+00  0.10000000000E+04  0.10000000000E+04  0.00000000000E+00 0. -1.
          2   -1    0    0  501    0 -0.00000000000E+00 -0.00000000000E+00 -0.10579086032E+03  0.10579086032E+03  0.00000000000E+00 0. -1.
    9000006    2    1    2  501    0  0.00000000000E+00  0.00000000000E+00  0.89420913968E+03  0.11057908603E+04  0.65051013926E+03 0.  0.
         13    1    3    3    0    0 -0.72474141524E+02  0.31304760673E+03  0.36144068976E+03  0.48362245345E+03  0.00000000000E+00 0. -1.
          2    1    3    3  501    0  0.72474141524E+02 -0.31304760673E+03  0.53276844992E+03  0.62216840687E+03  0.00000000000E+00 0. -1.
<mgrwt>
<rscale>  0 0.65051014E+03</rscale>
<asrwt>0</asrwt>
<pdfrwt beam="1">0</pdfrwt>
<pdfrwt beam="2">  1        2 0.38469485E+00 0.65051014E+03</pdfrwt>
<totfact> 0.45416832E+00</totfact>
</mgrwt>
</event>
<event>
 5    1  0.2366700E-004  0.6919591E+03  0.7818608E-02  0.9731083E-01
         13   -1    0    0    0    0  0.00000000000E+00  0.00000000000E+00  0.10000000000E+04  0.10000000000E+04  0.00000000000E+00 0. -1.
          2   -1    0    0  501    0 -0.00000000000E+00 -0.00000000000E+00 -0.11970184011E+03  0.11970184011E+03  0.00000000000E+00 0. -1.
    9000006    2    1    2  501    0  0.00000000000E+00  0.00000000000E+00  0.88029815989E+03  0.11197018401E+04  0.69195907426E+03 0.  0.
         13    1    3    3    0    0  0.72310975169E+01 -0.30649983973E+03  0.69959751591E+03  0.76382663269E+03  0.00000000000E+00 0. -1.
          2    1    3    3  501    0 -0.72310975169E+01  0.30649983973E+03  0.18070064397E+03  0.35587520743E+03  0.00000000000E+00 0. -1.
<mgrwt>
<rscale>  0 0.69195907E+03</rscale>
<asrwt>0</asrwt>
<pdfrwt beam="1">0</pdfrwt>
<pdfrwt beam="2">  1        2 0.43528034E+00 0.69195907E+03</pdfrwt>
<totfact> 0.29114433E+00</totfact>
</mgrwt>
</event>
<event>
 5    1  0.2366700E-004  0.6382086E+03  0.7818608E-02  0.9829160E-01
         13   -1    0    0    0    0  0.00000000000E+00  0.00000000000E+00  0.10000000000E+04  0.10000000000E+04  0.00000000000E+00 0. -1.
          2   -1    0    0  501    0 -0.00000000000E+00 -0.00000000000E+00 -0.10182754785E+03  0.10182754785E+03  0.00000000000E+00 0. -1.
    9000006    2    1    2  501    0  0.00000000000E+00  0.00000000000E+00  0.89817245215E+03  0.11018275479E+04  0.63820857987E+03 0.  0.
         13    1    3    3    0    0 -0.24855739587E+03 -0.19557413018E+03  0.37588996953E+03  0.49124666781E+03  0.00000000000E+00 0. -1.
          2    1    3    3  501    0  0.24855739587E+03  0.19557413018E+03  0.52228248261E+03  0.61058088005E+03  0.00000000000E+00 0. -1.
<mgrwt>
<rscale>  0 0.63820858E+03</rscale>
<asrwt>0</asrwt>
<pdfrwt beam="1">0</pdfrwt>
<pdfrwt beam="2">  1        2 0.37028277E+00 0.63820858E+03</pdfrwt>
<totfact> 0.51369680E+00</totfact>
</mgrwt>
</event>
<event>
 5    1  0.2366700E-004  0.6381091E+03  0.7818608E-02  0.9829351E-01
         13   -1    0    0    0    0  0.00000000000E+00  0.00000000000E+00  0.10000000000E+04  0.10000000000E+04  0.00000000000E+00 0. -1.
          2   -1    0    0  501    0 -0.00000000000E+00 -0.00000000000E+00 -0.10179581242E+03  0.10179581242E+03  0.00000000000E+00 0. -1.
    9000006    2    1    2  501    0  0.00000000000E+00  0.00000000000E+00  0.89820418758E+03  0.11017958124E+04  0.63810912053E+03 0.  0.
         13    1    3    3    0    0  0.20030627493E+03 -0.50515054802E+02  0.86893711133E+03  0.89315512538E+03  0.00000000000E+00 0. -1.
          2    1    3    3  501    0 -0.20030627493E+03  0.50515054802E+02  0.29267076242E+02  0.20864068705E+03  0.00000000000E+00 0. -1.
<mgrwt>
<rscale>  0 0.63810912E+03</rscale>
<asrwt>0</asrwt>
<pdfrwt beam="1">0</pdfrwt>
<pdfrwt beam="2">  1        2 0.37016737E+00 0.63810912E+03</pdfrwt>
<totfact> 0.51420098E+00</totfact>
</mgrwt>
</event>
<event>
 5    1  0.2366700E-004  0.6479942E+03  0.7818608E-02  0.9810550E-01
         13   -1    0    0    0    0  0.00000000000E+00  0.00000000000E+00  0.10000000000E+04  0.10000000000E+04  0.00000000000E+00 0. -1.
          2   -1    0    0  501    0 -0.00000000000E+00 -0.00000000000E+00 -0.10497412078E+03  0.10497412078E+03  0.00000000000E+00 0. -1.
    9000006    2    1    2  501    0  0.00000000000E+00  0.00000000000E+00  0.89502587922E+03  0.11049741208E+04  0.64799419992E+03 0.  0.
         13    1    3    3    0    0 -0.23977267544E+03  0.37284689178E+02  0.81361202964E+03  0.84902627681E+03  0.00000000000E+00 0. -1.
          2    1    3    3  501    0  0.23977267544E+03 -0.37284689178E+02  0.81413849571E+02  0.25594784397E+03  0.00000000000E+00 0. -1.
<mgrwt>
<rscale>  0 0.64799420E+03</rscale>
<asrwt>0</asrwt>
<pdfrwt beam="1">0</pdfrwt>
<pdfrwt beam="2">  1        2 0.38172488E+00 0.64799420E+03</pdfrwt>
<totfact> 0.46589453E+00</totfact>
</mgrwt>
</event>
<event>
 5    1  0.2366700E-004  0.6435034E+03  0.7818608E-02  0.9819047E-01
         13   -1    0    0    0    0  0.00000000000E+00  0.00000000000E+00  0.10000000000E+04  0.10000000000E+04  0.00000000000E+00 0. -1.
          2   -1    0    0  501    0 -0.00000000000E+00 -0.00000000000E+00 -0.10352414110E+03  0.10352414110E+03  0.00000000000E+00 0. -1.
    9000006    2    1    2  501    0  0.00000000000E+00  0.00000000000E+00  0.89647585890E+03  0.11035241411E+04  0.64350335228E+03 0.  0.
         13    1    3    3    0    0 -0.64066879003E+01 -0.68961990482E+02 -0.90589556452E+02  0.11403187940E+03  0.00000000000E+00 0. -1.
          4    1    3    3  501    0  0.64066879003E+01  0.68961990482E+02  0.98706541535E+03  0.98949226170E+03  0.00000000000E+00 0. -1.
<mgrwt>
<rscale>  0 0.64350335E+03</rscale>
<asrwt>0</asrwt>
<pdfrwt beam="1">0</pdfrwt>
<pdfrwt beam="2">  1        2 0.37645222E+00 0.64350335E+03</pdfrwt>
<totfact> 0.48739279E+00</totfact>
</mgrwt>
</event>
<event>
 5    1  0.2366700E-004  0.6304439E+03  0.7818608E-02  0.9844183E-01
         13   -1    0    0    0    0  0.00000000000E+00  0.00000000000E+00  0.10000000000E+04  0.10000000000E+04  0.00000000000E+00 0. -1.
          2   -1    0    0  501    0 -0.00000000000E+00 -0.00000000000E+00 -0.99364888396E+02  0.99364888396E+02  0.00000000000E+00 0. -1.
    9000006    2    1    2  501    0  0.00000000000E+00  0.00000000000E+00  0.90063511160E+03  0.10993648884E+04  0.63044393374E+03 0.  0.
         13    1    3    3    0    0 -0.25076709152E+03 -0.18722173017E+03  0.38440354133E+03  0.49568356139E+03  0.00000000000E+00 0. -1.
          2    1    3    3  501    0  0.25076709152E+03  0.18722173017E+03  0.51623157027E+03  0.60368132701E+03  0.00000000000E+00 0. -1.
<mgrwt>
<rscale>  0 0.63044393E+03</rscale>
<asrwt>0</asrwt>
<pdfrwt beam="1">0</pdfrwt>
<pdfrwt beam="2">  1        2 0.36132763E+00 0.63044393E+03</pdfrwt>
<totfact> 0.55419997E+00</totfact>
</mgrwt>
</event>
<event>
 5    1  0.2366700E-004  0.6448619E+03  0.7818608E-02  0.9816469E-01
         13   -1    0    0    0    0  0.00000000000E+00  0.00000000000E+00  0.10000000000E+04  0.10000000000E+04  0.00000000000E+00 0. -1.
          2   -1    0    0  501    0 -0.00000000000E+00 -0.00000000000E+00 -0.10396170651E+03  0.10396170651E+03  0.00000000000E+00 0. -1.
    9000006    2    1    2  501    0  0.00000000000E+00  0.00000000000E+00  0.89603829349E+03  0.11039617065E+04  0.64486186586E+03 0.  0.
         13    1    3    3    0    0 -0.99044905086E+02  0.25021549542E+03  0.14396857293E+03  0.30519606381E+03  0.00000000000E+00 0. -1.
          2    1    3    3  501    0  0.99044905086E+02 -0.25021549542E+03  0.75206972057E+03  0.79876564270E+03  0.00000000000E+00 0. -1.
<mgrwt>
<rscale>  0 0.64486187E+03</rscale>
<asrwt>0</asrwt>
<pdfrwt beam="1">0</pdfrwt>
<pdfrwt beam="2">  1        2 0.37804337E+00 0.64486187E+03</pdfrwt>
<totfact> 0.48081189E+00</totfact>
</mgrwt>
</event>
<event>
 5    1  0.2366700E-004  0.6493693E+03  0.7818608E-02  0.9807963E-01
         13   -1    0    0    0    0  0.00000000000E+00  0.00000000000E+00  0.10000000000E+04  0.10000000000E+04  0.00000000000E+00 0. -1.
          2   -1    0    0  501    0 -0.00000000000E+00 -0.00000000000E+00 -0.10542012171E+03  0.10542012171E+03  0.00000000000E+00 0. -1.
    9000006    2    1    2  501    0  0.00000000000E+00  0.00000000000E+00  0.89457987829E+03  0.11054201217E+04  0.64936929928E+03 0.  0.
         13    1    3    3    0    0  0.19468613832E+03 -0.16474780199E+03  0.10523563505E+03  0.27589684594E+03  0.00000000000E+00 0. -1.
          4    1    3    3  501    0 -0.19468613832E+03  0.16474780199E+03  0.78934424324E+03  0.82952327577E+03  0.00000000000E+00 0. -1.
<mgrwt>
<rscale>  0 0.64936930E+03</rscale>
<asrwt>0</asrwt>
<pdfrwt beam="1">0</pdfrwt>
<pdfrwt beam="2">  1        2 0.38334671E+00 0.64936930E+03</pdfrwt>
<totfact> 0.45945752E+00</totfact>
</mgrwt>
</event>
<event>
 5    1  0.2366700E-004  0.6026923E+03  0.7818608E-02  0.9899836E-01
         13   -1    0    0    0    0  0.00000000000E+00  0.00000000000E+00  0.10000000000E+04  0.10000000000E+04  0.00000000000E+00 0. -1.
          2   -1    0    0  501    0 -0.00000000000E+00 -0.00000000000E+00 -0.90809501893E+02  0.90809501893E+02  0.00000000000E+00 0. -1.
    9000006    2    1    2  501    0  0.00000000000E+00  0.00000000000E+00  0.90919049811E+03  0.10908095019E+04  0.60269229925E+03 0.  0.
         13    1    3    3    0    0 -0.14426601404E+03 -0.20992945424E+03  0.74601886424E+03  0.78830654213E+03  0.00000000000E+00 0. -1.
          2    1    3    3  501    0  0.14426601404E+03  0.20992945424E+03  0.16317163386E+03  0.30250295976E+03  0.00000000000E+00 0. -1.
<mgrwt>
<rscale>  0 0.60269230E+03</rscale>
<asrwt>0</asrwt>
<pdfrwt beam="1">0</pdfrwt>
<pdfrwt beam="2">  1        2 0.33021707E+00 0.60269230E+03</pdfrwt>
<totfact> 0.71913601E+00</totfact>
</mgrwt>
</event>
<event>
 5    1  0.2366700E-004  0.6551490E+03  0.7818608E-02  0.9797165E-01
         13   -1    0    0    0    0  0.00000000000E+00  0.00000000000E+00  0.10000000000E+04  0.10000000000E+04  0.00000000000E+00 0. -1.
          2   -1    0    0  501    0 -0.00000000000E+00 -0.00000000000E+00 -0.10730505275E+03  0.10730505275E+03  0.00000000000E+00 0. -1.
    9000006    2    1    2  501    0  0.00000000000E+00  0.00000000000E+00  0.89269494725E+03  0.11073050528E+04  0.65514899909E+03 0.  0.
         13    1    3    3    0    0  0.35659780840E+02 -0.29663284567E+03  0.67337274560E+03  0.73667735110E+03  0.00000000000E+00 0. -1.
          4    1    3    3  501    0 -0.35659780840E+02  0.29663284567E+03  0.21932220164E+03  0.37062770165E+03  0.00000000000E+00 0. -1.
<mgrwt>
<rscale>  0 0.65514900E+03</rscale>
<asrwt>0</asrwt>
<pdfrwt beam="1">0</pdfrwt>
<pdfrwt beam="2">  1        2 0.39020101E+00 0.65514900E+03</pdfrwt>
<totfact> 0.43313379E+00</totfact>
</mgrwt>
</event>
<event>
 5    1  0.2366700E-004  0.6985058E+03  0.7818608E-02  0.9719791E-01
         13   -1    0    0    0    0  0.00000000000E+00  0.00000000000E+00  0.10000000000E+04  0.10000000000E+04  0.00000000000E+00 0. -1.
          2   -1    0    0  501    0 -0.00000000000E+00 -0.00000000000E+00 -0.12197759662E+03  0.12197759662E+03  0.00000000000E+00 0. -1.
    9000006    2    1    2  501    0  0.00000000000E+00  0.00000000000E+00  0.87802240338E+03  0.11219775966E+04  0.69850582422E+03 0.  0.
         13    1    3    3    0    0  0.25477977979E+03 -0.19849586562E+03  0.22552894924E+03  0.39392467783E+03  0.00000000000E+00 0. -1.
          4    1    3    3  501    0 -0.25477977979E+03  0.19849586562E+03  0.65249345414E+03  0.72805291879E+03  0.00000000000E+00 0. -1.
<mgrwt>
<rscale>  0 0.69850582E+03</rscale>
<asrwt>0</asrwt>
<pdfrwt beam="1">0</pdfrwt>
<pdfrwt beam="2">  1        2 0.44355583E+00 0.69850582E+03</pdfrwt>
<totfact> 0.27013120E+00</totfact>
</mgrwt>
</event>
<event>
 5    1  0.2366700E-004  0.5304620E+03  0.7818608E-02  0.1006120E+00
         13   -1    0    0    0    0  0.00000000000E+00  0.00000000000E+00  0.10000000000E+04  0.10000000000E+04  0.00000000000E+00 0. -1.
          2   -1    0    0  501    0 -0.00000000000E+00 -0.00000000000E+00 -0.70347484273E+02  0.70347484273E+02  0.00000000000E+00 0. -1.
    9000006    2    1    2  501    0  0.00000000000E+00  0.00000000000E+00  0.92965251573E+03  0.10703474843E+04  0.53046200344E+03 0.  0.
         13    1    3    3    0    0 -0.26234255102E+03 -0.34339866177E+02  0.50228521986E+03  0.56770880086E+03  0.00000000000E+00 0. -1.
          4    1    3    3  501    0  0.26234255102E+03  0.34339866177E+02  0.42736729587E+03  0.50263868341E+03  0.00000000000E+00 0. -1.
<mgrwt>
<rscale>  0 0.53046200E+03</rscale>
<asrwt>0</asrwt>
<pdfrwt beam="1">0</pdfrwt>
<pdfrwt beam="2">  1        2 0.25580957E+00 0.53046200E+03</pdfrwt>
<totfact> 0.13285546E+01</totfact>
</mgrwt>
</event>
<event>
 5    1  0.2366700E-004  0.6557426E+03  0.7818608E-02  0.9796063E-01
         13   -1    0    0    0    0  0.00000000000E+00  0.00000000000E+00  0.10000000000E+04  0.10000000000E+04  0.00000000000E+00 0. -1.
          2   -1    0    0  501    0 -0.00000000000E+00 -0.00000000000E+00 -0.10749959226E+03  0.10749959226E+03  0.00000000000E+00 0. -1.
    9000006    2    1    2  501    0  0.00000000000E+00  0.00000000000E+00  0.89250040774E+03  0.11074995923E+04  0.65574260883E+03 0.  0.
         13    1    3    3    0    0 -0.27842221345E+03 -0.16459232886E+03  0.35545534857E+03  0.48058096975E+03  0.00000000000E+00 0. -1.
          4    1    3    3  501    0  0.27842221345E+03  0.16459232886E+03  0.53704505917E+03  0.62691862251E+03  0.00000000000E+00 0. -1.
<mgrwt>
<rscale>  0 0.65574261E+03</rscale>
<asrwt>0</asrwt>
<pdfrwt beam="1">0</pdfrwt>
<pdfrwt beam="2">  1        2 0.39090843E+00 0.65574261E+03</pdfrwt>
<totfact> 0.43049621E+00</totfact>
</mgrwt>
</event>
<event>
 5    1  0.2366700E-004  0.6722638E+03  0.7818608E-02  0.9765877E-01
         13   -1    0    0    0    0  0.00000000000E+00  0.00000000000E+00  0.10000000000E+04  0.10000000000E+04  0.00000000000E+00 0. -1.
          2   -1    0    0  501    0 -0.00000000000E+00 -0.00000000000E+00 -0.11298464915E+03  0.11298464915E+03  0.00000000000E+00 0. -1.
    9000006    2    1    2  501    0  0.00000000000E+00  0.00000000000E+00  0.88701535085E+03  0.11129846492E+04  0.67226378499E+03 0.  0.
         13    1    3    3    0    0 -0.33210975167E+03 -0.31287896316E+02  0.37506943581E+03  0.50194910229E+03  0.00000000000E+00 0. -1.
          2    1    3    3  501    0  0.33210975167E+03  0.31287896316E+02  0.51194591504E+03  0.61103554687E+03  0.00000000000E+00 0. -1.
<mgrwt>
<rscale>  0 0.67226378E+03</rscale>
<asrwt>0</asrwt>
<pdfrwt beam="1">0</pdfrwt>
<pdfrwt beam="2">  1        2 0.41085414E+00 0.67226378E+03</pdfrwt>
<totfact> 0.36182862E+00</totfact>
</mgrwt>
</event>
<event>
 5    1  0.2366700E-004  0.6607822E+03  0.7818608E-02  0.9786755E-01
         13   -1    0    0    0    0  0.00000000000E+00  0.00000000000E+00  0.10000000000E+04  0.10000000000E+04  0.00000000000E+00 0. -1.
          2   -1    0    0  501    0 -0.00000000000E+00 -0.00000000000E+00 -0.10915828252E+03  0.10915828252E+03  0.00000000000E+00 0. -1.
    9000006    2    1    2  501    0  0.00000000000E+00  0.00000000000E+00  0.89084171748E+03  0.11091582825E+04  0.66078221077E+03 0.  0.
         13    1    3    3    0    0  0.11687543849E+03 -0.12668224247E+02 -0.72863430409E+02  0.13830918812E+03  0.00000000000E+00 0. -1.
          4    1    3    3  501    0 -0.11687543849E+03  0.12668224247E+02  0.96370514789E+03  0.97084909440E+03  0.00000000000E+00 0. -1.
<mgrwt>
<rscale>  0 0.66078221E+03</rscale>
<asrwt>0</asrwt>
<pdfrwt beam="1">0</pdfrwt>
<pdfrwt beam="2">  1        2 0.39694005E+00 0.66078221E+03</pdfrwt>
<totfact> 0.40859021E+00</totfact>
</mgrwt>
</event>
<event>
 5    1  0.2366700E-004  0.6496959E+03  0.7818608E-02  0.9807350E-01
         13   -1    0    0    0    0  0.00000000000E+00  0.00000000000E+00  0.10000000000E+04  0.10000000000E+04  0.00000000000E+00 0. -1.
          2   -1    0    0  501    0 -0.00000000000E+00 -0.00000000000E+00 -0.10552620495E+03  0.10552620495E+03  0.00000000000E+00 0. -1.
    9000006    2    1    2  501    0  0.00000000000E+00  0.00000000000E+00  0.89447379505E+03  0.11055262050E+04  0.64969594412E+03 0.  0.
         13    1    3    3    0    0 -0.29955351726E+03  0.11345119803E+03  0.53922942679E+03  0.62719363736E+03  0.00000000000E+00 0. -1.
          4    1    3    3  501    0  0.29955351726E+03 -0.11345119803E+03  0.35524436826E+03  0.47833256759E+03  0.00000000000E+00 0. -1.
<mgrwt>
<rscale>  0 0.64969594E+03</rscale>
<asrwt>0</asrwt>
<pdfrwt beam="1">0</pdfrwt>
<pdfrwt beam="2">  1        2 0.38373246E+00 0.64969594E+03</pdfrwt>
<totfact> 0.45793839E+00</totfact>
</mgrwt>
</event>
<event>
 5    1  0.2366700E-004  0.6484485E+03  0.7818608E-02  0.9809695E-01
         13   -1    0    0    0    0  0.00000000000E+00  0.00000000000E+00  0.10000000000E+04  0.10000000000E+04  0.00000000000E+00 0. -1.
          2   -1    0    0  501    0 -0.00000000000E+00 -0.00000000000E+00 -0.10512134982E+03  0.10512134982E+03  0.00000000000E+00 0. -1.
    9000006    2    1    2  501    0  0.00000000000E+00  0.00000000000E+00  0.89487865018E+03  0.11051213498E+04  0.64844845539E+03 0.  0.
         13    1    3    3    0    0 -0.12697065638E+03  0.17691241426E+03  0.85682174544E+03  0.88406054846E+03  0.00000000000E+00 0. -1.
          4    1    3    3  501    0  0.12697065638E+03 -0.17691241426E+03  0.38056904741E+02  0.22106080136E+03  0.00000000000E+00 0. -1.
<mgrwt>
<rscale>  0 0.64844846E+03</rscale>
<asrwt>0</asrwt>
<pdfrwt beam="1">0</pdfrwt>
<pdfrwt beam="2">  1        2 0.38226026E+00 0.64844846E+03</pdfrwt>
<totfact> 0.46376061E+00</totfact>
</mgrwt>
</event>
<event>
 5    1  0.2366700E-004  0.6538080E+03  0.7818608E-02  0.9799660E-01
         13   -1    0    0    0    0  0.00000000000E+00  0.00000000000E+00  0.10000000000E+04  0.10000000000E+04  0.00000000000E+00 0. -1.
          2   -1    0    0  501    0 -0.00000000000E+00 -0.00000000000E+00 -0.10686622147E+03  0.10686622147E+03  0.00000000000E+00 0. -1.
    9000006    2    1    2  501    0  0.00000000000E+00  0.00000000000E+00  0.89313377853E+03  0.11068662215E+04  0.65380798855E+03 0.  0.
         13    1    3    3    0    0  0.24297526666E+03  0.10042522003E+03  0.11766303117E+03  0.28803957008E+03  0.00000000000E+00 0. -1.
          2    1    3    3  501    0 -0.24297526666E+03 -0.10042522003E+03  0.77547074735E+03  0.81882665139E+03  0.00000000000E+00 0. -1.
<mgrwt>
<rscale>  0 0.65380799E+03</rscale>
<asrwt>0</asrwt>
<pdfrwt beam="1">0</pdfrwt>
<pdfrwt beam="2">  1        2 0.38860526E+00 0.65380799E+03</pdfrwt>
<totfact> 0.43913720E+00</totfact>
</mgrwt>
</event>
<event>
 5    1  0.2366700E-004  0.6458430E+03  0.7818608E-02  0.9814611E-01
         13   -1    0    0    0    0  0.00000000000E+00  0.00000000000E+00  0.10000000000E+04  0.10000000000E+04  0.00000000000E+00 0. -1.
          2   -1    0    0  501    0 -0.00000000000E+00 -0.00000000000E+00 -0.10427830742E+03  0.10427830742E+03  0.00000000000E+00 0. -1.
    9000006    2    1    2  501    0  0.00000000000E+00  0.00000000000E+00  0.89572169258E+03  0.11042783074E+04  0.64584303797E+03 0.  0.
         13    1    3    3    0    0  0.13976271680E+03 -0.13501893525E+03  0.68898994768E+01  0.19445102365E+03  0.00000000000E+00 0. -1.
          2    1    3    3  501    0 -0.13976271680E+03  0.13501893525E+03  0.88883179310E+03  0.90982728378E+03  0.00000000000E+00 0. -1.
<mgrwt>
<rscale>  0 0.64584304E+03</rscale>
<asrwt>0</asrwt>
<pdfrwt beam="1">0</pdfrwt>
<pdfrwt beam="2">  1        2 0.37919464E+00 0.64584304E+03</pdfrwt>
<totfact> 0.47610089E+00</totfact>
</mgrwt>
</event>
<event>
 5    1  0.2366700E-004  0.7108583E+03  0.7818608E-02  0.9698841E-01
         13   -1    0    0    0    0  0.00000000000E+00  0.00000000000E+00  0.10000000000E+04  0.10000000000E+04  0.00000000000E+00 0. -1.
          2   -1    0    0  501    0 -0.00000000000E+00 -0.00000000000E+00 -0.12632987372E+03  0.12632987372E+03  0.00000000000E+00 0. -1.
    9000006    2    1    2  501    0  0.00000000000E+00  0.00000000000E+00  0.87367012628E+03  0.11263298737E+04  0.71085828043E+03 0.  0.
         13    1    3    3    0    0 -0.86294965911E+02 -0.66869364171E+02  0.97277669395E+03  0.97888346053E+03  0.00000000000E+00 0. -1.
          4    1    3    3  501    0  0.86294965911E+02  0.66869364171E+02 -0.99106567667E+02  0.14744641318E+03  0.00000000000E+00 0. -1.
<mgrwt>
<rscale>  0 0.71085828E+03</rscale>
<asrwt>0</asrwt>
<pdfrwt beam="1">0</pdfrwt>
<pdfrwt beam="2">  1        2 0.45938233E+00 0.71085828E+03</pdfrwt>
<totfact> 0.23361276E+00</totfact>
</mgrwt>
</event>
<event>
 5    1  0.2366700E-004  0.6473764E+03  0.7818608E-02  0.9811715E-01
         13   -1    0    0    0    0  0.00000000000E+00  0.00000000000E+00  0.10000000000E+04  0.10000000000E+04  0.00000000000E+00 0. -1.
          2   -1    0    0  501    0 -0.00000000000E+00 -0.00000000000E+00 -0.10477406149E+03  0.10477406149E+03  0.00000000000E+00 0. -1.
    9000006    2    1    2  501    0  0.00000000000E+00  0.00000000000E+00  0.89522593851E+03  0.11047740615E+04  0.64737643296E+03 0.  0.
         13    1    3    3    0    0 -0.26762959345E+03  0.34675906974E+02  0.75263072709E+03  0.79955051696E+03  0.00000000000E+00 0. -1.
          4    1    3    3  501    0  0.26762959345E+03 -0.34675906974E+02  0.14259521142E+03  0.30522354453E+03  0.00000000000E+00 0. -1.
<mgrwt>
<rscale>  0 0.64737643E+03</rscale>
<asrwt>0</asrwt>
<pdfrwt beam="1">0</pdfrwt>
<pdfrwt beam="2">  1        2 0.38099739E+00 0.64737643E+03</pdfrwt>
<totfact> 0.46880847E+00</totfact>
</mgrwt>
</event>
<event>
 5    1  0.2366700E-004  0.5766364E+03  0.7818608E-02  0.9955100E-01
         13   -1    0    0    0    0  0.00000000000E+00  0.00000000000E+00  0.10000000000E+04  0.10000000000E+04  0.00000000000E+00 0. -1.
          2   -1    0    0  501    0 -0.00000000000E+00 -0.00000000000E+00 -0.83127389230E+02  0.83127389230E+02  0.00000000000E+00 0. -1.
    9000006    2    1    2  501    0  0.00000000000E+00  0.00000000000E+00  0.91687261077E+03  0.10831273892E+04  0.57663641657E+03 0.  0.
         13    1    3    3    0    0  0.27127345104E+03 -0.74904187074E+02  0.34072078407E+03  0.44191693244E+03  0.00000000000E+00 0. -1.
          4    1    3    3  501    0 -0.27127345104E+03  0.74904187074E+02  0.57615182670E+03  0.64121045679E+03  0.00000000000E+00 0. -1.
<mgrwt>
<rscale>  0 0.57663642E+03</rscale>
<asrwt>0</asrwt>
<pdfrwt beam="1">0</pdfrwt>
<pdfrwt beam="2">  1        2 0.30228205E+00 0.57663642E+03</pdfrwt>
<totfact> 0.90607736E+00</totfact>
</mgrwt>
</event>
<event>
 5    1  0.2366700E-004  0.6451143E+03  0.7818608E-02  0.9815990E-01
         13   -1    0    0    0    0  0.00000000000E+00  0.00000000000E+00  0.10000000000E+04  0.10000000000E+04  0.00000000000E+00 0. -1.
          2   -1    0    0  501    0 -0.00000000000E+00 -0.00000000000E+00 -0.10404312685E+03  0.10404312685E+03  0.00000000000E+00 0. -1.
    9000006    2    1    2  501    0  0.00000000000E+00  0.00000000000E+00  0.89595687315E+03  0.11040431268E+04  0.64511433668E+03 0.  0.
         13    1    3    3    0    0  0.23662871610E+03  0.10514073950E+03  0.11880618128E+03  0.28489056336E+03  0.00000000000E+00 0. -1.
          4    1    3    3  501    0 -0.23662871610E+03 -0.10514073950E+03  0.77715069187E+03  0.81915256348E+03  0.00000000000E+00 0. -1.
<mgrwt>
<rscale>  0 0.64511434E+03</rscale>
<asrwt>0</asrwt>
<pdfrwt beam="1">0</pdfrwt>
<pdfrwt beam="2">  1        2 0.37833944E+00 0.64511434E+03</pdfrwt>
<totfact> 0.47959632E+00</totfact>
</mgrwt>
</event>
<event>
 5    1  0.2366700E-004  0.6533024E+03  0.7818608E-02  0.9800602E-01
         13   -1    0    0    0    0  0.00000000000E+00  0.00000000000E+00  0.10000000000E+04  0.10000000000E+04  0.00000000000E+00 0. -1.
          2   -1    0    0  501    0 -0.00000000000E+00 -0.00000000000E+00 -0.10670099613E+03  0.10670099613E+03  0.00000000000E+00 0. -1.
    9000006    2    1    2  501    0  0.00000000000E+00  0.00000000000E+00  0.89329900387E+03  0.11067009961E+04  0.65330236836E+03 0.  0.
         13    1    3    3    0    0  0.12707443355E+03 -0.29029302711E+03  0.31237267189E+03  0.44496588565E+03  0.00000000000E+00 0. -1.
          2    1    3    3  501    0 -0.12707443355E+03  0.29029302711E+03  0.58092633198E+03  0.66173511048E+03  0.00000000000E+00 0. -1.
<mgrwt>
<rscale>  0 0.65330237E+03</rscale>
<asrwt>0</asrwt>
<pdfrwt beam="1">0</pdfrwt>
<pdfrwt beam="2">  1        2 0.38800444E+00 0.65330237E+03</pdfrwt>
<totfact> 0.44141699E+00</totfact>
</mgrwt>
</event>
<event>
 5    1  0.2366700E-004  0.6452121E+03  0.7818608E-02  0.9815805E-01
         13   -1    0    0    0    0  0.00000000000E+00  0.00000000000E+00  0.10000000000E+04  0.10000000000E+04  0.00000000000E+00 0. -1.
          2   -1    0    0  501    0 -0.00000000000E+00 -0.00000000000E+00 -0.10407464805E+03  0.10407464805E+03  0.00000000000E+00 0. -1.
    9000006    2    1    2  501    0  0.00000000000E+00  0.00000000000E+00  0.89592535195E+03  0.11040746481E+04  0.64521205213E+03 0.  0.
         13    1    3    3    0    0 -0.22467638423E+03  0.46243516077E+02  0.83612820398E+03  0.86702267208E+03  0.00000000000E+00 0. -1.
          4    1    3    3  501    0  0.22467638423E+03 -0.46243516077E+02  0.59797147966E+02  0.23705197597E+03  0.00000000000E+00 0. -1.
<mgrwt>
<rscale>  0 0.64521205E+03</rscale>
<asrwt>0</asrwt>
<pdfrwt beam="1">0</pdfrwt>
<pdfrwt beam="2">  1        2 0.37845406E+00 0.64521205E+03</pdfrwt>
<totfact> 0.47912647E+00</totfact>
</mgrwt>
</event>
<event>
 5    1  0.2366700E-004  0.6506304E+03  0.7818608E-02  0.9805597E-01
         13   -1    0    0    0    0  0.00000000000E+00  0.00000000000E+00  0.10000000000E+04  0.10000000000E+04  0.00000000000E+00 0. -1.
          2   -1    0    0  501    0 -0.00000000000E+00 -0.00000000000E+00 -0.10582996873E+03  0.10582996873E+03  0.00000000000E+00 0. -1.
    9000006    2    1    2  501    0  0.00000000000E+00  0.00000000000E+00  0.89417003127E+03  0.11058299687E+04  0.65063036736E+03 0.  0.
         13    1    3    3    0    0 -0.22541686666E+02  0.27358121971E+03  0.74379147696E+03  0.79283073390E+03  0.00000000000E+00 0. -1.
          4    1    3    3  501    0  0.22541686666E+02 -0.27358121971E+03  0.15037855430E+03  0.31299923484E+03  0.00000000000E+00 0. -1.
<mgrwt>
<rscale>  0 0.65063037E+03</rscale>
<asrwt>0</asrwt>
<pdfrwt beam="1">0</pdfrwt>
<pdfrwt beam="2">  1        2 0.38483706E+00 0.65063037E+03</pdfrwt>
<totfact> 0.45361361E+00</totfact>
</mgrwt>
</event>
<event>
 5    1  0.2366700E-004  0.6393952E+03  0.7818608E-02  0.9826884E-01
         13   -1    0    0    0    0  0.00000000000E+00  0.00000000000E+00  0.10000000000E+04  0.10000000000E+04  0.00000000000E+00 0. -1.
          2   -1    0    0  501    0 -0.00000000000E+00 -0.00000000000E+00 -0.10220654204E+03  0.10220654204E+03  0.00000000000E+00 0. -1.
    9000006    2    1    2  501    0  0.00000000000E+00  0.00000000000E+00  0.89779345796E+03  0.11022065420E+04  0.63939515807E+03 0.  0.
         13    1    3    3    0    0  0.19949531868E+03 -0.21018123432E+03  0.21613536163E+03  0.36150937468E+03  0.00000000000E+00 0. -1.
          4    1    3    3  501    0 -0.19949531868E+03  0.21018123432E+03  0.68165809633E+03  0.74069716736E+03  0.00000000000E+00 0. -1.
<mgrwt>
<rscale>  0 0.63939516E+03</rscale>
<asrwt>0</asrwt>
<pdfrwt beam="1">0</pdfrwt>
<pdfrwt beam="2">  1        2 0.37166094E+00 0.63939516E+03</pdfrwt>
<totfact> 0.50771064E+00</totfact>
</mgrwt>
</event>
<event>
 5    1  0.2366700E-004  0.6539175E+03  0.7818608E-02  0.9799456E-01
         13   -1    0    0    0    0  0.00000000000E+00  0.00000000000E+00  0.10000000000E+04  0.10000000000E+04  0.00000000000E+00 0. -1.
          2   -1    0    0  501    0 -0.00000000000E+00 -0.00000000000E+00 -0.10690203458E+03  0.10690203458E+03  0.00000000000E+00 0. -1.
    9000006    2    1    2  501    0  0.00000000000E+00  0.00000000000E+00  0.89309796542E+03  0.11069020346E+04  0.65391753175E+03 0.  0.
         13    1    3    3    0    0  0.56676488874E+02  0.16105148251E+03 -0.25451705647E+02  0.17261979531E+03  0.00000000000E+00 0. -1.
          4    1    3    3  501    0 -0.56676488874E+02 -0.16105148251E+03  0.91854967107E+03  0.93428223928E+03  0.00000000000E+00 0. -1.
<mgrwt>
<rscale>  0 0.65391753E+03</rscale>
<asrwt>0</asrwt>
<pdfrwt beam="1">0</pdfrwt>
<pdfrwt beam="2">  1        2 0.38873549E+00 0.65391753E+03</pdfrwt>
<totfact> 0.43864446E+00</totfact>
</mgrwt>
</event>
<event>
 5    1  0.2366700E-004  0.6678913E+03  0.7818608E-02  0.9773775E-01
         13   -1    0    0    0    0  0.00000000000E+00  0.00000000000E+00  0.10000000000E+04  0.10000000000E+04  0.00000000000E+00 0. -1.
          2   -1    0    0  501    0 -0.00000000000E+00 -0.00000000000E+00 -0.11151969041E+03  0.11151969041E+03  0.00000000000E+00 0. -1.
    9000006    2    1    2  501    0  0.00000000000E+00  0.00000000000E+00  0.88848030959E+03  0.11115196904E+04  0.66789127981E+03 0.  0.
         13    1    3    3    0    0 -0.22636212750E+03 -0.23679253828E+03  0.33626851528E+03  0.46945397359E+03  0.00000000000E+00 0. -1.
          2    1    3    3  501    0  0.22636212750E+03  0.23679253828E+03  0.55221179431E+03  0.64206571682E+03  0.00000000000E+00 0. -1.
<mgrwt>
<rscale>  0 0.66789128E+03</rscale>
<asrwt>0</asrwt>
<pdfrwt beam="1">0</pdfrwt>
<pdfrwt beam="2">  1        2 0.40552700E+00 0.66789128E+03</pdfrwt>
<totfact> 0.37913294E+00</totfact>
</mgrwt>
</event>
<event>
 5    1  0.2366700E-004  0.6542869E+03  0.7818608E-02  0.9798768E-01
         13   -1    0    0    0    0  0.00000000000E+00  0.00000000000E+00  0.10000000000E+04  0.10000000000E+04  0.00000000000E+00 0. -1.
          2   -1    0    0  501    0 -0.00000000000E+00 -0.00000000000E+00 -0.10702283060E+03  0.10702283060E+03  0.00000000000E+00 0. -1.
    9000006    2    1    2  501    0  0.00000000000E+00  0.00000000000E+00  0.89297716940E+03  0.11070228306E+04  0.65428688081E+03 0.  0.
         13    1    3    3    0    0 -0.10326125760E+03 -0.17583003426E+03  0.87932364131E+03  0.90265672015E+03  0.00000000000E+00 0. -1.
          2    1    3    3  501    0  0.10326125760E+03  0.17583003426E+03  0.13653528088E+02  0.20436611045E+03  0.00000000000E+00 0. -1.
<mgrwt>
<rscale>  0 0.65428688E+03</rscale>
<asrwt>0</asrwt>
<pdfrwt beam="1">0</pdfrwt>
<pdfrwt beam="2">  1        2 0.38917475E+00 0.65428688E+03</pdfrwt>
<totfact> 0.43698614E+00</totfact>
</mgrwt>
</event>
<event>
 5    1  0.2366700E-004  0.6522371E+03  0.7818608E-02  0.9802590E-01
         13   -1    0    0    0    0  0.00000000000E+00  0.00000000000E+00  0.10000000000E+04  0.10000000000E+04  0.00000000000E+00 0. -1.
          2   -1    0    0  501    0 -0.00000000000E+00 -0.00000000000E+00 -0.10635331864E+03  0.10635331864E+03  0.00000000000E+00 0. -1.
    9000006    2    1    2  501    0  0.00000000000E+00  0.00000000000E+00  0.89364668136E+03  0.11063533186E+04  0.65223713061E+03 0.  0.
         13    1    3    3    0    0 -0.21935614448E+01  0.32516749417E+03  0.48887540385E+03  0.58714382520E+03  0.00000000000E+00 0. -1.
          4    1    3    3  501    0  0.21935614448E+01 -0.32516749417E+03  0.40477127751E+03  0.51920949344E+03  0.00000000000E+00 0. -1.
<mgrwt>
<rscale>  0 0.65223713E+03</rscale>
<asrwt>0</asrwt>
<pdfrwt beam="1">0</pdfrwt>
<pdfrwt beam="2">  1        2 0.38674016E+00 0.65223713E+03</pdfrwt>
<totfact> 0.44624929E+00</totfact>
</mgrwt>
</event>
<event>
 5    1  0.2366700E-004  0.6552808E+03  0.7818608E-02  0.9796920E-01
         13   -1    0    0    0    0  0.00000000000E+00  0.00000000000E+00  0.10000000000E+04  0.10000000000E+04  0.00000000000E+00 0. -1.
          2   -1    0    0  501    0 -0.00000000000E+00 -0.00000000000E+00 -0.10734823355E+03  0.10734823355E+03  0.00000000000E+00 0. -1.
    9000006    2    1    2  501    0  0.00000000000E+00  0.00000000000E+00  0.89265176645E+03  0.11073482336E+04  0.65528080562E+03 0.  0.
         13    1    3    3    0    0 -0.30805190952E+03 -0.61041640942E+02  0.60418463757E+03  0.68092667532E+03  0.00000000000E+00 0. -1.
          4    1    3    3  501    0  0.30805190952E+03  0.61041640942E+02  0.28846712888E+03  0.42642155824E+03  0.00000000000E+00 0. -1.
<mgrwt>
<rscale>  0 0.65528081E+03</rscale>
<asrwt>0</asrwt>
<pdfrwt beam="1">0</pdfrwt>
<pdfrwt beam="2">  1        2 0.39035804E+00 0.65528081E+03</pdfrwt>
<totfact> 0.43254708E+00</totfact>
</mgrwt>
</event>
<event>
 5    1  0.2366700E-004  0.6278831E+03  0.7818608E-02  0.9849189E-01
         13   -1    0    0    0    0  0.00000000000E+00  0.00000000000E+00  0.10000000000E+04  0.10000000000E+04  0.00000000000E+00 0. -1.
          2   -1    0    0  501    0 -0.00000000000E+00 -0.00000000000E+00 -0.98559281500E+02  0.98559281500E+02  0.00000000000E+00 0. -1.
    9000006    2    1    2  501    0  0.00000000000E+00  0.00000000000E+00  0.90144071850E+03  0.10985592815E+04  0.62788305121E+03 0.  0.
         13    1    3    3    0    0 -0.97345962080E+02 -0.20924603261E+03  0.78337458560E+02  0.24371478393E+03  0.00000000000E+00 0. -1.
          2    1    3    3  501    0  0.97345962080E+02  0.20924603261E+03  0.82310325994E+03  0.85484449757E+03  0.00000000000E+00 0. -1.
<mgrwt>
<rscale>  0 0.62788305E+03</rscale>
<asrwt>0</asrwt>
<pdfrwt beam="1">0</pdfrwt>
<pdfrwt beam="2">  1        2 0.35839814E+00 0.62788305E+03</pdfrwt>
<totfact> 0.56807538E+00</totfact>
</mgrwt>
</event>
<event>
 5    1  0.2366700E-004  0.6534634E+03  0.7818608E-02  0.9800302E-01
         13   -1    0    0    0    0  0.00000000000E+00  0.00000000000E+00  0.10000000000E+04  0.10000000000E+04  0.00000000000E+00 0. -1.
          2   -1    0    0  501    0 -0.00000000000E+00 -0.00000000000E+00 -0.10675359215E+03  0.10675359215E+03  0.00000000000E+00 0. -1.
    9000006    2    1    2  501    0  0.00000000000E+00  0.00000000000E+00  0.89324640785E+03  0.11067535921E+04  0.65346336438E+03 0.  0.
         13    1    3    3    0    0  0.19081650303E+03  0.22911649241E+03  0.67289372080E+03  0.73599678288E+03  0.00000000000E+00 0. -1.
          4    1    3    3  501    0 -0.19081650303E+03 -0.22911649241E+03  0.22035268705E+03  0.37075680926E+03  0.00000000000E+00 0. -1.
<mgrwt>
<rscale>  0 0.65346336E+03</rscale>
<asrwt>0</asrwt>
<pdfrwt beam="1">0</pdfrwt>
<pdfrwt beam="2">  1        2 0.38819570E+00 0.65346336E+03</pdfrwt>
<totfact> 0.44069011E+00</totfact>
</mgrwt>
</event>
<event>
 5    1  0.2366700E-004  0.6492613E+03  0.7818608E-02  0.9808166E-01
         13   -1    0    0    0    0  0.00000000000E+00  0.00000000000E+00  0.10000000000E+04  0.10000000000E+04  0.00000000000E+00 0. -1.
          2   -1    0    0  501    0 -0.00000000000E+00 -0.00000000000E+00 -0.10538506087E+03  0.10538506087E+03  0.00000000000E+00 0. -1.
    9000006    2    1    2  501    0  0.00000000000E+00  0.00000000000E+00  0.89461493913E+03  0.11053850609E+04  0.64926130599E+03 0.  0.
         13    1    3    3    0    0  0.63834676695E+02 -0.16904920983E+03  0.90646161062E+03  0.92429711285E+03  0.00000000000E+00 0. -1.
          4    1    3    3  501    0 -0.63834676695E+02  0.16904920983E+03 -0.11846671484E+02  0.18108794802E+03  0.00000000000E+00 0. -1.
<mgrwt>
<rscale>  0 0.64926131E+03</rscale>
<asrwt>0</asrwt>
<pdfrwt beam="1">0</pdfrwt>
<pdfrwt beam="2">  1        2 0.38321921E+00 0.64926131E+03</pdfrwt>
<totfact> 0.45996060E+00</totfact>
</mgrwt>
</event>
<event>
 5    1  0.2366700E-004  0.6182991E+03  0.7818608E-02  0.9868152E-01
         13   -1    0    0    0    0  0.00000000000E+00  0.00000000000E+00  0.10000000000E+04  0.10000000000E+04  0.00000000000E+00 0. -1.
          2   -1    0    0  501    0 -0.00000000000E+00 -0.00000000000E+00 -0.95573430151E+02  0.95573430151E+02  0.00000000000E+00 0. -1.
    9000006    2    1    2  501    0  0.00000000000E+00  0.00000000000E+00  0.90442656985E+03  0.10955734302E+04  0.61829905435E+03 0.  0.
         13    1    3    3    0    0  0.25410965125E+03 -0.16390739568E+03  0.33825722546E+03  0.45371279439E+03  0.00000000000E+00 0. -1.
          4    1    3    3  501    0 -0.25410965125E+03  0.16390739568E+03  0.56616934439E+03  0.64186063577E+03  0.00000000000E+00 0. -1.
<mgrwt>
<rscale>  0 0.61829905E+03</rscale>
<asrwt>0</asrwt>
<pdfrwt beam="1">0</pdfrwt>
<pdfrwt beam="2">  1        2 0.34754048E+00 0.61829905E+03</pdfrwt>
<totfact> 0.62236490E+00</totfact>
</mgrwt>
</event>
<event>
 5    1  0.2366700E-004  0.6437911E+03  0.7818608E-02  0.9818500E-01
         13   -1    0    0    0    0  0.00000000000E+00  0.00000000000E+00  0.10000000000E+04  0.10000000000E+04  0.00000000000E+00 0. -1.
          2   -1    0    0  501    0 -0.00000000000E+00 -0.00000000000E+00 -0.10361673823E+03  0.10361673823E+03  0.00000000000E+00 0. -1.
    9000006    2    1    2  501    0  0.00000000000E+00  0.00000000000E+00  0.89638326177E+03  0.11036167382E+04  0.64379107862E+03 0.  0.
         13    1    3    3    0    0  0.27217744047E+03 -0.58203519812E+02  0.72539401372E+03  0.77695861149E+03  0.00000000000E+00 0. -1.
          4    1    3    3  501    0 -0.27217744047E+03  0.58203519812E+02  0.17098924805E+03  0.32665812674E+03  0.00000000000E+00 0. -1.
<mgrwt>
<rscale>  0 0.64379108E+03</rscale>
<asrwt>0</asrwt>
<pdfrwt beam="1">0</pdfrwt>
<pdfrwt beam="2">  1        2 0.37678893E+00 0.64379108E+03</pdfrwt>
<totfact> 0.48599333E+00</totfact>
</mgrwt>
</event>
<event>
 5    1  0.2366700E-004  0.6519157E+03  0.7818608E-02  0.9803191E-01
         13   -1    0    0    0    0  0.00000000000E+00  0.00000000000E+00  0.10000000000E+04  0.10000000000E+04  0.00000000000E+00 0. -1.
          2   -1    0    0  501    0 -0.00000000000E+00 -0.00000000000E+00 -0.10624851954E+03  0.10624851954E+03  0.00000000000E+00 0. -1.
    9000006    2    1    2  501    0  0.00000000000E+00  0.00000000000E+00  0.89375148046E+03  0.11062485195E+04  0.65191569867E+03 0.  0.
         13    1    3    3    0    0  0.12123746191E+03  0.28735539786E+03  0.60765269416E+03  0.68301789403E+03  0.00000000000E+00 0. -1.
          2    1    3    3  501    0 -0.12123746191E+03 -0.28735539786E+03  0.28609878630E+03  0.42323062551E+03  0.00000000000E+00 0. -1.
<mgrwt>
<rscale>  0 0.65191570E+03</rscale>
<asrwt>0</asrwt>
<pdfrwt beam="1">0</pdfrwt>
<pdfrwt beam="2">  1        2 0.38635907E+00 0.65191570E+03</pdfrwt>
<totfact> 0.44771523E+00</totfact>
</mgrwt>
</event>
<event>
 5    1  0.2366700E-004  0.6521289E+03  0.7818608E-02  0.9802793E-01
         13   -1    0    0    0    0  0.00000000000E+00  0.00000000000E+00  0.10000000000E+04  0.10000000000E+04  0.00000000000E+00 0. -1.
          2   -1    0    0  501    0 -0.00000000000E+00 -0.00000000000E+00 -0.10631801837E+03  0.10631801837E+03  0.00000000000E+00 0. -1.
    9000006    2    1    2  501    0  0.00000000000E+00  0.00000000000E+00  0.89368198163E+03  0.11063180184E+04  0.65212887796E+03 0.  0.
         13    1    3    3    0    0  0.22179915808E+03  0.22881328125E+03  0.56397904758E+03  0.64778295000E+03  0.00000000000E+00 0. -1.
          2    1    3    3  501    0 -0.22179915808E+03 -0.22881328125E+03  0.32970293405E+03  0.45853506837E+03  0.00000000000E+00 0. -1.
<mgrwt>
<rscale>  0 0.65212888E+03</rscale>
<asrwt>0</asrwt>
<pdfrwt beam="1">0</pdfrwt>
<pdfrwt beam="2">  1        2 0.38661179E+00 0.65212888E+03</pdfrwt>
<totfact> 0.44674259E+00</totfact>
</mgrwt>
</event>
<event>
 5    1  0.2366700E-004  0.6535080E+03  0.7818608E-02  0.9800219E-01
         13   -1    0    0    0    0  0.00000000000E+00  0.00000000000E+00  0.10000000000E+04  0.10000000000E+04  0.00000000000E+00 0. -1.
          2   -1    0    0  501    0 -0.00000000000E+00 -0.00000000000E+00 -0.10676817253E+03  0.10676817253E+03  0.00000000000E+00 0. -1.
    9000006    2    1    2  501    0  0.00000000000E+00  0.00000000000E+00  0.89323182747E+03  0.11067681725E+04  0.65350798781E+03 0.  0.
         13    1    3    3    0    0  0.15953916807E+03 -0.17822316912E+03  0.69620522157E+02  0.24912499125E+03  0.00000000000E+00 0. -1.
          4    1    3    3  501    0 -0.15953916807E+03  0.17822316912E+03  0.82361130531E+03  0.85764318128E+03  0.00000000000E+00 0. -1.
<mgrwt>
<rscale>  0 0.65350799E+03</rscale>
<asrwt>0</asrwt>
<pdfrwt beam="1">0</pdfrwt>
<pdfrwt beam="2">  1        2 0.38824872E+00 0.65350799E+03</pdfrwt>
<totfact> 0.44048880E+00</totfact>
</mgrwt>
</event>
<event>
 5    1  0.2366700E-004  0.6544711E+03  0.7818608E-02  0.9798426E-01
         13   -1    0    0    0    0  0.00000000000E+00  0.00000000000E+00  0.10000000000E+04  0.10000000000E+04  0.00000000000E+00 0. -1.
          2   -1    0    0  501    0 -0.00000000000E+00 -0.00000000000E+00 -0.10708309175E+03  0.10708309175E+03  0.00000000000E+00 0. -1.
    9000006    2    1    2  501    0  0.00000000000E+00  0.00000000000E+00  0.89291690825E+03  0.11070830917E+04  0.65447105894E+03 0.  0.
         13    1    3    3    0    0  0.30997942260E+03  0.94102147450E+02  0.52472228427E+03  0.61666517026E+03  0.00000000000E+00 0. -1.
          2    1    3    3  501    0 -0.30997942260E+03 -0.94102147450E+02  0.36819462398E+03  0.49041792149E+03  0.00000000000E+00 0. -1.
<mgrwt>
<rscale>  0 0.65447106E+03</rscale>
<asrwt>0</asrwt>
<pdfrwt beam="1">0</pdfrwt>
<pdfrwt beam="2">  1        2 0.38939388E+00 0.65447106E+03</pdfrwt>
<totfact> 0.43616098E+00</totfact>
</mgrwt>
</event>
<event>
 5    1  0.2366700E-004  0.6545804E+03  0.7818608E-02  0.9798222E-01
         13   -1    0    0    0    0  0.00000000000E+00  0.00000000000E+00  0.10000000000E+04  0.10000000000E+04  0.00000000000E+00 0. -1.
          2   -1    0    0  501    0 -0.00000000000E+00 -0.00000000000E+00 -0.10711887797E+03  0.10711887797E+03  0.00000000000E+00 0. -1.
    9000006    2    1    2  501    0  0.00000000000E+00  0.00000000000E+00  0.89288112203E+03  0.11071188780E+04  0.65458040903E+03 0.  0.
         13    1    3    3    0    0  0.30218228101E+03 -0.88281127464E+02  0.59782448447E+03  0.67564917128E+03  0.00000000000E+00 0. -1.
          4    1    3    3  501    0 -0.30218228101E+03  0.88281127464E+02  0.29505663756E+03  0.43146970669E+03  0.00000000000E+00 0. -1.
<mgrwt>
<rscale>  0 0.65458041E+03</rscale>
<asrwt>0</asrwt>
<pdfrwt beam="1">0</pdfrwt>
<pdfrwt beam="2">  1        2 0.38952401E+00 0.65458041E+03</pdfrwt>
<totfact> 0.43567162E+00</totfact>
</mgrwt>
</event>
<event>
 5    1  0.2366700E-004  0.6265652E+03  0.7818608E-02  0.9851774E-01
         13   -1    0    0    0    0  0.00000000000E+00  0.00000000000E+00  0.10000000000E+04  0.10000000000E+04  0.00000000000E+00 0. -1.
          2   -1    0    0  501    0 -0.00000000000E+00 -0.00000000000E+00 -0.98146000080E+02  0.98146000080E+02  0.00000000000E+00 0. -1.
    9000006    2    1    2  501    0  0.00000000000E+00  0.00000000000E+00  0.90185399992E+03  0.10981460001E+04  0.62656524028E+03 0.  0.
         13    1    3    3    0    0 -0.18062188177E+03  0.30397099292E+02  0.89638061656E+03  0.91490243063E+03  0.00000000000E+00 0. -1.
          4    1    3    3  501    0  0.18062188177E+03 -0.30397099292E+02  0.54733833581E+01  0.18324356945E+03  0.00000000000E+00 0. -1.
<mgrwt>
<rscale>  0 0.62656524E+03</rscale>
<asrwt>0</asrwt>
<pdfrwt beam="1">0</pdfrwt>
<pdfrwt beam="2">  1        2 0.35689530E+00 0.62656524E+03</pdfrwt>
<totfact> 0.57531768E+00</totfact>
</mgrwt>
</event>
<event>
 5    1  0.2366700E-004  0.6504768E+03  0.7818608E-02  0.9805885E-01
         13   -1    0    0    0    0  0.00000000000E+00  0.00000000000E+00  0.10000000000E+04  0.10000000000E+04  0.00000000000E+00 0. -1.
          2   -1    0    0  501    0 -0.00000000000E+00 -0.00000000000E+00 -0.10578001679E+03  0.10578001679E+03  0.00000000000E+00 0. -1.
    9000006    2    1    2  501    0  0.00000000000E+00  0.00000000000E+00  0.89421998321E+03  0.11057800168E+04  0.65047679986E+03 0.  0.
         13    1    3    3    0    0  0.24448917298E+03 -0.79406271118E+02  0.10839800453E+03  0.27898107280E+03  0.00000000000E+00 0. -1.
          2    1    3    3  501    0 -0.24448917298E+03  0.79406271118E+02  0.78582197868E+03  0.82679894399E+03  0.00000000000E+00 0. -1.
<mgrwt>
<rscale>  0 0.65047680E+03</rscale>
<asrwt>0</asrwt>
<pdfrwt beam="1">0</pdfrwt>
<pdfrwt beam="2">  1        2 0.38465542E+00 0.65047680E+03</pdfrwt>
<totfact> 0.45432223E+00</totfact>
</mgrwt>
</event>
<event>
 5    1  0.2366700E-004  0.6540591E+03  0.7818608E-02  0.9799192E-01
         13   -1    0    0    0    0  0.00000000000E+00  0.00000000000E+00  0.10000000000E+04  0.10000000000E+04  0.00000000000E+00 0. -1.
          2   -1    0    0  501    0 -0.00000000000E+00 -0.00000000000E+00 -0.10694833618E+03  0.10694833618E+03  0.00000000000E+00 0. -1.
    9000006    2    1    2  501    0  0.00000000000E+00  0.00000000000E+00  0.89305166382E+03  0.11069483362E+04  0.65405912937E+03 0.  0.
         13    1    3    3    0    0  0.24374012682E+03 -0.21753331875E+03  0.47153383255E+03  0.57364984914E+03  0.00000000000E+00 0. -1.
          2    1    3    3  501    0 -0.24374012682E+03  0.21753331875E+03  0.42151783128E+03  0.53329848703E+03  0.00000000000E+00 0. -1.
<mgrwt>
<rscale>  0 0.65405913E+03</rscale>
<asrwt>0</asrwt>
<pdfrwt beam="1">0</pdfrwt>
<pdfrwt beam="2">  1        2 0.38890386E+00 0.65405913E+03</pdfrwt>
<totfact> 0.43800815E+00</totfact>
</mgrwt>
</event>
<event>
 5    1  0.2366700E-004  0.6542008E+03  0.7818608E-02  0.9798928E-01
         13   -1    0    0    0    0  0.00000000000E+00  0.00000000000E+00  0.10000000000E+04  0.10000000000E+04  0.00000000000E+00 0. -1.
          2   -1    0    0  501    0 -0.00000000000E+00 -0.00000000000E+00 -0.10699467101E+03  0.10699467101E+03  0.00000000000E+00 0. -1.
    9000006    2    1    2  501    0  0.00000000000E+00  0.00000000000E+00  0.89300532899E+03  0.11069946710E+04  0.65420079796E+03 0.  0.
         13    1    3    3    0    0  0.25291809217E+03 -0.92236776285E+02  0.76089114574E+03  0.80711245804E+03  0.00000000000E+00 0. -1.
          2    1    3    3  501    0 -0.25291809217E+03  0.92236776285E+02  0.13211418324E+03  0.29988221298E+03  0.00000000000E+00 0. -1.
<mgrwt>
<rscale>  0 0.65420080E+03</rscale>
<asrwt>0</asrwt>
<pdfrwt beam="1">0</pdfrwt>
<pdfrwt beam="2">  1        2 0.38907235E+00 0.65420080E+03</pdfrwt>
<totfact> 0.43737221E+00</totfact>
</mgrwt>
</event>
<event>
 5    1  0.2366700E-004  0.6500401E+03  0.7818608E-02  0.9806704E-01
         13   -1    0    0    0    0  0.00000000000E+00  0.00000000000E+00  0.10000000000E+04  0.10000000000E+04  0.00000000000E+00 0. -1.
          2   -1    0    0  501    0 -0.00000000000E+00 -0.00000000000E+00 -0.10563803900E+03  0.10563803900E+03  0.00000000000E+00 0. -1.
    9000006    2    1    2  501    0  0.00000000000E+00  0.00000000000E+00  0.89436196100E+03  0.11056380390E+04  0.65004011875E+03 0.  0.
         13    1    3    3    0    0  0.13493852312E+03 -0.14878506241E+03  0.88179619224E+03  0.90438372634E+03  0.00000000000E+00 0. -1.
          2    1    3    3  501    0 -0.13493852312E+03  0.14878506241E+03  0.12565768763E+02  0.20125431266E+03  0.00000000000E+00 0. -1.
<mgrwt>
<rscale>  0 0.65004012E+03</rscale>
<asrwt>0</asrwt>
<pdfrwt beam="1">0</pdfrwt>
<pdfrwt beam="2">  1        2 0.38413913E+00 0.65004012E+03</pdfrwt>
<totfact> 0.45634184E+00</totfact>
</mgrwt>
</event>
<event>
 5    1  0.2366700E-004  0.6184672E+03  0.7818608E-02  0.9867816E-01
         13   -1    0    0    0    0  0.00000000000E+00  0.00000000000E+00  0.10000000000E+04  0.10000000000E+04  0.00000000000E+00 0. -1.
          2   -1    0    0  501    0 -0.00000000000E+00 -0.00000000000E+00 -0.95625422392E+02  0.95625422392E+02  0.00000000000E+00 0. -1.
    9000006    2    1    2  501    0  0.00000000000E+00  0.00000000000E+00  0.90437457761E+03  0.10956254224E+04  0.61846720978E+03 0.  0.
         13    1    3    3    0    0  0.18890156305E+03  0.81257773303E+02  0.43051918289E+02  0.21009544001E+03  0.00000000000E+00 0. -1.
          2    1    3    3  501    0 -0.18890156305E+03 -0.81257773303E+02  0.86132265932E+03  0.88552998238E+03  0.00000000000E+00 0. -1.
<mgrwt>
<rscale>  0 0.61846721E+03</rscale>
<asrwt>0</asrwt>
<pdfrwt beam="1">0</pdfrwt>
<pdfrwt beam="2">  1        2 0.34772954E+00 0.61846721E+03</pdfrwt>
<totfact> 0.62137962E+00</totfact>
</mgrwt>
</event>
<event>
 5    1  0.2366700E-004  0.6479952E+03  0.7818608E-02  0.9810548E-01
         13   -1    0    0    0    0  0.00000000000E+00  0.00000000000E+00  0.10000000000E+04  0.10000000000E+04  0.00000000000E+00 0. -1.
          2   -1    0    0  501    0 -0.00000000000E+00 -0.00000000000E+00 -0.10497443894E+03  0.10497443894E+03  0.00000000000E+00 0. -1.
    9000006    2    1    2  501    0  0.00000000000E+00  0.00000000000E+00  0.89502556106E+03  0.11049744389E+04  0.64799518190E+03 0.  0.
         13    1    3    3    0    0  0.28716508783E+03  0.35236562430E+02  0.19882505086E+03  0.35105099893E+03  0.00000000000E+00 0. -1.
          2    1    3    3  501    0 -0.28716508783E+03 -0.35236562430E+02  0.69620051020E+03  0.75392344001E+03  0.00000000000E+00 0. -1.
<mgrwt>
<rscale>  0 0.64799518E+03</rscale>
<asrwt>0</asrwt>
<pdfrwt beam="1">0</pdfrwt>
<pdfrwt beam="2">  1        2 0.38172604E+00 0.64799518E+03</pdfrwt>
<totfact> 0.46588991E+00</totfact>
</mgrwt>
</event>
<event>
 5    1  0.2366700E-004  0.6456775E+03  0.7818608E-02  0.9814924E-01
         13   -1    0    0    0    0  0.00000000000E+00  0.00000000000E+00  0.10000000000E+04  0.10000000000E+04  0.00000000000E+00 0. -1.
          2   -1    0    0  501    0 -0.00000000000E+00 -0.00000000000E+00 -0.10422485736E+03  0.10422485736E+03  0.00000000000E+00 0. -1.
    9000006    2    1    2  501    0  0.00000000000E+00  0.00000000000E+00  0.89577514264E+03  0.11042248574E+04  0.64567749646E+03 0.  0.
         13    1    3    3    0    0  0.16833099588E+03 -0.39002871863E+02 -0.18488030815E+02  0.17377674031E+03  0.00000000000E+00 0. -1.
          2    1    3    3  501    0 -0.16833099588E+03  0.39002871863E+02  0.91426317346E+03  0.93044811705E+03  0.00000000000E+00 0. -1.
<mgrwt>
<rscale>  0 0.64567750E+03</rscale>
<asrwt>0</asrwt>
<pdfrwt beam="1">0</pdfrwt>
<pdfrwt beam="2">  1        2 0.37900028E+00 0.64567750E+03</pdfrwt>
<totfact> 0.47689326E+00</totfact>
</mgrwt>
</event>
<event>
 5    1  0.2366700E-004  0.5411458E+03  0.7818608E-02  0.1003564E+00
         13   -1    0    0    0    0  0.00000000000E+00  0.00000000000E+00  0.10000000000E+04  0.10000000000E+04  0.00000000000E+00 0. -1.
          2   -1    0    0  501    0 -0.00000000000E+00 -0.00000000000E+00 -0.73209702201E+02  0.73209702201E+02  0.00000000000E+00 0. -1.
    9000006    2    1    2  501    0  0.00000000000E+00  0.00000000000E+00  0.92679029780E+03  0.10732097022E+04  0.54114582952E+03 0.  0.
         13    1    3    3    0    0  0.14788633707E+03 -0.21006622780E+02  0.91082079000E+03  0.92298762635E+03  0.00000000000E+00 0. -1.
          2    1    3    3  501    0 -0.14788633707E+03  0.21006622780E+02  0.15969507798E+02  0.15022207585E+03  0.00000000000E+00 0. -1.
<mgrwt>
<rscale>  0 0.54114583E+03</rscale>
<asrwt>0</asrwt>
<pdfrwt beam="1">0</pdfrwt>
<pdfrwt beam="2">  1        2 0.26621766E+00 0.54114583E+03</pdfrwt>
<totfact> 0.12192301E+01</totfact>
</mgrwt>
</event>
<event>
 5    1  0.2366700E-004  0.6519266E+03  0.7818608E-02  0.9803171E-01
         13   -1    0    0    0    0  0.00000000000E+00  0.00000000000E+00  0.10000000000E+04  0.10000000000E+04  0.00000000000E+00 0. -1.
          2   -1    0    0  501    0 -0.00000000000E+00 -0.00000000000E+00 -0.10625206031E+03  0.10625206031E+03  0.00000000000E+00 0. -1.
    9000006    2    1    2  501    0  0.00000000000E+00  0.00000000000E+00  0.89374793969E+03  0.11062520603E+04  0.65192656123E+03 0.  0.
         13    1    3    3    0    0 -0.11379457134E+02 -0.32165693653E+03  0.53438159494E+03  0.62382398629E+03  0.00000000000E+00 0. -1.
          4    1    3    3  501    0  0.11379457134E+02  0.32165693653E+03  0.35936634475E+03  0.48242807402E+03  0.00000000000E+00 0. -1.
<mgrwt>
<rscale>  0 0.65192656E+03</rscale>
<asrwt>0</asrwt>
<pdfrwt beam="1">0</pdfrwt>
<pdfrwt beam="2">  1        2 0.38637194E+00 0.65192656E+03</pdfrwt>
<totfact> 0.44766563E+00</totfact>
</mgrwt>
</event>
<event>
 5    1  0.2366700E-004  0.6327789E+03  0.7818608E-02  0.9839641E-01
         13   -1    0    0    0    0  0.00000000000E+00  0.00000000000E+00  0.10000000000E+04  0.10000000000E+04  0.00000000000E+00 0. -1.
          2   -1    0    0  501    0 -0.00000000000E+00 -0.00000000000E+00 -0.10010227887E+03  0.10010227887E+03  0.00000000000E+00 0. -1.
    9000006    2    1    2  501    0  0.00000000000E+00  0.00000000000E+00  0.89989772113E+03  0.11001022789E+04  0.63277888356E+03 0.  0.
         13    1    3    3    0    0 -0.26932394163E+03  0.16600772950E+03  0.44493205320E+03  0.54594732691E+03  0.00000000000E+00 0. -1.
          2    1    3    3  501    0  0.26932394163E+03 -0.16600772950E+03  0.45496566793E+03  0.55415495196E+03  0.00000000000E+00 0. -1.
<mgrwt>
<rscale>  0 0.63277888E+03</rscale>
<asrwt>0</asrwt>
<pdfrwt beam="1">0</pdfrwt>
<pdfrwt beam="2">  1        2 0.36400905E+00 0.63277888E+03</pdfrwt>
<totfact> 0.54177434E+00</totfact>
</mgrwt>
</event>
<event>
 5    1  0.2366700E-004  0.6709610E+03  0.7818608E-02  0.9768223E-01
         13   -1    0    0    0    0  0.00000000000E+00  0.00000000000E+00  0.10000000000E+04  0.10000000000E+04  0.00000000000E+00 0. -1.
          2   -1    0    0  501    0 -0.00000000000E+00 -0.00000000000E+00 -0.11254716967E+03  0.11254716967E+03  0.00000000000E+00 0. -1.
    9000006    2    1    2  501    0  0.00000000000E+00  0.00000000000E+00  0.88745283033E+03  0.11125471697E+04  0.67096101129E+03 0.  0.
         13    1    3    3    0    0  0.26989291335E+03 -0.10193919111E+03  0.72761906228E+03  0.78272810295E+03  0.00000000000E+00 0. -1.
          4    1    3    3  501    0 -0.26989291335E+03  0.10193919111E+03  0.15983376806E+03  0.32981906672E+03  0.00000000000E+00 0. -1.
<mgrwt>
<rscale>  0 0.67096101E+03</rscale>
<asrwt>0</asrwt>
<pdfrwt beam="1">0</pdfrwt>
<pdfrwt beam="2">  1        2 0.40926330E+00 0.67096101E+03</pdfrwt>
<totfact> 0.36692077E+00</totfact>
</mgrwt>
</event>
<event>
 5    1  0.2366700E-004  0.6648223E+03  0.7818608E-02  0.9779357E-01
         13   -1    0    0    0    0  0.00000000000E+00  0.00000000000E+00  0.10000000000E+04  0.10000000000E+04  0.00000000000E+00 0. -1.
          4   -1    0    0  501    0 -0.00000000000E+00 -0.00000000000E+00 -0.11049717084E+03  0.11049717084E+03  0.00000000000E+00 0. -1.
    9000006    2    1    2  501    0  0.00000000000E+00  0.00000000000E+00  0.88950282916E+03  0.11104971708E+04  0.66482229459E+03 0.  0.
         13    1    3    3    0    0 -0.36807535585E+02 -0.31913470884E+03  0.30208003975E+03  0.44096950855E+03  0.00000000000E+00 0. -1.
          2    1    3    3  501    0  0.36807535585E+02  0.31913470884E+03  0.58742278941E+03  0.66952766229E+03  0.00000000000E+00 0. -1.
<mgrwt>
<rscale>  0 0.66482229E+03</rscale>
<asrwt>0</asrwt>
<pdfrwt beam="1">0</pdfrwt>
<pdfrwt beam="2">  1        4 0.40180874E+00 0.66482229E+03</pdfrwt>
<totfact> 0.31133789E-02</totfact>
</mgrwt>
</event>
<event>
 5    1  0.2366700E-004  0.6435823E+03  0.7818608E-02  0.9818897E-01
         13   -1    0    0    0    0  0.00000000000E+00  0.00000000000E+00  0.10000000000E+04  0.10000000000E+04  0.00000000000E+00 0. -1.
          2   -1    0    0  501    0 -0.00000000000E+00 -0.00000000000E+00 -0.10354955253E+03  0.10354955253E+03  0.00000000000E+00 0. -1.
    9000006    2    1    2  501    0  0.00000000000E+00  0.00000000000E+00  0.89645044747E+03  0.11035495525E+04  0.64358232582E+03 0.  0.
         13    1    3    3    0    0 -0.29445334325E+03 -0.12488697207E+03  0.50884958076E+03  0.60102198211E+03  0.00000000000E+00 0. -1.
          2    1    3    3  501    0  0.29445334325E+03  0.12488697207E+03  0.38760086672E+03  0.50252757042E+03  0.00000000000E+00 0. -1.
<mgrwt>
<rscale>  0 0.64358233E+03</rscale>
<asrwt>0</asrwt>
<pdfrwt beam="1">0</pdfrwt>
<pdfrwt beam="2">  1        2 0.37654462E+00 0.64358233E+03</pdfrwt>
<totfact> 0.48700837E+00</totfact>
</mgrwt>
</event>
<event>
 5    1  0.2366700E-004  0.6451600E+03  0.7818608E-02  0.9815904E-01
         13   -1    0    0    0    0  0.00000000000E+00  0.00000000000E+00  0.10000000000E+04  0.10000000000E+04  0.00000000000E+00 0. -1.
          2   -1    0    0  501    0 -0.00000000000E+00 -0.00000000000E+00 -0.10405786546E+03  0.10405786546E+03  0.00000000000E+00 0. -1.
    9000006    2    1    2  501    0  0.00000000000E+00  0.00000000000E+00  0.89594213454E+03  0.11040578655E+04  0.64516002810E+03 0.  0.
         13    1    3    3    0    0  0.53017353370E+02  0.26460407485E+03  0.14554288401E+03  0.30660868754E+03  0.00000000000E+00 0. -1.
          4    1    3    3  501    0 -0.53017353370E+02 -0.26460407485E+03  0.75039925052E+03  0.79744917793E+03  0.00000000000E+00 0. -1.
<mgrwt>
<rscale>  0 0.64516003E+03</rscale>
<asrwt>0</asrwt>
<pdfrwt beam="1">0</pdfrwt>
<pdfrwt beam="2">  1        2 0.37839304E+00 0.64516003E+03</pdfrwt>
<totfact> 0.47937658E+00</totfact>
</mgrwt>
</event>
<event>
 5    1  0.2366700E-004  0.6278382E+03  0.7818608E-02  0.9849277E-01
         13   -1    0    0    0    0  0.00000000000E+00  0.00000000000E+00  0.10000000000E+04  0.10000000000E+04  0.00000000000E+00 0. -1.
          2   -1    0    0  501    0 -0.00000000000E+00 -0.00000000000E+00 -0.98545198151E+02  0.98545198151E+02  0.00000000000E+00 0. -1.
    9000006    2    1    2  501    0  0.00000000000E+00  0.00000000000E+00  0.90145480185E+03  0.10985451982E+04  0.62783818983E+03 0.  0.
         13    1    3    3    0    0 -0.17666494903E+03  0.20791968549E+03  0.17907368760E+03  0.32635637794E+03  0.00000000000E+00 0. -1.
          2    1    3    3  501    0  0.17666494903E+03 -0.20791968549E+03  0.72238111425E+03  0.77218882021E+03  0.00000000000E+00 0. -1.
<mgrwt>
<rscale>  0 0.62783819E+03</rscale>
<asrwt>0</asrwt>
<pdfrwt beam="1">0</pdfrwt>
<pdfrwt beam="2">  1        2 0.35834693E+00 0.62783819E+03</pdfrwt>
<totfact> 0.56832078E+00</totfact>
</mgrwt>
</event>
<event>
 5    1  0.2366700E-004  0.6591846E+03  0.7818608E-02  0.9789696E-01
         13   -1    0    0    0    0  0.00000000000E+00  0.00000000000E+00  0.10000000000E+04  0.10000000000E+04  0.00000000000E+00 0. -1.
          2   -1    0    0  501    0 -0.00000000000E+00 -0.00000000000E+00 -0.10863109640E+03  0.10863109640E+03  0.00000000000E+00 0. -1.
    9000006    2    1    2  501    0  0.00000000000E+00  0.00000000000E+00  0.89136890360E+03  0.11086310964E+04  0.65918463696E+03 0.  0.
         13    1    3    3    0    0  0.59460431319E+02 -0.55320431030E+02 -0.91539041276E+02  0.12237356357E+03  0.00000000000E+00 0. -1.
          2    1    3    3  501    0 -0.59460431319E+02  0.55320431030E+02  0.98290794487E+03  0.98625753284E+03  0.00000000000E+00 0. -1.
<mgrwt>
<rscale>  0 0.65918464E+03</rscale>
<asrwt>0</asrwt>
<pdfrwt beam="1">0</pdfrwt>
<pdfrwt beam="2">  1        2 0.39502300E+00 0.65918464E+03</pdfrwt>
<totfact> 0.41544086E+00</totfact>
</mgrwt>
</event>
<event>
 5    1  0.2366700E-004  0.6096433E+03  0.7818608E-02  0.9885599E-01
         13   -1    0    0    0    0  0.00000000000E+00  0.00000000000E+00  0.10000000000E+04  0.10000000000E+04  0.00000000000E+00 0. -1.
          2   -1    0    0  501    0 -0.00000000000E+00 -0.00000000000E+00 -0.92916233306E+02  0.92916233306E+02  0.00000000000E+00 0. -1.
    9000006    2    1    2  501    0  0.00000000000E+00  0.00000000000E+00  0.90708376669E+03  0.10929162333E+04  0.60964328359E+03 0.  0.
         13    1    3    3    0    0 -0.10171850775E+03  0.14255487770E+03  0.62688790755E+01  0.17523654533E+03  0.00000000000E+00 0. -1.
          2    1    3    3  501    0  0.10171850775E+03 -0.14255487770E+03  0.90081488762E+03  0.91767968798E+03  0.00000000000E+00 0. -1.
<mgrwt>
<rscale>  0 0.60964328E+03</rscale>
<asrwt>0</asrwt>
<pdfrwt beam="1">0</pdfrwt>
<pdfrwt beam="2">  1        2 0.33787792E+00 0.60964328E+03</pdfrwt>
<totfact> 0.67471308E+00</totfact>
</mgrwt>
</event>
<event>
 5    1  0.2366700E-004  0.5947553E+03  0.7818608E-02  0.9916347E-01
         13   -1    0    0    0    0  0.00000000000E+00  0.00000000000E+00  0.10000000000E+04  0.10000000000E+04  0.00000000000E+00 0. -1.
          2   -1    0    0  501    0 -0.00000000000E+00 -0.00000000000E+00 -0.88433472349E+02  0.88433472349E+02  0.00000000000E+00 0. -1.
    9000006    2    1    2  501    0  0.00000000000E+00  0.00000000000E+00  0.91156652765E+03  0.10884334723E+04  0.59475531893E+03 0.  0.
         13    1    3    3    0    0 -0.15479035883E+03  0.71013919664E+02  0.96464836315E+01  0.17057575038E+03  0.00000000000E+00 0. -1.
          2    1    3    3  501    0  0.15479035883E+03 -0.71013919664E+02  0.90192004402E+03  0.91785772197E+03  0.00000000000E+00 0. -1.
<mgrwt>
<rscale>  0 0.59475532E+03</rscale>
<asrwt>0</asrwt>
<pdfrwt beam="1">0</pdfrwt>
<pdfrwt beam="2">  1        2 0.32157694E+00 0.59475532E+03</pdfrwt>
<totfact> 0.77256974E+00</totfact>
</mgrwt>
</event>
<event>
 5    1  0.2366700E-004  0.6382797E+03  0.7818608E-02  0.9829023E-01
         13   -1    0    0    0    0  0.00000000000E+00  0.00000000000E+00  0.10000000000E+04  0.10000000000E+04  0.00000000000E+00 0. -1.
          2   -1    0    0  501    0 -0.00000000000E+00 -0.00000000000E+00 -0.10185024759E+03  0.10185024759E+03  0.00000000000E+00 0. -1.
    9000006    2    1    2  501    0  0.00000000000E+00  0.00000000000E+00  0.89814975241E+03  0.11018502476E+04  0.63827971168E+03 0.  0.
         13    1    3    3    0    0 -0.16754266847E+03 -0.20043418329E+03  0.76553493982E+03  0.80888080189E+03  0.00000000000E+00 0. -1.
          2    1    3    3  501    0  0.16754266847E+03  0.20043418329E+03  0.13261481260E+03  0.29296944569E+03  0.00000000000E+00 0. -1.
<mgrwt>
<rscale>  0 0.63827971E+03</rscale>
<asrwt>0</asrwt>
<pdfrwt beam="1">0</pdfrwt>
<pdfrwt beam="2">  1        2 0.37036532E+00 0.63827971E+03</pdfrwt>
<totfact> 0.51333645E+00</totfact>
</mgrwt>
</event>
<event>
 5    1  0.2366700E-004  0.6259034E+03  0.7818608E-02  0.9853076E-01
         13   -1    0    0    0    0  0.00000000000E+00  0.00000000000E+00  0.10000000000E+04  0.10000000000E+04  0.00000000000E+00 0. -1.
          2   -1    0    0  501    0 -0.00000000000E+00 -0.00000000000E+00 -0.97938780740E+02  0.97938780740E+02  0.00000000000E+00 0. -1.
    9000006    2    1    2  501    0  0.00000000000E+00  0.00000000000E+00  0.90206121926E+03  0.10979387807E+04  0.62590344540E+03 0.  0.
         13    1    3    3    0    0 -0.48982606783E+02 -0.28780570854E+03  0.25328883174E+03  0.38650569714E+03  0.00000000000E+00 0. -1.
          2    1    3    3  501    0  0.48982606783E+02  0.28780570854E+03  0.64877238752E+03  0.71143308360E+03  0.00000000000E+00 0. -1.
<mgrwt>
<rscale>  0 0.62590345E+03</rscale>
<asrwt>0</asrwt>
<pdfrwt beam="1">0</pdfrwt>
<pdfrwt beam="2">  1        2 0.35614177E+00 0.62590345E+03</pdfrwt>
<totfact> 0.57898135E+00</totfact>
</mgrwt>
</event>
<event>
 5    1  0.2366700E-004  0.6568738E+03  0.7818608E-02  0.9793966E-01
         13   -1    0    0    0    0  0.00000000000E+00  0.00000000000E+00  0.10000000000E+04  0.10000000000E+04  0.00000000000E+00 0. -1.
          2   -1    0    0  501    0 -0.00000000000E+00 -0.00000000000E+00 -0.10787078504E+03  0.10787078504E+03  0.00000000000E+00 0. -1.
    9000006    2    1    2  501    0  0.00000000000E+00  0.00000000000E+00  0.89212921496E+03  0.11078707850E+04  0.65687376273E+03 0.  0.
         13    1    3    3    0    0  0.11611239550E+03 -0.88695087682E+02 -0.50036462341E+02  0.15444272249E+03  0.00000000000E+00 0. -1.
          2    1    3    3  501    0 -0.11611239550E+03  0.88695087682E+02  0.94216567730E+03  0.95342806255E+03  0.00000000000E+00 0. -1.
<mgrwt>
<rscale>  0 0.65687376E+03</rscale>
<asrwt>0</asrwt>
<pdfrwt beam="1">0</pdfrwt>
<pdfrwt beam="2">  1        2 0.39225823E+00 0.65687376E+03</pdfrwt>
<totfact> 0.42550377E+00</totfact>
</mgrwt>
</event>
<event>
 5    1  0.2366700E-004  0.6480866E+03  0.7818608E-02  0.9810376E-01
         13   -1    0    0    0    0  0.00000000000E+00  0.00000000000E+00  0.10000000000E+04  0.10000000000E+04  0.00000000000E+00 0. -1.
          2   -1    0    0  501    0 -0.00000000000E+00 -0.00000000000E+00 -0.10500406457E+03  0.10500406457E+03  0.00000000000E+00 0. -1.
    9000006    2    1    2  501    0  0.00000000000E+00  0.00000000000E+00  0.89499593543E+03  0.11050040646E+04  0.64808661324E+03 0.  0.
         13    1    3    3    0    0 -0.51104656836E+02 -0.21700206113E+02 -0.96833804732E+02  0.11162155094E+03  0.00000000000E+00 0. -1.
          2    1    3    3  501    0  0.51104656836E+02  0.21700206113E+02  0.99182974017E+03  0.99338251362E+03  0.00000000000E+00 0. -1.
<mgrwt>
<rscale>  0 0.64808661E+03</rscale>
<asrwt>0</asrwt>
<pdfrwt beam="1">0</pdfrwt>
<pdfrwt beam="2">  1        2 0.38183377E+00 0.64808661E+03</pdfrwt>
<totfact> 0.46545981E+00</totfact>
</mgrwt>
</event>
<event>
 5    1  0.2366700E-004  0.6335642E+03  0.7818608E-02  0.9838118E-01
         13   -1    0    0    0    0  0.00000000000E+00  0.00000000000E+00  0.10000000000E+04  0.10000000000E+04  0.00000000000E+00 0. -1.
          2   -1    0    0  501    0 -0.00000000000E+00 -0.00000000000E+00 -0.10035089758E+03  0.10035089758E+03  0.00000000000E+00 0. -1.
    9000006    2    1    2  501    0  0.00000000000E+00  0.00000000000E+00  0.89964910242E+03  0.11003508976E+04  0.63356419588E+03 0.  0.
         13    1    3    3    0    0  0.85438348759E+02 -0.15569829663E+02 -0.79272177163E+02  0.11758490169E+03  0.00000000000E+00 0. -1.
          4    1    3    3  501    0 -0.85438348759E+02  0.15569829663E+02  0.97892127959E+03  0.98276599588E+03  0.00000000000E+00 0. -1.
<mgrwt>
<rscale>  0 0.63356420E+03</rscale>
<asrwt>0</asrwt>
<pdfrwt beam="1">0</pdfrwt>
<pdfrwt beam="2">  1        2 0.36491312E+00 0.63356420E+03</pdfrwt>
<totfact> 0.53764311E+00</totfact>
</mgrwt>
</event>
<event>
 5    1  0.2366700E-004  0.6040475E+03  0.7818608E-02  0.9897044E-01
         13   -1    0    0    0    0  0.00000000000E+00  0.00000000000E+00  0.10000000000E+04  0.10000000000E+04  0.00000000000E+00 0. -1.
          2   -1    0    0  501    0 -0.00000000000E+00 -0.00000000000E+00 -0.91218352818E+02  0.91218352818E+02  0.00000000000E+00 0. -1.
    9000006    2    1    2  501    0  0.00000000000E+00  0.00000000000E+00  0.90878164718E+03  0.10912183528E+04  0.60404752402E+03 0.  0.
         13    1    3    3    0    0 -0.85992600837E+02 -0.23076602844E+03  0.13853200990E+03  0.28255761368E+03  0.00000000000E+00 0. -1.
          4    1    3    3  501    0  0.85992600837E+02  0.23076602844E+03  0.77024963729E+03  0.80866073914E+03  0.00000000000E+00 0. -1.
<mgrwt>
<rscale>  0 0.60404752E+03</rscale>
<asrwt>0</asrwt>
<pdfrwt beam="1">0</pdfrwt>
<pdfrwt beam="2">  1        2 0.33170380E+00 0.60404752E+03</pdfrwt>
<totfact> 0.71030429E+00</totfact>
</mgrwt>
</event>
<event>
 5    1  0.2366700E-004  0.6538287E+03  0.7818608E-02  0.9799621E-01
         13   -1    0    0    0    0  0.00000000000E+00  0.00000000000E+00  0.10000000000E+04  0.10000000000E+04  0.00000000000E+00 0. -1.
          2   -1    0    0  501    0 -0.00000000000E+00 -0.00000000000E+00 -0.10687300088E+03  0.10687300088E+03  0.00000000000E+00 0. -1.
    9000006    2    1    2  501    0  0.00000000000E+00  0.00000000000E+00  0.89312699912E+03  0.11068730009E+04  0.65382872643E+03 0.  0.
         13    1    3    3    0    0 -0.25531671126E+03 -0.84872769959E+02  0.13219700002E+03  0.29977667845E+03  0.00000000000E+00 0. -1.
          2    1    3    3  501    0  0.25531671126E+03  0.84872769959E+02  0.76092999911E+03  0.80709632242E+03  0.00000000000E+00 0. -1.
<mgrwt>
<rscale>  0 0.65382873E+03</rscale>
<asrwt>0</asrwt>
<pdfrwt beam="1">0</pdfrwt>
<pdfrwt beam="2">  1        2 0.38862991E+00 0.65382873E+03</pdfrwt>
<totfact> 0.43904389E+00</totfact>
</mgrwt>
</event>
<event>
 5    1  0.2366700E-004  0.6467620E+03  0.7818608E-02  0.9812874E-01
         13   -1    0    0    0    0  0.00000000000E+00  0.00000000000E+00  0.10000000000E+04  0.10000000000E+04  0.00000000000E+00 0. -1.
          2   -1    0    0  501    0 -0.00000000000E+00 -0.00000000000E+00 -0.10457527158E+03  0.10457527158E+03  0.00000000000E+00 0. -1.
    9000006    2    1    2  501    0  0.00000000000E+00  0.00000000000E+00  0.89542472842E+03  0.11045752716E+04  0.64676200129E+03 0.  0.
         13    1    3    3    0    0  0.30092805631E+03 -0.76987108345E+02  0.29409505418E+03  0.42775765430E+03  0.00000000000E+00 0. -1.
          4    1    3    3  501    0 -0.30092805631E+03  0.76987108345E+02  0.60132967425E+03  0.67681761728E+03  0.00000000000E+00 0. -1.
<mgrwt>
<rscale>  0 0.64676200E+03</rscale>
<asrwt>0</asrwt>
<pdfrwt beam="1">0</pdfrwt>
<pdfrwt beam="2">  1        2 0.38027452E+00 0.64676200E+03</pdfrwt>
<totfact> 0.47172032E+00</totfact>
</mgrwt>
</event>
<event>
 5    1  0.2366700E-004  0.6125969E+03  0.7818608E-02  0.9879611E-01
         13   -1    0    0    0    0  0.00000000000E+00  0.00000000000E+00  0.10000000000E+04  0.10000000000E+04  0.00000000000E+00 0. -1.
          2   -1    0    0  501    0 -0.00000000000E+00 -0.00000000000E+00 -0.93818740898E+02  0.93818740898E+02  0.00000000000E+00 0. -1.
    9000006    2    1    2  501    0  0.00000000000E+00  0.00000000000E+00  0.90618125910E+03  0.10938187409E+04  0.61259690139E+03 0.  0.
         13    1    3    3    0    0 -0.12707736453E+02 -0.27848692421E+03  0.67966686196E+03  0.73461792570E+03  0.00000000000E+00 0. -1.
          2    1    3    3  501    0  0.12707736453E+02  0.27848692421E+03  0.22651439714E+03  0.35920081519E+03  0.00000000000E+00 0. -1.
<mgrwt>
<rscale>  0 0.61259690E+03</rscale>
<asrwt>0</asrwt>
<pdfrwt beam="1">0</pdfrwt>
<pdfrwt beam="2">  1        2 0.34115978E+00 0.61259690E+03</pdfrwt>
<totfact> 0.65648666E+00</totfact>
</mgrwt>
</event>
<event>
 5    1  0.2366700E-004  0.6510812E+03  0.7818608E-02  0.9804753E-01
         13   -1    0    0    0    0  0.00000000000E+00  0.00000000000E+00  0.10000000000E+04  0.10000000000E+04  0.00000000000E+00 0. -1.
          2   -1    0    0  501    0 -0.00000000000E+00 -0.00000000000E+00 -0.10597667491E+03  0.10597667491E+03  0.00000000000E+00 0. -1.
    9000006    2    1    2  501    0  0.00000000000E+00  0.00000000000E+00  0.89402332509E+03  0.11059766749E+04  0.65108117746E+03 0.  0.
         13    1    3    3    0    0  0.21778788537E+03  0.20212134067E+03  0.67295535407E+03  0.73563136688E+03  0.00000000000E+00 0. -1.
          4    1    3    3  501    0 -0.21778788537E+03 -0.20212134067E+03  0.22106797102E+03  0.37034530803E+03  0.00000000000E+00 0. -1.
<mgrwt>
<rscale>  0 0.65108118E+03</rscale>
<asrwt>0</asrwt>
<pdfrwt beam="1">0</pdfrwt>
<pdfrwt beam="2">  1        2 0.38537054E+00 0.65108118E+03</pdfrwt>
<totfact> 0.45153820E+00</totfact>
</mgrwt>
</event>
<event>
 5    1  0.2366700E-004  0.6603572E+03  0.7818608E-02  0.9787536E-01
         13   -1    0    0    0    0  0.00000000000E+00  0.00000000000E+00  0.10000000000E+04  0.10000000000E+04  0.00000000000E+00 0. -1.
          2   -1    0    0  501    0 -0.00000000000E+00 -0.00000000000E+00 -0.10901791761E+03  0.10901791761E+03  0.00000000000E+00 0. -1.
    9000006    2    1    2  501    0  0.00000000000E+00  0.00000000000E+00  0.89098208239E+03  0.11090179176E+04  0.66035722941E+03 0.  0.
         13    1    3    3    0    0 -0.24737927638E+03  0.19146115385E+03  0.26804338186E+03  0.41194797532E+03  0.00000000000E+00 0. -1.
          4    1    3    3  501    0  0.24737927638E+03 -0.19146115385E+03  0.62293870053E+03  0.69706994228E+03  0.00000000000E+00 0. -1.
<mgrwt>
<rscale>  0 0.66035723E+03</rscale>
<asrwt>0</asrwt>
<pdfrwt beam="1">0</pdfrwt>
<pdfrwt beam="2">  1        2 0.39642963E+00 0.66035723E+03</pdfrwt>
<totfact> 0.41040421E+00</totfact>
</mgrwt>
</event>
<event>
 5    1  0.2366700E-004  0.6510699E+03  0.7818608E-02  0.9804774E-01
         13   -1    0    0    0    0  0.00000000000E+00  0.00000000000E+00  0.10000000000E+04  0.10000000000E+04  0.00000000000E+00 0. -1.
          2   -1    0    0  501    0 -0.00000000000E+00 -0.00000000000E+00 -0.10597301562E+03  0.10597301562E+03  0.00000000000E+00 0. -1.
    9000006    2    1    2  501    0  0.00000000000E+00  0.00000000000E+00  0.89402698438E+03  0.11059730156E+04  0.65106993672E+03 0.  0.
         13    1    3    3    0    0 -0.11906320008E+03  0.27406962374E+03  0.22760597239E+03  0.37562572188E+03  0.00000000000E+00 0. -1.
          4    1    3    3  501    0  0.11906320008E+03 -0.27406962374E+03  0.66642101199E+03  0.73034729375E+03  0.00000000000E+00 0. -1.
<mgrwt>
<rscale>  0 0.65106994E+03</rscale>
<asrwt>0</asrwt>
<pdfrwt beam="1">0</pdfrwt>
<pdfrwt beam="2">  1        2 0.38535723E+00 0.65106994E+03</pdfrwt>
<totfact> 0.45158986E+00</totfact>
</mgrwt>
</event>
<event>
 5    1  0.2366700E-004  0.6510518E+03  0.7818608E-02  0.9804808E-01
         13   -1    0    0    0    0  0.00000000000E+00  0.00000000000E+00  0.10000000000E+04  0.10000000000E+04  0.00000000000E+00 0. -1.
          2   -1    0    0  501    0 -0.00000000000E+00 -0.00000000000E+00 -0.10596711991E+03  0.10596711991E+03  0.00000000000E+00 0. -1.
    9000006    2    1    2  501    0  0.00000000000E+00  0.00000000000E+00  0.89403288009E+03  0.11059671199E+04  0.65105182561E+03 0.  0.
         13    1    3    3    0    0  0.81342680363E+02  0.25721555763E+02 -0.86638810125E+02  0.12159158482E+03  0.00000000000E+00 0. -1.
          4    1    3    3  501    0 -0.81342680363E+02 -0.25721555763E+02  0.98067169022E+03  0.98437553509E+03  0.00000000000E+00 0. -1.
<mgrwt>
<rscale>  0 0.65105183E+03</rscale>
<asrwt>0</asrwt>
<pdfrwt beam="1">0</pdfrwt>
<pdfrwt beam="2">  1        2 0.38533579E+00 0.65105183E+03</pdfrwt>
<totfact> 0.45167311E+00</totfact>
</mgrwt>
</event>
<event>
 5    1  0.2366700E-004  0.6584222E+03  0.7818608E-02  0.9791103E-01
         13   -1    0    0    0    0  0.00000000000E+00  0.00000000000E+00  0.10000000000E+04  0.10000000000E+04  0.00000000000E+00 0. -1.
          2   -1    0    0  501    0 -0.00000000000E+00 -0.00000000000E+00 -0.10837993952E+03  0.10837993952E+03  0.00000000000E+00 0. -1.
    9000006    2    1    2  501    0  0.00000000000E+00  0.00000000000E+00  0.89162006048E+03  0.11083799395E+04  0.65842217313E+03 0.  0.
         13    1    3    3    0    0  0.67010864906E+02  0.15138721262E+03 -0.33205970786E+02  0.16885254116E+03  0.00000000000E+00 0. -1.
          4    1    3    3  501    0 -0.67010864906E+02 -0.15138721262E+03  0.92482603127E+03  0.93952739836E+03  0.00000000000E+00 0. -1.
<mgrwt>
<rscale>  0 0.65842217E+03</rscale>
<asrwt>0</asrwt>
<pdfrwt beam="1">0</pdfrwt>
<pdfrwt beam="2">  1        2 0.39410970E+00 0.65842217E+03</pdfrwt>
<totfact> 0.41874083E+00</totfact>
</mgrwt>
</event>
<event>
 5    1  0.2366700E-004  0.6449939E+03  0.7818608E-02  0.9816218E-01
         13   -1    0    0    0    0  0.00000000000E+00  0.00000000000E+00  0.10000000000E+04  0.10000000000E+04  0.00000000000E+00 0. -1.
          2   -1    0    0  501    0 -0.00000000000E+00 -0.00000000000E+00 -0.10400427420E+03  0.10400427420E+03  0.00000000000E+00 0. -1.
    9000006    2    1    2  501    0  0.00000000000E+00  0.00000000000E+00  0.89599572580E+03  0.11040042742E+04  0.64499387345E+03 0.  0.
         13    1    3    3    0    0  0.13573461820E+03  0.17254766533E+02  0.94785458379E+03  0.95767944822E+03  0.00000000000E+00 0. -1.
          2    1    3    3  501    0 -0.13573461820E+03 -0.17254766533E+02 -0.51858857984E+02  0.14632482597E+03  0.00000000000E+00 0. -1.
<mgrwt>
<rscale>  0 0.64499387E+03</rscale>
<asrwt>0</asrwt>
<pdfrwt beam="1">0</pdfrwt>
<pdfrwt beam="2">  1        2 0.37819816E+00 0.64499387E+03</pdfrwt>
<totfact> 0.48017602E+00</totfact>
</mgrwt>
</event>
<event>
 5    1  0.2366700E-004  0.6427054E+03  0.7818608E-02  0.9820564E-01
         13   -1    0    0    0    0  0.00000000000E+00  0.00000000000E+00  0.10000000000E+04  0.10000000000E+04  0.00000000000E+00 0. -1.
          2   -1    0    0  501    0 -0.00000000000E+00 -0.00000000000E+00 -0.10326754729E+03  0.10326754729E+03  0.00000000000E+00 0. -1.
    9000006    2    1    2  501    0  0.00000000000E+00  0.00000000000E+00  0.89673245271E+03  0.11032675473E+04  0.64270536732E+03 0.  0.
         13    1    3    3    0    0 -0.30530771437E+03 -0.87036862586E+02  0.53384065501E+03  0.62110712510E+03  0.00000000000E+00 0. -1.
          2    1    3    3  501    0  0.30530771437E+03  0.87036862586E+02  0.36289179769E+03  0.48216042220E+03  0.00000000000E+00 0. -1.
<mgrwt>
<rscale>  0 0.64270537E+03</rscale>
<asrwt>0</asrwt>
<pdfrwt beam="1">0</pdfrwt>
<pdfrwt beam="2">  1        2 0.37551915E+00 0.64270537E+03</pdfrwt>
<totfact> 0.49129003E+00</totfact>
</mgrwt>
</event>
<event>
 5    1  0.2366700E-004  0.6391286E+03  0.7818608E-02  0.9827395E-01
         13   -1    0    0    0    0  0.00000000000E+00  0.00000000000E+00  0.10000000000E+04  0.10000000000E+04  0.00000000000E+00 0. -1.
          2   -1    0    0  501    0 -0.00000000000E+00 -0.00000000000E+00 -0.10212134757E+03  0.10212134757E+03  0.00000000000E+00 0. -1.
    9000006    2    1    2  501    0  0.00000000000E+00  0.00000000000E+00  0.89787865243E+03  0.11021213476E+04  0.63912861795E+03 0.  0.
         13    1    3    3    0    0  0.20316540654E+03  0.15185462832E+03  0.78413839268E+03  0.82414138922E+03  0.00000000000E+00 0. -1.
          4    1    3    3  501    0 -0.20316540654E+03 -0.15185462832E+03  0.11374025975E+03  0.27797995835E+03  0.00000000000E+00 0. -1.
<mgrwt>
<rscale>  0 0.63912862E+03</rscale>
<asrwt>0</asrwt>
<pdfrwt beam="1">0</pdfrwt>
<pdfrwt beam="2">  1        2 0.37135114E+00 0.63912862E+03</pdfrwt>
<totfact> 0.50905068E+00</totfact>
</mgrwt>
</event>
<event>
 5    1  0.2366700E-004  0.6471885E+03  0.7818608E-02  0.9812069E-01
         13   -1    0    0    0    0  0.00000000000E+00  0.00000000000E+00  0.10000000000E+04  0.10000000000E+04  0.00000000000E+00 0. -1.
          2   -1    0    0  501    0 -0.00000000000E+00 -0.00000000000E+00 -0.10471325432E+03  0.10471325432E+03  0.00000000000E+00 0. -1.
    9000006    2    1    2  501    0  0.00000000000E+00  0.00000000000E+00  0.89528674568E+03  0.11047132543E+04  0.64718854849E+03 0.  0.
         13    1    3    3    0    0 -0.22585853006E+03  0.23079879417E+03  0.48316644291E+03  0.58114539536E+03  0.00000000000E+00 0. -1.
          4    1    3    3  501    0  0.22585853006E+03 -0.23079879417E+03  0.41212030276E+03  0.52356785896E+03  0.00000000000E+00 0. -1.
<mgrwt>
<rscale>  0 0.64718855E+03</rscale>
<asrwt>0</asrwt>
<pdfrwt beam="1">0</pdfrwt>
<pdfrwt beam="2">  1        2 0.38077627E+00 0.64718855E+03</pdfrwt>
<totfact> 0.46969743E+00</totfact>
</mgrwt>
</event>
<event>
 5    1  0.2366700E-004  0.6380025E+03  0.7818608E-02  0.9829556E-01
         13   -1    0    0    0    0  0.00000000000E+00  0.00000000000E+00  0.10000000000E+04  0.10000000000E+04  0.00000000000E+00 0. -1.
          2   -1    0    0  501    0 -0.00000000000E+00 -0.00000000000E+00 -0.10176180725E+03  0.10176180725E+03  0.00000000000E+00 0. -1.
    9000006    2    1    2  501    0  0.00000000000E+00  0.00000000000E+00  0.89823819275E+03  0.11017618072E+04  0.63800253054E+03 0.  0.
         13    1    3    3    0    0 -0.25887864656E+03 -0.64073022078E+02  0.75139091190E+03  0.79731537568E+03  0.00000000000E+00 0. -1.
          4    1    3    3  501    0  0.25887864656E+03  0.64073022078E+02  0.14684728085E+03  0.30444643157E+03  0.00000000000E+00 0. -1.
<mgrwt>
<rscale>  0 0.63800253E+03</rscale>
<asrwt>0</asrwt>
<pdfrwt beam="1">0</pdfrwt>
<pdfrwt beam="2">  1        2 0.37004372E+00 0.63800253E+03</pdfrwt>
<totfact> 0.51474172E+00</totfact>
</mgrwt>
</event>
<event>
 5    1  0.2366700E-004  0.6602398E+03  0.7818608E-02  0.9787752E-01
         13   -1    0    0    0    0  0.00000000000E+00  0.00000000000E+00  0.10000000000E+04  0.10000000000E+04  0.00000000000E+00 0. -1.
          2   -1    0    0  501    0 -0.00000000000E+00 -0.00000000000E+00 -0.10897916045E+03  0.10897916045E+03  0.00000000000E+00 0. -1.
    9000006    2    1    2  501    0  0.00000000000E+00  0.00000000000E+00  0.89102083955E+03  0.11089791604E+04  0.66023983657E+03 0.  0.
         13    1    3    3    0    0 -0.30502512390E+03  0.17856247840E+02  0.23558645626E+03  0.38582398859E+03  0.00000000000E+00 0. -1.
          2    1    3    3  501    0  0.30502512390E+03 -0.17856247840E+02  0.65543438329E+03  0.72315517186E+03  0.00000000000E+00 0. -1.
<mgrwt>
<rscale>  0 0.66023984E+03</rscale>
<asrwt>0</asrwt>
<pdfrwt beam="1">0</pdfrwt>
<pdfrwt beam="2">  1        2 0.39628869E+00 0.66023984E+03</pdfrwt>
<totfact> 0.41090636E+00</totfact>
</mgrwt>
</event>
<event>
 5    1  0.2366700E-004  0.6463991E+03  0.7818608E-02  0.9813560E-01
         13   -1    0    0    0    0  0.00000000000E+00  0.00000000000E+00  0.10000000000E+04  0.10000000000E+04  0.00000000000E+00 0. -1.
          2   -1    0    0  501    0 -0.00000000000E+00 -0.00000000000E+00 -0.10445794494E+03  0.10445794494E+03  0.00000000000E+00 0. -1.
    9000006    2    1    2  501    0  0.00000000000E+00  0.00000000000E+00  0.89554205506E+03  0.11044579449E+04  0.64639908706E+03 0.  0.
         13    1    3    3    0    0  0.23270041482E+03  0.20916569705E+03  0.30940168236E+03  0.44003314980E+03  0.00000000000E+00 0. -1.
          4    1    3    3  501    0 -0.23270041482E+03 -0.20916569705E+03  0.58614037270E+03  0.66442479514E+03  0.00000000000E+00 0. -1.
<mgrwt>
<rscale>  0 0.64639909E+03</rscale>
<asrwt>0</asrwt>
<pdfrwt beam="1">0</pdfrwt>
<pdfrwt beam="2">  1        2 0.37984787E+00 0.64639909E+03</pdfrwt>
<totfact> 0.47344662E+00</totfact>
</mgrwt>
</event>
<event>
 5    1  0.2366700E-004  0.6498300E+03  0.7818608E-02  0.9807098E-01
         13   -1    0    0    0    0  0.00000000000E+00  0.00000000000E+00  0.10000000000E+04  0.10000000000E+04  0.00000000000E+00 0. -1.
          2   -1    0    0  501    0 -0.00000000000E+00 -0.00000000000E+00 -0.10556976796E+03  0.10556976796E+03  0.00000000000E+00 0. -1.
    9000006    2    1    2  501    0  0.00000000000E+00  0.00000000000E+00  0.89443023204E+03  0.11055697680E+04  0.64983003304E+03 0.  0.
         13    1    3    3    0    0 -0.13258316378E+03  0.25998857555E+03  0.20423321681E+03  0.35620718912E+03  0.00000000000E+00 0. -1.
          4    1    3    3  501    0  0.13258316378E+03 -0.25998857555E+03  0.69019701523E+03  0.74936257884E+03  0.00000000000E+00 0. -1.
<mgrwt>
<rscale>  0 0.64983003E+03</rscale>
<asrwt>0</asrwt>
<pdfrwt beam="1">0</pdfrwt>
<pdfrwt beam="2">  1        2 0.38389087E+00 0.64983003E+03</pdfrwt>
<totfact> 0.45731588E+00</totfact>
</mgrwt>
</event>
<event>
 5    1  0.2366700E-004  0.6343017E+03  0.7818608E-02  0.9836690E-01
         13   -1    0    0    0    0  0.00000000000E+00  0.00000000000E+00  0.10000000000E+04  0.10000000000E+04  0.00000000000E+00 0. -1.
          2   -1    0    0  501    0 -0.00000000000E+00 -0.00000000000E+00 -0.10058466320E+03  0.10058466320E+03  0.00000000000E+00 0. -1.
    9000006    2    1    2  501    0  0.00000000000E+00  0.00000000000E+00  0.89941533680E+03  0.11005846632E+04  0.63430170487E+03 0.  0.
         13    1    3    3    0    0  0.92364893445E+02  0.29974003618E+03  0.36815184806E+03  0.48364361472E+03  0.00000000000E+00 0. -1.
          4    1    3    3  501    0 -0.92364893445E+02 -0.29974003618E+03  0.53126348874E+03  0.61694104848E+03  0.00000000000E+00 0. -1.
<mgrwt>
<rscale>  0 0.63430170E+03</rscale>
<asrwt>0</asrwt>
<pdfrwt beam="1">0</pdfrwt>
<pdfrwt beam="2">  1        2 0.36576318E+00 0.63430170E+03</pdfrwt>
<totfact> 0.53378516E+00</totfact>
</mgrwt>
</event>
<event>
 5    1  0.2366700E-004  0.6604752E+03  0.7818608E-02  0.9787319E-01
         13   -1    0    0    0    0  0.00000000000E+00  0.00000000000E+00  0.10000000000E+04  0.10000000000E+04  0.00000000000E+00 0. -1.
          2   -1    0    0  501    0 -0.00000000000E+00 -0.00000000000E+00 -0.10905686494E+03  0.10905686494E+03  0.00000000000E+00 0. -1.
    9000006    2    1    2  501    0  0.00000000000E+00  0.00000000000E+00  0.89094313506E+03  0.11090568649E+04  0.66047517724E+03 0.  0.
         13    1    3    3    0    0 -0.72998670875E+02 -0.29044458953E+02  0.98407887877E+03  0.98721002131E+03  0.00000000000E+00 0. -1.
          4    1    3    3  501    0  0.72998670875E+02  0.29044458953E+02 -0.93135743704E+02  0.12184684362E+03  0.00000000000E+00 0. -1.
<mgrwt>
<rscale>  0 0.66047518E+03</rscale>
<asrwt>0</asrwt>
<pdfrwt beam="1">0</pdfrwt>
<pdfrwt beam="2">  1        2 0.39657125E+00 0.66047518E+03</pdfrwt>
<totfact> 0.40990015E+00</totfact>
</mgrwt>
</event>
<event>
 5    1  0.2366700E-004  0.6571104E+03  0.7818608E-02  0.9793528E-01
         13   -1    0    0    0    0  0.00000000000E+00  0.00000000000E+00  0.10000000000E+04  0.10000000000E+04  0.00000000000E+00 0. -1.
          2   -1    0    0  501    0 -0.00000000000E+00 -0.00000000000E+00 -0.10794852106E+03  0.10794852106E+03  0.00000000000E+00 0. -1.
    9000006    2    1    2  501    0  0.00000000000E+00  0.00000000000E+00  0.89205147894E+03  0.11079485211E+04  0.65711040491E+03 0.  0.
         13    1    3    3    0    0  0.13733806861E+03 -0.47146520004E+02 -0.50910997909E+02  0.15387159954E+03  0.00000000000E+00 0. -1.
          4    1    3    3  501    0 -0.13733806861E+03  0.47146520004E+02  0.94296247685E+03  0.95407692152E+03  0.00000000000E+00 0. -1.
<mgrwt>
<rscale>  0 0.65711040E+03</rscale>
<asrwt>0</asrwt>
<pdfrwt beam="1">0</pdfrwt>
<pdfrwt beam="2">  1        2 0.39254090E+00 0.65711040E+03</pdfrwt>
<totfact> 0.42446488E+00</totfact>
</mgrwt>
</event>
<event>
 5    1  0.2366700E-004  0.6673398E+03  0.7818608E-02  0.9774775E-01
         13   -1    0    0    0    0  0.00000000000E+00  0.00000000000E+00  0.10000000000E+04  0.10000000000E+04  0.00000000000E+00 0. -1.
          2   -1    0    0  501    0 -0.00000000000E+00 -0.00000000000E+00 -0.11133561363E+03  0.11133561363E+03  0.00000000000E+00 0. -1.
    9000006    2    1    2  501    0  0.00000000000E+00  0.00000000000E+00  0.88866438637E+03  0.11113356136E+04  0.66733983435E+03 0.  0.
         13    1    3    3    0    0 -0.18490884112E+03  0.21669992790E+02 -0.16798844192E+02  0.18693065366E+03  0.00000000000E+00 0. -1.
          2    1    3    3  501    0  0.18490884112E+03 -0.21669992790E+02  0.90546323056E+03  0.92440495997E+03  0.00000000000E+00 0. -1.
<mgrwt>
<rscale>  0 0.66733983E+03</rscale>
<asrwt>0</asrwt>
<pdfrwt beam="1">0</pdfrwt>
<pdfrwt beam="2">  1        2 0.40485763E+00 0.66733983E+03</pdfrwt>
<totfact> 0.38135879E+00</totfact>
</mgrwt>
</event>
<event>
 5    1  0.2366700E-004  0.6388492E+03  0.7818608E-02  0.9827931E-01
         13   -1    0    0    0    0  0.00000000000E+00  0.00000000000E+00  0.10000000000E+04  0.10000000000E+04  0.00000000000E+00 0. -1.
          2   -1    0    0  501    0 -0.00000000000E+00 -0.00000000000E+00 -0.10203207633E+03  0.10203207633E+03  0.00000000000E+00 0. -1.
    9000006    2    1    2  501    0  0.00000000000E+00  0.00000000000E+00  0.89796792367E+03  0.11020320763E+04  0.63884920389E+03 0.  0.
         13    1    3    3    0    0  0.23804530142E+03 -0.63287380913E+02  0.98157342594E+02  0.26515226195E+03  0.00000000000E+00 0. -1.
          2    1    3    3  501    0 -0.23804530142E+03  0.63287380913E+02  0.79981058108E+03  0.83687981438E+03  0.00000000000E+00 0. -1.
<mgrwt>
<rscale>  0 0.63884920E+03</rscale>
<asrwt>0</asrwt>
<pdfrwt beam="1">0</pdfrwt>
<pdfrwt beam="2">  1        2 0.37102651E+00 0.63884920E+03</pdfrwt>
<totfact> 0.51045832E+00</totfact>
</mgrwt>
</event>
<event>
 5    1  0.2366700E-004  0.6359935E+03  0.7818608E-02  0.9833422E-01
         13   -1    0    0    0    0  0.00000000000E+00  0.00000000000E+00  0.10000000000E+04  0.10000000000E+04  0.00000000000E+00 0. -1.
          2   -1    0    0  501    0 -0.00000000000E+00 -0.00000000000E+00 -0.10112193553E+03  0.10112193553E+03  0.00000000000E+00 0. -1.
    9000006    2    1    2  501    0  0.00000000000E+00  0.00000000000E+00  0.89887806447E+03  0.11011219355E+04  0.63599350793E+03 0.  0.
         13    1    3    3    0    0 -0.77201529893E+02 -0.30201363870E+03  0.34063112362E+03  0.46173788729E+03  0.00000000000E+00 0. -1.
          4    1    3    3  501    0  0.77201529893E+02  0.30201363870E+03  0.55824694085E+03  0.63938404825E+03  0.00000000000E+00 0. -1.
<mgrwt>
<rscale>  0 0.63599351E+03</rscale>
<asrwt>0</asrwt>
<pdfrwt beam="1">0</pdfrwt>
<pdfrwt beam="2">  1        2 0.36771690E+00 0.63599351E+03</pdfrwt>
<totfact> 0.52501453E+00</totfact>
</mgrwt>
</event>
<event>
 5    1  0.2366700E-004  0.6324825E+03  0.7818608E-02  0.9840216E-01
         13   -1    0    0    0    0  0.00000000000E+00  0.00000000000E+00  0.10000000000E+04  0.10000000000E+04  0.00000000000E+00 0. -1.
          2   -1    0    0  501    0 -0.00000000000E+00 -0.00000000000E+00 -0.10000852115E+03  0.10000852115E+03  0.00000000000E+00 0. -1.
    9000006    2    1    2  501    0  0.00000000000E+00  0.00000000000E+00  0.89999147885E+03  0.11000085211E+04  0.63248247770E+03 0.  0.
         13    1    3    3    0    0  0.96537678867E+02  0.53607118154E+02 -0.65390219956E+02  0.12833209818E+03  0.00000000000E+00 0. -1.
          2    1    3    3  501    0 -0.96537678867E+02 -0.53607118154E+02  0.96538169881E+03  0.97167642297E+03  0.00000000000E+00 0. -1.
<mgrwt>
<rscale>  0 0.63248248E+03</rscale>
<asrwt>0</asrwt>
<pdfrwt beam="1">0</pdfrwt>
<pdfrwt beam="2">  1        2 0.36366812E+00 0.63248248E+03</pdfrwt>
<totfact> 0.54333986E+00</totfact>
</mgrwt>
</event>
<event>
 5    1  0.2366700E-004  0.6416233E+03  0.7818608E-02  0.9822626E-01
         13   -1    0    0    0    0  0.00000000000E+00  0.00000000000E+00  0.10000000000E+04  0.10000000000E+04  0.00000000000E+00 0. -1.
          2   -1    0    0  501    0 -0.00000000000E+00 -0.00000000000E+00 -0.10292011376E+03  0.10292011376E+03  0.00000000000E+00 0. -1.
    9000006    2    1    2  501    0  0.00000000000E+00  0.00000000000E+00  0.89707988624E+03  0.11029201138E+04  0.64162329683E+03 0.  0.
         13    1    3    3    0    0 -0.31235780087E+03 -0.62340601245E+02  0.51436410461E+03  0.60499932102E+03  0.00000000000E+00 0. -1.
          4    1    3    3  501    0  0.31235780087E+03  0.62340601245E+02  0.38271578163E+03  0.49792079273E+03  0.00000000000E+00 0. -1.
<mgrwt>
<rscale>  0 0.64162330E+03</rscale>
<asrwt>0</asrwt>
<pdfrwt beam="1">0</pdfrwt>
<pdfrwt beam="2">  1        2 0.37425575E+00 0.64162330E+03</pdfrwt>
<totfact> 0.49661281E+00</totfact>
</mgrwt>
</event>
<event>
 5    1  0.2366700E-004  0.6358771E+03  0.7818608E-02  0.9833647E-01
         13   -1    0    0    0    0  0.00000000000E+00  0.00000000000E+00  0.10000000000E+04  0.10000000000E+04  0.00000000000E+00 0. -1.
          2   -1    0    0  501    0 -0.00000000000E+00 -0.00000000000E+00 -0.10108493688E+03  0.10108493688E+03  0.00000000000E+00 0. -1.
    9000006    2    1    2  501    0  0.00000000000E+00  0.00000000000E+00  0.89891506312E+03  0.11010849369E+04  0.63587714815E+03 0.  0.
         13    1    3    3    0    0 -0.21813097247E+03 -0.20963196717E+03  0.28016535490E+03  0.41233397737E+03  0.00000000000E+00 0. -1.
          4    1    3    3  501    0  0.21813097247E+03  0.20963196717E+03  0.61874970822E+03  0.68875095951E+03  0.00000000000E+00 0. -1.
<mgrwt>
<rscale>  0 0.63587715E+03</rscale>
<asrwt>0</asrwt>
<pdfrwt beam="1">0</pdfrwt>
<pdfrwt beam="2">  1        2 0.36758236E+00 0.63587715E+03</pdfrwt>
<totfact> 0.52561424E+00</totfact>
</mgrwt>
</event>
<event>
 5    1  0.2366700E-004  0.5020443E+03  0.7818608E-02  0.1013247E+00
         13   -1    0    0    0    0  0.00000000000E+00  0.00000000000E+00  0.10000000000E+04  0.10000000000E+04  0.00000000000E+00 0. -1.
          2   -1    0    0  501    0 -0.00000000000E+00 -0.00000000000E+00 -0.63012107658E+02  0.63012107658E+02  0.00000000000E+00 0. -1.
    9000006    2    1    2  501    0  0.00000000000E+00  0.00000000000E+00  0.93698789234E+03  0.10630121077E+04  0.50204425167E+03 0.  0.
         13    1    3    3    0    0  0.23793345816E+03  0.49969191378E+02  0.33621597199E+03  0.41491014741E+03  0.00000000000E+00 0. -1.
          2    1    3    3  501    0 -0.23793345816E+03 -0.49969191378E+02  0.60077192035E+03  0.64810196025E+03  0.00000000000E+00 0. -1.
<mgrwt>
<rscale>  0 0.50204425E+03</rscale>
<asrwt>0</asrwt>
<pdfrwt beam="1">0</pdfrwt>
<pdfrwt beam="2">  1        2 0.22913542E+00 0.50204425E+03</pdfrwt>
<totfact> 0.16584183E+01</totfact>
</mgrwt>
</event>
<event>
 5    1  0.2366700E-004  0.6477820E+03  0.7818608E-02  0.9810950E-01
         13   -1    0    0    0    0  0.00000000000E+00  0.00000000000E+00  0.10000000000E+04  0.10000000000E+04  0.00000000000E+00 0. -1.
          2   -1    0    0  501    0 -0.00000000000E+00 -0.00000000000E+00 -0.10490537257E+03  0.10490537257E+03  0.00000000000E+00 0. -1.
    9000006    2    1    2  501    0  0.00000000000E+00  0.00000000000E+00  0.89509462743E+03  0.11049053726E+04  0.64778197743E+03 0.  0.
         13    1    3    3    0    0  0.29735933605E+02 -0.19556189997E+03  0.10093474504E+02  0.19806706110E+03  0.00000000000E+00 0. -1.
          2    1    3    3  501    0 -0.29735933605E+02  0.19556189997E+03  0.88500115293E+03  0.90683831147E+03  0.00000000000E+00 0. -1.
<mgrwt>
<rscale>  0 0.64778198E+03</rscale>
<asrwt>0</asrwt>
<pdfrwt beam="1">0</pdfrwt>
<pdfrwt beam="2">  1        2 0.38147489E+00 0.64778198E+03</pdfrwt>
<totfact> 0.46689401E+00</totfact>
</mgrwt>
</event>
<event>
 5    1  0.2366700E-004  0.6457274E+03  0.7818608E-02  0.9814830E-01
         13   -1    0    0    0    0  0.00000000000E+00  0.00000000000E+00  0.10000000000E+04  0.10000000000E+04  0.00000000000E+00 0. -1.
          2   -1    0    0  501    0 -0.00000000000E+00 -0.00000000000E+00 -0.10424095424E+03  0.10424095424E+03  0.00000000000E+00 0. -1.
    9000006    2    1    2  501    0  0.00000000000E+00  0.00000000000E+00  0.89575904576E+03  0.11042409542E+04  0.64572735496E+03 0.  0.
         13    1    3    3    0    0 -0.12563729305E+03 -0.11130336973E+03 -0.23765276261E+02  0.16952273557E+03  0.00000000000E+00 0. -1.
          2    1    3    3  501    0  0.12563729305E+03  0.11130336973E+03  0.91952432202E+03  0.93471821867E+03  0.00000000000E+00 0. -1.
<mgrwt>
<rscale>  0 0.64572735E+03</rscale>
<asrwt>0</asrwt>
<pdfrwt beam="1">0</pdfrwt>
<pdfrwt beam="2">  1        2 0.37905881E+00 0.64572735E+03</pdfrwt>
<totfact> 0.47665450E+00</totfact>
</mgrwt>
</event>
<event>
 5    1  0.2366700E-004  0.6133499E+03  0.7818608E-02  0.9878090E-01
         13   -1    0    0    0    0  0.00000000000E+00  0.00000000000E+00  0.10000000000E+04  0.10000000000E+04  0.00000000000E+00 0. -1.
          2   -1    0    0  501    0 -0.00000000000E+00 -0.00000000000E+00 -0.94049513757E+02  0.94049513757E+02  0.00000000000E+00 0. -1.
    9000006    2    1    2  501    0  0.00000000000E+00  0.00000000000E+00  0.90595048624E+03  0.10940495138E+04  0.61334986348E+03 0.  0.
         13    1    3    3    0    0  0.10737048157E+03 -0.28570956166E+03  0.39972744802E+03  0.50293181113E+03  0.00000000000E+00 0. -1.
          4    1    3    3  501    0 -0.10737048157E+03  0.28570956166E+03  0.50622303822E+03  0.59111770263E+03  0.00000000000E+00 0. -1.
<mgrwt>
<rscale>  0 0.61334986E+03</rscale>
<asrwt>0</asrwt>
<pdfrwt beam="1">0</pdfrwt>
<pdfrwt beam="2">  1        2 0.34199895E+00 0.61334986E+03</pdfrwt>
<totfact> 0.65190107E+00</totfact>
</mgrwt>
</event>
<event>
 5    1  0.2366700E-004  0.6682306E+03  0.7818608E-02  0.9773160E-01
         13   -1    0    0    0    0  0.00000000000E+00  0.00000000000E+00  0.10000000000E+04  0.10000000000E+04  0.00000000000E+00 0. -1.
          2   -1    0    0  501    0 -0.00000000000E+00 -0.00000000000E+00 -0.11163302422E+03  0.11163302422E+03  0.00000000000E+00 0. -1.
    9000006    2    1    2  501    0  0.00000000000E+00  0.00000000000E+00  0.88836697578E+03  0.11116330242E+04  0.66823057165E+03 0.  0.
         13    1    3    3    0    0  0.75143496079E+02 -0.26636830007E+03  0.13280938397E+03  0.30698037194E+03  0.00000000000E+00 0. -1.
          4    1    3    3  501    0 -0.75143496079E+02  0.26636830007E+03  0.75555759181E+03  0.80465265228E+03  0.00000000000E+00 0. -1.
<mgrwt>
<rscale>  0 0.66823057E+03</rscale>
<asrwt>0</asrwt>
<pdfrwt beam="1">0</pdfrwt>
<pdfrwt beam="2">  1        2 0.40593913E+00 0.66823057E+03</pdfrwt>
<totfact> 0.37776831E+00</totfact>
</mgrwt>
</event>
<event>
 5    1  0.2366700E-004  0.6266073E+03  0.7818608E-02  0.9851692E-01
         13   -1    0    0    0    0  0.00000000000E+00  0.00000000000E+00  0.10000000000E+04  0.10000000000E+04  0.00000000000E+00 0. -1.
          2   -1    0    0  501    0 -0.00000000000E+00 -0.00000000000E+00 -0.98159163572E+02  0.98159163572E+02  0.00000000000E+00 0. -1.
    9000006    2    1    2  501    0  0.00000000000E+00  0.00000000000E+00  0.90184083643E+03  0.10981591636E+04  0.62660725681E+03 0.  0.
         13    1    3    3    0    0  0.12161096486E+03 -0.76529640702E+02  0.93885046777E+03  0.94978219267E+03  0.00000000000E+00 0. -1.
          2    1    3    3  501    0 -0.12161096486E+03  0.76529640702E+02 -0.37009631346E+02  0.14837697090E+03  0.00000000000E+00 0. -1.
<mgrwt>
<rscale>  0 0.62660726E+03</rscale>
<asrwt>0</asrwt>
<pdfrwt beam="1">0</pdfrwt>
<pdfrwt beam="2">  1        2 0.35694317E+00 0.62660726E+03</pdfrwt>
<totfact> 0.57508568E+00</totfact>
</mgrwt>
</event>
<event>
 5    1  0.2366700E-004  0.6477720E+03  0.7818608E-02  0.9810969E-01
         13   -1    0    0    0    0  0.00000000000E+00  0.00000000000E+00  0.10000000000E+04  0.10000000000E+04  0.00000000000E+00 0. -1.
          2   -1    0    0  501    0 -0.00000000000E+00 -0.00000000000E+00 -0.10490214567E+03  0.10490214567E+03  0.00000000000E+00 0. -1.
    9000006    2    1    2  501    0  0.00000000000E+00  0.00000000000E+00  0.89509785433E+03  0.11049021457E+04  0.64777201444E+03 0.  0.
         13    1    3    3    0    0  0.96881733730E+02  0.18565143373E+03  0.26101778523E+02  0.21103039596E+03  0.00000000000E+00 0. -1.
          4    1    3    3  501    0 -0.96881733730E+02 -0.18565143373E+03  0.86899607580E+03  0.89387174972E+03  0.00000000000E+00 0. -1.
<mgrwt>
<rscale>  0 0.64777201E+03</rscale>
<asrwt>0</asrwt>
<pdfrwt beam="1">0</pdfrwt>
<pdfrwt beam="2">  1        2 0.38146315E+00 0.64777201E+03</pdfrwt>
<totfact> 0.46694097E+00</totfact>
</mgrwt>
</event>
<event>
 5    1  0.2366700E-004  0.6471184E+03  0.7818608E-02  0.9812201E-01
         13   -1    0    0    0    0  0.00000000000E+00  0.00000000000E+00  0.10000000000E+04  0.10000000000E+04  0.00000000000E+00 0. -1.
          2   -1    0    0  501    0 -0.00000000000E+00 -0.00000000000E+00 -0.10469056779E+03  0.10469056779E+03  0.00000000000E+00 0. -1.
    9000006    2    1    2  501    0  0.00000000000E+00  0.00000000000E+00  0.89530943221E+03  0.11046905678E+04  0.64711843673E+03 0.  0.
         13    1    3    3    0    0  0.29774759844E+03 -0.31925968227E+02  0.23845643029E+03  0.38279807859E+03  0.00000000000E+00 0. -1.
          4    1    3    3  501    0 -0.29774759844E+03  0.31925968227E+02  0.65685300192E+03  0.72189248920E+03  0.00000000000E+00 0. -1.
<mgrwt>
<rscale>  0 0.64711844E+03</rscale>
<asrwt>0</asrwt>
<pdfrwt beam="1">0</pdfrwt>
<pdfrwt beam="2">  1        2 0.38069378E+00 0.64711844E+03</pdfrwt>
<totfact> 0.47002948E+00</totfact>
</mgrwt>
</event>
<event>
 5    1  0.2366700E-004  0.6592095E+03  0.7818608E-02  0.9789650E-01
         13   -1    0    0    0    0  0.00000000000E+00  0.00000000000E+00  0.10000000000E+04  0.10000000000E+04  0.00000000000E+00 0. -1.
          2   -1    0    0  501    0 -0.00000000000E+00 -0.00000000000E+00 -0.10863930296E+03  0.10863930296E+03  0.00000000000E+00 0. -1.
    9000006    2    1    2  501    0  0.00000000000E+00  0.00000000000E+00  0.89136069704E+03  0.11086393030E+04  0.65920953562E+03 0.  0.
         13    1    3    3    0    0 -0.16095105639E+03 -0.46926684506E+02 -0.31575092928E+02  0.17059994949E+03  0.00000000000E+00 0. -1.
          4    1    3    3  501    0  0.16095105639E+03  0.46926684506E+02  0.92293578997E+03  0.93803935348E+03  0.00000000000E+00 0. -1.
<mgrwt>
<rscale>  0 0.65920954E+03</rscale>
<asrwt>0</asrwt>
<pdfrwt beam="1">0</pdfrwt>
<pdfrwt beam="2">  1        2 0.39505284E+00 0.65920954E+03</pdfrwt>
<totfact> 0.41533343E+00</totfact>
</mgrwt>
</event>
<event>
 5    1  0.2366700E-004  0.6407439E+03  0.7818608E-02  0.9824304E-01
         13   -1    0    0    0    0  0.00000000000E+00  0.00000000000E+00  0.10000000000E+04  0.10000000000E+04  0.00000000000E+00 0. -1.
          2   -1    0    0  501    0 -0.00000000000E+00 -0.00000000000E+00 -0.10263819709E+03  0.10263819709E+03  0.00000000000E+00 0. -1.
    9000006    2    1    2  501    0  0.00000000000E+00  0.00000000000E+00  0.89736180291E+03  0.11026381971E+04  0.64074393355E+03 0.  0.
         13    1    3    3    0    0  0.65207429486E+02  0.19849055694E+03  0.86663560180E+03  0.89146383906E+03  0.00000000000E+00 0. -1.
          4    1    3    3  501    0 -0.65207429486E+02 -0.19849055694E+03  0.30726201110E+02  0.21117435803E+03  0.00000000000E+00 0. -1.
<mgrwt>
<rscale>  0 0.64074393E+03</rscale>
<asrwt>0</asrwt>
<pdfrwt beam="1">0</pdfrwt>
<pdfrwt beam="2">  1        2 0.37323059E+00 0.64074393E+03</pdfrwt>
<totfact> 0.50097053E+00</totfact>
</mgrwt>
</event>
<event>
 5    1  0.2366700E-004  0.6516226E+03  0.7818608E-02  0.9803739E-01
         13   -1    0    0    0    0  0.00000000000E+00  0.00000000000E+00  0.10000000000E+04  0.10000000000E+04  0.00000000000E+00 0. -1.
          2   -1    0    0  501    0 -0.00000000000E+00 -0.00000000000E+00 -0.10615301751E+03  0.10615301751E+03  0.00000000000E+00 0. -1.
    9000006    2    1    2  501    0  0.00000000000E+00  0.00000000000E+00  0.89384698249E+03  0.11061530175E+04  0.65162264388E+03 0.  0.
         13    1    3    3    0    0  0.29289303144E+03  0.45317305397E+02  0.67664367851E+03  0.73870606719E+03  0.00000000000E+00 0. -1.
          2    1    3    3  501    0 -0.29289303144E+03 -0.45317305397E+02  0.21720330399E+03  0.36744695032E+03  0.00000000000E+00 0. -1.
<mgrwt>
<rscale>  0 0.65162264E+03</rscale>
<asrwt>0</asrwt>
<pdfrwt beam="1">0</pdfrwt>
<pdfrwt beam="2">  1        2 0.38601179E+00 0.65162264E+03</pdfrwt>
<totfact> 0.44905493E+00</totfact>
</mgrwt>
</event>
<event>
 5    1  0.2366700E-004  0.6522074E+03  0.7818608E-02  0.9802646E-01
         13   -1    0    0    0    0  0.00000000000E+00  0.00000000000E+00  0.10000000000E+04  0.10000000000E+04  0.00000000000E+00 0. -1.
          2   -1    0    0  501    0 -0.00000000000E+00 -0.00000000000E+00 -0.10634363267E+03  0.10634363267E+03  0.00000000000E+00 0. -1.
    9000006    2    1    2  501    0  0.00000000000E+00  0.00000000000E+00  0.89365636733E+03  0.11063436327E+04  0.65220742920E+03 0.  0.
         13    1    3    3    0    0  0.60802569350E+02  0.22381510758E+03  0.83569871199E+03  0.86728455079E+03  0.00000000000E+00 0. -1.
          2    1    3    3  501    0 -0.60802569350E+02 -0.22381510758E+03  0.57957655340E+02  0.23905908189E+03  0.00000000000E+00 0. -1.
<mgrwt>
<rscale>  0 0.65220743E+03</rscale>
<asrwt>0</asrwt>
<pdfrwt beam="1">0</pdfrwt>
<pdfrwt beam="2">  1        2 0.38670493E+00 0.65220743E+03</pdfrwt>
<totfact> 0.44638459E+00</totfact>
</mgrwt>
</event>
<event>
 5    1  0.2366700E-004  0.6603811E+03  0.7818608E-02  0.9787492E-01
         13   -1    0    0    0    0  0.00000000000E+00  0.00000000000E+00  0.10000000000E+04  0.10000000000E+04  0.00000000000E+00 0. -1.
          2   -1    0    0  501    0 -0.00000000000E+00 -0.00000000000E+00 -0.10902579527E+03  0.10902579527E+03  0.00000000000E+00 0. -1.
    9000006    2    1    2  501    0  0.00000000000E+00  0.00000000000E+00  0.89097420473E+03  0.11090257953E+04  0.66038108776E+03 0.  0.
         13    1    3    3    0    0  0.32669754961E+03 -0.33167059353E+02  0.38744655943E+03  0.50788402137E+03  0.00000000000E+00 0. -1.
          4    1    3    3  501    0 -0.32669754961E+03  0.33167059353E+02  0.50352764530E+03  0.60114177390E+03  0.00000000000E+00 0. -1.
<mgrwt>
<rscale>  0 0.66038109E+03</rscale>
<asrwt>0</asrwt>
<pdfrwt beam="1">0</pdfrwt>
<pdfrwt beam="2">  1        2 0.39645827E+00 0.66038109E+03</pdfrwt>
<totfact> 0.41030221E+00</totfact>
</mgrwt>
</event>
<event>
 5    1  0.2366700E-004  0.6413128E+03  0.7818608E-02  0.9823218E-01
         13   -1    0    0    0    0  0.00000000000E+00  0.00000000000E+00  0.10000000000E+04  0.10000000000E+04  0.00000000000E+00 0. -1.
          2   -1    0    0  501    0 -0.00000000000E+00 -0.00000000000E+00 -0.10282052429E+03  0.10282052429E+03  0.00000000000E+00 0. -1.
    9000006    2    1    2  501    0  0.00000000000E+00  0.00000000000E+00  0.89717947571E+03  0.11028205243E+04  0.64131279198E+03 0.  0.
         13    1    3    3    0    0 -0.50617041669E+02  0.27416495844E+03  0.17619249581E+03  0.32980646586E+03  0.00000000000E+00 0. -1.
          2    1    3    3  501    0  0.50617041669E+02 -0.27416495844E+03  0.72098697990E+03  0.77301405843E+03  0.00000000000E+00 0. -1.
<mgrwt>
<rscale>  0 0.64131279E+03</rscale>
<asrwt>0</asrwt>
<pdfrwt beam="1">0</pdfrwt>
<pdfrwt beam="2">  1        2 0.37389360E+00 0.64131279E+03</pdfrwt>
<totfact> 0.49814824E+00</totfact>
</mgrwt>
</event>
<event>
 5    1  0.2366700E-004  0.6567573E+03  0.7818608E-02  0.9794182E-01
         13   -1    0    0    0    0  0.00000000000E+00  0.00000000000E+00  0.10000000000E+04  0.10000000000E+04  0.00000000000E+00 0. -1.
          2   -1    0    0  501    0 -0.00000000000E+00 -0.00000000000E+00 -0.10783252853E+03  0.10783252853E+03  0.00000000000E+00 0. -1.
    9000006    2    1    2  501    0  0.00000000000E+00  0.00000000000E+00  0.89216747147E+03  0.11078325285E+04  0.65675727185E+03 0.  0.
         13    1    3    3    0    0  0.30508452007E+03 -0.98586883912E+02  0.32637177553E+03  0.45750898781E+03  0.00000000000E+00 0. -1.
          4    1    3    3  501    0 -0.30508452007E+03  0.98586883912E+02  0.56579569594E+03  0.65032354072E+03  0.00000000000E+00 0. -1.
<mgrwt>
<rscale>  0 0.65675727E+03</rscale>
<asrwt>0</asrwt>
<pdfrwt beam="1">0</pdfrwt>
<pdfrwt beam="2">  1        2 0.39211911E+00 0.65675727E+03</pdfrwt>
<totfact> 0.42601588E+00</totfact>
</mgrwt>
</event>
<event>
 5    1  0.2366700E-004  0.6542591E+03  0.7818608E-02  0.9798820E-01
         13   -1    0    0    0    0  0.00000000000E+00  0.00000000000E+00  0.10000000000E+04  0.10000000000E+04  0.00000000000E+00 0. -1.
          2   -1    0    0  501    0 -0.00000000000E+00 -0.00000000000E+00 -0.10701372640E+03  0.10701372640E+03  0.00000000000E+00 0. -1.
    9000006    2    1    2  501    0  0.00000000000E+00  0.00000000000E+00  0.89298627360E+03  0.11070137264E+04  0.65425905084E+03 0.  0.
         13    1    3    3    0    0 -0.15186239008E+03 -0.55086500289E+02 -0.34814998539E+02  0.16525372056E+03  0.00000000000E+00 0. -1.
          2    1    3    3  501    0  0.15186239008E+03  0.55086500289E+02  0.92780127214E+03  0.94176000585E+03  0.00000000000E+00 0. -1.
<mgrwt>
<rscale>  0 0.65425905E+03</rscale>
<asrwt>0</asrwt>
<pdfrwt beam="1">0</pdfrwt>
<pdfrwt beam="2">  1        2 0.38914164E+00 0.65425905E+03</pdfrwt>
<totfact> 0.43711093E+00</totfact>
</mgrwt>
</event>
<event>
 5    1  0.2366700E-004  0.5924081E+03  0.7818608E-02  0.9921283E-01
         13   -1    0    0    0    0  0.00000000000E+00  0.00000000000E+00  0.10000000000E+04  0.10000000000E+04  0.00000000000E+00 0. -1.
          2   -1    0    0  501    0 -0.00000000000E+00 -0.00000000000E+00 -0.87736828432E+02  0.87736828432E+02  0.00000000000E+00 0. -1.
    9000006    2    1    2  501    0  0.00000000000E+00  0.00000000000E+00  0.91226317157E+03  0.10877368284E+04  0.59240806352E+03 0.  0.
         13    1    3    3    0    0 -0.11763641205E+03  0.25454879088E+03  0.63131987340E+03  0.69079533505E+03  0.00000000000E+00 0. -1.
          4    1    3    3  501    0  0.11763641205E+03 -0.25454879088E+03  0.28094329817E+03  0.39694149338E+03  0.00000000000E+00 0. -1.
<mgrwt>
<rscale>  0 0.59240806E+03</rscale>
<asrwt>0</asrwt>
<pdfrwt beam="1">0</pdfrwt>
<pdfrwt beam="2">  1        2 0.31904369E+00 0.59240806E+03</pdfrwt>
<totfact> 0.78895004E+00</totfact>
</mgrwt>
</event>
<event>
 5    1  0.2366700E-004  0.6328487E+03  0.7818608E-02  0.9839506E-01
         13   -1    0    0    0    0  0.00000000000E+00  0.00000000000E+00  0.10000000000E+04  0.10000000000E+04  0.00000000000E+00 0. -1.
          2   -1    0    0  501    0 -0.00000000000E+00 -0.00000000000E+00 -0.10012436188E+03  0.10012436188E+03  0.00000000000E+00 0. -1.
    9000006    2    1    2  501    0  0.00000000000E+00  0.00000000000E+00  0.89987563812E+03  0.11001243619E+04  0.63284867665E+03 0.  0.
         13    1    3    3    0    0  0.11042542776E+02  0.24710058803E+03  0.79299036163E+03  0.83067102513E+03  0.00000000000E+00 0. -1.
          2    1    3    3  501    0 -0.11042542776E+02 -0.24710058803E+03  0.10688527649E+03  0.26945333675E+03  0.00000000000E+00 0. -1.
<mgrwt>
<rscale>  0 0.63284868E+03</rscale>
<asrwt>0</asrwt>
<pdfrwt beam="1">0</pdfrwt>
<pdfrwt beam="2">  1        2 0.36408936E+00 0.63284868E+03</pdfrwt>
<totfact> 0.54140621E+00</totfact>
</mgrwt>
</event>
