<event>
 6    1  0.9687246E-012  0.3000000E+03  0.7818608E-02  0.1093470E+00
          1   -1    0    0  502    0  0.00000000000E+00  0.00000000000E+00  0.24195542810E+03  0.24195542810E+03  0.00000000000E+00 0.  1.
         13   -1    0    0    0    0 -0.00000000000E+00 -0.00000000000E+00 -0.27500000000E+03  0.27500000000E+03  0.00000000000E+00 0.  1.
    9000005    2    1    2  501    0  0.37798155758E+02 -0.26585585635E+02 -0.59384439461E+02  0.46376442731E+03  0.45761931607E+03 0.  0.
         13    1    3    3    0    0 -0.41013480273E+02 -0.17619179540E+03  0.12012498027E+03  0.21715355215E+03  0.00000000000E+00 0.  1.
          3    1    3    3  501    0  0.78811636031E+02  0.14960620976E+03 -0.17950941973E+03  0.24661087515E+03  0.00000000000E+00 0.  1.
         21    1    1    2  502  501 -0.37798155758E+02  0.26585585635E+02  0.26339867564E+02  0.53191000794E+02  0.00000000000E+00 0. -1.
<scales pt_clust_4="550.00000" pt_clust_5="550.00000" pt_clust_6="46.21140"></scales>
<mgrwt>
<rscale>  0 0.30000000E+03</rscale>
<asrwt>  1 0.46211405E+02</asrwt>
<pdfrwt beam="1">  1        1 0.87983792E+00 0.30000000E+03</pdfrwt>
<pdfrwt beam="2">0</pdfrwt>
<totfact> 0.18848742E-04</totfact>
</mgrwt>
<clustering>
<clus scale="   46.211">  1  6  2 -1</clus>
<clus scale="  457.619">  4  5 -1 -1</clus>
<clus scale="  300.000">  1  4  2 -1</clus>
</clustering>
</event>
<event>
 6    1  0.9687246E-012  0.3000000E+03  0.7818608E-02  0.1093470E+00
          1   -1    0    0  502    0  0.00000000000E+00  0.00000000000E+00  0.23866483802E+03  0.23866483802E+03  0.00000000000E+00 0.  1.
         13   -1    0    0    0    0 -0.00000000000E+00 -0.00000000000E+00 -0.27500000000E+03  0.27500000000E+03  0.00000000000E+00 0.  1.
    9000005    2    1    2  501    0  0.28595583380E+02  0.13235753645E+02 -0.40650249848E+02  0.48186055298E+03  0.47910777195E+03 0.  0.
         13    1    3    3    0    0  0.12824556457E+03  0.21349949237E+02  0.19014352600E+03  0.23034171494E+03  0.00000000000E+00 0.  1.
          3    1    3    3  501    0 -0.99649981191E+02 -0.81141955921E+01 -0.23079377584E+03  0.25151883804E+03  0.00000000000E+00 0.  1.
         21    1    1    2  502  501 -0.28595583380E+02 -0.13235753645E+02  0.43150878675E+01  0.31804285037E+02  0.00000000000E+00 0. -1.
<scales pt_clust_4="550.00000" pt_clust_5="550.00000" pt_clust_6="31.51020"></scales>
<mgrwt>
<rscale>  0 0.30000000E+03</rscale>
<asrwt>  1 0.31510198E+02</asrwt>
<pdfrwt beam="1">  1        1 0.86787214E+00 0.30000000E+03</pdfrwt>
<pdfrwt beam="2">0</pdfrwt>
<totfact> 0.27169936E-04</totfact>
</mgrwt>
<clustering>
<clus scale="   31.510">  1  6  2 -1</clus>
<clus scale="  479.108">  4  5 -1 -1</clus>
<clus scale="  300.000">  1  4  2 -1</clus>
</clustering>
</event>
<event>
 6    1  0.9687246E-012  0.3000000E+03  0.7818608E-02  0.1093470E+00
          1   -1    0    0  502    0  0.00000000000E+00  0.00000000000E+00  0.22975029041E+03  0.22975029041E+03  0.00000000000E+00 0.  1.
         13   -1    0    0    0    0 -0.00000000000E+00 -0.00000000000E+00 -0.27500000000E+03  0.27500000000E+03  0.00000000000E+00 0.  1.
    9000005    2    1    2  501    0  0.32108708199E+01 -0.35779748818E+02 -0.54574850540E+02  0.46763616412E+03  0.46304931439E+03 0.  0.
         13    1    3    3    0    0  0.31573325423E+02  0.17786465669E+03 -0.14723055794E+03  0.23304409061E+03  0.00000000000E+00 0.  1.
          3    1    3    3  501    0 -0.28362454603E+02 -0.21364440551E+03  0.92655707404E+02  0.23459207350E+03  0.00000000000E+00 0.  1.
         21    1    1    2  502  501 -0.32108708199E+01  0.35779748818E+02  0.93251409522E+01  0.37114126295E+02  0.00000000000E+00 0. -1.
<scales pt_clust_4="550.00000" pt_clust_5="550.00000" pt_clust_6="35.92353"></scales>
<mgrwt>
<rscale>  0 0.30000000E+03</rscale>
<asrwt>  1 0.35923532E+02</asrwt>
<pdfrwt beam="1">  1        1 0.83545560E+00 0.30000000E+03</pdfrwt>
<pdfrwt beam="2">0</pdfrwt>
<totfact> 0.53426878E-04</totfact>
</mgrwt>
<clustering>
<clus scale="   35.924">  1  6  2 -1</clus>
<clus scale="  463.049">  4  5 -1 -1</clus>
<clus scale="  300.000">  1  4  2 -1</clus>
</clustering>
</event>
<event>
 6    1  0.9687246E-012  0.3000000E+03  0.7818608E-02  0.1093470E+00
          1   -1    0    0  502    0  0.00000000000E+00  0.00000000000E+00  0.23692365717E+03  0.23692365717E+03  0.00000000000E+00 0.  1.
         13   -1    0    0    0    0 -0.00000000000E+00 -0.00000000000E+00 -0.27500000000E+03  0.27500000000E+03  0.00000000000E+00 0.  1.
    9000005    2    1    2  501    0  0.21972257001E+02 -0.21861839588E+02 -0.50166551752E+02  0.47865365177E+03  0.47500727924E+03 0.  0.
         13    1    3    3    0    0  0.13682333182E+03  0.13720255375E+03  0.11227083514E+03  0.22394174534E+03  0.00000000000E+00 0.  1.
          1    1    3    3  501    0 -0.11485107482E+03 -0.15906439334E+03 -0.16243738689E+03  0.25471190642E+03  0.00000000000E+00 0.  1.
         21    1    1    2  502  501 -0.21972257001E+02  0.21861839588E+02  0.12090208925E+02  0.33270005407E+02  0.00000000000E+00 0.  1.
<scales pt_clust_4="550.00000" pt_clust_5="550.00000" pt_clust_6="30.99549"></scales>
<mgrwt>
<rscale>  0 0.30000000E+03</rscale>
<asrwt>  1 0.30995485E+02</asrwt>
<pdfrwt beam="1">  1        1 0.86154057E+00 0.30000000E+03</pdfrwt>
<pdfrwt beam="2">0</pdfrwt>
<totfact> 0.31862250E-04</totfact>
</mgrwt>
<clustering>
<clus scale="   30.995">  1  6  2 -1</clus>
<clus scale="  475.007">  4  5 -1 -1</clus>
<clus scale="  300.000">  1  4  2 -1</clus>
</clustering>
</event>
<event>
 6    1  0.9687246E-012  0.3000000E+03  0.7818608E-02  0.1093470E+00
          1   -1    0    0  502    0  0.00000000000E+00  0.00000000000E+00  0.23604559043E+03  0.23604559043E+03  0.00000000000E+00 0.  1.
         13   -1    0    0    0    0 -0.00000000000E+00 -0.00000000000E+00 -0.27500000000E+03  0.27500000000E+03  0.00000000000E+00 0.  1.
    9000005    2    1    2  501    0 -0.26823422281E+02 -0.28409561256E+02 -0.63875473961E+02  0.46470275275E+03  0.45863054095E+03 0.  0.
         13    1    3    3    0    0 -0.15152268374E+02  0.20200095866E+03  0.48186100791E+02  0.20822074548E+03  0.00000000000E+00 0.  1.
          3    1    3    3  501    0 -0.11671153907E+02 -0.23041051992E+03 -0.11206157475E+03  0.25648200728E+03  0.00000000000E+00 0.  1.
         21    1    1    2  502  501  0.26823422281E+02  0.28409561256E+02  0.24921064394E+02  0.46342837679E+02  0.00000000000E+00 0. -1.
<scales pt_clust_4="550.00000" pt_clust_5="550.00000" pt_clust_6="39.07172"></scales>
<mgrwt>
<rscale>  0 0.30000000E+03</rscale>
<asrwt>  1 0.39071718E+02</asrwt>
<pdfrwt beam="1">  1        1 0.85834760E+00 0.30000000E+03</pdfrwt>
<pdfrwt beam="2">0</pdfrwt>
<totfact> 0.32995646E-04</totfact>
</mgrwt>
<clustering>
<clus scale="   39.072">  1  6  2 -1</clus>
<clus scale="  458.631">  4  5 -1 -1</clus>
<clus scale="  300.000">  1  4  2 -1</clus>
</clustering>
</event>
<event>
 6    1  0.9687246E-012  0.3000000E+03  0.7818608E-02  0.1093470E+00
          1   -1    0    0  502    0  0.00000000000E+00  0.00000000000E+00  0.24625947810E+03  0.24625947810E+03  0.00000000000E+00 0.  1.
         13   -1    0    0    0    0 -0.00000000000E+00 -0.00000000000E+00 -0.27500000000E+03  0.27500000000E+03  0.00000000000E+00 0.  1.
    9000005    2    1    2  501    0 -0.88717417487E+01 -0.32840605573E+02 -0.11238103960E+02  0.48300313470E+03  0.48167262739E+03 0.  0.
         13    1    3    3    0    0 -0.24017317328E+03 -0.60926055094E+02 -0.28233689167E+02  0.24938379770E+03  0.00000000000E+00 0.  1.
          3    1    3    3  501    0  0.23130143153E+03  0.28085449521E+02  0.16995585207E+02  0.23361933700E+03  0.00000000000E+00 0.  1.
         21    1    1    2  502  501  0.88717417487E+01  0.32840605573E+02 -0.17502417942E+02  0.38256343394E+02  0.00000000000E+00 0. -1.
<scales pt_clust_4="550.00000" pt_clust_5="550.00000" pt_clust_6="34.01785"></scales>
<mgrwt>
<rscale>  0 0.30000000E+03</rscale>
<asrwt>  1 0.34017853E+02</asrwt>
<pdfrwt beam="1">  1        1 0.89548901E+00 0.30000000E+03</pdfrwt>
<pdfrwt beam="2">0</pdfrwt>
<totfact> 0.12518033E-04</totfact>
</mgrwt>
<clustering>
<clus scale="   34.018">  1  6  2 -1</clus>
<clus scale="  481.673">  4  5 -1 -1</clus>
<clus scale="  300.000">  1  4  2 -1</clus>
</clustering>
</event>
<event>
 6    1  0.9687246E-012  0.3000000E+03  0.7818608E-02  0.1093470E+00
          1   -1    0    0  502    0  0.00000000000E+00  0.00000000000E+00  0.23250102133E+03  0.23250102133E+03  0.00000000000E+00 0.  1.
         13   -1    0    0    0    0 -0.00000000000E+00 -0.00000000000E+00 -0.27500000000E+03  0.27500000000E+03  0.00000000000E+00 0.  1.
    9000005    2    1    2  501    0 -0.25945606090E+02 -0.26421782186E+02 -0.66525893429E+02  0.46335832451E+03  0.45706012444E+03 0.  0.
         13    1    3    3    0    0  0.12459335294E+03 -0.45071636502E+02 -0.21406484196E+03  0.25175129111E+03  0.00000000000E+00 0.  1.
          3    1    3    3  501    0 -0.15053895903E+03  0.18649854317E+02  0.14753894853E+03  0.21160703340E+03  0.00000000000E+00 0.  1.
         21    1    1    2  502  501  0.25945606090E+02  0.26421782186E+02  0.24026914759E+02  0.44142696814E+02  0.00000000000E+00 0. -1.
<scales pt_clust_4="550.00000" pt_clust_5="550.00000" pt_clust_6="37.03087"></scales>
<mgrwt>
<rscale>  0 0.30000000E+03</rscale>
<asrwt>  1 0.37030866E+02</asrwt>
<pdfrwt beam="1">  1        1 0.84545826E+00 0.30000000E+03</pdfrwt>
<pdfrwt beam="2">0</pdfrwt>
<totfact> 0.44298728E-04</totfact>
</mgrwt>
<clustering>
<clus scale="   37.031">  1  6  2 -1</clus>
<clus scale="  457.060">  4  5 -1 -1</clus>
<clus scale="  300.000">  1  4  2 -1</clus>
</clustering>
</event>
<event>
 6    1  0.9687246E-012  0.3000000E+03  0.7818608E-02  0.1093470E+00
          1   -1    0    0  502    0  0.00000000000E+00  0.00000000000E+00  0.22271579529E+03  0.22271579529E+03  0.00000000000E+00 0.  1.
         13   -1    0    0    0    0 -0.00000000000E+00 -0.00000000000E+00 -0.27500000000E+03  0.27500000000E+03  0.00000000000E+00 0.  1.
    9000005    2    1    2  501    0  0.24941396109E+02 -0.17087786683E+02 -0.64761361009E+02  0.46500883696E+03  0.45948353494E+03 0.  0.
         13    1    3    3    0    0 -0.81295239076E+02 -0.21075701523E+03 -0.88992330618E+02  0.24279017746E+03  0.00000000000E+00 0.  1.
          3    1    3    3  501    0  0.10623663519E+03  0.19366922855E+03  0.24230969609E+02  0.22221865950E+03  0.00000000000E+00 0.  1.
         21    1    1    2  502  501 -0.24941396109E+02  0.17087786683E+02  0.12477156297E+02  0.32706958325E+02  0.00000000000E+00 0.  1.
<scales pt_clust_4="550.00000" pt_clust_5="550.00000" pt_clust_6="30.23352"></scales>
<mgrwt>
<rscale>  0 0.30000000E+03</rscale>
<asrwt>  1 0.30233519E+02</asrwt>
<pdfrwt beam="1">  1        1 0.80987562E+00 0.30000000E+03</pdfrwt>
<pdfrwt beam="2">0</pdfrwt>
<totfact> 0.89870218E-04</totfact>
</mgrwt>
<clustering>
<clus scale="   30.234">  1  6  2 -1</clus>
<clus scale="  459.484">  4  5 -1 -1</clus>
<clus scale="  300.000">  1  4  2 -1</clus>
</clustering>
</event>
<event>
 6    1  0.9687246E-012  0.3000000E+03  0.7818608E-02  0.1093470E+00
          1   -1    0    0  502    0  0.00000000000E+00  0.00000000000E+00  0.24355266026E+03  0.24355266026E+03  0.00000000000E+00 0.  1.
         13   -1    0    0    0    0 -0.00000000000E+00 -0.00000000000E+00 -0.27500000000E+03  0.27500000000E+03  0.00000000000E+00 0.  1.
    9000005    2    1    2  501    0  0.36447189854E+02 -0.55705866681E+01 -0.35885420474E+02  0.48141607931E+03  0.47865880221E+03 0.  0.
         13    1    3    3    0    0  0.23757877520E+03  0.67270599875E+02 -0.86433011929E+02  0.26160977348E+03  0.00000000000E+00 0.  1.
          3    1    3    3  501    0 -0.20113158534E+03 -0.72841186543E+02  0.50547591455E+02  0.21980630583E+03  0.00000000000E+00 0.  1.
         21    1    1    2  502  501 -0.36447189854E+02  0.55705866681E+01  0.44380807340E+01  0.37136580951E+02  0.00000000000E+00 0.  1.
<scales pt_clust_4="550.00000" pt_clust_5="550.00000" pt_clust_6="36.87044"></scales>
<mgrwt>
<rscale>  0 0.30000000E+03</rscale>
<asrwt>  1 0.36870436E+02</asrwt>
<pdfrwt beam="1">  1        1 0.88564604E+00 0.30000000E+03</pdfrwt>
<pdfrwt beam="2">0</pdfrwt>
<totfact> 0.16467149E-04</totfact>
</mgrwt>
<clustering>
<clus scale="   36.870">  1  6  2 -1</clus>
<clus scale="  478.659">  4  5 -1 -1</clus>
<clus scale="  300.000">  1  4  2 -1</clus>
</clustering>
</event>
<event>
 6    1  0.9687246E-012  0.3000000E+03  0.7818608E-02  0.1093470E+00
          1   -1    0    0  502    0  0.00000000000E+00  0.00000000000E+00  0.24420333694E+03  0.24420333694E+03  0.00000000000E+00 0.  1.
         13   -1    0    0    0    0 -0.00000000000E+00 -0.00000000000E+00 -0.27500000000E+03  0.27500000000E+03  0.00000000000E+00 0.  1.
    9000005    2    1    2  501    0  0.27882121287E+02  0.29424662732E+02 -0.23556267450E+02  0.47802510491E+03  0.47572037977E+03 0.  0.
         13    1    3    3    0    0  0.52298302702E+02  0.13933421861E+03  0.18715800724E+03  0.23911766270E+03  0.00000000000E+00 0.  1.
          1    1    3    3  501    0 -0.24416181415E+02 -0.10990955588E+03 -0.21071427469E+03  0.23890744221E+03  0.00000000000E+00 0.  1.
         21    1    1    2  502  501 -0.27882121287E+02 -0.29424662732E+02 -0.72403956108E+01  0.41178232027E+02  0.00000000000E+00 0. -1.
<scales pt_clust_4="550.00000" pt_clust_5="550.00000" pt_clust_6="40.53671"></scales>
<mgrwt>
<rscale>  0 0.30000000E+03</rscale>
<asrwt>  1 0.40536713E+02</asrwt>
<pdfrwt beam="1">  1        1 0.88801213E+00 0.30000000E+03</pdfrwt>
<pdfrwt beam="2">0</pdfrwt>
<totfact> 0.15011255E-04</totfact>
</mgrwt>
<clustering>
<clus scale="   40.537">  1  6  2 -1</clus>
<clus scale="  475.720">  4  5 -1 -1</clus>
<clus scale="  300.000">  1  4  2 -1</clus>
</clustering>
</event>
<event>
 6    1  0.9687246E-012  0.3000000E+03  0.7818608E-02  0.1093470E+00
          1   -1    0    0  502    0  0.00000000000E+00  0.00000000000E+00  0.24588863467E+03  0.24588863467E+03  0.00000000000E+00 0.  1.
         13   -1    0    0    0    0 -0.00000000000E+00 -0.00000000000E+00 -0.27500000000E+03  0.27500000000E+03  0.00000000000E+00 0.  1.
    9000005    2    1    2  501    0 -0.21041800316E+02 -0.26337612683E+02 -0.47681463938E+02  0.48240128916E+03  0.47885389690E+03 0.  0.
         13    1    3    3    0    0  0.28769289264E+02 -0.50008879462E+02  0.21056804611E+03  0.21832879351E+03  0.00000000000E+00 0.  1.
          3    1    3    3  501    0 -0.49811089580E+02  0.23671266779E+02 -0.25824951005E+03  0.26407249565E+03  0.00000000000E+00 0.  1.
         21    1    1    2  502  501  0.21041800316E+02  0.26337612683E+02  0.18570098607E+02  0.38487345514E+02  0.00000000000E+00 0.  1.
<scales pt_clust_4="550.00000" pt_clust_5="550.00000" pt_clust_6="33.71094"></scales>
<mgrwt>
<rscale>  0 0.30000000E+03</rscale>
<asrwt>  1 0.33710936E+02</asrwt>
<pdfrwt beam="1">  1        1 0.89414049E+00 0.30000000E+03</pdfrwt>
<pdfrwt beam="2">0</pdfrwt>
<totfact> 0.12985549E-04</totfact>
</mgrwt>
<clustering>
<clus scale="   33.711">  1  6  2 -1</clus>
<clus scale="  478.854">  4  5 -1 -1</clus>
<clus scale="  300.000">  1  4  2 -1</clus>
</clustering>
</event>
<event>
 6    1  0.9687246E-012  0.3000000E+03  0.7818608E-02  0.1093470E+00
          1   -1    0    0  502    0  0.00000000000E+00  0.00000000000E+00  0.24485951498E+03  0.24485951498E+03  0.00000000000E+00 0.  1.
         13   -1    0    0    0    0 -0.00000000000E+00 -0.00000000000E+00 -0.27500000000E+03  0.27500000000E+03  0.00000000000E+00 0.  1.
    9000005    2    1    2  501    0 -0.13857752663E+02  0.37217202632E+02 -0.46532199814E+02  0.47689620744E+03  0.47295622374E+03 0.  0.
         13    1    3    3    0    0 -0.15157453336E+03  0.20656022385E+03 -0.19330678790E+02  0.25693508982E+03  0.00000000000E+00 0.  1.
          1    1    3    3  501    0  0.13771678069E+03 -0.16934302122E+03 -0.27201521024E+02  0.21996111762E+03  0.00000000000E+00 0.  1.
         21    1    1    2  502  501  0.13857752663E+02 -0.37217202632E+02  0.16391714796E+02  0.42963307538E+02  0.00000000000E+00 0. -1.
<scales pt_clust_4="550.00000" pt_clust_5="550.00000" pt_clust_6="39.71344"></scales>
<mgrwt>
<rscale>  0 0.30000000E+03</rscale>
<asrwt>  1 0.39713442E+02</asrwt>
<pdfrwt beam="1">  1        1 0.89039824E+00 0.30000000E+03</pdfrwt>
<pdfrwt beam="2">0</pdfrwt>
<totfact> 0.13990150E-04</totfact>
</mgrwt>
<clustering>
<clus scale="   39.713">  1  6  2 -1</clus>
<clus scale="  472.956">  4  5 -1 -1</clus>
<clus scale="  300.000">  1  4  2 -1</clus>
</clustering>
</event>
<event>
 6    1  0.9687246E-012  0.3000000E+03  0.7818608E-02  0.1093470E+00
          1   -1    0    0  502    0  0.00000000000E+00  0.00000000000E+00  0.23649874872E+03  0.23649874872E+03  0.00000000000E+00 0.  1.
         13   -1    0    0    0    0 -0.00000000000E+00 -0.00000000000E+00 -0.27500000000E+03  0.27500000000E+03  0.00000000000E+00 0.  1.
    9000005    2    1    2  501    0  0.24743684984E+02 -0.24189707383E+02 -0.12773350599E+02  0.46837895322E+03  0.46692429091E+03 0.  0.
         13    1    3    3    0    0 -0.16065105171E+03  0.68217138329E+02 -0.14133093050E+03  0.22458132223E+03  0.00000000000E+00 0.  1.
          3    1    3    3  501    0  0.18539473669E+03 -0.92406845713E+02  0.12855757990E+03  0.24379763099E+03  0.00000000000E+00 0.  1.
         21    1    1    2  502  501 -0.24743684984E+02  0.24189707383E+02 -0.25727900686E+02  0.43119795496E+02  0.00000000000E+00 0. -1.
<scales pt_clust_4="550.00000" pt_clust_5="550.00000" pt_clust_6="34.60337"></scales>
<mgrwt>
<rscale>  0 0.30000000E+03</rscale>
<asrwt>  1 0.34603368E+02</asrwt>
<pdfrwt beam="1">  1        1 0.85999545E+00 0.30000000E+03</pdfrwt>
<pdfrwt beam="2">0</pdfrwt>
<totfact> 0.32419100E-04</totfact>
</mgrwt>
<clustering>
<clus scale="   34.603">  1  6  2 -1</clus>
<clus scale="  466.924">  4  5 -1 -1</clus>
<clus scale="  300.000">  1  4  2 -1</clus>
</clustering>
</event>
<event>
 6    1  0.9687246E-012  0.3000000E+03  0.7818608E-02  0.1093470E+00
          1   -1    0    0  502    0  0.00000000000E+00  0.00000000000E+00  0.25833268639E+03  0.25833268639E+03  0.00000000000E+00 0.  1.
         13   -1    0    0    0    0 -0.00000000000E+00 -0.00000000000E+00 -0.27500000000E+03  0.27500000000E+03  0.00000000000E+00 0.  1.
    9000005    2    1    2  501    0  0.32286506780E+02 -0.37392637614E+02 -0.39762076717E+02  0.47879833070E+03  0.47458001524E+03 0.  0.
         13    1    3    3    0    0 -0.14322161847E+03  0.12815410827E+03 -0.11757039563E+03  0.22529692717E+03  0.00000000000E+00 0.  1.
          1    1    3    3  501    0  0.17550812525E+03 -0.16554674588E+03  0.77808318912E+02  0.25350140353E+03  0.00000000000E+00 0.  1.
         21    1    1    2  502  501 -0.32286506780E+02  0.37392637614E+02  0.23094763107E+02  0.54534355693E+02  0.00000000000E+00 0.  1.
<scales pt_clust_4="550.00000" pt_clust_5="550.00000" pt_clust_6="49.40271"></scales>
<mgrwt>
<rscale>  0 0.30000000E+03</rscale>
<asrwt>  1 0.49402711E+02</asrwt>
<pdfrwt beam="1">  1        1 0.93939159E+00 0.30000000E+03</pdfrwt>
<pdfrwt beam="2">0</pdfrwt>
<totfact> 0.18423401E-05</totfact>
</mgrwt>
<clustering>
<clus scale="   49.403">  1  6  2 -1</clus>
<clus scale="  474.580">  4  5 -1 -1</clus>
<clus scale="  300.000">  1  4  2 -1</clus>
</clustering>
</event>
<event>
 6    1  0.9687246E-012  0.3000000E+03  0.7818608E-02  0.1093470E+00
          1   -1    0    0  502    0  0.00000000000E+00  0.00000000000E+00  0.24472291731E+03  0.24472291731E+03  0.00000000000E+00 0.  1.
         13   -1    0    0    0    0 -0.00000000000E+00 -0.00000000000E+00 -0.27500000000E+03  0.27500000000E+03  0.00000000000E+00 0.  1.
    9000005    2    1    2  501    0  0.31470686406E+02  0.57496647647E+01 -0.61469677154E+02  0.47504136970E+03  0.46995991208E+03 0.  0.
         13    1    3    3    0    0 -0.13294763295E+03  0.16735039777E+03  0.49190340296E+02  0.21931921557E+03  0.00000000000E+00 0.  1.
          1    1    3    3  501    0  0.16441831935E+03 -0.16160073301E+03 -0.11066001745E+03  0.25572215412E+03  0.00000000000E+00 0.  1.
         21    1    1    2  502  501 -0.31470686406E+02 -0.57496647647E+01  0.31192594465E+02  0.44681547615E+02  0.00000000000E+00 0.  1.
<scales pt_clust_4="550.00000" pt_clust_5="550.00000" pt_clust_6="31.99160"></scales>
<mgrwt>
<rscale>  0 0.30000000E+03</rscale>
<asrwt>  1 0.31991604E+02</asrwt>
<pdfrwt beam="1">  1        1 0.88990152E+00 0.30000000E+03</pdfrwt>
<pdfrwt beam="2">0</pdfrwt>
<totfact> 0.14787986E-04</totfact>
</mgrwt>
<clustering>
<clus scale="   31.992">  1  6  2 -1</clus>
<clus scale="  469.960">  4  5 -1 -1</clus>
<clus scale="  300.000">  1  4  2 -1</clus>
</clustering>
</event>
<event>
 6    1  0.9687246E-012  0.3000000E+03  0.7818608E-02  0.1093470E+00
          1   -1    0    0  502    0  0.00000000000E+00  0.00000000000E+00  0.25797391967E+03  0.25797391967E+03  0.00000000000E+00 0.  1.
         13   -1    0    0    0    0 -0.00000000000E+00 -0.00000000000E+00 -0.27500000000E+03  0.27500000000E+03  0.00000000000E+00 0.  1.
    9000005    2    1    2  501    0 -0.63381254812E+00 -0.30857736095E+02 -0.54797833857E+02  0.48419577949E+03  0.48009389569E+03 0.  0.
         13    1    3    3    0    0  0.98437258289E+02  0.18772600580E+03 -0.10872079910E+03  0.23822501806E+03  0.00000000000E+00 0.  1.
          3    1    3    3  501    0 -0.99071070837E+02 -0.21858374189E+03  0.53922965240E+02  0.24597076143E+03  0.00000000000E+00 0.  1.
         21    1    1    2  502  501  0.63381254812E+00  0.30857736095E+02  0.37771753530E+02  0.48778140186E+02  0.00000000000E+00 0.  1.
<scales pt_clust_4="550.00000" pt_clust_5="550.00000" pt_clust_6="30.86424"></scales>
<mgrwt>
<rscale>  0 0.30000000E+03</rscale>
<asrwt>  1 0.30864245E+02</asrwt>
<pdfrwt beam="1">  1        1 0.93808698E+00 0.30000000E+03</pdfrwt>
<pdfrwt beam="2">0</pdfrwt>
<totfact> 0.21043054E-05</totfact>
</mgrwt>
<clustering>
<clus scale="   30.864">  1  6  2 -1</clus>
<clus scale="  480.094">  4  5 -1 -1</clus>
<clus scale="  300.000">  1  4  2 -1</clus>
</clustering>
</event>
<event>
 6    1  0.9687246E-012  0.3000000E+03  0.7818608E-02  0.1093470E+00
          1   -1    0    0  502    0  0.00000000000E+00  0.00000000000E+00  0.23088266802E+03  0.23088266802E+03  0.00000000000E+00 0.  1.
         13   -1    0    0    0    0 -0.00000000000E+00 -0.00000000000E+00 -0.27500000000E+03  0.27500000000E+03  0.00000000000E+00 0.  1.
    9000005    2    1    2  501    0  0.98597026931E+01  0.28356614143E+02 -0.39789124052E+02  0.47555042962E+03  0.47293099435E+03 0.  0.
         13    1    3    3    0    0  0.20356811403E+03 -0.10743568952E+03 -0.60746598400E+02  0.23805997910E+03  0.00000000000E+00 0.  1.
          3    1    3    3  501    0 -0.19370841134E+03  0.13579230366E+03  0.20957474348E+02  0.23749045052E+03  0.00000000000E+00 0.  1.
         21    1    1    2  502  501 -0.98597026931E+01 -0.28356614143E+02 -0.43282079252E+01  0.30332238405E+02  0.00000000000E+00 0. -1.
<scales pt_clust_4="550.00000" pt_clust_5="550.00000" pt_clust_6="30.02186"></scales>
<mgrwt>
<rscale>  0 0.30000000E+03</rscale>
<asrwt>  1 0.30021862E+02</asrwt>
<pdfrwt beam="1">  1        1 0.83957334E+00 0.30000000E+03</pdfrwt>
<pdfrwt beam="2">0</pdfrwt>
<totfact> 0.51557414E-04</totfact>
</mgrwt>
<clustering>
<clus scale="   30.022">  1  6  2 -1</clus>
<clus scale="  472.931">  4  5 -1 -1</clus>
<clus scale="  300.000">  1  4  2 -1</clus>
</clustering>
</event>
<event>
 6    1  0.9687246E-012  0.3000000E+03  0.7818608E-02  0.1093470E+00
          1   -1    0    0  502    0  0.00000000000E+00  0.00000000000E+00  0.23692931010E+03  0.23692931010E+03  0.00000000000E+00 0.  1.
         13   -1    0    0    0    0 -0.00000000000E+00 -0.00000000000E+00 -0.27500000000E+03  0.27500000000E+03  0.00000000000E+00 0.  1.
    9000005    2    1    2  501    0 -0.16533351917E+02  0.25228997281E+02 -0.36078984434E+02  0.48169983905E+03  0.47939877742E+03 0.  0.
         13    1    3    3    0    0  0.11649151152E+03  0.12605644108E+03  0.15268232398E+03  0.22972242087E+03  0.00000000000E+00 0.  1.
          3    1    3    3  501    0 -0.13302486344E+03 -0.10082744380E+03 -0.18876130842E+03  0.25197741818E+03  0.00000000000E+00 0.  1.
         21    1    1    2  502  501  0.16533351917E+02 -0.25228997281E+02 -0.19917054642E+01  0.30229471052E+02  0.00000000000E+00 0.  1.
<scales pt_clust_4="550.00000" pt_clust_5="550.00000" pt_clust_6="30.16379"></scales>
<mgrwt>
<rscale>  0 0.30000000E+03</rscale>
<asrwt>  1 0.30163787E+02</asrwt>
<pdfrwt beam="1">  1        1 0.86156113E+00 0.30000000E+03</pdfrwt>
<pdfrwt beam="2">0</pdfrwt>
<totfact> 0.32012704E-04</totfact>
</mgrwt>
<clustering>
<clus scale="   30.164">  1  6  2 -1</clus>
<clus scale="  479.399">  4  5 -1 -1</clus>
<clus scale="  300.000">  1  4  2 -1</clus>
</clustering>
</event>
<event>
 6    1  0.9687246E-012  0.3000000E+03  0.7818608E-02  0.1093470E+00
          1   -1    0    0  502    0  0.00000000000E+00  0.00000000000E+00  0.22825963858E+03  0.22825963858E+03  0.00000000000E+00 0.  1.
         13   -1    0    0    0    0 -0.00000000000E+00 -0.00000000000E+00 -0.27500000000E+03  0.27500000000E+03  0.00000000000E+00 0.  1.
    9000005    2    1    2  501    0 -0.12129250587E+02 -0.36110897423E+02 -0.50968038212E+02  0.46493224781E+03  0.46055742150E+03 0.  0.
         13    1    3    3    0    0 -0.98831354521E+02  0.17656716127E+03 -0.10647310942E+03  0.22864846841E+03  0.00000000000E+00 0.  1.
          3    1    3    3  501    0  0.86702103934E+02 -0.21267805869E+03  0.55505071211E+02  0.23628377940E+03  0.00000000000E+00 0.  1.
         21    1    1    2  502  501  0.12129250587E+02  0.36110897423E+02  0.42276767925E+01  0.38327390774E+02  0.00000000000E+00 0. -1.
<scales pt_clust_4="550.00000" pt_clust_5="550.00000" pt_clust_6="38.09351"></scales>
<mgrwt>
<rscale>  0 0.30000000E+03</rscale>
<asrwt>  1 0.38093512E+02</asrwt>
<pdfrwt beam="1">  1        1 0.83003505E+00 0.30000000E+03</pdfrwt>
<pdfrwt beam="2">0</pdfrwt>
<totfact> 0.58140504E-04</totfact>
</mgrwt>
<clustering>
<clus scale="   38.094">  1  6  2 -1</clus>
<clus scale="  460.557">  4  5 -1 -1</clus>
<clus scale="  300.000">  1  4  2 -1</clus>
</clustering>
</event>
<event>
 6    1  0.9687246E-012  0.3000000E+03  0.7818608E-02  0.1093470E+00
          1   -1    0    0  502    0  0.00000000000E+00  0.00000000000E+00  0.24944157928E+03  0.24944157928E+03  0.00000000000E+00 0.  1.
         13   -1    0    0    0    0 -0.00000000000E+00 -0.00000000000E+00 -0.27500000000E+03  0.27500000000E+03  0.00000000000E+00 0.  1.
    9000005    2    1    2  501    0  0.35219768151E+02  0.14952096311E+02 -0.17351871248E+02  0.48530917957E+03  0.48348724397E+03 0.  0.
         13    1    3    3    0    0 -0.11711531747E+03  0.12498350813E+03  0.15449538360E+03  0.23066360451E+03  0.00000000000E+00 0.  1.
          1    1    3    3  501    0  0.15233508562E+03 -0.11003141182E+03 -0.17184725485E+03  0.25464557506E+03  0.00000000000E+00 0.  1.
         21    1    1    2  502  501 -0.35219768151E+02 -0.14952096311E+02 -0.82065494771E+01  0.39132399709E+02  0.00000000000E+00 0. -1.
<scales pt_clust_4="550.00000" pt_clust_5="550.00000" pt_clust_6="38.26224"></scales>
<mgrwt>
<rscale>  0 0.30000000E+03</rscale>
<asrwt>  1 0.38262236E+02</asrwt>
<pdfrwt beam="1">  1        1 0.90706029E+00 0.30000000E+03</pdfrwt>
<pdfrwt beam="2">0</pdfrwt>
<totfact> 0.82615103E-05</totfact>
</mgrwt>
<clustering>
<clus scale="   38.262">  1  6  2 -1</clus>
<clus scale="  483.487">  4  5 -1 -1</clus>
<clus scale="  300.000">  1  4  2 -1</clus>
</clustering>
</event>
<event>
 6    1  0.9687246E-012  0.3000000E+03  0.7818608E-02  0.1093470E+00
          1   -1    0    0  502    0  0.00000000000E+00  0.00000000000E+00  0.22938937085E+03  0.22938937085E+03  0.00000000000E+00 0.  1.
         13   -1    0    0    0    0 -0.00000000000E+00 -0.00000000000E+00 -0.27500000000E+03  0.27500000000E+03  0.00000000000E+00 0.  1.
    9000005    2    1    2  501    0 -0.33375901615E+02  0.19582236577E+01 -0.48909771394E+02  0.47079368976E+03  0.46705111833E+03 0.  0.
         13    1    3    3    0    0 -0.15459235665E+03 -0.11683310604E+03 -0.17362273428E+03  0.26017998628E+03  0.00000000000E+00 0.  1.
          3    1    3    3  501    0  0.12121645504E+03  0.11879132969E+03  0.12471296289E+03  0.21061370348E+03  0.00000000000E+00 0.  1.
         21    1    1    2  502  501  0.33375901615E+02 -0.19582236577E+01  0.32991422475E+01  0.33595681093E+02  0.00000000000E+00 0.  1.
<scales pt_clust_4="550.00000" pt_clust_5="550.00000" pt_clust_6="33.43330"></scales>
<mgrwt>
<rscale>  0 0.30000000E+03</rscale>
<asrwt>  1 0.33433298E+02</asrwt>
<pdfrwt beam="1">  1        1 0.83414317E+00 0.30000000E+03</pdfrwt>
<pdfrwt beam="2">0</pdfrwt>
<totfact> 0.55361893E-04</totfact>
</mgrwt>
<clustering>
<clus scale="   33.433">  1  6  2 -1</clus>
<clus scale="  467.051">  4  5 -1 -1</clus>
<clus scale="  300.000">  1  4  2 -1</clus>
</clustering>
</event>
<event>
 6    1  0.9687246E-012  0.3000000E+03  0.7818608E-02  0.1093470E+00
          1   -1    0    0  502    0  0.00000000000E+00  0.00000000000E+00  0.23524686923E+03  0.23524686923E+03  0.00000000000E+00 0.  1.
         13   -1    0    0    0    0 -0.00000000000E+00 -0.00000000000E+00 -0.27500000000E+03  0.27500000000E+03  0.00000000000E+00 0.  1.
    9000005    2    1    2  501    0 -0.93740285201E+01 -0.30753090781E+02 -0.63184583835E+02  0.47046423488E+03  0.46509211954E+03 0.  0.
         13    1    3    3    0    0 -0.22439444614E+03 -0.60626060847E+02 -0.94914460564E+02  0.25107198477E+03  0.00000000000E+00 0.  1.
          3    1    3    3  501    0  0.21502041762E+03  0.29872970066E+02  0.31729876729E+02  0.21939225011E+03  0.00000000000E+00 0.  1.
         21    1    1    2  502  501  0.93740285201E+01  0.30753090781E+02  0.23431453064E+02  0.39782634352E+02  0.00000000000E+00 0.  1.
<scales pt_clust_4="550.00000" pt_clust_5="550.00000" pt_clust_6="32.15004"></scales>
<mgrwt>
<rscale>  0 0.30000000E+03</rscale>
<asrwt>  1 0.32150039E+02</asrwt>
<pdfrwt beam="1">  1        1 0.85544316E+00 0.30000000E+03</pdfrwt>
<pdfrwt beam="2">0</pdfrwt>
<totfact> 0.36647364E-04</totfact>
</mgrwt>
<clustering>
<clus scale="   32.150">  1  6  2 -1</clus>
<clus scale="  465.092">  4  5 -1 -1</clus>
<clus scale="  300.000">  1  4  2 -1</clus>
</clustering>
</event>
<event>
 6    1  0.9687246E-012  0.3000000E+03  0.7818608E-02  0.1093470E+00
          1   -1    0    0  502    0  0.00000000000E+00  0.00000000000E+00  0.24722297200E+03  0.24722297200E+03  0.00000000000E+00 0.  1.
         13   -1    0    0    0    0 -0.00000000000E+00 -0.00000000000E+00 -0.27500000000E+03  0.27500000000E+03  0.00000000000E+00 0.  1.
    9000005    2    1    2  501    0  0.13322822594E+02 -0.27563972190E+02 -0.75718155941E+02  0.46534044469E+03  0.45811703762E+03 0.  0.
         13    1    3    3    0    0  0.76380798936E+02 -0.22535618767E+03 -0.96353522094E+02  0.25671665117E+03  0.00000000000E+00 0.  1.
          3    1    3    3  501    0 -0.63057976341E+02  0.19779221548E+03  0.20635366153E+02  0.20862379352E+03  0.00000000000E+00 0.  1.
         21    1    1    2  502  501 -0.13322822594E+02  0.27563972190E+02  0.47941127940E+02  0.56882527308E+02  0.00000000000E+00 0. -1.
<scales pt_clust_4="550.00000" pt_clust_5="550.00000" pt_clust_6="30.61487"></scales>
<mgrwt>
<rscale>  0 0.30000000E+03</rscale>
<asrwt>  1 0.30614868E+02</asrwt>
<pdfrwt beam="1">  1        1 0.89899263E+00 0.30000000E+03</pdfrwt>
<pdfrwt beam="2">0</pdfrwt>
<totfact> 0.11653303E-04</totfact>
</mgrwt>
<clustering>
<clus scale="   30.615">  1  6  2 -1</clus>
<clus scale="  458.117">  4  5 -1 -1</clus>
<clus scale="  300.000">  1  4  2 -1</clus>
</clustering>
</event>
<event>
 6    1  0.9687246E-012  0.3000000E+03  0.7818608E-02  0.1093470E+00
          1   -1    0    0  502    0  0.00000000000E+00  0.00000000000E+00  0.24449437392E+03  0.24449437392E+03  0.00000000000E+00 0.  1.
         13   -1    0    0    0    0 -0.00000000000E+00 -0.00000000000E+00 -0.27500000000E+03  0.27500000000E+03  0.00000000000E+00 0.  1.
    9000005    2    1    2  501    0 -0.30909216865E+02 -0.14525648936E+02 -0.47803248633E+02  0.48121145462E+03  0.47761170349E+03 0.  0.
         13    1    3    3    0    0 -0.23445776671E+03  0.22187216736E+02 -0.11718789045E+03  0.26305079096E+03  0.00000000000E+00 0.  1.
          1    1    3    3  501    0  0.20354854984E+03 -0.36712865672E+02  0.69384641819E+02  0.21816066366E+03  0.00000000000E+00 0.  1.
         21    1    1    2  502  501  0.30909216865E+02  0.14525648936E+02  0.17297622557E+02  0.38282919303E+02  0.00000000000E+00 0.  1.
<scales pt_clust_4="550.00000" pt_clust_5="550.00000" pt_clust_6="34.15222"></scales>
<mgrwt>
<rscale>  0 0.30000000E+03</rscale>
<asrwt>  1 0.34152220E+02</asrwt>
<pdfrwt beam="1">  1        1 0.88907045E+00 0.30000000E+03</pdfrwt>
<pdfrwt beam="2">0</pdfrwt>
<totfact> 0.14987360E-04</totfact>
</mgrwt>
<clustering>
<clus scale="   34.152">  1  6  2 -1</clus>
<clus scale="  477.612">  4  5 -1 -1</clus>
<clus scale="  300.000">  1  4  2 -1</clus>
</clustering>
</event>
<event>
 6    1  0.9687246E-012  0.3000000E+03  0.7818608E-02  0.1093470E+00
          1   -1    0    0  502    0  0.00000000000E+00  0.00000000000E+00  0.24029241830E+03  0.24029241830E+03  0.00000000000E+00 0.  1.
         13   -1    0    0    0    0 -0.00000000000E+00 -0.00000000000E+00 -0.27500000000E+03  0.27500000000E+03  0.00000000000E+00 0.  1.
    9000005    2    1    2  501    0 -0.14677598264E+02 -0.28936791336E+02 -0.42492300629E+02  0.48192519438E+03  0.47895044376E+03 0.  0.
         13    1    3    3    0    0 -0.26709420886E+02 -0.46170404565E+02 -0.25898189779E+03  0.26441770517E+03  0.00000000000E+00 0.  1.
          1    1    3    3  501    0  0.12031822622E+02  0.17233613229E+02  0.21648959717E+03  0.21750748921E+03  0.00000000000E+00 0.  1.
         21    1    1    2  502  501  0.14677598264E+02  0.28936791336E+02  0.77847189313E+01  0.33367223925E+02  0.00000000000E+00 0.  1.
<scales pt_clust_4="550.00000" pt_clust_5="550.00000" pt_clust_6="32.44641"></scales>
<mgrwt>
<rscale>  0 0.30000000E+03</rscale>
<asrwt>  1 0.32446414E+02</asrwt>
<pdfrwt beam="1">  1        1 0.87379061E+00 0.30000000E+03</pdfrwt>
<pdfrwt beam="2">0</pdfrwt>
<totfact> 0.23491132E-04</totfact>
</mgrwt>
<clustering>
<clus scale="   32.446">  1  6  2 -1</clus>
<clus scale="  478.950">  4  5 -1 -1</clus>
<clus scale="  300.000">  1  4  2 -1</clus>
</clustering>
</event>
<event>
 6    1  0.9687246E-012  0.3000000E+03  0.7818608E-02  0.1093470E+00
          1   -1    0    0  502    0  0.00000000000E+00  0.00000000000E+00  0.22828765891E+03  0.22828765891E+03  0.00000000000E+00 0.  1.
         13   -1    0    0    0    0 -0.00000000000E+00 -0.00000000000E+00 -0.27500000000E+03  0.27500000000E+03  0.00000000000E+00 0.  1.
    9000005    2    1    2  501    0 -0.22572030570E+02 -0.20413023080E+02 -0.70937851044E+02  0.46438954317E+03  0.45792934064E+03 0.  0.
         13    1    3    3    0    0 -0.13838316266E+03 -0.20857727349E+02  0.15602177268E+03  0.20958945118E+03  0.00000000000E+00 0.  1.
          1    1    3    3  501    0  0.11581113209E+03  0.44470426884E+00 -0.22695962372E+03  0.25480009199E+03  0.00000000000E+00 0.  1.
         21    1    1    2  502  501  0.22572030570E+02  0.20413023080E+02  0.24225509953E+02  0.38898115736E+02  0.00000000000E+00 0. -1.
<scales pt_clust_4="550.00000" pt_clust_5="550.00000" pt_clust_6="30.43334"></scales>
<mgrwt>
<rscale>  0 0.30000000E+03</rscale>
<asrwt>  1 0.30433338E+02</asrwt>
<pdfrwt beam="1">  1        1 0.83013694E+00 0.30000000E+03</pdfrwt>
<pdfrwt beam="2">0</pdfrwt>
<totfact> 0.60530605E-04</totfact>
</mgrwt>
<clustering>
<clus scale="   30.433">  1  6  2 -1</clus>
<clus scale="  457.929">  4  5 -1 -1</clus>
<clus scale="  300.000">  1  4  2 -1</clus>
</clustering>
</event>
<event>
 6    1  0.9687246E-012  0.3000000E+03  0.7818608E-02  0.1093470E+00
          1   -1    0    0  502    0  0.00000000000E+00  0.00000000000E+00  0.24694888329E+03  0.24694888329E+03  0.00000000000E+00 0.  1.
         13   -1    0    0    0    0 -0.00000000000E+00 -0.00000000000E+00 -0.27500000000E+03  0.27500000000E+03  0.00000000000E+00 0.  1.
    9000005    2    1    2  501    0 -0.26915338110E+02  0.27061091159E+02 -0.18651555209E+01  0.47566235562E+03  0.47412494099E+03 0.  0.
         13    1    3    3    0    0  0.58775387810E+02  0.26955130701E+02  0.22449697681E+03  0.23362366721E+03  0.00000000000E+00 0.  1.
          1    1    3    3  501    0 -0.85690725921E+02  0.10596045821E+00 -0.22636213233E+03  0.24203868841E+03  0.00000000000E+00 0.  1.
         21    1    1    2  502  501  0.26915338110E+02 -0.27061091159E+02 -0.26185961188E+02  0.46286527669E+02  0.00000000000E+00 0.  1.
<scales pt_clust_4="550.00000" pt_clust_5="550.00000" pt_clust_6="38.16726"></scales>
<mgrwt>
<rscale>  0 0.30000000E+03</rscale>
<asrwt>  1 0.38167257E+02</asrwt>
<pdfrwt beam="1">  1        1 0.89799594E+00 0.30000000E+03</pdfrwt>
<pdfrwt beam="2">0</pdfrwt>
<totfact> 0.11483883E-04</totfact>
</mgrwt>
<clustering>
<clus scale="   38.167">  1  6  2 -1</clus>
<clus scale="  474.125">  4  5 -1 -1</clus>
<clus scale="  300.000">  1  4  2 -1</clus>
</clustering>
</event>
<event>
 6    1  0.9687246E-012  0.3000000E+03  0.7818608E-02  0.1093470E+00
          1   -1    0    0  502    0  0.00000000000E+00  0.00000000000E+00  0.23318262878E+03  0.23318262878E+03  0.00000000000E+00 0.  1.
         13   -1    0    0    0    0 -0.00000000000E+00 -0.00000000000E+00 -0.27500000000E+03  0.27500000000E+03  0.00000000000E+00 0.  1.
    9000005    2    1    2  501    0 -0.26287932156E+01 -0.47774748041E+02 -0.36136086912E+02  0.45999949796E+03  0.45607497656E+03 0.  0.
         13    1    3    3    0    0 -0.68308513226E+02 -0.77671579311E+02  0.19343487678E+03  0.21935354742E+03  0.00000000000E+00 0.  1.
          1    1    3    3  501    0  0.65679720010E+02  0.29896831270E+02 -0.22957096369E+03  0.24064595054E+03  0.00000000000E+00 0.  1.
         21    1    1    2  502  501  0.26287932156E+01  0.47774748041E+02 -0.56812843053E+01  0.48183130819E+02  0.00000000000E+00 0.  1.
<scales pt_clust_4="550.00000" pt_clust_5="550.00000" pt_clust_6="47.84704"></scales>
<mgrwt>
<rscale>  0 0.30000000E+03</rscale>
<asrwt>  1 0.47847042E+02</asrwt>
<pdfrwt beam="1">  1        1 0.84793683E+00 0.30000000E+03</pdfrwt>
<pdfrwt beam="2">0</pdfrwt>
<totfact> 0.40180349E-04</totfact>
</mgrwt>
<clustering>
<clus scale="   47.847">  1  6  2 -1</clus>
<clus scale="  456.075">  4  5 -1 -1</clus>
<clus scale="  300.000">  1  4  2 -1</clus>
</clustering>
</event>
<event>
 6    1  0.9687246E-012  0.3000000E+03  0.7818608E-02  0.1093470E+00
          1   -1    0    0  502    0  0.00000000000E+00  0.00000000000E+00  0.21953694297E+03  0.21953694297E+03  0.00000000000E+00 0.  1.
         13   -1    0    0    0    0 -0.00000000000E+00 -0.00000000000E+00 -0.27500000000E+03  0.27500000000E+03  0.00000000000E+00 0.  1.
    9000005    2    1    2  501    0 -0.32939431043E+02 -0.24294996274E+01 -0.48746774397E+02  0.46083209112E+03  0.45705476653E+03 0.  0.
         13    1    3    3    0    0  0.30258991282E+01  0.14962811534E+02 -0.25262036131E+03  0.25308119003E+03  0.00000000000E+00 0.  1.
          1    1    3    3  501    0 -0.35965330171E+02 -0.17392311161E+02  0.20387358692E+03  0.20775090109E+03  0.00000000000E+00 0.  1.
         21    1    1    2  502  501  0.32939431043E+02  0.24294996274E+01 -0.67162826336E+01  0.33704851851E+02  0.00000000000E+00 0. -1.
<scales pt_clust_4="550.00000" pt_clust_5="550.00000" pt_clust_6="33.02892"></scales>
<mgrwt>
<rscale>  0 0.30000000E+03</rscale>
<asrwt>  1 0.33028922E+02</asrwt>
<pdfrwt beam="1">  1        1 0.79831616E+00 0.30000000E+03</pdfrwt>
<pdfrwt beam="2">0</pdfrwt>
<totfact> 0.10782315E-03</totfact>
</mgrwt>
<clustering>
<clus scale="   33.029">  1  6  2 -1</clus>
<clus scale="  457.055">  4  5 -1 -1</clus>
<clus scale="  300.000">  1  4  2 -1</clus>
</clustering>
</event>
<event>
 6    1  0.9687246E-012  0.3000000E+03  0.7818608E-02  0.1093470E+00
          1   -1    0    0  502    0  0.00000000000E+00  0.00000000000E+00  0.22569376135E+03  0.22569376135E+03  0.00000000000E+00 0.  1.
         13   -1    0    0    0    0 -0.00000000000E+00 -0.00000000000E+00 -0.27500000000E+03  0.27500000000E+03  0.00000000000E+00 0.  1.
    9000005    2    1    2  501    0  0.25240825541E+01  0.30369284162E+02 -0.69017065509E+02  0.46440077155E+03  0.45823144465E+03 0.  0.
         13    1    3    3    0    0 -0.83767990380E+02  0.22724981866E+03 -0.58609231781E+02  0.24918787760E+03  0.00000000000E+00 0.  1.
          3    1    3    3  501    0  0.86292072935E+02 -0.19688053450E+03 -0.10407833728E+02  0.21521289394E+03  0.00000000000E+00 0.  1.
         21    1    1    2  502  501 -0.25240825541E+01 -0.30369284162E+02  0.19710826860E+02  0.36292989802E+02  0.00000000000E+00 0.  1.
<scales pt_clust_4="550.00000" pt_clust_5="550.00000" pt_clust_6="30.47400"></scales>
<mgrwt>
<rscale>  0 0.30000000E+03</rscale>
<asrwt>  1 0.30473996E+02</asrwt>
<pdfrwt beam="1">  1        1 0.82070459E+00 0.30000000E+03</pdfrwt>
<pdfrwt beam="2">0</pdfrwt>
<totfact> 0.73211235E-04</totfact>
</mgrwt>
<clustering>
<clus scale="   30.474">  1  6  2 -1</clus>
<clus scale="  458.231">  4  5 -1 -1</clus>
<clus scale="  300.000">  1  4  2 -1</clus>
</clustering>
</event>
<event>
 6    1  0.9687246E-012  0.3000000E+03  0.7818608E-02  0.1093470E+00
          1   -1    0    0  502    0  0.00000000000E+00  0.00000000000E+00  0.23794928885E+03  0.23794928885E+03  0.00000000000E+00 0.  1.
         13   -1    0    0    0    0 -0.00000000000E+00 -0.00000000000E+00 -0.27500000000E+03  0.27500000000E+03  0.00000000000E+00 0.  1.
    9000005    2    1    2  501    0  0.39820152552E+02 -0.29618425005E+02 -0.40051027661E+02  0.46323110759E+03  0.45882031186E+03 0.  0.
         13    1    3    3    0    0 -0.62368312812E+02 -0.97291668072E+02  0.17850803998E+03  0.21265134718E+03  0.00000000000E+00 0.  1.
          1    1    3    3  501    0  0.10218846536E+03  0.67673243068E+02 -0.21855906764E+03  0.25057976041E+03  0.00000000000E+00 0.  1.
         21    1    1    2  502  501 -0.39820152552E+02  0.29618425005E+02  0.30003165134E+01  0.49718181264E+02  0.00000000000E+00 0. -1.
<scales pt_clust_4="550.00000" pt_clust_5="550.00000" pt_clust_6="49.62757"></scales>
<mgrwt>
<rscale>  0 0.30000000E+03</rscale>
<asrwt>  1 0.49627569E+02</asrwt>
<pdfrwt beam="1">  1        1 0.86527014E+00 0.30000000E+03</pdfrwt>
<pdfrwt beam="2">0</pdfrwt>
<totfact> 0.26639765E-04</totfact>
</mgrwt>
<clustering>
<clus scale="   49.628">  1  6  2 -1</clus>
<clus scale="  458.820">  4  5 -1 -1</clus>
<clus scale="  300.000">  1  4  2 -1</clus>
</clustering>
</event>
<event>
 6    1  0.9687246E-012  0.3000000E+03  0.7818608E-02  0.1093470E+00
          1   -1    0    0  502    0  0.00000000000E+00  0.00000000000E+00  0.24104434940E+03  0.24104434940E+03  0.00000000000E+00 0.  1.
         13   -1    0    0    0    0 -0.00000000000E+00 -0.00000000000E+00 -0.27500000000E+03  0.27500000000E+03  0.00000000000E+00 0.  1.
    9000005    2    1    2  501    0 -0.21563954723E+02  0.31479975175E+02 -0.46100110396E+02  0.47600086199E+03  0.47222410724E+03 0.  0.
         13    1    3    3    0    0 -0.10841036461E+02 -0.74610756259E+02  0.19678840963E+03  0.21073673431E+03  0.00000000000E+00 0.  1.
          1    1    3    3  501    0 -0.10722918263E+02  0.10609073143E+03 -0.24288852003E+03  0.26526412768E+03  0.00000000000E+00 0.  1.
         21    1    1    2  502  501  0.21563954723E+02 -0.31479975175E+02  0.12144459797E+02  0.40043487411E+02  0.00000000000E+00 0. -1.
<scales pt_clust_4="550.00000" pt_clust_5="550.00000" pt_clust_6="38.15748"></scales>
<mgrwt>
<rscale>  0 0.30000000E+03</rscale>
<asrwt>  1 0.38157476E+02</asrwt>
<pdfrwt beam="1">  1        1 0.87652491E+00 0.30000000E+03</pdfrwt>
<pdfrwt beam="2">0</pdfrwt>
<totfact> 0.21314552E-04</totfact>
</mgrwt>
<clustering>
<clus scale="   38.157">  1  6  2 -1</clus>
<clus scale="  472.224">  4  5 -1 -1</clus>
<clus scale="  300.000">  1  4  2 -1</clus>
</clustering>
</event>
<event>
 6    1  0.9687246E-012  0.3000000E+03  0.7818608E-02  0.1093470E+00
          1   -1    0    0  502    0  0.00000000000E+00  0.00000000000E+00  0.22908051954E+03  0.22908051954E+03  0.00000000000E+00 0.  1.
         13   -1    0    0    0    0 -0.00000000000E+00 -0.00000000000E+00 -0.27500000000E+03  0.27500000000E+03  0.00000000000E+00 0.  1.
    9000005    2    1    2  501    0  0.57177331876E+01 -0.36795794454E+02 -0.19891052409E+02  0.45864812989E+03  0.45670102925E+03 0.  0.
         13    1    3    3    0    0 -0.57571724200E+02  0.82910515211E+02 -0.20546756571E+03  0.22892264528E+03  0.00000000000E+00 0.  1.
          1    1    3    3  501    0  0.63289457387E+02 -0.11970630966E+03  0.18557651330E+03  0.22972548461E+03  0.00000000000E+00 0.  1.
         21    1    1    2  502  501 -0.57177331876E+01  0.36795794454E+02 -0.26028428054E+02  0.45432389649E+02  0.00000000000E+00 0.  1.
<scales pt_clust_4="550.00000" pt_clust_5="550.00000" pt_clust_6="37.23741"></scales>
<mgrwt>
<rscale>  0 0.30000000E+03</rscale>
<asrwt>  1 0.37237405E+02</asrwt>
<pdfrwt beam="1">  1        1 0.83302007E+00 0.30000000E+03</pdfrwt>
<pdfrwt beam="2">0</pdfrwt>
<totfact> 0.55314857E-04</totfact>
</mgrwt>
<clustering>
<clus scale="   37.237">  1  6  2 -1</clus>
<clus scale="  456.701">  4  5 -1 -1</clus>
<clus scale="  300.000">  1  4  2 -1</clus>
</clustering>
</event>
<event>
 6    1  0.9687246E-012  0.3000000E+03  0.7818608E-02  0.1093470E+00
          1   -1    0    0  502    0  0.00000000000E+00  0.00000000000E+00  0.23350565396E+03  0.23350565396E+03  0.00000000000E+00 0.  1.
         13   -1    0    0    0    0 -0.00000000000E+00 -0.00000000000E+00 -0.27500000000E+03  0.27500000000E+03  0.00000000000E+00 0.  1.
    9000005    2    1    2  501    0  0.42940372355E+02  0.15447577738E+01 -0.36538591216E+02  0.46525266146E+03  0.46182107844E+03 0.  0.
         13    1    3    3    0    0 -0.71826811398E+02 -0.19893005194E+03  0.52110826098E+02  0.21782514685E+03  0.00000000000E+00 0.  1.
          3    1    3    3  501    0  0.11476718375E+03  0.20047480972E+03 -0.88649417314E+02  0.24742751461E+03  0.00000000000E+00 0.  1.
         21    1    1    2  502  501 -0.42940372355E+02 -0.15447577738E+01 -0.49557548227E+01  0.43252992503E+02  0.00000000000E+00 0. -1.
<scales pt_clust_4="550.00000" pt_clust_5="550.00000" pt_clust_6="42.96817"></scales>
<mgrwt>
<rscale>  0 0.30000000E+03</rscale>
<asrwt>  1 0.42968171E+02</asrwt>
<pdfrwt beam="1">  1        1 0.84911147E+00 0.30000000E+03</pdfrwt>
<pdfrwt beam="2">0</pdfrwt>
<totfact> 0.39950745E-04</totfact>
</mgrwt>
<clustering>
<clus scale="   42.968">  1  6  2 -1</clus>
<clus scale="  461.821">  4  5 -1 -1</clus>
<clus scale="  300.000">  1  4  2 -1</clus>
</clustering>
</event>
<event>
 6    1  0.9687246E-012  0.3000000E+03  0.7818608E-02  0.1093470E+00
          1   -1    0    0  502    0  0.00000000000E+00  0.00000000000E+00  0.23587833657E+03  0.23587833657E+03  0.00000000000E+00 0.  1.
         13   -1    0    0    0    0 -0.00000000000E+00 -0.00000000000E+00 -0.27500000000E+03  0.27500000000E+03  0.00000000000E+00 0.  1.
    9000005    2    1    2  501    0 -0.14783323557E+02  0.38320646865E+02 -0.56498412956E+02  0.46628046604E+03  0.46101885397E+03 0.  0.
         13    1    3    3    0    0  0.16577479983E+03 -0.13238858988E+03 -0.48742391783E+02  0.21767830334E+03  0.00000000000E+00 0.  1.
          1    1    3    3  501    0 -0.18055812339E+03  0.17070923675E+03 -0.77560211735E+01  0.24860216270E+03  0.00000000000E+00 0.  1.
         21    1    1    2  502  501  0.14783323557E+02 -0.38320646865E+02  0.17376749524E+02  0.44597870527E+02  0.00000000000E+00 0.  1.
<scales pt_clust_4="550.00000" pt_clust_5="550.00000" pt_clust_6="41.07333"></scales>
<mgrwt>
<rscale>  0 0.30000000E+03</rscale>
<asrwt>  1 0.41073332E+02</asrwt>
<pdfrwt beam="1">  1        1 0.85773941E+00 0.30000000E+03</pdfrwt>
<pdfrwt beam="2">0</pdfrwt>
<totfact> 0.33177753E-04</totfact>
</mgrwt>
<clustering>
<clus scale="   41.073">  1  6  2 -1</clus>
<clus scale="  461.019">  4  5 -1 -1</clus>
<clus scale="  300.000">  1  4  2 -1</clus>
</clustering>
</event>
<event>
 6    1  0.9687246E-012  0.3000000E+03  0.7818608E-02  0.1093470E+00
          1   -1    0    0  502    0  0.00000000000E+00  0.00000000000E+00  0.25470298709E+03  0.25470298709E+03  0.00000000000E+00 0.  1.
         13   -1    0    0    0    0 -0.00000000000E+00 -0.00000000000E+00 -0.27500000000E+03  0.27500000000E+03  0.00000000000E+00 0.  1.
    9000005    2    1    2  501    0 -0.59967148152E+01  0.31431808618E+02 -0.32578672290E+02  0.49542823926E+03  0.49331921834E+03 0.  0.
         13    1    3    3    0    0  0.19027337750E+03  0.85181099299E+02 -0.15334538468E+03  0.25879448384E+03  0.00000000000E+00 0.  1.
          1    1    3    3  501    0 -0.19627009231E+03 -0.53749290681E+02  0.12076671239E+03  0.23663375542E+03  0.00000000000E+00 0.  1.
         21    1    1    2  502  501  0.59967148152E+01 -0.31431808618E+02  0.12281659379E+02  0.34274747828E+02  0.00000000000E+00 0.  1.
<scales pt_clust_4="550.00000" pt_clust_5="550.00000" pt_clust_6="31.99874"></scales>
<mgrwt>
<rscale>  0 0.30000000E+03</rscale>
<asrwt>  1 0.31998737E+02</asrwt>
<pdfrwt beam="1">  1        1 0.92619268E+00 0.30000000E+03</pdfrwt>
<pdfrwt beam="2">0</pdfrwt>
<totfact> 0.31518204E-05</totfact>
</mgrwt>
<clustering>
<clus scale="   31.999">  1  6  2 -1</clus>
<clus scale="  493.319">  4  5 -1 -1</clus>
<clus scale="  300.000">  1  4  2 -1</clus>
</clustering>
</event>
<event>
 6    1  0.9687246E-012  0.3000000E+03  0.7818608E-02  0.1093470E+00
          1   -1    0    0  502    0  0.00000000000E+00  0.00000000000E+00  0.25981499592E+03  0.25981499592E+03  0.00000000000E+00 0.  1.
         13   -1    0    0    0    0 -0.00000000000E+00 -0.00000000000E+00 -0.27500000000E+03  0.27500000000E+03  0.00000000000E+00 0.  1.
    9000005    2    1    2  501    0  0.33493641028E+02  0.75186943247E+01 -0.56308064322E+02  0.48124764731E+03  0.47670781951E+03 0.  0.
         13    1    3    3    0    0  0.16442909871E+03 -0.64671944581E+02 -0.20482471307E+03  0.27050425505E+03  0.00000000000E+00 0.  1.
          1    1    3    3  501    0 -0.13093545768E+03  0.72190638906E+02  0.14851664874E+03  0.21074339225E+03  0.00000000000E+00 0.  1.
         21    1    1    2  502  501 -0.33493641028E+02 -0.75186943247E+01  0.41123060239E+02  0.53567348610E+02  0.00000000000E+00 0.  1.
<scales pt_clust_4="550.00000" pt_clust_5="550.00000" pt_clust_6="34.32717"></scales>
<mgrwt>
<rscale>  0 0.30000000E+03</rscale>
<asrwt>  1 0.34327172E+02</asrwt>
<pdfrwt beam="1">  1        1 0.94478180E+00 0.30000000E+03</pdfrwt>
<pdfrwt beam="2">0</pdfrwt>
<totfact> 0.15756170E-05</totfact>
</mgrwt>
<clustering>
<clus scale="   34.327">  1  6  2 -1</clus>
<clus scale="  476.708">  4  5 -1 -1</clus>
<clus scale="  300.000">  1  4  2 -1</clus>
</clustering>
</event>
<event>
 6    1  0.9687246E-012  0.3000000E+03  0.7818608E-02  0.1093470E+00
          1   -1    0    0  502    0  0.00000000000E+00  0.00000000000E+00  0.22680995836E+03  0.22680995836E+03  0.00000000000E+00 0.  1.
         13   -1    0    0    0    0 -0.00000000000E+00 -0.00000000000E+00 -0.27500000000E+03  0.27500000000E+03  0.00000000000E+00 0.  1.
    9000005    2    1    2  501    0 -0.24924147815E+02  0.31223075076E+02 -0.50799882113E+02  0.46177366446E+03  0.45722882193E+03 0.  0.
         13    1    3    3    0    0 -0.20387782666E+03 -0.10645537028E+03 -0.52788760749E+02  0.23597789584E+03  0.00000000000E+00 0.  1.
          3    1    3    3  501    0  0.17895367885E+03  0.13767844535E+03  0.19888786360E+01  0.22579576862E+03  0.00000000000E+00 0.  1.
         21    1    1    2  502  501  0.24924147815E+02 -0.31223075076E+02  0.26098404679E+01  0.40036293894E+02  0.00000000000E+00 0. -1.
<scales pt_clust_4="550.00000" pt_clust_5="550.00000" pt_clust_6="39.95114"></scales>
<mgrwt>
<rscale>  0 0.30000000E+03</rscale>
<asrwt>  1 0.39951140E+02</asrwt>
<pdfrwt beam="1">  1        1 0.82476348E+00 0.30000000E+03</pdfrwt>
<pdfrwt beam="2">0</pdfrwt>
<totfact> 0.64050411E-04</totfact>
</mgrwt>
<clustering>
<clus scale="   39.951">  1  6  2 -1</clus>
<clus scale="  457.229">  4  5 -1 -1</clus>
<clus scale="  300.000">  1  4  2 -1</clus>
</clustering>
</event>
<event>
 6    1  0.9687246E-012  0.3000000E+03  0.7818608E-02  0.1093470E+00
          1   -1    0    0  502    0  0.00000000000E+00  0.00000000000E+00  0.23236645886E+03  0.23236645886E+03  0.00000000000E+00 0.  1.
         13   -1    0    0    0    0 -0.00000000000E+00 -0.00000000000E+00 -0.27500000000E+03  0.27500000000E+03  0.00000000000E+00 0.  1.
    9000005    2    1    2  501    0 -0.22955456347E+02 -0.35318485784E+02 -0.53730696233E+02  0.46380621018E+03  0.45875359886E+03 0.  0.
         13    1    3    3    0    0 -0.19936232819E+03 -0.91919830413E+01 -0.16036886661E+03  0.25602344391E+03  0.00000000000E+00 0.  1.
          3    1    3    3  501    0  0.17640687184E+03 -0.26126502743E+02  0.10663817038E+03  0.20778276627E+03  0.00000000000E+00 0.  1.
         21    1    1    2  502  501  0.22955456347E+02  0.35318485784E+02  0.11097155098E+02  0.43560248685E+02  0.00000000000E+00 0. -1.
<scales pt_clust_4="550.00000" pt_clust_5="550.00000" pt_clust_6="42.12302"></scales>
<mgrwt>
<rscale>  0 0.30000000E+03</rscale>
<asrwt>  1 0.42123015E+02</asrwt>
<pdfrwt beam="1">  1        1 0.84496894E+00 0.30000000E+03</pdfrwt>
<pdfrwt beam="2">0</pdfrwt>
<totfact> 0.43696684E-04</totfact>
</mgrwt>
<clustering>
<clus scale="   42.123">  1  6  2 -1</clus>
<clus scale="  458.754">  4  5 -1 -1</clus>
<clus scale="  300.000">  1  4  2 -1</clus>
</clustering>
</event>
<event>
 6    1  0.9687246E-012  0.3000000E+03  0.7818608E-02  0.1093470E+00
          1   -1    0    0  502    0  0.00000000000E+00  0.00000000000E+00  0.25351224865E+03  0.25351224865E+03  0.00000000000E+00 0.  1.
         13   -1    0    0    0    0 -0.00000000000E+00 -0.00000000000E+00 -0.27500000000E+03  0.27500000000E+03  0.00000000000E+00 0.  1.
    9000005    2    1    2  501    0  0.17910914953E+01  0.31829921050E+02 -0.23371998390E+02  0.49657633987E+03  0.49500046377E+03 0.  0.
         13    1    3    3    0    0 -0.32317119533E+02  0.24005842307E+03  0.88334011412E+02  0.25782812157E+03  0.00000000000E+00 0.  1.
          3    1    3    3  501    0  0.34108211028E+02 -0.20822850202E+03 -0.11170600980E+03  0.23874821830E+03  0.00000000000E+00 0.  1.
         21    1    1    2  502  501 -0.17910914953E+01 -0.31829921050E+02  0.18842470420E+01  0.31935908782E+02  0.00000000000E+00 0. -1.
<scales pt_clust_4="550.00000" pt_clust_5="550.00000" pt_clust_6="31.88027"></scales>
<mgrwt>
<rscale>  0 0.30000000E+03</rscale>
<asrwt>  1 0.31880274E+02</asrwt>
<pdfrwt beam="1">  1        1 0.92186272E+00 0.30000000E+03</pdfrwt>
<pdfrwt beam="2">0</pdfrwt>
<totfact> 0.38805577E-05</totfact>
</mgrwt>
<clustering>
<clus scale="   31.880">  1  6  2 -1</clus>
<clus scale="  495.000">  4  5 -1 -1</clus>
<clus scale="  300.000">  1  4  2 -1</clus>
</clustering>
</event>
<event>
 6    1  0.9687246E-012  0.3000000E+03  0.7818608E-02  0.1093470E+00
          1   -1    0    0  502    0  0.00000000000E+00  0.00000000000E+00  0.22001306865E+03  0.22001306865E+03  0.00000000000E+00 0.  1.
         13   -1    0    0    0    0 -0.00000000000E+00 -0.00000000000E+00 -0.27500000000E+03  0.27500000000E+03  0.00000000000E+00 0.  1.
    9000005    2    1    2  501    0 -0.23002908575E+01  0.30922715779E+02 -0.51193462968E+02  0.46377373300E+03  0.45989542190E+03 0.  0.
         13    1    3    3    0    0 -0.79098608520E+01  0.14224992680E+03 -0.21963091844E+03  0.26179256657E+03  0.00000000000E+00 0.  1.
          3    1    3    3  501    0  0.56095699944E+01 -0.11132721102E+03  0.16843745547E+03  0.20198116644E+03  0.00000000000E+00 0.  1.
         21    1    1    2  502  501  0.23002908575E+01 -0.30922715779E+02 -0.37934683835E+01  0.31239335646E+02  0.00000000000E+00 0.  1.
<scales pt_clust_4="550.00000" pt_clust_5="550.00000" pt_clust_6="31.00817"></scales>
<mgrwt>
<rscale>  0 0.30000000E+03</rscale>
<asrwt>  1 0.31008171E+02</asrwt>
<pdfrwt beam="1">  1        1 0.80004752E+00 0.30000000E+03</pdfrwt>
<pdfrwt beam="2">0</pdfrwt>
<totfact> 0.10602156E-03</totfact>
</mgrwt>
<clustering>
<clus scale="   31.008">  1  6  2 -1</clus>
<clus scale="  459.895">  4  5 -1 -1</clus>
<clus scale="  300.000">  1  4  2 -1</clus>
</clustering>
</event>
<event>
 6    1  0.9687246E-012  0.3000000E+03  0.7818608E-02  0.1093470E+00
          1   -1    0    0  502    0  0.00000000000E+00  0.00000000000E+00  0.24828130460E+03  0.24828130460E+03  0.00000000000E+00 0.  1.
         13   -1    0    0    0    0 -0.00000000000E+00 -0.00000000000E+00 -0.27500000000E+03  0.27500000000E+03  0.00000000000E+00 0.  1.
    9000005    2    1    2  501    0  0.26202065585E+02  0.14806554572E+02 -0.39218820719E+02  0.49069241950E+03  0.48819581354E+03 0.  0.
         13    1    3    3    0    0 -0.20261649434E+02 -0.24290222821E+02 -0.25989550621E+03  0.26181333715E+03  0.00000000000E+00 0.  1.
          3    1    3    3  501    0  0.46463715019E+02  0.39096777393E+02  0.22067668549E+03  0.22887908235E+03  0.00000000000E+00 0.  1.
         21    1    1    2  502  501 -0.26202065585E+02 -0.14806554572E+02  0.12500125323E+02  0.32588885103E+02  0.00000000000E+00 0. -1.
<scales pt_clust_4="550.00000" pt_clust_5="550.00000" pt_clust_6="30.09622"></scales>
<mgrwt>
<rscale>  0 0.30000000E+03</rscale>
<asrwt>  1 0.30096217E+02</asrwt>
<pdfrwt beam="1">  1        1 0.90284111E+00 0.30000000E+03</pdfrwt>
<pdfrwt beam="2">0</pdfrwt>
<totfact> 0.10372529E-04</totfact>
</mgrwt>
<clustering>
<clus scale="   30.096">  1  6  2 -1</clus>
<clus scale="  488.196">  4  5 -1 -1</clus>
<clus scale="  300.000">  1  4  2 -1</clus>
</clustering>
</event>
<event>
 6    1  0.9687246E-012  0.3000000E+03  0.7818608E-02  0.1093470E+00
          1   -1    0    0  502    0  0.00000000000E+00  0.00000000000E+00  0.22499336973E+03  0.22499336973E+03  0.00000000000E+00 0.  1.
         13   -1    0    0    0    0 -0.00000000000E+00 -0.00000000000E+00 -0.27500000000E+03  0.27500000000E+03  0.00000000000E+00 0.  1.
    9000005    2    1    2  501    0  0.30462979749E+02 -0.15446766130E+02 -0.63811807336E+02  0.46315346429E+03  0.45746321055E+03 0.  0.
         13    1    3    3    0    0  0.30271683102E+02  0.20391315376E+03  0.55442007275E+02  0.21347310193E+03  0.00000000000E+00 0.  1.
          1    1    3    3  501    0  0.19129664674E+00 -0.21935991989E+03 -0.11925381461E+03  0.24968036236E+03  0.00000000000E+00 0.  1.
         21    1    1    2  502  501 -0.30462979749E+02  0.15446766130E+02  0.13805177070E+02  0.36839905442E+02  0.00000000000E+00 0. -1.
<scales pt_clust_4="550.00000" pt_clust_5="550.00000" pt_clust_6="34.15546"></scales>
<mgrwt>
<rscale>  0 0.30000000E+03</rscale>
<asrwt>  1 0.34155464E+02</asrwt>
<pdfrwt beam="1">  1        1 0.81815771E+00 0.30000000E+03</pdfrwt>
<pdfrwt beam="2">0</pdfrwt>
<totfact> 0.75337694E-04</totfact>
</mgrwt>
<clustering>
<clus scale="   34.155">  1  6  2 -1</clus>
<clus scale="  457.463">  4  5 -1 -1</clus>
<clus scale="  300.000">  1  4  2 -1</clus>
</clustering>
</event>
<event>
 6    1  0.9687246E-012  0.3000000E+03  0.7818608E-02  0.1093470E+00
          1   -1    0    0  502    0  0.00000000000E+00  0.00000000000E+00  0.24587569103E+03  0.24587569103E+03  0.00000000000E+00 0.  1.
         13   -1    0    0    0    0 -0.00000000000E+00 -0.00000000000E+00 -0.27500000000E+03  0.27500000000E+03  0.00000000000E+00 0.  1.
    9000005    2    1    2  501    0 -0.28774853212E+02 -0.18458868184E+02 -0.42658656358E+02  0.48410749076E+03  0.48101099743E+03 0.  0.
         13    1    3    3    0    0 -0.96924775313E+02  0.13048025004E+03  0.15691711425E+03  0.22592584727E+03  0.00000000000E+00 0.  1.
          3    1    3    3  501    0  0.68149922101E+02 -0.14893911822E+03 -0.19957577061E+03  0.25818164349E+03  0.00000000000E+00 0.  1.
         21    1    1    2  502  501  0.28774853212E+02  0.18458868184E+02  0.13534347383E+02  0.36768200270E+02  0.00000000000E+00 0. -1.
<scales pt_clust_4="550.00000" pt_clust_5="550.00000" pt_clust_6="34.18658"></scales>
<mgrwt>
<rscale>  0 0.30000000E+03</rscale>
<asrwt>  1 0.34186576E+02</asrwt>
<pdfrwt beam="1">  1        1 0.89409342E+00 0.30000000E+03</pdfrwt>
<pdfrwt beam="2">0</pdfrwt>
<totfact> 0.12967398E-04</totfact>
</mgrwt>
<clustering>
<clus scale="   34.187">  1  6  2 -1</clus>
<clus scale="  481.011">  4  5 -1 -1</clus>
<clus scale="  300.000">  1  4  2 -1</clus>
</clustering>
</event>
<event>
 6    1  0.9687246E-012  0.3000000E+03  0.7818608E-02  0.1093470E+00
          1   -1    0    0  502    0  0.00000000000E+00  0.00000000000E+00  0.23677555751E+03  0.23677555751E+03  0.00000000000E+00 0.  1.
         13   -1    0    0    0    0 -0.00000000000E+00 -0.00000000000E+00 -0.27500000000E+03  0.27500000000E+03  0.00000000000E+00 0.  1.
    9000005    2    1    2  501    0  0.46220003997E+02  0.67505830344E+01 -0.48276236436E+02  0.46399587875E+03  0.45910752701E+03 0.  0.
         13    1    3    3    0    0 -0.18041453953E+03  0.79271531661E+02  0.55003638272E+02  0.20459418865E+03  0.00000000000E+00 0.  1.
          3    1    3    3  501    0  0.22663454353E+03 -0.72520948626E+02 -0.10327987471E+03  0.25940169010E+03  0.00000000000E+00 0.  1.
         21    1    1    2  502  501 -0.46220003997E+02 -0.67505830344E+01  0.10051793947E+02  0.47779678759E+02  0.00000000000E+00 0.  1.
<scales pt_clust_4="550.00000" pt_clust_5="550.00000" pt_clust_6="46.71038"></scales>
<mgrwt>
<rscale>  0 0.30000000E+03</rscale>
<asrwt>  1 0.46710375E+02</asrwt>
<pdfrwt beam="1">  1        1 0.86100203E+00 0.30000000E+03</pdfrwt>
<pdfrwt beam="2">0</pdfrwt>
<totfact> 0.29940370E-04</totfact>
</mgrwt>
<clustering>
<clus scale="   46.710">  1  6  2 -1</clus>
<clus scale="  459.108">  4  5 -1 -1</clus>
<clus scale="  300.000">  1  4  2 -1</clus>
</clustering>
</event>
<event>
 6    1  0.9687246E-012  0.3000000E+03  0.7818608E-02  0.1093470E+00
          1   -1    0    0  502    0  0.00000000000E+00  0.00000000000E+00  0.26981541964E+03  0.26981541964E+03  0.00000000000E+00 0.  1.
         13   -1    0    0    0    0 -0.00000000000E+00 -0.00000000000E+00 -0.27500000000E+03  0.27500000000E+03  0.00000000000E+00 0.  1.
    9000005    2    1    2  501    0  0.33534254402E+02  0.11109650910E+02 -0.27384802545E+02  0.50309227946E+03  0.50110272767E+03 0.  0.
         13    1    3    3    0    0  0.22104742811E+03 -0.12588835417E+03 -0.76686500641E+02  0.26568903359E+03  0.00000000000E+00 0.  1.
          3    1    3    3  501    0 -0.18751317371E+03  0.13699800508E+03  0.49301698096E+02  0.23740324586E+03  0.00000000000E+00 0.  1.
         21    1    1    2  502  501 -0.33534254402E+02 -0.11109650910E+02  0.22200222180E+02  0.41723140180E+02  0.00000000000E+00 0.  1.
<scales pt_clust_4="550.00000" pt_clust_5="550.00000" pt_clust_6="35.32663"></scales>
<mgrwt>
<rscale>  0 0.30000000E+03</rscale>
<asrwt>  1 0.35326627E+02</asrwt>
<pdfrwt beam="1">  1        1 0.98114698E+00 0.30000000E+03</pdfrwt>
<pdfrwt beam="2">0</pdfrwt>
<totfact> 0.25549617E-06</totfact>
</mgrwt>
<clustering>
<clus scale="   35.327">  1  6  2 -1</clus>
<clus scale="  501.103">  4  5 -1 -1</clus>
<clus scale="  300.000">  1  4  2 -1</clus>
</clustering>
</event>
<event>
 6    1  0.9687246E-012  0.3000000E+03  0.7818608E-02  0.1093470E+00
          1   -1    0    0  502    0  0.00000000000E+00  0.00000000000E+00  0.23682313207E+03  0.23682313207E+03  0.00000000000E+00 0.  1.
         13   -1    0    0    0    0 -0.00000000000E+00 -0.00000000000E+00 -0.27500000000E+03  0.27500000000E+03  0.00000000000E+00 0.  1.
    9000005    2    1    2  501    0  0.27705024338E+02 -0.22776265466E+02 -0.53006366978E+02  0.47301281535E+03  0.46866312198E+03 0.  0.
         13    1    3    3    0    0  0.16829082660E+02  0.53422844049E+01  0.20876534914E+03  0.20951068953E+03  0.00000000000E+00 0.  1.
          3    1    3    3  501    0  0.10875941678E+02 -0.28118549871E+02 -0.26177171612E+03  0.26350212582E+03  0.00000000000E+00 0.  1.
         21    1    1    2  502  501 -0.27705024338E+02  0.22776265466E+02  0.14829499051E+02  0.38810316724E+02  0.00000000000E+00 0.  1.
<scales pt_clust_4="550.00000" pt_clust_5="550.00000" pt_clust_6="35.86540"></scales>
<mgrwt>
<rscale>  0 0.30000000E+03</rscale>
<asrwt>  1 0.35865396E+02</asrwt>
<pdfrwt beam="1">  1        1 0.86117503E+00 0.30000000E+03</pdfrwt>
<pdfrwt beam="2">0</pdfrwt>
<totfact> 0.31278951E-04</totfact>
</mgrwt>
<clustering>
<clus scale="   35.865">  1  6  2 -1</clus>
<clus scale="  468.663">  4  5 -1 -1</clus>
<clus scale="  300.000">  1  4  2 -1</clus>
</clustering>
</event>
<event>
 6    1  0.9687246E-012  0.3000000E+03  0.7818608E-02  0.1093470E+00
          1   -1    0    0  502    0  0.00000000000E+00  0.00000000000E+00  0.22555251100E+03  0.22555251100E+03  0.00000000000E+00 0.  1.
         13   -1    0    0    0    0 -0.00000000000E+00 -0.00000000000E+00 -0.27500000000E+03  0.27500000000E+03  0.00000000000E+00 0.  1.
    9000005    2    1    2  501    0  0.20222867961E+02  0.31699414788E+02 -0.35922806575E+02  0.46059335284E+03  0.45764830532E+03 0.  0.
         13    1    3    3    0    0  0.34006317230E+02 -0.19556800132E+03 -0.10245899530E+03  0.22338558250E+03  0.00000000000E+00 0.  1.
          3    1    3    3  501    0 -0.13783449269E+02  0.22726741611E+03  0.66536188724E+02  0.23720777034E+03  0.00000000000E+00 0.  1.
         21    1    1    2  502  501 -0.20222867961E+02 -0.31699414788E+02 -0.13524682422E+02  0.39959158163E+02  0.00000000000E+00 0. -1.
<scales pt_clust_4="550.00000" pt_clust_5="550.00000" pt_clust_6="37.60078"></scales>
<mgrwt>
<rscale>  0 0.30000000E+03</rscale>
<asrwt>  1 0.37600781E+02</asrwt>
<pdfrwt beam="1">  1        1 0.82019095E+00 0.30000000E+03</pdfrwt>
<pdfrwt beam="2">0</pdfrwt>
<totfact> 0.71100443E-04</totfact>
</mgrwt>
<clustering>
<clus scale="   37.601">  1  6  2 -1</clus>
<clus scale="  457.648">  4  5 -1 -1</clus>
<clus scale="  300.000">  1  4  2 -1</clus>
</clustering>
</event>
<event>
 6    1  0.9687246E-012  0.3000000E+03  0.7818608E-02  0.1093470E+00
          1   -1    0    0  502    0  0.00000000000E+00  0.00000000000E+00  0.23457912965E+03  0.23457912965E+03  0.00000000000E+00 0.  1.
         13   -1    0    0    0    0 -0.00000000000E+00 -0.00000000000E+00 -0.27500000000E+03  0.27500000000E+03  0.00000000000E+00 0.  1.
    9000005    2    1    2  501    0 -0.37055480521E+02  0.18514937978E+02 -0.30087610729E+02  0.46688618153E+03  0.46407060952E+03 0.  0.
         13    1    3    3    0    0  0.64466190147E+02 -0.38763419911E+02 -0.22640296490E+03  0.23857241020E+03  0.00000000000E+00 0.  1.
          3    1    3    3  501    0 -0.10152167067E+03  0.57278357889E+02  0.19631535417E+03  0.22831377133E+03  0.00000000000E+00 0.  1.
         21    1    1    2  502  501  0.37055480521E+02 -0.18514937978E+02 -0.10333259619E+02  0.42692948122E+02  0.00000000000E+00 0.  1.
<scales pt_clust_4="550.00000" pt_clust_5="550.00000" pt_clust_6="41.42358"></scales>
<mgrwt>
<rscale>  0 0.30000000E+03</rscale>
<asrwt>  1 0.41423584E+02</asrwt>
<pdfrwt beam="1">  1        1 0.85301502E+00 0.30000000E+03</pdfrwt>
<pdfrwt beam="2">0</pdfrwt>
<totfact> 0.36930097E-04</totfact>
</mgrwt>
<clustering>
<clus scale="   41.424">  1  6  2 -1</clus>
<clus scale="  464.071">  4  5 -1 -1</clus>
<clus scale="  300.000">  1  4  2 -1</clus>
</clustering>
</event>
<event>
 6    1  0.9687246E-012  0.3000000E+03  0.7818608E-02  0.1093470E+00
          1   -1    0    0  502    0  0.00000000000E+00  0.00000000000E+00  0.23884964473E+03  0.23884964473E+03  0.00000000000E+00 0.  1.
         13   -1    0    0    0    0 -0.00000000000E+00 -0.00000000000E+00 -0.27500000000E+03  0.27500000000E+03  0.00000000000E+00 0.  1.
    9000005    2    1    2  501    0 -0.18950149699E+02 -0.29796740417E+02 -0.36800004499E+02  0.47853143473E+03  0.47580577948E+03 0.  0.
         13    1    3    3    0    0 -0.10680826713E+03  0.18523944676E+03 -0.10250391120E+03  0.23712593780E+03  0.00000000000E+00 0.  1.
          3    1    3    3  501    0  0.87858117434E+02 -0.21503618718E+03  0.65703906704E+02  0.24140549694E+03  0.00000000000E+00 0.  1.
         21    1    1    2  502  501  0.18950149699E+02  0.29796740417E+02  0.64964922774E+00  0.35318209994E+02  0.00000000000E+00 0. -1.
<scales pt_clust_4="550.00000" pt_clust_5="550.00000" pt_clust_6="35.31223"></scales>
<mgrwt>
<rscale>  0 0.30000000E+03</rscale>
<asrwt>  1 0.35312235E+02</asrwt>
<pdfrwt beam="1">  1        1 0.86854416E+00 0.30000000E+03</pdfrwt>
<pdfrwt beam="2">0</pdfrwt>
<totfact> 0.26168941E-04</totfact>
</mgrwt>
<clustering>
<clus scale="   35.312">  1  6  2 -1</clus>
<clus scale="  475.806">  4  5 -1 -1</clus>
<clus scale="  300.000">  1  4  2 -1</clus>
</clustering>
</event>
<event>
 6    1  0.9687246E-012  0.3000000E+03  0.7818608E-02  0.1093470E+00
          1   -1    0    0  502    0  0.00000000000E+00  0.00000000000E+00  0.25509978501E+03  0.25509978501E+03  0.00000000000E+00 0.  1.
         13   -1    0    0    0    0 -0.00000000000E+00 -0.00000000000E+00 -0.27500000000E+03  0.27500000000E+03  0.00000000000E+00 0.  1.
    9000005    2    1    2  501    0 -0.14024789680E+02  0.29005580316E+02 -0.34338109058E+02  0.49479438599E+03  0.49254884048E+03 0.  0.
         13    1    3    3    0    0 -0.83029631890E+02 -0.13863542077E+01  0.21702293383E+03  0.23236780232E+03  0.00000000000E+00 0.  1.
          1    1    3    3  501    0  0.69004842210E+02  0.30391934524E+02 -0.25136104289E+03  0.26242658366E+03  0.00000000000E+00 0.  1.
         21    1    1    2  502  501  0.14024789680E+02 -0.29005580316E+02  0.14437894069E+02  0.35305399023E+02  0.00000000000E+00 0. -1.
<scales pt_clust_4="550.00000" pt_clust_5="550.00000" pt_clust_6="32.21829"></scales>
<mgrwt>
<rscale>  0 0.30000000E+03</rscale>
<asrwt>  1 0.32218293E+02</asrwt>
<pdfrwt beam="1">  1        1 0.92763558E+00 0.30000000E+03</pdfrwt>
<pdfrwt beam="2">0</pdfrwt>
<totfact> 0.29411468E-05</totfact>
</mgrwt>
<clustering>
<clus scale="   32.218">  1  6  2 -1</clus>
<clus scale="  492.549">  4  5 -1 -1</clus>
<clus scale="  300.000">  1  4  2 -1</clus>
</clustering>
</event>
<event>
 6    1  0.9687246E-012  0.3000000E+03  0.7818608E-02  0.1093470E+00
          1   -1    0    0  502    0  0.00000000000E+00  0.00000000000E+00  0.22835657392E+03  0.22835657392E+03  0.00000000000E+00 0.  1.
         13   -1    0    0    0    0 -0.00000000000E+00 -0.00000000000E+00 -0.27500000000E+03  0.27500000000E+03  0.00000000000E+00 0.  1.
    9000005    2    1    2  501    0  0.34604163377E+02  0.10553276075E+02 -0.57215262455E+02  0.46566594533E+03  0.46071940118E+03 0.  0.
         13    1    3    3    0    0 -0.10656935116E+03  0.19930420695E+03 -0.18020986269E+02  0.22672439097E+03  0.00000000000E+00 0.  1.
          3    1    3    3  501    0  0.14117351454E+03 -0.18875093088E+03 -0.39194276186E+02  0.23894155436E+03  0.00000000000E+00 0.  1.
         21    1    1    2  502  501 -0.34604163377E+02 -0.10553276075E+02  0.10571836374E+02  0.37690628587E+02  0.00000000000E+00 0.  1.
<scales pt_clust_4="550.00000" pt_clust_5="550.00000" pt_clust_6="36.17761"></scales>
<mgrwt>
<rscale>  0 0.30000000E+03</rscale>
<asrwt>  1 0.36177614E+02</asrwt>
<pdfrwt beam="1">  1        1 0.83038754E+00 0.30000000E+03</pdfrwt>
<pdfrwt beam="2">0</pdfrwt>
<totfact> 0.58309558E-04</totfact>
</mgrwt>
<clustering>
<clus scale="   36.178">  1  6  2 -1</clus>
<clus scale="  460.719">  4  5 -1 -1</clus>
<clus scale="  300.000">  1  4  2 -1</clus>
</clustering>
</event>
<event>
 6    1  0.9687246E-012  0.3000000E+03  0.7818608E-02  0.1093470E+00
          1   -1    0    0  502    0  0.00000000000E+00  0.00000000000E+00  0.22595222273E+03  0.22595222273E+03  0.00000000000E+00 0.  1.
         13   -1    0    0    0    0 -0.00000000000E+00 -0.00000000000E+00 -0.27500000000E+03  0.27500000000E+03  0.00000000000E+00 0.  1.
    9000005    2    1    2  501    0  0.19217496934E+02  0.31909025630E+02 -0.49943556974E+02  0.46369231765E+03  0.45948744103E+03 0.  0.
         13    1    3    3    0    0 -0.21155797215E+03  0.73335054466E+02 -0.49092188289E+02  0.22922663184E+03  0.00000000000E+00 0.  1.
          1    1    3    3  501    0  0.23077546908E+03 -0.41426028836E+02 -0.85136868497E+00  0.23446568581E+03  0.00000000000E+00 0.  1.
         21    1    1    2  502  501 -0.19217496934E+02 -0.31909025630E+02  0.89577970629E+00  0.37259905077E+02  0.00000000000E+00 0. -1.
<scales pt_clust_4="550.00000" pt_clust_5="550.00000" pt_clust_6="37.24914"></scales>
<mgrwt>
<rscale>  0 0.30000000E+03</rscale>
<asrwt>  1 0.37249136E+02</asrwt>
<pdfrwt beam="1">  1        1 0.82164445E+00 0.30000000E+03</pdfrwt>
<pdfrwt beam="2">0</pdfrwt>
<totfact> 0.69165844E-04</totfact>
</mgrwt>
<clustering>
<clus scale="   37.249">  1  6  2 -1</clus>
<clus scale="  459.487">  4  5 -1 -1</clus>
<clus scale="  300.000">  1  4  2 -1</clus>
</clustering>
</event>
<event>
 6    1  0.9687246E-012  0.3000000E+03  0.7818608E-02  0.1093470E+00
          1   -1    0    0  502    0  0.00000000000E+00  0.00000000000E+00  0.23152524426E+03  0.23152524426E+03  0.00000000000E+00 0.  1.
         13   -1    0    0    0    0 -0.00000000000E+00 -0.00000000000E+00 -0.27500000000E+03  0.27500000000E+03  0.00000000000E+00 0.  1.
    9000005    2    1    2  501    0  0.36989315629E+02  0.46011827891E+00 -0.51644170071E+02  0.46864173188E+03  0.46431619763E+03 0.  0.
         13    1    3    3    0    0 -0.20168495086E+03 -0.74176083971E+02 -0.99940208978E+01  0.21512505965E+03  0.00000000000E+00 0.  1.
          1    1    3    3  501    0  0.23867426649E+03  0.74636202250E+02 -0.41650149173E+02  0.25351667223E+03  0.00000000000E+00 0.  1.
         21    1    1    2  502  501 -0.36989315629E+02 -0.46011827891E+00  0.81694143296E+01  0.37883512377E+02  0.00000000000E+00 0.  1.
<scales pt_clust_4="550.00000" pt_clust_5="550.00000" pt_clust_6="36.99218"></scales>
<mgrwt>
<rscale>  0 0.30000000E+03</rscale>
<asrwt>  1 0.36992177E+02</asrwt>
<pdfrwt beam="1">  1        1 0.84190998E+00 0.30000000E+03</pdfrwt>
<pdfrwt beam="2">0</pdfrwt>
<totfact> 0.47506631E-04</totfact>
</mgrwt>
<clustering>
<clus scale="   36.992">  1  6  2 -1</clus>
<clus scale="  464.316">  4  5 -1 -1</clus>
<clus scale="  300.000">  1  4  2 -1</clus>
</clustering>
</event>
<event>
 6    1  0.9687246E-012  0.3000000E+03  0.7818608E-02  0.1093470E+00
          1   -1    0    0  502    0  0.00000000000E+00  0.00000000000E+00  0.23160456355E+03  0.23160456355E+03  0.00000000000E+00 0.  1.
         13   -1    0    0    0    0 -0.00000000000E+00 -0.00000000000E+00 -0.27500000000E+03  0.27500000000E+03  0.00000000000E+00 0.  1.
    9000005    2    1    2  501    0 -0.19368870303E+02  0.31740132338E+02 -0.41948294458E+02  0.46939322983E+03  0.46603407136E+03 0.  0.
         13    1    3    3    0    0  0.26818349606E+02  0.14549236308E+03 -0.21269669883E+03  0.25908905280E+03  0.00000000000E+00 0.  1.
          3    1    3    3  501    0 -0.46187219910E+02 -0.11375223074E+03  0.17074840437E+03  0.21030417703E+03  0.00000000000E+00 0.  1.
         21    1    1    2  502  501  0.19368870303E+02 -0.31740132338E+02 -0.14471419876E+01  0.37211333725E+02  0.00000000000E+00 0.  1.
<scales pt_clust_4="550.00000" pt_clust_5="550.00000" pt_clust_6="37.18318"></scales>
<mgrwt>
<rscale>  0 0.30000000E+03</rscale>
<asrwt>  1 0.37183184E+02</asrwt>
<pdfrwt beam="1">  1        1 0.84219841E+00 0.30000000E+03</pdfrwt>
<pdfrwt beam="2">0</pdfrwt>
<totfact> 0.47201314E-04</totfact>
</mgrwt>
<clustering>
<clus scale="   37.183">  1  6  2 -1</clus>
<clus scale="  466.034">  4  5 -1 -1</clus>
<clus scale="  300.000">  1  4  2 -1</clus>
</clustering>
</event>
<event>
 6    1  0.9687246E-012  0.3000000E+03  0.7818608E-02  0.1093470E+00
          1   -1    0    0  502    0  0.00000000000E+00  0.00000000000E+00  0.22101838966E+03  0.22101838966E+03  0.00000000000E+00 0.  1.
         13   -1    0    0    0    0 -0.00000000000E+00 -0.00000000000E+00 -0.27500000000E+03  0.27500000000E+03  0.00000000000E+00 0.  1.
    9000005    2    1    2  501    0 -0.36286003514E+01 -0.30173490740E+02 -0.60477697538E+02  0.46494097933E+03  0.45998799558E+03 0.  0.
         13    1    3    3    0    0  0.10479249596E+03 -0.16506160381E+03 -0.17087784172E+03  0.25966524037E+03  0.00000000000E+00 0.  1.
          3    1    3    3  501    0 -0.10842109631E+03  0.13488811307E+03  0.11040014419E+03  0.20527573897E+03  0.00000000000E+00 0.  1.
         21    1    1    2  502  501  0.36286003514E+01  0.30173490740E+02  0.64960872022E+01  0.31077410331E+02  0.00000000000E+00 0.  1.
<scales pt_clust_4="550.00000" pt_clust_5="550.00000" pt_clust_6="30.39089"></scales>
<mgrwt>
<rscale>  0 0.30000000E+03</rscale>
<asrwt>  1 0.30390891E+02</asrwt>
<pdfrwt beam="1">  1        1 0.80370324E+00 0.30000000E+03</pdfrwt>
<pdfrwt beam="2">0</pdfrwt>
<totfact> 0.10009234E-03</totfact>
</mgrwt>
<clustering>
<clus scale="   30.391">  1  6  2 -1</clus>
<clus scale="  459.988">  4  5 -1 -1</clus>
<clus scale="  300.000">  1  4  2 -1</clus>
</clustering>
</event>
<event>
 6    1  0.9687246E-012  0.3000000E+03  0.7818608E-02  0.1093470E+00
          1   -1    0    0  502    0  0.00000000000E+00  0.00000000000E+00  0.22711861393E+03  0.22711861393E+03  0.00000000000E+00 0.  1.
         13   -1    0    0    0    0 -0.00000000000E+00 -0.00000000000E+00 -0.27500000000E+03  0.27500000000E+03  0.00000000000E+00 0.  1.
    9000005    2    1    2  501    0 -0.35013726421E+00 -0.31180381728E+02 -0.61601138201E+02  0.46805146848E+03  0.46293102955E+03 0.  0.
         13    1    3    3    0    0  0.20978865093E+03  0.81196538088E+02 -0.43000606238E+02  0.22902665345E+03  0.00000000000E+00 0.  1.
          3    1    3    3  501    0 -0.21013878819E+03 -0.11237691982E+03 -0.18600531963E+02  0.23902481503E+03  0.00000000000E+00 0.  1.
         21    1    1    2  502  501  0.35013726421E+00  0.31180381728E+02  0.13719752135E+02  0.34067145455E+02  0.00000000000E+00 0. -1.
<scales pt_clust_4="550.00000" pt_clust_5="550.00000" pt_clust_6="31.18235"></scales>
<mgrwt>
<rscale>  0 0.30000000E+03</rscale>
<asrwt>  1 0.31182348E+02</asrwt>
<pdfrwt beam="1">  1        1 0.82588587E+00 0.30000000E+03</pdfrwt>
<pdfrwt beam="2">0</pdfrwt>
<totfact> 0.65556999E-04</totfact>
</mgrwt>
<clustering>
<clus scale="   31.182">  1  6  2 -1</clus>
<clus scale="  462.931">  4  5 -1 -1</clus>
<clus scale="  300.000">  1  4  2 -1</clus>
</clustering>
</event>
<event>
 6    1  0.9687246E-012  0.3000000E+03  0.7818608E-02  0.1093470E+00
          1   -1    0    0  502    0  0.00000000000E+00  0.00000000000E+00  0.23025727474E+03  0.23025727474E+03  0.00000000000E+00 0.  1.
         13   -1    0    0    0    0 -0.00000000000E+00 -0.00000000000E+00 -0.27500000000E+03  0.27500000000E+03  0.00000000000E+00 0.  1.
    9000005    2    1    2  501    0 -0.23007420383E+02  0.26397764337E+02 -0.44382585642E+02  0.47023852183E+03  0.46682788065E+03 0.  0.
         13    1    3    3    0    0  0.11097118318E+03  0.36801074790E+02 -0.21998139121E+03  0.24911992108E+03  0.00000000000E+00 0.  1.
          3    1    3    3  501    0 -0.13397860356E+03 -0.10403310454E+02  0.17559880557E+03  0.22111860075E+03  0.00000000000E+00 0.  1.
         21    1    1    2  502  501  0.23007420383E+02 -0.26397764337E+02 -0.36013961611E+00  0.35018752908E+02  0.00000000000E+00 0.  1.
<scales pt_clust_4="550.00000" pt_clust_5="550.00000" pt_clust_6="35.01690"></scales>
<mgrwt>
<rscale>  0 0.30000000E+03</rscale>
<asrwt>  1 0.35016901E+02</asrwt>
<pdfrwt beam="1">  1        1 0.83729918E+00 0.30000000E+03</pdfrwt>
<pdfrwt beam="2">0</pdfrwt>
<totfact> 0.52052768E-04</totfact>
</mgrwt>
<clustering>
<clus scale="   35.017">  1  6  2 -1</clus>
<clus scale="  466.828">  4  5 -1 -1</clus>
<clus scale="  300.000">  1  4  2 -1</clus>
</clustering>
</event>
<event>
 6    1  0.9687246E-012  0.3000000E+03  0.7818608E-02  0.1093470E+00
          1   -1    0    0  502    0  0.00000000000E+00  0.00000000000E+00  0.23814146872E+03  0.23814146872E+03  0.00000000000E+00 0.  1.
         13   -1    0    0    0    0 -0.00000000000E+00 -0.00000000000E+00 -0.27500000000E+03  0.27500000000E+03  0.00000000000E+00 0.  1.
    9000005    2    1    2  501    0 -0.19354312722E+02 -0.26127674548E+02 -0.50564292409E+02  0.47785559781E+03  0.47405904684E+03 0.  0.
         13    1    3    3    0    0  0.14203003056E+03  0.11242494479E+03 -0.15727234629E+03  0.23988849222E+03  0.00000000000E+00 0.  1.
          1    1    3    3  501    0 -0.16138434328E+03 -0.13855261933E+03  0.10670805388E+03  0.23796710559E+03  0.00000000000E+00 0.  1.
         21    1    1    2  502  501  0.19354312722E+02  0.26127674548E+02  0.13705761133E+02  0.35285870919E+02  0.00000000000E+00 0. -1.
<scales pt_clust_4="550.00000" pt_clust_5="550.00000" pt_clust_6="32.51530"></scales>
<mgrwt>
<rscale>  0 0.30000000E+03</rscale>
<asrwt>  1 0.32515301E+02</asrwt>
<pdfrwt beam="1">  1        1 0.86596898E+00 0.30000000E+03</pdfrwt>
<pdfrwt beam="2">0</pdfrwt>
<totfact> 0.28284408E-04</totfact>
</mgrwt>
<clustering>
<clus scale="   32.515">  1  6  2 -1</clus>
<clus scale="  474.059">  4  5 -1 -1</clus>
<clus scale="  300.000">  1  4  2 -1</clus>
</clustering>
</event>
<event>
 6    1  0.9687246E-012  0.3000000E+03  0.7818608E-02  0.1093470E+00
          1   -1    0    0  502    0  0.00000000000E+00  0.00000000000E+00  0.23456923838E+03  0.23456923838E+03  0.00000000000E+00 0.  1.
         13   -1    0    0    0    0 -0.00000000000E+00 -0.00000000000E+00 -0.27500000000E+03  0.27500000000E+03  0.00000000000E+00 0.  1.
    9000005    2    1    2  501    0  0.82196548493E+01  0.29569195029E+02 -0.66595698863E+02  0.46923929961E+03  0.46347452267E+03 0.  0.
         13    1    3    3    0    0 -0.50675814601E+02  0.24007486177E+03 -0.23974360410E+02  0.24653346101E+03  0.00000000000E+00 0.  1.
          1    1    3    3  501    0  0.58895469450E+02 -0.21050566674E+03 -0.42621338453E+02  0.22270583860E+03  0.00000000000E+00 0.  1.
         21    1    1    2  502  501 -0.82196548493E+01 -0.29569195029E+02  0.26164937245E+02  0.40329938774E+02  0.00000000000E+00 0. -1.
<scales pt_clust_4="550.00000" pt_clust_5="550.00000" pt_clust_6="30.69039"></scales>
<mgrwt>
<rscale>  0 0.30000000E+03</rscale>
<asrwt>  1 0.30690390E+02</asrwt>
<pdfrwt beam="1">  1        1 0.85297905E+00 0.30000000E+03</pdfrwt>
<pdfrwt beam="2">0</pdfrwt>
<totfact> 0.39084942E-04</totfact>
</mgrwt>
<clustering>
<clus scale="   30.690">  1  6  2 -1</clus>
<clus scale="  463.475">  4  5 -1 -1</clus>
<clus scale="  300.000">  1  4  2 -1</clus>
</clustering>
</event>
<event>
 6    1  0.9687246E-012  0.3000000E+03  0.7818608E-02  0.1093470E+00
          1   -1    0    0  502    0  0.00000000000E+00  0.00000000000E+00  0.25245402094E+03  0.25245402094E+03  0.00000000000E+00 0.  1.
         13   -1    0    0    0    0 -0.00000000000E+00 -0.00000000000E+00 -0.27500000000E+03  0.27500000000E+03  0.00000000000E+00 0.  1.
    9000005    2    1    2  501    0 -0.27703421918E+02 -0.11937908700E+02 -0.42810105357E+02  0.49111357426E+03  0.48831326467E+03 0.  0.
         13    1    3    3    0    0  0.78339079709E+02 -0.22757181700E+03 -0.66375624757E+02  0.24966310674E+03  0.00000000000E+00 0.  1.
          3    1    3    3  501    0 -0.10604250163E+03  0.21563390831E+03  0.23565519400E+02  0.24145046752E+03  0.00000000000E+00 0.  1.
         21    1    1    2  502  501  0.27703421918E+02  0.11937908700E+02  0.20264126293E+02  0.36340446675E+02  0.00000000000E+00 0. -1.
<scales pt_clust_4="550.00000" pt_clust_5="550.00000" pt_clust_6="30.16609"></scales>
<mgrwt>
<rscale>  0 0.30000000E+03</rscale>
<asrwt>  1 0.30166094E+02</asrwt>
<pdfrwt beam="1">  1        1 0.91801462E+00 0.30000000E+03</pdfrwt>
<pdfrwt beam="2">0</pdfrwt>
<totfact> 0.47547108E-05</totfact>
</mgrwt>
<clustering>
<clus scale="   30.166">  1  6  2 -1</clus>
<clus scale="  488.313">  4  5 -1 -1</clus>
<clus scale="  300.000">  1  4  2 -1</clus>
</clustering>
</event>
<event>
 6    1  0.9687246E-012  0.3000000E+03  0.7818608E-02  0.1093470E+00
          1   -1    0    0  502    0  0.00000000000E+00  0.00000000000E+00  0.23255488549E+03  0.23255488549E+03  0.00000000000E+00 0.  1.
         13   -1    0    0    0    0 -0.00000000000E+00 -0.00000000000E+00 -0.27500000000E+03  0.27500000000E+03  0.00000000000E+00 0.  1.
    9000005    2    1    2  501    0  0.31928761291E+02 -0.41250720958E+01 -0.22177982851E+02  0.46951255849E+03  0.46788216213E+03 0.  0.
         13    1    3    3    0    0  0.18352966088E+02 -0.19563426840E+03  0.12033241125E+03  0.23041156119E+03  0.00000000000E+00 0.  1.
          3    1    3    3  501    0  0.13575795202E+02  0.19150919630E+03 -0.14251039410E+03  0.23910099730E+03  0.00000000000E+00 0.  1.
         21    1    1    2  502  501 -0.31928761291E+02  0.41250720958E+01 -0.20267131661E+02  0.38042326994E+02  0.00000000000E+00 0.  1.
<scales pt_clust_4="550.00000" pt_clust_5="550.00000" pt_clust_6="32.19415"></scales>
<mgrwt>
<rscale>  0 0.30000000E+03</rscale>
<asrwt>  1 0.32194146E+02</asrwt>
<pdfrwt beam="1">  1        1 0.84565413E+00 0.30000000E+03</pdfrwt>
<pdfrwt beam="2">0</pdfrwt>
<totfact> 0.45296286E-04</totfact>
</mgrwt>
<clustering>
<clus scale="   32.194">  1  6  2 -1</clus>
<clus scale="  467.882">  4  5 -1 -1</clus>
<clus scale="  300.000">  1  4  2 -1</clus>
</clustering>
</event>
<event>
 6    1  0.9687246E-012  0.3000000E+03  0.7818608E-02  0.1093470E+00
          1   -1    0    0  502    0  0.00000000000E+00  0.00000000000E+00  0.22991738113E+03  0.22991738113E+03  0.00000000000E+00 0.  1.
         13   -1    0    0    0    0 -0.00000000000E+00 -0.00000000000E+00 -0.27500000000E+03  0.27500000000E+03  0.00000000000E+00 0.  1.
    9000005    2    1    2  501    0 -0.13564762275E+02  0.29862073857E+02 -0.61405229061E+02  0.46828169042E+03  0.46307817179E+03 0.  0.
         13    1    3    3    0    0  0.20996559851E+03 -0.67294379692E+02 -0.26973286285E+02  0.22212979149E+03  0.00000000000E+00 0.  1.
          1    1    3    3  501    0 -0.22353036079E+03  0.97156453550E+02 -0.34431942776E+02  0.24615189892E+03  0.00000000000E+00 0.  1.
         21    1    1    2  502  501  0.13564762275E+02 -0.29862073857E+02  0.16322610191E+02  0.36635690714E+02  0.00000000000E+00 0.  1.
<scales pt_clust_4="550.00000" pt_clust_5="550.00000" pt_clust_6="32.79857"></scales>
<mgrwt>
<rscale>  0 0.30000000E+03</rscale>
<asrwt>  1 0.32798571E+02</asrwt>
<pdfrwt beam="1">  1        1 0.83606320E+00 0.30000000E+03</pdfrwt>
<pdfrwt beam="2">0</pdfrwt>
<totfact> 0.53797973E-04</totfact>
</mgrwt>
<clustering>
<clus scale="   32.799">  1  6  2 -1</clus>
<clus scale="  463.078">  4  5 -1 -1</clus>
<clus scale="  300.000">  1  4  2 -1</clus>
</clustering>
</event>
<event>
 6    1  0.9687246E-012  0.3000000E+03  0.7818608E-02  0.1093470E+00
          1   -1    0    0  502    0  0.00000000000E+00  0.00000000000E+00  0.23824779413E+03  0.23824779413E+03  0.00000000000E+00 0.  1.
         13   -1    0    0    0    0 -0.00000000000E+00 -0.00000000000E+00 -0.27500000000E+03  0.27500000000E+03  0.00000000000E+00 0.  1.
    9000005    2    1    2  501    0  0.89591216121E+01 -0.41151226611E+02 -0.44695775212E+02  0.47039001064E+03  0.46636397854E+03 0.  0.
         13    1    3    3    0    0 -0.18969453299E+03 -0.12965693394E+01 -0.15019277399E+03  0.24195777792E+03  0.00000000000E+00 0.  1.
          3    1    3    3  501    0  0.19865365460E+03 -0.39854657272E+02  0.10549699878E+03  0.22843223272E+03  0.00000000000E+00 0.  1.
         21    1    1    2  502  501 -0.89591216121E+01  0.41151226611E+02  0.79435693445E+01  0.42857783489E+02  0.00000000000E+00 0.  1.
<scales pt_clust_4="550.00000" pt_clust_5="550.00000" pt_clust_6="42.11519"></scales>
<mgrwt>
<rscale>  0 0.30000000E+03</rscale>
<asrwt>  1 0.42115191E+02</asrwt>
<pdfrwt beam="1">  1        1 0.86635562E+00 0.30000000E+03</pdfrwt>
<pdfrwt beam="2">0</pdfrwt>
<totfact> 0.26707273E-04</totfact>
</mgrwt>
<clustering>
<clus scale="   42.115">  1  6  2 -1</clus>
<clus scale="  466.364">  4  5 -1 -1</clus>
<clus scale="  300.000">  1  4  2 -1</clus>
</clustering>
</event>
<event>
 6    1  0.9687246E-012  0.3000000E+03  0.7818608E-02  0.1093470E+00
          1   -1    0    0  502    0  0.00000000000E+00  0.00000000000E+00  0.23365850457E+03  0.23365850457E+03  0.00000000000E+00 0.  1.
         13   -1    0    0    0    0 -0.00000000000E+00 -0.00000000000E+00 -0.27500000000E+03  0.27500000000E+03  0.00000000000E+00 0.  1.
    9000005    2    1    2  501    0 -0.16806735693E+02 -0.39459048421E+02 -0.50252154302E+02  0.46485345111E+03  0.46013472933E+03 0.  0.
         13    1    3    3    0    0 -0.23422894588E+03 -0.26484221287E+02 -0.70676386275E+02  0.24608893645E+03  0.00000000000E+00 0.  1.
          3    1    3    3  501    0  0.21742221019E+03 -0.12974827134E+02  0.20424231973E+02  0.21876451466E+03  0.00000000000E+00 0.  1.
         21    1    1    2  502  501  0.16806735693E+02  0.39459048421E+02  0.89106588760E+01  0.43805053459E+02  0.00000000000E+00 0.  1.
<scales pt_clust_4="550.00000" pt_clust_5="550.00000" pt_clust_6="42.88919"></scales>
<mgrwt>
<rscale>  0 0.30000000E+03</rscale>
<asrwt>  1 0.42889193E+02</asrwt>
<pdfrwt beam="1">  1        1 0.84966729E+00 0.30000000E+03</pdfrwt>
<pdfrwt beam="2">0</pdfrwt>
<totfact> 0.39490341E-04</totfact>
</mgrwt>
<clustering>
<clus scale="   42.889">  1  6  2 -1</clus>
<clus scale="  460.135">  4  5 -1 -1</clus>
<clus scale="  300.000">  1  4  2 -1</clus>
</clustering>
</event>
<event>
 6    1  0.9687246E-012  0.3000000E+03  0.7818608E-02  0.1093470E+00
          1   -1    0    0  502    0  0.00000000000E+00  0.00000000000E+00  0.21969511503E+03  0.21969511503E+03  0.00000000000E+00 0.  1.
         13   -1    0    0    0    0 -0.00000000000E+00 -0.00000000000E+00 -0.27500000000E+03  0.27500000000E+03  0.00000000000E+00 0.  1.
    9000005    2    1    2  501    0  0.32658414829E+02  0.57459723024E+01 -0.50923952710E+02  0.46124693385E+03  0.45722630804E+03 0.  0.
         13    1    3    3    0    0  0.13509395852E+03 -0.15576136734E+03  0.88696369795E+02  0.22445272821E+03  0.00000000000E+00 0.  1.
          1    1    3    3  501    0 -0.10243554369E+03  0.16150733964E+03 -0.13962032250E+03  0.23679420564E+03  0.00000000000E+00 0.  1.
         21    1    1    2  502  501 -0.32658414829E+02 -0.57459723024E+01 -0.43809322609E+01  0.33448181181E+02  0.00000000000E+00 0.  1.
<scales pt_clust_4="550.00000" pt_clust_5="550.00000" pt_clust_6="33.16006"></scales>
<mgrwt>
<rscale>  0 0.30000000E+03</rscale>
<asrwt>  1 0.33160057E+02</asrwt>
<pdfrwt beam="1">  1        1 0.79889133E+00 0.30000000E+03</pdfrwt>
<pdfrwt beam="2">0</pdfrwt>
<totfact> 0.10671312E-03</totfact>
</mgrwt>
<clustering>
<clus scale="   33.160">  1  6  2 -1</clus>
<clus scale="  457.226">  4  5 -1 -1</clus>
<clus scale="  300.000">  1  4  2 -1</clus>
</clustering>
</event>
<event>
 6    1  0.9687246E-012  0.3000000E+03  0.7818608E-02  0.1093470E+00
          1   -1    0    0  502    0  0.00000000000E+00  0.00000000000E+00  0.22786073203E+03  0.22786073203E+03  0.00000000000E+00 0.  1.
         13   -1    0    0    0    0 -0.00000000000E+00 -0.00000000000E+00 -0.27500000000E+03  0.27500000000E+03  0.00000000000E+00 0.  1.
    9000005    2    1    2  501    0  0.29034791165E+02  0.19041194060E+02 -0.50057728199E+02  0.46801674289E+03  0.46403481475E+03 0.  0.
         13    1    3    3    0    0  0.43592040004E+01 -0.18748480792E+03  0.99060370955E+02  0.21209081299E+03  0.00000000000E+00 0.  1.
          1    1    3    3  501    0  0.24675587164E+02  0.20652600198E+03 -0.14911809915E+03  0.25592592989E+03  0.00000000000E+00 0.  1.
         21    1    1    2  502  501 -0.29034791165E+02 -0.19041194060E+02  0.29184602268E+01  0.34843989142E+02  0.00000000000E+00 0.  1.
<scales pt_clust_4="550.00000" pt_clust_5="550.00000" pt_clust_6="34.72155"></scales>
<mgrwt>
<rscale>  0 0.30000000E+03</rscale>
<asrwt>  1 0.34721552E+02</asrwt>
<pdfrwt beam="1">  1        1 0.82858448E+00 0.30000000E+03</pdfrwt>
<pdfrwt beam="2">0</pdfrwt>
<totfact> 0.60837036E-04</totfact>
</mgrwt>
<clustering>
<clus scale="   34.722">  1  6  2 -1</clus>
<clus scale="  464.035">  4  5 -1 -1</clus>
<clus scale="  300.000">  1  4  2 -1</clus>
</clustering>
</event>
<event>
 6    1  0.9687246E-012  0.3000000E+03  0.7818608E-02  0.1093470E+00
          1   -1    0    0  502    0  0.00000000000E+00  0.00000000000E+00  0.23184065300E+03  0.23184065300E+03  0.00000000000E+00 0.  1.
         13   -1    0    0    0    0 -0.00000000000E+00 -0.00000000000E+00 -0.27500000000E+03  0.27500000000E+03  0.00000000000E+00 0.  1.
    9000005    2    1    2  501    0  0.26999565034E+02 -0.13620266295E+02 -0.51941448751E+02  0.47535075816E+03  0.47153572613E+03 0.  0.
         13    1    3    3    0    0 -0.88073452448E+01  0.15305980113E+03  0.14765679407E+03  0.21285535203E+03  0.00000000000E+00 0.  1.
          1    1    3    3  501    0  0.35806910279E+02 -0.16668006743E+03 -0.19959824282E+03  0.26249540613E+03  0.00000000000E+00 0.  1.
         21    1    1    2  502  501 -0.26999565034E+02  0.13620266295E+02  0.87821017495E+01  0.31489894841E+02  0.00000000000E+00 0.  1.
<scales pt_clust_4="550.00000" pt_clust_5="550.00000" pt_clust_6="30.24051"></scales>
<mgrwt>
<rscale>  0 0.30000000E+03</rscale>
<asrwt>  1 0.30240505E+02</asrwt>
<pdfrwt beam="1">  1        1 0.84305692E+00 0.30000000E+03</pdfrwt>
<pdfrwt beam="2">0</pdfrwt>
<totfact> 0.48272210E-04</totfact>
</mgrwt>
<clustering>
<clus scale="   30.241">  1  6  2 -1</clus>
<clus scale="  471.536">  4  5 -1 -1</clus>
<clus scale="  300.000">  1  4  2 -1</clus>
</clustering>
</event>
<event>
 6    1  0.9687246E-012  0.3000000E+03  0.7818608E-02  0.1093470E+00
          1   -1    0    0  502    0  0.00000000000E+00  0.00000000000E+00  0.23888530683E+03  0.23888530683E+03  0.00000000000E+00 0.  1.
         13   -1    0    0    0    0 -0.00000000000E+00 -0.00000000000E+00 -0.27500000000E+03  0.27500000000E+03  0.00000000000E+00 0.  1.
    9000005    2    1    2  501    0  0.16712951001E+02  0.25471424152E+02 -0.69915660035E+02  0.46838122415E+03  0.46213056103E+03 0.  0.
         13    1    3    3    0    0  0.52603022438E+00  0.22411034133E+03  0.58089269419E+02  0.23151692167E+03  0.00000000000E+00 0.  1.
          1    1    3    3  501    0  0.16186920777E+02 -0.19863891718E+03 -0.12800492945E+03  0.23686430248E+03  0.00000000000E+00 0.  1.
         21    1    1    2  502  501 -0.16712951001E+02 -0.25471424152E+02  0.33800966869E+02  0.45504082683E+02  0.00000000000E+00 0.  1.
<scales pt_clust_4="550.00000" pt_clust_5="550.00000" pt_clust_6="30.46500"></scales>
<mgrwt>
<rscale>  0 0.30000000E+03</rscale>
<asrwt>  1 0.30464999E+02</asrwt>
<pdfrwt beam="1">  1        1 0.86867384E+00 0.30000000E+03</pdfrwt>
<pdfrwt beam="2">0</pdfrwt>
<totfact> 0.26827972E-04</totfact>
</mgrwt>
<clustering>
<clus scale="   30.465">  1  6  2 -1</clus>
<clus scale="  462.131">  4  5 -1 -1</clus>
<clus scale="  300.000">  1  4  2 -1</clus>
</clustering>
</event>
<event>
 6    1  0.9687246E-012  0.3000000E+03  0.7818608E-02  0.1093470E+00
          1   -1    0    0  502    0  0.00000000000E+00  0.00000000000E+00  0.24987254585E+03  0.24987254585E+03  0.00000000000E+00 0.  1.
         13   -1    0    0    0    0 -0.00000000000E+00 -0.00000000000E+00 -0.27500000000E+03  0.27500000000E+03  0.00000000000E+00 0.  1.
    9000005    2    1    2  501    0  0.50961814856E+02  0.20422121651E+01 -0.51175049484E+02  0.46760340558E+03  0.46198785917E+03 0.  0.
         13    1    3    3    0    0  0.21200354725E+03 -0.13649534001E+03 -0.20614689057E+02  0.25298507327E+03  0.00000000000E+00 0.  1.
          1    1    3    3  501    0 -0.16104173240E+03  0.13853755218E+03 -0.30560360427E+02  0.21461833231E+03  0.00000000000E+00 0.  1.
         21    1    1    2  502  501 -0.50961814856E+02 -0.20422121651E+01  0.26047595331E+02  0.57269140263E+02  0.00000000000E+00 0. -1.
<scales pt_clust_4="550.00000" pt_clust_5="550.00000" pt_clust_6="51.00272"></scales>
<mgrwt>
<rscale>  0 0.30000000E+03</rscale>
<asrwt>  1 0.51002718E+02</asrwt>
<pdfrwt beam="1">  1        1 0.90862744E+00 0.30000000E+03</pdfrwt>
<pdfrwt beam="2">0</pdfrwt>
<totfact> 0.72372519E-05</totfact>
</mgrwt>
<clustering>
<clus scale="   51.003">  1  6  2 -1</clus>
<clus scale="  461.988">  4  5 -1 -1</clus>
<clus scale="  300.000">  1  4  2 -1</clus>
</clustering>
</event>
<event>
 6    1  0.9687246E-012  0.3000000E+03  0.7818608E-02  0.1093470E+00
          1   -1    0    0  502    0  0.00000000000E+00  0.00000000000E+00  0.23568548979E+03  0.23568548979E+03  0.00000000000E+00 0.  1.
         13   -1    0    0    0    0 -0.00000000000E+00 -0.00000000000E+00 -0.27500000000E+03  0.27500000000E+03  0.00000000000E+00 0.  1.
    9000005    2    1    2  501    0 -0.20928013657E+02 -0.31783677544E+02 -0.40139422618E+02  0.47262153842E+03  0.46937379711E+03 0.  0.
         13    1    3    3    0    0 -0.38962192618E+02  0.23556820480E+02 -0.25037319000E+03  0.25447929290E+03  0.00000000000E+00 0.  1.
          3    1    3    3  501    0  0.18034178961E+02 -0.55340498024E+02  0.21023376738E+03  0.21814224552E+03  0.00000000000E+00 0.  1.
         21    1    1    2  502  501  0.20928013657E+02  0.31783677544E+02  0.82491241082E+00  0.38063951376E+02  0.00000000000E+00 0.  1.
<scales pt_clust_4="550.00000" pt_clust_5="550.00000" pt_clust_6="38.05501"></scales>
<mgrwt>
<rscale>  0 0.30000000E+03</rscale>
<asrwt>  1 0.38055012E+02</asrwt>
<pdfrwt beam="1">  1        1 0.85703814E+00 0.30000000E+03</pdfrwt>
<pdfrwt beam="2">0</pdfrwt>
<totfact> 0.34210423E-04</totfact>
</mgrwt>
<clustering>
<clus scale="   38.055">  1  6  2 -1</clus>
<clus scale="  469.374">  4  5 -1 -1</clus>
<clus scale="  300.000">  1  4  2 -1</clus>
</clustering>
</event>
<event>
 6    1  0.9687246E-012  0.3000000E+03  0.7818608E-02  0.1093470E+00
          1   -1    0    0  502    0  0.00000000000E+00  0.00000000000E+00  0.24167040971E+03  0.24167040971E+03  0.00000000000E+00 0.  1.
         13   -1    0    0    0    0 -0.00000000000E+00 -0.00000000000E+00 -0.27500000000E+03  0.27500000000E+03  0.00000000000E+00 0.  1.
    9000005    2    1    2  501    0  0.32931236522E+01  0.36089076580E+02 -0.37786574772E+02  0.48015834564E+03  0.47729544890E+03 0.  0.
         13    1    3    3    0    0 -0.12539211148E+03  0.20721161028E+03  0.52447591363E+02  0.24781158750E+03  0.00000000000E+00 0.  1.
          3    1    3    3  501    0  0.12868523513E+03 -0.17112253370E+03 -0.90234166134E+02  0.23234675814E+03  0.00000000000E+00 0.  1.
         21    1    1    2  502  501 -0.32931236522E+01 -0.36089076580E+02  0.44569844776E+01  0.36512064067E+02  0.00000000000E+00 0.  1.
<scales pt_clust_4="550.00000" pt_clust_5="550.00000" pt_clust_6="36.23901"></scales>
<mgrwt>
<rscale>  0 0.30000000E+03</rscale>
<asrwt>  1 0.36239014E+02</asrwt>
<pdfrwt beam="1">  1        1 0.87880149E+00 0.30000000E+03</pdfrwt>
<pdfrwt beam="2">0</pdfrwt>
<totfact> 0.20274745E-04</totfact>
</mgrwt>
<clustering>
<clus scale="   36.239">  1  6  2 -1</clus>
<clus scale="  477.295">  4  5 -1 -1</clus>
<clus scale="  300.000">  1  4  2 -1</clus>
</clustering>
</event>
<event>
 6    1  0.9687246E-012  0.3000000E+03  0.7818608E-02  0.1093470E+00
          1   -1    0    0  502    0  0.00000000000E+00  0.00000000000E+00  0.25325151269E+03  0.25325151269E+03  0.00000000000E+00 0.  1.
         13   -1    0    0    0    0 -0.00000000000E+00 -0.00000000000E+00 -0.27500000000E+03  0.27500000000E+03  0.00000000000E+00 0.  1.
    9000005    2    1    2  501    0 -0.44379087212E+01 -0.41165046789E+02 -0.55256052223E+02  0.47498789455E+03  0.46994256303E+03 0.  0.
         13    1    3    3    0    0 -0.16307071246E+03  0.13555436851E+02  0.14154507992E+03  0.21635807538E+03  0.00000000000E+00 0.  1.
          1    1    3    3  501    0  0.15863280374E+03 -0.54720483640E+02 -0.19680113214E+03  0.25862981917E+03  0.00000000000E+00 0.  1.
         21    1    1    2  502  501  0.44379087212E+01  0.41165046789E+02  0.33507564913E+02  0.53263618140E+02  0.00000000000E+00 0. -1.
<scales pt_clust_4="550.00000" pt_clust_5="550.00000" pt_clust_6="41.40358"></scales>
<mgrwt>
<rscale>  0 0.30000000E+03</rscale>
<asrwt>  1 0.41403576E+02</asrwt>
<pdfrwt beam="1">  1        1 0.92091459E+00 0.30000000E+03</pdfrwt>
<pdfrwt beam="2">0</pdfrwt>
<totfact> 0.38726725E-05</totfact>
</mgrwt>
<clustering>
<clus scale="   41.404">  1  6  2 -1</clus>
<clus scale="  469.943">  4  5 -1 -1</clus>
<clus scale="  300.000">  1  4  2 -1</clus>
</clustering>
</event>
<event>
 6    1  0.9687246E-012  0.3000000E+03  0.7818608E-02  0.1093470E+00
          1   -1    0    0  502    0  0.00000000000E+00  0.00000000000E+00  0.23657994535E+03  0.23657994535E+03  0.00000000000E+00 0.  1.
         13   -1    0    0    0    0 -0.00000000000E+00 -0.00000000000E+00 -0.27500000000E+03  0.27500000000E+03  0.00000000000E+00 0.  1.
    9000005    2    1    2  501    0  0.17366956219E+02  0.35413725718E+02 -0.56550791835E+02  0.46816949996E+03  0.46306473144E+03 0.  0.
         13    1    3    3    0    0 -0.10536368980E+03  0.10738823033E+03 -0.21037535863E+03  0.25863397043E+03  0.00000000000E+00 0.  1.
          3    1    3    3  501    0  0.12273064601E+03 -0.71974504614E+02  0.15382456680E+03  0.20953552953E+03  0.00000000000E+00 0.  1.
         21    1    1    2  502  501 -0.17366956219E+02 -0.35413725718E+02  0.18130737180E+02  0.43410445382E+02  0.00000000000E+00 0.  1.
<scales pt_clust_4="550.00000" pt_clust_5="550.00000" pt_clust_6="39.44291"></scales>
<mgrwt>
<rscale>  0 0.30000000E+03</rscale>
<asrwt>  1 0.39442910E+02</asrwt>
<pdfrwt beam="1">  1        1 0.86029071E+00 0.30000000E+03</pdfrwt>
<pdfrwt beam="2">0</pdfrwt>
<totfact> 0.31413638E-04</totfact>
</mgrwt>
<clustering>
<clus scale="   39.443">  1  6  2 -1</clus>
<clus scale="  463.065">  4  5 -1 -1</clus>
<clus scale="  300.000">  1  4  2 -1</clus>
</clustering>
</event>
<event>
 6    1  0.9687246E-012  0.3000000E+03  0.7818608E-02  0.1093470E+00
          1   -1    0    0  502    0  0.00000000000E+00  0.00000000000E+00  0.23885506092E+03  0.23885506092E+03  0.00000000000E+00 0.  1.
         13   -1    0    0    0    0 -0.00000000000E+00 -0.00000000000E+00 -0.27500000000E+03  0.27500000000E+03  0.00000000000E+00 0.  1.
    9000005    2    1    2  501    0 -0.36187004651E+02 -0.27749272911E-01 -0.45311590698E+02  0.47652507863E+03  0.47298362576E+03 0.  0.
         13    1    3    3    0    0  0.60999008427E+02  0.12930002722E+03  0.16037163767E+03  0.21484514944E+03  0.00000000000E+00 0.  1.
          3    1    3    3  501    0 -0.97186013077E+02 -0.12932777650E+03 -0.20568322836E+03  0.26167992919E+03  0.00000000000E+00 0.  1.
         21    1    1    2  502  501  0.36187004651E+02  0.27749272911E-01  0.91666516132E+01  0.37329982285E+02  0.00000000000E+00 0. -1.
<scales pt_clust_4="550.00000" pt_clust_5="550.00000" pt_clust_6="36.18702"></scales>
<mgrwt>
<rscale>  0 0.30000000E+03</rscale>
<asrwt>  1 0.36187015E+02</asrwt>
<pdfrwt beam="1">  1        1 0.86856386E+00 0.30000000E+03</pdfrwt>
<pdfrwt beam="2">0</pdfrwt>
<totfact> 0.26037683E-04</totfact>
</mgrwt>
<clustering>
<clus scale="   36.187">  1  6  2 -1</clus>
<clus scale="  472.984">  4  5 -1 -1</clus>
<clus scale="  300.000">  1  4  2 -1</clus>
</clustering>
</event>
<event>
 6    1  0.9687246E-012  0.3000000E+03  0.7818608E-02  0.1093470E+00
          1   -1    0    0  502    0  0.00000000000E+00  0.00000000000E+00  0.22210195099E+03  0.22210195099E+03  0.00000000000E+00 0.  1.
         13   -1    0    0    0    0 -0.00000000000E+00 -0.00000000000E+00 -0.27500000000E+03  0.27500000000E+03  0.00000000000E+00 0.  1.
    9000005    2    1    2  501    0  0.32071107897E+01  0.30968619605E+02 -0.43605846772E+02  0.46461062934E+03  0.46151080818E+03 0.  0.
         13    1    3    3    0    0 -0.52481549416E+02 -0.17786549532E+03  0.94486189388E+02  0.20812997728E+03  0.00000000000E+00 0.  1.
          1    1    3    3  501    0  0.55688660205E+02  0.20883411493E+03 -0.13809203616E+03  0.25648065207E+03  0.00000000000E+00 0.  1.
         21    1    1    2  502  501 -0.32071107897E+01 -0.30968619605E+02 -0.92922022380E+01  0.32491321646E+02  0.00000000000E+00 0.  1.
<scales pt_clust_4="550.00000" pt_clust_5="550.00000" pt_clust_6="31.13426"></scales>
<mgrwt>
<rscale>  0 0.30000000E+03</rscale>
<asrwt>  1 0.31134257E+02</asrwt>
<pdfrwt beam="1">  1        1 0.80764346E+00 0.30000000E+03</pdfrwt>
<pdfrwt beam="2">0</pdfrwt>
<totfact> 0.92994244E-04</totfact>
</mgrwt>
<clustering>
<clus scale="   31.134">  1  6  2 -1</clus>
<clus scale="  461.511">  4  5 -1 -1</clus>
<clus scale="  300.000">  1  4  2 -1</clus>
</clustering>
</event>
<event>
 6    1  0.9687246E-012  0.3000000E+03  0.7818608E-02  0.1093470E+00
          1   -1    0    0  502    0  0.00000000000E+00  0.00000000000E+00  0.22995992023E+03  0.22995992023E+03  0.00000000000E+00 0.  1.
         13   -1    0    0    0    0 -0.00000000000E+00 -0.00000000000E+00 -0.27500000000E+03  0.27500000000E+03  0.00000000000E+00 0.  1.
    9000005    2    1    2  501    0  0.10894085537E+02 -0.34467935331E+02 -0.39931237076E+02  0.46845211368E+03  0.46534520460E+03 0.  0.
         13    1    3    3    0    0  0.15543133581E+03 -0.17856516940E+03  0.55487558804E+02  0.24315281010E+03  0.00000000000E+00 0.  1.
          3    1    3    3  501    0 -0.14453725028E+03  0.14409723407E+03 -0.95418795880E+02  0.22529930358E+03  0.00000000000E+00 0.  1.
         21    1    1    2  502  501 -0.10894085537E+02  0.34467935331E+02 -0.51088426939E+01  0.36507806554E+02  0.00000000000E+00 0.  1.
<scales pt_clust_4="550.00000" pt_clust_5="550.00000" pt_clust_6="36.14860"></scales>
<mgrwt>
<rscale>  0 0.30000000E+03</rscale>
<asrwt>  1 0.36148596E+02</asrwt>
<pdfrwt beam="1">  1        1 0.83621789E+00 0.30000000E+03</pdfrwt>
<pdfrwt beam="2">0</pdfrwt>
<totfact> 0.52689058E-04</totfact>
</mgrwt>
<clustering>
<clus scale="   36.149">  1  6  2 -1</clus>
<clus scale="  465.345">  4  5 -1 -1</clus>
<clus scale="  300.000">  1  4  2 -1</clus>
</clustering>
</event>
<event>
 6    1  0.9687246E-012  0.3000000E+03  0.7818608E-02  0.1093470E+00
          1   -1    0    0  502    0  0.00000000000E+00  0.00000000000E+00  0.22877021966E+03  0.22877021966E+03  0.00000000000E+00 0.  1.
         13   -1    0    0    0    0 -0.00000000000E+00 -0.00000000000E+00 -0.27500000000E+03  0.27500000000E+03  0.00000000000E+00 0.  1.
    9000005    2    1    2  501    0 -0.29728104146E+02 -0.44676653462E+01 -0.48168987403E+02  0.47364579877E+03  0.47023012572E+03 0.  0.
         13    1    3    3    0    0 -0.17021527611E+03 -0.17675799189E+03 -0.53999253323E+02  0.25126190972E+03  0.00000000000E+00 0.  1.
          3    1    3    3  501    0  0.14048717197E+03  0.17229032654E+03  0.58302659207E+01  0.22238388905E+03  0.00000000000E+00 0.  1.
         21    1    1    2  502  501  0.29728104146E+02  0.44676653462E+01  0.19392070596E+01  0.30124420887E+02  0.00000000000E+00 0.  1.
<scales pt_clust_4="550.00000" pt_clust_5="550.00000" pt_clust_6="30.06194"></scales>
<mgrwt>
<rscale>  0 0.30000000E+03</rscale>
<asrwt>  1 0.30061940E+02</asrwt>
<pdfrwt beam="1">  1        1 0.83189171E+00 0.30000000E+03</pdfrwt>
<pdfrwt beam="2">0</pdfrwt>
<totfact> 0.58749855E-04</totfact>
</mgrwt>
<clustering>
<clus scale="   30.062">  1  6  2 -1</clus>
<clus scale="  470.230">  4  5 -1 -1</clus>
<clus scale="  300.000">  1  4  2 -1</clus>
</clustering>
</event>
<event>
 6    1  0.9687246E-012  0.3000000E+03  0.7818608E-02  0.1093470E+00
          1   -1    0    0  502    0  0.00000000000E+00  0.00000000000E+00  0.22322365268E+03  0.22322365268E+03  0.00000000000E+00 0.  1.
         13   -1    0    0    0    0 -0.00000000000E+00 -0.00000000000E+00 -0.27500000000E+03  0.27500000000E+03  0.00000000000E+00 0.  1.
    9000005    2    1    2  501    0 -0.30937241769E+02  0.13745500334E+02 -0.64484718087E+02  0.46206353107E+03  0.45628760247E+03 0.  0.
         13    1    3    3    0    0  0.13886984261E+03  0.39270720809E+02 -0.19767444274E+03  0.24474927581E+03  0.00000000000E+00 0.  1.
          1    1    3    3  501    0 -0.16980708438E+03 -0.25525220475E+02  0.13318972465E+03  0.21731425526E+03  0.00000000000E+00 0.  1.
         21    1    1    2  502  501  0.30937241769E+02 -0.13745500334E+02  0.12708370770E+02  0.36160121617E+02  0.00000000000E+00 0.  1.
<scales pt_clust_4="550.00000" pt_clust_5="550.00000" pt_clust_6="33.85339"></scales>
<mgrwt>
<rscale>  0 0.30000000E+03</rscale>
<asrwt>  1 0.33853385E+02</asrwt>
<pdfrwt beam="1">  1        1 0.81172237E+00 0.30000000E+03</pdfrwt>
<pdfrwt beam="2">0</pdfrwt>
<totfact> 0.85074842E-04</totfact>
</mgrwt>
<clustering>
<clus scale="   33.853">  1  6  2 -1</clus>
<clus scale="  456.288">  4  5 -1 -1</clus>
<clus scale="  300.000">  1  4  2 -1</clus>
</clustering>
</event>
<event>
 6    1  0.9687246E-012  0.3000000E+03  0.7818608E-02  0.1093470E+00
          1   -1    0    0  502    0  0.00000000000E+00  0.00000000000E+00  0.24426208135E+03  0.24426208135E+03  0.00000000000E+00 0.  1.
         13   -1    0    0    0    0 -0.00000000000E+00 -0.00000000000E+00 -0.27500000000E+03  0.27500000000E+03  0.00000000000E+00 0.  1.
    9000005    2    1    2  501    0  0.33070591913E+02 -0.14110758444E+02 -0.67548817501E+02  0.46780511071E+03  0.46150406423E+03 0.  0.
         13    1    3    3    0    0 -0.77915824288E+02  0.15036826070E+03  0.10966946081E+03  0.20176441742E+03  0.00000000000E+00 0.  1.
          1    1    3    3  501    0  0.11098641620E+03 -0.16447901914E+03 -0.17721827831E+03  0.26604069329E+03  0.00000000000E+00 0.  1.
         21    1    1    2  502  501 -0.33070591913E+02  0.14110758444E+02  0.36810898847E+02  0.51456970638E+02  0.00000000000E+00 0. -1.
<scales pt_clust_4="550.00000" pt_clust_5="550.00000" pt_clust_6="35.95522"></scales>
<mgrwt>
<rscale>  0 0.30000000E+03</rscale>
<asrwt>  1 0.35955216E+02</asrwt>
<pdfrwt beam="1">  1        1 0.88822575E+00 0.30000000E+03</pdfrwt>
<pdfrwt beam="2">0</pdfrwt>
<totfact> 0.15243051E-04</totfact>
</mgrwt>
<clustering>
<clus scale="   35.955">  1  6  2 -1</clus>
<clus scale="  461.504">  4  5 -1 -1</clus>
<clus scale="  300.000">  1  4  2 -1</clus>
</clustering>
</event>
<event>
 6    1  0.9687246E-012  0.3000000E+03  0.7818608E-02  0.1093470E+00
          1   -1    0    0  502    0  0.00000000000E+00  0.00000000000E+00  0.23443053962E+03  0.23443053962E+03  0.00000000000E+00 0.  1.
         13   -1    0    0    0    0 -0.00000000000E+00 -0.00000000000E+00 -0.27500000000E+03  0.27500000000E+03  0.00000000000E+00 0.  1.
    9000005    2    1    2  501    0 -0.35914672777E+02  0.28233759910E+02 -0.25967964424E+02  0.46147000790E+03  0.45846834579E+03 0.  0.
         13    1    3    3    0    0  0.34176991973E+02  0.24961842026E+01  0.21061460509E+03  0.21338418309E+03  0.00000000000E+00 0.  1.
          3    1    3    3  501    0 -0.70091664750E+02  0.25737575707E+02 -0.23658256952E+03  0.24808582481E+03  0.00000000000E+00 0.  1.
         21    1    1    2  502  501  0.35914672777E+02 -0.28233759910E+02 -0.14601495954E+02  0.47960531726E+02  0.00000000000E+00 0. -1.
<scales pt_clust_4="550.00000" pt_clust_5="550.00000" pt_clust_6="45.68382"></scales>
<mgrwt>
<rscale>  0 0.30000000E+03</rscale>
<asrwt>  1 0.45683816E+02</asrwt>
<pdfrwt beam="1">  1        1 0.85247469E+00 0.30000000E+03</pdfrwt>
<pdfrwt beam="2">0</pdfrwt>
<totfact> 0.36723416E-04</totfact>
</mgrwt>
<clustering>
<clus scale="   45.684">  1  6  2 -1</clus>
<clus scale="  458.468">  4  5 -1 -1</clus>
<clus scale="  300.000">  1  4  2 -1</clus>
</clustering>
</event>
<event>
 6    1  0.9687246E-012  0.3000000E+03  0.7818608E-02  0.1093470E+00
          1   -1    0    0  502    0  0.00000000000E+00  0.00000000000E+00  0.24730873905E+03  0.24730873905E+03  0.00000000000E+00 0.  1.
         13   -1    0    0    0    0 -0.00000000000E+00 -0.00000000000E+00 -0.27500000000E+03  0.27500000000E+03  0.00000000000E+00 0.  1.
    9000005    2    1    2  501    0  0.44828733028E+02  0.27217825324E+02 -0.37041098988E+02  0.46903731340E+03  0.46462192482E+03 0.  0.
         13    1    3    3    0    0 -0.12153602956E+03  0.85044446981E+02  0.15080737984E+03  0.21153352041E+03  0.00000000000E+00 0.  1.
          1    1    3    3  501    0  0.16636476259E+03 -0.57826621657E+02 -0.18784847883E+03  0.25750379298E+03  0.00000000000E+00 0.  1.
         21    1    1    2  502  501 -0.44828733028E+02 -0.27217825324E+02  0.93498380426E+01  0.53271425658E+02  0.00000000000E+00 0. -1.
<scales pt_clust_4="550.00000" pt_clust_5="550.00000" pt_clust_6="52.44450"></scales>
<mgrwt>
<rscale>  0 0.30000000E+03</rscale>
<asrwt>  1 0.52444498E+02</asrwt>
<pdfrwt beam="1">  1        1 0.89930451E+00 0.30000000E+03</pdfrwt>
<pdfrwt beam="2">0</pdfrwt>
<totfact> 0.10472038E-04</totfact>
</mgrwt>
<clustering>
<clus scale="   52.444">  1  6  2 -1</clus>
<clus scale="  464.622">  4  5 -1 -1</clus>
<clus scale="  300.000">  1  4  2 -1</clus>
</clustering>
</event>
<event>
 6    1  0.9687246E-012  0.3000000E+03  0.7818608E-02  0.1093470E+00
          1   -1    0    0  502    0  0.00000000000E+00  0.00000000000E+00  0.24948413684E+03  0.24948413684E+03  0.00000000000E+00 0.  1.
         13   -1    0    0    0    0 -0.00000000000E+00 -0.00000000000E+00 -0.27500000000E+03  0.27500000000E+03  0.00000000000E+00 0.  1.
    9000005    2    1    2  501    0  0.17071699309E+02 -0.25976385114E+02 -0.47878761935E+02  0.48619164747E+03  0.48282887933E+03 0.  0.
         13    1    3    3    0    0 -0.16007260462E+03  0.13531138636E+03  0.67613433549E+02  0.22023620598E+03  0.00000000000E+00 0.  1.
          3    1    3    3  501    0  0.17714430393E+03 -0.16128777147E+03 -0.11549219548E+03  0.26595544149E+03  0.00000000000E+00 0.  1.
         21    1    1    2  502  501 -0.17071699309E+02  0.25976385114E+02  0.22362898776E+02  0.38292489376E+02  0.00000000000E+00 0. -1.
<scales pt_clust_4="550.00000" pt_clust_5="550.00000" pt_clust_6="31.08401"></scales>
<mgrwt>
<rscale>  0 0.30000000E+03</rscale>
<asrwt>  1 0.31084007E+02</asrwt>
<pdfrwt beam="1">  1        1 0.90721504E+00 0.30000000E+03</pdfrwt>
<pdfrwt beam="2">0</pdfrwt>
<totfact> 0.85238919E-05</totfact>
</mgrwt>
<clustering>
<clus scale="   31.084">  1  6  2 -1</clus>
<clus scale="  482.829">  4  5 -1 -1</clus>
<clus scale="  300.000">  1  4  2 -1</clus>
</clustering>
</event>
<event>
 6    1  0.9687246E-012  0.3000000E+03  0.7818608E-02  0.1093470E+00
          1   -1    0    0  502    0  0.00000000000E+00  0.00000000000E+00  0.23946498992E+03  0.23946498992E+03  0.00000000000E+00 0.  1.
         13   -1    0    0    0    0 -0.00000000000E+00 -0.00000000000E+00 -0.27500000000E+03  0.27500000000E+03  0.00000000000E+00 0.  1.
    9000005    2    1    2  501    0 -0.35478827189E+02  0.12024963361E+02 -0.33549587669E+02  0.47695114149E+03  0.47429259915E+03 0.  0.
         13    1    3    3    0    0 -0.20595104582E+02 -0.21550079795E+03 -0.10140585545E+03  0.23905626904E+03  0.00000000000E+00 0.  1.
          3    1    3    3  501    0 -0.14883722606E+02  0.22752576131E+03  0.67856267780E+02  0.23789487244E+03  0.00000000000E+00 0.  1.
         21    1    1    2  502  501  0.35478827189E+02 -0.12024963361E+02 -0.19854224068E+01  0.37513848438E+02  0.00000000000E+00 0.  1.
<scales pt_clust_4="550.00000" pt_clust_5="550.00000" pt_clust_6="37.46127"></scales>
<mgrwt>
<rscale>  0 0.30000000E+03</rscale>
<asrwt>  1 0.37461272E+02</asrwt>
<pdfrwt beam="1">  1        1 0.87078178E+00 0.30000000E+03</pdfrwt>
<pdfrwt beam="2">0</pdfrwt>
<totfact> 0.24551551E-04</totfact>
</mgrwt>
<clustering>
<clus scale="   37.461">  1  6  2 -1</clus>
<clus scale="  474.293">  4  5 -1 -1</clus>
<clus scale="  300.000">  1  4  2 -1</clus>
</clustering>
</event>
<event>
 6    1  0.9687246E-012  0.3000000E+03  0.7818608E-02  0.1093470E+00
          1   -1    0    0  502    0  0.00000000000E+00  0.00000000000E+00  0.23908629324E+03  0.23908629324E+03  0.00000000000E+00 0.  1.
         13   -1    0    0    0    0 -0.00000000000E+00 -0.00000000000E+00 -0.27500000000E+03  0.27500000000E+03  0.00000000000E+00 0.  1.
    9000005    2    1    2  501    0 -0.32808243769E+02 -0.24703200634E+02 -0.48163025550E+02  0.47122984925E+03  0.46695959655E+03 0.  0.
         13    1    3    3    0    0 -0.12774806983E+03  0.18360506300E+03 -0.85156705169E+02  0.23933669368E+03  0.00000000000E+00 0.  1.
          3    1    3    3  501    0  0.94939826066E+02 -0.20830826363E+03  0.36993679619E+02  0.23189315557E+03  0.00000000000E+00 0.  1.
         21    1    1    2  502  501  0.32808243769E+02  0.24703200634E+02  0.12249318794E+02  0.42856443993E+02  0.00000000000E+00 0. -1.
<scales pt_clust_4="550.00000" pt_clust_5="550.00000" pt_clust_6="41.06859"></scales>
<mgrwt>
<rscale>  0 0.30000000E+03</rscale>
<asrwt>  1 0.41068589E+02</asrwt>
<pdfrwt beam="1">  1        1 0.86940470E+00 0.30000000E+03</pdfrwt>
<pdfrwt beam="2">0</pdfrwt>
<totfact> 0.24937367E-04</totfact>
</mgrwt>
<clustering>
<clus scale="   41.069">  1  6  2 -1</clus>
<clus scale="  466.960">  4  5 -1 -1</clus>
<clus scale="  300.000">  1  4  2 -1</clus>
</clustering>
</event>
<event>
 6    1  0.9687246E-012  0.3000000E+03  0.7818608E-02  0.1093470E+00
          1   -1    0    0  502    0  0.00000000000E+00  0.00000000000E+00  0.23154140444E+03  0.23154140444E+03  0.00000000000E+00 0.  1.
         13   -1    0    0    0    0 -0.00000000000E+00 -0.00000000000E+00 -0.27500000000E+03  0.27500000000E+03  0.00000000000E+00 0.  1.
    9000005    2    1    2  501    0  0.53803417044E+01  0.34183758385E+02 -0.60444144101E+02  0.46799291195E+03  0.46278115094E+03 0.  0.
         13    1    3    3    0    0  0.21825151129E+03  0.17331283028E+02  0.54310661923E+02  0.22557425286E+03  0.00000000000E+00 0.  1.
          1    1    3    3  501    0 -0.21287116959E+03  0.16852475358E+02 -0.11475480602E+03  0.24241865909E+03  0.00000000000E+00 0.  1.
         21    1    1    2  502  501 -0.53803417044E+01 -0.34183758385E+02  0.16985548537E+02  0.38548492491E+02  0.00000000000E+00 0.  1.
<scales pt_clust_4="550.00000" pt_clust_5="550.00000" pt_clust_6="34.60459"></scales>
<mgrwt>
<rscale>  0 0.30000000E+03</rscale>
<asrwt>  1 0.34604587E+02</asrwt>
<pdfrwt beam="1">  1        1 0.84196874E+00 0.30000000E+03</pdfrwt>
<pdfrwt beam="2">0</pdfrwt>
<totfact> 0.48047187E-04</totfact>
</mgrwt>
<clustering>
<clus scale="   34.605">  1  6  2 -1</clus>
<clus scale="  462.781">  4  5 -1 -1</clus>
<clus scale="  300.000">  1  4  2 -1</clus>
</clustering>
</event>
<event>
 6    1  0.9687246E-012  0.3000000E+03  0.7818608E-02  0.1093470E+00
          1   -1    0    0  502    0  0.00000000000E+00  0.00000000000E+00  0.26561339980E+03  0.26561339980E+03  0.00000000000E+00 0.  1.
         13   -1    0    0    0    0 -0.00000000000E+00 -0.00000000000E+00 -0.27500000000E+03  0.27500000000E+03  0.00000000000E+00 0.  1.
    9000005    2    1    2  501    0  0.61141975454E+02 -0.15401216790E+02 -0.13503960769E+02  0.47742723598E+03  0.47305271382E+03 0.  0.
         13    1    3    3    0    0 -0.42105420918E+02 -0.17391313936E+02 -0.23164280699E+03  0.23607988966E+03  0.00000000000E+00 0.  1.
          3    1    3    3  501    0  0.10324739637E+03  0.19900971455E+01  0.21813884622E+03  0.24134734632E+03  0.00000000000E+00 0.  1.
         21    1    1    2  502  501 -0.61141975454E+02  0.15401216790E+02  0.41173605711E+01  0.63186163826E+02  0.00000000000E+00 0.  1.
<scales pt_clust_4="550.00000" pt_clust_5="550.00000" pt_clust_6="63.05187"></scales>
<mgrwt>
<rscale>  0 0.30000000E+03</rscale>
<asrwt>  1 0.63051873E+02</asrwt>
<pdfrwt beam="1">  1        1 0.96586691E+00 0.30000000E+03</pdfrwt>
<pdfrwt beam="2">0</pdfrwt>
<totfact> 0.51731372E-06</totfact>
</mgrwt>
<clustering>
<clus scale="   63.052">  1  6  2 -1</clus>
<clus scale="  473.053">  4  5 -1 -1</clus>
<clus scale="  300.000">  1  4  2 -1</clus>
</clustering>
</event>
<event>
 6    1  0.9687246E-012  0.3000000E+03  0.7818608E-02  0.1093470E+00
          1   -1    0    0  502    0  0.00000000000E+00  0.00000000000E+00  0.24586055535E+03  0.24586055535E+03  0.00000000000E+00 0.  1.
         13   -1    0    0    0    0 -0.00000000000E+00 -0.00000000000E+00 -0.27500000000E+03  0.27500000000E+03  0.00000000000E+00 0.  1.
    9000005    2    1    2  501    0  0.39017493894E+02 -0.25195423771E+02 -0.45522819209E+02  0.47161028458E+03  0.46710465556E+03 0.  0.
         13    1    3    3    0    0 -0.60040666006E+02 -0.10818101711E+03 -0.22124348084E+03  0.25348903695E+03  0.00000000000E+00 0.  1.
          3    1    3    3  501    0  0.99058159900E+02  0.82985593334E+02  0.17572066163E+03  0.21812124763E+03  0.00000000000E+00 0.  1.
         21    1    1    2  502  501 -0.39017493894E+02  0.25195423771E+02  0.16383374554E+02  0.49250270766E+02  0.00000000000E+00 0.  1.
<scales pt_clust_4="550.00000" pt_clust_5="550.00000" pt_clust_6="46.44539"></scales>
<mgrwt>
<rscale>  0 0.30000000E+03</rscale>
<asrwt>  1 0.46445390E+02</asrwt>
<pdfrwt beam="1">  1        1 0.89403838E+00 0.30000000E+03</pdfrwt>
<pdfrwt beam="2">0</pdfrwt>
<totfact> 0.12279218E-04</totfact>
</mgrwt>
<clustering>
<clus scale="   46.445">  1  6  2 -1</clus>
<clus scale="  467.105">  4  5 -1 -1</clus>
<clus scale="  300.000">  1  4  2 -1</clus>
</clustering>
</event>
<event>
 6    1  0.9687246E-012  0.3000000E+03  0.7818608E-02  0.1093470E+00
          1   -1    0    0  502    0  0.00000000000E+00  0.00000000000E+00  0.22150482303E+03  0.22150482303E+03  0.00000000000E+00 0.  1.
         13   -1    0    0    0    0 -0.00000000000E+00 -0.00000000000E+00 -0.27500000000E+03  0.27500000000E+03  0.00000000000E+00 0.  1.
    9000005    2    1    2  501    0 -0.29405765803E+02 -0.10727645341E+02 -0.45274238947E+02  0.46414180000E+03  0.46086665356E+03 0.  0.
         13    1    3    3    0    0  0.20167229515E+03  0.55341369631E+02  0.32272863888E+02  0.21160321256E+03  0.00000000000E+00 0.  1.
          1    1    3    3  501    0 -0.23107806095E+03 -0.66069014971E+02 -0.77547102835E+02  0.25253858745E+03  0.00000000000E+00 0.  1.
         21    1    1    2  502  501  0.29405765803E+02  0.10727645341E+02 -0.82209380278E+01  0.32363023021E+02  0.00000000000E+00 0.  1.
<scales pt_clust_4="550.00000" pt_clust_5="550.00000" pt_clust_6="31.30148"></scales>
<mgrwt>
<rscale>  0 0.30000000E+03</rscale>
<asrwt>  1 0.31301476E+02</asrwt>
<pdfrwt beam="1">  1        1 0.80547208E+00 0.30000000E+03</pdfrwt>
<pdfrwt beam="2">0</pdfrwt>
<totfact> 0.96526772E-04</totfact>
</mgrwt>
<clustering>
<clus scale="   31.301">  1  6  2 -1</clus>
<clus scale="  460.867">  4  5 -1 -1</clus>
<clus scale="  300.000">  1  4  2 -1</clus>
</clustering>
</event>
<event>
 6    1  0.9687246E-012  0.3000000E+03  0.7818608E-02  0.1093470E+00
          1   -1    0    0  502    0  0.00000000000E+00  0.00000000000E+00  0.23747470860E+03  0.23747470860E+03  0.00000000000E+00 0.  1.
         13   -1    0    0    0    0 -0.00000000000E+00 -0.00000000000E+00 -0.27500000000E+03  0.27500000000E+03  0.00000000000E+00 0.  1.
    9000005    2    1    2  501    0 -0.10661276658E+01 -0.32996996517E+02 -0.55483893585E+02  0.47489213551E+03  0.47048287909E+03 0.  0.
         13    1    3    3    0    0 -0.14584422001E+02 -0.23913375635E+03  0.47225331351E+02  0.24418822804E+03  0.00000000000E+00 0.  1.
          3    1    3    3  501    0  0.13518294336E+02  0.20613675983E+03 -0.10270922494E+03  0.23070390747E+03  0.00000000000E+00 0.  1.
         21    1    1    2  502  501  0.10661276658E+01  0.32996996517E+02  0.17958602185E+02  0.37582573086E+02  0.00000000000E+00 0.  1.
<scales pt_clust_4="550.00000" pt_clust_5="550.00000" pt_clust_6="33.01422"></scales>
<mgrwt>
<rscale>  0 0.30000000E+03</rscale>
<asrwt>  1 0.33014215E+02</asrwt>
<pdfrwt beam="1">  1        1 0.86354439E+00 0.30000000E+03</pdfrwt>
<pdfrwt beam="2">0</pdfrwt>
<totfact> 0.29950127E-04</totfact>
</mgrwt>
<clustering>
<clus scale="   33.014">  1  6  2 -1</clus>
<clus scale="  470.483">  4  5 -1 -1</clus>
<clus scale="  300.000">  1  4  2 -1</clus>
</clustering>
</event>
<event>
 6    1  0.9687246E-012  0.3000000E+03  0.7818608E-02  0.1093470E+00
          1   -1    0    0  502    0  0.00000000000E+00  0.00000000000E+00  0.25765494920E+03  0.25765494920E+03  0.00000000000E+00 0.  1.
         13   -1    0    0    0    0 -0.00000000000E+00 -0.00000000000E+00 -0.27500000000E+03  0.27500000000E+03  0.00000000000E+00 0.  1.
    9000005    2    1    2  501    0 -0.16256771735E+02  0.25983429694E+02 -0.21827081576E+02  0.50167899327E+03  0.50026589885E+03 0.  0.
         13    1    3    3    0    0 -0.18754450170E+03  0.17768902419E+03 -0.70393255845E+02  0.26777143220E+03  0.00000000000E+00 0.  1.
          3    1    3    3  501    0  0.17128772996E+03 -0.15170559450E+03  0.48566174270E+02  0.23390756106E+03  0.00000000000E+00 0.  1.
         21    1    1    2  502  501  0.16256771735E+02 -0.25983429694E+02  0.44820307721E+01  0.30975955930E+02  0.00000000000E+00 0. -1.
<scales pt_clust_4="550.00000" pt_clust_5="550.00000" pt_clust_6="30.64998"></scales>
<mgrwt>
<rscale>  0 0.30000000E+03</rscale>
<asrwt>  1 0.30649980E+02</asrwt>
<pdfrwt beam="1">  1        1 0.93692709E+00 0.30000000E+03</pdfrwt>
<pdfrwt beam="2">0</pdfrwt>
<totfact> 0.21855325E-05</totfact>
</mgrwt>
<clustering>
<clus scale="   30.650">  1  6  2 -1</clus>
<clus scale="  500.266">  4  5 -1 -1</clus>
<clus scale="  300.000">  1  4  2 -1</clus>
</clustering>
</event>
<event>
 6    1  0.9687246E-012  0.3000000E+03  0.7818608E-02  0.1093470E+00
          1   -1    0    0  502    0  0.00000000000E+00  0.00000000000E+00  0.23311317497E+03  0.23311317497E+03  0.00000000000E+00 0.  1.
         13   -1    0    0    0    0 -0.00000000000E+00 -0.00000000000E+00 -0.27500000000E+03  0.27500000000E+03  0.00000000000E+00 0.  1.
    9000005    2    1    2  501    0 -0.35606622642E+02 -0.17307779902E+02 -0.44932376291E+02  0.46840591866E+03  0.46456193923E+03 0.  0.
         13    1    3    3    0    0  0.15516038682E+03 -0.32211957817E+02  0.13317207388E+03  0.20699554857E+03  0.00000000000E+00 0.  1.
          3    1    3    3  501    0 -0.19076700946E+03  0.14904177915E+02 -0.17810445018E+03  0.26141037009E+03  0.00000000000E+00 0.  1.
         21    1    1    2  502  501  0.35606622642E+02  0.17307779902E+02  0.30455512629E+01  0.39707256310E+02  0.00000000000E+00 0. -1.
<scales pt_clust_4="550.00000" pt_clust_5="550.00000" pt_clust_6="39.59029"></scales>
<mgrwt>
<rscale>  0 0.30000000E+03</rscale>
<asrwt>  1 0.39590287E+02</asrwt>
<pdfrwt beam="1">  1        1 0.84768427E+00 0.30000000E+03</pdfrwt>
<pdfrwt beam="2">0</pdfrwt>
<totfact> 0.41793108E-04</totfact>
</mgrwt>
<clustering>
<clus scale="   39.590">  1  6  2 -1</clus>
<clus scale="  464.562">  4  5 -1 -1</clus>
<clus scale="  300.000">  1  4  2 -1</clus>
</clustering>
</event>
<event>
 6    1  0.9687246E-012  0.3000000E+03  0.7818608E-02  0.1093470E+00
          1   -1    0    0  502    0  0.00000000000E+00  0.00000000000E+00  0.24798699938E+03  0.24798699938E+03  0.00000000000E+00 0.  1.
         13   -1    0    0    0    0 -0.00000000000E+00 -0.00000000000E+00 -0.27500000000E+03  0.27500000000E+03  0.00000000000E+00 0.  1.
    9000005    2    1    2  501    0 -0.17913083679E+01  0.31337088753E+02 -0.32388048000E+02  0.49114185766E+03  0.48906657703E+03 0.  0.
         13    1    3    3    0    0 -0.17401869337E+03  0.10165493798E+03  0.13362398091E+03  0.24180901624E+03  0.00000000000E+00 0.  1.
          3    1    3    3  501    0  0.17222738500E+03 -0.70317849228E+02 -0.16601202891E+03  0.24933284142E+03  0.00000000000E+00 0.  1.
         21    1    1    2  502  501  0.17913083679E+01 -0.31337088753E+02  0.53750473819E+01  0.31845141726E+02  0.00000000000E+00 0.  1.
<scales pt_clust_4="550.00000" pt_clust_5="550.00000" pt_clust_6="31.38824"></scales>
<mgrwt>
<rscale>  0 0.30000000E+03</rscale>
<asrwt>  1 0.31388245E+02</asrwt>
<pdfrwt beam="1">  1        1 0.90177091E+00 0.30000000E+03</pdfrwt>
<pdfrwt beam="2">0</pdfrwt>
<totfact> 0.10676385E-04</totfact>
</mgrwt>
<clustering>
<clus scale="   31.388">  1  6  2 -1</clus>
<clus scale="  489.067">  4  5 -1 -1</clus>
<clus scale="  300.000">  1  4  2 -1</clus>
</clustering>
</event>
<event>
 6    1  0.9687246E-012  0.3000000E+03  0.7818608E-02  0.1093470E+00
          1   -1    0    0  502    0  0.00000000000E+00  0.00000000000E+00  0.24192414958E+03  0.24192414958E+03  0.00000000000E+00 0.  1.
         13   -1    0    0    0    0 -0.00000000000E+00 -0.00000000000E+00 -0.27500000000E+03  0.27500000000E+03  0.00000000000E+00 0.  1.
    9000005    2    1    2  501    0  0.27929474801E+02  0.34445690037E+02 -0.25131471163E+02  0.47187224300E+03  0.46911114008E+03 0.  0.
         13    1    3    3    0    0  0.48476731324E+02  0.64029790236E+02  0.21476341115E+03  0.22928831258E+03  0.00000000000E+00 0.  1.
          3    1    3    3  501    0 -0.20547256523E+02 -0.29584100198E+02 -0.23989488232E+03  0.24258393042E+03  0.00000000000E+00 0.  1.
         21    1    1    2  502  501 -0.27929474801E+02 -0.34445690037E+02 -0.79443792565E+01  0.45051906581E+02  0.00000000000E+00 0.  1.
<scales pt_clust_4="550.00000" pt_clust_5="550.00000" pt_clust_6="44.34595"></scales>
<mgrwt>
<rscale>  0 0.30000000E+03</rscale>
<asrwt>  1 0.44345948E+02</asrwt>
<pdfrwt beam="1">  1        1 0.87972418E+00 0.30000000E+03</pdfrwt>
<pdfrwt beam="2">0</pdfrwt>
<totfact> 0.19048851E-04</totfact>
</mgrwt>
<clustering>
<clus scale="   44.346">  1  6  2 -1</clus>
<clus scale="  469.111">  4  5 -1 -1</clus>
<clus scale="  300.000">  1  4  2 -1</clus>
</clustering>
</event>
<event>
 6    1  0.9687246E-012  0.3000000E+03  0.7818608E-02  0.1093470E+00
          1   -1    0    0  502    0  0.00000000000E+00  0.00000000000E+00  0.23944961684E+03  0.23944961684E+03  0.00000000000E+00 0.  1.
         13   -1    0    0    0    0 -0.00000000000E+00 -0.00000000000E+00 -0.27500000000E+03  0.27500000000E+03  0.00000000000E+00 0.  1.
    9000005    2    1    2  501    0 -0.30849982073E+02 -0.81046440150E+01 -0.36004607148E+02  0.48254957032E+03  0.48014617507E+03 0.  0.
         13    1    3    3    0    0 -0.25295047238E+03  0.56588048403E+01 -0.55965703016E+02  0.25912954958E+03  0.00000000000E+00 0.  1.
          3    1    3    3  501    0  0.22210049031E+03 -0.13763448855E+02  0.19961095868E+02  0.22342002074E+03  0.00000000000E+00 0.  1.
         21    1    1    2  502  501  0.30849982073E+02  0.81046440150E+01  0.45422398796E+00  0.31900046520E+02  0.00000000000E+00 0. -1.
<scales pt_clust_4="550.00000" pt_clust_5="550.00000" pt_clust_6="31.89681"></scales>
<mgrwt>
<rscale>  0 0.30000000E+03</rscale>
<asrwt>  1 0.31896813E+02</asrwt>
<pdfrwt beam="1">  1        1 0.87072588E+00 0.30000000E+03</pdfrwt>
<pdfrwt beam="2">0</pdfrwt>
<totfact> 0.25336271E-04</totfact>
</mgrwt>
<clustering>
<clus scale="   31.897">  1  6  2 -1</clus>
<clus scale="  480.146">  4  5 -1 -1</clus>
<clus scale="  300.000">  1  4  2 -1</clus>
</clustering>
</event>
<event>
 6    1  0.9687246E-012  0.3000000E+03  0.7818608E-02  0.1093470E+00
          1   -1    0    0  502    0  0.00000000000E+00  0.00000000000E+00  0.24747379637E+03  0.24747379637E+03  0.00000000000E+00 0.  1.
         13   -1    0    0    0    0 -0.00000000000E+00 -0.00000000000E+00 -0.27500000000E+03  0.27500000000E+03  0.00000000000E+00 0.  1.
    9000005    2    1    2  501    0  0.36315468370E+02 -0.17807448742E+02 -0.56972435513E+02  0.47244381490E+03  0.46724873607E+03 0.  0.
         13    1    3    3    0    0  0.15221064024E+03  0.18179942476E+03 -0.12865976733E+02  0.23745450765E+03  0.00000000000E+00 0.  1.
          1    1    3    3  501    0 -0.11589517187E+03 -0.19960687351E+03 -0.44106458780E+02  0.23498930725E+03  0.00000000000E+00 0.  1.
         21    1    1    2  502  501 -0.36315468370E+02  0.17807448742E+02  0.29446231881E+02  0.50029981467E+02  0.00000000000E+00 0.  1.
<scales pt_clust_4="550.00000" pt_clust_5="550.00000" pt_clust_6="40.44649"></scales>
<mgrwt>
<rscale>  0 0.30000000E+03</rscale>
<asrwt>  1 0.40446489E+02</asrwt>
<pdfrwt beam="1">  1        1 0.89990471E+00 0.30000000E+03</pdfrwt>
<pdfrwt beam="2">0</pdfrwt>
<totfact> 0.10782894E-04</totfact>
</mgrwt>
<clustering>
<clus scale="   40.446">  1  6  2 -1</clus>
<clus scale="  467.249">  4  5 -1 -1</clus>
<clus scale="  300.000">  1  4  2 -1</clus>
</clustering>
</event>
<event>
 6    1  0.9687246E-012  0.3000000E+03  0.7818608E-02  0.1093470E+00
          1   -1    0    0  502    0  0.00000000000E+00  0.00000000000E+00  0.22543986877E+03  0.22543986877E+03  0.00000000000E+00 0.  1.
         13   -1    0    0    0    0 -0.00000000000E+00 -0.00000000000E+00 -0.27500000000E+03  0.27500000000E+03  0.00000000000E+00 0.  1.
    9000005    2    1    2  501    0  0.65182576694E+01 -0.33732669220E+02 -0.65861558912E+02  0.46241202107E+03  0.45640634487E+03 0.  0.
         13    1    3    3    0    0  0.78414070305E+02 -0.12599906866E+03  0.15368865435E+03  0.21364628291E+03  0.00000000000E+00 0.  1.
          3    1    3    3  501    0 -0.71895812636E+02  0.92266399439E+02 -0.21955021326E+03  0.24876573816E+03  0.00000000000E+00 0.  1.
         21    1    1    2  502  501 -0.65182576694E+01  0.33732669220E+02  0.16301427678E+02  0.38027847692E+02  0.00000000000E+00 0. -1.
<scales pt_clust_4="550.00000" pt_clust_5="550.00000" pt_clust_6="34.35667"></scales>
<mgrwt>
<rscale>  0 0.30000000E+03</rscale>
<asrwt>  1 0.34356668E+02</asrwt>
<pdfrwt beam="1">  1        1 0.81978134E+00 0.30000000E+03</pdfrwt>
<pdfrwt beam="2">0</pdfrwt>
<totfact> 0.72897547E-04</totfact>
</mgrwt>
<clustering>
<clus scale="   34.357">  1  6  2 -1</clus>
<clus scale="  456.406">  4  5 -1 -1</clus>
<clus scale="  300.000">  1  4  2 -1</clus>
</clustering>
</event>
<event>
 6    1  0.9687246E-012  0.3000000E+03  0.7818608E-02  0.1093470E+00
          1   -1    0    0  502    0  0.00000000000E+00  0.00000000000E+00  0.22019168376E+03  0.22019168376E+03  0.00000000000E+00 0.  1.
         13   -1    0    0    0    0 -0.00000000000E+00 -0.00000000000E+00 -0.27500000000E+03  0.27500000000E+03  0.00000000000E+00 0.  1.
    9000005    2    1    2  501    0 -0.30121120024E+02  0.24324186162E+01 -0.58931683070E+02  0.46469249220E+03  0.45994887814E+03 0.  0.
         13    1    3    3    0    0 -0.16099089249E+03 -0.23477690821E+02  0.14703684422E+03  0.21929227754E+03  0.00000000000E+00 0.  1.
          3    1    3    3  501    0  0.13086977247E+03  0.25910109437E+02 -0.20596852729E+03  0.24540021465E+03  0.00000000000E+00 0.  1.
         21    1    1    2  502  501  0.30121120024E+02 -0.24324186162E+01  0.41233668266E+01  0.30499191560E+02  0.00000000000E+00 0.  1.
<scales pt_clust_4="550.00000" pt_clust_5="550.00000" pt_clust_6="30.21917"></scales>
<mgrwt>
<rscale>  0 0.30000000E+03</rscale>
<asrwt>  1 0.30219175E+02</asrwt>
<pdfrwt beam="1">  1        1 0.80069703E+00 0.30000000E+03</pdfrwt>
<pdfrwt beam="2">0</pdfrwt>
<totfact> 0.10540063E-03</totfact>
</mgrwt>
<clustering>
<clus scale="   30.219">  1  6  2 -1</clus>
<clus scale="  459.949">  4  5 -1 -1</clus>
<clus scale="  300.000">  1  4  2 -1</clus>
</clustering>
</event>
<event>
 6    1  0.9687246E-012  0.3000000E+03  0.7818608E-02  0.1093470E+00
          1   -1    0    0  502    0  0.00000000000E+00  0.00000000000E+00  0.23798718599E+03  0.23798718599E+03  0.00000000000E+00 0.  1.
         13   -1    0    0    0    0 -0.00000000000E+00 -0.00000000000E+00 -0.27500000000E+03  0.27500000000E+03  0.00000000000E+00 0.  1.
    9000005    2    1    2  501    0 -0.22087593264E+02  0.23103437327E+02 -0.46251202721E+02  0.47971590080E+03  0.47641005566E+03 0.  0.
         13    1    3    3    0    0  0.77552302361E+02  0.18464946810E+03 -0.16183529932E+03  0.25748873719E+03  0.00000000000E+00 0.  1.
          1    1    3    3  501    0 -0.99639895626E+02 -0.16154603077E+03  0.11558409660E+03  0.22222716361E+03  0.00000000000E+00 0.  1.
         21    1    1    2  502  501  0.22087593264E+02 -0.23103437327E+02  0.92383887154E+01  0.33271285196E+02  0.00000000000E+00 0. -1.
<scales pt_clust_4="550.00000" pt_clust_5="550.00000" pt_clust_6="31.96296"></scales>
<mgrwt>
<rscale>  0 0.30000000E+03</rscale>
<asrwt>  1 0.31962957E+02</asrwt>
<pdfrwt beam="1">  1        1 0.86540795E+00 0.30000000E+03</pdfrwt>
<pdfrwt beam="2">0</pdfrwt>
<totfact> 0.28771626E-04</totfact>
</mgrwt>
<clustering>
<clus scale="   31.963">  1  6  2 -1</clus>
<clus scale="  476.410">  4  5 -1 -1</clus>
<clus scale="  300.000">  1  4  2 -1</clus>
</clustering>
</event>
<event>
 6    1  0.9687246E-012  0.3000000E+03  0.7818608E-02  0.1093470E+00
          1   -1    0    0  502    0  0.00000000000E+00  0.00000000000E+00  0.23282148465E+03  0.23282148465E+03  0.00000000000E+00 0.  1.
         13   -1    0    0    0    0 -0.00000000000E+00 -0.00000000000E+00 -0.27500000000E+03  0.27500000000E+03  0.00000000000E+00 0.  1.
    9000005    2    1    2  501    0 -0.36728737897E+01 -0.33993513848E+02 -0.57053429291E+02  0.47053459620E+03  0.46580968586E+03 0.  0.
         13    1    3    3    0    0  0.56583928310E+01  0.21622174472E+03 -0.17009265751E+02  0.21696353477E+03  0.00000000000E+00 0.  1.
          3    1    3    3  501    0 -0.93312666208E+01 -0.25021525857E+03 -0.40044163541E+02  0.25357106142E+03  0.00000000000E+00 0.  1.
         21    1    1    2  502  501  0.36728737897E+01  0.33993513848E+02  0.14874913938E+02  0.37286888449E+02  0.00000000000E+00 0.  1.
<scales pt_clust_4="550.00000" pt_clust_5="550.00000" pt_clust_6="34.19136"></scales>
<mgrwt>
<rscale>  0 0.30000000E+03</rscale>
<asrwt>  1 0.34191358E+02</asrwt>
<pdfrwt beam="1">  1        1 0.84662358E+00 0.30000000E+03</pdfrwt>
<pdfrwt beam="2">0</pdfrwt>
<totfact> 0.43903091E-04</totfact>
</mgrwt>
<clustering>
<clus scale="   34.191">  1  6  2 -1</clus>
<clus scale="  465.810">  4  5 -1 -1</clus>
<clus scale="  300.000">  1  4  2 -1</clus>
</clustering>
</event>
<event>
 6    1  0.9687246E-012  0.3000000E+03  0.7818608E-02  0.1093470E+00
          1   -1    0    0  502    0  0.00000000000E+00  0.00000000000E+00  0.24111915164E+03  0.24111915164E+03  0.00000000000E+00 0.  1.
         13   -1    0    0    0    0 -0.00000000000E+00 -0.00000000000E+00 -0.27500000000E+03  0.27500000000E+03  0.00000000000E+00 0.  1.
    9000005    2    1    2  501    0  0.19370936761E+02  0.23638998804E+02 -0.45761378416E+02  0.48332917680E+03  0.48018637417E+03 0.  0.
         13    1    3    3    0    0  0.11630945152E+03  0.44653435744E+02  0.19019756904E+03  0.22736959583E+03  0.00000000000E+00 0.  1.
          3    1    3    3  501    0 -0.96938514763E+02 -0.21014436939E+02 -0.23595894746E+03  0.25595958097E+03  0.00000000000E+00 0.  1.
         21    1    1    2  502  501 -0.19370936761E+02 -0.23638998804E+02  0.11880530053E+02  0.32789974837E+02  0.00000000000E+00 0.  1.
<scales pt_clust_4="550.00000" pt_clust_5="550.00000" pt_clust_6="30.56199"></scales>
<mgrwt>
<rscale>  0 0.30000000E+03</rscale>
<asrwt>  1 0.30561994E+02</asrwt>
<pdfrwt beam="1">  1        1 0.87679692E+00 0.30000000E+03</pdfrwt>
<pdfrwt beam="2">0</pdfrwt>
<totfact> 0.22069900E-04</totfact>
</mgrwt>
<clustering>
<clus scale="   30.562">  1  6  2 -1</clus>
<clus scale="  480.186">  4  5 -1 -1</clus>
<clus scale="  300.000">  1  4  2 -1</clus>
</clustering>
</event>
<event>
 6    1  0.9687246E-012  0.3000000E+03  0.7818608E-02  0.1093470E+00
          1   -1    0    0  502    0  0.00000000000E+00  0.00000000000E+00  0.24457658017E+03  0.24457658017E+03  0.00000000000E+00 0.  1.
         13   -1    0    0    0    0 -0.00000000000E+00 -0.00000000000E+00 -0.27500000000E+03  0.27500000000E+03  0.00000000000E+00 0.  1.
    9000005    2    1    2  501    0  0.30542414794E+02  0.32404479668E+02 -0.47659115557E+02  0.47182766803E+03  0.46729762209E+03 0.  0.
         13    1    3    3    0    0  0.81995531731E+02  0.22914219877E+03 -0.97956557844E+02  0.26234500511E+03  0.00000000000E+00 0.  1.
          3    1    3    3  501    0 -0.51453116937E+02 -0.19673771910E+03  0.50297442287E+02  0.20948266291E+03  0.00000000000E+00 0.  1.
         21    1    1    2  502  501 -0.30542414794E+02 -0.32404479668E+02  0.17235695730E+02  0.47748912148E+02  0.00000000000E+00 0. -1.
<scales pt_clust_4="550.00000" pt_clust_5="550.00000" pt_clust_6="44.52965"></scales>
<mgrwt>
<rscale>  0 0.30000000E+03</rscale>
<asrwt>  1 0.44529646E+02</asrwt>
<pdfrwt beam="1">  1        1 0.88936938E+00 0.30000000E+03</pdfrwt>
<pdfrwt beam="2">0</pdfrwt>
<totfact> 0.14143354E-04</totfact>
</mgrwt>
<clustering>
<clus scale="   44.530">  1  6  2 -1</clus>
<clus scale="  467.298">  4  5 -1 -1</clus>
<clus scale="  300.000">  1  4  2 -1</clus>
</clustering>
</event>
<event>
 6    1  0.9687246E-012  0.3000000E+03  0.7818608E-02  0.1093470E+00
          1   -1    0    0  502    0  0.00000000000E+00  0.00000000000E+00  0.24603156896E+03  0.24603156896E+03  0.00000000000E+00 0.  1.
         13   -1    0    0    0    0 -0.00000000000E+00 -0.00000000000E+00 -0.27500000000E+03  0.27500000000E+03  0.00000000000E+00 0.  1.
    9000005    2    1    2  501    0 -0.45463784162E+02  0.18148143358E+02 -0.95056085356E+01  0.46835223489E+03  0.46568997043E+03 0.  0.
         13    1    3    3    0    0  0.20975587382E+03 -0.51504130440E+01  0.18050718767E+02  0.21059411626E+03  0.00000000000E+00 0.  1.
          1    1    3    3  501    0 -0.25521965798E+03  0.23298556402E+02 -0.27556327303E+02  0.25775811864E+03  0.00000000000E+00 0.  1.
         21    1    1    2  502  501  0.45463784162E+02 -0.18148143358E+02 -0.19462822505E+02  0.52679334065E+02  0.00000000000E+00 0. -1.
<scales pt_clust_4="550.00000" pt_clust_5="550.00000" pt_clust_6="48.95215"></scales>
<mgrwt>
<rscale>  0 0.30000000E+03</rscale>
<asrwt>  1 0.48952152E+02</asrwt>
<pdfrwt beam="1">  1        1 0.89466025E+00 0.30000000E+03</pdfrwt>
<pdfrwt beam="2">0</pdfrwt>
<totfact> 0.11969540E-04</totfact>
</mgrwt>
<clustering>
<clus scale="   48.952">  1  6  2 -1</clus>
<clus scale="  465.690">  4  5 -1 -1</clus>
<clus scale="  300.000">  1  4  2 -1</clus>
</clustering>
</event>
<event>
 6    1  0.9687246E-012  0.3000000E+03  0.7818608E-02  0.1093470E+00
          1   -1    0    0  502    0  0.00000000000E+00  0.00000000000E+00  0.21946136740E+03  0.21946136740E+03  0.00000000000E+00 0.  1.
         13   -1    0    0    0    0 -0.00000000000E+00 -0.00000000000E+00 -0.27500000000E+03  0.27500000000E+03  0.00000000000E+00 0.  1.
    9000005    2    1    2  501    0 -0.31289955944E+02 -0.72238749206E+00 -0.61457541141E+02  0.46260831943E+03  0.45743835066E+03 0.  0.
         13    1    3    3    0    0 -0.17355438495E+03 -0.12293284295E+03 -0.14488315406E+03  0.25734167315E+03  0.00000000000E+00 0.  1.
          3    1    3    3  501    0  0.14226442900E+03  0.12221045545E+03  0.83425612921E+02  0.20526664628E+03  0.00000000000E+00 0.  1.
         21    1    1    2  502  501  0.31289955944E+02  0.72238749206E+00  0.59189085372E+01  0.31853047969E+02  0.00000000000E+00 0.  1.
<scales pt_clust_4="550.00000" pt_clust_5="550.00000" pt_clust_6="31.29829"></scales>
<mgrwt>
<rscale>  0 0.30000000E+03</rscale>
<asrwt>  1 0.31298294E+02</asrwt>
<pdfrwt beam="1">  1        1 0.79804134E+00 0.30000000E+03</pdfrwt>
<pdfrwt beam="2">0</pdfrwt>
<totfact> 0.10943324E-03</totfact>
</mgrwt>
<clustering>
<clus scale="   31.298">  1  6  2 -1</clus>
<clus scale="  457.438">  4  5 -1 -1</clus>
<clus scale="  300.000">  1  4  2 -1</clus>
</clustering>
</event>
<event>
 6    1  0.9687246E-012  0.3000000E+03  0.7818608E-02  0.1093470E+00
          1   -1    0    0  502    0  0.00000000000E+00  0.00000000000E+00  0.24032924923E+03  0.24032924923E+03  0.00000000000E+00 0.  1.
         13   -1    0    0    0    0 -0.00000000000E+00 -0.00000000000E+00 -0.27500000000E+03  0.27500000000E+03  0.00000000000E+00 0.  1.
    9000005    2    1    2  501    0  0.18536861303E+02 -0.28266456629E+02 -0.60277921918E+02  0.47292246898E+03  0.46784572884E+03 0.  0.
         13    1    3    3    0    0 -0.10838309017E+03  0.16809657329E+03  0.61565578729E+02  0.20926937825E+03  0.00000000000E+00 0.  1.
          3    1    3    3  501    0  0.12691995147E+03 -0.19636302992E+03 -0.12184350065E+03  0.26365309073E+03  0.00000000000E+00 0.  1.
         21    1    1    2  502  501 -0.18536861303E+02  0.28266456629E+02  0.25607171149E+02  0.42406780255E+02  0.00000000000E+00 0.  1.
<scales pt_clust_4="550.00000" pt_clust_5="550.00000" pt_clust_6="33.80248"></scales>
<mgrwt>
<rscale>  0 0.30000000E+03</rscale>
<asrwt>  1 0.33802482E+02</asrwt>
<pdfrwt beam="1">  1        1 0.87392454E+00 0.30000000E+03</pdfrwt>
<pdfrwt beam="2">0</pdfrwt>
<totfact> 0.23235553E-04</totfact>
</mgrwt>
<clustering>
<clus scale="   33.802">  1  6  2 -1</clus>
<clus scale="  467.846">  4  5 -1 -1</clus>
<clus scale="  300.000">  1  4  2 -1</clus>
</clustering>
</event>
<event>
 6    1  0.9687246E-012  0.3000000E+03  0.7818608E-02  0.1093470E+00
          1   -1    0    0  502    0  0.00000000000E+00  0.00000000000E+00  0.22119766978E+03  0.22119766978E+03  0.00000000000E+00 0.  1.
         13   -1    0    0    0    0 -0.00000000000E+00 -0.00000000000E+00 -0.27500000000E+03  0.27500000000E+03  0.00000000000E+00 0.  1.
    9000005    2    1    2  501    0  0.29724830446E+02  0.15216150259E+02 -0.50661293403E+02  0.46265720338E+03  0.45866112154E+03 0.  0.
         13    1    3    3    0    0  0.16721706527E+03  0.17868064860E+03 -0.80771783118E+01  0.24485416458E+03  0.00000000000E+00 0.  1.
          1    1    3    3  501    0 -0.13749223483E+03 -0.16346449834E+03 -0.42584115091E+02  0.21780303880E+03  0.00000000000E+00 0.  1.
         21    1    1    2  502  501 -0.29724830446E+02 -0.15216150259E+02 -0.31410368216E+01  0.33540466396E+02  0.00000000000E+00 0.  1.
<scales pt_clust_4="550.00000" pt_clust_5="550.00000" pt_clust_6="33.39306"></scales>
<mgrwt>
<rscale>  0 0.30000000E+03</rscale>
<asrwt>  1 0.33393065E+02</asrwt>
<pdfrwt beam="1">  1        1 0.80435516E+00 0.30000000E+03</pdfrwt>
<pdfrwt beam="2">0</pdfrwt>
<totfact> 0.97219945E-04</totfact>
</mgrwt>
<clustering>
<clus scale="   33.393">  1  6  2 -1</clus>
<clus scale="  458.661">  4  5 -1 -1</clus>
<clus scale="  300.000">  1  4  2 -1</clus>
</clustering>
</event>
<event>
 6    1  0.9687246E-012  0.3000000E+03  0.7818608E-02  0.1093470E+00
          1   -1    0    0  502    0  0.00000000000E+00  0.00000000000E+00  0.23392958835E+03  0.23392958835E+03  0.00000000000E+00 0.  1.
         13   -1    0    0    0    0 -0.00000000000E+00 -0.00000000000E+00 -0.27500000000E+03  0.27500000000E+03  0.00000000000E+00 0.  1.
    9000005    2    1    2  501    0 -0.22216401448E+02 -0.32222199183E+02 -0.56386345738E+02  0.46690083093E+03  0.46182802787E+03 0.  0.
         13    1    3    3    0    0  0.42527755545E+02  0.15526102568E+03  0.12054156490E+03  0.20110908720E+03  0.00000000000E+00 0.  1.
          1    1    3    3  501    0 -0.64744156993E+02 -0.18748322487E+03 -0.17692791064E+03  0.26579174373E+03  0.00000000000E+00 0.  1.
         21    1    1    2  502  501  0.22216401448E+02  0.32222199183E+02  0.15315934090E+02  0.42028757423E+02  0.00000000000E+00 0. -1.
<scales pt_clust_4="550.00000" pt_clust_5="550.00000" pt_clust_6="39.13871"></scales>
<mgrwt>
<rscale>  0 0.30000000E+03</rscale>
<asrwt>  1 0.39138710E+02</asrwt>
<pdfrwt beam="1">  1        1 0.85065305E+00 0.30000000E+03</pdfrwt>
<pdfrwt beam="2">0</pdfrwt>
<totfact> 0.39304676E-04</totfact>
</mgrwt>
<clustering>
<clus scale="   39.139">  1  6  2 -1</clus>
<clus scale="  461.828">  4  5 -1 -1</clus>
<clus scale="  300.000">  1  4  2 -1</clus>
</clustering>
</event>
<event>
 6    1  0.9687246E-012  0.3000000E+03  0.7818608E-02  0.1093470E+00
          1   -1    0    0  502    0  0.00000000000E+00  0.00000000000E+00  0.23251669166E+03  0.23251669166E+03  0.00000000000E+00 0.  1.
         13   -1    0    0    0    0 -0.00000000000E+00 -0.00000000000E+00 -0.27500000000E+03  0.27500000000E+03  0.00000000000E+00 0.  1.
    9000005    2    1    2  501    0 -0.47970073876E+01  0.35207594877E+02 -0.37509426551E+02  0.47163737287E+03  0.46879875042E+03 0.  0.
         13    1    3    3    0    0 -0.22977412353E+03  0.74654163138E+02 -0.24965139864E+02  0.24288402609E+03  0.00000000000E+00 0.  1.
          3    1    3    3  501    0  0.22497711615E+03 -0.39446568261E+02 -0.12544286687E+02  0.22875334679E+03  0.00000000000E+00 0.  1.
         21    1    1    2  502  501  0.47970073876E+01 -0.35207594877E+02 -0.49738817847E+01  0.35879318791E+02  0.00000000000E+00 0. -1.
<scales pt_clust_4="550.00000" pt_clust_5="550.00000" pt_clust_6="35.53290"></scales>
<mgrwt>
<rscale>  0 0.30000000E+03</rscale>
<asrwt>  1 0.35532904E+02</asrwt>
<pdfrwt beam="1">  1        1 0.84551524E+00 0.30000000E+03</pdfrwt>
<pdfrwt beam="2">0</pdfrwt>
<totfact> 0.44588465E-04</totfact>
</mgrwt>
<clustering>
<clus scale="   35.533">  1  6  2 -1</clus>
<clus scale="  468.799">  4  5 -1 -1</clus>
<clus scale="  300.000">  1  4  2 -1</clus>
</clustering>
</event>
<event>
 6    1  0.9687246E-012  0.3000000E+03  0.7818608E-02  0.1093470E+00
          1   -1    0    0  502    0  0.00000000000E+00  0.00000000000E+00  0.23052173772E+03  0.23052173772E+03  0.00000000000E+00 0.  1.
         13   -1    0    0    0    0 -0.00000000000E+00 -0.00000000000E+00 -0.27500000000E+03  0.27500000000E+03  0.00000000000E+00 0.  1.
    9000005    2    1    2  501    0 -0.34254049748E+02  0.67275771660E+01 -0.57863168977E+02  0.46813516331E+03  0.46323189073E+03 0.  0.
         13    1    3    3    0    0  0.37382910558E+02  0.14883783942E+03  0.14443521966E+03  0.21074087673E+03  0.00000000000E+00 0.  1.
          1    1    3    3  501    0 -0.71636960306E+02 -0.14211026226E+03 -0.20229838864E+03  0.25739428658E+03  0.00000000000E+00 0.  1.
         21    1    1    2  502  501  0.34254049748E+02 -0.67275771660E+01  0.13384906697E+02  0.37386574407E+02  0.00000000000E+00 0.  1.
<scales pt_clust_4="550.00000" pt_clust_5="550.00000" pt_clust_6="34.90845"></scales>
<mgrwt>
<rscale>  0 0.30000000E+03</rscale>
<asrwt>  1 0.34908455E+02</asrwt>
<pdfrwt beam="1">  1        1 0.83826086E+00 0.30000000E+03</pdfrwt>
<pdfrwt beam="2">0</pdfrwt>
<totfact> 0.51245514E-04</totfact>
</mgrwt>
<clustering>
<clus scale="   34.908">  1  6  2 -1</clus>
<clus scale="  463.232">  4  5 -1 -1</clus>
<clus scale="  300.000">  1  4  2 -1</clus>
</clustering>
</event>
<event>
 6    1  0.9687246E-012  0.3000000E+03  0.7818608E-02  0.1093470E+00
          1   -1    0    0  502    0  0.00000000000E+00  0.00000000000E+00  0.24726790103E+03  0.24726790103E+03  0.00000000000E+00 0.  1.
         13   -1    0    0    0    0 -0.00000000000E+00 -0.00000000000E+00 -0.27500000000E+03  0.27500000000E+03  0.00000000000E+00 0.  1.
    9000005    2    1    2  501    0 -0.41053867531E+02  0.20063472108E+02 -0.52346493562E+02  0.47036576838E+03  0.46520515660E+03 0.  0.
         13    1    3    3    0    0 -0.20518608096E+03  0.96739894970E+01 -0.17124101893E+03  0.26742924383E+03  0.00000000000E+00 0.  1.
          3    1    3    3  501    0  0.16413221343E+03  0.10389482611E+02  0.11889452537E+03  0.20293652455E+03  0.00000000000E+00 0.  1.
         21    1    1    2  502  501  0.41053867531E+02 -0.20063472108E+02  0.24614394591E+02  0.51902132648E+02  0.00000000000E+00 0.  1.
<scales pt_clust_4="550.00000" pt_clust_5="550.00000" pt_clust_6="45.69423"></scales>
<mgrwt>
<rscale>  0 0.30000000E+03</rscale>
<asrwt>  1 0.45694233E+02</asrwt>
<pdfrwt beam="1">  1        1 0.89915600E+00 0.30000000E+03</pdfrwt>
<pdfrwt beam="2">0</pdfrwt>
<totfact> 0.10773313E-04</totfact>
</mgrwt>
<clustering>
<clus scale="   45.694">  1  6  2 -1</clus>
<clus scale="  465.205">  4  5 -1 -1</clus>
<clus scale="  300.000">  1  4  2 -1</clus>
</clustering>
</event>
<event>
 6    1  0.9687246E-012  0.3000000E+03  0.7818608E-02  0.1093470E+00
          1   -1    0    0  502    0  0.00000000000E+00  0.00000000000E+00  0.23281397105E+03  0.23281397105E+03  0.00000000000E+00 0.  1.
         13   -1    0    0    0    0 -0.00000000000E+00 -0.00000000000E+00 -0.27500000000E+03  0.27500000000E+03  0.00000000000E+00 0.  1.
    9000005    2    1    2  501    0 -0.72724575593E+01  0.43784688281E+02 -0.55131409278E+02  0.46158010425E+03  0.45612140137E+03 0.  0.
         13    1    3    3    0    0  0.22035004407E+03  0.14632210914E+02 -0.69871981760E+02  0.23162542467E+03  0.00000000000E+00 0.  1.
          1    1    3    3  501    0 -0.22762250163E+03  0.29152477366E+02  0.14740572482E+02  0.22995467958E+03  0.00000000000E+00 0.  1.
         21    1    1    2  502  501  0.72724575593E+01 -0.43784688281E+02  0.12945380324E+02  0.46233866792E+02  0.00000000000E+00 0. -1.
<scales pt_clust_4="550.00000" pt_clust_5="550.00000" pt_clust_6="44.38454"></scales>
<mgrwt>
<rscale>  0 0.30000000E+03</rscale>
<asrwt>  1 0.44384542E+02</asrwt>
<pdfrwt beam="1">  1        1 0.84659626E+00 0.30000000E+03</pdfrwt>
<pdfrwt beam="2">0</pdfrwt>
<totfact> 0.41875285E-04</totfact>
</mgrwt>
<clustering>
<clus scale="   44.385">  1  6  2 -1</clus>
<clus scale="  456.121">  4  5 -1 -1</clus>
<clus scale="  300.000">  1  4  2 -1</clus>
</clustering>
</event>
<event>
 6    1  0.9687246E-012  0.3000000E+03  0.7818608E-02  0.1093470E+00
          1   -1    0    0  502    0  0.00000000000E+00  0.00000000000E+00  0.23536897878E+03  0.23536897878E+03  0.00000000000E+00 0.  1.
         13   -1    0    0    0    0 -0.00000000000E+00 -0.00000000000E+00 -0.27500000000E+03  0.27500000000E+03  0.00000000000E+00 0.  1.
    9000005    2    1    2  501    0  0.29362284990E+02  0.27666479768E+02 -0.45588934564E+02  0.46958816694E+03  0.46562551229E+03 0.  0.
         13    1    3    3    0    0  0.23039845928E+03  0.16899536798E+00 -0.11187957813E+03  0.25612598189E+03  0.00000000000E+00 0.  1.
          1    1    3    3  501    0 -0.20103617429E+03  0.27497484400E+02  0.66290643562E+02  0.21346218505E+03  0.00000000000E+00 0.  1.
         21    1    1    2  502  501 -0.29362284990E+02 -0.27666479768E+02  0.59579133446E+01  0.40780811836E+02  0.00000000000E+00 0.  1.
<scales pt_clust_4="550.00000" pt_clust_5="550.00000" pt_clust_6="40.34325"></scales>
<mgrwt>
<rscale>  0 0.30000000E+03</rscale>
<asrwt>  1 0.40343251E+02</asrwt>
<pdfrwt beam="1">  1        1 0.85588720E+00 0.30000000E+03</pdfrwt>
<pdfrwt beam="2">0</pdfrwt>
<totfact> 0.34772732E-04</totfact>
</mgrwt>
<clustering>
<clus scale="   40.343">  1  6  2 -1</clus>
<clus scale="  465.626">  4  5 -1 -1</clus>
<clus scale="  300.000">  1  4  2 -1</clus>
</clustering>
</event>
<event>
 6    1  0.9687246E-012  0.3000000E+03  0.7818608E-02  0.1093470E+00
          1   -1    0    0  502    0  0.00000000000E+00  0.00000000000E+00  0.25286503544E+03  0.25286503544E+03  0.00000000000E+00 0.  1.
         13   -1    0    0    0    0 -0.00000000000E+00 -0.00000000000E+00 -0.27500000000E+03  0.27500000000E+03  0.00000000000E+00 0.  1.
    9000005    2    1    2  501    0  0.31482990713E+02 -0.15247486197E+02 -0.70478942175E+02  0.46819255677E+03  0.46153366549E+03 0.  0.
         13    1    3    3    0    0 -0.23139163110E+02  0.12111757224E+03  0.15562784869E+03  0.19855708112E+03  0.00000000000E+00 0.  1.
          1    1    3    3  501    0  0.54622153823E+02 -0.13636505843E+03 -0.22610679087E+03  0.26963547565E+03  0.00000000000E+00 0.  1.
         21    1    1    2  502  501 -0.31482990713E+02  0.15247486197E+02  0.48343977618E+02  0.59672478677E+02  0.00000000000E+00 0.  1.
<scales pt_clust_4="550.00000" pt_clust_5="550.00000" pt_clust_6="34.98092"></scales>
<mgrwt>
<rscale>  0 0.30000000E+03</rscale>
<asrwt>  1 0.34980917E+02</asrwt>
<pdfrwt beam="1">  1        1 0.91950922E+00 0.30000000E+03</pdfrwt>
<pdfrwt beam="2">0</pdfrwt>
<totfact> 0.42846200E-05</totfact>
</mgrwt>
<clustering>
<clus scale="   34.981">  1  6  2 -1</clus>
<clus scale="  461.534">  4  5 -1 -1</clus>
<clus scale="  300.000">  1  4  2 -1</clus>
</clustering>
</event>
<event>
 6    1  0.9687246E-012  0.3000000E+03  0.7818608E-02  0.1093470E+00
          1   -1    0    0  502    0  0.00000000000E+00  0.00000000000E+00  0.21915469009E+03  0.21915469009E+03  0.00000000000E+00 0.  1.
         13   -1    0    0    0    0 -0.00000000000E+00 -0.00000000000E+00 -0.27500000000E+03  0.27500000000E+03  0.00000000000E+00 0.  1.
    9000005    2    1    2  501    0  0.30646677153E+02  0.55132846754E+01 -0.49815667504E+02  0.46243763292E+03  0.45869090735E+03 0.  0.
         13    1    3    3    0    0  0.70161117375E+02 -0.58748078332E+01  0.19856392360E+03  0.21067683193E+03  0.00000000000E+00 0.  1.
          3    1    3    3  501    0 -0.39514440223E+02  0.11388092509E+02 -0.24837959110E+03  0.25176080099E+03  0.00000000000E+00 0.  1.
         21    1    1    2  502  501 -0.30646677153E+02 -0.55132846754E+01 -0.60296424013E+01  0.31717057176E+02  0.00000000000E+00 0.  1.
<scales pt_clust_4="550.00000" pt_clust_5="550.00000" pt_clust_6="31.13866"></scales>
<mgrwt>
<rscale>  0 0.30000000E+03</rscale>
<asrwt>  1 0.31138659E+02</asrwt>
<pdfrwt beam="1">  1        1 0.79692615E+00 0.30000000E+03</pdfrwt>
<pdfrwt beam="2">0</pdfrwt>
<totfact> 0.11161082E-03</totfact>
</mgrwt>
<clustering>
<clus scale="   31.139">  1  6  2 -1</clus>
<clus scale="  458.691">  4  5 -1 -1</clus>
<clus scale="  300.000">  1  4  2 -1</clus>
</clustering>
</event>
<event>
 6    1  0.9687246E-012  0.3000000E+03  0.7818608E-02  0.1093470E+00
          1   -1    0    0  502    0  0.00000000000E+00  0.00000000000E+00  0.23653142271E+03  0.23653142271E+03  0.00000000000E+00 0.  1.
         13   -1    0    0    0    0 -0.00000000000E+00 -0.00000000000E+00 -0.27500000000E+03  0.27500000000E+03  0.00000000000E+00 0.  1.
    9000005    2    1    2  501    0 -0.14615555942E+02 -0.46424965861E+02 -0.21569322017E+02  0.46000980823E+03  0.45691891631E+03 0.  0.
         13    1    3    3    0    0 -0.77326348434E+02 -0.14526373647E+03  0.16930365785E+03  0.23610304076E+03  0.00000000000E+00 0.  1.
          3    1    3    3  501    0  0.62710792492E+02  0.98838770607E+02 -0.19087297987E+03  0.22390676746E+03  0.00000000000E+00 0.  1.
         21    1    1    2  502  501  0.14615555942E+02  0.46424965861E+02 -0.16899255270E+02  0.51521614487E+02  0.00000000000E+00 0.  1.
<scales pt_clust_4="550.00000" pt_clust_5="550.00000" pt_clust_6="48.67129"></scales>
<mgrwt>
<rscale>  0 0.30000000E+03</rscale>
<asrwt>  1 0.48671288E+02</asrwt>
<pdfrwt beam="1">  1        1 0.86011426E+00 0.30000000E+03</pdfrwt>
<pdfrwt beam="2">0</pdfrwt>
<totfact> 0.30381788E-04</totfact>
</mgrwt>
<clustering>
<clus scale="   48.671">  1  6  2 -1</clus>
<clus scale="  456.919">  4  5 -1 -1</clus>
<clus scale="  300.000">  1  4  2 -1</clus>
</clustering>
</event>
<event>
 6    1  0.9687246E-012  0.3000000E+03  0.7818608E-02  0.1093470E+00
          1   -1    0    0  502    0  0.00000000000E+00  0.00000000000E+00  0.22413608105E+03  0.22413608105E+03  0.00000000000E+00 0.  1.
         13   -1    0    0    0    0 -0.00000000000E+00 -0.00000000000E+00 -0.27500000000E+03  0.27500000000E+03  0.00000000000E+00 0.  1.
    9000005    2    1    2  501    0  0.29698185670E+02  0.11335880281E+02 -0.69159676634E+02  0.46245885156E+03  0.45615199671E+03 0.  0.
         13    1    3    3    0    0  0.54224910372E+02 -0.62045439081E+02  0.18192871792E+03  0.19971989340E+03  0.00000000000E+00 0.  1.
          1    1    3    3  501    0 -0.24526724702E+02  0.73381319363E+02 -0.25108839455E+03  0.26273895816E+03  0.00000000000E+00 0.  1.
         21    1    1    2  502  501 -0.29698185670E+02 -0.11335880281E+02  0.18295757689E+02  0.36677229492E+02  0.00000000000E+00 0.  1.
<scales pt_clust_4="550.00000" pt_clust_5="550.00000" pt_clust_6="31.78812"></scales>
<mgrwt>
<rscale>  0 0.30000000E+03</rscale>
<asrwt>  1 0.31788117E+02</asrwt>
<pdfrwt beam="1">  1        1 0.81504029E+00 0.30000000E+03</pdfrwt>
<pdfrwt beam="2">0</pdfrwt>
<totfact> 0.81002595E-04</totfact>
</mgrwt>
<clustering>
<clus scale="   31.788">  1  6  2 -1</clus>
<clus scale="  456.152">  4  5 -1 -1</clus>
<clus scale="  300.000">  1  4  2 -1</clus>
</clustering>
</event>
<event>
 6    1  0.9687246E-012  0.3000000E+03  0.7818608E-02  0.1093470E+00
          1   -1    0    0  502    0  0.00000000000E+00  0.00000000000E+00  0.22108944556E+03  0.22108944556E+03  0.00000000000E+00 0.  1.
         13   -1    0    0    0    0 -0.00000000000E+00 -0.00000000000E+00 -0.27500000000E+03  0.27500000000E+03  0.00000000000E+00 0.  1.
    9000005    2    1    2  501    0 -0.21264720983E+02 -0.28546861864E+02 -0.48849406273E+02  0.46013493400E+03  0.45614776259E+03 0.  0.
         13    1    3    3    0    0  0.21375057794E+03 -0.25917020534E+02  0.17195812197E+02  0.21600161453E+03  0.00000000000E+00 0.  1.
          3    1    3    3  501    0 -0.23501529892E+03 -0.26298413300E+01 -0.66045218470E+02  0.24413331947E+03  0.00000000000E+00 0.  1.
         21    1    1    2  502  501  0.21264720983E+02  0.28546861864E+02 -0.50611481649E+01  0.35954511560E+02  0.00000000000E+00 0. -1.
<scales pt_clust_4="550.00000" pt_clust_5="550.00000" pt_clust_6="35.59653"></scales>
<mgrwt>
<rscale>  0 0.30000000E+03</rscale>
<asrwt>  1 0.35596530E+02</asrwt>
<pdfrwt beam="1">  1        1 0.80396162E+00 0.30000000E+03</pdfrwt>
<pdfrwt beam="2">0</pdfrwt>
<totfact> 0.96713668E-04</totfact>
</mgrwt>
<clustering>
<clus scale="   35.597">  1  6  2 -1</clus>
<clus scale="  456.148">  4  5 -1 -1</clus>
<clus scale="  300.000">  1  4  2 -1</clus>
</clustering>
</event>
<event>
 6    1  0.9687246E-012  0.3000000E+03  0.7818608E-02  0.1093470E+00
          1   -1    0    0  502    0  0.00000000000E+00  0.00000000000E+00  0.23858740407E+03  0.23858740407E+03  0.00000000000E+00 0.  1.
         13   -1    0    0    0    0 -0.00000000000E+00 -0.00000000000E+00 -0.27500000000E+03  0.27500000000E+03  0.00000000000E+00 0.  1.
    9000005    2    1    2  501    0  0.17146839339E+02 -0.29700506854E+02 -0.70143033313E+02  0.46548463271E+03  0.45888970783E+03 0.  0.
         13    1    3    3    0    0 -0.19044674132E+03 -0.11602470751E+03 -0.88466833759E+02  0.23991263974E+03  0.00000000000E+00 0.  1.
          3    1    3    3  501    0  0.20759358066E+03  0.86324200655E+02  0.18323800446E+02  0.22557199297E+03  0.00000000000E+00 0.  1.
         21    1    1    2  502  501 -0.17146839339E+02  0.29700506854E+02  0.33730437379E+02  0.48102771359E+02  0.00000000000E+00 0.  1.
<scales pt_clust_4="550.00000" pt_clust_5="550.00000" pt_clust_6="34.29481"></scales>
<mgrwt>
<rscale>  0 0.30000000E+03</rscale>
<asrwt>  1 0.34294813E+02</asrwt>
<pdfrwt beam="1">  1        1 0.86759056E+00 0.30000000E+03</pdfrwt>
<pdfrwt beam="2">0</pdfrwt>
<totfact> 0.26919324E-04</totfact>
</mgrwt>
<clustering>
<clus scale="   34.295">  1  6  2 -1</clus>
<clus scale="  458.890">  4  5 -1 -1</clus>
<clus scale="  300.000">  1  4  2 -1</clus>
</clustering>
</event>
<event>
 6    1  0.9687246E-012  0.3000000E+03  0.7818608E-02  0.1093470E+00
          1   -1    0    0  502    0  0.00000000000E+00  0.00000000000E+00  0.22428585729E+03  0.22428585729E+03  0.00000000000E+00 0.  1.
         13   -1    0    0    0    0 -0.00000000000E+00 -0.00000000000E+00 -0.27500000000E+03  0.27500000000E+03  0.00000000000E+00 0.  1.
    9000005    2    1    2  501    0  0.30881235669E+02  0.24743406148E+01 -0.53194096507E+02  0.46820655149E+03  0.46414220868E+03 0.  0.
         13    1    3    3    0    0  0.85829600969E+02 -0.21817848212E+03  0.95806408840E+00  0.23445572791E+03  0.00000000000E+00 0.  1.
          1    1    3    3  501    0 -0.54948365300E+02  0.22065282273E+03 -0.54152160595E+02  0.23375082358E+03  0.00000000000E+00 0.  1.
         21    1    1    2  502  501 -0.30881235669E+02 -0.24743406148E+01  0.24799537932E+01  0.31079305795E+02  0.00000000000E+00 0. -1.
<scales pt_clust_4="550.00000" pt_clust_5="550.00000" pt_clust_6="30.98020"></scales>
<mgrwt>
<rscale>  0 0.30000000E+03</rscale>
<asrwt>  1 0.30980205E+02</asrwt>
<pdfrwt beam="1">  1        1 0.81558494E+00 0.30000000E+03</pdfrwt>
<pdfrwt beam="2">0</pdfrwt>
<totfact> 0.80578584E-04</totfact>
</mgrwt>
<clustering>
<clus scale="   30.980">  1  6  2 -1</clus>
<clus scale="  464.142">  4  5 -1 -1</clus>
<clus scale="  300.000">  1  4  2 -1</clus>
</clustering>
</event>
<event>
 6    1  0.9687246E-012  0.3000000E+03  0.7818608E-02  0.1093470E+00
          1   -1    0    0  502    0  0.00000000000E+00  0.00000000000E+00  0.23349875262E+03  0.23349875262E+03  0.00000000000E+00 0.  1.
         13   -1    0    0    0    0 -0.00000000000E+00 -0.00000000000E+00 -0.27500000000E+03  0.27500000000E+03  0.00000000000E+00 0.  1.
    9000005    2    1    2  501    0 -0.15725985040E+02  0.26336494885E+02 -0.64666324746E+02  0.47005999122E+03  0.46457910438E+03 0.  0.
         13    1    3    3    0    0  0.22411919300E+03  0.25126248176E+02 -0.38546034833E+02  0.22879365774E+03  0.00000000000E+00 0.  1.
          1    1    3    3  501    0 -0.23984517804E+03  0.12102467090E+01 -0.26120289914E+02  0.24126633349E+03  0.00000000000E+00 0.  1.
         21    1    1    2  502  501  0.15725985040E+02 -0.26336494885E+02  0.23165077370E+02  0.38438761399E+02  0.00000000000E+00 0.  1.
<scales pt_clust_4="550.00000" pt_clust_5="550.00000" pt_clust_6="30.67438"></scales>
<mgrwt>
<rscale>  0 0.30000000E+03</rscale>
<asrwt>  1 0.30674380E+02</asrwt>
<pdfrwt beam="1">  1        1 0.84908637E+00 0.30000000E+03</pdfrwt>
<pdfrwt beam="2">0</pdfrwt>
<totfact> 0.42555538E-04</totfact>
</mgrwt>
<clustering>
<clus scale="   30.674">  1  6  2 -1</clus>
<clus scale="  464.579">  4  5 -1 -1</clus>
<clus scale="  300.000">  1  4  2 -1</clus>
</clustering>
</event>
<event>
 6    1  0.9687246E-012  0.3000000E+03  0.7818608E-02  0.1093470E+00
          1   -1    0    0  502    0  0.00000000000E+00  0.00000000000E+00  0.23563785398E+03  0.23563785398E+03  0.00000000000E+00 0.  1.
         13   -1    0    0    0    0 -0.00000000000E+00 -0.00000000000E+00 -0.27500000000E+03  0.27500000000E+03  0.00000000000E+00 0.  1.
    9000005    2    1    2  501    0  0.34484477798E+02 -0.33821075951E+02 -0.41253705030E+02  0.46229923191E+03  0.45791447592E+03 0.  0.
         13    1    3    3    0    0  0.12923642632E+03  0.14312724277E+03 -0.14029421039E+03  0.23847416418E+03  0.00000000000E+00 0.  1.
          3    1    3    3  501    0 -0.94751948522E+02 -0.17694831872E+03  0.99040505360E+02  0.22382506774E+03  0.00000000000E+00 0.  1.
         21    1    1    2  502  501 -0.34484477798E+02  0.33821075951E+02  0.18915590056E+01  0.48338622063E+02  0.00000000000E+00 0. -1.
<scales pt_clust_4="550.00000" pt_clust_5="550.00000" pt_clust_6="48.30160"></scales>
<mgrwt>
<rscale>  0 0.30000000E+03</rscale>
<asrwt>  1 0.48301598E+02</asrwt>
<pdfrwt beam="1">  1        1 0.85686492E+00 0.30000000E+03</pdfrwt>
<pdfrwt beam="2">0</pdfrwt>
<totfact> 0.32906012E-04</totfact>
</mgrwt>
<clustering>
<clus scale="   48.302">  1  6  2 -1</clus>
<clus scale="  457.914">  4  5 -1 -1</clus>
<clus scale="  300.000">  1  4  2 -1</clus>
</clustering>
</event>
<event>
 6    1  0.9687246E-012  0.3000000E+03  0.7818608E-02  0.1093470E+00
          1   -1    0    0  502    0  0.00000000000E+00  0.00000000000E+00  0.25069363603E+03  0.25069363603E+03  0.00000000000E+00 0.  1.
         13   -1    0    0    0    0 -0.00000000000E+00 -0.00000000000E+00 -0.27500000000E+03  0.27500000000E+03  0.00000000000E+00 0.  1.
    9000005    2    1    2  501    0 -0.45762409268E+02 -0.88132172867E+01 -0.42876333432E+02  0.47552676781E+03  0.47129126454E+03 0.  0.
         13    1    3    3    0    0  0.56775596115E+02 -0.20811391970E+03  0.67036881588E+02  0.22589558513E+03  0.00000000000E+00 0.  1.
          3    1    3    3  501    0 -0.10253800538E+03  0.19930070242E+03 -0.10991321502E+03  0.24963118268E+03  0.00000000000E+00 0.  1.
         21    1    1    2  502  501  0.45762409268E+02  0.88132172867E+01  0.18569969458E+02  0.50166868216E+02  0.00000000000E+00 0. -1.
<scales pt_clust_4="550.00000" pt_clust_5="550.00000" pt_clust_6="46.60334"></scales>
<mgrwt>
<rscale>  0 0.30000000E+03</rscale>
<asrwt>  1 0.46603336E+02</asrwt>
<pdfrwt beam="1">  1        1 0.91161322E+00 0.30000000E+03</pdfrwt>
<pdfrwt beam="2">0</pdfrwt>
<totfact> 0.62221199E-05</totfact>
</mgrwt>
<clustering>
<clus scale="   46.603">  1  6  2 -1</clus>
<clus scale="  471.291">  4  5 -1 -1</clus>
<clus scale="  300.000">  1  4  2 -1</clus>
</clustering>
</event>
<event>
 6    1  0.9687246E-012  0.3000000E+03  0.7818608E-02  0.1093470E+00
          1   -1    0    0  502    0  0.00000000000E+00  0.00000000000E+00  0.23473650570E+03  0.23473650570E+03  0.00000000000E+00 0.  1.
         13   -1    0    0    0    0 -0.00000000000E+00 -0.00000000000E+00 -0.27500000000E+03  0.27500000000E+03  0.00000000000E+00 0.  1.
    9000005    2    1    2  501    0  0.29890056052E+02  0.13015146061E+02 -0.50120859801E+02  0.47567806868E+03  0.47190540890E+03 0.  0.
         13    1    3    3    0    0  0.19915389158E+03  0.13299797558E+03 -0.10435802244E+03  0.26123041723E+03  0.00000000000E+00 0.  1.
          1    1    3    3  501    0 -0.16926383553E+03 -0.11998282952E+03  0.54237162639E+02  0.21444765144E+03  0.00000000000E+00 0.  1.
         21    1    1    2  502  501 -0.29890056052E+02 -0.13015146061E+02  0.98573654964E+01  0.34058437021E+02  0.00000000000E+00 0.  1.
<scales pt_clust_4="550.00000" pt_clust_5="550.00000" pt_clust_6="32.60076"></scales>
<mgrwt>
<rscale>  0 0.30000000E+03</rscale>
<asrwt>  1 0.32600759E+02</asrwt>
<pdfrwt beam="1">  1        1 0.85358729E+00 0.30000000E+03</pdfrwt>
<pdfrwt beam="2">0</pdfrwt>
<totfact> 0.38117737E-04</totfact>
</mgrwt>
<clustering>
<clus scale="   32.601">  1  6  2 -1</clus>
<clus scale="  471.905">  4  5 -1 -1</clus>
<clus scale="  300.000">  1  4  2 -1</clus>
</clustering>
</event>
<event>
 6    1  0.9687246E-012  0.3000000E+03  0.7818608E-02  0.1093470E+00
          1   -1    0    0  502    0  0.00000000000E+00  0.00000000000E+00  0.23083945169E+03  0.23083945169E+03  0.00000000000E+00 0.  1.
         13   -1    0    0    0    0 -0.00000000000E+00 -0.00000000000E+00 -0.27500000000E+03  0.27500000000E+03  0.00000000000E+00 0.  1.
    9000005    2    1    2  501    0 -0.81968202310E+01 -0.40455038103E+02 -0.50596967086E+02  0.46406355605E+03  0.45944655076E+03 0.  0.
         13    1    3    3    0    0 -0.14114611378E+03  0.16463757668E+03 -0.26128764581E+02  0.21842726348E+03  0.00000000000E+00 0.  1.
          1    1    3    3  501    0  0.13294929355E+03 -0.20509261478E+03 -0.24468202505E+02  0.24563629257E+03  0.00000000000E+00 0.  1.
         21    1    1    2  502  501  0.81968202310E+01  0.40455038103E+02  0.64364187754E+01  0.41775895640E+02  0.00000000000E+00 0.  1.
<scales pt_clust_4="550.00000" pt_clust_5="550.00000" pt_clust_6="41.27709"></scales>
<mgrwt>
<rscale>  0 0.30000000E+03</rscale>
<asrwt>  1 0.41277088E+02</asrwt>
<pdfrwt beam="1">  1        1 0.83941619E+00 0.30000000E+03</pdfrwt>
<pdfrwt beam="2">0</pdfrwt>
<totfact> 0.48712225E-04</totfact>
</mgrwt>
<clustering>
<clus scale="   41.277">  1  6  2 -1</clus>
<clus scale="  459.447">  4  5 -1 -1</clus>
<clus scale="  300.000">  1  4  2 -1</clus>
</clustering>
</event>
<event>
 6    1  0.9687246E-012  0.3000000E+03  0.7818608E-02  0.1093470E+00
          1   -1    0    0  502    0  0.00000000000E+00  0.00000000000E+00  0.23163833616E+03  0.23163833616E+03  0.00000000000E+00 0.  1.
         13   -1    0    0    0    0 -0.00000000000E+00 -0.00000000000E+00 -0.27500000000E+03  0.27500000000E+03  0.00000000000E+00 0.  1.
    9000005    2    1    2  501    0  0.36285761775E+02 -0.81416705252E+01 -0.44665741426E+02  0.46942753228E+03  0.46581566773E+03 0.  0.
         13    1    3    3    0    0  0.12132420075E+03  0.43066580452E+02 -0.22749011185E+03  0.26139250760E+03  0.00000000000E+00 0.  1.
          3    1    3    3  501    0 -0.85038438975E+02 -0.51208250977E+02  0.18282437043E+03  0.20803502468E+03  0.00000000000E+00 0.  1.
         21    1    1    2  502  501 -0.36285761775E+02  0.81416705252E+01  0.13040775814E+01  0.37210803873E+02  0.00000000000E+00 0. -1.
<scales pt_clust_4="550.00000" pt_clust_5="550.00000" pt_clust_6="37.18795"></scales>
<mgrwt>
<rscale>  0 0.30000000E+03</rscale>
<asrwt>  1 0.37187946E+02</asrwt>
<pdfrwt beam="1">  1        1 0.84232122E+00 0.30000000E+03</pdfrwt>
<pdfrwt beam="2">0</pdfrwt>
<totfact> 0.47089453E-04</totfact>
</mgrwt>
<clustering>
<clus scale="   37.188">  1  6  2 -1</clus>
<clus scale="  465.816">  4  5 -1 -1</clus>
<clus scale="  300.000">  1  4  2 -1</clus>
</clustering>
</event>
<event>
 6    1  0.9687246E-012  0.3000000E+03  0.7818608E-02  0.1093470E+00
          1   -1    0    0  502    0  0.00000000000E+00  0.00000000000E+00  0.23248622301E+03  0.23248622301E+03  0.00000000000E+00 0.  1.
         13   -1    0    0    0    0 -0.00000000000E+00 -0.00000000000E+00 -0.27500000000E+03  0.27500000000E+03  0.00000000000E+00 0.  1.
    9000005    2    1    2  501    0 -0.14668246629E+02  0.42384031997E+02 -0.49228039969E+02  0.46213597544E+03  0.45731247113E+03 0.  0.
         13    1    3    3    0    0 -0.13378608520E+03 -0.15824847214E+03 -0.88848422234E+02  0.22546693252E+03  0.00000000000E+00 0.  1.
          1    1    3    3  501    0  0.11911783857E+03  0.20063250414E+03  0.39620382265E+02  0.23666904291E+03  0.00000000000E+00 0.  1.
         21    1    1    2  502  501  0.14668246629E+02 -0.42384031997E+02  0.67142629804E+01  0.45350247573E+02  0.00000000000E+00 0. -1.
<scales pt_clust_4="550.00000" pt_clust_5="550.00000" pt_clust_6="44.85046"></scales>
<mgrwt>
<rscale>  0 0.30000000E+03</rscale>
<asrwt>  1 0.44850458E+02</asrwt>
<pdfrwt beam="1">  1        1 0.84540445E+00 0.30000000E+03</pdfrwt>
<pdfrwt beam="2">0</pdfrwt>
<totfact> 0.42828446E-04</totfact>
</mgrwt>
<clustering>
<clus scale="   44.850">  1  6  2 -1</clus>
<clus scale="  457.312">  4  5 -1 -1</clus>
<clus scale="  300.000">  1  4  2 -1</clus>
</clustering>
</event>
<event>
 6    1  0.9687246E-012  0.3000000E+03  0.7818608E-02  0.1093470E+00
          1   -1    0    0  502    0  0.00000000000E+00  0.00000000000E+00  0.23879706202E+03  0.23879706202E+03  0.00000000000E+00 0.  1.
         13   -1    0    0    0    0 -0.00000000000E+00 -0.00000000000E+00 -0.27500000000E+03  0.27500000000E+03  0.00000000000E+00 0.  1.
    9000005    2    1    2  501    0 -0.28988427609E+02  0.15989003912E+02 -0.43401288874E+02  0.47991796172E+03  0.47680352445E+03 0.  0.
         13    1    3    3    0    0  0.14702797981E+03 -0.16714825813E+03 -0.24268304073E+01  0.22262447428E+03  0.00000000000E+00 0.  1.
          3    1    3    3  501    0 -0.17601640742E+03  0.18313726204E+03 -0.40974458467E+02  0.25729348744E+03  0.00000000000E+00 0.  1.
         21    1    1    2  502  501  0.28988427609E+02 -0.15989003912E+02  0.71983508899E+01  0.33879100296E+02  0.00000000000E+00 0. -1.
<scales pt_clust_4="550.00000" pt_clust_5="550.00000" pt_clust_6="33.10555"></scales>
<mgrwt>
<rscale>  0 0.30000000E+03</rscale>
<asrwt>  1 0.33105546E+02</asrwt>
<pdfrwt beam="1">  1        1 0.86835295E+00 0.30000000E+03</pdfrwt>
<pdfrwt beam="2">0</pdfrwt>
<totfact> 0.26608907E-04</totfact>
</mgrwt>
<clustering>
<clus scale="   33.106">  1  6  2 -1</clus>
<clus scale="  476.804">  4  5 -1 -1</clus>
<clus scale="  300.000">  1  4  2 -1</clus>
</clustering>
</event>
<event>
 6    1  0.9687246E-012  0.3000000E+03  0.7818608E-02  0.1093470E+00
          1   -1    0    0  502    0  0.00000000000E+00  0.00000000000E+00  0.23028689083E+03  0.23028689083E+03  0.00000000000E+00 0.  1.
         13   -1    0    0    0    0 -0.00000000000E+00 -0.00000000000E+00 -0.27500000000E+03  0.27500000000E+03  0.00000000000E+00 0.  1.
    9000005    2    1    2  501    0  0.31625177647E+01 -0.32444551103E+02 -0.53338825882E+02  0.47156666836E+03  0.46740500847E+03 0.  0.
         13    1    3    3    0    0  0.27944603095E+02  0.59804769450E+02  0.19479838102E+03  0.20567916895E+03  0.00000000000E+00 0.  1.
          3    1    3    3  501    0 -0.24782085330E+02 -0.92249320553E+02 -0.24813720690E+03  0.26588749941E+03  0.00000000000E+00 0.  1.
         21    1    1    2  502  501 -0.31625177647E+01  0.32444551103E+02  0.86257167157E+01  0.33720222475E+02  0.00000000000E+00 0.  1.
<scales pt_clust_4="550.00000" pt_clust_5="550.00000" pt_clust_6="32.59832"></scales>
<mgrwt>
<rscale>  0 0.30000000E+03</rscale>
<asrwt>  1 0.32598319E+02</asrwt>
<pdfrwt beam="1">  1        1 0.83740688E+00 0.30000000E+03</pdfrwt>
<pdfrwt beam="2">0</pdfrwt>
<totfact> 0.52663544E-04</totfact>
</mgrwt>
<clustering>
<clus scale="   32.598">  1  6  2 -1</clus>
<clus scale="  467.405">  4  5 -1 -1</clus>
<clus scale="  300.000">  1  4  2 -1</clus>
</clustering>
</event>
<event>
 6    1  0.9687246E-012  0.3000000E+03  0.7818608E-02  0.1093470E+00
          1   -1    0    0  502    0  0.00000000000E+00  0.00000000000E+00  0.25923124664E+03  0.25923124664E+03  0.00000000000E+00 0.  1.
         13   -1    0    0    0    0 -0.00000000000E+00 -0.00000000000E+00 -0.27500000000E+03  0.27500000000E+03  0.00000000000E+00 0.  1.
    9000005    2    1    2  501    0  0.23640305757E+02  0.23559844990E+02 -0.53580304052E+02  0.48379669779E+03  0.47966078165E+03 0.  0.
         13    1    3    3    0    0 -0.57545965318E+01  0.14263487222E+02  0.21394684465E+03  0.21449898551E+03  0.00000000000E+00 0.  1.
          1    1    3    3  501    0  0.29394902289E+02  0.92963577682E+01 -0.26752714870E+03  0.26929771228E+03  0.00000000000E+00 0.  1.
         21    1    1    2  502  501 -0.23640305757E+02 -0.23559844990E+02  0.37811550694E+02  0.50434548854E+02  0.00000000000E+00 0. -1.
<scales pt_clust_4="550.00000" pt_clust_5="550.00000" pt_clust_6="33.37560"></scales>
<mgrwt>
<rscale>  0 0.30000000E+03</rscale>
<asrwt>  1 0.33375595E+02</asrwt>
<pdfrwt beam="1">  1        1 0.94265908E+00 0.30000000E+03</pdfrwt>
<pdfrwt beam="2">0</pdfrwt>
<totfact> 0.17358691E-05</totfact>
</mgrwt>
<clustering>
<clus scale="   33.376">  1  6  2 -1</clus>
<clus scale="  479.661">  4  5 -1 -1</clus>
<clus scale="  300.000">  1  4  2 -1</clus>
</clustering>
</event>
<event>
 6    1  0.9687246E-012  0.3000000E+03  0.7818608E-02  0.1093470E+00
          1   -1    0    0  502    0  0.00000000000E+00  0.00000000000E+00  0.23568294010E+03  0.23568294010E+03  0.00000000000E+00 0.  1.
         13   -1    0    0    0    0 -0.00000000000E+00 -0.00000000000E+00 -0.27500000000E+03  0.27500000000E+03  0.00000000000E+00 0.  1.
    9000005    2    1    2  501    0  0.32540063487E+02 -0.10956558982E+02 -0.91850786313E+01  0.46500101576E+03  0.46364067668E+03 0.  0.
         13    1    3    3    0    0  0.73035114403E+02 -0.90780684208E+01 -0.22948735248E+03  0.24099996724E+03  0.00000000000E+00 0.  1.
          3    1    3    3  501    0 -0.40495050915E+02 -0.18784905608E+01  0.22030227385E+03  0.22400104852E+03  0.00000000000E+00 0.  1.
         21    1    1    2  502  501 -0.32540063487E+02  0.10956558982E+02 -0.30131981265E+02  0.45681924340E+02  0.00000000000E+00 0.  1.
<scales pt_clust_4="550.00000" pt_clust_5="550.00000" pt_clust_6="34.33516"></scales>
<mgrwt>
<rscale>  0 0.30000000E+03</rscale>
<asrwt>  1 0.34335158E+02</asrwt>
<pdfrwt beam="1">  1        1 0.85702887E+00 0.30000000E+03</pdfrwt>
<pdfrwt beam="2">0</pdfrwt>
<totfact> 0.34878766E-04</totfact>
</mgrwt>
<clustering>
<clus scale="   34.335">  1  6  2 -1</clus>
<clus scale="  463.641">  4  5 -1 -1</clus>
<clus scale="  300.000">  1  4  2 -1</clus>
</clustering>
</event>
<event>
 6    1  0.9687246E-012  0.3000000E+03  0.7818608E-02  0.1093470E+00
          1   -1    0    0  502    0  0.00000000000E+00  0.00000000000E+00  0.23771370661E+03  0.23771370661E+03  0.00000000000E+00 0.  1.
         13   -1    0    0    0    0 -0.00000000000E+00 -0.00000000000E+00 -0.27500000000E+03  0.27500000000E+03  0.00000000000E+00 0.  1.
    9000005    2    1    2  501    0  0.15216253206E+02 -0.37805182026E+02 -0.36645274228E+02  0.47195616675E+03  0.46876324628E+03 0.  0.
         13    1    3    3    0    0  0.11981211177E+03 -0.11042769325E+03  0.16601260590E+03  0.23261427919E+03  0.00000000000E+00 0.  1.
          3    1    3    3  501    0 -0.10459585857E+03  0.72622511229E+02 -0.20265788012E+03  0.23934188756E+03  0.00000000000E+00 0.  1.
         21    1    1    2  502  501 -0.15216253206E+02  0.37805182026E+02 -0.64101916519E+00  0.40757539857E+02  0.00000000000E+00 0.  1.
<scales pt_clust_4="550.00000" pt_clust_5="550.00000" pt_clust_6="40.75250"></scales>
<mgrwt>
<rscale>  0 0.30000000E+03</rscale>
<asrwt>  1 0.40752499E+02</asrwt>
<pdfrwt beam="1">  1        1 0.86441348E+00 0.30000000E+03</pdfrwt>
<pdfrwt beam="2">0</pdfrwt>
<totfact> 0.28186801E-04</totfact>
</mgrwt>
<clustering>
<clus scale="   40.752">  1  6  2 -1</clus>
<clus scale="  468.763">  4  5 -1 -1</clus>
<clus scale="  300.000">  1  4  2 -1</clus>
</clustering>
</event>
<event>
 6    1  0.9687246E-012  0.3000000E+03  0.7818608E-02  0.1093470E+00
          1   -1    0    0  502    0  0.00000000000E+00  0.00000000000E+00  0.23828160267E+03  0.23828160267E+03  0.00000000000E+00 0.  1.
         13   -1    0    0    0    0 -0.00000000000E+00 -0.00000000000E+00 -0.27500000000E+03  0.27500000000E+03  0.00000000000E+00 0.  1.
    9000005    2    1    2  501    0 -0.10485107884E+02  0.41302731150E+02 -0.47040246881E+02  0.46943649273E+03  0.46512577094E+03 0.  0.
         13    1    3    3    0    0 -0.99157666317E+02 -0.64241422494E+02 -0.21912465089E+03  0.24894741569E+03  0.00000000000E+00 0.  1.
          3    1    3    3  501    0  0.88672558434E+02  0.10554415364E+03  0.17208440401E+03  0.22048907703E+03  0.00000000000E+00 0.  1.
         21    1    1    2  502  501  0.10485107884E+02 -0.41302731150E+02  0.10321849551E+02  0.43845109944E+02  0.00000000000E+00 0. -1.
<scales pt_clust_4="550.00000" pt_clust_5="550.00000" pt_clust_6="42.61283"></scales>
<mgrwt>
<rscale>  0 0.30000000E+03</rscale>
<asrwt>  1 0.42612828E+02</asrwt>
<pdfrwt beam="1">  1        1 0.86647856E+00 0.30000000E+03</pdfrwt>
<pdfrwt beam="2">0</pdfrwt>
<totfact> 0.26570749E-04</totfact>
</mgrwt>
<clustering>
<clus scale="   42.613">  1  6  2 -1</clus>
<clus scale="  465.126">  4  5 -1 -1</clus>
<clus scale="  300.000">  1  4  2 -1</clus>
</clustering>
</event>
<event>
 6    1  0.9687246E-012  0.3000000E+03  0.7818608E-02  0.1093470E+00
          1   -1    0    0  502    0  0.00000000000E+00  0.00000000000E+00  0.24512007321E+03  0.24512007321E+03  0.00000000000E+00 0.  1.
         13   -1    0    0    0    0 -0.00000000000E+00 -0.00000000000E+00 -0.27500000000E+03  0.27500000000E+03  0.00000000000E+00 0.  1.
    9000005    2    1    2  501    0 -0.30214147379E+02 -0.82684800437E+01 -0.46972015724E+02  0.48443531500E+03  0.48113401636E+03 0.  0.
         13    1    3    3    0    0 -0.68153434358E+02 -0.23346758209E+03  0.26218752823E+02  0.24462098336E+03  0.00000000000E+00 0.  1.
          1    1    3    3  501    0  0.37939286980E+02  0.22519910205E+03 -0.73190768548E+02  0.23981433164E+03  0.00000000000E+00 0.  1.
         21    1    1    2  502  501  0.30214147379E+02  0.82684800437E+01  0.17092088931E+02  0.35684758204E+02  0.00000000000E+00 0.  1.
<scales pt_clust_4="550.00000" pt_clust_5="550.00000" pt_clust_6="31.32511"></scales>
<mgrwt>
<rscale>  0 0.30000000E+03</rscale>
<asrwt>  1 0.31325109E+02</asrwt>
<pdfrwt beam="1">  1        1 0.89134572E+00 0.30000000E+03</pdfrwt>
<pdfrwt beam="2">0</pdfrwt>
<totfact> 0.14218487E-04</totfact>
</mgrwt>
<clustering>
<clus scale="   31.325">  1  6  2 -1</clus>
<clus scale="  481.134">  4  5 -1 -1</clus>
<clus scale="  300.000">  1  4  2 -1</clus>
</clustering>
</event>
<event>
 6    1  0.9687246E-012  0.3000000E+03  0.7818608E-02  0.1093470E+00
          1   -1    0    0  502    0  0.00000000000E+00  0.00000000000E+00  0.25826152116E+03  0.25826152116E+03  0.00000000000E+00 0.  1.
         13   -1    0    0    0    0 -0.00000000000E+00 -0.00000000000E+00 -0.27500000000E+03  0.27500000000E+03  0.00000000000E+00 0.  1.
    9000005    2    1    2  501    0 -0.14277430313E+02 -0.31495332809E+02 -0.29845871909E+02  0.49628038058E+03  0.49417369323E+03 0.  0.
         13    1    3    3    0    0  0.23555970857E+03 -0.57645857527E+02 -0.35013467019E+02  0.24502523149E+03  0.00000000000E+00 0.  1.
          1    1    3    3  501    0 -0.24983713888E+03  0.26150524718E+02  0.51675951107E+01  0.25125514910E+03  0.00000000000E+00 0.  1.
         21    1    1    2  502  501  0.14277430313E+02  0.31495332809E+02  0.13107393065E+02  0.36981140573E+02  0.00000000000E+00 0. -1.
<scales pt_clust_4="550.00000" pt_clust_5="550.00000" pt_clust_6="34.58036"></scales>
<mgrwt>
<rscale>  0 0.30000000E+03</rscale>
<asrwt>  1 0.34580356E+02</asrwt>
<pdfrwt beam="1">  1        1 0.93913280E+00 0.30000000E+03</pdfrwt>
<pdfrwt beam="2">0</pdfrwt>
<totfact> 0.19849120E-05</totfact>
</mgrwt>
<clustering>
<clus scale="   34.580">  1  6  2 -1</clus>
<clus scale="  494.174">  4  5 -1 -1</clus>
<clus scale="  300.000">  1  4  2 -1</clus>
</clustering>
</event>
<event>
 6    1  0.9687246E-012  0.3000000E+03  0.7818608E-02  0.1093470E+00
          1   -1    0    0  502    0  0.00000000000E+00  0.00000000000E+00  0.24179018486E+03  0.24179018486E+03  0.00000000000E+00 0.  1.
         13   -1    0    0    0    0 -0.00000000000E+00 -0.00000000000E+00 -0.27500000000E+03  0.27500000000E+03  0.00000000000E+00 0.  1.
    9000005    2    1    2  501    0 -0.29898767096E+02  0.92208242556E+01 -0.75095210552E+02  0.46450877112E+03  0.45732936482E+03 0.  0.
         13    1    3    3    0    0  0.53964321748E+02 -0.66751386199E+01 -0.25746922240E+03  0.26314844856E+03  0.00000000000E+00 0.  1.
          1    1    3    3  501    0 -0.83863088844E+02  0.15895962875E+02  0.18237401184E+03  0.20136032256E+03  0.00000000000E+00 0.  1.
         21    1    1    2  502  501  0.29898767096E+02 -0.92208242556E+01  0.41885395412E+02  0.52281413740E+02  0.00000000000E+00 0.  1.
<scales pt_clust_4="550.00000" pt_clust_5="550.00000" pt_clust_6="31.28833"></scales>
<mgrwt>
<rscale>  0 0.30000000E+03</rscale>
<asrwt>  1 0.31288334E+02</asrwt>
<pdfrwt beam="1">  1        1 0.87923704E+00 0.30000000E+03</pdfrwt>
<pdfrwt beam="2">0</pdfrwt>
<totfact> 0.20595982E-04</totfact>
</mgrwt>
<clustering>
<clus scale="   31.288">  1  6  2 -1</clus>
<clus scale="  457.329">  4  5 -1 -1</clus>
<clus scale="  300.000">  1  4  2 -1</clus>
</clustering>
</event>
<event>
 6    1  0.9687246E-012  0.3000000E+03  0.7818608E-02  0.1093470E+00
          1   -1    0    0  502    0  0.00000000000E+00  0.00000000000E+00  0.22875798666E+03  0.22875798666E+03  0.00000000000E+00 0.  1.
         13   -1    0    0    0    0 -0.00000000000E+00 -0.00000000000E+00 -0.27500000000E+03  0.27500000000E+03  0.00000000000E+00 0.  1.
    9000005    2    1    2  501    0  0.28411168538E+02  0.11793471636E+02 -0.61101600036E+02  0.46959532008E+03  0.46458592171E+03 0.  0.
         13    1    3    3    0    0 -0.13939636656E+02 -0.30840621087E+02 -0.25980678417E+03  0.26200195129E+03  0.00000000000E+00 0.  1.
          1    1    3    3  501    0  0.42350805194E+02  0.42634092723E+02  0.19870518414E+03  0.20759336879E+03  0.00000000000E+00 0.  1.
         21    1    1    2  502  501 -0.28411168538E+02 -0.11793471636E+02  0.14859586701E+02  0.34162666580E+02  0.00000000000E+00 0. -1.
<scales pt_clust_4="550.00000" pt_clust_5="550.00000" pt_clust_6="30.76167"></scales>
<mgrwt>
<rscale>  0 0.30000000E+03</rscale>
<asrwt>  1 0.30761672E+02</asrwt>
<pdfrwt beam="1">  1        1 0.83184722E+00 0.30000000E+03</pdfrwt>
<pdfrwt beam="2">0</pdfrwt>
<totfact> 0.58537179E-04</totfact>
</mgrwt>
<clustering>
<clus scale="   30.762">  1  6  2 -1</clus>
<clus scale="  464.586">  4  5 -1 -1</clus>
<clus scale="  300.000">  1  4  2 -1</clus>
</clustering>
</event>
<event>
 6    1  0.9687246E-012  0.3000000E+03  0.7818608E-02  0.1093470E+00
          1   -1    0    0  502    0  0.00000000000E+00  0.00000000000E+00  0.26522084276E+03  0.26522084276E+03  0.00000000000E+00 0.  1.
         13   -1    0    0    0    0 -0.00000000000E+00 -0.00000000000E+00 -0.27500000000E+03  0.27500000000E+03  0.00000000000E+00 0.  1.
    9000005    2    1    2  501    0  0.24107911517E+02  0.23014518814E+02 -0.39764523958E+02  0.49538802341E+03  0.49266339106E+03 0.  0.
         13    1    3    3    0    0 -0.51004840258E+02 -0.56136838365E+02 -0.24851860455E+03  0.25983520770E+03  0.00000000000E+00 0.  1.
          1    1    3    3  501    0  0.75112751776E+02  0.79151357179E+02  0.20875408059E+03  0.23555281571E+03  0.00000000000E+00 0.  1.
         21    1    1    2  502  501 -0.24107911517E+02 -0.23014518814E+02  0.29985366716E+02  0.44832819352E+02  0.00000000000E+00 0. -1.
<scales pt_clust_4="550.00000" pt_clust_5="550.00000" pt_clust_6="33.32956"></scales>
<mgrwt>
<rscale>  0 0.30000000E+03</rscale>
<asrwt>  1 0.33329559E+02</asrwt>
<pdfrwt beam="1">  1        1 0.96443943E+00 0.30000000E+03</pdfrwt>
<pdfrwt beam="2">0</pdfrwt>
<totfact> 0.61608124E-06</totfact>
</mgrwt>
<clustering>
<clus scale="   33.330">  1  6  2 -1</clus>
<clus scale="  492.663">  4  5 -1 -1</clus>
<clus scale="  300.000">  1  4  2 -1</clus>
</clustering>
</event>
<event>
 6    1  0.9687246E-012  0.3000000E+03  0.7818608E-02  0.1093470E+00
          1   -1    0    0  502    0  0.00000000000E+00  0.00000000000E+00  0.26349887425E+03  0.26349887425E+03  0.00000000000E+00 0.  1.
         13   -1    0    0    0    0 -0.00000000000E+00 -0.00000000000E+00 -0.27500000000E+03  0.27500000000E+03  0.00000000000E+00 0.  1.
    9000005    2    1    2  501    0  0.32745634049E+02 -0.30027451355E+02 -0.59542613060E+02  0.47306257784E+03  0.46719263201E+03 0.  0.
         13    1    3    3    0    0  0.20216720126E+03  0.12593631715E+03 -0.44396253123E+02  0.24228611296E+03  0.00000000000E+00 0.  1.
          3    1    3    3  501    0 -0.16942156722E+03 -0.15596376850E+03 -0.15146359937E+02  0.23077646488E+03  0.00000000000E+00 0.  1.
         21    1    1    2  502  501 -0.32745634049E+02  0.30027451355E+02  0.48041487305E+02  0.65436296401E+02  0.00000000000E+00 0.  1.
<scales pt_clust_4="550.00000" pt_clust_5="550.00000" pt_clust_6="44.42887"></scales>
<mgrwt>
<rscale>  0 0.30000000E+03</rscale>
<asrwt>  1 0.44428869E+02</asrwt>
<pdfrwt beam="1">  1        1 0.95817772E+00 0.30000000E+03</pdfrwt>
<pdfrwt beam="2">0</pdfrwt>
<totfact> 0.79476803E-06</totfact>
</mgrwt>
<clustering>
<clus scale="   44.429">  1  6  2 -1</clus>
<clus scale="  467.193">  4  5 -1 -1</clus>
<clus scale="  300.000">  1  4  2 -1</clus>
</clustering>
</event>
<event>
 6    1  0.9687246E-012  0.3000000E+03  0.7818608E-02  0.1093470E+00
          1   -1    0    0  502    0  0.00000000000E+00  0.00000000000E+00  0.23327952370E+03  0.23327952370E+03  0.00000000000E+00 0.  1.
         13   -1    0    0    0    0 -0.00000000000E+00 -0.00000000000E+00 -0.27500000000E+03  0.27500000000E+03  0.00000000000E+00 0.  1.
    9000005    2    1    2  501    0  0.30151209750E+02  0.32778029373E+02 -0.49727673274E+02  0.46302900036E+03  0.45819157459E+03 0.  0.
         13    1    3    3    0    0  0.21644730668E+02 -0.21130955042E+03  0.60646909644E+01  0.21250176691E+03  0.00000000000E+00 0.  1.
          1    1    3    3  501    0  0.85064790827E+01  0.24408757979E+03 -0.55792364238E+02  0.25052723345E+03  0.00000000000E+00 0.  1.
         21    1    1    2  502  501 -0.30151209750E+02 -0.32778029373E+02  0.80071969743E+01  0.45250523338E+02  0.00000000000E+00 0. -1.
<scales pt_clust_4="550.00000" pt_clust_5="550.00000" pt_clust_6="44.53644"></scales>
<mgrwt>
<rscale>  0 0.30000000E+03</rscale>
<asrwt>  1 0.44536442E+02</asrwt>
<pdfrwt beam="1">  1        1 0.84828918E+00 0.30000000E+03</pdfrwt>
<pdfrwt beam="2">0</pdfrwt>
<totfact> 0.40394610E-04</totfact>
</mgrwt>
<clustering>
<clus scale="   44.536">  1  6  2 -1</clus>
<clus scale="  458.192">  4  5 -1 -1</clus>
<clus scale="  300.000">  1  4  2 -1</clus>
</clustering>
</event>
<event>
 6    1  0.9687246E-012  0.3000000E+03  0.7818608E-02  0.1093470E+00
          1   -1    0    0  502    0  0.00000000000E+00  0.00000000000E+00  0.22516163122E+03  0.22516163122E+03  0.00000000000E+00 0.  1.
         13   -1    0    0    0    0 -0.00000000000E+00 -0.00000000000E+00 -0.27500000000E+03  0.27500000000E+03  0.00000000000E+00 0.  1.
    9000005    2    1    2  501    0  0.32439954341E+02  0.35618952722E+01 -0.51706228343E+02  0.46747330555E+03  0.46345735469E+03 0.  0.
         13    1    3    3    0    0  0.50587750239E+02 -0.38360016264E+02  0.20093977689E+03  0.21073064622E+03  0.00000000000E+00 0.  1.
          1    1    3    3  501    0 -0.18147795898E+02  0.41921911536E+02 -0.25264600523E+03  0.25674265933E+03  0.00000000000E+00 0.  1.
         21    1    1    2  502  501 -0.32439954341E+02 -0.35618952722E+01  0.18678595647E+01  0.32688325667E+02  0.00000000000E+00 0.  1.
<scales pt_clust_4="550.00000" pt_clust_5="550.00000" pt_clust_6="32.63492"></scales>
<mgrwt>
<rscale>  0 0.30000000E+03</rscale>
<asrwt>  1 0.32634916E+02</asrwt>
<pdfrwt beam="1">  1        1 0.81876957E+00 0.30000000E+03</pdfrwt>
<pdfrwt beam="2">0</pdfrwt>
<totfact> 0.75090131E-04</totfact>
</mgrwt>
<clustering>
<clus scale="   32.635">  1  6  2 -1</clus>
<clus scale="  463.457">  4  5 -1 -1</clus>
<clus scale="  300.000">  1  4  2 -1</clus>
</clustering>
</event>
<event>
 6    1  0.9687246E-012  0.3000000E+03  0.7818608E-02  0.1093470E+00
          1   -1    0    0  502    0  0.00000000000E+00  0.00000000000E+00  0.22689801558E+03  0.22689801558E+03  0.00000000000E+00 0.  1.
         13   -1    0    0    0    0 -0.00000000000E+00 -0.00000000000E+00 -0.27500000000E+03  0.27500000000E+03  0.00000000000E+00 0.  1.
    9000005    2    1    2  501    0 -0.33485513800E+02  0.10061250220E+02 -0.48463422656E+02  0.46693176002E+03  0.46309184487E+03 0.  0.
         13    1    3    3    0    0 -0.17226100265E+03 -0.12408185165E+03  0.88767541064E+02  0.23010831209E+03  0.00000000000E+00 0.  1.
          3    1    3    3  501    0  0.13877548885E+03  0.13414310187E+03 -0.13723096372E+03  0.23682344793E+03  0.00000000000E+00 0.  1.
         21    1    1    2  502  501  0.33485513800E+02 -0.10061250220E+02  0.36143823522E+00  0.34966255562E+02  0.00000000000E+00 0.  1.
<scales pt_clust_4="550.00000" pt_clust_5="550.00000" pt_clust_6="34.96439"></scales>
<mgrwt>
<rscale>  0 0.30000000E+03</rscale>
<asrwt>  1 0.34964387E+02</asrwt>
<pdfrwt beam="1">  1        1 0.82508369E+00 0.30000000E+03</pdfrwt>
<pdfrwt beam="2">0</pdfrwt>
<totfact> 0.65217436E-04</totfact>
</mgrwt>
<clustering>
<clus scale="   34.964">  1  6  2 -1</clus>
<clus scale="  463.092">  4  5 -1 -1</clus>
<clus scale="  300.000">  1  4  2 -1</clus>
</clustering>
</event>
<event>
 6    1  0.9687246E-012  0.3000000E+03  0.7818608E-02  0.1093470E+00
          1   -1    0    0  502    0  0.00000000000E+00  0.00000000000E+00  0.24721694079E+03  0.24721694079E+03  0.00000000000E+00 0.  1.
         13   -1    0    0    0    0 -0.00000000000E+00 -0.00000000000E+00 -0.27500000000E+03  0.27500000000E+03  0.00000000000E+00 0.  1.
    9000005    2    1    2  501    0 -0.25454742779E+02 -0.17161336822E+02 -0.45481493743E+02  0.48678122440E+03  0.48367854898E+03 0.  0.
         13    1    3    3    0    0 -0.20591579255E+03  0.13110371702E+03  0.17936487404E+02  0.24476767724E+03  0.00000000000E+00 0.  1.
          1    1    3    3  501    0  0.18046104977E+03 -0.14826505385E+03 -0.63417981147E+02  0.24201354716E+03  0.00000000000E+00 0.  1.
         21    1    1    2  502  501  0.25454742779E+02  0.17161336822E+02  0.17698434532E+02  0.35435716393E+02  0.00000000000E+00 0.  1.
<scales pt_clust_4="550.00000" pt_clust_5="550.00000" pt_clust_6="30.69944"></scales>
<mgrwt>
<rscale>  0 0.30000000E+03</rscale>
<asrwt>  1 0.30699437E+02</asrwt>
<pdfrwt beam="1">  1        1 0.89897069E+00 0.30000000E+03</pdfrwt>
<pdfrwt beam="2">0</pdfrwt>
<totfact> 0.11654139E-04</totfact>
</mgrwt>
<clustering>
<clus scale="   30.699">  1  6  2 -1</clus>
<clus scale="  483.679">  4  5 -1 -1</clus>
<clus scale="  300.000">  1  4  2 -1</clus>
</clustering>
</event>
<event>
 6    1  0.9687246E-012  0.3000000E+03  0.7818608E-02  0.1093470E+00
          1   -1    0    0  502    0  0.00000000000E+00  0.00000000000E+00  0.23233123014E+03  0.23233123014E+03  0.00000000000E+00 0.  1.
         13   -1    0    0    0    0 -0.00000000000E+00 -0.00000000000E+00 -0.27500000000E+03  0.27500000000E+03  0.00000000000E+00 0.  1.
    9000005    2    1    2  501    0  0.35444820738E+02  0.13424889807E+02 -0.54919032614E+02  0.46749868163E+03  0.46271195597E+03 0.  0.
         13    1    3    3    0    0  0.19250058949E+03 -0.93585864948E+02 -0.14362874905E+03  0.25776735368E+03  0.00000000000E+00 0.  1.
          3    1    3    3  501    0 -0.15705576875E+03  0.10701075475E+03  0.88709716432E+02  0.20973132794E+03  0.00000000000E+00 0.  1.
         21    1    1    2  502  501 -0.35444820738E+02 -0.13424889807E+02  0.12250262753E+02  0.39832548512E+02  0.00000000000E+00 0.  1.
<scales pt_clust_4="550.00000" pt_clust_5="550.00000" pt_clust_6="37.90202"></scales>
<mgrwt>
<rscale>  0 0.30000000E+03</rscale>
<asrwt>  1 0.37902018E+02</asrwt>
<pdfrwt beam="1">  1        1 0.84484084E+00 0.30000000E+03</pdfrwt>
<pdfrwt beam="2">0</pdfrwt>
<totfact> 0.44661600E-04</totfact>
</mgrwt>
<clustering>
<clus scale="   37.902">  1  6  2 -1</clus>
<clus scale="  462.712">  4  5 -1 -1</clus>
<clus scale="  300.000">  1  4  2 -1</clus>
</clustering>
</event>
<event>
 6    1  0.9687246E-012  0.3000000E+03  0.7818608E-02  0.1093470E+00
          1   -1    0    0  502    0  0.00000000000E+00  0.00000000000E+00  0.22167009328E+03  0.22167009328E+03  0.00000000000E+00 0.  1.
         13   -1    0    0    0    0 -0.00000000000E+00 -0.00000000000E+00 -0.27500000000E+03  0.27500000000E+03  0.00000000000E+00 0.  1.
    9000005    2    1    2  501    0 -0.27194831631E+02  0.19605767744E+02 -0.52538070872E+02  0.46313545447E+03  0.45892292958E+03 0.  0.
         13    1    3    3    0    0 -0.17408572392E+03  0.38199464008E+02  0.13543833203E+03  0.22384945858E+03  0.00000000000E+00 0.  1.
          1    1    3    3  501    0  0.14689089229E+03 -0.18593696264E+02 -0.18797640290E+03  0.23928599589E+03  0.00000000000E+00 0.  1.
         21    1    1    2  502  501  0.27194831631E+02 -0.19605767744E+02 -0.79183584758E+00  0.33534638812E+02  0.00000000000E+00 0. -1.
<scales pt_clust_4="550.00000" pt_clust_5="550.00000" pt_clust_6="33.52529"></scales>
<mgrwt>
<rscale>  0 0.30000000E+03</rscale>
<asrwt>  1 0.33525289E+02</asrwt>
<pdfrwt beam="1">  1        1 0.80607307E+00 0.30000000E+03</pdfrwt>
<pdfrwt beam="2">0</pdfrwt>
<totfact> 0.94276359E-04</totfact>
</mgrwt>
<clustering>
<clus scale="   33.525">  1  6  2 -1</clus>
<clus scale="  458.923">  4  5 -1 -1</clus>
<clus scale="  300.000">  1  4  2 -1</clus>
</clustering>
</event>
<event>
 6    1  0.9687246E-012  0.3000000E+03  0.7818608E-02  0.1093470E+00
          1   -1    0    0  502    0  0.00000000000E+00  0.00000000000E+00  0.22797920976E+03  0.22797920976E+03  0.00000000000E+00 0.  1.
         13   -1    0    0    0    0 -0.00000000000E+00 -0.00000000000E+00 -0.27500000000E+03  0.27500000000E+03  0.00000000000E+00 0.  1.
    9000005    2    1    2  501    0  0.34241886987E+00 -0.37515324931E+02 -0.59367601896E+02  0.46348287305E+03  0.45813136173E+03 0.  0.
         13    1    3    3    0    0 -0.21392793455E+02  0.71388403882E+02  0.18261414823E+03  0.19723560265E+03  0.00000000000E+00 0.  1.
          3    1    3    3  501    0  0.21735212325E+02 -0.10890372881E+03 -0.24198175012E+03  0.26624727040E+03  0.00000000000E+00 0.  1.
         21    1    1    2  502  501 -0.34241886987E+00  0.37515324931E+02  0.12346811661E+02  0.39496336711E+02  0.00000000000E+00 0.  1.
<scales pt_clust_4="550.00000" pt_clust_5="550.00000" pt_clust_6="37.51689"></scales>
<mgrwt>
<rscale>  0 0.30000000E+03</rscale>
<asrwt>  1 0.37516888E+02</asrwt>
<pdfrwt beam="1">  1        1 0.82901531E+00 0.30000000E+03</pdfrwt>
<pdfrwt beam="2">0</pdfrwt>
<totfact> 0.59461945E-04</totfact>
</mgrwt>
<clustering>
<clus scale="   37.517">  1  6  2 -1</clus>
<clus scale="  458.131">  4  5 -1 -1</clus>
<clus scale="  300.000">  1  4  2 -1</clus>
</clustering>
</event>
<event>
 6    1  0.9687246E-012  0.3000000E+03  0.7818608E-02  0.1093470E+00
          1   -1    0    0  502    0  0.00000000000E+00  0.00000000000E+00  0.23982808080E+03  0.23982808080E+03  0.00000000000E+00 0.  1.
         13   -1    0    0    0    0 -0.00000000000E+00 -0.00000000000E+00 -0.27500000000E+03  0.27500000000E+03  0.00000000000E+00 0.  1.
    9000005    2    1    2  501    0  0.25698040843E+01  0.31423442691E+02 -0.74212848781E+02  0.46464610369E+03  0.45759634845E+03 0.  0.
         13    1    3    3    0    0  0.81319877777E+02 -0.16424732037E+03  0.83380090129E+02  0.20135129551E+03  0.00000000000E+00 0.  1.
          3    1    3    3  501    0 -0.78750073693E+02  0.19567076307E+03 -0.15759293891E+03  0.26329480819E+03  0.00000000000E+00 0.  1.
         21    1    1    2  502  501 -0.25698040843E+01 -0.31423442691E+02  0.39040929579E+02  0.50181977103E+02  0.00000000000E+00 0.  1.
<scales pt_clust_4="550.00000" pt_clust_5="550.00000" pt_clust_6="31.52835"></scales>
<mgrwt>
<rscale>  0 0.30000000E+03</rscale>
<asrwt>  1 0.31528347E+02</asrwt>
<pdfrwt beam="1">  1        1 0.87210211E+00 0.30000000E+03</pdfrwt>
<pdfrwt beam="2">0</pdfrwt>
<totfact> 0.24583990E-04</totfact>
</mgrwt>
<clustering>
<clus scale="   31.528">  1  6  2 -1</clus>
<clus scale="  457.596">  4  5 -1 -1</clus>
<clus scale="  300.000">  1  4  2 -1</clus>
</clustering>
</event>
<event>
 6    1  0.9687246E-012  0.3000000E+03  0.7818608E-02  0.1093470E+00
          1   -1    0    0  502    0  0.00000000000E+00  0.00000000000E+00  0.23292090730E+03  0.23292090730E+03  0.00000000000E+00 0.  1.
         13   -1    0    0    0    0 -0.00000000000E+00 -0.00000000000E+00 -0.27500000000E+03  0.27500000000E+03  0.00000000000E+00 0.  1.
    9000005    2    1    2  501    0  0.34884822983E+01 -0.30289071517E+02 -0.44748184152E+02  0.47731500246E+03  0.47423371266E+03 0.  0.
         13    1    3    3    0    0  0.44874397006E+02 -0.32453299909E+02  0.21104310798E+03  0.21818827101E+03  0.00000000000E+00 0.  1.
          3    1    3    3  501    0 -0.41385914708E+02  0.21642283919E+01 -0.25579129213E+03  0.25912673145E+03  0.00000000000E+00 0.  1.
         21    1    1    2  502  501 -0.34884822983E+01  0.30289071517E+02  0.26690914504E+01  0.30605904843E+02  0.00000000000E+00 0. -1.
<scales pt_clust_4="550.00000" pt_clust_5="550.00000" pt_clust_6="30.48930"></scales>
<mgrwt>
<rscale>  0 0.30000000E+03</rscale>
<asrwt>  1 0.30489299E+02</asrwt>
<pdfrwt beam="1">  1        1 0.84698512E+00 0.30000000E+03</pdfrwt>
<pdfrwt beam="2">0</pdfrwt>
<totfact> 0.44534232E-04</totfact>
</mgrwt>
<clustering>
<clus scale="   30.489">  1  6  2 -1</clus>
<clus scale="  474.234">  4  5 -1 -1</clus>
<clus scale="  300.000">  1  4  2 -1</clus>
</clustering>
</event>
<event>
 6    1  0.9687246E-012  0.3000000E+03  0.7818608E-02  0.1093470E+00
          1   -1    0    0  502    0  0.00000000000E+00  0.00000000000E+00  0.22756073941E+03  0.22756073941E+03  0.00000000000E+00 0.  1.
         13   -1    0    0    0    0 -0.00000000000E+00 -0.00000000000E+00 -0.27500000000E+03  0.27500000000E+03  0.00000000000E+00 0.  1.
    9000005    2    1    2  501    0 -0.12246552648E+02 -0.27478157068E+02 -0.56014555143E+02  0.47127875027E+03  0.46697002356E+03 0.  0.
         13    1    3    3    0    0  0.20128971921E+03 -0.10983115866E+03  0.19861346673E+02  0.23016278492E+03  0.00000000000E+00 0.  1.
          3    1    3    3  501    0 -0.21353627186E+03  0.82353001588E+02 -0.75875901816E+02  0.24111596535E+03  0.00000000000E+00 0.  1.
         21    1    1    2  502  501  0.12246552648E+02  0.27478157068E+02  0.85752945487E+01  0.31281989134E+02  0.00000000000E+00 0. -1.
<scales pt_clust_4="550.00000" pt_clust_5="550.00000" pt_clust_6="30.08367"></scales>
<mgrwt>
<rscale>  0 0.30000000E+03</rscale>
<asrwt>  1 0.30083669E+02</asrwt>
<pdfrwt beam="1">  1        1 0.82749360E+00 0.30000000E+03</pdfrwt>
<pdfrwt beam="2">0</pdfrwt>
<totfact> 0.63889762E-04</totfact>
</mgrwt>
<clustering>
<clus scale="   30.084">  1  6  2 -1</clus>
<clus scale="  466.970">  4  5 -1 -1</clus>
<clus scale="  300.000">  1  4  2 -1</clus>
</clustering>
</event>
<event>
 6    1  0.9687246E-012  0.3000000E+03  0.7818608E-02  0.1093470E+00
          1   -1    0    0  502    0  0.00000000000E+00  0.00000000000E+00  0.22547160028E+03  0.22547160028E+03  0.00000000000E+00 0.  1.
         13   -1    0    0    0    0 -0.00000000000E+00 -0.00000000000E+00 -0.27500000000E+03  0.27500000000E+03  0.00000000000E+00 0.  1.
    9000005    2    1    2  501    0  0.30014205388E+02  0.42952894829E+01 -0.68015606762E+02  0.46495992810E+03  0.45895785203E+03 0.  0.
         13    1    3    3    0    0 -0.10351168603E+03 -0.17297129133E+03 -0.12323532968E+03  0.23626401176E+03  0.00000000000E+00 0.  1.
          3    1    3    3  501    0  0.13352589142E+03  0.17726658081E+03  0.55219722921E+02  0.22869591634E+03  0.00000000000E+00 0.  1.
         21    1    1    2  502  501 -0.30014205388E+02 -0.42952894829E+01  0.18487207040E+02  0.35511672179E+02  0.00000000000E+00 0.  1.
<scales pt_clust_4="550.00000" pt_clust_5="550.00000" pt_clust_6="30.31999"></scales>
<mgrwt>
<rscale>  0 0.30000000E+03</rscale>
<asrwt>  1 0.30319994E+02</asrwt>
<pdfrwt beam="1">  1        1 0.81989673E+00 0.30000000E+03</pdfrwt>
<pdfrwt beam="2">0</pdfrwt>
<totfact> 0.74477462E-04</totfact>
</mgrwt>
<clustering>
<clus scale="   30.320">  1  6  2 -1</clus>
<clus scale="  458.958">  4  5 -1 -1</clus>
<clus scale="  300.000">  1  4  2 -1</clus>
</clustering>
</event>
<event>
 6    1  0.9687246E-012  0.3000000E+03  0.7818608E-02  0.1093470E+00
          1   -1    0    0  502    0  0.00000000000E+00  0.00000000000E+00  0.22731183654E+03  0.22731183654E+03  0.00000000000E+00 0.  1.
         13   -1    0    0    0    0 -0.00000000000E+00 -0.00000000000E+00 -0.27500000000E+03  0.27500000000E+03  0.00000000000E+00 0.  1.
    9000005    2    1    2  501    0  0.30218593252E+02  0.85963792630E+01 -0.66696742102E+02  0.46559144470E+03  0.45971717051E+03 0.  0.
         13    1    3    3    0    0 -0.75044316607E+02  0.22276219318E+02 -0.24548651306E+03  0.25766549535E+03  0.00000000000E+00 0.  1.
          3    1    3    3  501    0  0.10526290986E+03 -0.13679840055E+02  0.17878977095E+03  0.20792594935E+03  0.00000000000E+00 0.  1.
         21    1    1    2  502  501 -0.30218593252E+02 -0.85963792630E+01  0.19008578640E+02  0.36720391835E+02  0.00000000000E+00 0. -1.
<scales pt_clust_4="550.00000" pt_clust_5="550.00000" pt_clust_6="31.41753"></scales>
<mgrwt>
<rscale>  0 0.30000000E+03</rscale>
<asrwt>  1 0.31417529E+02</asrwt>
<pdfrwt beam="1">  1        1 0.82658850E+00 0.30000000E+03</pdfrwt>
<pdfrwt beam="2">0</pdfrwt>
<totfact> 0.64531247E-04</totfact>
</mgrwt>
<clustering>
<clus scale="   31.418">  1  6  2 -1</clus>
<clus scale="  459.717">  4  5 -1 -1</clus>
<clus scale="  300.000">  1  4  2 -1</clus>
</clustering>
</event>
<event>
 6    1  0.9687246E-012  0.3000000E+03  0.7818608E-02  0.1093470E+00
          1   -1    0    0  502    0  0.00000000000E+00  0.00000000000E+00  0.22956304928E+03  0.22956304928E+03  0.00000000000E+00 0.  1.
         13   -1    0    0    0    0 -0.00000000000E+00 -0.00000000000E+00 -0.27500000000E+03  0.27500000000E+03  0.00000000000E+00 0.  1.
    9000005    2    1    2  501    0 -0.41099889899E+02 -0.10438261689E+02 -0.37787554424E+02  0.46147393789E+03  0.45796521464E+03 0.  0.
         13    1    3    3    0    0  0.15410443759E+03  0.34931952140E+02  0.12643781324E+03  0.20237326796E+03  0.00000000000E+00 0.  1.
          1    1    3    3  501    0 -0.19520432749E+03 -0.45370213829E+02 -0.16422536767E+03  0.25910066993E+03  0.00000000000E+00 0.  1.
         21    1    1    2  502  501  0.41099889899E+02  0.10438261689E+02 -0.76493962960E+01  0.43089111391E+02  0.00000000000E+00 0.  1.
<scales pt_clust_4="550.00000" pt_clust_5="550.00000" pt_clust_6="42.40472"></scales>
<mgrwt>
<rscale>  0 0.30000000E+03</rscale>
<asrwt>  1 0.42404717E+02</asrwt>
<pdfrwt beam="1">  1        1 0.83477472E+00 0.30000000E+03</pdfrwt>
<pdfrwt beam="2">0</pdfrwt>
<totfact> 0.52422809E-04</totfact>
</mgrwt>
<clustering>
<clus scale="   42.405">  1  6  2 -1</clus>
<clus scale="  457.965">  4  5 -1 -1</clus>
<clus scale="  300.000">  1  4  2 -1</clus>
</clustering>
</event>
<event>
 6    1  0.9687246E-012  0.3000000E+03  0.7818608E-02  0.1093470E+00
          1   -1    0    0  502    0  0.00000000000E+00  0.00000000000E+00  0.23842179227E+03  0.23842179227E+03  0.00000000000E+00 0.  1.
         13   -1    0    0    0    0 -0.00000000000E+00 -0.00000000000E+00 -0.27500000000E+03  0.27500000000E+03  0.00000000000E+00 0.  1.
    9000005    2    1    2  501    0  0.32822938142E+01 -0.39543179183E+02 -0.51227764941E+02  0.47112467654E+03  0.46664734058E+03 0.  0.
         13    1    3    3    0    0  0.21722504472E+03 -0.69723612138E+02 -0.10085249076E+03  0.24943802243E+03  0.00000000000E+00 0.  1.
          1    1    3    3  501    0 -0.21394275090E+03  0.30180432955E+02  0.49624725818E+02  0.22168665411E+03  0.00000000000E+00 0.  1.
         21    1    1    2  502  501 -0.32822938142E+01  0.39543179183E+02  0.14649557209E+02  0.42297115729E+02  0.00000000000E+00 0. -1.
<scales pt_clust_4="550.00000" pt_clust_5="550.00000" pt_clust_6="39.67917"></scales>
<mgrwt>
<rscale>  0 0.30000000E+03</rscale>
<asrwt>  1 0.39679169E+02</asrwt>
<pdfrwt beam="1">  1        1 0.86698834E+00 0.30000000E+03</pdfrwt>
<pdfrwt beam="2">0</pdfrwt>
<totfact> 0.26585385E-04</totfact>
</mgrwt>
<clustering>
<clus scale="   39.679">  1  6  2 -1</clus>
<clus scale="  466.647">  4  5 -1 -1</clus>
<clus scale="  300.000">  1  4  2 -1</clus>
</clustering>
</event>
<event>
 6    1  0.9687246E-012  0.3000000E+03  0.7818608E-02  0.1093470E+00
          1   -1    0    0  502    0  0.00000000000E+00  0.00000000000E+00  0.23601158332E+03  0.23601158332E+03  0.00000000000E+00 0.  1.
         13   -1    0    0    0    0 -0.00000000000E+00 -0.00000000000E+00 -0.27500000000E+03  0.27500000000E+03  0.00000000000E+00 0.  1.
    9000005    2    1    2  501    0 -0.87095033478E+00  0.39863722712E+02 -0.51832179641E+02  0.46912080641E+03  0.46454050547E+03 0.  0.
         13    1    3    3    0    0 -0.95881322310E+02 -0.88102960047E+01 -0.23676138509E+03  0.25559108504E+03  0.00000000000E+00 0.  1.
          3    1    3    3  501    0  0.95010371975E+02  0.48674018717E+02  0.18492920545E+03  0.21352972137E+03  0.00000000000E+00 0.  1.
         21    1    1    2  502  501  0.87095033478E+00 -0.39863722712E+02  0.12843762959E+02  0.41890776907E+02  0.00000000000E+00 0.  1.
<scales pt_clust_4="550.00000" pt_clust_5="550.00000" pt_clust_6="39.87324"></scales>
<mgrwt>
<rscale>  0 0.30000000E+03</rscale>
<asrwt>  1 0.39873236E+02</asrwt>
<pdfrwt beam="1">  1        1 0.85822394E+00 0.30000000E+03</pdfrwt>
<pdfrwt beam="2">0</pdfrwt>
<totfact> 0.32971493E-04</totfact>
</mgrwt>
<clustering>
<clus scale="   39.873">  1  6  2 -1</clus>
<clus scale="  464.541">  4  5 -1 -1</clus>
<clus scale="  300.000">  1  4  2 -1</clus>
</clustering>
</event>
<event>
 6    1  0.9687246E-012  0.3000000E+03  0.7818608E-02  0.1093470E+00
          1   -1    0    0  502    0  0.00000000000E+00  0.00000000000E+00  0.22989677592E+03  0.22989677592E+03  0.00000000000E+00 0.  1.
         13   -1    0    0    0    0 -0.00000000000E+00 -0.00000000000E+00 -0.27500000000E+03  0.27500000000E+03  0.00000000000E+00 0.  1.
    9000005    2    1    2  501    0 -0.26442129734E+02 -0.22767334490E+02 -0.44673420000E+02  0.47000089542E+03  0.46657002636E+03 0.  0.
         13    1    3    3    0    0  0.17540615162E+03  0.94919725040E+02  0.67848575286E+02  0.21066680184E+03  0.00000000000E+00 0.  1.
          3    1    3    3  501    0 -0.20184828136E+03 -0.11768705953E+03 -0.11252199529E+03  0.25933409358E+03  0.00000000000E+00 0.  1.
         21    1    1    2  502  501  0.26442129734E+02  0.22767334490E+02 -0.42980407626E+00  0.34895880505E+02  0.00000000000E+00 0.  1.
<scales pt_clust_4="550.00000" pt_clust_5="550.00000" pt_clust_6="34.89323"></scales>
<mgrwt>
<rscale>  0 0.30000000E+03</rscale>
<asrwt>  1 0.34893234E+02</asrwt>
<pdfrwt beam="1">  1        1 0.83598828E+00 0.30000000E+03</pdfrwt>
<pdfrwt beam="2">0</pdfrwt>
<totfact> 0.53241440E-04</totfact>
</mgrwt>
<clustering>
<clus scale="   34.893">  1  6  2 -1</clus>
<clus scale="  466.570">  4  5 -1 -1</clus>
<clus scale="  300.000">  1  4  2 -1</clus>
</clustering>
</event>
<event>
 6    1  0.9687246E-012  0.3000000E+03  0.7818608E-02  0.1093470E+00
          1   -1    0    0  502    0  0.00000000000E+00  0.00000000000E+00  0.24319867975E+03  0.24319867975E+03  0.00000000000E+00 0.  1.
         13   -1    0    0    0    0 -0.00000000000E+00 -0.00000000000E+00 -0.27500000000E+03  0.27500000000E+03  0.00000000000E+00 0.  1.
    9000005    2    1    2  501    0  0.82989723756E+01  0.29718484669E+02 -0.16729541906E+02  0.48385891015E+03  0.48258419585E+03 0.  0.
         13    1    3    3    0    0 -0.15324176707E+03  0.39004399914E+02  0.17308214385E+03  0.23443935444E+03  0.00000000000E+00 0.  1.
          1    1    3    3  501    0  0.16154073945E+03 -0.92859152450E+01 -0.18981168576E+03  0.24941955572E+03  0.00000000000E+00 0.  1.
         21    1    1    2  502  501 -0.82989723756E+01 -0.29718484669E+02 -0.15071778345E+02  0.34339769598E+02  0.00000000000E+00 0. -1.
<scales pt_clust_4="550.00000" pt_clust_5="550.00000" pt_clust_6="30.85551"></scales>
<mgrwt>
<rscale>  0 0.30000000E+03</rscale>
<asrwt>  1 0.30855506E+02</asrwt>
<pdfrwt beam="1">  1        1 0.88435884E+00 0.30000000E+03</pdfrwt>
<pdfrwt beam="2">0</pdfrwt>
<totfact> 0.17734317E-04</totfact>
</mgrwt>
<clustering>
<clus scale="   30.856">  1  6  2 -1</clus>
<clus scale="  482.584">  4  5 -1 -1</clus>
<clus scale="  300.000">  1  4  2 -1</clus>
</clustering>
</event>
<event>
 6    1  0.9687246E-012  0.3000000E+03  0.7818608E-02  0.1093470E+00
          1   -1    0    0  502    0  0.00000000000E+00  0.00000000000E+00  0.22370559696E+03  0.22370559696E+03  0.00000000000E+00 0.  1.
         13   -1    0    0    0    0 -0.00000000000E+00 -0.00000000000E+00 -0.27500000000E+03  0.27500000000E+03  0.00000000000E+00 0.  1.
    9000005    2    1    2  501    0 -0.27069582991E+02 -0.22199760269E+02 -0.62241295196E+02  0.46202554616E+03  0.45647347655E+03 0.  0.
         13    1    3    3    0    0  0.12840597920E+03  0.84255033989E+01 -0.20939428885E+03  0.24577439412E+03  0.00000000000E+00 0.  1.
          1    1    3    3  501    0 -0.15547556219E+03 -0.30625263668E+02  0.14715299366E+03  0.21625115203E+03  0.00000000000E+00 0.  1.
         21    1    1    2  502  501  0.27069582991E+02  0.22199760269E+02  0.10946892160E+02  0.36680050808E+02  0.00000000000E+00 0. -1.
<scales pt_clust_4="550.00000" pt_clust_5="550.00000" pt_clust_6="35.00845"></scales>
<mgrwt>
<rscale>  0 0.30000000E+03</rscale>
<asrwt>  1 0.35008452E+02</asrwt>
<pdfrwt beam="1">  1        1 0.81347490E+00 0.30000000E+03</pdfrwt>
<pdfrwt beam="2">0</pdfrwt>
<totfact> 0.81877903E-04</totfact>
</mgrwt>
<clustering>
<clus scale="   35.008">  1  6  2 -1</clus>
<clus scale="  456.473">  4  5 -1 -1</clus>
<clus scale="  300.000">  1  4  2 -1</clus>
</clustering>
</event>
<event>
 6    1  0.9687246E-012  0.3000000E+03  0.7818608E-02  0.1093470E+00
          1   -1    0    0  502    0  0.00000000000E+00  0.00000000000E+00  0.22636298489E+03  0.22636298489E+03  0.00000000000E+00 0.  1.
         13   -1    0    0    0    0 -0.00000000000E+00 -0.00000000000E+00 -0.27500000000E+03  0.27500000000E+03  0.00000000000E+00 0.  1.
    9000005    2    1    2  501    0  0.82980640203E+01 -0.30111747488E+02 -0.64307139557E+02  0.46641834290E+03  0.46090680967E+03 0.  0.
         13    1    3    3    0    0 -0.50860440195E+02 -0.21472450200E+02 -0.25793167229E+03  0.26377376303E+03  0.00000000000E+00 0.  1.
          3    1    3    3  501    0  0.59158504216E+02 -0.86392972878E+01  0.19362453273E+03  0.20264457988E+03  0.00000000000E+00 0.  1.
         21    1    1    2  502  501 -0.82980640203E+01  0.30111747488E+02  0.15670124445E+02  0.34944641984E+02  0.00000000000E+00 0.  1.
<scales pt_clust_4="550.00000" pt_clust_5="550.00000" pt_clust_6="31.23420"></scales>
<mgrwt>
<rscale>  0 0.30000000E+03</rscale>
<asrwt>  1 0.31234199E+02</asrwt>
<pdfrwt beam="1">  1        1 0.82313813E+00 0.30000000E+03</pdfrwt>
<pdfrwt beam="2">0</pdfrwt>
<totfact> 0.69343140E-04</totfact>
</mgrwt>
<clustering>
<clus scale="   31.234">  1  6  2 -1</clus>
<clus scale="  460.907">  4  5 -1 -1</clus>
<clus scale="  300.000">  1  4  2 -1</clus>
</clustering>
</event>
<event>
 6    1  0.9687246E-012  0.3000000E+03  0.7818608E-02  0.1093470E+00
          1   -1    0    0  502    0  0.00000000000E+00  0.00000000000E+00  0.22162276848E+03  0.22162276848E+03  0.00000000000E+00 0.  1.
         13   -1    0    0    0    0 -0.00000000000E+00 -0.00000000000E+00 -0.27500000000E+03  0.27500000000E+03  0.00000000000E+00 0.  1.
    9000005    2    1    2  501    0  0.13956315215E+02  0.32352989692E+02 -0.47701482747E+02  0.46093371132E+03  0.45710278943E+03 0.  0.
         13    1    3    3    0    0  0.37621307431E+02 -0.21073442998E+03 -0.16284813087E+02  0.21468478728E+03  0.00000000000E+00 0.  1.
          1    1    3    3  501    0 -0.23664992217E+02  0.24308741967E+03 -0.31416669660E+02  0.24624892404E+03  0.00000000000E+00 0.  1.
         21    1    1    2  502  501 -0.13956315215E+02 -0.32352989692E+02 -0.56757487742E+01  0.35689057154E+02  0.00000000000E+00 0. -1.
<scales pt_clust_4="550.00000" pt_clust_5="550.00000" pt_clust_6="35.23487"></scales>
<mgrwt>
<rscale>  0 0.30000000E+03</rscale>
<asrwt>  1 0.35234868E+02</asrwt>
<pdfrwt beam="1">  1        1 0.80590098E+00 0.30000000E+03</pdfrwt>
<pdfrwt beam="2">0</pdfrwt>
<totfact> 0.93683883E-04</totfact>
</mgrwt>
<clustering>
<clus scale="   35.235">  1  6  2 -1</clus>
<clus scale="  457.103">  4  5 -1 -1</clus>
<clus scale="  300.000">  1  4  2 -1</clus>
</clustering>
</event>
<event>
 6    1  0.9687246E-012  0.3000000E+03  0.7818608E-02  0.1093470E+00
          1   -1    0    0  502    0  0.00000000000E+00  0.00000000000E+00  0.24280597957E+03  0.24280597957E+03  0.00000000000E+00 0.  1.
         13   -1    0    0    0    0 -0.00000000000E+00 -0.00000000000E+00 -0.27500000000E+03  0.27500000000E+03  0.00000000000E+00 0.  1.
    9000005    2    1    2  501    0  0.38606766543E+02 -0.37128484716E+02 -0.30957715252E+02  0.46422860327E+03  0.46008782766E+03 0.  0.
         13    1    3    3    0    0 -0.42108374012E+02  0.16836048055E+03  0.10701459669E+03  0.20388842654E+03  0.00000000000E+00 0.  1.
          1    1    3    3  501    0  0.80715140555E+02 -0.20548896526E+03 -0.13797231194E+03  0.26034017673E+03  0.00000000000E+00 0.  1.
         21    1    1    2  502  501 -0.38606766543E+02  0.37128484716E+02 -0.12363051808E+01  0.53577376295E+02  0.00000000000E+00 0.  1.
<scales pt_clust_4="550.00000" pt_clust_5="550.00000" pt_clust_6="53.56311"></scales>
<mgrwt>
<rscale>  0 0.30000000E+03</rscale>
<asrwt>  1 0.53563110E+02</asrwt>
<pdfrwt beam="1">  1        1 0.88293083E+00 0.30000000E+03</pdfrwt>
<pdfrwt beam="2">0</pdfrwt>
<totfact> 0.16765322E-04</totfact>
</mgrwt>
<clustering>
<clus scale="   53.563">  1  6  2 -1</clus>
<clus scale="  460.088">  4  5 -1 -1</clus>
<clus scale="  300.000">  1  4  2 -1</clus>
</clustering>
</event>
<event>
 6    1  0.9687246E-012  0.3000000E+03  0.7818608E-02  0.1093470E+00
          1   -1    0    0  502    0  0.00000000000E+00  0.00000000000E+00  0.23791353766E+03  0.23791353766E+03  0.00000000000E+00 0.  1.
         13   -1    0    0    0    0 -0.00000000000E+00 -0.00000000000E+00 -0.27500000000E+03  0.27500000000E+03  0.00000000000E+00 0.  1.
    9000005    2    1    2  501    0 -0.70523095274E+00 -0.45787772738E+02 -0.43000038092E+02  0.46674008358E+03  0.46249355116E+03 0.  0.
         13    1    3    3    0    0  0.12988416553E+03 -0.14719665692E+03  0.12363495287E+03  0.23199645220E+03  0.00000000000E+00 0.  1.
          3    1    3    3  501    0 -0.13058939648E+03  0.10140888418E+03 -0.16663499096E+03  0.23474363138E+03  0.00000000000E+00 0.  1.
         21    1    1    2  502  501  0.70523095274E+00  0.45787772738E+02  0.59135757509E+01  0.46173454075E+02  0.00000000000E+00 0.  1.
<scales pt_clust_4="550.00000" pt_clust_5="550.00000" pt_clust_6="45.79320"></scales>
<mgrwt>
<rscale>  0 0.30000000E+03</rscale>
<asrwt>  1 0.45793203E+02</asrwt>
<pdfrwt beam="1">  1        1 0.86514014E+00 0.30000000E+03</pdfrwt>
<pdfrwt beam="2">0</pdfrwt>
<totfact> 0.27108261E-04</totfact>
</mgrwt>
<clustering>
<clus scale="   45.793">  1  6  2 -1</clus>
<clus scale="  462.494">  4  5 -1 -1</clus>
<clus scale="  300.000">  1  4  2 -1</clus>
</clustering>
</event>
<event>
 6    1  0.9687246E-012  0.3000000E+03  0.7818608E-02  0.1093470E+00
          1   -1    0    0  502    0  0.00000000000E+00  0.00000000000E+00  0.23033989398E+03  0.23033989398E+03  0.00000000000E+00 0.  1.
         13   -1    0    0    0    0 -0.00000000000E+00 -0.00000000000E+00 -0.27500000000E+03  0.27500000000E+03  0.00000000000E+00 0.  1.
    9000005    2    1    2  501    0  0.17869152713E+02 -0.29022163552E+02 -0.49205841945E+02  0.47095593971E+03  0.46713669271E+03 0.  0.
         13    1    3    3    0    0  0.18115332576E+03 -0.27093330374E+01  0.13309753246E+03  0.22480840969E+03  0.00000000000E+00 0.  1.
          3    1    3    3  501    0 -0.16328417305E+03 -0.26312830514E+02 -0.18230337440E+03  0.24614753003E+03  0.00000000000E+00 0.  1.
         21    1    1    2  502  501 -0.17869152713E+02  0.29022163552E+02  0.45457359265E+01  0.34383954267E+02  0.00000000000E+00 0. -1.
<scales pt_clust_4="550.00000" pt_clust_5="550.00000" pt_clust_6="34.08214"></scales>
<mgrwt>
<rscale>  0 0.30000000E+03</rscale>
<asrwt>  1 0.34082145E+02</asrwt>
<pdfrwt beam="1">  1        1 0.83759961E+00 0.30000000E+03</pdfrwt>
<pdfrwt beam="2">0</pdfrwt>
<totfact> 0.52054200E-04</totfact>
</mgrwt>
<clustering>
<clus scale="   34.082">  1  6  2 -1</clus>
<clus scale="  467.137">  4  5 -1 -1</clus>
<clus scale="  300.000">  1  4  2 -1</clus>
</clustering>
</event>
<event>
 6    1  0.9687246E-012  0.3000000E+03  0.7818608E-02  0.1093470E+00
          1   -1    0    0  502    0  0.00000000000E+00  0.00000000000E+00  0.23343843415E+03  0.23343843415E+03  0.00000000000E+00 0.  1.
         13   -1    0    0    0    0 -0.00000000000E+00 -0.00000000000E+00 -0.27500000000E+03  0.27500000000E+03  0.00000000000E+00 0.  1.
    9000005    2    1    2  501    0 -0.26923467844E+02  0.20473909061E+02 -0.67451912326E+02  0.46584308096E+03  0.45969115885E+03 0.  0.
         13    1    3    3    0    0  0.10707388959E+03 -0.17309319835E+03 -0.10239922159E+03  0.22784133455E+03  0.00000000000E+00 0.  1.
          1    1    3    3  501    0 -0.13399735743E+03  0.19356710741E+03  0.34947309264E+02  0.23800174641E+03  0.00000000000E+00 0.  1.
         21    1    1    2  502  501  0.26923467844E+02 -0.20473909061E+02  0.25890346474E+02  0.42595353192E+02  0.00000000000E+00 0. -1.
<scales pt_clust_4="550.00000" pt_clust_5="550.00000" pt_clust_6="33.82387"></scales>
<mgrwt>
<rscale>  0 0.30000000E+03</rscale>
<asrwt>  1 0.33823868E+02</asrwt>
<pdfrwt beam="1">  1        1 0.84886703E+00 0.30000000E+03</pdfrwt>
<pdfrwt beam="2">0</pdfrwt>
<totfact> 0.41968673E-04</totfact>
</mgrwt>
<clustering>
<clus scale="   33.824">  1  6  2 -1</clus>
<clus scale="  459.691">  4  5 -1 -1</clus>
<clus scale="  300.000">  1  4  2 -1</clus>
</clustering>
</event>
<event>
 6    1  0.9687246E-012  0.3000000E+03  0.7818608E-02  0.1093470E+00
          1   -1    0    0  502    0  0.00000000000E+00  0.00000000000E+00  0.24387662898E+03  0.24387662898E+03  0.00000000000E+00 0.  1.
         13   -1    0    0    0    0 -0.00000000000E+00 -0.00000000000E+00 -0.27500000000E+03  0.27500000000E+03  0.00000000000E+00 0.  1.
    9000005    2    1    2  501    0  0.71179672516E+01 -0.32943910942E+02 -0.55381948231E+02  0.47735018808E+03  0.47292713513E+03 0.  0.
         13    1    3    3    0    0  0.10269802594E+03 -0.20626968574E+03  0.72667860831E+02  0.24160853832E+03  0.00000000000E+00 0.  1.
          1    1    3    3  501    0 -0.95580058693E+02  0.17332577480E+03 -0.12804980906E+03  0.23574164976E+03  0.00000000000E+00 0.  1.
         21    1    1    2  502  501 -0.71179672516E+01  0.32943910942E+02  0.24258577215E+02  0.41526440908E+02  0.00000000000E+00 0. -1.
<scales pt_clust_4="550.00000" pt_clust_5="550.00000" pt_clust_6="33.70411"></scales>
<mgrwt>
<rscale>  0 0.30000000E+03</rscale>
<asrwt>  1 0.33704105E+02</asrwt>
<pdfrwt beam="1">  1        1 0.88682411E+00 0.30000000E+03</pdfrwt>
<pdfrwt beam="2">0</pdfrwt>
<totfact> 0.16130342E-04</totfact>
</mgrwt>
<clustering>
<clus scale="   33.704">  1  6  2 -1</clus>
<clus scale="  472.927">  4  5 -1 -1</clus>
<clus scale="  300.000">  1  4  2 -1</clus>
</clustering>
</event>
<event>
 6    1  0.9687246E-012  0.3000000E+03  0.7818608E-02  0.1093470E+00
          1   -1    0    0  502    0  0.00000000000E+00  0.00000000000E+00  0.25954816241E+03  0.25954816241E+03  0.00000000000E+00 0.  1.
         13   -1    0    0    0    0 -0.00000000000E+00 -0.00000000000E+00 -0.27500000000E+03  0.27500000000E+03  0.00000000000E+00 0.  1.
    9000005    2    1    2  501    0 -0.53259505518E+02  0.16908854474E+02  0.23882844072E+01  0.47589021972E+03  0.47259212121E+03 0.  0.
         13    1    3    3    0    0 -0.20812242134E+03 -0.26629599634E+02 -0.14713321699E+03  0.25626599732E+03  0.00000000000E+00 0.  1.
          3    1    3    3  501    0  0.15486291582E+03  0.43538454108E+02  0.14952150140E+03  0.21962422240E+03  0.00000000000E+00 0.  1.
         21    1    1    2  502  501  0.53259505518E+02 -0.16908854474E+02 -0.17840122001E+02  0.58657942690E+02  0.00000000000E+00 0.  1.
<scales pt_clust_4="550.00000" pt_clust_5="550.00000" pt_clust_6="55.87922"></scales>
<mgrwt>
<rscale>  0 0.30000000E+03</rscale>
<asrwt>  1 0.55879222E+02</asrwt>
<pdfrwt beam="1">  1        1 0.94381150E+00 0.30000000E+03</pdfrwt>
<pdfrwt beam="2">0</pdfrwt>
<totfact> 0.15061654E-05</totfact>
</mgrwt>
<clustering>
<clus scale="   55.879">  1  6  2 -1</clus>
<clus scale="  472.592">  4  5 -1 -1</clus>
<clus scale="  300.000">  1  4  2 -1</clus>
</clustering>
</event>
<event>
 6    1  0.9687246E-012  0.3000000E+03  0.7818608E-02  0.1093470E+00
          1   -1    0    0  502    0  0.00000000000E+00  0.00000000000E+00  0.24283100561E+03  0.24283100561E+03  0.00000000000E+00 0.  1.
         13   -1    0    0    0    0 -0.00000000000E+00 -0.00000000000E+00 -0.27500000000E+03  0.27500000000E+03  0.00000000000E+00 0.  1.
    9000005    2    1    2  501    0  0.16139747027E+02  0.46169802098E+02 -0.51383329510E+02  0.46528262092E+03  0.45984293918E+03 0.  0.
         13    1    3    3    0    0 -0.15182880546E+03  0.73849934660E+02 -0.18382659960E+03  0.24959570857E+03  0.00000000000E+00 0.  1.
          1    1    3    3  501    0  0.16796855249E+03 -0.27680132562E+02  0.13244327009E+03  0.21568691234E+03  0.00000000000E+00 0.  1.
         21    1    1    2  502  501 -0.16139747027E+02 -0.46169802098E+02  0.19214335124E+02  0.52548384696E+02  0.00000000000E+00 0.  1.
<scales pt_clust_4="550.00000" pt_clust_5="550.00000" pt_clust_6="48.90953"></scales>
<mgrwt>
<rscale>  0 0.30000000E+03</rscale>
<asrwt>  1 0.48909529E+02</asrwt>
<pdfrwt beam="1">  1        1 0.88302184E+00 0.30000000E+03</pdfrwt>
<pdfrwt beam="2">0</pdfrwt>
<totfact> 0.16986078E-04</totfact>
</mgrwt>
<clustering>
<clus scale="   48.910">  1  6  2 -1</clus>
<clus scale="  459.843">  4  5 -1 -1</clus>
<clus scale="  300.000">  1  4  2 -1</clus>
</clustering>
</event>
<event>
 6    1  0.9687246E-012  0.3000000E+03  0.7818608E-02  0.1093470E+00
          1   -1    0    0  502    0  0.00000000000E+00  0.00000000000E+00  0.23528990777E+03  0.23528990777E+03  0.00000000000E+00 0.  1.
         13   -1    0    0    0    0 -0.00000000000E+00 -0.00000000000E+00 -0.27500000000E+03  0.27500000000E+03  0.00000000000E+00 0.  1.
    9000005    2    1    2  501    0 -0.20692229783E+02  0.33281277759E+02 -0.51964524888E+02  0.46922918514E+03  0.46469334461E+03 0.  0.
         13    1    3    3    0    0  0.14174948608E+03 -0.16006198469E+03 -0.22120236562E+02  0.21494664596E+03  0.00000000000E+00 0.  1.
          1    1    3    3  501    0 -0.16244171586E+03  0.19334326245E+03 -0.29844288326E+02  0.25428253918E+03  0.00000000000E+00 0.  1.
         21    1    1    2  502  501  0.20692229783E+02 -0.33281277759E+02  0.12254432653E+02  0.41060722623E+02  0.00000000000E+00 0. -1.
<scales pt_clust_4="550.00000" pt_clust_5="550.00000" pt_clust_6="39.18944"></scales>
<mgrwt>
<rscale>  0 0.30000000E+03</rscale>
<asrwt>  1 0.39189435E+02</asrwt>
<pdfrwt beam="1">  1        1 0.85559966E+00 0.30000000E+03</pdfrwt>
<pdfrwt beam="2">0</pdfrwt>
<totfact> 0.35191070E-04</totfact>
</mgrwt>
<clustering>
<clus scale="   39.189">  1  6  2 -1</clus>
<clus scale="  464.693">  4  5 -1 -1</clus>
<clus scale="  300.000">  1  4  2 -1</clus>
</clustering>
</event>
<event>
 6    1  0.9687246E-012  0.3000000E+03  0.7818608E-02  0.1093470E+00
          1   -1    0    0  502    0  0.00000000000E+00  0.00000000000E+00  0.25171393758E+03  0.25171393758E+03  0.00000000000E+00 0.  1.
         13   -1    0    0    0    0 -0.00000000000E+00 -0.00000000000E+00 -0.27500000000E+03  0.27500000000E+03  0.00000000000E+00 0.  1.
    9000005    2    1    2  501    0 -0.30311922740E+02  0.36185823558E+01 -0.71135945258E+02  0.46995551894E+03  0.46353636349E+03 0.  0.
         13    1    3    3    0    0 -0.20451560169E+03 -0.93270678930E+02 -0.13307596376E+03  0.26121880295E+03  0.00000000000E+00 0.  1.
          1    1    3    3  501    0  0.17420367895E+03  0.96889261286E+02  0.61940018506E+02  0.20873671600E+03  0.00000000000E+00 0.  1.
         21    1    1    2  502  501  0.30311922740E+02 -0.36185823558E+01  0.47849882837E+02  0.56758418635E+02  0.00000000000E+00 0.  1.
<scales pt_clust_4="550.00000" pt_clust_5="550.00000" pt_clust_6="30.52715"></scales>
<mgrwt>
<rscale>  0 0.30000000E+03</rscale>
<asrwt>  1 0.30527149E+02</asrwt>
<pdfrwt beam="1">  1        1 0.91532341E+00 0.30000000E+03</pdfrwt>
<pdfrwt beam="2">0</pdfrwt>
<totfact> 0.54616116E-05</totfact>
</mgrwt>
<clustering>
<clus scale="   30.527">  1  6  2 -1</clus>
<clus scale="  463.536">  4  5 -1 -1</clus>
<clus scale="  300.000">  1  4  2 -1</clus>
</clustering>
</event>
<event>
 6    1  0.9687246E-012  0.3000000E+03  0.7818608E-02  0.1093470E+00
          1   -1    0    0  502    0  0.00000000000E+00  0.00000000000E+00  0.23653375446E+03  0.23653375446E+03  0.00000000000E+00 0.  1.
         13   -1    0    0    0    0 -0.00000000000E+00 -0.00000000000E+00 -0.27500000000E+03  0.27500000000E+03  0.00000000000E+00 0.  1.
    9000005    2    1    2  501    0  0.15978660086E+02  0.28056844342E+02 -0.56274725688E+02  0.47466037575E+03  0.47020540561E+03 0.  0.
         13    1    3    3    0    0  0.72171653956E+02 -0.58197748068E+02  0.18797903152E+03  0.20959924095E+03  0.00000000000E+00 0.  1.
          3    1    3    3  501    0 -0.56192993870E+02  0.86254592410E+02 -0.24425375721E+03  0.26506113480E+03  0.00000000000E+00 0.  1.
         21    1    1    2  502  501 -0.15978660086E+02 -0.28056844342E+02  0.17808480151E+02  0.36873378715E+02  0.00000000000E+00 0.  1.
<scales pt_clust_4="550.00000" pt_clust_5="550.00000" pt_clust_6="32.28783"></scales>
<mgrwt>
<rscale>  0 0.30000000E+03</rscale>
<asrwt>  1 0.32287832E+02</asrwt>
<pdfrwt beam="1">  1        1 0.86012274E+00 0.30000000E+03</pdfrwt>
<pdfrwt beam="2">0</pdfrwt>
<totfact> 0.32742787E-04</totfact>
</mgrwt>
<clustering>
<clus scale="   32.288">  1  6  2 -1</clus>
<clus scale="  470.205">  4  5 -1 -1</clus>
<clus scale="  300.000">  1  4  2 -1</clus>
</clustering>
</event>
<event>
 6    1  0.9687246E-012  0.3000000E+03  0.7818608E-02  0.1093470E+00
          1   -1    0    0  502    0  0.00000000000E+00  0.00000000000E+00  0.23719487188E+03  0.23719487188E+03  0.00000000000E+00 0.  1.
         13   -1    0    0    0    0 -0.00000000000E+00 -0.00000000000E+00 -0.27500000000E+03  0.27500000000E+03  0.00000000000E+00 0.  1.
    9000005    2    1    2  501    0  0.16874316302E+02 -0.34569766674E+02 -0.49777389276E+02  0.47190658133E+03  0.46769458164E+03 0.  0.
         13    1    3    3    0    0 -0.11507733824E+03  0.17371831522E+03  0.34748159161E+02  0.21125406833E+03  0.00000000000E+00 0.  1.
          1    1    3    3  501    0  0.13195165454E+03 -0.20828808189E+03 -0.84525548437E+02  0.26065251300E+03  0.00000000000E+00 0.  1.
         21    1    1    2  502  501 -0.16874316302E+02  0.34569766674E+02  0.11972261158E+02  0.40288290554E+02  0.00000000000E+00 0. -1.
<scales pt_clust_4="550.00000" pt_clust_5="550.00000" pt_clust_6="38.46832"></scales>
<mgrwt>
<rscale>  0 0.30000000E+03</rscale>
<asrwt>  1 0.38468316E+02</asrwt>
<pdfrwt beam="1">  1        1 0.86252681E+00 0.30000000E+03</pdfrwt>
<pdfrwt beam="2">0</pdfrwt>
<totfact> 0.29855967E-04</totfact>
</mgrwt>
<clustering>
<clus scale="   38.468">  1  6  2 -1</clus>
<clus scale="  467.695">  4  5 -1 -1</clus>
<clus scale="  300.000">  1  4  2 -1</clus>
</clustering>
</event>
<event>
 6    1  0.9687246E-012  0.3000000E+03  0.7818608E-02  0.1093470E+00
          1   -1    0    0  502    0  0.00000000000E+00  0.00000000000E+00  0.23645876428E+03  0.23645876428E+03  0.00000000000E+00 0.  1.
         13   -1    0    0    0    0 -0.00000000000E+00 -0.00000000000E+00 -0.27500000000E+03  0.27500000000E+03  0.00000000000E+00 0.  1.
    9000005    2    1    2  501    0  0.30563985078E+02  0.10673327757E+02 -0.71401342522E+02  0.46532999096E+03  0.45867828776E+03 0.  0.
         13    1    3    3    0    0 -0.20906215033E+03  0.53045300435E+02 -0.47156970238E+02  0.22078171673E+03  0.00000000000E+00 0.  1.
          1    1    3    3  501    0  0.23962613541E+03 -0.42371972679E+02 -0.24244372284E+02  0.24454827423E+03  0.00000000000E+00 0.  1.
         21    1    1    2  502  501 -0.30563985078E+02 -0.10673327757E+02  0.32860106806E+02  0.46128773326E+02  0.00000000000E+00 0. -1.
<scales pt_clust_4="550.00000" pt_clust_5="550.00000" pt_clust_6="32.37402"></scales>
<mgrwt>
<rscale>  0 0.30000000E+03</rscale>
<asrwt>  1 0.32374019E+02</asrwt>
<pdfrwt beam="1">  1        1 0.85985005E+00 0.30000000E+03</pdfrwt>
<pdfrwt beam="2">0</pdfrwt>
<totfact> 0.32946158E-04</totfact>
</mgrwt>
<clustering>
<clus scale="   32.374">  1  6  2 -1</clus>
<clus scale="  458.678">  4  5 -1 -1</clus>
<clus scale="  300.000">  1  4  2 -1</clus>
</clustering>
</event>
<event>
 6    1  0.9687246E-012  0.3000000E+03  0.7818608E-02  0.1093470E+00
          1   -1    0    0  502    0  0.00000000000E+00  0.00000000000E+00  0.23388361020E+03  0.23388361020E+03  0.00000000000E+00 0.  1.
         13   -1    0    0    0    0 -0.00000000000E+00 -0.00000000000E+00 -0.27500000000E+03  0.27500000000E+03  0.00000000000E+00 0.  1.
    9000005    2    1    2  501    0 -0.13634672850E+02 -0.35801049176E+02 -0.48876918954E+02  0.46979594925E+03  0.46567334184E+03 0.  0.
         13    1    3    3    0    0 -0.13347265458E+03  0.14250988577E+03 -0.13601448301E+03  0.23795788840E+03  0.00000000000E+00 0.  1.
          1    1    3    3  501    0  0.11983798173E+03 -0.17831093495E+03  0.87137564055E+02  0.23183806085E+03  0.00000000000E+00 0.  1.
         21    1    1    2  502  501  0.13634672850E+02  0.35801049176E+02  0.77605291570E+01  0.39087660951E+02  0.00000000000E+00 0. -1.
<scales pt_clust_4="550.00000" pt_clust_5="550.00000" pt_clust_6="38.30952"></scales>
<mgrwt>
<rscale>  0 0.30000000E+03</rscale>
<asrwt>  1 0.38309521E+02</asrwt>
<pdfrwt beam="1">  1        1 0.85048586E+00 0.30000000E+03</pdfrwt>
<pdfrwt beam="2">0</pdfrwt>
<totfact> 0.39603157E-04</totfact>
</mgrwt>
<clustering>
<clus scale="   38.310">  1  6  2 -1</clus>
<clus scale="  465.673">  4  5 -1 -1</clus>
<clus scale="  300.000">  1  4  2 -1</clus>
</clustering>
</event>
<event>
 6    1  0.9687246E-012  0.3000000E+03  0.7818608E-02  0.1093470E+00
          1   -1    0    0  502    0  0.00000000000E+00  0.00000000000E+00  0.23148151742E+03  0.23148151742E+03  0.00000000000E+00 0.  1.
         13   -1    0    0    0    0 -0.00000000000E+00 -0.00000000000E+00 -0.27500000000E+03  0.27500000000E+03  0.00000000000E+00 0.  1.
    9000005    2    1    2  501    0  0.16060400317E+01 -0.34090292407E+02 -0.69099062895E+02  0.46383068519E+03  0.45738331477E+03 0.  0.
         13    1    3    3    0    0  0.63624686092E+02 -0.23585439302E+03 -0.93833718730E+01  0.24446562755E+03  0.00000000000E+00 0.  1.
          1    1    3    3  501    0 -0.62018646060E+02  0.20176410061E+03 -0.59715691022E+02  0.21936505763E+03  0.00000000000E+00 0.  1.
         21    1    1    2  502  501 -0.16060400317E+01  0.34090292407E+02  0.25580580314E+02  0.42650832233E+02  0.00000000000E+00 0. -1.
<scales pt_clust_4="550.00000" pt_clust_5="550.00000" pt_clust_6="34.12810"></scales>
<mgrwt>
<rscale>  0 0.30000000E+03</rscale>
<asrwt>  1 0.34128103E+02</asrwt>
<pdfrwt beam="1">  1        1 0.84175097E+00 0.30000000E+03</pdfrwt>
<pdfrwt beam="2">0</pdfrwt>
<totfact> 0.48371584E-04</totfact>
</mgrwt>
<clustering>
<clus scale="   34.128">  1  6  2 -1</clus>
<clus scale="  457.383">  4  5 -1 -1</clus>
<clus scale="  300.000">  1  4  2 -1</clus>
</clustering>
</event>
<event>
 6    1  0.9687246E-012  0.3000000E+03  0.7818608E-02  0.1093470E+00
          1   -1    0    0  502    0  0.00000000000E+00  0.00000000000E+00  0.23801596698E+03  0.23801596698E+03  0.00000000000E+00 0.  1.
         13   -1    0    0    0    0 -0.00000000000E+00 -0.00000000000E+00 -0.27500000000E+03  0.27500000000E+03  0.00000000000E+00 0.  1.
    9000005    2    1    2  501    0  0.34787706272E+02  0.63997829177E+01 -0.61659559454E+02  0.46988797915E+03  0.46447999952E+03 0.  0.
         13    1    3    3    0    0  0.18829307516E+03  0.14738744912E+03  0.32249549441E+02  0.24128277135E+03  0.00000000000E+00 0.  1.
          1    1    3    3  501    0 -0.15350536889E+03 -0.14098766620E+03 -0.93909108895E+02  0.22860520780E+03  0.00000000000E+00 0.  1.
         21    1    1    2  502  501 -0.34787706272E+02 -0.63997829177E+01  0.24675526435E+02  0.43127987826E+02  0.00000000000E+00 0.  1.
<scales pt_clust_4="550.00000" pt_clust_5="550.00000" pt_clust_6="35.37148"></scales>
<mgrwt>
<rscale>  0 0.30000000E+03</rscale>
<asrwt>  1 0.35371482E+02</asrwt>
<pdfrwt beam="1">  1        1 0.86551261E+00 0.30000000E+03</pdfrwt>
<pdfrwt beam="2">0</pdfrwt>
<totfact> 0.28154674E-04</totfact>
</mgrwt>
<clustering>
<clus scale="   35.371">  1  6  2 -1</clus>
<clus scale="  464.480">  4  5 -1 -1</clus>
<clus scale="  300.000">  1  4  2 -1</clus>
</clustering>
</event>
<event>
 6    1  0.9687246E-012  0.3000000E+03  0.7818608E-02  0.1093470E+00
          1   -1    0    0  502    0  0.00000000000E+00  0.00000000000E+00  0.23399863974E+03  0.23399863974E+03  0.00000000000E+00 0.  1.
         13   -1    0    0    0    0 -0.00000000000E+00 -0.00000000000E+00 -0.27500000000E+03  0.27500000000E+03  0.00000000000E+00 0.  1.
    9000005    2    1    2  501    0  0.11538053987E+02  0.30763338492E+02 -0.50705383066E+02  0.47473965926E+03  0.47087917614E+03 0.  0.
         13    1    3    3    0    0  0.36211806864E+02 -0.20535407351E+03  0.53802665285E+02  0.21535161308E+03  0.00000000000E+00 0.  1.
          3    1    3    3  501    0 -0.24673752878E+02  0.23611741200E+03 -0.10450804835E+03  0.25938804618E+03  0.00000000000E+00 0.  1.
         21    1    1    2  502  501 -0.11538053987E+02 -0.30763338492E+02  0.97040228076E+01  0.34258980482E+02  0.00000000000E+00 0. -1.
<scales pt_clust_4="550.00000" pt_clust_5="550.00000" pt_clust_6="32.85589"></scales>
<mgrwt>
<rscale>  0 0.30000000E+03</rscale>
<asrwt>  1 0.32855893E+02</asrwt>
<pdfrwt beam="1">  1        1 0.85090414E+00 0.30000000E+03</pdfrwt>
<pdfrwt beam="2">0</pdfrwt>
<totfact> 0.40384929E-04</totfact>
</mgrwt>
<clustering>
<clus scale="   32.856">  1  6  2 -1</clus>
<clus scale="  470.879">  4  5 -1 -1</clus>
<clus scale="  300.000">  1  4  2 -1</clus>
</clustering>
</event>
<event>
 6    1  0.9687246E-012  0.3000000E+03  0.7818608E-02  0.1093470E+00
          1   -1    0    0  502    0  0.00000000000E+00  0.00000000000E+00  0.23002531725E+03  0.23002531725E+03  0.00000000000E+00 0.  1.
         13   -1    0    0    0    0 -0.00000000000E+00 -0.00000000000E+00 -0.27500000000E+03  0.27500000000E+03  0.00000000000E+00 0.  1.
    9000005    2    1    2  501    0 -0.31969182688E+02 -0.13884312895E+02 -0.48403407241E+02  0.47000305379E+03  0.46620293645E+03 0.  0.
         13    1    3    3    0    0  0.38415032936E+02  0.47363319240E+02 -0.24495425604E+03  0.25243134971E+03  0.00000000000E+00 0.  1.
          1    1    3    3  501    0 -0.70384215624E+02 -0.61247632135E+02  0.19655084880E+03  0.21757170408E+03  0.00000000000E+00 0.  1.
         21    1    1    2  502  501  0.31969182688E+02  0.13884312895E+02  0.34287244930E+01  0.35022263461E+02  0.00000000000E+00 0.  1.
<scales pt_clust_4="550.00000" pt_clust_5="550.00000" pt_clust_6="34.85402"></scales>
<mgrwt>
<rscale>  0 0.30000000E+03</rscale>
<asrwt>  1 0.34854021E+02</asrwt>
<pdfrwt beam="1">  1        1 0.83645570E+00 0.30000000E+03</pdfrwt>
<pdfrwt beam="2">0</pdfrwt>
<totfact> 0.52838502E-04</totfact>
</mgrwt>
<clustering>
<clus scale="   34.854">  1  6  2 -1</clus>
<clus scale="  466.203">  4  5 -1 -1</clus>
<clus scale="  300.000">  1  4  2 -1</clus>
</clustering>
</event>
<event>
 6    1  0.9687246E-012  0.3000000E+03  0.7818608E-02  0.1093470E+00
          1   -1    0    0  502    0  0.00000000000E+00  0.00000000000E+00  0.23137316301E+03  0.23137316301E+03  0.00000000000E+00 0.  1.
         13   -1    0    0    0    0 -0.00000000000E+00 -0.00000000000E+00 -0.27500000000E+03  0.27500000000E+03  0.00000000000E+00 0.  1.
    9000005    2    1    2  501    0  0.24981035747E+02  0.17580319760E+02 -0.48422051349E+02  0.47545207198E+03  0.47199243416E+03 0.  0.
         13    1    3    3    0    0 -0.19818704372E+03  0.78351559035E+02 -0.10465034607E+03  0.23742107327E+03  0.00000000000E+00 0.  1.
          3    1    3    3  501    0  0.22316807947E+03 -0.60771239274E+02  0.56228294721E+02  0.23803099870E+03  0.00000000000E+00 0.  1.
         21    1    1    2  502  501 -0.24981035747E+02 -0.17580319760E+02  0.47952143601E+01  0.30921091033E+02  0.00000000000E+00 0.  1.
<scales pt_clust_4="550.00000" pt_clust_5="550.00000" pt_clust_6="30.54701"></scales>
<mgrwt>
<rscale>  0 0.30000000E+03</rscale>
<asrwt>  1 0.30547010E+02</asrwt>
<pdfrwt beam="1">  1        1 0.84135696E+00 0.30000000E+03</pdfrwt>
<pdfrwt beam="2">0</pdfrwt>
<totfact> 0.49766046E-04</totfact>
</mgrwt>
<clustering>
<clus scale="   30.547">  1  6  2 -1</clus>
<clus scale="  471.992">  4  5 -1 -1</clus>
<clus scale="  300.000">  1  4  2 -1</clus>
</clustering>
</event>
<event>
 6    1  0.9687246E-012  0.3000000E+03  0.7818608E-02  0.1093470E+00
          1   -1    0    0  502    0  0.00000000000E+00  0.00000000000E+00  0.25672089885E+03  0.25672089885E+03  0.00000000000E+00 0.  1.
         13   -1    0    0    0    0 -0.00000000000E+00 -0.00000000000E+00 -0.27500000000E+03  0.27500000000E+03  0.00000000000E+00 0.  1.
    9000005    2    1    2  501    0  0.28695210006E+02  0.21585363247E+02 -0.50511215580E+02  0.48346893325E+03  0.47948043081E+03 0.  0.
         13    1    3    3    0    0 -0.75969001010E+02 -0.98944371260E+02  0.17023760160E+03  0.21105003842E+03  0.00000000000E+00 0.  1.
          1    1    3    3  501    0  0.10466421102E+03  0.12052973451E+03 -0.22074881718E+03  0.27241889482E+03  0.00000000000E+00 0.  1.
         21    1    1    2  502  501 -0.28695210006E+02 -0.21585363247E+02  0.32232114425E+02  0.48251965599E+02  0.00000000000E+00 0.  1.
<scales pt_clust_4="550.00000" pt_clust_5="550.00000" pt_clust_6="35.90742"></scales>
<mgrwt>
<rscale>  0 0.30000000E+03</rscale>
<asrwt>  1 0.35907422E+02</asrwt>
<pdfrwt beam="1">  1        1 0.93353054E+00 0.30000000E+03</pdfrwt>
<pdfrwt beam="2">0</pdfrwt>
<totfact> 0.23366386E-05</totfact>
</mgrwt>
<clustering>
<clus scale="   35.907">  1  6  2 -1</clus>
<clus scale="  479.480">  4  5 -1 -1</clus>
<clus scale="  300.000">  1  4  2 -1</clus>
</clustering>
</event>
<event>
 6    1  0.9687246E-012  0.3000000E+03  0.7818608E-02  0.1093470E+00
          1   -1    0    0  502    0  0.00000000000E+00  0.00000000000E+00  0.25108936210E+03  0.25108936210E+03  0.00000000000E+00 0.  1.
         13   -1    0    0    0    0 -0.00000000000E+00 -0.00000000000E+00 -0.27500000000E+03  0.27500000000E+03  0.00000000000E+00 0.  1.
    9000005    2    1    2  501    0  0.11365849066E+02  0.31296249053E+02 -0.45941633839E+02  0.48616440109E+03  0.48284216203E+03 0.  0.
         13    1    3    3    0    0  0.19024859727E+03 -0.10419805020E+03 -0.12243202159E+03  0.24908103568E+03  0.00000000000E+00 0.  1.
          1    1    3    3  501    0 -0.17888274820E+03  0.13549429925E+03  0.76490387749E+02  0.23708336540E+03  0.00000000000E+00 0.  1.
         21    1    1    2  502  501 -0.11365849066E+02 -0.31296249053E+02  0.22030995935E+02  0.39924961010E+02  0.00000000000E+00 0.  1.
<scales pt_clust_4="550.00000" pt_clust_5="550.00000" pt_clust_6="33.29621"></scales>
<mgrwt>
<rscale>  0 0.30000000E+03</rscale>
<asrwt>  1 0.33296212E+02</asrwt>
<pdfrwt beam="1">  1        1 0.91305223E+00 0.30000000E+03</pdfrwt>
<pdfrwt beam="2">0</pdfrwt>
<totfact> 0.60909412E-05</totfact>
</mgrwt>
<clustering>
<clus scale="   33.296">  1  6  2 -1</clus>
<clus scale="  482.842">  4  5 -1 -1</clus>
<clus scale="  300.000">  1  4  2 -1</clus>
</clustering>
</event>
<event>
 6    1  0.9687246E-012  0.3000000E+03  0.7818608E-02  0.1093470E+00
          1   -1    0    0  502    0  0.00000000000E+00  0.00000000000E+00  0.23938743693E+03  0.23938743693E+03  0.00000000000E+00 0.  1.
         13   -1    0    0    0    0 -0.00000000000E+00 -0.00000000000E+00 -0.27500000000E+03  0.27500000000E+03  0.00000000000E+00 0.  1.
    9000005    2    1    2  501    0  0.31822067515E+01  0.35495309625E+02 -0.42039253299E+02  0.47817492814E+03  0.47498833632E+03 0.  0.
         13    1    3    3    0    0  0.18227707814E+03  0.10122650609E+03  0.10860798392E+03  0.23509026547E+03  0.00000000000E+00 0.  1.
          1    1    3    3  501    0 -0.17909487139E+03 -0.65731196463E+02 -0.15064723721E+03  0.24308466267E+03  0.00000000000E+00 0.  1.
         21    1    1    2  502  501 -0.31822067515E+01 -0.35495309625E+02  0.64266902251E+01  0.36212508784E+02  0.00000000000E+00 0.  1.
<scales pt_clust_4="550.00000" pt_clust_5="550.00000" pt_clust_6="35.63767"></scales>
<mgrwt>
<rscale>  0 0.30000000E+03</rscale>
<asrwt>  1 0.35637669E+02</asrwt>
<pdfrwt beam="1">  1        1 0.87049977E+00 0.30000000E+03</pdfrwt>
<pdfrwt beam="2">0</pdfrwt>
<totfact> 0.24944838E-04</totfact>
</mgrwt>
<clustering>
<clus scale="   35.638">  1  6  2 -1</clus>
<clus scale="  474.988">  4  5 -1 -1</clus>
<clus scale="  300.000">  1  4  2 -1</clus>
</clustering>
</event>
<event>
 6    1  0.9687246E-012  0.3000000E+03  0.7818608E-02  0.1093470E+00
          1   -1    0    0  502    0  0.00000000000E+00  0.00000000000E+00  0.22337438514E+03  0.22337438514E+03  0.00000000000E+00 0.  1.
         13   -1    0    0    0    0 -0.00000000000E+00 -0.00000000000E+00 -0.27500000000E+03  0.27500000000E+03  0.00000000000E+00 0.  1.
    9000005    2    1    2  501    0  0.30499222412E+02  0.11677377090E+02 -0.39353963315E+02  0.46348660597E+03  0.46065663545E+03 0.  0.
         13    1    3    3    0    0  0.37148703707E+02  0.18408913318E+03 -0.16504658879E+03  0.25001842254E+03  0.00000000000E+00 0.  1.
          3    1    3    3  501    0 -0.66494812951E+01 -0.17241175609E+03  0.12569262547E+03  0.21346818343E+03  0.00000000000E+00 0.  1.
         21    1    1    2  502  501 -0.30499222412E+02 -0.11677377090E+02 -0.12271651546E+02  0.34887779165E+02  0.00000000000E+00 0. -1.
<scales pt_clust_4="550.00000" pt_clust_5="550.00000" pt_clust_6="32.65830"></scales>
<mgrwt>
<rscale>  0 0.30000000E+03</rscale>
<asrwt>  1 0.32658303E+02</asrwt>
<pdfrwt beam="1">  1        1 0.81227049E+00 0.30000000E+03</pdfrwt>
<pdfrwt beam="2">0</pdfrwt>
<totfact> 0.84804513E-04</totfact>
</mgrwt>
<clustering>
<clus scale="   32.658">  1  6  2 -1</clus>
<clus scale="  460.657">  4  5 -1 -1</clus>
<clus scale="  300.000">  1  4  2 -1</clus>
</clustering>
</event>
<event>
 6    1  0.9687246E-012  0.3000000E+03  0.7818608E-02  0.1093470E+00
          1   -1    0    0  502    0  0.00000000000E+00  0.00000000000E+00  0.24263395807E+03  0.24263395807E+03  0.00000000000E+00 0.  1.
         13   -1    0    0    0    0 -0.00000000000E+00 -0.00000000000E+00 -0.27500000000E+03  0.27500000000E+03  0.00000000000E+00 0.  1.
    9000005    2    1    2  501    0  0.14710347779E+02 -0.30659177206E+02 -0.19413305812E+02  0.48124504695E+03  0.47964939205E+03 0.  0.
         13    1    3    3    0    0 -0.19539572054E+03 -0.29228685162E+02  0.11805998853E+03  0.23015639147E+03  0.00000000000E+00 0.  1.
          1    1    3    3  501    0  0.21010606832E+03 -0.14304920436E+01 -0.13747329434E+03  0.25108865548E+03  0.00000000000E+00 0.  1.
         21    1    1    2  502  501 -0.14710347779E+02  0.30659177206E+02 -0.12952736123E+02  0.36388911110E+02  0.00000000000E+00 0. -1.
<scales pt_clust_4="550.00000" pt_clust_5="550.00000" pt_clust_6="34.00560"></scales>
<mgrwt>
<rscale>  0 0.30000000E+03</rscale>
<asrwt>  1 0.34005597E+02</asrwt>
<pdfrwt beam="1">  1        1 0.88230530E+00 0.30000000E+03</pdfrwt>
<pdfrwt beam="2">0</pdfrwt>
<totfact> 0.18547136E-04</totfact>
</mgrwt>
<clustering>
<clus scale="   34.006">  1  6  2 -1</clus>
<clus scale="  479.649">  4  5 -1 -1</clus>
<clus scale="  300.000">  1  4  2 -1</clus>
</clustering>
</event>
<event>
 6    1  0.9687246E-012  0.3000000E+03  0.7818608E-02  0.1093470E+00
          1   -1    0    0  502    0  0.00000000000E+00  0.00000000000E+00  0.22790920086E+03  0.22790920086E+03  0.00000000000E+00 0.  1.
         13   -1    0    0    0    0 -0.00000000000E+00 -0.00000000000E+00 -0.27500000000E+03  0.27500000000E+03  0.00000000000E+00 0.  1.
    9000005    2    1    2  501    0 -0.30096644583E+02  0.10977830094E+02 -0.60472649175E+02  0.46819040654E+03  0.46316195300E+03 0.  0.
         13    1    3    3    0    0  0.19270716429E+02  0.87104295675E+02 -0.24599378047E+03  0.26167051585E+03  0.00000000000E+00 0.  1.
          1    1    3    3  501    0 -0.49367361012E+02 -0.76126465581E+02  0.18552113129E+03  0.20651989069E+03  0.00000000000E+00 0.  1.
         21    1    1    2  502  501  0.30096644583E+02 -0.10977830094E+02  0.13381850032E+02  0.34718794320E+02  0.00000000000E+00 0. -1.
<scales pt_clust_4="550.00000" pt_clust_5="550.00000" pt_clust_6="32.03624"></scales>
<mgrwt>
<rscale>  0 0.30000000E+03</rscale>
<asrwt>  1 0.32036241E+02</asrwt>
<pdfrwt beam="1">  1        1 0.82876073E+00 0.30000000E+03</pdfrwt>
<pdfrwt beam="2">0</pdfrwt>
<totfact> 0.61554165E-04</totfact>
</mgrwt>
<clustering>
<clus scale="   32.036">  1  6  2 -1</clus>
<clus scale="  463.162">  4  5 -1 -1</clus>
<clus scale="  300.000">  1  4  2 -1</clus>
</clustering>
</event>
<event>
 6    1  0.9687246E-012  0.3000000E+03  0.7818608E-02  0.1093470E+00
          1   -1    0    0  502    0  0.00000000000E+00  0.00000000000E+00  0.24363271110E+03  0.24363271110E+03  0.00000000000E+00 0.  1.
         13   -1    0    0    0    0 -0.00000000000E+00 -0.00000000000E+00 -0.27500000000E+03  0.27500000000E+03  0.00000000000E+00 0.  1.
    9000005    2    1    2  501    0 -0.60438963961E+01  0.31397212530E+02 -0.32288742560E+02  0.48664579635E+03  0.48451961217E+03 0.  0.
         13    1    3    3    0    0 -0.15120678809E+03  0.95903234276E+02  0.15797879787E+03  0.23878488998E+03  0.00000000000E+00 0.  1.
          1    1    3    3  501    0  0.14516289169E+03 -0.64506021746E+02 -0.19026754043E+03  0.24786090637E+03  0.00000000000E+00 0.  1.
         21    1    1    2  502  501  0.60438963961E+01 -0.31397212530E+02  0.92145366375E+00  0.31986914749E+02  0.00000000000E+00 0.  1.
<scales pt_clust_4="550.00000" pt_clust_5="550.00000" pt_clust_6="31.97364"></scales>
<mgrwt>
<rscale>  0 0.30000000E+03</rscale>
<asrwt>  1 0.31973640E+02</asrwt>
<pdfrwt beam="1">  1        1 0.88593713E+00 0.30000000E+03</pdfrwt>
<pdfrwt beam="2">0</pdfrwt>
<totfact> 0.16758063E-04</totfact>
</mgrwt>
<clustering>
<clus scale="   31.974">  1  6  2 -1</clus>
<clus scale="  484.520">  4  5 -1 -1</clus>
<clus scale="  300.000">  1  4  2 -1</clus>
</clustering>
</event>
<event>
 6    1  0.9687246E-012  0.3000000E+03  0.7818608E-02  0.1093470E+00
          1   -1    0    0  502    0  0.00000000000E+00  0.00000000000E+00  0.24617479862E+03  0.24617479862E+03  0.00000000000E+00 0.  1.
         13   -1    0    0    0    0 -0.00000000000E+00 -0.00000000000E+00 -0.27500000000E+03  0.27500000000E+03  0.00000000000E+00 0.  1.
    9000005    2    1    2  501    0 -0.15502362523E+02  0.34923143269E+02 -0.55994992321E+02  0.47429040122E+03  0.46942091597E+03 0.  0.
         13    1    3    3    0    0  0.21658701019E+03  0.76300447562E+02 -0.64066105222E+02  0.23840334964E+03  0.00000000000E+00 0.  1.
          1    1    3    3  501    0 -0.23208937272E+03 -0.41377304292E+02  0.80711129009E+01  0.23588705158E+03  0.00000000000E+00 0.  1.
         21    1    1    2  502  501  0.15502362523E+02 -0.34923143269E+02  0.27169790942E+02  0.46884397399E+02  0.00000000000E+00 0.  1.
<scales pt_clust_4="550.00000" pt_clust_5="550.00000" pt_clust_6="38.20928"></scales>
<mgrwt>
<rscale>  0 0.30000000E+03</rscale>
<asrwt>  1 0.38209281E+02</asrwt>
<pdfrwt beam="1">  1        1 0.89518109E+00 0.30000000E+03</pdfrwt>
<pdfrwt beam="2">0</pdfrwt>
<totfact> 0.12347797E-04</totfact>
</mgrwt>
<clustering>
<clus scale="   38.209">  1  6  2 -1</clus>
<clus scale="  469.421">  4  5 -1 -1</clus>
<clus scale="  300.000">  1  4  2 -1</clus>
</clustering>
</event>
<event>
 6    1  0.9687246E-012  0.3000000E+03  0.7818608E-02  0.1093470E+00
          1   -1    0    0  502    0  0.00000000000E+00  0.00000000000E+00  0.24061864829E+03  0.24061864829E+03  0.00000000000E+00 0.  1.
         13   -1    0    0    0    0 -0.00000000000E+00 -0.00000000000E+00 -0.27500000000E+03  0.27500000000E+03  0.00000000000E+00 0.  1.
    9000005    2    1    2  501    0 -0.29448154064E+02 -0.34510854175E+02 -0.45628350680E+02  0.46887800410E+03  0.46444207767E+03 0.  0.
         13    1    3    3    0    0 -0.16312821499E+03 -0.19359942166E+03 -0.61339139070E+02  0.26048808144E+03  0.00000000000E+00 0.  1.
          1    1    3    3  501    0  0.13368006093E+03  0.15908856748E+03  0.15710788390E+02  0.20838992266E+03  0.00000000000E+00 0.  1.
         21    1    1    2  502  501  0.29448154064E+02  0.34510854175E+02  0.11246998974E+02  0.46740644193E+02  0.00000000000E+00 0.  1.
<scales pt_clust_4="550.00000" pt_clust_5="550.00000" pt_clust_6="45.36731"></scales>
<mgrwt>
<rscale>  0 0.30000000E+03</rscale>
<asrwt>  1 0.45367310E+02</asrwt>
<pdfrwt beam="1">  1        1 0.87497690E+00 0.30000000E+03</pdfrwt>
<pdfrwt beam="2">0</pdfrwt>
<totfact> 0.21463776E-04</totfact>
</mgrwt>
<clustering>
<clus scale="   45.367">  1  6  2 -1</clus>
<clus scale="  464.442">  4  5 -1 -1</clus>
<clus scale="  300.000">  1  4  2 -1</clus>
</clustering>
</event>
<event>
 6    1  0.9687246E-012  0.3000000E+03  0.7818608E-02  0.1093470E+00
          1   -1    0    0  502    0  0.00000000000E+00  0.00000000000E+00  0.22763887774E+03  0.22763887774E+03  0.00000000000E+00 0.  1.
         13   -1    0    0    0    0 -0.00000000000E+00 -0.00000000000E+00 -0.27500000000E+03  0.27500000000E+03  0.00000000000E+00 0.  1.
    9000005    2    1    2  501    0 -0.10646849461E+02 -0.31253252007E+02 -0.45666690714E+02  0.46957844425E+03  0.46618488553E+03 0.  0.
         13    1    3    3    0    0  0.15693351632E+03 -0.72469249301E+01 -0.19040419482E+03  0.24684894950E+03  0.00000000000E+00 0.  1.
          1    1    3    3  501    0 -0.16758036578E+03 -0.24006327077E+02  0.14473750411E+03  0.22272949475E+03  0.00000000000E+00 0.  1.
         21    1    1    2  502  501  0.10646849461E+02  0.31253252007E+02 -0.16944315430E+01  0.33060433493E+02  0.00000000000E+00 0.  1.
<scales pt_clust_4="550.00000" pt_clust_5="550.00000" pt_clust_6="33.01698"></scales>
<mgrwt>
<rscale>  0 0.30000000E+03</rscale>
<asrwt>  1 0.33016983E+02</asrwt>
<pdfrwt beam="1">  1        1 0.82777774E+00 0.30000000E+03</pdfrwt>
<pdfrwt beam="2">0</pdfrwt>
<totfact> 0.62408815E-04</totfact>
</mgrwt>
<clustering>
<clus scale="   33.017">  1  6  2 -1</clus>
<clus scale="  466.185">  4  5 -1 -1</clus>
<clus scale="  300.000">  1  4  2 -1</clus>
</clustering>
</event>
<event>
 6    1  0.9687246E-012  0.3000000E+03  0.7818608E-02  0.1093470E+00
          1   -1    0    0  502    0  0.00000000000E+00  0.00000000000E+00  0.22780862814E+03  0.22780862814E+03  0.00000000000E+00 0.  1.
         13   -1    0    0    0    0 -0.00000000000E+00 -0.00000000000E+00 -0.27500000000E+03  0.27500000000E+03  0.00000000000E+00 0.  1.
    9000005    2    1    2  501    0 -0.23331564994E+02  0.29849534224E+02 -0.59832780673E+02  0.46286915099E+03  0.45741942752E+03 0.  0.
         13    1    3    3    0    0 -0.19483995989E+03  0.13892502557E+03 -0.93367645777E+02  0.25686628813E+03  0.00000000000E+00 0.  1.
          3    1    3    3  501    0  0.17150839489E+03 -0.10907549134E+03  0.33534865105E+02  0.20600286286E+03  0.00000000000E+00 0.  1.
         21    1    1    2  502  501  0.23331564994E+02 -0.29849534224E+02  0.12641408814E+02  0.39939477153E+02  0.00000000000E+00 0. -1.
<scales pt_clust_4="550.00000" pt_clust_5="550.00000" pt_clust_6="37.88610"></scales>
<mgrwt>
<rscale>  0 0.30000000E+03</rscale>
<asrwt>  1 0.37886101E+02</asrwt>
<pdfrwt beam="1">  1        1 0.82839501E+00 0.30000000E+03</pdfrwt>
<pdfrwt beam="2">0</pdfrwt>
<totfact> 0.60083331E-04</totfact>
</mgrwt>
<clustering>
<clus scale="   37.886">  1  6  2 -1</clus>
<clus scale="  457.419">  4  5 -1 -1</clus>
<clus scale="  300.000">  1  4  2 -1</clus>
</clustering>
</event>
<event>
 6    1  0.9687246E-012  0.3000000E+03  0.7818608E-02  0.1093470E+00
          1   -1    0    0  502    0  0.00000000000E+00  0.00000000000E+00  0.22296351957E+03  0.22296351957E+03  0.00000000000E+00 0.  1.
         13   -1    0    0    0    0 -0.00000000000E+00 -0.00000000000E+00 -0.27500000000E+03  0.27500000000E+03  0.00000000000E+00 0.  1.
    9000005    2    1    2  501    0  0.26221186462E+02 -0.22596893052E+02 -0.61237171497E+02  0.46214700227E+03  0.45676218138E+03 0.  0.
         13    1    3    3    0    0  0.22878910782E+03  0.27837719770E+02 -0.97531306252E+02  0.25026336168E+03  0.00000000000E+00 0.  1.
          1    1    3    3  501    0 -0.20256792136E+03 -0.50434612822E+02  0.36294134755E+02  0.21188364059E+03  0.00000000000E+00 0.  1.
         21    1    1    2  502  501 -0.26221186462E+02  0.22596893052E+02  0.92006910628E+01  0.35816517295E+02  0.00000000000E+00 0. -1.
<scales pt_clust_4="550.00000" pt_clust_5="550.00000" pt_clust_6="34.61460"></scales>
<mgrwt>
<rscale>  0 0.30000000E+03</rscale>
<asrwt>  1 0.34614595E+02</asrwt>
<pdfrwt beam="1">  1        1 0.81077643E+00 0.30000000E+03</pdfrwt>
<pdfrwt beam="2">0</pdfrwt>
<totfact> 0.86182965E-04</totfact>
</mgrwt>
<clustering>
<clus scale="   34.615">  1  6  2 -1</clus>
<clus scale="  456.762">  4  5 -1 -1</clus>
<clus scale="  300.000">  1  4  2 -1</clus>
</clustering>
</event>
<event>
 6    1  0.9687246E-012  0.3000000E+03  0.7818608E-02  0.1093470E+00
          1   -1    0    0  502    0  0.00000000000E+00  0.00000000000E+00  0.21997713570E+03  0.21997713570E+03  0.00000000000E+00 0.  1.
         13   -1    0    0    0    0 -0.00000000000E+00 -0.00000000000E+00 -0.27500000000E+03  0.27500000000E+03  0.00000000000E+00 0.  1.
    9000005    2    1    2  501    0  0.79849492815E+01 -0.31249526853E+02 -0.53634753447E+02  0.46269371588E+03  0.45844137640E+03 0.  0.
         13    1    3    3    0    0 -0.34285488819E+02 -0.24201822445E+03 -0.22179709543E+02  0.24543890325E+03  0.00000000000E+00 0.  1.
          3    1    3    3  501    0  0.42270438100E+02  0.21076869760E+03 -0.31455043904E+02  0.21725481263E+03  0.00000000000E+00 0.  1.
         21    1    1    2  502  501 -0.79849492815E+01  0.31249526853E+02 -0.13881108528E+01  0.32283419821E+02  0.00000000000E+00 0.  1.
<scales pt_clust_4="550.00000" pt_clust_5="550.00000" pt_clust_6="32.25356"></scales>
<mgrwt>
<rscale>  0 0.30000000E+03</rscale>
<asrwt>  1 0.32253563E+02</asrwt>
<pdfrwt beam="1">  1        1 0.79991686E+00 0.30000000E+03</pdfrwt>
<pdfrwt beam="2">0</pdfrwt>
<totfact> 0.10545779E-03</totfact>
</mgrwt>
<clustering>
<clus scale="   32.254">  1  6  2 -1</clus>
<clus scale="  458.441">  4  5 -1 -1</clus>
<clus scale="  300.000">  1  4  2 -1</clus>
</clustering>
</event>
<event>
 6    1  0.9687246E-012  0.3000000E+03  0.7818608E-02  0.1093470E+00
          1   -1    0    0  502    0  0.00000000000E+00  0.00000000000E+00  0.22838948791E+03  0.22838948791E+03  0.00000000000E+00 0.  1.
         13   -1    0    0    0    0 -0.00000000000E+00 -0.00000000000E+00 -0.27500000000E+03  0.27500000000E+03  0.00000000000E+00 0.  1.
    9000005    2    1    2  501    0 -0.22880753566E+02 -0.23145968177E+02 -0.45972357616E+02  0.47083688482E+03  0.46745550560E+03 0.  0.
         13    1    3    3    0    0 -0.27463909302E+02 -0.21417650140E+02 -0.25720257029E+03  0.25954988772E+03  0.00000000000E+00 0.  1.
          3    1    3    3  501    0  0.45831557361E+01 -0.17283180366E+01  0.21123021267E+03  0.21128699710E+03  0.00000000000E+00 0.  1.
         21    1    1    2  502  501  0.22880753566E+02  0.23145968177E+02 -0.63815447361E+00  0.32552603087E+02  0.00000000000E+00 0.  1.
<scales pt_clust_4="550.00000" pt_clust_5="550.00000" pt_clust_6="32.54635"></scales>
<mgrwt>
<rscale>  0 0.30000000E+03</rscale>
<asrwt>  1 0.32546347E+02</asrwt>
<pdfrwt beam="1">  1        1 0.83050723E+00 0.30000000E+03</pdfrwt>
<pdfrwt beam="2">0</pdfrwt>
<totfact> 0.59345927E-04</totfact>
</mgrwt>
<clustering>
<clus scale="   32.546">  1  6  2 -1</clus>
<clus scale="  467.456">  4  5 -1 -1</clus>
<clus scale="  300.000">  1  4  2 -1</clus>
</clustering>
</event>
<event>
 6    1  0.9687246E-012  0.3000000E+03  0.7818608E-02  0.1093470E+00
          1   -1    0    0  502    0  0.00000000000E+00  0.00000000000E+00  0.23345674076E+03  0.23345674076E+03  0.00000000000E+00 0.  1.
         13   -1    0    0    0    0 -0.00000000000E+00 -0.00000000000E+00 -0.27500000000E+03  0.27500000000E+03  0.00000000000E+00 0.  1.
    9000005    2    1    2  501    0 -0.83333467294E+01 -0.34321449463E+02 -0.41165324319E+02  0.47313607548E+03  0.47001676080E+03 0.  0.
         13    1    3    3    0    0  0.10473645678E+01 -0.22817168234E+03 -0.12676215505E+03  0.26102118218E+03  0.00000000000E+00 0.  1.
          3    1    3    3  501    0 -0.93807112972E+01  0.19385023287E+03  0.85596830732E+02  0.21211489330E+03  0.00000000000E+00 0.  1.
         21    1    1    2  502  501  0.83333467294E+01  0.34321449463E+02 -0.37793492276E+00  0.35320665279E+02  0.00000000000E+00 0.  1.
<scales pt_clust_4="550.00000" pt_clust_5="550.00000" pt_clust_6="35.31864"></scales>
<mgrwt>
<rscale>  0 0.30000000E+03</rscale>
<asrwt>  1 0.35318643E+02</asrwt>
<pdfrwt beam="1">  1        1 0.84893360E+00 0.30000000E+03</pdfrwt>
<pdfrwt beam="2">0</pdfrwt>
<totfact> 0.41570797E-04</totfact>
</mgrwt>
<clustering>
<clus scale="   35.319">  1  6  2 -1</clus>
<clus scale="  470.017">  4  5 -1 -1</clus>
<clus scale="  300.000">  1  4  2 -1</clus>
</clustering>
</event>
<event>
 6    1  0.9687246E-012  0.3000000E+03  0.7818608E-02  0.1093470E+00
          1   -1    0    0  502    0  0.00000000000E+00  0.00000000000E+00  0.22942872529E+03  0.22942872529E+03  0.00000000000E+00 0.  1.
         13   -1    0    0    0    0 -0.00000000000E+00 -0.00000000000E+00 -0.27500000000E+03  0.27500000000E+03  0.00000000000E+00 0.  1.
    9000005    2    1    2  501    0  0.86718821358E+01  0.36081896231E+02 -0.50857732457E+02  0.46694470989E+03  0.46268104388E+03 0.  0.
         13    1    3    3    0    0 -0.12735345049E+02  0.13920426998E+03 -0.22414541914E+03  0.26416128921E+03  0.00000000000E+00 0.  1.
          1    1    3    3  501    0  0.21407227185E+02 -0.10312237375E+03  0.17328768669E+03  0.20278342068E+03  0.00000000000E+00 0.  1.
         21    1    1    2  502  501 -0.86718821358E+01 -0.36081896231E+02  0.52864577477E+01  0.37484015405E+02  0.00000000000E+00 0.  1.
<scales pt_clust_4="550.00000" pt_clust_5="550.00000" pt_clust_6="37.10936"></scales>
<mgrwt>
<rscale>  0 0.30000000E+03</rscale>
<asrwt>  1 0.37109362E+02</asrwt>
<pdfrwt beam="1">  1        1 0.83428627E+00 0.30000000E+03</pdfrwt>
<pdfrwt beam="2">0</pdfrwt>
<totfact> 0.54161612E-04</totfact>
</mgrwt>
<clustering>
<clus scale="   37.109">  1  6  2 -1</clus>
<clus scale="  462.681">  4  5 -1 -1</clus>
<clus scale="  300.000">  1  4  2 -1</clus>
</clustering>
</event>
<event>
 6    1  0.9687246E-012  0.3000000E+03  0.7818608E-02  0.1093470E+00
          1   -1    0    0  502    0  0.00000000000E+00  0.00000000000E+00  0.25291746461E+03  0.25291746461E+03  0.00000000000E+00 0.  1.
         13   -1    0    0    0    0 -0.00000000000E+00 -0.00000000000E+00 -0.27500000000E+03  0.27500000000E+03  0.00000000000E+00 0.  1.
    9000005    2    1    2  501    0  0.32266709352E+02  0.17947608762E+02 -0.61639125612E+02  0.47380664293E+03  0.46832691134E+03 0.  0.
         13    1    3    3    0    0 -0.20099352457E+03  0.85392248498E+02  0.15774307675E+02  0.21894990707E+03  0.00000000000E+00 0.  1.
          3    1    3    3  501    0  0.23326023393E+03 -0.67444639736E+02 -0.77413433287E+02  0.25485673586E+03  0.00000000000E+00 0.  1.
         21    1    1    2  502  501 -0.32266709352E+02 -0.17947608762E+02  0.39556590224E+02  0.54110821679E+02  0.00000000000E+00 0. -1.
<scales pt_clust_4="550.00000" pt_clust_5="550.00000" pt_clust_6="36.92231"></scales>
<mgrwt>
<rscale>  0 0.30000000E+03</rscale>
<asrwt>  1 0.36922313E+02</asrwt>
<pdfrwt beam="1">  1        1 0.91969987E+00 0.30000000E+03</pdfrwt>
<pdfrwt beam="2">0</pdfrwt>
<totfact> 0.42013017E-05</totfact>
</mgrwt>
<clustering>
<clus scale="   36.922">  1  6  2 -1</clus>
<clus scale="  468.327">  4  5 -1 -1</clus>
<clus scale="  300.000">  1  4  2 -1</clus>
</clustering>
</event>
<event>
 6    1  0.9687246E-012  0.3000000E+03  0.7818608E-02  0.1093470E+00
          1   -1    0    0  502    0  0.00000000000E+00  0.00000000000E+00  0.24120009568E+03  0.24120009568E+03  0.00000000000E+00 0.  1.
         13   -1    0    0    0    0 -0.00000000000E+00 -0.00000000000E+00 -0.27500000000E+03  0.27500000000E+03  0.00000000000E+00 0.  1.
    9000005    2    1    2  501    0 -0.31261408466E+02  0.93230328286E+01 -0.51351820340E+02  0.47915600902E+03  0.47527810483E+03 0.  0.
         13    1    3    3    0    0  0.71433494571E+02  0.13408358305E+03  0.15501593726E+03  0.21705089771E+03  0.00000000000E+00 0.  1.
          3    1    3    3  501    0 -0.10269490304E+03 -0.12476055022E+03 -0.20636775760E+03  0.26210511132E+03  0.00000000000E+00 0.  1.
         21    1    1    2  502  501  0.31261408466E+02 -0.93230328286E+01  0.17551916024E+02  0.37044086661E+02  0.00000000000E+00 0.  1.
<scales pt_clust_4="550.00000" pt_clust_5="550.00000" pt_clust_6="32.62200"></scales>
<mgrwt>
<rscale>  0 0.30000000E+03</rscale>
<asrwt>  1 0.32621996E+02</asrwt>
<pdfrwt beam="1">  1        1 0.87709126E+00 0.30000000E+03</pdfrwt>
<pdfrwt beam="2">0</pdfrwt>
<totfact> 0.21633811E-04</totfact>
</mgrwt>
<clustering>
<clus scale="   32.622">  1  6  2 -1</clus>
<clus scale="  475.278">  4  5 -1 -1</clus>
<clus scale="  300.000">  1  4  2 -1</clus>
</clustering>
</event>
<event>
 6    1  0.9687246E-012  0.3000000E+03  0.7818608E-02  0.1093470E+00
          1   -1    0    0  502    0  0.00000000000E+00  0.00000000000E+00  0.23306190457E+03  0.23306190457E+03  0.00000000000E+00 0.  1.
         13   -1    0    0    0    0 -0.00000000000E+00 -0.00000000000E+00 -0.27500000000E+03  0.27500000000E+03  0.00000000000E+00 0.  1.
    9000005    2    1    2  501    0 -0.36804066877E+02 -0.22779644256E+01 -0.53424894141E+02  0.46943969587E+03  0.46492975844E+03 0.  0.
         13    1    3    3    0    0 -0.20415361504E+03 -0.40689086489E+02 -0.16417573222E+03  0.26511878723E+03  0.00000000000E+00 0.  1.
          1    1    3    3  501    0  0.16734954817E+03  0.38411122063E+02  0.11075083808E+03  0.20432090863E+03  0.00000000000E+00 0.  1.
         21    1    1    2  502  501  0.36804066877E+02  0.22779644256E+01  0.11486798712E+02  0.38622208705E+02  0.00000000000E+00 0.  1.
<scales pt_clust_4="550.00000" pt_clust_5="550.00000" pt_clust_6="36.87450"></scales>
<mgrwt>
<rscale>  0 0.30000000E+03</rscale>
<asrwt>  1 0.36874496E+02</asrwt>
<pdfrwt beam="1">  1        1 0.84749783E+00 0.30000000E+03</pdfrwt>
<pdfrwt beam="2">0</pdfrwt>
<totfact> 0.42508975E-04</totfact>
</mgrwt>
<clustering>
<clus scale="   36.874">  1  6  2 -1</clus>
<clus scale="  464.930">  4  5 -1 -1</clus>
<clus scale="  300.000">  1  4  2 -1</clus>
</clustering>
</event>
<event>
 6    1  0.9687246E-012  0.3000000E+03  0.7818608E-02  0.1093470E+00
          1   -1    0    0  502    0  0.00000000000E+00  0.00000000000E+00  0.23729276845E+03  0.23729276845E+03  0.00000000000E+00 0.  1.
         13   -1    0    0    0    0 -0.00000000000E+00 -0.00000000000E+00 -0.27500000000E+03  0.27500000000E+03  0.00000000000E+00 0.  1.
    9000005    2    1    2  501    0  0.40127199626E+02  0.56192507688E+01 -0.18154579210E+02  0.46730305471E+03  0.46518898102E+03 0.  0.
         13    1    3    3    0    0 -0.37259078252E+01  0.12593398003E+03 -0.20509870732E+03  0.24070465192E+03  0.00000000000E+00 0.  1.
          3    1    3    3  501    0  0.43853107451E+02 -0.12031472926E+03  0.18694412811E+03  0.22659840278E+03  0.00000000000E+00 0.  1.
         21    1    1    2  502  501 -0.40127199626E+02 -0.56192507688E+01 -0.19552652341E+02  0.44989713742E+02  0.00000000000E+00 0. -1.
<scales pt_clust_4="550.00000" pt_clust_5="550.00000" pt_clust_6="40.51876"></scales>
<mgrwt>
<rscale>  0 0.30000000E+03</rscale>
<asrwt>  1 0.40518758E+02</asrwt>
<pdfrwt beam="1">  1        1 0.86288279E+00 0.30000000E+03</pdfrwt>
<pdfrwt beam="2">0</pdfrwt>
<totfact> 0.29312637E-04</totfact>
</mgrwt>
<clustering>
<clus scale="   40.519">  1  6  2 -1</clus>
<clus scale="  465.189">  4  5 -1 -1</clus>
<clus scale="  300.000">  1  4  2 -1</clus>
</clustering>
</event>
<event>
 6    1  0.9687246E-012  0.3000000E+03  0.7818608E-02  0.1093470E+00
          1   -1    0    0  502    0  0.00000000000E+00  0.00000000000E+00  0.24368723821E+03  0.24368723821E+03  0.00000000000E+00 0.  1.
         13   -1    0    0    0    0 -0.00000000000E+00 -0.00000000000E+00 -0.27500000000E+03  0.27500000000E+03  0.00000000000E+00 0.  1.
    9000005    2    1    2  501    0 -0.31351019054E+02  0.23237493219E+02 -0.48758683978E+02  0.47594115432E+03  0.47182592725E+03 0.  0.
         13    1    3    3    0    0 -0.23159450448E+03  0.10382316101E+03  0.36152619043E+01  0.25382736926E+03  0.00000000000E+00 0.  1.
          3    1    3    3  501    0  0.20024348543E+03 -0.80585667790E+02 -0.52373945882E+02  0.22211378506E+03  0.00000000000E+00 0.  1.
         21    1    1    2  502  501  0.31351019054E+02 -0.23237493219E+02  0.17445922192E+02  0.42746083890E+02  0.00000000000E+00 0. -1.
<scales pt_clust_4="550.00000" pt_clust_5="550.00000" pt_clust_6="39.02393"></scales>
<mgrwt>
<rscale>  0 0.30000000E+03</rscale>
<asrwt>  1 0.39023935E+02</asrwt>
<pdfrwt beam="1">  1        1 0.88613541E+00 0.30000000E+03</pdfrwt>
<pdfrwt beam="2">0</pdfrwt>
<totfact> 0.16044567E-04</totfact>
</mgrwt>
<clustering>
<clus scale="   39.024">  1  6  2 -1</clus>
<clus scale="  471.826">  4  5 -1 -1</clus>
<clus scale="  300.000">  1  4  2 -1</clus>
</clustering>
</event>
<event>
 6    1  0.9687246E-012  0.3000000E+03  0.7818608E-02  0.1093470E+00
          1   -1    0    0  502    0  0.00000000000E+00  0.00000000000E+00  0.23833062991E+03  0.23833062991E+03  0.00000000000E+00 0.  1.
         13   -1    0    0    0    0 -0.00000000000E+00 -0.00000000000E+00 -0.27500000000E+03  0.27500000000E+03  0.00000000000E+00 0.  1.
    9000005    2    1    2  501    0  0.32939550298E+02  0.27978675013E+02 -0.49934129942E+02  0.46812251025E+03  0.46344087761E+03 0.  0.
         13    1    3    3    0    0 -0.20115085794E+02 -0.63227272800E+02 -0.24094084593E+03  0.24990957553E+03  0.00000000000E+00 0.  1.
          1    1    3    3  501    0  0.53054636092E+02  0.91205947812E+02  0.19100671599E+03  0.21821293472E+03  0.00000000000E+00 0.  1.
         21    1    1    2  502  501 -0.32939550298E+02 -0.27978675013E+02  0.13264759853E+02  0.45208119661E+02  0.00000000000E+00 0. -1.
<scales pt_clust_4="550.00000" pt_clust_5="550.00000" pt_clust_6="43.21829"></scales>
<mgrwt>
<rscale>  0 0.30000000E+03</rscale>
<asrwt>  1 0.43218286E+02</asrwt>
<pdfrwt beam="1">  1        1 0.86665684E+00 0.30000000E+03</pdfrwt>
<pdfrwt beam="2">0</pdfrwt>
<totfact> 0.26388360E-04</totfact>
</mgrwt>
<clustering>
<clus scale="   43.218">  1  6  2 -1</clus>
<clus scale="  463.441">  4  5 -1 -1</clus>
<clus scale="  300.000">  1  4  2 -1</clus>
</clustering>
</event>
<event>
 6    1  0.9687246E-012  0.3000000E+03  0.7818608E-02  0.1093470E+00
          1   -1    0    0  502    0  0.00000000000E+00  0.00000000000E+00  0.22428249539E+03  0.22428249539E+03  0.00000000000E+00 0.  1.
         13   -1    0    0    0    0 -0.00000000000E+00 -0.00000000000E+00 -0.27500000000E+03  0.27500000000E+03  0.00000000000E+00 0.  1.
    9000005    2    1    2  501    0  0.30019866953E+02 -0.81174609408E+01 -0.53986252971E+02  0.46801317656E+03  0.46384774694E+03 0.  0.
         13    1    3    3    0    0 -0.18975219640E+01 -0.40774828455E+02 -0.25685009597E+03  0.26007337238E+03  0.00000000000E+00 0.  1.
          1    1    3    3  501    0  0.31917388917E+02  0.32657367515E+02  0.20286384299E+03  0.20793980418E+03  0.00000000000E+00 0.  1.
         21    1    1    2  502  501 -0.30019866953E+02  0.81174609408E+01  0.32687483613E+01  0.31269318826E+02  0.00000000000E+00 0.  1.
<scales pt_clust_4="550.00000" pt_clust_5="550.00000" pt_clust_6="31.09800"></scales>
<mgrwt>
<rscale>  0 0.30000000E+03</rscale>
<asrwt>  1 0.31098000E+02</asrwt>
<pdfrwt beam="1">  1        1 0.81557271E+00 0.30000000E+03</pdfrwt>
<pdfrwt beam="2">0</pdfrwt>
<totfact> 0.80538499E-04</totfact>
</mgrwt>
<clustering>
<clus scale="   31.098">  1  6  2 -1</clus>
<clus scale="  463.848">  4  5 -1 -1</clus>
<clus scale="  300.000">  1  4  2 -1</clus>
</clustering>
</event>
<event>
 6    1  0.9687246E-012  0.3000000E+03  0.7818608E-02  0.1093470E+00
          1   -1    0    0  502    0  0.00000000000E+00  0.00000000000E+00  0.23251234330E+03  0.23251234330E+03  0.00000000000E+00 0.  1.
         13   -1    0    0    0    0 -0.00000000000E+00 -0.00000000000E+00 -0.27500000000E+03  0.27500000000E+03  0.00000000000E+00 0.  1.
    9000005    2    1    2  501    0 -0.30098695338E+02 -0.63563565516E+01 -0.46942401418E+02  0.47642891556E+03  0.47311160185E+03 0.  0.
         13    1    3    3    0    0 -0.15517080219E+02 -0.19001459647E+03 -0.16954201852E+03  0.25512903146E+03  0.00000000000E+00 0.  1.
          3    1    3    3  501    0 -0.14581615119E+02  0.18365823992E+03  0.12259961710E+03  0.22129988410E+03  0.00000000000E+00 0.  1.
         21    1    1    2  502  501  0.30098695338E+02  0.63563565516E+01  0.44547447211E+01  0.31083427742E+02  0.00000000000E+00 0.  1.
<scales pt_clust_4="550.00000" pt_clust_5="550.00000" pt_clust_6="30.76255"></scales>
<mgrwt>
<rscale>  0 0.30000000E+03</rscale>
<asrwt>  1 0.30762554E+02</asrwt>
<pdfrwt beam="1">  1        1 0.84549943E+00 0.30000000E+03</pdfrwt>
<pdfrwt beam="2">0</pdfrwt>
<totfact> 0.45835008E-04</totfact>
</mgrwt>
<clustering>
<clus scale="   30.763">  1  6  2 -1</clus>
<clus scale="  473.112">  4  5 -1 -1</clus>
<clus scale="  300.000">  1  4  2 -1</clus>
</clustering>
</event>
<event>
 6    1  0.9687246E-012  0.3000000E+03  0.7818608E-02  0.1093470E+00
          1   -1    0    0  502    0  0.00000000000E+00  0.00000000000E+00  0.24066207977E+03  0.24066207977E+03  0.00000000000E+00 0.  1.
         13   -1    0    0    0    0 -0.00000000000E+00 -0.00000000000E+00 -0.27500000000E+03  0.27500000000E+03  0.00000000000E+00 0.  1.
    9000005    2    1    2  501    0 -0.19553744604E+02  0.30454826804E+02  0.48116241377E+01  0.46234667649E+03  0.46090286626E+03 0.  0.
         13    1    3    3    0    0  0.31190714128E+02 -0.55817425515E+01 -0.22348408729E+03  0.22571919229E+03  0.00000000000E+00 0.  1.
          1    1    3    3  501    0 -0.50744458731E+02  0.36036569356E+02  0.22829571143E+03  0.23662748420E+03  0.00000000000E+00 0.  1.
         21    1    1    2  502  501  0.19553744604E+02 -0.30454826804E+02 -0.39149544363E+02  0.53315403286E+02  0.00000000000E+00 0. -1.
<scales pt_clust_4="550.00000" pt_clust_5="550.00000" pt_clust_6="36.19180"></scales>
<mgrwt>
<rscale>  0 0.30000000E+03</rscale>
<asrwt>  1 0.36191805E+02</asrwt>
<pdfrwt beam="1">  1        1 0.87513484E+00 0.30000000E+03</pdfrwt>
<pdfrwt beam="2">0</pdfrwt>
<totfact> 0.22279329E-04</totfact>
</mgrwt>
<clustering>
<clus scale="   36.192">  1  6  2 -1</clus>
<clus scale="  460.903">  4  5 -1 -1</clus>
<clus scale="  300.000">  1  4  2 -1</clus>
</clustering>
</event>
<event>
 6    1  0.9687246E-012  0.3000000E+03  0.7818608E-02  0.1093470E+00
          1   -1    0    0  502    0  0.00000000000E+00  0.00000000000E+00  0.25573997378E+03  0.25573997378E+03  0.00000000000E+00 0.  1.
         13   -1    0    0    0    0 -0.00000000000E+00 -0.00000000000E+00 -0.27500000000E+03  0.27500000000E+03  0.00000000000E+00 0.  1.
    9000005    2    1    2  501    0  0.25848470314E+02  0.18891293965E+02 -0.46170462471E+02  0.48891658338E+03  0.48567755712E+03 0.  0.
         13    1    3    3    0    0  0.23811299653E+03  0.55383119077E+02  0.55588256307E+02  0.25070928031E+03  0.00000000000E+00 0.  1.
          1    1    3    3  501    0 -0.21226452621E+03 -0.36491825112E+02 -0.10175871878E+03  0.23820730307E+03  0.00000000000E+00 0.  1.
         21    1    1    2  502  501 -0.25848470314E+02 -0.18891293965E+02  0.26910436246E+02  0.41823390396E+02  0.00000000000E+00 0. -1.
<scales pt_clust_4="550.00000" pt_clust_5="550.00000" pt_clust_6="32.01600"></scales>
<mgrwt>
<rscale>  0 0.30000000E+03</rscale>
<asrwt>  1 0.32016002E+02</asrwt>
<pdfrwt beam="1">  1        1 0.92996354E+00 0.30000000E+03</pdfrwt>
<pdfrwt beam="2">0</pdfrwt>
<totfact> 0.26773794E-05</totfact>
</mgrwt>
<clustering>
<clus scale="   32.016">  1  6  2 -1</clus>
<clus scale="  485.678">  4  5 -1 -1</clus>
<clus scale="  300.000">  1  4  2 -1</clus>
</clustering>
</event>
<event>
 6    1  0.9687246E-012  0.3000000E+03  0.7818608E-02  0.1093470E+00
          1   -1    0    0  502    0  0.00000000000E+00  0.00000000000E+00  0.23213140027E+03  0.23213140027E+03  0.00000000000E+00 0.  1.
         13   -1    0    0    0    0 -0.00000000000E+00 -0.00000000000E+00 -0.27500000000E+03  0.27500000000E+03  0.00000000000E+00 0.  1.
    9000005    2    1    2  501    0 -0.26543460153E+02  0.29893110281E+02 -0.61895282048E+02  0.46285761616E+03  0.45695513300E+03 0.  0.
         13    1    3    3    0    0 -0.18992430268E+02  0.15027929457E+03 -0.21807479786E+03  0.26552061360E+03  0.00000000000E+00 0.  1.
          1    1    3    3  501    0 -0.75510298855E+01 -0.12038618429E+03  0.15617951582E+03  0.19733700256E+03  0.00000000000E+00 0.  1.
         21    1    1    2  502  501  0.26543460153E+02 -0.29893110281E+02  0.19026682315E+02  0.44273784106E+02  0.00000000000E+00 0. -1.
<scales pt_clust_4="550.00000" pt_clust_5="550.00000" pt_clust_6="39.97691"></scales>
<mgrwt>
<rscale>  0 0.30000000E+03</rscale>
<asrwt>  1 0.39976910E+02</asrwt>
<pdfrwt beam="1">  1        1 0.84411418E+00 0.30000000E+03</pdfrwt>
<pdfrwt beam="2">0</pdfrwt>
<totfact> 0.44872687E-04</totfact>
</mgrwt>
<clustering>
<clus scale="   39.977">  1  6  2 -1</clus>
<clus scale="  456.955">  4  5 -1 -1</clus>
<clus scale="  300.000">  1  4  2 -1</clus>
</clustering>
</event>
<event>
 6    1  0.9687246E-012  0.3000000E+03  0.7818608E-02  0.1093470E+00
          1   -1    0    0  502    0  0.00000000000E+00  0.00000000000E+00  0.24122055284E+03  0.24122055284E+03  0.00000000000E+00 0.  1.
         13   -1    0    0    0    0 -0.00000000000E+00 -0.00000000000E+00 -0.27500000000E+03  0.27500000000E+03  0.00000000000E+00 0.  1.
    9000005    2    1    2  501    0  0.36380924467E+02  0.12223792277E+02 -0.69268074352E+02  0.46394785038E+03  0.45713952901E+03 0.  0.
         13    1    3    3    0    0  0.86259942331E+02 -0.18646436105E+03 -0.13842934720E+03  0.24773457522E+03  0.00000000000E+00 0.  1.
          1    1    3    3  501    0 -0.49879017865E+02  0.19868815332E+03  0.69161272850E+02  0.21621327516E+03  0.00000000000E+00 0.  1.
         21    1    1    2  502  501 -0.36380924467E+02 -0.12223792277E+02  0.35488627192E+02  0.52272702462E+02  0.00000000000E+00 0. -1.
<scales pt_clust_4="550.00000" pt_clust_5="550.00000" pt_clust_6="38.37959"></scales>
<mgrwt>
<rscale>  0 0.30000000E+03</rscale>
<asrwt>  1 0.38379588E+02</asrwt>
<pdfrwt beam="1">  1        1 0.87716565E+00 0.30000000E+03</pdfrwt>
<pdfrwt beam="2">0</pdfrwt>
<totfact> 0.20947191E-04</totfact>
</mgrwt>
<clustering>
<clus scale="   38.380">  1  6  2 -1</clus>
<clus scale="  457.140">  4  5 -1 -1</clus>
<clus scale="  300.000">  1  4  2 -1</clus>
</clustering>
</event>
<event>
 6    1  0.9687246E-012  0.3000000E+03  0.7818608E-02  0.1093470E+00
          1   -1    0    0  502    0  0.00000000000E+00  0.00000000000E+00  0.25404393474E+03  0.25404393474E+03  0.00000000000E+00 0.  1.
         13   -1    0    0    0    0 -0.00000000000E+00 -0.00000000000E+00 -0.27500000000E+03  0.27500000000E+03  0.00000000000E+00 0.  1.
    9000005    2    1    2  501    0  0.33321411181E+02  0.37720576015E+02 -0.57553922388E+02  0.46681402678E+03  0.46051028579E+03 0.  0.
         13    1    3    3    0    0  0.64392761626E+02 -0.11604125289E+03  0.15409750998E+03  0.20336676893E+03  0.00000000000E+00 0.  1.
          1    1    3    3  501    0 -0.31071350446E+02  0.15376182891E+03 -0.21165143237E+03  0.26344725785E+03  0.00000000000E+00 0.  1.
         21    1    1    2  502  501 -0.33321411181E+02 -0.37720576015E+02  0.36597857132E+02  0.62229907960E+02  0.00000000000E+00 0.  1.
<scales pt_clust_4="550.00000" pt_clust_5="550.00000" pt_clust_6="50.33049"></scales>
<mgrwt>
<rscale>  0 0.30000000E+03</rscale>
<asrwt>  1 0.50330491E+02</asrwt>
<pdfrwt beam="1">  1        1 0.92379613E+00 0.30000000E+03</pdfrwt>
<pdfrwt beam="2">0</pdfrwt>
<totfact> 0.32520928E-05</totfact>
</mgrwt>
<clustering>
<clus scale="   50.330">  1  6  2 -1</clus>
<clus scale="  460.510">  4  5 -1 -1</clus>
<clus scale="  300.000">  1  4  2 -1</clus>
</clustering>
</event>
<event>
 6    1  0.9687246E-012  0.3000000E+03  0.7818608E-02  0.1093470E+00
          1   -1    0    0  502    0  0.00000000000E+00  0.00000000000E+00  0.21970130322E+03  0.21970130322E+03  0.00000000000E+00 0.  1.
         13   -1    0    0    0    0 -0.00000000000E+00 -0.00000000000E+00 -0.27500000000E+03  0.27500000000E+03  0.00000000000E+00 0.  1.
    9000005    2    1    2  501    0 -0.16760991064E+02  0.29815608375E+02 -0.52220558923E+02  0.46035925528E+03  0.45610717580E+03 0.  0.
         13    1    3    3    0    0 -0.14805534982E+03 -0.14828507163E+03 -0.10277696330E+03  0.23339227336E+03  0.00000000000E+00 0.  1.
          1    1    3    3  501    0  0.13129435875E+03  0.17810068001E+03  0.50556404374E+02  0.22696698192E+03  0.00000000000E+00 0.  1.
         21    1    1    2  502  501  0.16760991064E+02 -0.29815608375E+02 -0.30781378581E+01  0.34342047942E+02  0.00000000000E+00 0. -1.
<scales pt_clust_4="550.00000" pt_clust_5="550.00000" pt_clust_6="34.20382"></scales>
<mgrwt>
<rscale>  0 0.30000000E+03</rscale>
<asrwt>  1 0.34203820E+02</asrwt>
<pdfrwt beam="1">  1        1 0.79891383E+00 0.30000000E+03</pdfrwt>
<pdfrwt beam="2">0</pdfrwt>
<totfact> 0.10605225E-03</totfact>
</mgrwt>
<clustering>
<clus scale="   34.204">  1  6  2 -1</clus>
<clus scale="  456.107">  4  5 -1 -1</clus>
<clus scale="  300.000">  1  4  2 -1</clus>
</clustering>
</event>
<event>
 6    1  0.9687246E-012  0.3000000E+03  0.7818608E-02  0.1093470E+00
          1   -1    0    0  502    0  0.00000000000E+00  0.00000000000E+00  0.23000545982E+03  0.23000545982E+03  0.00000000000E+00 0.  1.
         13   -1    0    0    0    0 -0.00000000000E+00 -0.00000000000E+00 -0.27500000000E+03  0.27500000000E+03  0.00000000000E+00 0.  1.
    9000005    2    1    2  501    0  0.22649354706E+02 -0.23141716984E+02 -0.61652316170E+02  0.46859098695E+03  0.46338749727E+03 0.  0.
         13    1    3    3    0    0 -0.68002872425E+01 -0.24017357464E+03  0.27917493728E+01  0.24028604563E+03  0.00000000000E+00 0.  1.
          3    1    3    3  501    0  0.29449641949E+02  0.21703185765E+03 -0.64444065543E+02  0.22830494132E+03  0.00000000000E+00 0.  1.
         21    1    1    2  502  501 -0.22649354706E+02  0.23141716984E+02  0.16657775989E+02  0.36414472871E+02  0.00000000000E+00 0. -1.
<scales pt_clust_4="550.00000" pt_clust_5="550.00000" pt_clust_6="32.38105"></scales>
<mgrwt>
<rscale>  0 0.30000000E+03</rscale>
<asrwt>  1 0.32381049E+02</asrwt>
<pdfrwt beam="1">  1        1 0.83638349E+00 0.30000000E+03</pdfrwt>
<pdfrwt beam="2">0</pdfrwt>
<totfact> 0.53641034E-04</totfact>
</mgrwt>
<clustering>
<clus scale="   32.381">  1  6  2 -1</clus>
<clus scale="  463.387">  4  5 -1 -1</clus>
<clus scale="  300.000">  1  4  2 -1</clus>
</clustering>
</event>
<event>
 6    1  0.9687246E-012  0.3000000E+03  0.7818608E-02  0.1093470E+00
          1   -1    0    0  502    0  0.00000000000E+00  0.00000000000E+00  0.24030637244E+03  0.24030637244E+03  0.00000000000E+00 0.  1.
         13   -1    0    0    0    0 -0.00000000000E+00 -0.00000000000E+00 -0.27500000000E+03  0.27500000000E+03  0.00000000000E+00 0.  1.
    9000005    2    1    2  501    0 -0.40658418041E+02  0.30551009992E+02 -0.37790886857E+02  0.46435478577E+03  0.46001167895E+03 0.  0.
         13    1    3    3    0    0  0.10584386761E+03  0.20233594697E+03 -0.63790571167E+02  0.23709069302E+03  0.00000000000E+00 0.  1.
          3    1    3    3  501    0 -0.14650228565E+03 -0.17178493697E+03  0.25999684310E+02  0.22726409276E+03  0.00000000000E+00 0.  1.
         21    1    1    2  502  501  0.40658418041E+02 -0.30551009992E+02  0.30972592992E+01  0.50951586671E+02  0.00000000000E+00 0. -1.
<scales pt_clust_4="550.00000" pt_clust_5="550.00000" pt_clust_6="50.85736"></scales>
<mgrwt>
<rscale>  0 0.30000000E+03</rscale>
<asrwt>  1 0.50857361E+02</asrwt>
<pdfrwt beam="1">  1        1 0.87384135E+00 0.30000000E+03</pdfrwt>
<pdfrwt beam="2">0</pdfrwt>
<totfact> 0.21619242E-04</totfact>
</mgrwt>
<clustering>
<clus scale="   50.857">  1  6  2 -1</clus>
<clus scale="  460.012">  4  5 -1 -1</clus>
<clus scale="  300.000">  1  4  2 -1</clus>
</clustering>
</event>
<event>
 6    1  0.9687246E-012  0.3000000E+03  0.7818608E-02  0.1093470E+00
          1   -1    0    0  502    0  0.00000000000E+00  0.00000000000E+00  0.22670887883E+03  0.22670887883E+03  0.00000000000E+00 0.  1.
         13   -1    0    0    0    0 -0.00000000000E+00 -0.00000000000E+00 -0.27500000000E+03  0.27500000000E+03  0.00000000000E+00 0.  1.
    9000005    2    1    2  501    0  0.30456234733E+02  0.92156971200E+01 -0.51881837893E+02  0.46968694019E+03  0.46572694294E+03 0.  0.
         13    1    3    3    0    0 -0.20011625806E+03 -0.80504590282E+02 -0.53621719990E+02  0.22226739449E+03  0.00000000000E+00 0.  1.
          3    1    3    3  501    0  0.23057249280E+03  0.89720287402E+02  0.17398820972E+01  0.24741954570E+03  0.00000000000E+00 0.  1.
         21    1    1    2  502  501 -0.30456234733E+02 -0.92156971200E+01  0.35907167227E+01  0.32021938637E+02  0.00000000000E+00 0. -1.
<scales pt_clust_4="550.00000" pt_clust_5="550.00000" pt_clust_6="31.81998"></scales>
<mgrwt>
<rscale>  0 0.30000000E+03</rscale>
<asrwt>  1 0.31819983E+02</asrwt>
<pdfrwt beam="1">  1        1 0.82439592E+00 0.30000000E+03</pdfrwt>
<pdfrwt beam="2">0</pdfrwt>
<totfact> 0.67333202E-04</totfact>
</mgrwt>
<clustering>
<clus scale="   31.820">  1  6  2 -1</clus>
<clus scale="  465.727">  4  5 -1 -1</clus>
<clus scale="  300.000">  1  4  2 -1</clus>
</clustering>
</event>
<event>
 6    1  0.9687246E-012  0.3000000E+03  0.7818608E-02  0.1093470E+00
          1   -1    0    0  502    0  0.00000000000E+00  0.00000000000E+00  0.23853194221E+03  0.23853194221E+03  0.00000000000E+00 0.  1.
         13   -1    0    0    0    0 -0.00000000000E+00 -0.00000000000E+00 -0.27500000000E+03  0.27500000000E+03  0.00000000000E+00 0.  1.
    9000005    2    1    2  501    0 -0.45565282743E+01 -0.35351303165E+02 -0.58889474729E+02  0.47142260212E+03  0.46636983497E+03 0.  0.
         13    1    3    3    0    0  0.10859882434E+03 -0.19924596993E+01  0.17700525364E+03  0.20767410613E+03  0.00000000000E+00 0.  1.
          3    1    3    3  501    0 -0.11315535261E+03 -0.33358843466E+02 -0.23589472837E+03  0.26374849598E+03  0.00000000000E+00 0.  1.
         21    1    1    2  502  501  0.45565282743E+01  0.35351303165E+02  0.22421416935E+02  0.42109340090E+02  0.00000000000E+00 0.  1.
<scales pt_clust_4="550.00000" pt_clust_5="550.00000" pt_clust_6="35.64375"></scales>
<mgrwt>
<rscale>  0 0.30000000E+03</rscale>
<asrwt>  1 0.35643745E+02</asrwt>
<pdfrwt beam="1">  1        1 0.86738888E+00 0.30000000E+03</pdfrwt>
<pdfrwt beam="2">0</pdfrwt>
<totfact> 0.26855791E-04</totfact>
</mgrwt>
<clustering>
<clus scale="   35.644">  1  6  2 -1</clus>
<clus scale="  466.370">  4  5 -1 -1</clus>
<clus scale="  300.000">  1  4  2 -1</clus>
</clustering>
</event>
<event>
 6    1  0.9687246E-012  0.3000000E+03  0.7818608E-02  0.1093470E+00
          1   -1    0    0  502    0  0.00000000000E+00  0.00000000000E+00  0.22510581703E+03  0.22510581703E+03  0.00000000000E+00 0.  1.
         13   -1    0    0    0    0 -0.00000000000E+00 -0.00000000000E+00 -0.27500000000E+03  0.27500000000E+03  0.00000000000E+00 0.  1.
    9000005    2    1    2  501    0  0.13364851716E+02 -0.29442938881E+02 -0.47691542065E+02  0.46769659707E+03  0.46413372838E+03 0.  0.
         13    1    3    3    0    0 -0.19643505125E+03 -0.53601353245E+02 -0.12939923850E+03  0.24125504628E+03  0.00000000000E+00 0.  1.
          3    1    3    3  501    0  0.20979990297E+03  0.24158414364E+02  0.81707696431E+02  0.22644155080E+03  0.00000000000E+00 0.  1.
         21    1    1    2  502  501 -0.13364851716E+02  0.29442938881E+02 -0.22026409040E+01  0.32409219958E+02  0.00000000000E+00 0. -1.
<scales pt_clust_4="550.00000" pt_clust_5="550.00000" pt_clust_6="32.33428"></scales>
<mgrwt>
<rscale>  0 0.30000000E+03</rscale>
<asrwt>  1 0.32334284E+02</asrwt>
<pdfrwt beam="1">  1        1 0.81856661E+00 0.30000000E+03</pdfrwt>
<pdfrwt beam="2">0</pdfrwt>
<totfact> 0.75520293E-04</totfact>
</mgrwt>
<clustering>
<clus scale="   32.334">  1  6  2 -1</clus>
<clus scale="  464.134">  4  5 -1 -1</clus>
<clus scale="  300.000">  1  4  2 -1</clus>
</clustering>
</event>
<event>
 6    1  0.9687246E-012  0.3000000E+03  0.7818608E-02  0.1093470E+00
          1   -1    0    0  502    0  0.00000000000E+00  0.00000000000E+00  0.23091056286E+03  0.23091056286E+03  0.00000000000E+00 0.  1.
         13   -1    0    0    0    0 -0.00000000000E+00 -0.00000000000E+00 -0.27500000000E+03  0.27500000000E+03  0.00000000000E+00 0.  1.
    9000005    2    1    2  501    0 -0.17477426492E+02  0.26052320647E+02 -0.41289542041E+02  0.47441416211E+03  0.47157161394E+03 0.  0.
         13    1    3    3    0    0 -0.10648332412E+03  0.59372516453E+02 -0.23157938119E+03  0.26171129860E+03  0.00000000000E+00 0.  1.
          3    1    3    3  501    0  0.89005897630E+02 -0.33320195806E+02  0.19028983914E+03  0.21270286350E+03  0.00000000000E+00 0.  1.
         21    1    1    2  502  501  0.17477426492E+02 -0.26052320647E+02 -0.27998950988E+01  0.31496400754E+02  0.00000000000E+00 0. -1.
<scales pt_clust_4="550.00000" pt_clust_5="550.00000" pt_clust_6="31.37172"></scales>
<mgrwt>
<rscale>  0 0.30000000E+03</rscale>
<asrwt>  1 0.31371720E+02</asrwt>
<pdfrwt beam="1">  1        1 0.83967477E+00 0.30000000E+03</pdfrwt>
<pdfrwt beam="2">0</pdfrwt>
<totfact> 0.51033748E-04</totfact>
</mgrwt>
<clustering>
<clus scale="   31.372">  1  6  2 -1</clus>
<clus scale="  471.572">  4  5 -1 -1</clus>
<clus scale="  300.000">  1  4  2 -1</clus>
</clustering>
</event>
<event>
 6    1  0.9687246E-012  0.3000000E+03  0.7818608E-02  0.1093470E+00
          1   -1    0    0  502    0  0.00000000000E+00  0.00000000000E+00  0.22684983669E+03  0.22684983669E+03  0.00000000000E+00 0.  1.
         13   -1    0    0    0    0 -0.00000000000E+00 -0.00000000000E+00 -0.27500000000E+03  0.27500000000E+03  0.00000000000E+00 0.  1.
    9000005    2    1    2  501    0  0.19415785007E+02 -0.23037065629E+02 -0.41982354879E+02  0.47109726020E+03  0.46825466506E+03 0.  0.
         13    1    3    3    0    0 -0.58175329213E+02  0.20395498905E+03 -0.82956267948E+02  0.22773613872E+03  0.00000000000E+00 0.  1.
          1    1    3    3  501    0  0.77591114220E+02 -0.22699205468E+03  0.40973913069E+02  0.24336112148E+03  0.00000000000E+00 0.  1.
         21    1    1    2  502  501 -0.19415785007E+02  0.23037065629E+02 -0.61678084261E+01  0.30752576493E+02  0.00000000000E+00 0. -1.
<scales pt_clust_4="550.00000" pt_clust_5="550.00000" pt_clust_6="30.12773"></scales>
<mgrwt>
<rscale>  0 0.30000000E+03</rscale>
<asrwt>  1 0.30127728E+02</asrwt>
<pdfrwt beam="1">  1        1 0.82490850E+00 0.30000000E+03</pdfrwt>
<pdfrwt beam="2">0</pdfrwt>
<totfact> 0.67327811E-04</totfact>
</mgrwt>
<clustering>
<clus scale="   30.128">  1  6  2 -1</clus>
<clus scale="  468.255">  4  5 -1 -1</clus>
<clus scale="  300.000">  1  4  2 -1</clus>
</clustering>
</event>
<event>
 6    1  0.9687246E-012  0.3000000E+03  0.7818608E-02  0.1093470E+00
          1   -1    0    0  502    0  0.00000000000E+00  0.00000000000E+00  0.24423543596E+03  0.24423543596E+03  0.00000000000E+00 0.  1.
         13   -1    0    0    0    0 -0.00000000000E+00 -0.00000000000E+00 -0.27500000000E+03  0.27500000000E+03  0.00000000000E+00 0.  1.
    9000005    2    1    2  501    0 -0.12589066609E+02  0.34783099657E+02 -0.42486597792E+02  0.48043138082E+03  0.47711723095E+03 0.  0.
         13    1    3    3    0    0 -0.22600295948E+03  0.10747200086E+03 -0.48437967161E+02  0.25489959852E+03  0.00000000000E+00 0.  1.
          1    1    3    3  501    0  0.21341389287E+03 -0.72688901205E+02  0.59513693689E+01  0.22553178230E+03  0.00000000000E+00 0.  1.
         21    1    1    2  502  501  0.12589066609E+02 -0.34783099657E+02  0.11722033749E+02  0.38804055136E+02  0.00000000000E+00 0.  1.
<scales pt_clust_4="550.00000" pt_clust_5="550.00000" pt_clust_6="36.99120"></scales>
<mgrwt>
<rscale>  0 0.30000000E+03</rscale>
<asrwt>  1 0.36991197E+02</asrwt>
<pdfrwt beam="1">  1        1 0.88812886E+00 0.30000000E+03</pdfrwt>
<pdfrwt beam="2">0</pdfrwt>
<totfact> 0.15209343E-04</totfact>
</mgrwt>
<clustering>
<clus scale="   36.991">  1  6  2 -1</clus>
<clus scale="  477.117">  4  5 -1 -1</clus>
<clus scale="  300.000">  1  4  2 -1</clus>
</clustering>
</event>
<event>
 6    1  0.9687246E-012  0.3000000E+03  0.7818608E-02  0.1093470E+00
          1   -1    0    0  502    0  0.00000000000E+00  0.00000000000E+00  0.24464418255E+03  0.24464418255E+03  0.00000000000E+00 0.  1.
         13   -1    0    0    0    0 -0.00000000000E+00 -0.00000000000E+00 -0.27500000000E+03  0.27500000000E+03  0.00000000000E+00 0.  1.
    9000005    2    1    2  501    0 -0.31587365411E+02 -0.10607288816E+02 -0.65135021297E+02  0.47147916153E+03  0.46576791702E+03 0.  0.
         13    1    3    3    0    0  0.14054905262E+03  0.17557632619E+02 -0.20412167959E+03  0.24845113550E+03  0.00000000000E+00 0.  1.
          3    1    3    3  501    0 -0.17213641803E+03 -0.28164921435E+02  0.13898665829E+03  0.22302802603E+03  0.00000000000E+00 0.  1.
         21    1    1    2  502  501  0.31587365411E+02  0.10607288816E+02  0.34779203851E+02  0.48165021023E+02  0.00000000000E+00 0.  1.
<scales pt_clust_4="550.00000" pt_clust_5="550.00000" pt_clust_6="33.32081"></scales>
<mgrwt>
<rscale>  0 0.30000000E+03</rscale>
<asrwt>  1 0.33320808E+02</asrwt>
<pdfrwt beam="1">  1        1 0.88961521E+00 0.30000000E+03</pdfrwt>
<pdfrwt beam="2">0</pdfrwt>
<totfact> 0.14804365E-04</totfact>
</mgrwt>
<clustering>
<clus scale="   33.321">  1  6  2 -1</clus>
<clus scale="  465.768">  4  5 -1 -1</clus>
<clus scale="  300.000">  1  4  2 -1</clus>
</clustering>
</event>
<event>
 6    1  0.9687246E-012  0.3000000E+03  0.7818608E-02  0.1093470E+00
          1   -1    0    0  502    0  0.00000000000E+00  0.00000000000E+00  0.22274448376E+03  0.22274448376E+03  0.00000000000E+00 0.  1.
         13   -1    0    0    0    0 -0.00000000000E+00 -0.00000000000E+00 -0.27500000000E+03  0.27500000000E+03  0.00000000000E+00 0.  1.
    9000005    2    1    2  501    0  0.37029930335E+02 -0.50364707509E+01 -0.48862847563E+02  0.46021993208E+03  0.45609015143E+03 0.  0.
         13    1    3    3    0    0  0.12440230234E+03 -0.19443097234E+03  0.38634643125E+02  0.23403412461E+03  0.00000000000E+00 0.  1.
          1    1    3    3  501    0 -0.87372372007E+02  0.18939450159E+03 -0.87497490688E+02  0.22618580747E+03  0.00000000000E+00 0.  1.
         21    1    1    2  502  501 -0.37029930335E+02  0.50364707509E+01 -0.33926686740E+01  0.37524551682E+02  0.00000000000E+00 0.  1.
<scales pt_clust_4="550.00000" pt_clust_5="550.00000" pt_clust_6="37.37087"></scales>
<mgrwt>
<rscale>  0 0.30000000E+03</rscale>
<asrwt>  1 0.37370868E+02</asrwt>
<pdfrwt beam="1">  1        1 0.80997994E+00 0.30000000E+03</pdfrwt>
<pdfrwt beam="2">0</pdfrwt>
<totfact> 0.86189175E-04</totfact>
</mgrwt>
<clustering>
<clus scale="   37.371">  1  6  2 -1</clus>
<clus scale="  456.090">  4  5 -1 -1</clus>
<clus scale="  300.000">  1  4  2 -1</clus>
</clustering>
</event>
<event>
 6    1  0.9687246E-012  0.3000000E+03  0.7818608E-02  0.1093470E+00
          1   -1    0    0  502    0  0.00000000000E+00  0.00000000000E+00  0.22721376276E+03  0.22721376276E+03  0.00000000000E+00 0.  1.
         13   -1    0    0    0    0 -0.00000000000E+00 -0.00000000000E+00 -0.27500000000E+03  0.27500000000E+03  0.00000000000E+00 0.  1.
    9000005    2    1    2  501    0 -0.47661553249E+01  0.33258716935E+02 -0.65716361391E+02  0.46413033013E+03  0.45822425155E+03 0.  0.
         13    1    3    3    0    0  0.13851542752E+03 -0.15380999246E+03 -0.92998645801E+02  0.22692021850E+03  0.00000000000E+00 0.  1.
          1    1    3    3  501    0 -0.14328158285E+03  0.18706870940E+03  0.27282284410E+02  0.23721011163E+03  0.00000000000E+00 0.  1.
         21    1    1    2  502  501  0.47661553249E+01 -0.33258716935E+02  0.17930124156E+02  0.38083432631E+02  0.00000000000E+00 0. -1.
<scales pt_clust_4="550.00000" pt_clust_5="550.00000" pt_clust_6="33.59849"></scales>
<mgrwt>
<rscale>  0 0.30000000E+03</rscale>
<asrwt>  1 0.33598489E+02</asrwt>
<pdfrwt beam="1">  1        1 0.82623186E+00 0.30000000E+03</pdfrwt>
<pdfrwt beam="2">0</pdfrwt>
<totfact> 0.64179693E-04</totfact>
</mgrwt>
<clustering>
<clus scale="   33.598">  1  6  2 -1</clus>
<clus scale="  458.224">  4  5 -1 -1</clus>
<clus scale="  300.000">  1  4  2 -1</clus>
</clustering>
</event>
<event>
 6    1  0.9687246E-012  0.3000000E+03  0.7818608E-02  0.1093470E+00
          1   -1    0    0  502    0  0.00000000000E+00  0.00000000000E+00  0.23250407426E+03  0.23250407426E+03  0.00000000000E+00 0.  1.
         13   -1    0    0    0    0 -0.00000000000E+00 -0.00000000000E+00 -0.27500000000E+03  0.27500000000E+03  0.00000000000E+00 0.  1.
    9000005    2    1    2  501    0 -0.13264641508E+01 -0.37813636984E+02 -0.58745300208E+02  0.46632552621E+03  0.46106057677E+03 0.  0.
         13    1    3    3    0    0 -0.13376867159E+03  0.68109060451E+02  0.13985850003E+03  0.20516652175E+03  0.00000000000E+00 0.  1.
          3    1    3    3  501    0  0.13244220744E+03 -0.10592269744E+03 -0.19860380024E+03  0.26115900446E+03  0.00000000000E+00 0.  1.
         21    1    1    2  502  501  0.13264641508E+01  0.37813636984E+02  0.16249374470E+02  0.41178548053E+02  0.00000000000E+00 0. -1.
<scales pt_clust_4="550.00000" pt_clust_5="550.00000" pt_clust_6="37.83690"></scales>
<mgrwt>
<rscale>  0 0.30000000E+03</rscale>
<asrwt>  1 0.37836895E+02</asrwt>
<pdfrwt beam="1">  1        1 0.84546936E+00 0.30000000E+03</pdfrwt>
<pdfrwt beam="2">0</pdfrwt>
<totfact> 0.44112900E-04</totfact>
</mgrwt>
<clustering>
<clus scale="   37.837">  1  6  2 -1</clus>
<clus scale="  461.061">  4  5 -1 -1</clus>
<clus scale="  300.000">  1  4  2 -1</clus>
</clustering>
</event>
<event>
 6    1  0.9687246E-012  0.3000000E+03  0.7818608E-02  0.1093470E+00
          1   -1    0    0  502    0  0.00000000000E+00  0.00000000000E+00  0.23281173522E+03  0.23281173522E+03  0.00000000000E+00 0.  1.
         13   -1    0    0    0    0 -0.00000000000E+00 -0.00000000000E+00 -0.27500000000E+03  0.27500000000E+03  0.00000000000E+00 0.  1.
    9000005    2    1    2  501    0 -0.18603375149E+01 -0.33141242641E+02 -0.60992664042E+02  0.46966192197E+03  0.46450017552E+03 0.  0.
         13    1    3    3    0    0  0.11731641959E+03  0.12977977138E+02  0.16924492690E+03  0.20633810961E+03  0.00000000000E+00 0.  1.
          3    1    3    3  501    0 -0.11917675711E+03 -0.46119219779E+02 -0.23023759095E+03  0.26332381235E+03  0.00000000000E+00 0.  1.
         21    1    1    2  502  501  0.18603375149E+01  0.33141242641E+02  0.18804399262E+02  0.38149813251E+02  0.00000000000E+00 0.  1.
<scales pt_clust_4="550.00000" pt_clust_5="550.00000" pt_clust_6="33.19342"></scales>
<mgrwt>
<rscale>  0 0.30000000E+03</rscale>
<asrwt>  1 0.33193415E+02</asrwt>
<pdfrwt beam="1">  1        1 0.84658813E+00 0.30000000E+03</pdfrwt>
<pdfrwt beam="2">0</pdfrwt>
<totfact> 0.44181023E-04</totfact>
</mgrwt>
<clustering>
<clus scale="   33.193">  1  6  2 -1</clus>
<clus scale="  464.500">  4  5 -1 -1</clus>
<clus scale="  300.000">  1  4  2 -1</clus>
</clustering>
</event>
<event>
 6    1  0.9687246E-012  0.3000000E+03  0.7818608E-02  0.1093470E+00
          1   -1    0    0  502    0  0.00000000000E+00  0.00000000000E+00  0.22980010024E+03  0.22980010024E+03  0.00000000000E+00 0.  1.
         13   -1    0    0    0    0 -0.00000000000E+00 -0.00000000000E+00 -0.27500000000E+03  0.27500000000E+03  0.00000000000E+00 0.  1.
    9000005    2    1    2  501    0  0.68605162540E+01 -0.29573519709E+02 -0.70897458900E+02  0.46502543120E+03  0.45858537072E+03 0.  0.
         13    1    3    3    0    0  0.12941338764E+03 -0.81590004692E+02 -0.21819039564E+03  0.26648039800E+03  0.00000000000E+00 0.  1.
          1    1    3    3  501    0 -0.12255287139E+03  0.52016484983E+02  0.14729293674E+03  0.19854503320E+03  0.00000000000E+00 0.  1.
         21    1    1    2  502  501 -0.68605162540E+01  0.29573519709E+02  0.25697559136E+02  0.39774669035E+02  0.00000000000E+00 0.  1.
<scales pt_clust_4="550.00000" pt_clust_5="550.00000" pt_clust_6="30.35885"></scales>
<mgrwt>
<rscale>  0 0.30000000E+03</rscale>
<asrwt>  1 0.30358850E+02</asrwt>
<pdfrwt beam="1">  1        1 0.83563673E+00 0.30000000E+03</pdfrwt>
<pdfrwt beam="2">0</pdfrwt>
<totfact> 0.54987623E-04</totfact>
</mgrwt>
<clustering>
<clus scale="   30.359">  1  6  2 -1</clus>
<clus scale="  458.585">  4  5 -1 -1</clus>
<clus scale="  300.000">  1  4  2 -1</clus>
</clustering>
</event>
<event>
 6    1  0.9687246E-012  0.3000000E+03  0.7818608E-02  0.1093470E+00
          1   -1    0    0  502    0  0.00000000000E+00  0.00000000000E+00  0.21836839238E+03  0.21836839238E+03  0.00000000000E+00 0.  1.
         13   -1    0    0    0    0 -0.00000000000E+00 -0.00000000000E+00 -0.27500000000E+03  0.27500000000E+03  0.00000000000E+00 0.  1.
    9000005    2    1    2  501    0  0.25260052083E+02  0.18207270227E+02 -0.46618494404E+02  0.46066002408E+03  0.45723604281E+03 0.  0.
         13    1    3    3    0    0 -0.91891884634E+02 -0.19028876565E+03  0.20385970412E+02  0.21229583270E+03  0.00000000000E+00 0.  1.
          1    1    3    3  501    0  0.11715193672E+03  0.20849603588E+03 -0.67004464816E+02  0.24836419138E+03  0.00000000000E+00 0.  1.
         21    1    1    2  502  501 -0.25260052083E+02 -0.18207270227E+02 -0.10013113219E+02  0.32708368298E+02  0.00000000000E+00 0.  1.
<scales pt_clust_4="550.00000" pt_clust_5="550.00000" pt_clust_6="31.13801"></scales>
<mgrwt>
<rscale>  0 0.30000000E+03</rscale>
<asrwt>  1 0.31138014E+02</asrwt>
<pdfrwt beam="1">  1        1 0.79406688E+00 0.30000000E+03</pdfrwt>
<pdfrwt beam="2">0</pdfrwt>
<totfact> 0.11721078E-03</totfact>
</mgrwt>
<clustering>
<clus scale="   31.138">  1  6  2 -1</clus>
<clus scale="  457.236">  4  5 -1 -1</clus>
<clus scale="  300.000">  1  4  2 -1</clus>
</clustering>
</event>
<event>
 6    1  0.9687246E-012  0.3000000E+03  0.7818608E-02  0.1093470E+00
          1   -1    0    0  502    0  0.00000000000E+00  0.00000000000E+00  0.23848046173E+03  0.23848046173E+03  0.00000000000E+00 0.  1.
         13   -1    0    0    0    0 -0.00000000000E+00 -0.00000000000E+00 -0.27500000000E+03  0.27500000000E+03  0.00000000000E+00 0.  1.
    9000005    2    1    2  501    0 -0.44507841010E+02  0.26311104333E+01 -0.53773228050E+02  0.46567292608E+03  0.46040400018E+03 0.  0.
         13    1    3    3    0    0 -0.14969967930E+02 -0.19702152382E+03 -0.14410280088E+03  0.24455510220E+03  0.00000000000E+00 0.  1.
          1    1    3    3  501    0 -0.29537873080E+02  0.19965263426E+03  0.90329572832E+02  0.22111782389E+03  0.00000000000E+00 0.  1.
         21    1    1    2  502  501  0.44507841010E+02 -0.26311104333E+01  0.17253689780E+02  0.47807535646E+02  0.00000000000E+00 0. -1.
<scales pt_clust_4="550.00000" pt_clust_5="550.00000" pt_clust_6="44.58554"></scales>
<mgrwt>
<rscale>  0 0.30000000E+03</rscale>
<asrwt>  1 0.44585543E+02</asrwt>
<pdfrwt beam="1">  1        1 0.86720168E+00 0.30000000E+03</pdfrwt>
<pdfrwt beam="2">0</pdfrwt>
<totfact> 0.25896819E-04</totfact>
</mgrwt>
<clustering>
<clus scale="   44.586">  1  6  2 -1</clus>
<clus scale="  460.404">  4  5 -1 -1</clus>
<clus scale="  300.000">  1  4  2 -1</clus>
</clustering>
</event>
<event>
 6    1  0.9687246E-012  0.3000000E+03  0.7818608E-02  0.1093470E+00
          1   -1    0    0  502    0  0.00000000000E+00  0.00000000000E+00  0.23770074705E+03  0.23770074705E+03  0.00000000000E+00 0.  1.
         13   -1    0    0    0    0 -0.00000000000E+00 -0.00000000000E+00 -0.27500000000E+03  0.27500000000E+03  0.00000000000E+00 0.  1.
    9000005    2    1    2  501    0  0.31912677888E+02  0.11564975548E+01 -0.43382950439E+02  0.48019278077E+03  0.47716168100E+03 0.  0.
         13    1    3    3    0    0 -0.12187889336E+03 -0.16096856332E+03  0.88790865056E+02  0.22056554750E+03  0.00000000000E+00 0.  1.
          1    1    3    3  501    0  0.15379157125E+03  0.16212506088E+03 -0.13217381549E+03  0.25962723327E+03  0.00000000000E+00 0.  1.
         21    1    1    2  502  501 -0.31912677888E+02 -0.11564975548E+01  0.60836974872E+01  0.32507966280E+02  0.00000000000E+00 0.  1.
<scales pt_clust_4="550.00000" pt_clust_5="550.00000" pt_clust_6="31.93363"></scales>
<mgrwt>
<rscale>  0 0.30000000E+03</rscale>
<asrwt>  1 0.31933626E+02</asrwt>
<pdfrwt beam="1">  1        1 0.86436635E+00 0.30000000E+03</pdfrwt>
<pdfrwt beam="2">0</pdfrwt>
<totfact> 0.29529359E-04</totfact>
</mgrwt>
<clustering>
<clus scale="   31.934">  1  6  2 -1</clus>
<clus scale="  477.162">  4  5 -1 -1</clus>
<clus scale="  300.000">  1  4  2 -1</clus>
</clustering>
</event>
<event>
 6    1  0.9687246E-012  0.3000000E+03  0.7818608E-02  0.1093470E+00
          1   -1    0    0  502    0  0.00000000000E+00  0.00000000000E+00  0.23969670414E+03  0.23969670414E+03  0.00000000000E+00 0.  1.
         13   -1    0    0    0    0 -0.00000000000E+00 -0.00000000000E+00 -0.27500000000E+03  0.27500000000E+03  0.00000000000E+00 0.  1.
    9000005    2    1    2  501    0  0.42623070134E+02 -0.89859204238E+01 -0.29818489879E+02  0.47079276389E+03  0.46782391059E+03 0.  0.
         13    1    3    3    0    0 -0.20409127973E+01 -0.20965375978E+03  0.95114430126E+02  0.23022949232E+03  0.00000000000E+00 0.  1.
          1    1    3    3  501    0  0.44663982932E+02  0.20066783936E+03 -0.12493292000E+03  0.24056327156E+03  0.00000000000E+00 0.  1.
         21    1    1    2  502  501 -0.42623070134E+02  0.89859204238E+01 -0.54848059764E+01  0.43903940257E+02  0.00000000000E+00 0.  1.
<scales pt_clust_4="550.00000" pt_clust_5="550.00000" pt_clust_6="43.56001"></scales>
<mgrwt>
<rscale>  0 0.30000000E+03</rscale>
<asrwt>  1 0.43560013E+02</asrwt>
<pdfrwt beam="1">  1        1 0.87162438E+00 0.30000000E+03</pdfrwt>
<pdfrwt beam="2">0</pdfrwt>
<totfact> 0.23417923E-04</totfact>
</mgrwt>
<clustering>
<clus scale="   43.560">  1  6  2 -1</clus>
<clus scale="  467.824">  4  5 -1 -1</clus>
<clus scale="  300.000">  1  4  2 -1</clus>
</clustering>
</event>
<event>
 6    1  0.9687246E-012  0.3000000E+03  0.7818608E-02  0.1093470E+00
          1   -1    0    0  502    0  0.00000000000E+00  0.00000000000E+00  0.23714221767E+03  0.23714221767E+03  0.00000000000E+00 0.  1.
         13   -1    0    0    0    0 -0.00000000000E+00 -0.00000000000E+00 -0.27500000000E+03  0.27500000000E+03  0.00000000000E+00 0.  1.
    9000005    2    1    2  501    0  0.25542850257E+02 -0.23071988513E+02 -0.71677741297E+02  0.46388723370E+03  0.45702178629E+03 0.  0.
         13    1    3    3    0    0  0.53156777443E+02 -0.16665272662E+03  0.12774689184E+03  0.21660573089E+03  0.00000000000E+00 0.  1.
          3    1    3    3  501    0 -0.27613927185E+02  0.14358073811E+03 -0.19942463314E+03  0.24728150281E+03  0.00000000000E+00 0.  1.
         21    1    1    2  502  501 -0.25542850257E+02  0.23071988513E+02  0.33819958967E+02  0.48254983968E+02  0.00000000000E+00 0.  1.
<scales pt_clust_4="550.00000" pt_clust_5="550.00000" pt_clust_6="34.42025"></scales>
<mgrwt>
<rscale>  0 0.30000000E+03</rscale>
<asrwt>  1 0.34420254E+02</asrwt>
<pdfrwt beam="1">  1        1 0.86233534E+00 0.30000000E+03</pdfrwt>
<pdfrwt beam="2">0</pdfrwt>
<totfact> 0.30624611E-04</totfact>
</mgrwt>
<clustering>
<clus scale="   34.420">  1  6  2 -1</clus>
<clus scale="  457.022">  4  5 -1 -1</clus>
<clus scale="  300.000">  1  4  2 -1</clus>
</clustering>
</event>
<event>
 6    1  0.9687246E-012  0.3000000E+03  0.7818608E-02  0.1093470E+00
          1   -1    0    0  502    0  0.00000000000E+00  0.00000000000E+00  0.23313310398E+03  0.23313310398E+03  0.00000000000E+00 0.  1.
         13   -1    0    0    0    0 -0.00000000000E+00 -0.00000000000E+00 -0.27500000000E+03  0.27500000000E+03  0.00000000000E+00 0.  1.
    9000005    2    1    2  501    0 -0.29257364182E+02  0.88552485942E+01 -0.27190744116E+02  0.47422442926E+03  0.47245641487E+03 0.  0.
         13    1    3    3    0    0  0.17543271618E+03 -0.32126777488E+02  0.12335243370E+03  0.21685154054E+03  0.00000000000E+00 0.  1.
          1    1    3    3  501    0 -0.20469008036E+03  0.40982026082E+02 -0.15054317781E+03  0.25737288872E+03  0.00000000000E+00 0.  1.
         21    1    1    2  502  501  0.29257364182E+02 -0.88552485942E+01 -0.14676151905E+02  0.33908674720E+02  0.00000000000E+00 0.  1.
<scales pt_clust_4="550.00000" pt_clust_5="550.00000" pt_clust_6="30.56812"></scales>
<mgrwt>
<rscale>  0 0.30000000E+03</rscale>
<asrwt>  1 0.30568116E+02</asrwt>
<pdfrwt beam="1">  1        1 0.84775674E+00 0.30000000E+03</pdfrwt>
<pdfrwt beam="2">0</pdfrwt>
<totfact> 0.43800630E-04</totfact>
</mgrwt>
<clustering>
<clus scale="   30.568">  1  6  2 -1</clus>
<clus scale="  472.456">  4  5 -1 -1</clus>
<clus scale="  300.000">  1  4  2 -1</clus>
</clustering>
</event>
<event>
 6    1  0.9687246E-012  0.3000000E+03  0.7818608E-02  0.1093470E+00
          1   -1    0    0  502    0  0.00000000000E+00  0.00000000000E+00  0.22578364567E+03  0.22578364567E+03  0.00000000000E+00 0.  1.
         13   -1    0    0    0    0 -0.00000000000E+00 -0.00000000000E+00 -0.27500000000E+03  0.27500000000E+03  0.00000000000E+00 0.  1.
    9000005    2    1    2  501    0 -0.90421785834E+01  0.33327615836E+02 -0.44576111978E+02  0.46594081542E+03  0.46251629457E+03 0.  0.
         13    1    3    3    0    0  0.15060049873E+03  0.14761586342E+03  0.88559728236E+02  0.22872205582E+03  0.00000000000E+00 0.  1.
          3    1    3    3  501    0 -0.15964267732E+03 -0.11428824759E+03 -0.13313584021E+03  0.23721875960E+03  0.00000000000E+00 0.  1.
         21    1    1    2  502  501  0.90421785834E+01 -0.33327615836E+02 -0.46402423517E+01  0.34842830252E+02  0.00000000000E+00 0.  1.
<scales pt_clust_4="550.00000" pt_clust_5="550.00000" pt_clust_6="34.53248"></scales>
<mgrwt>
<rscale>  0 0.30000000E+03</rscale>
<asrwt>  1 0.34532480E+02</asrwt>
<pdfrwt beam="1">  1        1 0.82103144E+00 0.30000000E+03</pdfrwt>
<pdfrwt beam="2">0</pdfrwt>
<totfact> 0.71025356E-04</totfact>
</mgrwt>
<clustering>
<clus scale="   34.532">  1  6  2 -1</clus>
<clus scale="  462.516">  4  5 -1 -1</clus>
<clus scale="  300.000">  1  4  2 -1</clus>
</clustering>
</event>
<event>
 6    1  0.9687246E-012  0.3000000E+03  0.7818608E-02  0.1093470E+00
          1   -1    0    0  502    0  0.00000000000E+00  0.00000000000E+00  0.26313489865E+03  0.26313489865E+03  0.00000000000E+00 0.  1.
         13   -1    0    0    0    0 -0.00000000000E+00 -0.00000000000E+00 -0.27500000000E+03  0.27500000000E+03  0.00000000000E+00 0.  1.
    9000005    2    1    2  501    0 -0.45557428011E+02  0.49562656034E+02 -0.88504224686E+01  0.47074777519E+03  0.46582529101E+03 0.  0.
         13    1    3    3    0    0  0.16066641436E+03  0.62777910856E+02 -0.14326540405E+03  0.22423144024E+03  0.00000000000E+00 0.  1.
          1    1    3    3  501    0 -0.20622384237E+03 -0.13215254821E+02  0.13441498158E+03  0.24651633495E+03  0.00000000000E+00 0.  1.
         21    1    1    2  502  501  0.45557428011E+02 -0.49562656034E+02 -0.30146788790E+01  0.67387123465E+02  0.00000000000E+00 0.  1.
<scales pt_clust_4="550.00000" pt_clust_5="550.00000" pt_clust_6="67.31969"></scales>
<mgrwt>
<rscale>  0 0.30000000E+03</rscale>
<asrwt>  1 0.67319690E+02</asrwt>
<pdfrwt beam="1">  1        1 0.95685418E+00 0.30000000E+03</pdfrwt>
<pdfrwt beam="2">0</pdfrwt>
<totfact> 0.78973372E-06</totfact>
</mgrwt>
<clustering>
<clus scale="   67.320">  1  6  2 -1</clus>
<clus scale="  465.825">  4  5 -1 -1</clus>
<clus scale="  300.000">  1  4  2 -1</clus>
</clustering>
</event>
<event>
 6    1  0.9687246E-012  0.3000000E+03  0.7818608E-02  0.1093470E+00
          1   -1    0    0  502    0  0.00000000000E+00  0.00000000000E+00  0.22873488833E+03  0.22873488833E+03  0.00000000000E+00 0.  1.
         13   -1    0    0    0    0 -0.00000000000E+00 -0.00000000000E+00 -0.27500000000E+03  0.27500000000E+03  0.00000000000E+00 0.  1.
    9000005    2    1    2  501    0 -0.18855214346E+02  0.23744553009E+02 -0.59251804524E+02  0.47075039050E+03  0.46602127732E+03 0.  0.
         13    1    3    3    0    0  0.20849576305E+03 -0.10028945126E+00 -0.11124026235E+03  0.23631523277E+03  0.00000000000E+00 0.  1.
          3    1    3    3  501    0 -0.22735097740E+03  0.23844842461E+02  0.51988457826E+02  0.23443515774E+03  0.00000000000E+00 0.  1.
         21    1    1    2  502  501  0.18855214346E+02 -0.23744553009E+02  0.12986692855E+02  0.32984497828E+02  0.00000000000E+00 0.  1.
<scales pt_clust_4="550.00000" pt_clust_5="550.00000" pt_clust_6="30.32034"></scales>
<mgrwt>
<rscale>  0 0.30000000E+03</rscale>
<asrwt>  1 0.30320338E+02</asrwt>
<pdfrwt beam="1">  1        1 0.83176323E+00 0.30000000E+03</pdfrwt>
<pdfrwt beam="2">0</pdfrwt>
<totfact> 0.58788209E-04</totfact>
</mgrwt>
<clustering>
<clus scale="   30.320">  1  6  2 -1</clus>
<clus scale="  466.021">  4  5 -1 -1</clus>
<clus scale="  300.000">  1  4  2 -1</clus>
</clustering>
</event>
<event>
 6    1  0.9687246E-012  0.3000000E+03  0.7818608E-02  0.1093470E+00
          1   -1    0    0  502    0  0.00000000000E+00  0.00000000000E+00  0.25158250803E+03  0.25158250803E+03  0.00000000000E+00 0.  1.
         13   -1    0    0    0    0 -0.00000000000E+00 -0.00000000000E+00 -0.27500000000E+03  0.27500000000E+03  0.00000000000E+00 0.  1.
    9000005    2    1    2  501    0 -0.25127171063E+02 -0.17124798277E+02 -0.25748358691E+02  0.49608551832E+03  0.49448279047E+03 0.  0.
         13    1    3    3    0    0 -0.71550343713E+02  0.23016242623E+03 -0.38846786235E+02  0.24413780317E+03  0.00000000000E+00 0.  1.
          3    1    3    3  501    0  0.46423172651E+02 -0.24728722451E+03  0.13098427544E+02  0.25194771515E+03  0.00000000000E+00 0.  1.
         21    1    1    2  502  501  0.25127171063E+02  0.17124798277E+02  0.23308667175E+01  0.30496989709E+02  0.00000000000E+00 0.  1.
<scales pt_clust_4="550.00000" pt_clust_5="550.00000" pt_clust_6="30.40779"></scales>
<mgrwt>
<rscale>  0 0.30000000E+03</rscale>
<asrwt>  1 0.30407786E+02</asrwt>
<pdfrwt beam="1">  1        1 0.91484548E+00 0.30000000E+03</pdfrwt>
<pdfrwt beam="2">0</pdfrwt>
<totfact> 0.56071155E-05</totfact>
</mgrwt>
<clustering>
<clus scale="   30.408">  1  6  2 -1</clus>
<clus scale="  494.483">  4  5 -1 -1</clus>
<clus scale="  300.000">  1  4  2 -1</clus>
</clustering>
</event>
<event>
 6    1  0.9687246E-012  0.3000000E+03  0.7818608E-02  0.1093470E+00
          1   -1    0    0  502    0  0.00000000000E+00  0.00000000000E+00  0.22144341286E+03  0.22144341286E+03  0.00000000000E+00 0.  1.
         13   -1    0    0    0    0 -0.00000000000E+00 -0.00000000000E+00 -0.27500000000E+03  0.27500000000E+03  0.00000000000E+00 0.  1.
    9000005    2    1    2  501    0 -0.30149907778E+02 -0.15068472310E+02 -0.55501088579E+02  0.46268164628E+03  0.45810245488E+03 0.  0.
         13    1    3    3    0    0  0.51539451013E+02  0.21109693240E+03 -0.45485178814E+02  0.22200705253E+03  0.00000000000E+00 0.  1.
          1    1    3    3  501    0 -0.81689358791E+02 -0.22616540471E+03 -0.10015909765E+02  0.24067459375E+03  0.00000000000E+00 0.  1.
         21    1    1    2  502  501  0.30149907778E+02  0.15068472310E+02  0.19445014346E+01  0.33761766580E+02  0.00000000000E+00 0.  1.
<scales pt_clust_4="550.00000" pt_clust_5="550.00000" pt_clust_6="33.70572"></scales>
<mgrwt>
<rscale>  0 0.30000000E+03</rscale>
<asrwt>  1 0.33705724E+02</asrwt>
<pdfrwt beam="1">  1        1 0.80524877E+00 0.30000000E+03</pdfrwt>
<pdfrwt beam="2">0</pdfrwt>
<totfact> 0.95555007E-04</totfact>
</mgrwt>
<clustering>
<clus scale="   33.706">  1  6  2 -1</clus>
<clus scale="  458.102">  4  5 -1 -1</clus>
<clus scale="  300.000">  1  4  2 -1</clus>
</clustering>
</event>
<event>
 6    1  0.9687246E-012  0.3000000E+03  0.7818608E-02  0.1093470E+00
          1   -1    0    0  502    0  0.00000000000E+00  0.00000000000E+00  0.24633770654E+03  0.24633770654E+03  0.00000000000E+00 0.  1.
         13   -1    0    0    0    0 -0.00000000000E+00 -0.00000000000E+00 -0.27500000000E+03  0.27500000000E+03  0.00000000000E+00 0.  1.
    9000005    2    1    2  501    0 -0.35312661570E+02 -0.32375044310E+02 -0.57073097888E+02  0.46563939984E+03  0.45963853692E+03 0.  0.
         13    1    3    3    0    0  0.40588231282E+02  0.20200101489E+03  0.21244493242E+02  0.20713073897E+03  0.00000000000E+00 0.  1.
          3    1    3    3  501    0 -0.75900892852E+02 -0.23437605920E+03 -0.78317591130E+02  0.25850866086E+03  0.00000000000E+00 0.  1.
         21    1    1    2  502  501  0.35312661570E+02  0.32375044310E+02  0.28410804431E+02  0.55698306703E+02  0.00000000000E+00 0.  1.
<scales pt_clust_4="550.00000" pt_clust_5="550.00000" pt_clust_6="47.90749"></scales>
<mgrwt>
<rscale>  0 0.30000000E+03</rscale>
<asrwt>  1 0.47907490E+02</asrwt>
<pdfrwt beam="1">  1        1 0.89577348E+00 0.30000000E+03</pdfrwt>
<pdfrwt beam="2">0</pdfrwt>
<totfact> 0.11675209E-04</totfact>
</mgrwt>
<clustering>
<clus scale="   47.907">  1  6  2 -1</clus>
<clus scale="  459.639">  4  5 -1 -1</clus>
<clus scale="  300.000">  1  4  2 -1</clus>
</clustering>
</event>
<event>
 6    1  0.9687246E-012  0.3000000E+03  0.7818608E-02  0.1093470E+00
          1   -1    0    0  502    0  0.00000000000E+00  0.00000000000E+00  0.23863767847E+03  0.23863767847E+03  0.00000000000E+00 0.  1.
         13   -1    0    0    0    0 -0.00000000000E+00 -0.00000000000E+00 -0.27500000000E+03  0.27500000000E+03  0.00000000000E+00 0.  1.
    9000005    2    1    2  501    0 -0.35078422512E+02 -0.13353491322E+01 -0.30552077089E+02  0.47805625321E+03  0.47578574268E+03 0.  0.
         13    1    3    3    0    0  0.53060160486E+01 -0.16240517773E+03  0.15811231713E+03  0.22672251849E+03  0.00000000000E+00 0.  1.
          1    1    3    3  501    0 -0.40384438561E+02  0.16106982860E+03 -0.18866439422E+03  0.25133373472E+03  0.00000000000E+00 0.  1.
         21    1    1    2  502  501  0.35078422512E+02  0.13353491322E+01 -0.58102444403E+01  0.35581425262E+02  0.00000000000E+00 0. -1.
<scales pt_clust_4="550.00000" pt_clust_5="550.00000" pt_clust_6="35.10385"></scales>
<mgrwt>
<rscale>  0 0.30000000E+03</rscale>
<asrwt>  1 0.35103848E+02</asrwt>
<pdfrwt beam="1">  1        1 0.86777338E+00 0.30000000E+03</pdfrwt>
<pdfrwt beam="2">0</pdfrwt>
<totfact> 0.26684617E-04</totfact>
</mgrwt>
<clustering>
<clus scale="   35.104">  1  6  2 -1</clus>
<clus scale="  475.786">  4  5 -1 -1</clus>
<clus scale="  300.000">  1  4  2 -1</clus>
</clustering>
</event>
<event>
 6    1  0.9687246E-012  0.3000000E+03  0.7818608E-02  0.1093470E+00
          1   -1    0    0  502    0  0.00000000000E+00  0.00000000000E+00  0.23940548256E+03  0.23940548256E+03  0.00000000000E+00 0.  1.
         13   -1    0    0    0    0 -0.00000000000E+00 -0.00000000000E+00 -0.27500000000E+03  0.27500000000E+03  0.00000000000E+00 0.  1.
    9000005    2    1    2  501    0  0.33457057613E+02 -0.88584348723E+00 -0.58444223655E+02  0.47388057051E+03  0.46907025956E+03 0.  0.
         13    1    3    3    0    0 -0.14286631546E+03 -0.14039804114E+03  0.73286600874E+02  0.21329163115E+03  0.00000000000E+00 0.  1.
          1    1    3    3  501    0  0.17632337307E+03  0.13951219765E+03 -0.13173082453E+03  0.26058893936E+03  0.00000000000E+00 0.  1.
         21    1    1    2  502  501 -0.33457057613E+02  0.88584348723E+00  0.22849706213E+02  0.40524912052E+02  0.00000000000E+00 0.  1.
<scales pt_clust_4="550.00000" pt_clust_5="550.00000" pt_clust_6="33.46878"></scales>
<mgrwt>
<rscale>  0 0.30000000E+03</rscale>
<asrwt>  1 0.33468783E+02</asrwt>
<pdfrwt beam="1">  1        1 0.87056539E+00 0.30000000E+03</pdfrwt>
<pdfrwt beam="2">0</pdfrwt>
<totfact> 0.25201316E-04</totfact>
</mgrwt>
<clustering>
<clus scale="   33.469">  1  6  2 -1</clus>
<clus scale="  469.070">  4  5 -1 -1</clus>
<clus scale="  300.000">  1  4  2 -1</clus>
</clustering>
</event>
<event>
 6    1  0.9687246E-012  0.3000000E+03  0.7818608E-02  0.1093470E+00
          1   -1    0    0  502    0  0.00000000000E+00  0.00000000000E+00  0.22287344496E+03  0.22287344496E+03  0.00000000000E+00 0.  1.
         13   -1    0    0    0    0 -0.00000000000E+00 -0.00000000000E+00 -0.27500000000E+03  0.27500000000E+03  0.00000000000E+00 0.  1.
    9000005    2    1    2  501    0  0.33548029576E+02 -0.61007281452E+01 -0.53289792399E+02  0.46375538092E+03  0.45941981040E+03 0.  0.
         13    1    3    3    0    0 -0.15759161207E+03 -0.50856087330E+02  0.11790809168E+03  0.20328250268E+03  0.00000000000E+00 0.  1.
          3    1    3    3  501    0  0.19113964165E+03  0.44755359185E+02 -0.17119788408E+03  0.26047287824E+03  0.00000000000E+00 0.  1.
         21    1    1    2  502  501 -0.33548029576E+02  0.61007281452E+01  0.11632373548E+01  0.34118064035E+02  0.00000000000E+00 0. -1.
<scales pt_clust_4="550.00000" pt_clust_5="550.00000" pt_clust_6="34.09823"></scales>
<mgrwt>
<rscale>  0 0.30000000E+03</rscale>
<asrwt>  1 0.34098228E+02</asrwt>
<pdfrwt beam="1">  1        1 0.81044889E+00 0.30000000E+03</pdfrwt>
<pdfrwt beam="2">0</pdfrwt>
<totfact> 0.86938042E-04</totfact>
</mgrwt>
<clustering>
<clus scale="   34.098">  1  6  2 -1</clus>
<clus scale="  459.420">  4  5 -1 -1</clus>
<clus scale="  300.000">  1  4  2 -1</clus>
</clustering>
</event>
<event>
 6    1  0.9687246E-012  0.3000000E+03  0.7818608E-02  0.1093470E+00
          1   -1    0    0  502    0  0.00000000000E+00  0.00000000000E+00  0.22902857552E+03  0.22902857552E+03  0.00000000000E+00 0.  1.
         13   -1    0    0    0    0 -0.00000000000E+00 -0.00000000000E+00 -0.27500000000E+03  0.27500000000E+03  0.00000000000E+00 0.  1.
    9000005    2    1    2  501    0  0.18980453371E+02  0.33702201919E+02 -0.62370871556E+02  0.46201622152E+03  0.45614993950E+03 0.  0.
         13    1    3    3    0    0 -0.88244363679E+02  0.15858112788E+03 -0.18316957065E+03  0.25784905168E+03  0.00000000000E+00 0.  1.
          1    1    3    3  501    0  0.10722481705E+03 -0.12487892596E+03  0.12079869909E+03  0.20416716984E+03  0.00000000000E+00 0.  1.
         21    1    1    2  502  501 -0.18980453371E+02 -0.33702201919E+02  0.16399447080E+02  0.42012354002E+02  0.00000000000E+00 0. -1.
<scales pt_clust_4="550.00000" pt_clust_5="550.00000" pt_clust_6="38.67940"></scales>
<mgrwt>
<rscale>  0 0.30000000E+03</rscale>
<asrwt>  1 0.38679401E+02</asrwt>
<pdfrwt beam="1">  1        1 0.83283118E+00 0.30000000E+03</pdfrwt>
<pdfrwt beam="2">0</pdfrwt>
<totfact> 0.55109764E-04</totfact>
</mgrwt>
<clustering>
<clus scale="   38.679">  1  6  2 -1</clus>
<clus scale="  456.150">  4  5 -1 -1</clus>
<clus scale="  300.000">  1  4  2 -1</clus>
</clustering>
</event>
<event>
 6    1  0.9687246E-012  0.3000000E+03  0.7818608E-02  0.1093470E+00
          1   -1    0    0  502    0  0.00000000000E+00  0.00000000000E+00  0.22236049725E+03  0.22236049725E+03  0.00000000000E+00 0.  1.
         13   -1    0    0    0    0 -0.00000000000E+00 -0.00000000000E+00 -0.27500000000E+03  0.27500000000E+03  0.00000000000E+00 0.  1.
    9000005    2    1    2  501    0  0.30679955204E+02 -0.87618259085E+01 -0.57317850013E+02  0.46511276589E+03  0.46046337512E+03 0.  0.
         13    1    3    3    0    0  0.35939448167E+02 -0.17535439086E+03  0.12482017288E+03  0.21822209303E+03  0.00000000000E+00 0.  1.
          1    1    3    3  501    0 -0.52594929637E+01  0.16659256495E+03 -0.18213802289E+03  0.24689067286E+03  0.00000000000E+00 0.  1.
         21    1    1    2  502  501 -0.30679955204E+02  0.87618259085E+01  0.46783472646E+01  0.32247731357E+02  0.00000000000E+00 0. -1.
<scales pt_clust_4="550.00000" pt_clust_5="550.00000" pt_clust_6="31.90657"></scales>
<mgrwt>
<rscale>  0 0.30000000E+03</rscale>
<asrwt>  1 0.31906571E+02</asrwt>
<pdfrwt beam="1">  1        1 0.80858363E+00 0.30000000E+03</pdfrwt>
<pdfrwt beam="2">0</pdfrwt>
<totfact> 0.91026982E-04</totfact>
</mgrwt>
<clustering>
<clus scale="   31.907">  1  6  2 -1</clus>
<clus scale="  460.463">  4  5 -1 -1</clus>
<clus scale="  300.000">  1  4  2 -1</clus>
</clustering>
</event>
<event>
 6    1  0.9687246E-012  0.3000000E+03  0.7818608E-02  0.1093470E+00
          1   -1    0    0  502    0  0.00000000000E+00  0.00000000000E+00  0.23786064249E+03  0.23786064249E+03  0.00000000000E+00 0.  1.
         13   -1    0    0    0    0 -0.00000000000E+00 -0.00000000000E+00 -0.27500000000E+03  0.27500000000E+03  0.00000000000E+00 0.  1.
    9000005    2    1    2  501    0 -0.25055425353E+01 -0.31610658770E+02 -0.61582217458E+02  0.47282359847E+03  0.46772243294E+03 0.  0.
         13    1    3    3    0    0 -0.30470560726E+02 -0.67931993193E+02 -0.25934360674E+03  0.26981904515E+03  0.00000000000E+00 0.  1.
          1    1    3    3  501    0  0.27965018191E+02  0.36321334423E+02  0.19776138928E+03  0.20300455332E+03  0.00000000000E+00 0.  1.
         21    1    1    2  502  501  0.25055425353E+01  0.31610658770E+02  0.24442859945E+02  0.40037044016E+02  0.00000000000E+00 0. -1.
<scales pt_clust_4="550.00000" pt_clust_5="550.00000" pt_clust_6="31.70980"></scales>
<mgrwt>
<rscale>  0 0.30000000E+03</rscale>
<asrwt>  1 0.31709801E+02</asrwt>
<pdfrwt beam="1">  1        1 0.86494779E+00 0.30000000E+03</pdfrwt>
<pdfrwt beam="2">0</pdfrwt>
<totfact> 0.29145206E-04</totfact>
</mgrwt>
<clustering>
<clus scale="   31.710">  1  6  2 -1</clus>
<clus scale="  467.722">  4  5 -1 -1</clus>
<clus scale="  300.000">  1  4  2 -1</clus>
</clustering>
</event>
<event>
 6    1  0.9687246E-012  0.3000000E+03  0.7818608E-02  0.1093470E+00
          1   -1    0    0  502    0  0.00000000000E+00  0.00000000000E+00  0.22494306387E+03  0.22494306387E+03  0.00000000000E+00 0.  1.
         13   -1    0    0    0    0 -0.00000000000E+00 -0.00000000000E+00 -0.27500000000E+03  0.27500000000E+03  0.00000000000E+00 0.  1.
    9000005    2    1    2  501    0 -0.19801093579E+02 -0.30026428046E+02 -0.43060693366E+02  0.46330132399E+03  0.45989153484E+03 0.  0.
         13    1    3    3    0    0  0.13595964688E+03 -0.18834226481E+03  0.17949636935E+02  0.23298073689E+03  0.00000000000E+00 0.  1.
          3    1    3    3  501    0 -0.15576074046E+03  0.15831583677E+03 -0.61010330301E+02  0.23032058710E+03  0.00000000000E+00 0.  1.
         21    1    1    2  502  501  0.19801093579E+02  0.30026428046E+02 -0.69962427671E+01  0.36641739874E+02  0.00000000000E+00 0.  1.
<scales pt_clust_4="550.00000" pt_clust_5="550.00000" pt_clust_6="35.96764"></scales>
<mgrwt>
<rscale>  0 0.30000000E+03</rscale>
<asrwt>  1 0.35967638E+02</asrwt>
<pdfrwt beam="1">  1        1 0.81797478E+00 0.30000000E+03</pdfrwt>
<pdfrwt beam="2">0</pdfrwt>
<totfact> 0.74876373E-04</totfact>
</mgrwt>
<clustering>
<clus scale="   35.968">  1  6  2 -1</clus>
<clus scale="  459.892">  4  5 -1 -1</clus>
<clus scale="  300.000">  1  4  2 -1</clus>
</clustering>
</event>
<event>
 6    1  0.9687246E-012  0.3000000E+03  0.7818608E-02  0.1093470E+00
          1   -1    0    0  502    0  0.00000000000E+00  0.00000000000E+00  0.22756139783E+03  0.22756139783E+03  0.00000000000E+00 0.  1.
         13   -1    0    0    0    0 -0.00000000000E+00 -0.00000000000E+00 -0.27500000000E+03  0.27500000000E+03  0.00000000000E+00 0.  1.
    9000005    2    1    2  501    0 -0.48933076184E+01  0.30921366542E+02 -0.62242623417E+02  0.46793143373E+03  0.46271547104E+03 0.  0.
         13    1    3    3    0    0 -0.19814591704E+03  0.13754928393E+03 -0.53333165004E+02  0.24703448431E+03  0.00000000000E+00 0.  1.
          3    1    3    3  501    0  0.19325260942E+03 -0.10662791739E+03 -0.89094584134E+01  0.22089694942E+03  0.00000000000E+00 0.  1.
         21    1    1    2  502  501  0.48933076184E+01 -0.30921366542E+02  0.14804021246E+02  0.34629964096E+02  0.00000000000E+00 0.  1.
<scales pt_clust_4="550.00000" pt_clust_5="550.00000" pt_clust_6="31.30616"></scales>
<mgrwt>
<rscale>  0 0.30000000E+03</rscale>
<asrwt>  1 0.31306155E+02</asrwt>
<pdfrwt beam="1">  1        1 0.82749599E+00 0.30000000E+03</pdfrwt>
<pdfrwt beam="2">0</pdfrwt>
<totfact> 0.63400418E-04</totfact>
</mgrwt>
<clustering>
<clus scale="   31.306">  1  6  2 -1</clus>
<clus scale="  462.715">  4  5 -1 -1</clus>
<clus scale="  300.000">  1  4  2 -1</clus>
</clustering>
</event>
<event>
 6    1  0.9687246E-012  0.3000000E+03  0.7818608E-02  0.1093470E+00
          1   -1    0    0  502    0  0.00000000000E+00  0.00000000000E+00  0.24874711663E+03  0.24874711663E+03  0.00000000000E+00 0.  1.
         13   -1    0    0    0    0 -0.00000000000E+00 -0.00000000000E+00 -0.27500000000E+03  0.27500000000E+03  0.00000000000E+00 0.  1.
    9000005    2    1    2  501    0  0.20539721385E+02  0.23882138353E+02 -0.15024159008E+02  0.49030581078E+03  0.48906219036E+03 0.  0.
         13    1    3    3    0    0 -0.16424387264E+03  0.78986433108E+02 -0.16513805733E+03  0.24593796839E+03  0.00000000000E+00 0.  1.
          1    1    3    3  501    0  0.18478359403E+03 -0.55104294755E+02  0.15011389832E+03  0.24436784239E+03  0.00000000000E+00 0.  1.
         21    1    1    2  502  501 -0.20539721385E+02 -0.23882138353E+02 -0.11228724358E+02  0.33441305860E+02  0.00000000000E+00 0.  1.
<scales pt_clust_4="550.00000" pt_clust_5="550.00000" pt_clust_6="31.49980"></scales>
<mgrwt>
<rscale>  0 0.30000000E+03</rscale>
<asrwt>  1 0.31499804E+02</asrwt>
<pdfrwt beam="1">  1        1 0.90453497E+00 0.30000000E+03</pdfrwt>
<pdfrwt beam="2">0</pdfrwt>
<totfact> 0.96218785E-05</totfact>
</mgrwt>
<clustering>
<clus scale="   31.500">  1  6  2 -1</clus>
<clus scale="  489.062">  4  5 -1 -1</clus>
<clus scale="  300.000">  1  4  2 -1</clus>
</clustering>
</event>
<event>
 6    1  0.9687246E-012  0.3000000E+03  0.7818608E-02  0.1093470E+00
          1   -1    0    0  502    0  0.00000000000E+00  0.00000000000E+00  0.24972024065E+03  0.24972024065E+03  0.00000000000E+00 0.  1.
         13   -1    0    0    0    0 -0.00000000000E+00 -0.00000000000E+00 -0.27500000000E+03  0.27500000000E+03  0.00000000000E+00 0.  1.
    9000005    2    1    2  501    0  0.28284894740E+02  0.35492365737E+02 -0.17750313632E+02  0.47871550341E+03  0.47622863865E+03 0.  0.
         13    1    3    3    0    0 -0.57324687634E+02  0.22158228138E+03  0.91589052587E+02  0.24652257866E+03  0.00000000000E+00 0.  1.
          3    1    3    3  501    0  0.85609582375E+02 -0.18608991564E+03 -0.10933936622E+03  0.23219292475E+03  0.00000000000E+00 0.  1.
         21    1    1    2  502  501 -0.28284894740E+02 -0.35492365737E+02 -0.75294457174E+01  0.46004737244E+02  0.00000000000E+00 0.  1.
<scales pt_clust_4="550.00000" pt_clust_5="550.00000" pt_clust_6="45.38442"></scales>
<mgrwt>
<rscale>  0 0.30000000E+03</rscale>
<asrwt>  1 0.45384418E+02</asrwt>
<pdfrwt beam="1">  1        1 0.90807360E+00 0.30000000E+03</pdfrwt>
<pdfrwt beam="2">0</pdfrwt>
<totfact> 0.76071844E-05</totfact>
</mgrwt>
<clustering>
<clus scale="   45.384">  1  6  2 -1</clus>
<clus scale="  476.229">  4  5 -1 -1</clus>
<clus scale="  300.000">  1  4  2 -1</clus>
</clustering>
</event>
<event>
 6    1  0.9687246E-012  0.3000000E+03  0.7818608E-02  0.1093470E+00
          1   -1    0    0  502    0  0.00000000000E+00  0.00000000000E+00  0.24273103156E+03  0.24273103156E+03  0.00000000000E+00 0.  1.
         13   -1    0    0    0    0 -0.00000000000E+00 -0.00000000000E+00 -0.27500000000E+03  0.27500000000E+03  0.00000000000E+00 0.  1.
    9000005    2    1    2  501    0 -0.23549115268E+02  0.21534509654E+02 -0.30352962564E+02  0.48576281274E+03  0.48376224736E+03 0.  0.
         13    1    3    3    0    0  0.30677282901E+02  0.22748658754E+03 -0.11480981972E+03  0.25665645891E+03  0.00000000000E+00 0.  1.
          1    1    3    3  501    0 -0.54226398169E+02 -0.20595207789E+03  0.84456857157E+02  0.22910635383E+03  0.00000000000E+00 0.  1.
         21    1    1    2  502  501  0.23549115268E+02 -0.21534509654E+02 -0.19160058760E+01  0.31968218819E+02  0.00000000000E+00 0. -1.
<scales pt_clust_4="550.00000" pt_clust_5="550.00000" pt_clust_6="31.91075"></scales>
<mgrwt>
<rscale>  0 0.30000000E+03</rscale>
<asrwt>  1 0.31910750E+02</asrwt>
<pdfrwt beam="1">  1        1 0.88265830E+00 0.30000000E+03</pdfrwt>
<pdfrwt beam="2">0</pdfrwt>
<totfact> 0.18571696E-04</totfact>
</mgrwt>
<clustering>
<clus scale="   31.911">  1  6  2 -1</clus>
<clus scale="  483.762">  4  5 -1 -1</clus>
<clus scale="  300.000">  1  4  2 -1</clus>
</clustering>
</event>
<event>
 6    1  0.9687246E-012  0.3000000E+03  0.7818608E-02  0.1093470E+00
          1   -1    0    0  502    0  0.00000000000E+00  0.00000000000E+00  0.22510820696E+03  0.22510820696E+03  0.00000000000E+00 0.  1.
         13   -1    0    0    0    0 -0.00000000000E+00 -0.00000000000E+00 -0.27500000000E+03  0.27500000000E+03  0.00000000000E+00 0.  1.
    9000005    2    1    2  501    0  0.11481408381E+02  0.31630746200E+02 -0.60219222833E+02  0.46490902161E+03  0.45976267435E+03 0.  0.
         13    1    3    3    0    0  0.21194411355E+03  0.11067525746E+03  0.69405046653E+01  0.23920177777E+03  0.00000000000E+00 0.  1.
          1    1    3    3  501    0 -0.20046270517E+03 -0.79044511255E+02 -0.67159727499E+02  0.22570724384E+03  0.00000000000E+00 0.  1.
         21    1    1    2  502  501 -0.11481408381E+02 -0.31630746200E+02  0.10327429798E+02  0.35199185357E+02  0.00000000000E+00 0.  1.
<scales pt_clust_4="550.00000" pt_clust_5="550.00000" pt_clust_6="33.65006"></scales>
<mgrwt>
<rscale>  0 0.30000000E+03</rscale>
<asrwt>  1 0.33650065E+02</asrwt>
<pdfrwt beam="1">  1        1 0.81857530E+00 0.30000000E+03</pdfrwt>
<pdfrwt beam="2">0</pdfrwt>
<totfact> 0.74940192E-04</totfact>
</mgrwt>
<clustering>
<clus scale="   33.650">  1  6  2 -1</clus>
<clus scale="  459.763">  4  5 -1 -1</clus>
<clus scale="  300.000">  1  4  2 -1</clus>
</clustering>
</event>
<event>
 6    1  0.9687246E-012  0.3000000E+03  0.7818608E-02  0.1093470E+00
          1   -1    0    0  502    0  0.00000000000E+00  0.00000000000E+00  0.25202643551E+03  0.25202643551E+03  0.00000000000E+00 0.  1.
         13   -1    0    0    0    0 -0.00000000000E+00 -0.00000000000E+00 -0.27500000000E+03  0.27500000000E+03  0.00000000000E+00 0.  1.
    9000005    2    1    2  501    0 -0.17238492682E+02 -0.26245691958E+02 -0.67226991573E+02  0.47276440657E+03  0.46690546553E+03 0.  0.
         13    1    3    3    0    0 -0.11013117339E+02  0.18051633006E+03  0.10009893582E+03  0.20670566301E+03  0.00000000000E+00 0.  1.
          1    1    3    3  501    0 -0.62253753432E+01 -0.20676202201E+03 -0.16732592739E+03  0.26605874355E+03  0.00000000000E+00 0.  1.
         21    1    1    2  502  501  0.17238492682E+02  0.26245691958E+02  0.44253427086E+02  0.54262028945E+02  0.00000000000E+00 0. -1.
<scales pt_clust_4="550.00000" pt_clust_5="550.00000" pt_clust_6="31.40067"></scales>
<mgrwt>
<rscale>  0 0.30000000E+03</rscale>
<asrwt>  1 0.31400668E+02</asrwt>
<pdfrwt beam="1">  1        1 0.91645977E+00 0.30000000E+03</pdfrwt>
<pdfrwt beam="2">0</pdfrwt>
<totfact> 0.51152734E-05</totfact>
</mgrwt>
<clustering>
<clus scale="   31.401">  1  6  2 -1</clus>
<clus scale="  466.905">  4  5 -1 -1</clus>
<clus scale="  300.000">  1  4  2 -1</clus>
</clustering>
</event>
<event>
 6    1  0.9687246E-012  0.3000000E+03  0.7818608E-02  0.1093470E+00
          1   -1    0    0  502    0  0.00000000000E+00  0.00000000000E+00  0.23634625552E+03  0.23634625552E+03  0.00000000000E+00 0.  1.
         13   -1    0    0    0    0 -0.00000000000E+00 -0.00000000000E+00 -0.27500000000E+03  0.27500000000E+03  0.00000000000E+00 0.  1.
    9000005    2    1    2  501    0 -0.24499523249E+02  0.23347032828E+02 -0.49369103241E+02  0.47584795282E+03  0.47206848578E+03 0.  0.
         13    1    3    3    0    0 -0.56757055090E+02  0.11368036347E+03  0.18395819976E+03  0.22357371849E+03  0.00000000000E+00 0.  1.
          3    1    3    3  501    0  0.32257531841E+02 -0.90333330637E+02 -0.23332730300E+03  0.25227423433E+03  0.00000000000E+00 0.  1.
         21    1    1    2  502  501  0.24499523249E+02 -0.23347032828E+02  0.10715358761E+02  0.35498302701E+02  0.00000000000E+00 0.  1.
<scales pt_clust_4="550.00000" pt_clust_5="550.00000" pt_clust_6="33.84244"></scales>
<mgrwt>
<rscale>  0 0.30000000E+03</rscale>
<asrwt>  1 0.33842438E+02</asrwt>
<pdfrwt beam="1">  1        1 0.85944093E+00 0.30000000E+03</pdfrwt>
<pdfrwt beam="2">0</pdfrwt>
<totfact> 0.33000072E-04</totfact>
</mgrwt>
<clustering>
<clus scale="   33.842">  1  6  2 -1</clus>
<clus scale="  472.068">  4  5 -1 -1</clus>
<clus scale="  300.000">  1  4  2 -1</clus>
</clustering>
</event>
<event>
 6    1  0.9687246E-012  0.3000000E+03  0.7818608E-02  0.1093470E+00
          1   -1    0    0  502    0  0.00000000000E+00  0.00000000000E+00  0.23503679077E+03  0.23503679077E+03  0.00000000000E+00 0.  1.
         13   -1    0    0    0    0 -0.00000000000E+00 -0.00000000000E+00 -0.27500000000E+03  0.27500000000E+03  0.00000000000E+00 0.  1.
    9000005    2    1    2  501    0 -0.32278970865E+02  0.16296599333E+02 -0.68327857141E+02  0.46407958936E+03  0.45759551800E+03 0.  0.
         13    1    3    3    0    0 -0.78724167476E+02  0.14523211254E+03  0.13876699121E+03  0.21574554203E+03  0.00000000000E+00 0.  1.
          3    1    3    3  501    0  0.46445196612E+02 -0.12893551320E+03 -0.20709484835E+03  0.24833404733E+03  0.00000000000E+00 0.  1.
         21    1    1    2  502  501  0.32278970865E+02 -0.16296599333E+02  0.28364647907E+02  0.45957201403E+02  0.00000000000E+00 0.  1.
<scales pt_clust_4="550.00000" pt_clust_5="550.00000" pt_clust_6="36.15952"></scales>
<mgrwt>
<rscale>  0 0.30000000E+03</rscale>
<asrwt>  1 0.36159523E+02</asrwt>
<pdfrwt beam="1">  1        1 0.85467924E+00 0.30000000E+03</pdfrwt>
<pdfrwt beam="2">0</pdfrwt>
<totfact> 0.36478210E-04</totfact>
</mgrwt>
<clustering>
<clus scale="   36.160">  1  6  2 -1</clus>
<clus scale="  457.596">  4  5 -1 -1</clus>
<clus scale="  300.000">  1  4  2 -1</clus>
</clustering>
</event>
<event>
 6    1  0.9687246E-012  0.3000000E+03  0.7818608E-02  0.1093470E+00
          1   -1    0    0  502    0  0.00000000000E+00  0.00000000000E+00  0.23148807574E+03  0.23148807574E+03  0.00000000000E+00 0.  1.
         13   -1    0    0    0    0 -0.00000000000E+00 -0.00000000000E+00 -0.27500000000E+03  0.27500000000E+03  0.00000000000E+00 0.  1.
    9000005    2    1    2  501    0  0.34957726382E+02  0.24394509458E+02 -0.43875360533E+02  0.46385866322E+03  0.45980721771E+03 0.  0.
         13    1    3    3    0    0 -0.15523450517E+03 -0.91277959076E+02 -0.13321020033E+03  0.22399637247E+03  0.00000000000E+00 0.  1.
          1    1    3    3  501    0  0.19019223156E+03  0.11567246853E+03  0.89334839795E+02  0.23986229075E+03  0.00000000000E+00 0.  1.
         21    1    1    2  502  501 -0.34957726382E+02 -0.24394509458E+02  0.36343626767E+00  0.42629412516E+02  0.00000000000E+00 0.  1.
<scales pt_clust_4="550.00000" pt_clust_5="550.00000" pt_clust_6="42.62786"></scales>
<mgrwt>
<rscale>  0 0.30000000E+03</rscale>
<asrwt>  1 0.42627863E+02</asrwt>
<pdfrwt beam="1">  1        1 0.84177482E+00 0.30000000E+03</pdfrwt>
<pdfrwt beam="2">0</pdfrwt>
<totfact> 0.46410268E-04</totfact>
</mgrwt>
<clustering>
<clus scale="   42.628">  1  6  2 -1</clus>
<clus scale="  459.807">  4  5 -1 -1</clus>
<clus scale="  300.000">  1  4  2 -1</clus>
</clustering>
</event>
<event>
 6    1  0.9687246E-012  0.3000000E+03  0.7818608E-02  0.1093470E+00
          1   -1    0    0  502    0  0.00000000000E+00  0.00000000000E+00  0.22745954423E+03  0.22745954423E+03  0.00000000000E+00 0.  1.
         13   -1    0    0    0    0 -0.00000000000E+00 -0.00000000000E+00 -0.27500000000E+03  0.27500000000E+03  0.00000000000E+00 0.  1.
    9000005    2    1    2  501    0 -0.20461394777E+02 -0.30190776876E+02 -0.57810471428E+02  0.46456990309E+03  0.45951386547E+03 0.  0.
         13    1    3    3    0    0 -0.22014509410E+03 -0.46904508935E+02 -0.11958592736E+03  0.25488171656E+03  0.00000000000E+00 0.  1.
          1    1    3    3  501    0  0.19968369932E+03  0.16713732060E+02  0.61775455932E+02  0.20968818653E+03  0.00000000000E+00 0.  1.
         21    1    1    2  502  501  0.20461394777E+02  0.30190776876E+02  0.10270015660E+02  0.37889641147E+02  0.00000000000E+00 0. -1.
<scales pt_clust_4="550.00000" pt_clust_5="550.00000" pt_clust_6="36.47124"></scales>
<mgrwt>
<rscale>  0 0.30000000E+03</rscale>
<asrwt>  1 0.36471245E+02</asrwt>
<pdfrwt beam="1">  1        1 0.82712562E+00 0.30000000E+03</pdfrwt>
<pdfrwt beam="2">0</pdfrwt>
<totfact> 0.62065246E-04</totfact>
</mgrwt>
<clustering>
<clus scale="   36.471">  1  6  2 -1</clus>
<clus scale="  459.514">  4  5 -1 -1</clus>
<clus scale="  300.000">  1  4  2 -1</clus>
</clustering>
</event>
<event>
 6    1  0.9687246E-012  0.3000000E+03  0.7818608E-02  0.1093470E+00
          1   -1    0    0  502    0  0.00000000000E+00  0.00000000000E+00  0.24882497152E+03  0.24882497152E+03  0.00000000000E+00 0.  1.
         13   -1    0    0    0    0 -0.00000000000E+00 -0.00000000000E+00 -0.27500000000E+03  0.27500000000E+03  0.00000000000E+00 0.  1.
    9000005    2    1    2  501    0  0.35697196862E+02  0.12409525020E+02 -0.17400315650E+00  0.47795189125E+03  0.47645534302E+03 0.  0.
         13    1    3    3    0    0  0.11020175206E+03 -0.19527594380E+03 -0.87446760293E+02  0.24067417034E+03  0.00000000000E+00 0.  1.
          1    1    3    3  501    0 -0.74504555199E+02  0.20768546882E+03  0.87272757136E+02  0.23727772091E+03  0.00000000000E+00 0.  1.
         21    1    1    2  502  501 -0.35697196862E+02 -0.12409525020E+02 -0.26001025328E+02  0.45873080266E+02  0.00000000000E+00 0.  1.
<scales pt_clust_4="550.00000" pt_clust_5="550.00000" pt_clust_6="37.79269"></scales>
<mgrwt>
<rscale>  0 0.30000000E+03</rscale>
<asrwt>  1 0.37792692E+02</asrwt>
<pdfrwt beam="1">  1        1 0.90481808E+00 0.30000000E+03</pdfrwt>
<pdfrwt beam="2">0</pdfrwt>
<totfact> 0.91875535E-05</totfact>
</mgrwt>
<clustering>
<clus scale="   37.793">  1  6  2 -1</clus>
<clus scale="  476.455">  4  5 -1 -1</clus>
<clus scale="  300.000">  1  4  2 -1</clus>
</clustering>
</event>
<event>
 6    1  0.9687246E-012  0.3000000E+03  0.7818608E-02  0.1093470E+00
          1   -1    0    0  502    0  0.00000000000E+00  0.00000000000E+00  0.26097733131E+03  0.26097733131E+03  0.00000000000E+00 0.  1.
         13   -1    0    0    0    0 -0.00000000000E+00 -0.00000000000E+00 -0.27500000000E+03  0.27500000000E+03  0.00000000000E+00 0.  1.
    9000005    2    1    2  501    0  0.47356850838E+02 -0.39808724456E+02 -0.30108728224E+02  0.47205419641E+03  0.46701308651E+03 0.  0.
         13    1    3    3    0    0  0.36116107241E+02 -0.25021948048E+03  0.25594868298E+02  0.25410481872E+03  0.00000000000E+00 0.  1.
          3    1    3    3  501    0  0.11240743597E+02  0.21041075603E+03 -0.55703596522E+02  0.21794937769E+03  0.00000000000E+00 0.  1.
         21    1    1    2  502  501 -0.47356850838E+02  0.39808724456E+02  0.16086059533E+02  0.63923134900E+02  0.00000000000E+00 0.  1.
<scales pt_clust_4="550.00000" pt_clust_5="550.00000" pt_clust_6="61.86603"></scales>
<mgrwt>
<rscale>  0 0.30000000E+03</rscale>
<asrwt>  1 0.61866032E+02</asrwt>
<pdfrwt beam="1">  1        1 0.94900848E+00 0.30000000E+03</pdfrwt>
<pdfrwt beam="2">0</pdfrwt>
<totfact> 0.11684162E-05</totfact>
</mgrwt>
<clustering>
<clus scale="   61.866">  1  6  2 -1</clus>
<clus scale="  467.013">  4  5 -1 -1</clus>
<clus scale="  300.000">  1  4  2 -1</clus>
</clustering>
</event>
<event>
 6    1  0.9687246E-012  0.3000000E+03  0.7818608E-02  0.1093470E+00
          1   -1    0    0  502    0  0.00000000000E+00  0.00000000000E+00  0.23223813051E+03  0.23223813051E+03  0.00000000000E+00 0.  1.
         13   -1    0    0    0    0 -0.00000000000E+00 -0.00000000000E+00 -0.27500000000E+03  0.27500000000E+03  0.00000000000E+00 0.  1.
    9000005    2    1    2  501    0 -0.21025523111E+02  0.30269942015E+02 -0.46854939653E+02  0.47015585394E+03  0.46636123297E+03 0.  0.
         13    1    3    3    0    0  0.10295518421E+02 -0.14394841006E+03  0.14812975028E+03  0.20680803992E+03  0.00000000000E+00 0.  1.
          3    1    3    3  501    0 -0.31321041532E+02  0.17421835208E+03 -0.19498468993E+03  0.26334781402E+03  0.00000000000E+00 0.  1.
         21    1    1    2  502  501  0.21025523111E+02 -0.30269942015E+02  0.40930701597E+01  0.37082276562E+02  0.00000000000E+00 0. -1.
<scales pt_clust_4="550.00000" pt_clust_5="550.00000" pt_clust_6="36.85569"></scales>
<mgrwt>
<rscale>  0 0.30000000E+03</rscale>
<asrwt>  1 0.36855692E+02</asrwt>
<pdfrwt beam="1">  1        1 0.84450229E+00 0.30000000E+03</pdfrwt>
<pdfrwt beam="2">0</pdfrwt>
<totfact> 0.45198375E-04</totfact>
</mgrwt>
<clustering>
<clus scale="   36.856">  1  6  2 -1</clus>
<clus scale="  466.361">  4  5 -1 -1</clus>
<clus scale="  300.000">  1  4  2 -1</clus>
</clustering>
</event>
<event>
 6    1  0.9687246E-012  0.3000000E+03  0.7818608E-02  0.1093470E+00
          1   -1    0    0  502    0  0.00000000000E+00  0.00000000000E+00  0.23664877587E+03  0.23664877587E+03  0.00000000000E+00 0.  1.
         13   -1    0    0    0    0 -0.00000000000E+00 -0.00000000000E+00 -0.27500000000E+03  0.27500000000E+03  0.00000000000E+00 0.  1.
    9000005    2    1    2  501    0 -0.34344977023E+02  0.12173241020E+02 -0.45986558883E+02  0.47441890103E+03  0.47077676750E+03 0.  0.
         13    1    3    3    0    0 -0.11563224332E+03 -0.18709566306E+03  0.68872478014E+02  0.23047564092E+03  0.00000000000E+00 0.  1.
          1    1    3    3  501    0  0.81287266295E+02  0.19926890408E+03 -0.11485903690E+03  0.24394326011E+03  0.00000000000E+00 0.  1.
         21    1    1    2  502  501  0.34344977023E+02 -0.12173241020E+02  0.76353347538E+01  0.37229874838E+02  0.00000000000E+00 0.  1.
<scales pt_clust_4="550.00000" pt_clust_5="550.00000" pt_clust_6="36.43851"></scales>
<mgrwt>
<rscale>  0 0.30000000E+03</rscale>
<asrwt>  1 0.36438513E+02</asrwt>
<pdfrwt beam="1">  1        1 0.86054100E+00 0.30000000E+03</pdfrwt>
<pdfrwt beam="2">0</pdfrwt>
<totfact> 0.31679669E-04</totfact>
</mgrwt>
<clustering>
<clus scale="   36.439">  1  6  2 -1</clus>
<clus scale="  470.777">  4  5 -1 -1</clus>
<clus scale="  300.000">  1  4  2 -1</clus>
</clustering>
</event>
<event>
 6    1  0.9687246E-012  0.3000000E+03  0.7818608E-02  0.1093470E+00
          1   -1    0    0  502    0  0.00000000000E+00  0.00000000000E+00  0.22612029904E+03  0.22612029904E+03  0.00000000000E+00 0.  1.
         13   -1    0    0    0    0 -0.00000000000E+00 -0.00000000000E+00 -0.27500000000E+03  0.27500000000E+03  0.00000000000E+00 0.  1.
    9000005    2    1    2  501    0 -0.27835676969E+02 -0.14644761631E+02 -0.35985537121E+02  0.46712686708E+03  0.46467543200E+03 0.  0.
         13    1    3    3    0    0  0.21242693225E+03  0.24832732653E+01 -0.70413224090E+02  0.22380659132E+03  0.00000000000E+00 0.  1.
          1    1    3    3  501    0 -0.24026260921E+03 -0.17128034896E+02  0.34427686970E+02  0.24332027576E+03  0.00000000000E+00 0.  1.
         21    1    1    2  502  501  0.27835676969E+02  0.14644761631E+02 -0.12894163839E+02  0.33993431964E+02  0.00000000000E+00 0.  1.
<scales pt_clust_4="550.00000" pt_clust_5="550.00000" pt_clust_6="31.45306"></scales>
<mgrwt>
<rscale>  0 0.30000000E+03</rscale>
<asrwt>  1 0.31453059E+02</asrwt>
<pdfrwt beam="1">  1        1 0.82225563E+00 0.30000000E+03</pdfrwt>
<pdfrwt beam="2">0</pdfrwt>
<totfact> 0.70514333E-04</totfact>
</mgrwt>
<clustering>
<clus scale="   31.453">  1  6  2 -1</clus>
<clus scale="  464.675">  4  5 -1 -1</clus>
<clus scale="  300.000">  1  4  2 -1</clus>
</clustering>
</event>
<event>
 6    1  0.9687246E-012  0.3000000E+03  0.7818608E-02  0.1093470E+00
          1   -1    0    0  502    0  0.00000000000E+00  0.00000000000E+00  0.22331254731E+03  0.22331254731E+03  0.00000000000E+00 0.  1.
         13   -1    0    0    0    0 -0.00000000000E+00 -0.00000000000E+00 -0.27500000000E+03  0.27500000000E+03  0.00000000000E+00 0.  1.
    9000005    2    1    2  501    0 -0.34951355495E+02 -0.45678201778E+00 -0.54397413733E+02  0.46325331473E+03  0.45871859466E+03 0.  0.
         13    1    3    3    0    0  0.54948532675E+01 -0.22124170532E+03  0.30241570058E+02  0.22336660034E+03  0.00000000000E+00 0.  1.
          1    1    3    3  501    0 -0.40446208763E+02  0.22078492331E+03 -0.84638983791E+02  0.23988671439E+03  0.00000000000E+00 0.  1.
         21    1    1    2  502  501  0.34951355495E+02  0.45678201778E+00  0.27099610457E+01  0.35059232588E+02  0.00000000000E+00 0.  1.
<scales pt_clust_4="550.00000" pt_clust_5="550.00000" pt_clust_6="34.95434"></scales>
<mgrwt>
<rscale>  0 0.30000000E+03</rscale>
<asrwt>  1 0.34954340E+02</asrwt>
<pdfrwt beam="1">  1        1 0.81204563E+00 0.30000000E+03</pdfrwt>
<pdfrwt beam="2">0</pdfrwt>
<totfact> 0.84070286E-04</totfact>
</mgrwt>
<clustering>
<clus scale="   34.954">  1  6  2 -1</clus>
<clus scale="  458.719">  4  5 -1 -1</clus>
<clus scale="  300.000">  1  4  2 -1</clus>
</clustering>
</event>
<event>
 6    1  0.9687246E-012  0.3000000E+03  0.7818608E-02  0.1093470E+00
          1   -1    0    0  502    0  0.00000000000E+00  0.00000000000E+00  0.23911950618E+03  0.23911950618E+03  0.00000000000E+00 0.  1.
         13   -1    0    0    0    0 -0.00000000000E+00 -0.00000000000E+00 -0.27500000000E+03  0.27500000000E+03  0.00000000000E+00 0.  1.
    9000005    2    1    2  501    0 -0.12471283810E+01  0.34580841499E+02 -0.55144712308E+02  0.47451521296E+03  0.47002803970E+03 0.  0.
         13    1    3    3    0    0 -0.49438874248E+02 -0.86390675184E+02 -0.23341436721E+03  0.25375148840E+03  0.00000000000E+00 0.  1.
          1    1    3    3  501    0  0.48191745867E+02  0.12097151668E+03  0.17826965490E+03  0.22076372455E+03  0.00000000000E+00 0.  1.
         21    1    1    2  502  501  0.12471283810E+01 -0.34580841499E+02  0.19264218493E+02  0.39604293229E+02  0.00000000000E+00 0.  1.
<scales pt_clust_4="550.00000" pt_clust_5="550.00000" pt_clust_6="34.60332"></scales>
<mgrwt>
<rscale>  0 0.30000000E+03</rscale>
<asrwt>  1 0.34603322E+02</asrwt>
<pdfrwt beam="1">  1        1 0.86952548E+00 0.30000000E+03</pdfrwt>
<pdfrwt beam="2">0</pdfrwt>
<totfact> 0.25664756E-04</totfact>
</mgrwt>
<clustering>
<clus scale="   34.603">  1  6  2 -1</clus>
<clus scale="  470.028">  4  5 -1 -1</clus>
<clus scale="  300.000">  1  4  2 -1</clus>
</clustering>
</event>
<event>
 6    1  0.9687246E-012  0.3000000E+03  0.7818608E-02  0.1093470E+00
          1   -1    0    0  502    0  0.00000000000E+00  0.00000000000E+00  0.23039322047E+03  0.23039322047E+03  0.00000000000E+00 0.  1.
         13   -1    0    0    0    0 -0.00000000000E+00 -0.00000000000E+00 -0.27500000000E+03  0.27500000000E+03  0.00000000000E+00 0.  1.
    9000005    2    1    2  501    0  0.53508472143E+01 -0.30951642559E+02 -0.51850713864E+02  0.47315798622E+03  0.46925829524E+03 0.  0.
         13    1    3    3    0    0 -0.14007850513E+03  0.13609756040E+03 -0.13408157187E+03  0.23690167045E+03  0.00000000000E+00 0.  1.
          1    1    3    3  501    0  0.14542935234E+03 -0.16704920296E+03  0.82230858011E+02  0.23625631577E+03  0.00000000000E+00 0.  1.
         21    1    1    2  502  501 -0.53508472143E+01  0.30951642559E+02  0.72439343379E+01  0.32235234258E+02  0.00000000000E+00 0.  1.
<scales pt_clust_4="550.00000" pt_clust_5="550.00000" pt_clust_6="31.41076"></scales>
<mgrwt>
<rscale>  0 0.30000000E+03</rscale>
<asrwt>  1 0.31410758E+02</asrwt>
<pdfrwt beam="1">  1        1 0.83779353E+00 0.30000000E+03</pdfrwt>
<pdfrwt beam="2">0</pdfrwt>
<totfact> 0.52692836E-04</totfact>
</mgrwt>
<clustering>
<clus scale="   31.411">  1  6  2 -1</clus>
<clus scale="  469.258">  4  5 -1 -1</clus>
<clus scale="  300.000">  1  4  2 -1</clus>
</clustering>
</event>
<event>
 6    1  0.9687246E-012  0.3000000E+03  0.7818608E-02  0.1093470E+00
          1   -1    0    0  502    0  0.00000000000E+00  0.00000000000E+00  0.23046364556E+03  0.23046364556E+03  0.00000000000E+00 0.  1.
         13   -1    0    0    0    0 -0.00000000000E+00 -0.00000000000E+00 -0.27500000000E+03  0.27500000000E+03  0.00000000000E+00 0.  1.
    9000005    2    1    2  501    0  0.98753673740E+01 -0.30348407568E+02 -0.53163181291E+02  0.47240353570E+03  0.46831637594E+03 0.  0.
         13    1    3    3    0    0 -0.94616226823E+02  0.38095662632E+02  0.18056989845E+03  0.20738610878E+03  0.00000000000E+00 0.  1.
          1    1    3    3  501    0  0.10449159420E+03 -0.68444070200E+02 -0.23373307974E+03  0.26501742691E+03  0.00000000000E+00 0.  1.
         21    1    1    2  502  501 -0.98753673740E+01  0.30348407568E+02  0.86268268500E+01  0.33060109863E+02  0.00000000000E+00 0. -1.
<scales pt_clust_4="550.00000" pt_clust_5="550.00000" pt_clust_6="31.91471"></scales>
<mgrwt>
<rscale>  0 0.30000000E+03</rscale>
<asrwt>  1 0.31914710E+02</asrwt>
<pdfrwt beam="1">  1        1 0.83804962E+00 0.30000000E+03</pdfrwt>
<pdfrwt beam="2">0</pdfrwt>
<totfact> 0.52306607E-04</totfact>
</mgrwt>
<clustering>
<clus scale="   31.915">  1  6  2 -1</clus>
<clus scale="  468.316">  4  5 -1 -1</clus>
<clus scale="  300.000">  1  4  2 -1</clus>
</clustering>
</event>
<event>
 6    1  0.9687246E-012  0.3000000E+03  0.7818608E-02  0.1093470E+00
          1   -1    0    0  502    0  0.00000000000E+00  0.00000000000E+00  0.24353870427E+03  0.24353870427E+03  0.00000000000E+00 0.  1.
         13   -1    0    0    0    0 -0.00000000000E+00 -0.00000000000E+00 -0.27500000000E+03  0.27500000000E+03  0.00000000000E+00 0.  1.
    9000005    2    1    2  501    0 -0.25101064926E+02  0.20345669151E+02 -0.56731623886E+02  0.47751920648E+03  0.47303499416E+03 0.  0.
         13    1    3    3    0    0 -0.18103380006E+02  0.15065238720E+03  0.16253794917E+03  0.22235660336E+03  0.00000000000E+00 0.  1.
          3    1    3    3  501    0 -0.69976849203E+01 -0.13030671805E+03 -0.21926957306E+03  0.25516260312E+03  0.00000000000E+00 0.  1.
         21    1    1    2  502  501  0.25101064926E+02 -0.20345669151E+02  0.25270328154E+02  0.41019497786E+02  0.00000000000E+00 0.  1.
<scales pt_clust_4="550.00000" pt_clust_5="550.00000" pt_clust_6="32.31114"></scales>
<mgrwt>
<rscale>  0 0.30000000E+03</rscale>
<asrwt>  1 0.32311139E+02</asrwt>
<pdfrwt beam="1">  1        1 0.88559529E+00 0.30000000E+03</pdfrwt>
<pdfrwt beam="2">0</pdfrwt>
<totfact> 0.16907034E-04</totfact>
</mgrwt>
<clustering>
<clus scale="   32.311">  1  6  2 -1</clus>
<clus scale="  473.035">  4  5 -1 -1</clus>
<clus scale="  300.000">  1  4  2 -1</clus>
</clustering>
</event>
<event>
 6    1  0.9687246E-012  0.3000000E+03  0.7818608E-02  0.1093470E+00
          1   -1    0    0  502    0  0.00000000000E+00  0.00000000000E+00  0.24818519084E+03  0.24818519084E+03  0.00000000000E+00 0.  1.
         13   -1    0    0    0    0 -0.00000000000E+00 -0.00000000000E+00 -0.27500000000E+03  0.27500000000E+03  0.00000000000E+00 0.  1.
    9000005    2    1    2  501    0  0.15955338834E+02  0.47278069550E+02 -0.60848134269E+02  0.46278605247E+03  0.45604675881E+03 0.  0.
         13    1    3    3    0    0  0.79217073426E+02  0.23914957753E+03 -0.48194001787E+00  0.25192875465E+03  0.00000000000E+00 0.  1.
          3    1    3    3  501    0 -0.63261734592E+02 -0.19187150798E+03 -0.60366194251E+02  0.21085729782E+03  0.00000000000E+00 0.  1.
         21    1    1    2  502  501 -0.15955338834E+02 -0.47278069550E+02  0.34033325112E+02  0.60399138370E+02  0.00000000000E+00 0.  1.
<scales pt_clust_4="550.00000" pt_clust_5="550.00000" pt_clust_6="49.89778"></scales>
<mgrwt>
<rscale>  0 0.30000000E+03</rscale>
<asrwt>  1 0.49897782E+02</asrwt>
<pdfrwt beam="1">  1        1 0.90249160E+00 0.30000000E+03</pdfrwt>
<pdfrwt beam="2">0</pdfrwt>
<totfact> 0.95712504E-05</totfact>
</mgrwt>
<clustering>
<clus scale="   49.898">  1  6  2 -1</clus>
<clus scale="  456.047">  4  5 -1 -1</clus>
<clus scale="  300.000">  1  4  2 -1</clus>
</clustering>
</event>
<event>
 6    1  0.9687246E-012  0.3000000E+03  0.7818608E-02  0.1093470E+00
          1   -1    0    0  502    0  0.00000000000E+00  0.00000000000E+00  0.23233710606E+03  0.23233710606E+03  0.00000000000E+00 0.  1.
         13   -1    0    0    0    0 -0.00000000000E+00 -0.00000000000E+00 -0.27500000000E+03  0.27500000000E+03  0.00000000000E+00 0.  1.
    9000005    2    1    2  501    0 -0.30987450157E+02 -0.71610707100E+01 -0.73013054495E+02  0.46337535852E+03  0.45648035419E+03 0.  0.
         13    1    3    3    0    0  0.14510220296E+03  0.15473350326E+03 -0.72501793030E+02  0.22417318378E+03  0.00000000000E+00 0.  1.
          1    1    3    3  501    0 -0.17608965311E+03 -0.16189457397E+03 -0.51126146449E+00  0.23920217474E+03  0.00000000000E+00 0.  1.
         21    1    1    2  502  501  0.30987450157E+02  0.71610707100E+01  0.30350160558E+02  0.43961747540E+02  0.00000000000E+00 0.  1.
<scales pt_clust_4="550.00000" pt_clust_5="550.00000" pt_clust_6="31.80413"></scales>
<mgrwt>
<rscale>  0 0.30000000E+03</rscale>
<asrwt>  1 0.31804135E+02</asrwt>
<pdfrwt beam="1">  1        1 0.84486220E+00 0.30000000E+03</pdfrwt>
<pdfrwt beam="2">0</pdfrwt>
<totfact> 0.46133796E-04</totfact>
</mgrwt>
<clustering>
<clus scale="   31.804">  1  6  2 -1</clus>
<clus scale="  456.480">  4  5 -1 -1</clus>
<clus scale="  300.000">  1  4  2 -1</clus>
</clustering>
</event>
<event>
 6    1  0.9687246E-012  0.3000000E+03  0.7818608E-02  0.1093470E+00
          1   -1    0    0  502    0  0.00000000000E+00  0.00000000000E+00  0.23580237564E+03  0.23580237564E+03  0.00000000000E+00 0.  1.
         13   -1    0    0    0    0 -0.00000000000E+00 -0.00000000000E+00 -0.27500000000E+03  0.27500000000E+03  0.00000000000E+00 0.  1.
    9000005    2    1    2  501    0  0.91567930102E+01  0.33429356064E+02 -0.28511738300E+02  0.47453176956E+03  0.47240460666E+03 0.  0.
         13    1    3    3    0    0 -0.14606047056E+03 -0.72178346425E+02 -0.17299346975E+03  0.23763441529E+03  0.00000000000E+00 0.  1.
          1    1    3    3  501    0  0.15521726357E+03  0.10560770249E+03  0.14448173145E+03  0.23689735427E+03  0.00000000000E+00 0.  1.
         21    1    1    2  502  501 -0.91567930102E+01 -0.33429356064E+02 -0.10685886058E+02  0.36270606087E+02  0.00000000000E+00 0. -1.
<scales pt_clust_4="550.00000" pt_clust_5="550.00000" pt_clust_6="34.66078"></scales>
<mgrwt>
<rscale>  0 0.30000000E+03</rscale>
<asrwt>  1 0.34660783E+02</asrwt>
<pdfrwt beam="1">  1        1 0.85746318E+00 0.30000000E+03</pdfrwt>
<pdfrwt beam="2">0</pdfrwt>
<totfact> 0.34459693E-04</totfact>
</mgrwt>
<clustering>
<clus scale="   34.661">  1  6  2 -1</clus>
<clus scale="  472.405">  4  5 -1 -1</clus>
<clus scale="  300.000">  1  4  2 -1</clus>
</clustering>
</event>
<event>
 6    1  0.9687246E-012  0.3000000E+03  0.7818608E-02  0.1093470E+00
          1   -1    0    0  502    0  0.00000000000E+00  0.00000000000E+00  0.22262720079E+03  0.22262720079E+03  0.00000000000E+00 0.  1.
         13   -1    0    0    0    0 -0.00000000000E+00 -0.00000000000E+00 -0.27500000000E+03  0.27500000000E+03  0.00000000000E+00 0.  1.
    9000005    2    1    2  501    0 -0.19161101743E+02  0.25174856809E+02 -0.43231227029E+02  0.46469561143E+03  0.46159739065E+03 0.  0.
         13    1    3    3    0    0 -0.55116251269E+02  0.17898083324E+03  0.13174398063E+03  0.22897252292E+03  0.00000000000E+00 0.  1.
          3    1    3    3  501    0  0.35955149527E+02 -0.15380597643E+03 -0.17497520766E+03  0.23572308851E+03  0.00000000000E+00 0.  1.
         21    1    1    2  502  501  0.19161101743E+02 -0.25174856809E+02 -0.91415721859E+01  0.32931589354E+02  0.00000000000E+00 0. -1.
<scales pt_clust_4="550.00000" pt_clust_5="550.00000" pt_clust_6="31.63736"></scales>
<mgrwt>
<rscale>  0 0.30000000E+03</rscale>
<asrwt>  1 0.31637355E+02</asrwt>
<pdfrwt beam="1">  1        1 0.80955346E+00 0.30000000E+03</pdfrwt>
<pdfrwt beam="2">0</pdfrwt>
<totfact> 0.89608388E-04</totfact>
</mgrwt>
<clustering>
<clus scale="   31.637">  1  6  2 -1</clus>
<clus scale="  461.597">  4  5 -1 -1</clus>
<clus scale="  300.000">  1  4  2 -1</clus>
</clustering>
</event>
<event>
 6    1  0.9687246E-012  0.3000000E+03  0.7818608E-02  0.1093470E+00
          1   -1    0    0  502    0  0.00000000000E+00  0.00000000000E+00  0.23856265238E+03  0.23856265238E+03  0.00000000000E+00 0.  1.
         13   -1    0    0    0    0 -0.00000000000E+00 -0.00000000000E+00 -0.27500000000E+03  0.27500000000E+03  0.00000000000E+00 0.  1.
    9000005    2    1    2  501    0 -0.44820772699E+02  0.63902863599E+00 -0.60035187146E+02  0.46290529306E+03  0.45680168194E+03 0.  0.
         13    1    3    3    0    0 -0.20381815872E+03  0.45935983074E+02 -0.16573190332E+03  0.26668149569E+03  0.00000000000E+00 0.  1.
          1    1    3    3  501    0  0.15899738602E+03 -0.45296954438E+02  0.10569671617E+03  0.19622379737E+03  0.00000000000E+00 0.  1.
         21    1    1    2  502  501  0.44820772699E+02 -0.63902863599E+00  0.23597839521E+02  0.50657359318E+02  0.00000000000E+00 0.  1.
<scales pt_clust_4="550.00000" pt_clust_5="550.00000" pt_clust_6="44.82533"></scales>
<mgrwt>
<rscale>  0 0.30000000E+03</rscale>
<asrwt>  1 0.44825328E+02</asrwt>
<pdfrwt beam="1">  1        1 0.86750055E+00 0.30000000E+03</pdfrwt>
<pdfrwt beam="2">0</pdfrwt>
<totfact> 0.25686207E-04</totfact>
</mgrwt>
<clustering>
<clus scale="   44.825">  1  6  2 -1</clus>
<clus scale="  456.802">  4  5 -1 -1</clus>
<clus scale="  300.000">  1  4  2 -1</clus>
</clustering>
</event>
<event>
 6    1  0.9687246E-012  0.3000000E+03  0.7818608E-02  0.1093470E+00
          1   -1    0    0  502    0  0.00000000000E+00  0.00000000000E+00  0.23755285757E+03  0.23755285757E+03  0.00000000000E+00 0.  1.
         13   -1    0    0    0    0 -0.00000000000E+00 -0.00000000000E+00 -0.27500000000E+03  0.27500000000E+03  0.00000000000E+00 0.  1.
    9000005    2    1    2  501    0 -0.17862680107E+02 -0.25943796686E+02 -0.65600559206E+02  0.47030630974E+03  0.46464226636E+03 0.  0.
         13    1    3    3    0    0  0.84871419996E+01  0.29512712798E+02  0.19763429873E+03  0.20000586949E+03  0.00000000000E+00 0.  1.
          1    1    3    3  501    0 -0.26349822106E+02 -0.55456509484E+02 -0.26323485794E+03  0.27030044025E+03  0.00000000000E+00 0.  1.
         21    1    1    2  502  501  0.17862680107E+02  0.25943796686E+02  0.28153416781E+02  0.42246547830E+02  0.00000000000E+00 0.  1.
<scales pt_clust_4="550.00000" pt_clust_5="550.00000" pt_clust_6="31.49851"></scales>
<mgrwt>
<rscale>  0 0.30000000E+03</rscale>
<asrwt>  1 0.31498507E+02</asrwt>
<pdfrwt beam="1">  1        1 0.86382857E+00 0.30000000E+03</pdfrwt>
<pdfrwt beam="2">0</pdfrwt>
<totfact> 0.30005496E-04</totfact>
</mgrwt>
<clustering>
<clus scale="   31.499">  1  6  2 -1</clus>
<clus scale="  464.642">  4  5 -1 -1</clus>
<clus scale="  300.000">  1  4  2 -1</clus>
</clustering>
</event>
<event>
 6    1  0.9687246E-012  0.3000000E+03  0.7818608E-02  0.1093470E+00
          1   -1    0    0  502    0  0.00000000000E+00  0.00000000000E+00  0.21999007057E+03  0.21999007057E+03  0.00000000000E+00 0.  1.
         13   -1    0    0    0    0 -0.00000000000E+00 -0.00000000000E+00 -0.27500000000E+03  0.27500000000E+03  0.00000000000E+00 0.  1.
    9000005    2    1    2  501    0 -0.30247764561E+02  0.14336593846E+02 -0.45980755354E+02  0.46032032629E+03  0.45679328777E+03 0.  0.
         13    1    3    3    0    0  0.15077662963E+03 -0.85618645265E+00  0.13609747032E+03  0.20311781439E+03  0.00000000000E+00 0.  1.
          3    1    3    3  501    0 -0.18102439419E+03  0.15192780299E+02 -0.18207822567E+03  0.25720251190E+03  0.00000000000E+00 0.  1.
         21    1    1    2  502  501  0.30247764561E+02 -0.14336593846E+02 -0.90291740723E+01  0.34669744280E+02  0.00000000000E+00 0. -1.
<scales pt_clust_4="550.00000" pt_clust_5="550.00000" pt_clust_6="33.47337"></scales>
<mgrwt>
<rscale>  0 0.30000000E+03</rscale>
<asrwt>  1 0.33473367E+02</asrwt>
<pdfrwt beam="1">  1        1 0.79996389E+00 0.30000000E+03</pdfrwt>
<pdfrwt beam="2">0</pdfrwt>
<totfact> 0.10463765E-03</totfact>
</mgrwt>
<clustering>
<clus scale="   33.473">  1  6  2 -1</clus>
<clus scale="  456.793">  4  5 -1 -1</clus>
<clus scale="  300.000">  1  4  2 -1</clus>
</clustering>
</event>
<event>
 6    1  0.9687246E-012  0.3000000E+03  0.7818608E-02  0.1093470E+00
          1   -1    0    0  502    0  0.00000000000E+00  0.00000000000E+00  0.23340687612E+03  0.23340687612E+03  0.00000000000E+00 0.  1.
         13   -1    0    0    0    0 -0.00000000000E+00 -0.00000000000E+00 -0.27500000000E+03  0.27500000000E+03  0.00000000000E+00 0.  1.
    9000005    2    1    2  501    0 -0.32779852216E+02 -0.18835219079E+02 -0.62240462921E+02  0.46533023745E+03  0.45959663889E+03 0.  0.
         13    1    3    3    0    0  0.17838353772E+03  0.78944849500E+02 -0.11537564392E+03  0.22663740865E+03  0.00000000000E+00 0.  1.
          3    1    3    3  501    0 -0.21116338994E+03 -0.97780068579E+02  0.53135180998E+02  0.23869282880E+03  0.00000000000E+00 0.  1.
         21    1    1    2  502  501  0.32779852216E+02  0.18835219079E+02  0.20647339036E+02  0.43076638661E+02  0.00000000000E+00 0. -1.
<scales pt_clust_4="550.00000" pt_clust_5="550.00000" pt_clust_6="37.80588"></scales>
<mgrwt>
<rscale>  0 0.30000000E+03</rscale>
<asrwt>  1 0.37805875E+02</asrwt>
<pdfrwt beam="1">  1        1 0.84875228E+00 0.30000000E+03</pdfrwt>
<pdfrwt beam="2">0</pdfrwt>
<totfact> 0.41207900E-04</totfact>
</mgrwt>
<clustering>
<clus scale="   37.806">  1  6  2 -1</clus>
<clus scale="  459.597">  4  5 -1 -1</clus>
<clus scale="  300.000">  1  4  2 -1</clus>
</clustering>
</event>
<event>
 6    1  0.9687246E-012  0.3000000E+03  0.7818608E-02  0.1093470E+00
          1   -1    0    0  502    0  0.00000000000E+00  0.00000000000E+00  0.26230208308E+03  0.26230208308E+03  0.00000000000E+00 0.  1.
         13   -1    0    0    0    0 -0.00000000000E+00 -0.00000000000E+00 -0.27500000000E+03  0.27500000000E+03  0.00000000000E+00 0.  1.
    9000005    2    1    2  501    0  0.29169195931E+02  0.12012049271E+02 -0.19386993445E+02  0.50505498920E+03  0.50369589564E+03 0.  0.
         13    1    3    3    0    0 -0.76378100792E+02 -0.49333572505E+02 -0.23793790242E+03  0.25471918079E+03  0.00000000000E+00 0.  1.
          3    1    3    3  501    0  0.10554729672E+03  0.61345621777E+02  0.21855090897E+03  0.25033580840E+03  0.00000000000E+00 0.  1.
         21    1    1    2  502  501 -0.29169195931E+02 -0.12012049271E+02  0.66890765236E+01  0.32247093880E+02  0.00000000000E+00 0. -1.
<scales pt_clust_4="550.00000" pt_clust_5="550.00000" pt_clust_6="31.54570"></scales>
<mgrwt>
<rscale>  0 0.30000000E+03</rscale>
<asrwt>  1 0.31545702E+02</asrwt>
<pdfrwt beam="1">  1        1 0.95382576E+00 0.30000000E+03</pdfrwt>
<pdfrwt beam="2">0</pdfrwt>
<totfact> 0.10481042E-05</totfact>
</mgrwt>
<clustering>
<clus scale="   31.546">  1  6  2 -1</clus>
<clus scale="  503.696">  4  5 -1 -1</clus>
<clus scale="  300.000">  1  4  2 -1</clus>
</clustering>
</event>
<event>
 6    1  0.9687246E-012  0.3000000E+03  0.7818608E-02  0.1093470E+00
          1   -1    0    0  502    0  0.00000000000E+00  0.00000000000E+00  0.23307299188E+03  0.23307299188E+03  0.00000000000E+00 0.  1.
         13   -1    0    0    0    0 -0.00000000000E+00 -0.00000000000E+00 -0.27500000000E+03  0.27500000000E+03  0.00000000000E+00 0.  1.
    9000005    2    1    2  501    0  0.15218984888E+02  0.44355298643E+02 -0.47289355084E+02  0.46087378867E+03  0.45603657305E+03 0.  0.
         13    1    3    3    0    0  0.11030487209E+03  0.10241547061E+03 -0.21322893073E+03  0.26100319984E+03  0.00000000000E+00 0.  1.
          3    1    3    3  501    0 -0.95085887201E+02 -0.58060171964E+02  0.16593957564E+03  0.19987058883E+03  0.00000000000E+00 0.  1.
         21    1    1    2  502  501 -0.15218984888E+02 -0.44355298643E+02  0.53623469601E+01  0.47199203210E+02  0.00000000000E+00 0. -1.
<scales pt_clust_4="550.00000" pt_clust_5="550.00000" pt_clust_6="46.89360"></scales>
<mgrwt>
<rscale>  0 0.30000000E+03</rscale>
<asrwt>  1 0.46893603E+02</asrwt>
<pdfrwt beam="1">  1        1 0.84753815E+00 0.30000000E+03</pdfrwt>
<pdfrwt beam="2">0</pdfrwt>
<totfact> 0.40662660E-04</totfact>
</mgrwt>
<clustering>
<clus scale="   46.894">  1  6  2 -1</clus>
<clus scale="  456.037">  4  5 -1 -1</clus>
<clus scale="  300.000">  1  4  2 -1</clus>
</clustering>
</event>
<event>
 6    1  0.9687246E-012  0.3000000E+03  0.7818608E-02  0.1093470E+00
          1   -1    0    0  502    0  0.00000000000E+00  0.00000000000E+00  0.25043672833E+03  0.25043672833E+03  0.00000000000E+00 0.  1.
         13   -1    0    0    0    0 -0.00000000000E+00 -0.00000000000E+00 -0.27500000000E+03  0.27500000000E+03  0.00000000000E+00 0.  1.
    9000005    2    1    2  501    0 -0.18928106697E+02 -0.23959951869E+02 -0.42544882745E+02  0.49000099984E+03  0.48719458154E+03 0.  0.
         13    1    3    3    0    0 -0.15143878676E+03  0.15989697511E+03 -0.11962235107E+03  0.25061974316E+03  0.00000000000E+00 0.  1.
          3    1    3    3  501    0  0.13251068006E+03 -0.18385692698E+03  0.77077468326E+02  0.23938125668E+03  0.00000000000E+00 0.  1.
         21    1    1    2  502  501  0.18928106697E+02  0.23959951869E+02  0.17981611075E+02  0.35435728489E+02  0.00000000000E+00 0.  1.
<scales pt_clust_4="550.00000" pt_clust_5="550.00000" pt_clust_6="30.53445"></scales>
<mgrwt>
<rscale>  0 0.30000000E+03</rscale>
<asrwt>  1 0.30534448E+02</asrwt>
<pdfrwt beam="1">  1        1 0.91067901E+00 0.30000000E+03</pdfrwt>
<pdfrwt beam="2">0</pdfrwt>
<totfact> 0.70968175E-05</totfact>
</mgrwt>
<clustering>
<clus scale="   30.534">  1  6  2 -1</clus>
<clus scale="  487.195">  4  5 -1 -1</clus>
<clus scale="  300.000">  1  4  2 -1</clus>
</clustering>
</event>
<event>
 6    1  0.9687246E-012  0.3000000E+03  0.7818608E-02  0.1093470E+00
          1   -1    0    0  502    0  0.00000000000E+00  0.00000000000E+00  0.24070801515E+03  0.24070801515E+03  0.00000000000E+00 0.  1.
         13   -1    0    0    0    0 -0.00000000000E+00 -0.00000000000E+00 -0.27500000000E+03  0.27500000000E+03  0.00000000000E+00 0.  1.
    9000005    2    1    2  501    0 -0.19236555860E+02 -0.33505820555E+02 -0.56408810151E+02  0.47119016419E+03  0.46620331603E+03 0.  0.
         13    1    3    3    0    0 -0.65400705639E+02 -0.12770755311E+03  0.16952299517E+03  0.22209123646E+03  0.00000000000E+00 0.  1.
          3    1    3    3  501    0  0.46164149780E+02  0.94201732559E+02 -0.22593180532E+03  0.24909892773E+03  0.00000000000E+00 0.  1.
         21    1    1    2  502  501  0.19236555860E+02  0.33505820555E+02  0.22116825301E+02  0.44517850957E+02  0.00000000000E+00 0.  1.
<scales pt_clust_4="550.00000" pt_clust_5="550.00000" pt_clust_6="38.63528"></scales>
<mgrwt>
<rscale>  0 0.30000000E+03</rscale>
<asrwt>  1 0.38635283E+02</asrwt>
<pdfrwt beam="1">  1        1 0.87530187E+00 0.30000000E+03</pdfrwt>
<pdfrwt beam="2">0</pdfrwt>
<totfact> 0.21922173E-04</totfact>
</mgrwt>
<clustering>
<clus scale="   38.635">  1  6  2 -1</clus>
<clus scale="  466.203">  4  5 -1 -1</clus>
<clus scale="  300.000">  1  4  2 -1</clus>
</clustering>
</event>
<event>
 6    1  0.9687246E-012  0.3000000E+03  0.7818608E-02  0.1093470E+00
          1   -1    0    0  502    0  0.00000000000E+00  0.00000000000E+00  0.24356695791E+03  0.24356695791E+03  0.00000000000E+00 0.  1.
         13   -1    0    0    0    0 -0.00000000000E+00 -0.00000000000E+00 -0.27500000000E+03  0.27500000000E+03  0.00000000000E+00 0.  1.
    9000005    2    1    2  501    0 -0.26597695941E+02 -0.23143204211E+02 -0.47466921325E+02  0.47983543827E+03  0.47617842650E+03 0.  0.
         13    1    3    3    0    0 -0.11428043123E+03 -0.98915695241E+01 -0.24102590403E+03  0.26692947856E+03  0.00000000000E+00 0.  1.
          3    1    3    3  501    0  0.87682735293E+02 -0.13251634687E+02  0.19355898271E+03  0.21290595970E+03  0.00000000000E+00 0.  1.
         21    1    1    2  502  501  0.26597695941E+02  0.23143204211E+02  0.16033879235E+02  0.38731519643E+02  0.00000000000E+00 0.  1.
<scales pt_clust_4="550.00000" pt_clust_5="550.00000" pt_clust_6="35.25685"></scales>
<mgrwt>
<rscale>  0 0.30000000E+03</rscale>
<asrwt>  1 0.35256848E+02</asrwt>
<pdfrwt beam="1">  1        1 0.88569803E+00 0.30000000E+03</pdfrwt>
<pdfrwt beam="2">0</pdfrwt>
<totfact> 0.16577484E-04</totfact>
</mgrwt>
<clustering>
<clus scale="   35.257">  1  6  2 -1</clus>
<clus scale="  476.178">  4  5 -1 -1</clus>
<clus scale="  300.000">  1  4  2 -1</clus>
</clustering>
</event>
<event>
 6    1  0.9687246E-012  0.3000000E+03  0.7818608E-02  0.1093470E+00
          1   -1    0    0  502    0  0.00000000000E+00  0.00000000000E+00  0.22258853003E+03  0.22258853003E+03  0.00000000000E+00 0.  1.
         13   -1    0    0    0    0 -0.00000000000E+00 -0.00000000000E+00 -0.27500000000E+03  0.27500000000E+03  0.00000000000E+00 0.  1.
    9000005    2    1    2  501    0 -0.11886713831E+02  0.28789127680E+02 -0.62524013198E+02  0.46484144819E+03  0.45956306628E+03 0.  0.
         13    1    3    3    0    0  0.97104114071E+02 -0.17251957104E+03  0.57787066848E+02  0.20623180273E+03  0.00000000000E+00 0.  1.
          3    1    3    3  501    0 -0.10899082790E+03  0.20130869872E+03 -0.12031108005E+03  0.25860964547E+03  0.00000000000E+00 0.  1.
         21    1    1    2  502  501  0.11886713831E+02 -0.28789127680E+02  0.10112543224E+02  0.32747081835E+02  0.00000000000E+00 0.  1.
<scales pt_clust_4="550.00000" pt_clust_5="550.00000" pt_clust_6="31.14655"></scales>
<mgrwt>
<rscale>  0 0.30000000E+03</rscale>
<asrwt>  1 0.31146554E+02</asrwt>
<pdfrwt beam="1">  1        1 0.80941284E+00 0.30000000E+03</pdfrwt>
<pdfrwt beam="2">0</pdfrwt>
<totfact> 0.90102809E-04</totfact>
</mgrwt>
<clustering>
<clus scale="   31.147">  1  6  2 -1</clus>
<clus scale="  459.563">  4  5 -1 -1</clus>
<clus scale="  300.000">  1  4  2 -1</clus>
</clustering>
</event>
<event>
 6    1  0.9687246E-012  0.3000000E+03  0.7818608E-02  0.1093470E+00
          1   -1    0    0  502    0  0.00000000000E+00  0.00000000000E+00  0.24602302853E+03  0.24602302853E+03  0.00000000000E+00 0.  1.
         13   -1    0    0    0    0 -0.00000000000E+00 -0.00000000000E+00 -0.27500000000E+03  0.27500000000E+03  0.00000000000E+00 0.  1.
    9000005    2    1    2  501    0 -0.30002501657E+02  0.28045623837E+02 -0.65804533509E+02  0.46585984835E+03  0.45935656581E+03 0.  0.
         13    1    3    3    0    0  0.15165655897E+03  0.22113465984E+02  0.12835030231E+03  0.19990627143E+03  0.00000000000E+00 0.  1.
          1    1    3    3  501    0 -0.18165906062E+03  0.59321578535E+01 -0.19415483582E+03  0.26595357692E+03  0.00000000000E+00 0.  1.
         21    1    1    2  502  501  0.30002501657E+02 -0.28045623837E+02  0.36827562041E+02  0.55163180183E+02  0.00000000000E+00 0.  1.
<scales pt_clust_4="550.00000" pt_clust_5="550.00000" pt_clust_6="41.06954"></scales>
<mgrwt>
<rscale>  0 0.30000000E+03</rscale>
<asrwt>  1 0.41069540E+02</asrwt>
<pdfrwt beam="1">  1        1 0.89462919E+00 0.30000000E+03</pdfrwt>
<pdfrwt beam="2">0</pdfrwt>
<totfact> 0.12361186E-04</totfact>
</mgrwt>
<clustering>
<clus scale="   41.070">  1  6  2 -1</clus>
<clus scale="  459.357">  4  5 -1 -1</clus>
<clus scale="  300.000">  1  4  2 -1</clus>
</clustering>
</event>
<event>
 6    1  0.9687246E-012  0.3000000E+03  0.7818608E-02  0.1093470E+00
          1   -1    0    0  502    0  0.00000000000E+00  0.00000000000E+00  0.23617978660E+03  0.23617978660E+03  0.00000000000E+00 0.  1.
         13   -1    0    0    0    0 -0.00000000000E+00 -0.00000000000E+00 -0.27500000000E+03  0.27500000000E+03  0.00000000000E+00 0.  1.
    9000005    2    1    2  501    0 -0.40055367085E+02 -0.25345182920E+02 -0.47766380401E+02  0.46294240863E+03  0.45802536598E+03 0.  0.
         13    1    3    3    0    0  0.10664997080E+03  0.79128655491E+02 -0.19113667016E+03  0.23274188938E+03  0.00000000000E+00 0.  1.
          3    1    3    3  501    0 -0.14670533788E+03 -0.10447383841E+03  0.14337028976E+03  0.23020051925E+03  0.00000000000E+00 0.  1.
         21    1    1    2  502  501  0.40055367085E+02  0.25345182920E+02  0.89461670030E+01  0.48237377972E+02  0.00000000000E+00 0. -1.
<scales pt_clust_4="550.00000" pt_clust_5="550.00000" pt_clust_6="47.40054"></scales>
<mgrwt>
<rscale>  0 0.30000000E+03</rscale>
<asrwt>  1 0.47400535E+02</asrwt>
<pdfrwt beam="1">  1        1 0.85883559E+00 0.30000000E+03</pdfrwt>
<pdfrwt beam="2">0</pdfrwt>
<totfact> 0.31492970E-04</totfact>
</mgrwt>
<clustering>
<clus scale="   47.401">  1  6  2 -1</clus>
<clus scale="  458.025">  4  5 -1 -1</clus>
<clus scale="  300.000">  1  4  2 -1</clus>
</clustering>
</event>
<event>
 6    1  0.9687246E-012  0.3000000E+03  0.7818608E-02  0.1093470E+00
          1   -1    0    0  502    0  0.00000000000E+00  0.00000000000E+00  0.24369677366E+03  0.24369677366E+03  0.00000000000E+00 0.  1.
         13   -1    0    0    0    0 -0.00000000000E+00 -0.00000000000E+00 -0.27500000000E+03  0.27500000000E+03  0.00000000000E+00 0.  1.
    9000005    2    1    2  501    0 -0.25770762815E+02 -0.25340682134E+02 -0.30840408220E+02  0.48255128172E+03  0.48020654548E+03 0.  0.
         13    1    3    3    0    0  0.13414705859E+03 -0.87108463212E+02  0.15984924023E+03  0.22613070842E+03  0.00000000000E+00 0.  1.
          1    1    3    3  501    0 -0.15991782141E+03  0.61767781078E+02 -0.19068964845E+03  0.25642057329E+03  0.00000000000E+00 0.  1.
         21    1    1    2  502  501  0.25770762815E+02  0.25340682134E+02 -0.46281812285E+00  0.36145491941E+02  0.00000000000E+00 0. -1.
<scales pt_clust_4="550.00000" pt_clust_5="550.00000" pt_clust_6="36.14253"></scales>
<mgrwt>
<rscale>  0 0.30000000E+03</rscale>
<asrwt>  1 0.36142529E+02</asrwt>
<pdfrwt beam="1">  1        1 0.88617009E+00 0.30000000E+03</pdfrwt>
<pdfrwt beam="2">0</pdfrwt>
<totfact> 0.16255508E-04</totfact>
</mgrwt>
<clustering>
<clus scale="   36.143">  1  6  2 -1</clus>
<clus scale="  480.207">  4  5 -1 -1</clus>
<clus scale="  300.000">  1  4  2 -1</clus>
</clustering>
</event>
<event>
 6    1  0.9687246E-012  0.3000000E+03  0.7818608E-02  0.1093470E+00
          1   -1    0    0  502    0  0.00000000000E+00  0.00000000000E+00  0.25415366387E+03  0.25415366387E+03  0.00000000000E+00 0.  1.
         13   -1    0    0    0    0 -0.00000000000E+00 -0.00000000000E+00 -0.27500000000E+03  0.27500000000E+03  0.00000000000E+00 0.  1.
    9000005    2    1    2  501    0  0.24495209815E+02 -0.38156308040E+02 -0.89467651686E+01  0.48227596197E+03  0.48005639225E+03 0.  0.
         13    1    3    3    0    0  0.48223473768E+02 -0.29719341164E+02  0.23261104648E+03  0.23940894220E+03  0.00000000000E+00 0.  1.
          1    1    3    3  501    0 -0.23728263954E+02 -0.84369668762E+01 -0.24155781165E+03  0.24286701976E+03  0.00000000000E+00 0.  1.
         21    1    1    2  502  501 -0.24495209815E+02  0.38156308040E+02 -0.11899570958E+02  0.46877701907E+02  0.00000000000E+00 0.  1.
<scales pt_clust_4="550.00000" pt_clust_5="550.00000" pt_clust_6="45.34227"></scales>
<mgrwt>
<rscale>  0 0.30000000E+03</rscale>
<asrwt>  1 0.45342267E+02</asrwt>
<pdfrwt beam="1">  1        1 0.92419514E+00 0.30000000E+03</pdfrwt>
<pdfrwt beam="2">0</pdfrwt>
<totfact> 0.32501004E-05</totfact>
</mgrwt>
<clustering>
<clus scale="   45.342">  1  6  2 -1</clus>
<clus scale="  480.056">  4  5 -1 -1</clus>
<clus scale="  300.000">  1  4  2 -1</clus>
</clustering>
</event>
<event>
 6    1  0.9687246E-012  0.3000000E+03  0.7818608E-02  0.1093470E+00
          1   -1    0    0  502    0  0.00000000000E+00  0.00000000000E+00  0.22009109335E+03  0.22009109335E+03  0.00000000000E+00 0.  1.
         13   -1    0    0    0    0 -0.00000000000E+00 -0.00000000000E+00 -0.27500000000E+03  0.27500000000E+03  0.00000000000E+00 0.  1.
    9000005    2    1    2  501    0  0.21737252396E+02 -0.23197984648E+02 -0.44391855014E+02  0.46160582780E+03  0.45836519156E+03 0.  0.
         13    1    3    3    0    0 -0.17088419479E+03  0.12845814581E+03 -0.31693008929E+02  0.21611883321E+03  0.00000000000E+00 0.  1.
          3    1    3    3  501    0  0.19262144719E+03 -0.15165613046E+03 -0.12698846085E+02  0.24548699459E+03  0.00000000000E+00 0.  1.
         21    1    1    2  502  501 -0.21737252396E+02  0.23197984648E+02 -0.10517051638E+02  0.33485265545E+02  0.00000000000E+00 0.  1.
<scales pt_clust_4="550.00000" pt_clust_5="550.00000" pt_clust_6="31.79081"></scales>
<mgrwt>
<rscale>  0 0.30000000E+03</rscale>
<asrwt>  1 0.31790811E+02</asrwt>
<pdfrwt beam="1">  1        1 0.80033125E+00 0.30000000E+03</pdfrwt>
<pdfrwt beam="2">0</pdfrwt>
<totfact> 0.10502077E-03</totfact>
</mgrwt>
<clustering>
<clus scale="   31.791">  1  6  2 -1</clus>
<clus scale="  458.365">  4  5 -1 -1</clus>
<clus scale="  300.000">  1  4  2 -1</clus>
</clustering>
</event>
<event>
 6    1  0.9687246E-012  0.3000000E+03  0.7818608E-02  0.1093470E+00
          1   -1    0    0  502    0  0.00000000000E+00  0.00000000000E+00  0.24278195100E+03  0.24278195100E+03  0.00000000000E+00 0.  1.
         13   -1    0    0    0    0 -0.00000000000E+00 -0.00000000000E+00 -0.27500000000E+03  0.27500000000E+03  0.00000000000E+00 0.  1.
    9000005    2    1    2  501    0 -0.21917516055E+02  0.26443403130E+02 -0.58928050869E+02  0.47427269590E+03  0.46934256553E+03 0.  0.
         13    1    3    3    0    0 -0.21825264746E+03 -0.80042878787E+02  0.28929831222E+02  0.23426057224E+03  0.00000000000E+00 0.  1.
          3    1    3    3  501    0  0.19633513141E+03  0.10648628192E+03 -0.87857882091E+02  0.24001212367E+03  0.00000000000E+00 0.  1.
         21    1    1    2  502  501  0.21917516055E+02 -0.26443403130E+02  0.26710001870E+02  0.43509255096E+02  0.00000000000E+00 0.  1.
<scales pt_clust_4="550.00000" pt_clust_5="550.00000" pt_clust_6="34.34576"></scales>
<mgrwt>
<rscale>  0 0.30000000E+03</rscale>
<asrwt>  1 0.34345758E+02</asrwt>
<pdfrwt beam="1">  1        1 0.88284346E+00 0.30000000E+03</pdfrwt>
<pdfrwt beam="2">0</pdfrwt>
<totfact> 0.18212312E-04</totfact>
</mgrwt>
<clustering>
<clus scale="   34.346">  1  6  2 -1</clus>
<clus scale="  469.343">  4  5 -1 -1</clus>
<clus scale="  300.000">  1  4  2 -1</clus>
</clustering>
</event>
<event>
 6    1  0.9687246E-012  0.3000000E+03  0.7818608E-02  0.1093470E+00
          1   -1    0    0  502    0  0.00000000000E+00  0.00000000000E+00  0.23441988735E+03  0.23441988735E+03  0.00000000000E+00 0.  1.
         13   -1    0    0    0    0 -0.00000000000E+00 -0.00000000000E+00 -0.27500000000E+03  0.27500000000E+03  0.00000000000E+00 0.  1.
    9000005    2    1    2  501    0 -0.15384923496E+02 -0.27053093649E+02 -0.55416726129E+02  0.47494249118E+03  0.47067057551E+03 0.  0.
         13    1    3    3    0    0  0.85512014340E+02  0.96973190141E+02  0.16061127514E+03  0.20618459182E+03  0.00000000000E+00 0.  1.
          3    1    3    3  501    0 -0.10089693784E+03 -0.12402628379E+03 -0.21602800127E+03  0.26875789936E+03  0.00000000000E+00 0.  1.
         21    1    1    2  502  501  0.15384923496E+02  0.27053093649E+02  0.14836613477E+02  0.34477396166E+02  0.00000000000E+00 0. -1.
<scales pt_clust_4="550.00000" pt_clust_5="550.00000" pt_clust_6="31.12179"></scales>
<mgrwt>
<rscale>  0 0.30000000E+03</rscale>
<asrwt>  1 0.31121789E+02</asrwt>
<pdfrwt beam="1">  1        1 0.85243595E+00 0.30000000E+03</pdfrwt>
<pdfrwt beam="2">0</pdfrwt>
<totfact> 0.39452866E-04</totfact>
</mgrwt>
<clustering>
<clus scale="   31.122">  1  6  2 -1</clus>
<clus scale="  470.671">  4  5 -1 -1</clus>
<clus scale="  300.000">  1  4  2 -1</clus>
</clustering>
</event>
<event>
 6    1  0.9687246E-012  0.3000000E+03  0.7818608E-02  0.1093470E+00
          1   -1    0    0  502    0  0.00000000000E+00  0.00000000000E+00  0.23009975764E+03  0.23009975764E+03  0.00000000000E+00 0.  1.
         13   -1    0    0    0    0 -0.00000000000E+00 -0.00000000000E+00 -0.27500000000E+03  0.27500000000E+03  0.00000000000E+00 0.  1.
    9000005    2    1    2  501    0 -0.23368925215E+02 -0.21662479686E+02 -0.55256677221E+02  0.47159415460E+03  0.46726050185E+03 0.  0.
         13    1    3    3    0    0 -0.14304514753E+03 -0.72869244316E+01  0.16623456882E+03  0.21942867946E+03  0.00000000000E+00 0.  1.
          3    1    3    3  501    0  0.11967622231E+03 -0.14375555254E+02 -0.22149124604E+03  0.25216547514E+03  0.00000000000E+00 0.  1.
         21    1    1    2  502  501  0.23368925215E+02  0.21662479686E+02  0.10356434858E+02  0.33505603036E+02  0.00000000000E+00 0.  1.
<scales pt_clust_4="550.00000" pt_clust_5="550.00000" pt_clust_6="31.86487"></scales>
<mgrwt>
<rscale>  0 0.30000000E+03</rscale>
<asrwt>  1 0.31864866E+02</asrwt>
<pdfrwt beam="1">  1        1 0.83672639E+00 0.30000000E+03</pdfrwt>
<pdfrwt beam="2">0</pdfrwt>
<totfact> 0.53497754E-04</totfact>
</mgrwt>
<clustering>
<clus scale="   31.865">  1  6  2 -1</clus>
<clus scale="  467.261">  4  5 -1 -1</clus>
<clus scale="  300.000">  1  4  2 -1</clus>
</clustering>
</event>
<event>
 6    1  0.9687246E-012  0.3000000E+03  0.7818608E-02  0.1093470E+00
          1   -1    0    0  502    0  0.00000000000E+00  0.00000000000E+00  0.22714538496E+03  0.22714538496E+03  0.00000000000E+00 0.  1.
         13   -1    0    0    0    0 -0.00000000000E+00 -0.00000000000E+00 -0.27500000000E+03  0.27500000000E+03  0.00000000000E+00 0.  1.
    9000005    2    1    2  501    0  0.45316818123E+01 -0.31987611561E+02 -0.44654419156E+02  0.46968025463E+03  0.46643518414E+03 0.  0.
         13    1    3    3    0    0 -0.65793175277E+02 -0.70084162361E+02  0.19479709308E+03  0.21722439826E+03  0.00000000000E+00 0.  1.
          3    1    3    3  501    0  0.70324857089E+02  0.38096550800E+02 -0.23945151223E+03  0.25245585637E+03  0.00000000000E+00 0.  1.
         21    1    1    2  502  501 -0.45316818123E+01  0.31987611561E+02 -0.32001958887E+01  0.32465130327E+02  0.00000000000E+00 0.  1.
<scales pt_clust_4="550.00000" pt_clust_5="550.00000" pt_clust_6="32.30703"></scales>
<mgrwt>
<rscale>  0 0.30000000E+03</rscale>
<asrwt>  1 0.32307034E+02</asrwt>
<pdfrwt beam="1">  1        1 0.82598322E+00 0.30000000E+03</pdfrwt>
<pdfrwt beam="2">0</pdfrwt>
<totfact> 0.64986438E-04</totfact>
</mgrwt>
<clustering>
<clus scale="   32.307">  1  6  2 -1</clus>
<clus scale="  466.435">  4  5 -1 -1</clus>
<clus scale="  300.000">  1  4  2 -1</clus>
</clustering>
</event>
<event>
 6    1  0.9687246E-012  0.3000000E+03  0.7818608E-02  0.1093470E+00
          1   -1    0    0  502    0  0.00000000000E+00  0.00000000000E+00  0.23996779121E+03  0.23996779121E+03  0.00000000000E+00 0.  1.
         13   -1    0    0    0    0 -0.00000000000E+00 -0.00000000000E+00 -0.27500000000E+03  0.27500000000E+03  0.00000000000E+00 0.  1.
    9000005    2    1    2  501    0  0.49434931786E+02  0.17130507285E+02 -0.40519093305E+02  0.46236196774E+03  0.45760192912E+03 0.  0.
         13    1    3    3    0    0  0.16290955019E+03  0.15008616884E+03  0.95164615719E+02  0.24108439126E+03  0.00000000000E+00 0.  1.
          3    1    3    3  501    0 -0.11347461841E+03 -0.13295566156E+03 -0.13568370902E+03  0.22127757649E+03  0.00000000000E+00 0.  1.
         21    1    1    2  502  501 -0.49434931786E+02 -0.17130507285E+02  0.54868845126E+01  0.52605823463E+02  0.00000000000E+00 0.  1.
<scales pt_clust_4="550.00000" pt_clust_5="550.00000" pt_clust_6="52.31889"></scales>
<mgrwt>
<rscale>  0 0.30000000E+03</rscale>
<asrwt>  1 0.52318895E+02</asrwt>
<pdfrwt beam="1">  1        1 0.87261015E+00 0.30000000E+03</pdfrwt>
<pdfrwt beam="2">0</pdfrwt>
<totfact> 0.22151116E-04</totfact>
</mgrwt>
<clustering>
<clus scale="   52.319">  1  6  2 -1</clus>
<clus scale="  457.602">  4  5 -1 -1</clus>
<clus scale="  300.000">  1  4  2 -1</clus>
</clustering>
</event>
<event>
 6    1  0.9687246E-012  0.3000000E+03  0.7818608E-02  0.1093470E+00
          1   -1    0    0  502    0  0.00000000000E+00  0.00000000000E+00  0.22169617459E+03  0.22169617459E+03  0.00000000000E+00 0.  1.
         13   -1    0    0    0    0 -0.00000000000E+00 -0.00000000000E+00 -0.27500000000E+03  0.27500000000E+03  0.00000000000E+00 0.  1.
    9000005    2    1    2  501    0  0.88282778867E+01 -0.29668423907E+02 -0.63579877208E+02  0.46408097709E+03  0.45866174752E+03 0.  0.
         13    1    3    3    0    0  0.13095403453E+03  0.12742988602E+03 -0.16008570076E+03  0.24292955069E+03  0.00000000000E+00 0.  1.
          1    1    3    3  501    0 -0.12212575665E+03 -0.15709830992E+03  0.96505823556E+02  0.22115142640E+03  0.00000000000E+00 0.  1.
         21    1    1    2  502  501 -0.88282778867E+01  0.29668423907E+02  0.10276051797E+02  0.32615197502E+02  0.00000000000E+00 0.  1.
<scales pt_clust_4="550.00000" pt_clust_5="550.00000" pt_clust_6="30.95406"></scales>
<mgrwt>
<rscale>  0 0.30000000E+03</rscale>
<asrwt>  1 0.30954061E+02</asrwt>
<pdfrwt beam="1">  1        1 0.80616791E+00 0.30000000E+03</pdfrwt>
<pdfrwt beam="2">0</pdfrwt>
<totfact> 0.95556598E-04</totfact>
</mgrwt>
<clustering>
<clus scale="   30.954">  1  6  2 -1</clus>
<clus scale="  458.662">  4  5 -1 -1</clus>
<clus scale="  300.000">  1  4  2 -1</clus>
</clustering>
</event>
<event>
 6    1  0.9687246E-012  0.3000000E+03  0.7818608E-02  0.1093470E+00
          1   -1    0    0  502    0  0.00000000000E+00  0.00000000000E+00  0.24942759633E+03  0.24942759633E+03  0.00000000000E+00 0.  1.
         13   -1    0    0    0    0 -0.00000000000E+00 -0.00000000000E+00 -0.27500000000E+03  0.27500000000E+03  0.00000000000E+00 0.  1.
    9000005    2    1    2  501    0 -0.35443317184E+02 -0.11744919706E+02 -0.67156435805E+02  0.46854017735E+03  0.46219664543E+03 0.  0.
         13    1    3    3    0    0 -0.23491133731E+02  0.22109550535E+03  0.11081715865E+02  0.22261594794E+03  0.00000000000E+00 0.  1.
          3    1    3    3  501    0 -0.11952183454E+02 -0.23284042506E+03 -0.78238151670E+02  0.24592422941E+03  0.00000000000E+00 0.  1.
         21    1    1    2  502  501  0.35443317184E+02  0.11744919706E+02  0.41584032140E+02  0.55887418986E+02  0.00000000000E+00 0.  1.
<scales pt_clust_4="550.00000" pt_clust_5="550.00000" pt_clust_6="37.33861"></scales>
<mgrwt>
<rscale>  0 0.30000000E+03</rscale>
<asrwt>  1 0.37338611E+02</asrwt>
<pdfrwt beam="1">  1        1 0.90700944E+00 0.30000000E+03</pdfrwt>
<pdfrwt beam="2">0</pdfrwt>
<totfact> 0.83197502E-05</totfact>
</mgrwt>
<clustering>
<clus scale="   37.339">  1  6  2 -1</clus>
<clus scale="  462.197">  4  5 -1 -1</clus>
<clus scale="  300.000">  1  4  2 -1</clus>
</clustering>
</event>
<event>
 6    1  0.9687246E-012  0.3000000E+03  0.7818608E-02  0.1093470E+00
          1   -1    0    0  502    0  0.00000000000E+00  0.00000000000E+00  0.23205319082E+03  0.23205319082E+03  0.00000000000E+00 0.  1.
         13   -1    0    0    0    0 -0.00000000000E+00 -0.00000000000E+00 -0.27500000000E+03  0.27500000000E+03  0.00000000000E+00 0.  1.
    9000005    2    1    2  501    0 -0.30826128607E+02 -0.14415061289E+02 -0.52163414651E+02  0.47179712732E+03  0.46766811237E+03 0.  0.
         13    1    3    3    0    0 -0.11641350822E+03  0.18725871665E+03  0.55960594991E+02  0.22748520842E+03  0.00000000000E+00 0.  1.
          1    1    3    3  501    0  0.85587379616E+02 -0.20167377794E+03 -0.10812400964E+03  0.24431191890E+03  0.00000000000E+00 0.  1.
         21    1    1    2  502  501  0.30826128607E+02  0.14415061289E+02  0.92166054696E+01  0.35256063496E+02  0.00000000000E+00 0. -1.
<scales pt_clust_4="550.00000" pt_clust_5="550.00000" pt_clust_6="34.03005"></scales>
<mgrwt>
<rscale>  0 0.30000000E+03</rscale>
<asrwt>  1 0.34030048E+02</asrwt>
<pdfrwt beam="1">  1        1 0.84382978E+00 0.30000000E+03</pdfrwt>
<pdfrwt beam="2">0</pdfrwt>
<totfact> 0.46492209E-04</totfact>
</mgrwt>
<clustering>
<clus scale="   34.030">  1  6  2 -1</clus>
<clus scale="  467.668">  4  5 -1 -1</clus>
<clus scale="  300.000">  1  4  2 -1</clus>
</clustering>
</event>
<event>
 6    1  0.9687246E-012  0.3000000E+03  0.7818608E-02  0.1093470E+00
          1   -1    0    0  502    0  0.00000000000E+00  0.00000000000E+00  0.24542080552E+03  0.24542080552E+03  0.00000000000E+00 0.  1.
         13   -1    0    0    0    0 -0.00000000000E+00 -0.00000000000E+00 -0.27500000000E+03  0.27500000000E+03  0.00000000000E+00 0.  1.
    9000005    2    1    2  501    0  0.24612232443E+02  0.28376902778E+02 -0.44302789832E+00  0.47288211811E+03  0.47138762262E+03 0.  0.
         13    1    3    3    0    0  0.12271295294E+03 -0.18561317993E+03 -0.59208836858E+02  0.23025292126E+03  0.00000000000E+00 0.  1.
          1    1    3    3  501    0 -0.98100720502E+02  0.21399008271E+03  0.58765808960E+02  0.24262919685E+03  0.00000000000E+00 0.  1.
         21    1    1    2  502  501 -0.24612232443E+02 -0.28376902778E+02 -0.29136166584E+02  0.47538687406E+02  0.00000000000E+00 0. -1.
<scales pt_clust_4="550.00000" pt_clust_5="550.00000" pt_clust_6="37.56344"></scales>
<mgrwt>
<rscale>  0 0.30000000E+03</rscale>
<asrwt>  1 0.37563440E+02</asrwt>
<pdfrwt beam="1">  1        1 0.89243929E+00 0.30000000E+03</pdfrwt>
<pdfrwt beam="2">0</pdfrwt>
<totfact> 0.13322326E-04</totfact>
</mgrwt>
<clustering>
<clus scale="   37.563">  1  6  2 -1</clus>
<clus scale="  471.388">  4  5 -1 -1</clus>
<clus scale="  300.000">  1  4  2 -1</clus>
</clustering>
</event>
<event>
 6    1  0.9687246E-012  0.3000000E+03  0.7818608E-02  0.1093470E+00
          1   -1    0    0  502    0  0.00000000000E+00  0.00000000000E+00  0.23371922770E+03  0.23371922770E+03  0.00000000000E+00 0.  1.
         13   -1    0    0    0    0 -0.00000000000E+00 -0.00000000000E+00 -0.27500000000E+03  0.27500000000E+03  0.00000000000E+00 0.  1.
    9000005    2    1    2  501    0  0.26404764816E+02  0.27906435288E+02 -0.62017933572E+02  0.46506134648E+03  0.45930365900E+03 0.  0.
         13    1    3    3    0    0 -0.20970139121E+03  0.63725549731E+02 -0.55848319319E+02  0.22617394619E+03  0.00000000000E+00 0.  1.
          3    1    3    3  501    0  0.23610615603E+03 -0.35819114444E+02 -0.61696142532E+01  0.23888740028E+03  0.00000000000E+00 0.  1.
         21    1    1    2  502  501 -0.26404764816E+02 -0.27906435288E+02  0.20737161276E+02  0.43657881227E+02  0.00000000000E+00 0. -1.
<scales pt_clust_4="550.00000" pt_clust_5="550.00000" pt_clust_6="38.41849"></scales>
<mgrwt>
<rscale>  0 0.30000000E+03</rscale>
<asrwt>  1 0.38418495E+02</asrwt>
<pdfrwt beam="1">  1        1 0.84988810E+00 0.30000000E+03</pdfrwt>
<pdfrwt beam="2">0</pdfrwt>
<totfact> 0.40098058E-04</totfact>
</mgrwt>
<clustering>
<clus scale="   38.418">  1  6  2 -1</clus>
<clus scale="  459.304">  4  5 -1 -1</clus>
<clus scale="  300.000">  1  4  2 -1</clus>
</clustering>
</event>
<event>
 6    1  0.9687246E-012  0.3000000E+03  0.7818608E-02  0.1093470E+00
          1   -1    0    0  502    0  0.00000000000E+00  0.00000000000E+00  0.23367199003E+03  0.23367199003E+03  0.00000000000E+00 0.  1.
         13   -1    0    0    0    0 -0.00000000000E+00 -0.00000000000E+00 -0.27500000000E+03  0.27500000000E+03  0.00000000000E+00 0.  1.
    9000005    2    1    2  501    0 -0.29309991875E+02 -0.92821115530E+01 -0.42783746259E+02  0.47789289994E+03  0.47497993815E+03 0.  0.
         13    1    3    3    0    0  0.82367010716E+01 -0.17100983876E+03  0.14705552389E+03  0.22569345428E+03  0.00000000000E+00 0.  1.
          1    1    3    3  501    0 -0.37546692946E+02  0.16172772721E+03 -0.18983927015E+03  0.25219944566E+03  0.00000000000E+00 0.  1.
         21    1    1    2  502  501  0.29309991875E+02  0.92821115530E+01  0.14557362841E+01  0.30779090089E+02  0.00000000000E+00 0.  1.
<scales pt_clust_4="550.00000" pt_clust_5="550.00000" pt_clust_6="30.74465"></scales>
<mgrwt>
<rscale>  0 0.30000000E+03</rscale>
<asrwt>  1 0.30744645E+02</asrwt>
<pdfrwt beam="1">  1        1 0.84971633E+00 0.30000000E+03</pdfrwt>
<pdfrwt beam="2">0</pdfrwt>
<totfact> 0.41965859E-04</totfact>
</mgrwt>
<clustering>
<clus scale="   30.745">  1  6  2 -1</clus>
<clus scale="  474.980">  4  5 -1 -1</clus>
<clus scale="  300.000">  1  4  2 -1</clus>
</clustering>
</event>
<event>
 6    1  0.9687246E-012  0.3000000E+03  0.7818608E-02  0.1093470E+00
          1   -1    0    0  502    0  0.00000000000E+00  0.00000000000E+00  0.25444744017E+03  0.25444744017E+03  0.00000000000E+00 0.  1.
         13   -1    0    0    0    0 -0.00000000000E+00 -0.00000000000E+00 -0.27500000000E+03  0.27500000000E+03  0.00000000000E+00 0.  1.
    9000005    2    1    2  501    0  0.33869150662E+02 -0.17035286648E+02 -0.57041445292E+02  0.47682844056E+03  0.47188379384E+03 0.  0.
         13    1    3    3    0    0 -0.70521941229E+02  0.85424314070E+02 -0.22700446639E+03  0.25258995505E+03  0.00000000000E+00 0.  1.
          1    1    3    3  501    0  0.10439109189E+03 -0.10245960072E+03  0.16996302110E+03  0.22423848552E+03  0.00000000000E+00 0.  1.
         21    1    1    2  502  501 -0.33869150662E+02  0.17035286648E+02  0.36488885466E+02  0.52618999613E+02  0.00000000000E+00 0.  1.
<scales pt_clust_4="550.00000" pt_clust_5="550.00000" pt_clust_6="37.91201"></scales>
<mgrwt>
<rscale>  0 0.30000000E+03</rscale>
<asrwt>  1 0.37912008E+02</asrwt>
<pdfrwt beam="1">  1        1 0.92526342E+00 0.30000000E+03</pdfrwt>
<pdfrwt beam="2">0</pdfrwt>
<totfact> 0.31909491E-05</totfact>
</mgrwt>
<clustering>
<clus scale="   37.912">  1  6  2 -1</clus>
<clus scale="  471.884">  4  5 -1 -1</clus>
<clus scale="  300.000">  1  4  2 -1</clus>
</clustering>
</event>
<event>
 6    1  0.9687246E-012  0.3000000E+03  0.7818608E-02  0.1093470E+00
          1   -1    0    0  502    0  0.00000000000E+00  0.00000000000E+00  0.23208854200E+03  0.23208854200E+03  0.00000000000E+00 0.  1.
         13   -1    0    0    0    0 -0.00000000000E+00 -0.00000000000E+00 -0.27500000000E+03  0.27500000000E+03  0.00000000000E+00 0.  1.
    9000005    2    1    2  501    0  0.30341381434E+01 -0.33165295554E+02 -0.64297826954E+02  0.46750925953E+03  0.46186746408E+03 0.  0.
         13    1    3    3    0    0 -0.87534237479E+01  0.18404788040E+03 -0.14605309659E+03  0.23512071735E+03  0.00000000000E+00 0.  1.
          1    1    3    3  501    0  0.11787561891E+02 -0.21721317595E+03  0.81755269632E+02  0.23238854218E+03  0.00000000000E+00 0.  1.
         21    1    1    2  502  501 -0.30341381434E+01  0.33165295554E+02  0.21386368950E+02  0.39579282463E+02  0.00000000000E+00 0. -1.
<scales pt_clust_4="550.00000" pt_clust_5="550.00000" pt_clust_6="33.30380"></scales>
<mgrwt>
<rscale>  0 0.30000000E+03</rscale>
<asrwt>  1 0.33303796E+02</asrwt>
<pdfrwt beam="1">  1        1 0.84395833E+00 0.30000000E+03</pdfrwt>
<pdfrwt beam="2">0</pdfrwt>
<totfact> 0.46563245E-04</totfact>
</mgrwt>
<clustering>
<clus scale="   33.304">  1  6  2 -1</clus>
<clus scale="  461.867">  4  5 -1 -1</clus>
<clus scale="  300.000">  1  4  2 -1</clus>
</clustering>
</event>
<event>
 6    1  0.9687246E-012  0.3000000E+03  0.7818608E-02  0.1093470E+00
          1   -1    0    0  502    0  0.00000000000E+00  0.00000000000E+00  0.23104794491E+03  0.23104794491E+03  0.00000000000E+00 0.  1.
         13   -1    0    0    0    0 -0.00000000000E+00 -0.00000000000E+00 -0.27500000000E+03  0.27500000000E+03  0.00000000000E+00 0.  1.
    9000005    2    1    2  501    0  0.11422067262E+02  0.33340400437E+02 -0.63771996839E+02  0.46561434486E+03  0.45987803235E+03 0.  0.
         13    1    3    3    0    0 -0.21806498541E+03  0.31738877850E+02 -0.82636697538E+02  0.23534765350E+03  0.00000000000E+00 0.  1.
          3    1    3    3  501    0  0.22948705267E+03  0.16015225868E+01  0.18864700699E+02  0.23026669136E+03  0.00000000000E+00 0.  1.
         21    1    1    2  502  501 -0.11422067262E+02 -0.33340400437E+02  0.19819941748E+02  0.40433600046E+02  0.00000000000E+00 0.  1.
<scales pt_clust_4="550.00000" pt_clust_5="550.00000" pt_clust_6="35.24267"></scales>
<mgrwt>
<rscale>  0 0.30000000E+03</rscale>
<asrwt>  1 0.35242672E+02</asrwt>
<pdfrwt beam="1">  1        1 0.84017435E+00 0.30000000E+03</pdfrwt>
<pdfrwt beam="2">0</pdfrwt>
<totfact> 0.49487073E-04</totfact>
</mgrwt>
<clustering>
<clus scale="   35.243">  1  6  2 -1</clus>
<clus scale="  459.878">  4  5 -1 -1</clus>
<clus scale="  300.000">  1  4  2 -1</clus>
</clustering>
</event>
<event>
 6    1  0.9687246E-012  0.3000000E+03  0.7818608E-02  0.1093470E+00
          1   -1    0    0  502    0  0.00000000000E+00  0.00000000000E+00  0.23817673878E+03  0.23817673878E+03  0.00000000000E+00 0.  1.
         13   -1    0    0    0    0 -0.00000000000E+00 -0.00000000000E+00 -0.27500000000E+03  0.27500000000E+03  0.00000000000E+00 0.  1.
    9000005    2    1    2  501    0 -0.20788386442E+02 -0.31343894706E+02 -0.39644233025E+02  0.47545997026E+03  0.47230913749E+03 0.  0.
         13    1    3    3    0    0 -0.49537324977E+02  0.17284782580E+03 -0.15656113778E+03  0.23841498970E+03  0.00000000000E+00 0.  1.
          1    1    3    3  501    0  0.28748938535E+02 -0.20419172051E+03  0.11691690476E+03  0.23704498056E+03  0.00000000000E+00 0.  1.
         21    1    1    2  502  501  0.20788386442E+02  0.31343894706E+02  0.28209718079E+01  0.37716768527E+02  0.00000000000E+00 0. -1.
<scales pt_clust_4="550.00000" pt_clust_5="550.00000" pt_clust_6="37.61113"></scales>
<mgrwt>
<rscale>  0 0.30000000E+03</rscale>
<asrwt>  1 0.37611125E+02</asrwt>
<pdfrwt beam="1">  1        1 0.86609723E+00 0.30000000E+03</pdfrwt>
<pdfrwt beam="2">0</pdfrwt>
<totfact> 0.27437849E-04</totfact>
</mgrwt>
<clustering>
<clus scale="   37.611">  1  6  2 -1</clus>
<clus scale="  472.309">  4  5 -1 -1</clus>
<clus scale="  300.000">  1  4  2 -1</clus>
</clustering>
</event>
<event>
 6    1  0.9687246E-012  0.3000000E+03  0.7818608E-02  0.1093470E+00
          1   -1    0    0  502    0  0.00000000000E+00  0.00000000000E+00  0.25399690637E+03  0.25399690637E+03  0.00000000000E+00 0.  1.
         13   -1    0    0    0    0 -0.00000000000E+00 -0.00000000000E+00 -0.27500000000E+03  0.27500000000E+03  0.00000000000E+00 0.  1.
    9000005    2    1    2  501    0  0.30833498266E+02 -0.20704130809E+01 -0.27233157800E+02  0.49747223468E+03  0.49576404485E+03 0.  0.
         13    1    3    3    0    0 -0.10063322388E+03  0.18626759470E+03  0.10083109323E+03  0.23449855425E+03  0.00000000000E+00 0.  1.
          3    1    3    3  501    0  0.13146672214E+03 -0.18833800778E+03 -0.12806425103E+03  0.26297368043E+03  0.00000000000E+00 0.  1.
         21    1    1    2  502  501 -0.30833498266E+02  0.20704130809E+01  0.62300641673E+01  0.31524671691E+02  0.00000000000E+00 0. -1.
<scales pt_clust_4="550.00000" pt_clust_5="550.00000" pt_clust_6="30.90293"></scales>
<mgrwt>
<rscale>  0 0.30000000E+03</rscale>
<asrwt>  1 0.30902932E+02</asrwt>
<pdfrwt beam="1">  1        1 0.92362511E+00 0.30000000E+03</pdfrwt>
<pdfrwt beam="2">0</pdfrwt>
<totfact> 0.35850743E-05</totfact>
</mgrwt>
<clustering>
<clus scale="   30.903">  1  6  2 -1</clus>
<clus scale="  495.764">  4  5 -1 -1</clus>
<clus scale="  300.000">  1  4  2 -1</clus>
</clustering>
</event>
<event>
 6    1  0.9687246E-012  0.3000000E+03  0.7818608E-02  0.1093470E+00
          1   -1    0    0  502    0  0.00000000000E+00  0.00000000000E+00  0.23809113149E+03  0.23809113149E+03  0.00000000000E+00 0.  1.
         13   -1    0    0    0    0 -0.00000000000E+00 -0.00000000000E+00 -0.27500000000E+03  0.27500000000E+03  0.00000000000E+00 0.  1.
    9000005    2    1    2  501    0 -0.48269342500E+01 -0.34790419596E+02 -0.32650688977E+02  0.47771027956E+03  0.47529713982E+03 0.  0.
         13    1    3    3    0    0 -0.17520255473E+02 -0.25457286593E+03 -0.14733969587E+00  0.25517508721E+03  0.00000000000E+00 0.  1.
          1    1    3    3  501    0  0.12693321223E+02  0.21978244634E+03 -0.32503349281E+02  0.22253519236E+03  0.00000000000E+00 0.  1.
         21    1    1    2  502  501  0.48269342500E+01  0.34790419596E+02 -0.42581795363E+01  0.35380851924E+02  0.00000000000E+00 0. -1.
<scales pt_clust_4="550.00000" pt_clust_5="550.00000" pt_clust_6="35.12369"></scales>
<mgrwt>
<rscale>  0 0.30000000E+03</rscale>
<asrwt>  1 0.35123693E+02</asrwt>
<pdfrwt beam="1">  1        1 0.86578593E+00 0.30000000E+03</pdfrwt>
<pdfrwt beam="2">0</pdfrwt>
<totfact> 0.28002352E-04</totfact>
</mgrwt>
<clustering>
<clus scale="   35.124">  1  6  2 -1</clus>
<clus scale="  475.297">  4  5 -1 -1</clus>
<clus scale="  300.000">  1  4  2 -1</clus>
</clustering>
</event>
<event>
 6    1  0.9687246E-012  0.3000000E+03  0.7818608E-02  0.1093470E+00
          1   -1    0    0  502    0  0.00000000000E+00  0.00000000000E+00  0.23286264099E+03  0.23286264099E+03  0.00000000000E+00 0.  1.
         13   -1    0    0    0    0 -0.00000000000E+00 -0.00000000000E+00 -0.27500000000E+03  0.27500000000E+03  0.00000000000E+00 0.  1.
    9000005    2    1    2  501    0  0.10091948247E+01  0.40892187214E+02 -0.61412216651E+02  0.46264417589E+03  0.45672199824E+03 0.  0.
         13    1    3    3    0    0 -0.12144533236E+03  0.11306655490E+03 -0.20288497954E+03  0.26209793878E+03  0.00000000000E+00 0.  1.
          1    1    3    3  501    0  0.12245452718E+03 -0.72174367684E+02  0.14147276289E+03  0.20054623711E+03  0.00000000000E+00 0.  1.
         21    1    1    2  502  501 -0.10091948247E+01 -0.40892187214E+02  0.19274857642E+02  0.45218465105E+02  0.00000000000E+00 0.  1.
<scales pt_clust_4="550.00000" pt_clust_5="550.00000" pt_clust_6="40.90464"></scales>
<mgrwt>
<rscale>  0 0.30000000E+03</rscale>
<asrwt>  1 0.40904638E+02</asrwt>
<pdfrwt beam="1">  1        1 0.84677324E+00 0.30000000E+03</pdfrwt>
<pdfrwt beam="2">0</pdfrwt>
<totfact> 0.42341435E-04</totfact>
</mgrwt>
<clustering>
<clus scale="   40.905">  1  6  2 -1</clus>
<clus scale="  456.722">  4  5 -1 -1</clus>
<clus scale="  300.000">  1  4  2 -1</clus>
</clustering>
</event>
<event>
 6    1  0.9687246E-012  0.3000000E+03  0.7818608E-02  0.1093470E+00
          1   -1    0    0  502    0  0.00000000000E+00  0.00000000000E+00  0.23264003861E+03  0.23264003861E+03  0.00000000000E+00 0.  1.
         13   -1    0    0    0    0 -0.00000000000E+00 -0.00000000000E+00 -0.27500000000E+03  0.27500000000E+03  0.00000000000E+00 0.  1.
    9000005    2    1    2  501    0 -0.35805526181E+02  0.10301199166E+02 -0.37357050020E+02  0.47004775840E+03  0.46707729080E+03 0.  0.
         13    1    3    3    0    0 -0.20274505220E+03 -0.13207731605E+03  0.21376068195E+02  0.24291337941E+03  0.00000000000E+00 0.  1.
          3    1    3    3  501    0  0.16693952602E+03  0.14237851522E+03 -0.58733118214E+02  0.22713437899E+03  0.00000000000E+00 0.  1.
         21    1    1    2  502  501  0.35805526181E+02 -0.10301199166E+02 -0.50029113682E+01  0.37592280212E+02  0.00000000000E+00 0. -1.
<scales pt_clust_4="550.00000" pt_clust_5="550.00000" pt_clust_6="37.25791"></scales>
<mgrwt>
<rscale>  0 0.30000000E+03</rscale>
<asrwt>  1 0.37257909E+02</asrwt>
<pdfrwt beam="1">  1        1 0.84596378E+00 0.30000000E+03</pdfrwt>
<pdfrwt beam="2">0</pdfrwt>
<totfact> 0.43795589E-04</totfact>
</mgrwt>
<clustering>
<clus scale="   37.258">  1  6  2 -1</clus>
<clus scale="  467.077">  4  5 -1 -1</clus>
<clus scale="  300.000">  1  4  2 -1</clus>
</clustering>
</event>
<event>
 6    1  0.9687246E-012  0.3000000E+03  0.7818608E-02  0.1093470E+00
          1   -1    0    0  502    0  0.00000000000E+00  0.00000000000E+00  0.22824067534E+03  0.22824067534E+03  0.00000000000E+00 0.  1.
         13   -1    0    0    0    0 -0.00000000000E+00 -0.00000000000E+00 -0.27500000000E+03  0.27500000000E+03  0.00000000000E+00 0.  1.
    9000005    2    1    2  501    0  0.10149157557E+02  0.35016114539E+02 -0.62935852104E+02  0.46335566918E+03  0.45761164868E+03 0.  0.
         13    1    3    3    0    0 -0.10604052739E+03 -0.34616689849E+02  0.16443077881E+03  0.19869672792E+03  0.00000000000E+00 0.  1.
          1    1    3    3  501    0  0.11618968495E+03  0.69632804387E+02 -0.22736663092E+03  0.26465894126E+03  0.00000000000E+00 0.  1.
         21    1    1    2  502  501 -0.10149157557E+02 -0.35016114539E+02  0.16176527447E+02  0.39885006165E+02  0.00000000000E+00 0.  1.
<scales pt_clust_4="550.00000" pt_clust_5="550.00000" pt_clust_6="36.45729"></scales>
<mgrwt>
<rscale>  0 0.30000000E+03</rscale>
<asrwt>  1 0.36457286E+02</asrwt>
<pdfrwt beam="1">  1        1 0.82996609E+00 0.30000000E+03</pdfrwt>
<pdfrwt beam="2">0</pdfrwt>
<totfact> 0.58691305E-04</totfact>
</mgrwt>
<clustering>
<clus scale="   36.457">  1  6  2 -1</clus>
<clus scale="  457.612">  4  5 -1 -1</clus>
<clus scale="  300.000">  1  4  2 -1</clus>
</clustering>
</event>
<event>
 6    1  0.9687246E-012  0.3000000E+03  0.7818608E-02  0.1093470E+00
          1   -1    0    0  502    0  0.00000000000E+00  0.00000000000E+00  0.24320982054E+03  0.24320982054E+03  0.00000000000E+00 0.  1.
         13   -1    0    0    0    0 -0.00000000000E+00 -0.00000000000E+00 -0.27500000000E+03  0.27500000000E+03  0.00000000000E+00 0.  1.
    9000005    2    1    2  501    0  0.31368417607E+01  0.35089154519E+02 -0.41913424195E+02  0.48155509881E+03  0.47843232492E+03 0.  0.
         13    1    3    3    0    0  0.66947421602E+02  0.24758465682E+03 -0.40677259675E+02  0.25968203443E+03  0.00000000000E+00 0.  1.
          1    1    3    3  501    0 -0.63810579842E+02 -0.21249550230E+03 -0.12361645199E+01  0.22187306438E+03  0.00000000000E+00 0.  1.
         21    1    1    2  502  501 -0.31368417607E+01 -0.35089154519E+02  0.10123244740E+02  0.36654721731E+02  0.00000000000E+00 0.  1.
<scales pt_clust_4="550.00000" pt_clust_5="550.00000" pt_clust_6="35.22909"></scales>
<mgrwt>
<rscale>  0 0.30000000E+03</rscale>
<asrwt>  1 0.35229087E+02</asrwt>
<pdfrwt beam="1">  1        1 0.88439935E+00 0.30000000E+03</pdfrwt>
<pdfrwt beam="2">0</pdfrwt>
<totfact> 0.17273294E-04</totfact>
</mgrwt>
<clustering>
<clus scale="   35.229">  1  6  2 -1</clus>
<clus scale="  478.432">  4  5 -1 -1</clus>
<clus scale="  300.000">  1  4  2 -1</clus>
</clustering>
</event>
<event>
 6    1  0.9687246E-012  0.3000000E+03  0.7818608E-02  0.1093470E+00
          1   -1    0    0  502    0  0.00000000000E+00  0.00000000000E+00  0.24526642234E+03  0.24526642234E+03  0.00000000000E+00 0.  1.
         13   -1    0    0    0    0 -0.00000000000E+00 -0.00000000000E+00 -0.27500000000E+03  0.27500000000E+03  0.00000000000E+00 0.  1.
    9000005    2    1    2  501    0 -0.35840694771E+02 -0.86528502121E+01 -0.48284961058E+02  0.47899196239E+03  0.47512360007E+03 0.  0.
         13    1    3    3    0    0  0.77759676626E+02  0.21191713495E+03 -0.48510164627E+02  0.23088671566E+03  0.00000000000E+00 0.  1.
          3    1    3    3  501    0 -0.11360037140E+03 -0.22056998516E+03  0.22520356930E+00  0.24810524673E+03  0.00000000000E+00 0.  1.
         21    1    1    2  502  501  0.35840694771E+02  0.86528502121E+01  0.18551383396E+02  0.41274459953E+02  0.00000000000E+00 0.  1.
<scales pt_clust_4="550.00000" pt_clust_5="550.00000" pt_clust_6="36.87041"></scales>
<mgrwt>
<rscale>  0 0.30000000E+03</rscale>
<asrwt>  1 0.36870411E+02</asrwt>
<pdfrwt beam="1">  1        1 0.89187790E+00 0.30000000E+03</pdfrwt>
<pdfrwt beam="2">0</pdfrwt>
<totfact> 0.13580294E-04</totfact>
</mgrwt>
<clustering>
<clus scale="   36.870">  1  6  2 -1</clus>
<clus scale="  475.124">  4  5 -1 -1</clus>
<clus scale="  300.000">  1  4  2 -1</clus>
</clustering>
</event>
<event>
 6    1  0.9687246E-012  0.3000000E+03  0.7818608E-02  0.1093470E+00
          1   -1    0    0  502    0  0.00000000000E+00  0.00000000000E+00  0.23779779096E+03  0.23779779096E+03  0.00000000000E+00 0.  1.
         13   -1    0    0    0    0 -0.00000000000E+00 -0.00000000000E+00 -0.27500000000E+03  0.27500000000E+03  0.00000000000E+00 0.  1.
    9000005    2    1    2  501    0  0.28716644403E+02 -0.12152318587E+02 -0.33417793942E+02  0.48138686435E+03  0.47921210304E+03 0.  0.
         13    1    3    3    0    0 -0.61145322163E+02 -0.21257297259E+03 -0.11222430585E+03  0.24803288880E+03  0.00000000000E+00 0.  1.
          3    1    3    3  501    0  0.89861966566E+02  0.20042065401E+03  0.78806511911E+02  0.23335397555E+03  0.00000000000E+00 0.  1.
         21    1    1    2  502  501 -0.28716644403E+02  0.12152318587E+02 -0.37844150984E+01  0.31410926609E+02  0.00000000000E+00 0. -1.
<scales pt_clust_4="550.00000" pt_clust_5="550.00000" pt_clust_6="31.18213"></scales>
<mgrwt>
<rscale>  0 0.30000000E+03</rscale>
<asrwt>  1 0.31182134E+02</asrwt>
<pdfrwt beam="1">  1        1 0.86471924E+00 0.30000000E+03</pdfrwt>
<pdfrwt beam="2">0</pdfrwt>
<totfact> 0.29404909E-04</totfact>
</mgrwt>
<clustering>
<clus scale="   31.182">  1  6  2 -1</clus>
<clus scale="  479.212">  4  5 -1 -1</clus>
<clus scale="  300.000">  1  4  2 -1</clus>
</clustering>
</event>
<event>
 6    1  0.9687246E-012  0.3000000E+03  0.7818608E-02  0.1093470E+00
          1   -1    0    0  502    0  0.00000000000E+00  0.00000000000E+00  0.22961842483E+03  0.22961842483E+03  0.00000000000E+00 0.  1.
         13   -1    0    0    0    0 -0.00000000000E+00 -0.00000000000E+00 -0.27500000000E+03  0.27500000000E+03  0.00000000000E+00 0.  1.
    9000005    2    1    2  501    0  0.31153071053E+02 -0.38162605566E+01 -0.64857821109E+02  0.46768061444E+03  0.46209689729E+03 0.  0.
         13    1    3    3    0    0  0.19447993738E+03 -0.12041658671E+03 -0.12170965762E+03  0.25910584933E+03  0.00000000000E+00 0.  1.
          1    1    3    3  501    0 -0.16332686633E+03  0.11660032616E+03  0.56851836510E+02  0.20857476511E+03  0.00000000000E+00 0.  1.
         21    1    1    2  502  501 -0.31153071053E+02  0.38162605566E+01  0.19476245941E+02  0.36937810393E+02  0.00000000000E+00 0. -1.
<scales pt_clust_4="550.00000" pt_clust_5="550.00000" pt_clust_6="31.38595"></scales>
<mgrwt>
<rscale>  0 0.30000000E+03</rscale>
<asrwt>  1 0.31385947E+02</asrwt>
<pdfrwt beam="1">  1        1 0.83497609E+00 0.30000000E+03</pdfrwt>
<pdfrwt beam="2">0</pdfrwt>
<totfact> 0.55246772E-04</totfact>
</mgrwt>
<clustering>
<clus scale="   31.386">  1  6  2 -1</clus>
<clus scale="  462.097">  4  5 -1 -1</clus>
<clus scale="  300.000">  1  4  2 -1</clus>
</clustering>
</event>
<event>
 6    1  0.9687246E-012  0.3000000E+03  0.7818608E-02  0.1093470E+00
          1   -1    0    0  502    0  0.00000000000E+00  0.00000000000E+00  0.23569347933E+03  0.23569347933E+03  0.00000000000E+00 0.  1.
         13   -1    0    0    0    0 -0.00000000000E+00 -0.00000000000E+00 -0.27500000000E+03  0.27500000000E+03  0.00000000000E+00 0.  1.
    9000005    2    1    2  501    0 -0.24208661247E+02  0.18792072062E+02 -0.49339458972E+02  0.47844660192E+03  0.47490795679E+03 0.  0.
         13    1    3    3    0    0 -0.67659497536E+02  0.56202664769E+02  0.20217489305E+03  0.22047955578E+03  0.00000000000E+00 0.  1.
          1    1    3    3  501    0  0.43450836289E+02 -0.37410592707E+02 -0.25151435203E+03  0.25796704614E+03  0.00000000000E+00 0.  1.
         21    1    1    2  502  501  0.24208661247E+02 -0.18792072062E+02  0.10032938306E+02  0.32246877412E+02  0.00000000000E+00 0.  1.
<scales pt_clust_4="550.00000" pt_clust_5="550.00000" pt_clust_6="30.64639"></scales>
<mgrwt>
<rscale>  0 0.30000000E+03</rscale>
<asrwt>  1 0.30646391E+02</asrwt>
<pdfrwt beam="1">  1        1 0.85706720E+00 0.30000000E+03</pdfrwt>
<pdfrwt beam="2">0</pdfrwt>
<totfact> 0.35606665E-04</totfact>
</mgrwt>
<clustering>
<clus scale="   30.646">  1  6  2 -1</clus>
<clus scale="  474.908">  4  5 -1 -1</clus>
<clus scale="  300.000">  1  4  2 -1</clus>
</clustering>
</event>
<event>
 6    1  0.9687246E-012  0.3000000E+03  0.7818608E-02  0.1093470E+00
          1   -1    0    0  502    0  0.00000000000E+00  0.00000000000E+00  0.24385834477E+03  0.24385834477E+03  0.00000000000E+00 0.  1.
         13   -1    0    0    0    0 -0.00000000000E+00 -0.00000000000E+00 -0.27500000000E+03  0.27500000000E+03  0.00000000000E+00 0.  1.
    9000005    2    1    2  501    0  0.26212318870E+02 -0.15489753750E+02 -0.65689826575E+02  0.47280843408E+03  0.46723189519E+03 0.  0.
         13    1    3    3    0    0  0.14585015394E+03  0.18449200309E+03 -0.34261979444E+02  0.23766247042E+03  0.00000000000E+00 0.  1.
          1    1    3    3  501    0 -0.11963783507E+03 -0.19998175684E+03 -0.31427847131E+02  0.23514596366E+03  0.00000000000E+00 0.  1.
         21    1    1    2  502  501 -0.26212318870E+02  0.15489753750E+02  0.34548171346E+02  0.46049910696E+02  0.00000000000E+00 0.  1.
<scales pt_clust_4="550.00000" pt_clust_5="550.00000" pt_clust_6="30.44697"></scales>
<mgrwt>
<rscale>  0 0.30000000E+03</rscale>
<asrwt>  1 0.30446972E+02</asrwt>
<pdfrwt beam="1">  1        1 0.88675762E+00 0.30000000E+03</pdfrwt>
<pdfrwt beam="2">0</pdfrwt>
<totfact> 0.16479971E-04</totfact>
</mgrwt>
<clustering>
<clus scale="   30.447">  1  6  2 -1</clus>
<clus scale="  467.232">  4  5 -1 -1</clus>
<clus scale="  300.000">  1  4  2 -1</clus>
</clustering>
</event>
<event>
 6    1  0.9687246E-012  0.3000000E+03  0.7818608E-02  0.1093470E+00
          1   -1    0    0  502    0  0.00000000000E+00  0.00000000000E+00  0.23104354312E+03  0.23104354312E+03  0.00000000000E+00 0.  1.
         13   -1    0    0    0    0 -0.00000000000E+00 -0.00000000000E+00 -0.27500000000E+03  0.27500000000E+03  0.00000000000E+00 0.  1.
    9000005    2    1    2  501    0  0.24524538714E+02  0.32538209091E+02 -0.50366187752E+02  0.46479705600E+03  0.46026010293E+03 0.  0.
         13    1    3    3    0    0 -0.30391212805E+02 -0.45917238152E+02  0.19435538605E+03  0.20200503623E+03  0.00000000000E+00 0.  1.
          3    1    3    3  501    0  0.54915751519E+02  0.78455447244E+02 -0.24472157381E+03  0.26279201977E+03  0.00000000000E+00 0.  1.
         21    1    1    2  502  501 -0.24524538714E+02 -0.32538209091E+02  0.64097308749E+01  0.41246487122E+02  0.00000000000E+00 0.  1.
<scales pt_clust_4="550.00000" pt_clust_5="550.00000" pt_clust_6="40.74541"></scales>
<mgrwt>
<rscale>  0 0.30000000E+03</rscale>
<asrwt>  1 0.40745405E+02</asrwt>
<pdfrwt beam="1">  1        1 0.84015834E+00 0.30000000E+03</pdfrwt>
<pdfrwt beam="2">0</pdfrwt>
<totfact> 0.48194891E-04</totfact>
</mgrwt>
<clustering>
<clus scale="   40.745">  1  6  2 -1</clus>
<clus scale="  460.260">  4  5 -1 -1</clus>
<clus scale="  300.000">  1  4  2 -1</clus>
</clustering>
</event>
<event>
 6    1  0.9687246E-012  0.3000000E+03  0.7818608E-02  0.1093470E+00
          1   -1    0    0  502    0  0.00000000000E+00  0.00000000000E+00  0.22588246660E+03  0.22588246660E+03  0.00000000000E+00 0.  1.
         13   -1    0    0    0    0 -0.00000000000E+00 -0.00000000000E+00 -0.27500000000E+03  0.27500000000E+03  0.00000000000E+00 0.  1.
    9000005    2    1    2  501    0  0.85128356551E+01  0.32462773429E+02 -0.60750892756E+02  0.46536296380E+03  0.46015836087E+03 0.  0.
         13    1    3    3    0    0 -0.14022029918E+03  0.18155022777E+03  0.38418424267E+02  0.23259018214E+03  0.00000000000E+00 0.  1.
          3    1    3    3  501    0  0.14873313483E+03 -0.14908745435E+03 -0.99169317024E+02  0.23277278165E+03  0.00000000000E+00 0.  1.
         21    1    1    2  502  501 -0.85128356551E+01 -0.32462773429E+02  0.11633359361E+02  0.35519502806E+02  0.00000000000E+00 0.  1.
<scales pt_clust_4="550.00000" pt_clust_5="550.00000" pt_clust_6="33.56039"></scales>
<mgrwt>
<rscale>  0 0.30000000E+03</rscale>
<asrwt>  1 0.33560394E+02</asrwt>
<pdfrwt beam="1">  1        1 0.82139079E+00 0.30000000E+03</pdfrwt>
<pdfrwt beam="2">0</pdfrwt>
<totfact> 0.70889970E-04</totfact>
</mgrwt>
<clustering>
<clus scale="   33.560">  1  6  2 -1</clus>
<clus scale="  460.158">  4  5 -1 -1</clus>
<clus scale="  300.000">  1  4  2 -1</clus>
</clustering>
</event>
<event>
 6    1  0.9687246E-012  0.3000000E+03  0.7818608E-02  0.1093470E+00
          1   -1    0    0  502    0  0.00000000000E+00  0.00000000000E+00  0.23988153680E+03  0.23988153680E+03  0.00000000000E+00 0.  1.
         13   -1    0    0    0    0 -0.00000000000E+00 -0.00000000000E+00 -0.27500000000E+03  0.27500000000E+03  0.00000000000E+00 0.  1.
    9000005    2    1    2  501    0 -0.40973927953E+02  0.71607369668E+01 -0.46399851082E+02  0.47178387285E+03  0.46765044379E+03 0.  0.
         13    1    3    3    0    0  0.10510415804E+03 -0.10079996384E+03  0.14667780373E+03  0.20669275472E+03  0.00000000000E+00 0.  1.
          1    1    3    3  501    0 -0.14607808599E+03  0.10796070081E+03 -0.19307765481E+03  0.26509111813E+03  0.00000000000E+00 0.  1.
         21    1    1    2  502  501  0.40973927953E+02 -0.71607369668E+01  0.11281387886E+02  0.43097663956E+02  0.00000000000E+00 0. -1.
<scales pt_clust_4="550.00000" pt_clust_5="550.00000" pt_clust_6="41.59494"></scales>
<mgrwt>
<rscale>  0 0.30000000E+03</rscale>
<asrwt>  1 0.41594939E+02</asrwt>
<pdfrwt beam="1">  1        1 0.87229650E+00 0.30000000E+03</pdfrwt>
<pdfrwt beam="2">0</pdfrwt>
<totfact> 0.23243110E-04</totfact>
</mgrwt>
<clustering>
<clus scale="   41.595">  1  6  2 -1</clus>
<clus scale="  467.650">  4  5 -1 -1</clus>
<clus scale="  300.000">  1  4  2 -1</clus>
</clustering>
</event>
<event>
 6    1  0.9687246E-012  0.3000000E+03  0.7818608E-02  0.1093470E+00
          1   -1    0    0  502    0  0.00000000000E+00  0.00000000000E+00  0.22801357591E+03  0.22801357591E+03  0.00000000000E+00 0.  1.
         13   -1    0    0    0    0 -0.00000000000E+00 -0.00000000000E+00 -0.27500000000E+03  0.27500000000E+03  0.00000000000E+00 0.  1.
    9000005    2    1    2  501    0 -0.23682318646E+02  0.29413358566E+02 -0.58206146664E+02  0.46361966708E+03  0.45839856273E+03 0.  0.
         13    1    3    3    0    0  0.62129659410E+02 -0.19566104196E+03 -0.83076627825E+02  0.22146120205E+03  0.00000000000E+00 0.  1.
          3    1    3    3  501    0 -0.85811978056E+02  0.22507440053E+03  0.24870481161E+02  0.24215846503E+03  0.00000000000E+00 0.  1.
         21    1    1    2  502  501  0.23682318646E+02 -0.29413358566E+02  0.11219722574E+02  0.39393908834E+02  0.00000000000E+00 0.  1.
<scales pt_clust_4="550.00000" pt_clust_5="550.00000" pt_clust_6="37.76239"></scales>
<mgrwt>
<rscale>  0 0.30000000E+03</rscale>
<asrwt>  1 0.37762387E+02</asrwt>
<pdfrwt beam="1">  1        1 0.82914028E+00 0.30000000E+03</pdfrwt>
<pdfrwt beam="2">0</pdfrwt>
<totfact> 0.59245785E-04</totfact>
</mgrwt>
<clustering>
<clus scale="   37.762">  1  6  2 -1</clus>
<clus scale="  458.399">  4  5 -1 -1</clus>
<clus scale="  300.000">  1  4  2 -1</clus>
</clustering>
</event>
<event>
 6    1  0.9687246E-012  0.3000000E+03  0.7818608E-02  0.1093470E+00
          1   -1    0    0  502    0  0.00000000000E+00  0.00000000000E+00  0.23808921653E+03  0.23808921653E+03  0.00000000000E+00 0.  1.
         13   -1    0    0    0    0 -0.00000000000E+00 -0.00000000000E+00 -0.27500000000E+03  0.27500000000E+03  0.00000000000E+00 0.  1.
    9000005    2    1    2  501    0  0.25749109355E+02  0.16812867476E+02 -0.75576615970E+02  0.46368541356E+03  0.45645005063E+03 0.  0.
         13    1    3    3    0    0  0.18994009607E+01  0.21695134115E+03  0.54629324900E+02  0.22373165911E+03  0.00000000000E+00 0.  1.
          3    1    3    3  501    0  0.23849708394E+02 -0.20013847367E+03 -0.13020594087E+03  0.23995375444E+03  0.00000000000E+00 0.  1.
         21    1    1    2  502  501 -0.25749109355E+02 -0.16812867476E+02  0.38665832498E+02  0.49403802972E+02  0.00000000000E+00 0. -1.
<scales pt_clust_4="550.00000" pt_clust_5="550.00000" pt_clust_6="30.75206"></scales>
<mgrwt>
<rscale>  0 0.30000000E+03</rscale>
<asrwt>  1 0.30752059E+02</asrwt>
<pdfrwt beam="1">  1        1 0.86577897E+00 0.30000000E+03</pdfrwt>
<pdfrwt beam="2">0</pdfrwt>
<totfact> 0.28720601E-04</totfact>
</mgrwt>
<clustering>
<clus scale="   30.752">  1  6  2 -1</clus>
<clus scale="  456.450">  4  5 -1 -1</clus>
<clus scale="  300.000">  1  4  2 -1</clus>
</clustering>
</event>
<event>
 6    1  0.9687246E-012  0.3000000E+03  0.7818608E-02  0.1093470E+00
          1   -1    0    0  502    0  0.00000000000E+00  0.00000000000E+00  0.22180933208E+03  0.22180933208E+03  0.00000000000E+00 0.  1.
         13   -1    0    0    0    0 -0.00000000000E+00 -0.00000000000E+00 -0.27500000000E+03  0.27500000000E+03  0.00000000000E+00 0.  1.
    9000005    2    1    2  501    0 -0.27178768520E+02 -0.19577482900E+02 -0.35303814188E+02  0.45883693643E+03  0.45624884837E+03 0.  0.
         13    1    3    3    0    0 -0.96713625690E+02 -0.12763536524E+03  0.15914350066E+03  0.22576750354E+03  0.00000000000E+00 0.  1.
          1    1    3    3  501    0  0.69534857170E+02  0.10805788234E+03 -0.19444731485E+03  0.23306943289E+03  0.00000000000E+00 0.  1.
         21    1    1    2  502  501  0.27178768520E+02  0.19577482900E+02 -0.17886853734E+02  0.37972395650E+02  0.00000000000E+00 0.  1.
<scales pt_clust_4="550.00000" pt_clust_5="550.00000" pt_clust_6="33.49574"></scales>
<mgrwt>
<rscale>  0 0.30000000E+03</rscale>
<asrwt>  1 0.33495737E+02</asrwt>
<pdfrwt beam="1">  1        1 0.80657939E+00 0.30000000E+03</pdfrwt>
<pdfrwt beam="2">0</pdfrwt>
<totfact> 0.93454435E-04</totfact>
</mgrwt>
<clustering>
<clus scale="   33.496">  1  6  2 -1</clus>
<clus scale="  456.249">  4  5 -1 -1</clus>
<clus scale="  300.000">  1  4  2 -1</clus>
</clustering>
</event>
<event>
 6    1  0.9687246E-012  0.3000000E+03  0.7818608E-02  0.1093470E+00
          1   -1    0    0  502    0  0.00000000000E+00  0.00000000000E+00  0.23325448622E+03  0.23325448622E+03  0.00000000000E+00 0.  1.
         13   -1    0    0    0    0 -0.00000000000E+00 -0.00000000000E+00 -0.27500000000E+03  0.27500000000E+03  0.00000000000E+00 0.  1.
    9000005    2    1    2  501    0 -0.41979413086E+02  0.59281495303E+01 -0.47216116414E+02  0.46550707024E+03  0.46116163838E+03 0.  0.
         13    1    3    3    0    0  0.85867697679E+02 -0.60643257960E+02 -0.21800215625E+03  0.24202439210E+03  0.00000000000E+00 0.  1.
          1    1    3    3  501    0 -0.12784711076E+03  0.66571407490E+02  0.17078603984E+03  0.22348267814E+03  0.00000000000E+00 0.  1.
         21    1    1    2  502  501  0.41979413086E+02 -0.59281495303E+01  0.54706026327E+01  0.42747415981E+02  0.00000000000E+00 0.  1.
<scales pt_clust_4="550.00000" pt_clust_5="550.00000" pt_clust_6="42.39592"></scales>
<mgrwt>
<rscale>  0 0.30000000E+03</rscale>
<asrwt>  1 0.42395921E+02</asrwt>
<pdfrwt beam="1">  1        1 0.84819813E+00 0.30000000E+03</pdfrwt>
<pdfrwt beam="2">0</pdfrwt>
<totfact> 0.40832439E-04</totfact>
</mgrwt>
<clustering>
<clus scale="   42.396">  1  6  2 -1</clus>
<clus scale="  461.162">  4  5 -1 -1</clus>
<clus scale="  300.000">  1  4  2 -1</clus>
</clustering>
</event>
<event>
 6    1  0.9687246E-012  0.3000000E+03  0.7818608E-02  0.1093470E+00
          1   -1    0    0  502    0  0.00000000000E+00  0.00000000000E+00  0.23925425659E+03  0.23925425659E+03  0.00000000000E+00 0.  1.
         13   -1    0    0    0    0 -0.00000000000E+00 -0.00000000000E+00 -0.27500000000E+03  0.27500000000E+03  0.00000000000E+00 0.  1.
    9000005    2    1    2  501    0 -0.66307225270E+01 -0.34833910560E+02 -0.69524614848E+02  0.46528099897E+03  0.45868874864E+03 0.  0.
         13    1    3    3    0    0 -0.12947400502E+03  0.96399213697E+02  0.12220726921E+03  0.20246220147E+03  0.00000000000E+00 0.  1.
          1    1    3    3  501    0  0.12284328250E+03 -0.13123312426E+03 -0.19173188405E+03  0.26281879750E+03  0.00000000000E+00 0.  1.
         21    1    1    2  502  501  0.66307225270E+01  0.34833910560E+02  0.33778871438E+02  0.48973257619E+02  0.00000000000E+00 0. -1.
<scales pt_clust_4="550.00000" pt_clust_5="550.00000" pt_clust_6="35.45938"></scales>
<mgrwt>
<rscale>  0 0.30000000E+03</rscale>
<asrwt>  1 0.35459382E+02</asrwt>
<pdfrwt beam="1">  1        1 0.87001548E+00 0.30000000E+03</pdfrwt>
<pdfrwt beam="2">0</pdfrwt>
<totfact> 0.25254303E-04</totfact>
</mgrwt>
<clustering>
<clus scale="   35.459">  1  6  2 -1</clus>
<clus scale="  458.689">  4  5 -1 -1</clus>
<clus scale="  300.000">  1  4  2 -1</clus>
</clustering>
</event>
<event>
 6    1  0.9687246E-012  0.3000000E+03  0.7818608E-02  0.1093470E+00
          1   -1    0    0  502    0  0.00000000000E+00  0.00000000000E+00  0.22916165372E+03  0.22916165372E+03  0.00000000000E+00 0.  1.
         13   -1    0    0    0    0 -0.00000000000E+00 -0.00000000000E+00 -0.27500000000E+03  0.27500000000E+03  0.00000000000E+00 0.  1.
    9000005    2    1    2  501    0 -0.14803358026E+02  0.30080086154E+02 -0.64895914260E+02  0.46559817502E+03  0.45983282822E+03 0.  0.
         13    1    3    3    0    0  0.12743649833E+03  0.18246568956E+03 -0.11598930860E+03  0.25097272498E+03  0.00000000000E+00 0.  1.
          1    1    3    3  501    0 -0.14223985636E+03 -0.15238560340E+03  0.51093394341E+02  0.21462545005E+03  0.00000000000E+00 0.  1.
         21    1    1    2  502  501  0.14803358026E+02 -0.30080086154E+02  0.19057567977E+02  0.38563478695E+02  0.00000000000E+00 0. -1.
<scales pt_clust_4="550.00000" pt_clust_5="550.00000" pt_clust_6="33.52538"></scales>
<mgrwt>
<rscale>  0 0.30000000E+03</rscale>
<asrwt>  1 0.33525378E+02</asrwt>
<pdfrwt beam="1">  1        1 0.83331510E+00 0.30000000E+03</pdfrwt>
<pdfrwt beam="2">0</pdfrwt>
<totfact> 0.56122955E-04</totfact>
</mgrwt>
<clustering>
<clus scale="   33.525">  1  6  2 -1</clus>
<clus scale="  459.833">  4  5 -1 -1</clus>
<clus scale="  300.000">  1  4  2 -1</clus>
</clustering>
</event>
<event>
 6    1  0.9687246E-012  0.3000000E+03  0.7818608E-02  0.1093470E+00
          1   -1    0    0  502    0  0.00000000000E+00  0.00000000000E+00  0.22944568520E+03  0.22944568520E+03  0.00000000000E+00 0.  1.
         13   -1    0    0    0    0 -0.00000000000E+00 -0.00000000000E+00 -0.27500000000E+03  0.27500000000E+03  0.00000000000E+00 0.  1.
    9000005    2    1    2  501    0 -0.37680407982E+02 -0.38694821815E+01 -0.60501012278E+02  0.46372480845E+03  0.45819814430E+03 0.  0.
         13    1    3    3    0    0 -0.12371652452E+03 -0.18324476649E+03  0.62584464210E+02  0.22978519980E+03  0.00000000000E+00 0.  1.
          3    1    3    3  501    0  0.86036116539E+02  0.17937528431E+03 -0.12308547649E+03  0.23393960865E+03  0.00000000000E+00 0.  1.
         21    1    1    2  502  501  0.37680407982E+02  0.38694821815E+01  0.14946697478E+02  0.40720876754E+02  0.00000000000E+00 0. -1.
<scales pt_clust_4="550.00000" pt_clust_5="550.00000" pt_clust_6="37.87857"></scales>
<mgrwt>
<rscale>  0 0.30000000E+03</rscale>
<asrwt>  1 0.37878570E+02</asrwt>
<pdfrwt beam="1">  1        1 0.83434795E+00 0.30000000E+03</pdfrwt>
<pdfrwt beam="2">0</pdfrwt>
<totfact> 0.53900388E-04</totfact>
</mgrwt>
<clustering>
<clus scale="   37.879">  1  6  2 -1</clus>
<clus scale="  458.198">  4  5 -1 -1</clus>
<clus scale="  300.000">  1  4  2 -1</clus>
</clustering>
</event>
<event>
 6    1  0.9687246E-012  0.3000000E+03  0.7818608E-02  0.1093470E+00
          1   -1    0    0  502    0  0.00000000000E+00  0.00000000000E+00  0.23667729830E+03  0.23667729830E+03  0.00000000000E+00 0.  1.
         13   -1    0    0    0    0 -0.00000000000E+00 -0.00000000000E+00 -0.27500000000E+03  0.27500000000E+03  0.00000000000E+00 0.  1.
    9000005    2    1    2  501    0 -0.43708279697E+02 -0.13554467826E+02 -0.39367648948E+02  0.46590362435E+03  0.46197644755E+03 0.  0.
         13    1    3    3    0    0  0.18666542899E+03  0.80343292138E+02  0.35082482621E+02  0.20622756256E+03  0.00000000000E+00 0.  1.
          1    1    3    3  501    0 -0.23037370869E+03 -0.93897759965E+02 -0.74450131569E+02  0.25967606180E+03  0.00000000000E+00 0.  1.
         21    1    1    2  502  501  0.43708279697E+02  0.13554467826E+02  0.10449472520E+01  0.45773673950E+02  0.00000000000E+00 0.  1.
<scales pt_clust_4="550.00000" pt_clust_5="550.00000" pt_clust_6="45.76175"></scales>
<mgrwt>
<rscale>  0 0.30000000E+03</rscale>
<asrwt>  1 0.45761745E+02</asrwt>
<pdfrwt beam="1">  1        1 0.86064472E+00 0.30000000E+03</pdfrwt>
<pdfrwt beam="2">0</pdfrwt>
<totfact> 0.30316429E-04</totfact>
</mgrwt>
<clustering>
<clus scale="   45.762">  1  6  2 -1</clus>
<clus scale="  461.976">  4  5 -1 -1</clus>
<clus scale="  300.000">  1  4  2 -1</clus>
</clustering>
</event>
<event>
 6    1  0.9687246E-012  0.3000000E+03  0.7818608E-02  0.1093470E+00
          1   -1    0    0  502    0  0.00000000000E+00  0.00000000000E+00  0.23882719787E+03  0.23882719787E+03  0.00000000000E+00 0.  1.
         13   -1    0    0    0    0 -0.00000000000E+00 -0.00000000000E+00 -0.27500000000E+03  0.27500000000E+03  0.00000000000E+00 0.  1.
    9000005    2    1    2  501    0 -0.12028819679E+02  0.32445036861E+02 -0.29558035881E+02  0.47859755052E+03  0.47642897158E+03 0.  0.
         13    1    3    3    0    0 -0.87906375524E+02 -0.20654042475E+03 -0.38250950490E+02  0.22770510123E+03  0.00000000000E+00 0.  1.
          3    1    3    3  501    0  0.75877555845E+02  0.23898546161E+03  0.86929146093E+01  0.25089244928E+03  0.00000000000E+00 0.  1.
         21    1    1    2  502  501  0.12028819679E+02 -0.32445036861E+02 -0.66147662512E+01  0.35229647349E+02  0.00000000000E+00 0.  1.
<scales pt_clust_4="550.00000" pt_clust_5="550.00000" pt_clust_6="34.60309"></scales>
<mgrwt>
<rscale>  0 0.30000000E+03</rscale>
<asrwt>  1 0.34603094E+02</asrwt>
<pdfrwt beam="1">  1        1 0.86846254E+00 0.30000000E+03</pdfrwt>
<pdfrwt beam="2">0</pdfrwt>
<totfact> 0.26319515E-04</totfact>
</mgrwt>
<clustering>
<clus scale="   34.603">  1  6  2 -1</clus>
<clus scale="  476.429">  4  5 -1 -1</clus>
<clus scale="  300.000">  1  4  2 -1</clus>
</clustering>
</event>
<event>
 6    1  0.9687246E-012  0.3000000E+03  0.7818608E-02  0.1093470E+00
          1   -1    0    0  502    0  0.00000000000E+00  0.00000000000E+00  0.23319273214E+03  0.23319273214E+03  0.00000000000E+00 0.  1.
         13   -1    0    0    0    0 -0.00000000000E+00 -0.00000000000E+00 -0.27500000000E+03  0.27500000000E+03  0.00000000000E+00 0.  1.
    9000005    2    1    2  501    0  0.31509581961E+02  0.73224506282E+01 -0.61192846032E+02  0.47047970150E+03  0.46536019714E+03 0.  0.
         13    1    3    3    0    0 -0.87736625308E+02 -0.15313160182E+03  0.10942648269E+03  0.20765634594E+03  0.00000000000E+00 0.  1.
          3    1    3    3  501    0  0.11924620727E+03  0.16045405244E+03 -0.17061932873E+03  0.26282335556E+03  0.00000000000E+00 0.  1.
         21    1    1    2  502  501 -0.31509581961E+02 -0.73224506282E+01  0.19385578168E+02  0.37713030633E+02  0.00000000000E+00 0. -1.
<scales pt_clust_4="550.00000" pt_clust_5="550.00000" pt_clust_6="32.34922"></scales>
<mgrwt>
<rscale>  0 0.30000000E+03</rscale>
<asrwt>  1 0.32349220E+02</asrwt>
<pdfrwt beam="1">  1        1 0.84797357E+00 0.30000000E+03</pdfrwt>
<pdfrwt beam="2">0</pdfrwt>
<totfact> 0.43132588E-04</totfact>
</mgrwt>
<clustering>
<clus scale="   32.349">  1  6  2 -1</clus>
<clus scale="  465.360">  4  5 -1 -1</clus>
<clus scale="  300.000">  1  4  2 -1</clus>
</clustering>
</event>
<event>
 6    1  0.9687246E-012  0.3000000E+03  0.7818608E-02  0.1093470E+00
          1   -1    0    0  502    0  0.00000000000E+00  0.00000000000E+00  0.22658904173E+03  0.22658904173E+03  0.00000000000E+00 0.  1.
         13   -1    0    0    0    0 -0.00000000000E+00 -0.00000000000E+00 -0.27500000000E+03  0.27500000000E+03  0.00000000000E+00 0.  1.
    9000005    2    1    2  501    0 -0.28817445030E+02  0.26640245064E+02 -0.55769500062E+02  0.46166040624E+03  0.45659604220E+03 0.  0.
         13    1    3    3    0    0  0.20620108889E+03 -0.40254770354E+01  0.32422249348E+02  0.20877331194E+03  0.00000000000E+00 0.  1.
          3    1    3    3  501    0 -0.23501853392E+03  0.30665722100E+02 -0.88191749410E+02  0.25288709430E+03  0.00000000000E+00 0.  1.
         21    1    1    2  502  501  0.28817445030E+02 -0.26640245064E+02  0.73585417941E+01  0.39928635495E+02  0.00000000000E+00 0. -1.
<scales pt_clust_4="550.00000" pt_clust_5="550.00000" pt_clust_6="39.24472"></scales>
<mgrwt>
<rscale>  0 0.30000000E+03</rscale>
<asrwt>  1 0.39244717E+02</asrwt>
<pdfrwt beam="1">  1        1 0.82396015E+00 0.30000000E+03</pdfrwt>
<pdfrwt beam="2">0</pdfrwt>
<totfact> 0.65330610E-04</totfact>
</mgrwt>
<clustering>
<clus scale="   39.245">  1  6  2 -1</clus>
<clus scale="  456.596">  4  5 -1 -1</clus>
<clus scale="  300.000">  1  4  2 -1</clus>
</clustering>
</event>
<event>
 6    1  0.9687246E-012  0.3000000E+03  0.7818608E-02  0.1093470E+00
          1   -1    0    0  502    0  0.00000000000E+00  0.00000000000E+00  0.22735687345E+03  0.22735687345E+03  0.00000000000E+00 0.  1.
         13   -1    0    0    0    0 -0.00000000000E+00 -0.00000000000E+00 -0.27500000000E+03  0.27500000000E+03  0.00000000000E+00 0.  1.
    9000005    2    1    2  501    0 -0.30804868026E+02 -0.30339891209E+01 -0.50321491019E+02  0.47128729636E+03  0.46756958655E+03 0.  0.
         13    1    3    3    0    0  0.32786513126E+02 -0.21554512972E+03  0.56293014788E+02  0.22517451432E+03  0.00000000000E+00 0.  1.
          1    1    3    3  501    0 -0.63591381152E+02  0.21251114059E+03 -0.10661450581E+03  0.24611278204E+03  0.00000000000E+00 0.  1.
         21    1    1    2  502  501  0.30804868026E+02  0.30339891209E+01  0.26783644660E+01  0.31069577086E+02  0.00000000000E+00 0.  1.
<scales pt_clust_4="550.00000" pt_clust_5="550.00000" pt_clust_6="30.95392"></scales>
<mgrwt>
<rscale>  0 0.30000000E+03</rscale>
<asrwt>  1 0.30953917E+02</asrwt>
<pdfrwt beam="1">  1        1 0.82675227E+00 0.30000000E+03</pdfrwt>
<pdfrwt beam="2">0</pdfrwt>
<totfact> 0.64499933E-04</totfact>
</mgrwt>
<clustering>
<clus scale="   30.954">  1  6  2 -1</clus>
<clus scale="  467.570">  4  5 -1 -1</clus>
<clus scale="  300.000">  1  4  2 -1</clus>
</clustering>
</event>
<event>
 6    1  0.9687246E-012  0.3000000E+03  0.7818608E-02  0.1093470E+00
          1   -1    0    0  502    0  0.00000000000E+00  0.00000000000E+00  0.23207744316E+03  0.23207744316E+03  0.00000000000E+00 0.  1.
         13   -1    0    0    0    0 -0.00000000000E+00 -0.00000000000E+00 -0.27500000000E+03  0.27500000000E+03  0.00000000000E+00 0.  1.
    9000005    2    1    2  501    0 -0.24530047779E+02  0.24061318452E+02 -0.40979900510E+02  0.47266168800E+03  0.46962649922E+03 0.  0.
         13    1    3    3    0    0  0.15757187381E+03 -0.51411946191E+02  0.13084068490E+03  0.21116668405E+03  0.00000000000E+00 0.  1.
          3    1    3    3  501    0 -0.18210192159E+03  0.75473264643E+02 -0.17182058541E+03  0.26149500395E+03  0.00000000000E+00 0.  1.
         21    1    1    2  502  501  0.24530047779E+02 -0.24061318452E+02 -0.19426563263E+01  0.34415755161E+02  0.00000000000E+00 0. -1.
<scales pt_clust_4="550.00000" pt_clust_5="550.00000" pt_clust_6="34.36088"></scales>
<mgrwt>
<rscale>  0 0.30000000E+03</rscale>
<asrwt>  1 0.34360883E+02</asrwt>
<pdfrwt beam="1">  1        1 0.84391798E+00 0.30000000E+03</pdfrwt>
<pdfrwt beam="2">0</pdfrwt>
<totfact> 0.46327150E-04</totfact>
</mgrwt>
<clustering>
<clus scale="   34.361">  1  6  2 -1</clus>
<clus scale="  469.626">  4  5 -1 -1</clus>
<clus scale="  300.000">  1  4  2 -1</clus>
</clustering>
</event>
<event>
 6    1  0.9687246E-012  0.3000000E+03  0.7818608E-02  0.1093470E+00
          1   -1    0    0  502    0  0.00000000000E+00  0.00000000000E+00  0.22930004100E+03  0.22930004100E+03  0.00000000000E+00 0.  1.
         13   -1    0    0    0    0 -0.00000000000E+00 -0.00000000000E+00 -0.27500000000E+03  0.27500000000E+03  0.00000000000E+00 0.  1.
    9000005    2    1    2  501    0 -0.30138011911E+02 -0.50082060084E+01 -0.15366469100E+02  0.46124771820E+03  0.45997820305E+03 0.  0.
         13    1    3    3    0    0  0.12642370458E+03  0.63032163971E+02 -0.17679409812E+03  0.22630103823E+03  0.00000000000E+00 0.  1.
          1    1    3    3  501    0 -0.15656171649E+03 -0.68040369979E+02  0.16142762902E+03  0.23494667997E+03  0.00000000000E+00 0.  1.
         21    1    1    2  502  501  0.30138011911E+02  0.50082060084E+01 -0.30333489899E+02  0.43052322804E+02  0.00000000000E+00 0.  1.
<scales pt_clust_4="550.00000" pt_clust_5="550.00000" pt_clust_6="30.55131"></scales>
<mgrwt>
<rscale>  0 0.30000000E+03</rscale>
<asrwt>  1 0.30551315E+02</asrwt>
<pdfrwt beam="1">  1        1 0.83381833E+00 0.30000000E+03</pdfrwt>
<pdfrwt beam="2">0</pdfrwt>
<totfact> 0.56632149E-04</totfact>
</mgrwt>
<clustering>
<clus scale="   30.551">  1  6  2 -1</clus>
<clus scale="  459.978">  4  5 -1 -1</clus>
<clus scale="  300.000">  1  4  2 -1</clus>
</clustering>
</event>
<event>
 6    1  0.9687246E-012  0.3000000E+03  0.7818608E-02  0.1093470E+00
          1   -1    0    0  502    0  0.00000000000E+00  0.00000000000E+00  0.22967120131E+03  0.22967120131E+03  0.00000000000E+00 0.  1.
         13   -1    0    0    0    0 -0.00000000000E+00 -0.00000000000E+00 -0.27500000000E+03  0.27500000000E+03  0.00000000000E+00 0.  1.
    9000005    2    1    2  501    0  0.31470701459E+02 -0.15537846044E+00 -0.37113353631E+02  0.47214547718E+03  0.46963126111E+03 0.  0.
         13    1    3    3    0    0  0.15458643298E+03  0.16849424009E+03 -0.10631431377E+03  0.25217059209E+03  0.00000000000E+00 0.  1.
          3    1    3    3  501    0 -0.12311573152E+03 -0.16864961855E+03  0.69200960140E+02  0.21997488509E+03  0.00000000000E+00 0.  1.
         21    1    1    2  502  501 -0.31470701459E+02  0.15537846044E+00 -0.82154450580E+01  0.32525724132E+02  0.00000000000E+00 0. -1.
<scales pt_clust_4="550.00000" pt_clust_5="550.00000" pt_clust_6="31.47110"></scales>
<mgrwt>
<rscale>  0 0.30000000E+03</rscale>
<asrwt>  1 0.31471101E+02</asrwt>
<pdfrwt beam="1">  1        1 0.83516800E+00 0.30000000E+03</pdfrwt>
<pdfrwt beam="2">0</pdfrwt>
<totfact> 0.55040494E-04</totfact>
</mgrwt>
<clustering>
<clus scale="   31.471">  1  6  2 -1</clus>
<clus scale="  469.631">  4  5 -1 -1</clus>
<clus scale="  300.000">  1  4  2 -1</clus>
</clustering>
</event>
<event>
 6    1  0.9687246E-012  0.3000000E+03  0.7818608E-02  0.1093470E+00
          1   -1    0    0  502    0  0.00000000000E+00  0.00000000000E+00  0.22269738879E+03  0.22269738879E+03  0.00000000000E+00 0.  1.
         13   -1    0    0    0    0 -0.00000000000E+00 -0.00000000000E+00 -0.27500000000E+03  0.27500000000E+03  0.00000000000E+00 0.  1.
    9000005    2    1    2  501    0  0.23407471245E+02 -0.20164539468E+02 -0.68823046843E+02  0.46266250395E+03  0.45647065889E+03 0.  0.
         13    1    3    3    0    0  0.22235936123E+03 -0.59140749718E+01 -0.12537610204E+03  0.25533865507E+03  0.00000000000E+00 0.  1.
          3    1    3    3  501    0 -0.19895188998E+03 -0.14250464496E+02  0.56553055196E+02  0.20732384889E+03  0.00000000000E+00 0.  1.
         21    1    1    2  502  501 -0.23407471245E+02  0.20164539468E+02  0.16520435633E+02  0.35034884837E+02  0.00000000000E+00 0.  1.
<scales pt_clust_4="550.00000" pt_clust_5="550.00000" pt_clust_6="30.89528"></scales>
<mgrwt>
<rscale>  0 0.30000000E+03</rscale>
<asrwt>  1 0.30895281E+02</asrwt>
<pdfrwt beam="1">  1        1 0.80980869E+00 0.30000000E+03</pdfrwt>
<pdfrwt beam="2">0</pdfrwt>
<totfact> 0.89604940E-04</totfact>
</mgrwt>
<clustering>
<clus scale="   30.895">  1  6  2 -1</clus>
<clus scale="  456.471">  4  5 -1 -1</clus>
<clus scale="  300.000">  1  4  2 -1</clus>
</clustering>
</event>
<event>
 6    1  0.9687246E-012  0.3000000E+03  0.7818608E-02  0.1093470E+00
          1   -1    0    0  502    0  0.00000000000E+00  0.00000000000E+00  0.24216205546E+03  0.24216205546E+03  0.00000000000E+00 0.  1.
         13   -1    0    0    0    0 -0.00000000000E+00 -0.00000000000E+00 -0.27500000000E+03  0.27500000000E+03  0.00000000000E+00 0.  1.
    9000005    2    1    2  501    0  0.10283026592E+02  0.31245942148E+02 -0.46528062789E+02  0.48153244875E+03  0.47814912845E+03 0.  0.
         13    1    3    3    0    0 -0.21123196528E+03 -0.17668550660E+02  0.74168646448E+02  0.22457094414E+03  0.00000000000E+00 0.  1.
          3    1    3    3  501    0  0.22151499187E+03  0.48914492808E+02 -0.12069670924E+03  0.25696150461E+03  0.00000000000E+00 0.  1.
         21    1    1    2  502  501 -0.10283026592E+02 -0.31245942148E+02  0.13690118251E+02  0.35629606711E+02  0.00000000000E+00 0.  1.
<scales pt_clust_4="550.00000" pt_clust_5="550.00000" pt_clust_6="32.89452"></scales>
<mgrwt>
<rscale>  0 0.30000000E+03</rscale>
<asrwt>  1 0.32894521E+02</asrwt>
<pdfrwt beam="1">  1        1 0.88058929E+00 0.30000000E+03</pdfrwt>
<pdfrwt beam="2">0</pdfrwt>
<totfact> 0.19635260E-04</totfact>
</mgrwt>
<clustering>
<clus scale="   32.895">  1  6  2 -1</clus>
<clus scale="  478.149">  4  5 -1 -1</clus>
<clus scale="  300.000">  1  4  2 -1</clus>
</clustering>
</event>
<event>
 6    1  0.9687246E-012  0.3000000E+03  0.7818608E-02  0.1093470E+00
          1   -1    0    0  502    0  0.00000000000E+00  0.00000000000E+00  0.22500311933E+03  0.22500311933E+03  0.00000000000E+00 0.  1.
         13   -1    0    0    0    0 -0.00000000000E+00 -0.00000000000E+00 -0.27500000000E+03  0.27500000000E+03  0.00000000000E+00 0.  1.
    9000005    2    1    2  501    0  0.74852577839E+01 -0.30717412165E+02 -0.31153109998E+02  0.46319719334E+03  0.46106565169E+03 0.  0.
         13    1    3    3    0    0  0.18811015493E+03  0.27276298115E+02 -0.14755293727E+03  0.24062688155E+03  0.00000000000E+00 0.  1.
          3    1    3    3  501    0 -0.18062489715E+03 -0.57993710281E+02  0.11639982727E+03  0.22257031179E+03  0.00000000000E+00 0.  1.
         21    1    1    2  502  501 -0.74852577839E+01  0.30717412165E+02 -0.18843770675E+02  0.36805925983E+02  0.00000000000E+00 0. -1.
<scales pt_clust_4="550.00000" pt_clust_5="550.00000" pt_clust_6="31.61629"></scales>
<mgrwt>
<rscale>  0 0.30000000E+03</rscale>
<asrwt>  1 0.31616285E+02</asrwt>
<pdfrwt beam="1">  1        1 0.81819316E+00 0.30000000E+03</pdfrwt>
<pdfrwt beam="2">0</pdfrwt>
<totfact> 0.76394747E-04</totfact>
</mgrwt>
<clustering>
<clus scale="   31.616">  1  6  2 -1</clus>
<clus scale="  461.066">  4  5 -1 -1</clus>
<clus scale="  300.000">  1  4  2 -1</clus>
</clustering>
</event>
<event>
 6    1  0.9687246E-012  0.3000000E+03  0.7818608E-02  0.1093470E+00
          1   -1    0    0  502    0  0.00000000000E+00  0.00000000000E+00  0.23920714689E+03  0.23920714689E+03  0.00000000000E+00 0.  1.
         13   -1    0    0    0    0 -0.00000000000E+00 -0.00000000000E+00 -0.27500000000E+03  0.27500000000E+03  0.00000000000E+00 0.  1.
    9000005    2    1    2  501    0  0.23105150940E+02 -0.20767904705E+02 -0.61062827855E+02  0.47416060535E+03  0.46918488558E+03 0.  0.
         13    1    3    3    0    0 -0.83051446151E+02  0.19467344564E+03 -0.94281840081E+02  0.23169885307E+03  0.00000000000E+00 0.  1.
          1    1    3    3  501    0  0.10615659709E+03 -0.21544135035E+03  0.33219012226E+02  0.24246175228E+03  0.00000000000E+00 0.  1.
         21    1    1    2  502  501 -0.23105150940E+02  0.20767904705E+02  0.25269974749E+02  0.40046541544E+02  0.00000000000E+00 0.  1.
<scales pt_clust_4="550.00000" pt_clust_5="550.00000" pt_clust_6="31.06693"></scales>
<mgrwt>
<rscale>  0 0.30000000E+03</rscale>
<asrwt>  1 0.31066926E+02</asrwt>
<pdfrwt beam="1">  1        1 0.86984417E+00 0.30000000E+03</pdfrwt>
<pdfrwt beam="2">0</pdfrwt>
<totfact> 0.25997803E-04</totfact>
</mgrwt>
<clustering>
<clus scale="   31.067">  1  6  2 -1</clus>
<clus scale="  469.185">  4  5 -1 -1</clus>
<clus scale="  300.000">  1  4  2 -1</clus>
</clustering>
</event>
<event>
 6    1  0.9687246E-012  0.3000000E+03  0.7818608E-02  0.1093470E+00
          1   -1    0    0  502    0  0.00000000000E+00  0.00000000000E+00  0.22872980820E+03  0.22872980820E+03  0.00000000000E+00 0.  1.
         13   -1    0    0    0    0 -0.00000000000E+00 -0.00000000000E+00 -0.27500000000E+03  0.27500000000E+03  0.00000000000E+00 0.  1.
    9000005    2    1    2  501    0 -0.32172927997E+02  0.10370393347E+02 -0.50671445704E+02  0.46964149070E+03  0.46567466328E+03 0.  0.
         13    1    3    3    0    0 -0.41406761148E+02 -0.12412983763E+03  0.16787997747E+03  0.21285305564E+03  0.00000000000E+00 0.  1.
          3    1    3    3  501    0  0.92338331507E+01  0.13450023098E+03 -0.21855142318E+03  0.25678843506E+03  0.00000000000E+00 0.  1.
         21    1    1    2  502  501  0.32172927997E+02 -0.10370393347E+02  0.44012539023E+01  0.34088317500E+02  0.00000000000E+00 0.  1.
<scales pt_clust_4="550.00000" pt_clust_5="550.00000" pt_clust_6="33.80299"></scales>
<mgrwt>
<rscale>  0 0.30000000E+03</rscale>
<asrwt>  1 0.33802993E+02</asrwt>
<pdfrwt beam="1">  1        1 0.83174476E+00 0.30000000E+03</pdfrwt>
<pdfrwt beam="2">0</pdfrwt>
<totfact> 0.57603973E-04</totfact>
</mgrwt>
<clustering>
<clus scale="   33.803">  1  6  2 -1</clus>
<clus scale="  465.675">  4  5 -1 -1</clus>
<clus scale="  300.000">  1  4  2 -1</clus>
</clustering>
</event>
<event>
 6    1  0.9687246E-012  0.3000000E+03  0.7818608E-02  0.1093470E+00
          1   -1    0    0  502    0  0.00000000000E+00  0.00000000000E+00  0.24849431065E+03  0.24849431065E+03  0.00000000000E+00 0.  1.
         13   -1    0    0    0    0 -0.00000000000E+00 -0.00000000000E+00 -0.27500000000E+03  0.27500000000E+03  0.00000000000E+00 0.  1.
    9000005    2    1    2  501    0  0.29765258134E+02  0.39993556749E+02 -0.60280209734E+02  0.46327659398E+03  0.45662462009E+03 0.  0.
         13    1    3    3    0    0  0.21443906091E+02  0.24778290799E+03 -0.79433170634E+01  0.24883590353E+03  0.00000000000E+00 0.  1.
          3    1    3    3  501    0  0.83213520428E+01 -0.20778935124E+03 -0.52336892671E+02  0.21444069045E+03  0.00000000000E+00 0.  1.
         21    1    1    2  502  501 -0.29765258134E+02 -0.39993556749E+02  0.33774520381E+02  0.60217716664E+02  0.00000000000E+00 0. -1.
<scales pt_clust_4="550.00000" pt_clust_5="550.00000" pt_clust_6="49.85434"></scales>
<mgrwt>
<rscale>  0 0.30000000E+03</rscale>
<asrwt>  1 0.49854340E+02</asrwt>
<pdfrwt beam="1">  1        1 0.90361568E+00 0.30000000E+03</pdfrwt>
<pdfrwt beam="2">0</pdfrwt>
<totfact> 0.91825763E-05</totfact>
</mgrwt>
<clustering>
<clus scale="   49.854">  1  6  2 -1</clus>
<clus scale="  456.625">  4  5 -1 -1</clus>
<clus scale="  300.000">  1  4  2 -1</clus>
</clustering>
</event>
<event>
 6    1  0.9687246E-012  0.3000000E+03  0.7818608E-02  0.1093470E+00
          1   -1    0    0  502    0  0.00000000000E+00  0.00000000000E+00  0.23634471572E+03  0.23634471572E+03  0.00000000000E+00 0.  1.
         13   -1    0    0    0    0 -0.00000000000E+00 -0.00000000000E+00 -0.27500000000E+03  0.27500000000E+03  0.00000000000E+00 0.  1.
    9000005    2    1    2  501    0  0.79840541988E+01  0.30288381409E+02 -0.65354463364E+02  0.47018675982E+03  0.46456781212E+03 0.  0.
         13    1    3    3    0    0  0.56091089923E+01  0.24698049128E+03 -0.55820044356E+02  0.25327199318E+03  0.00000000000E+00 0.  1.
          3    1    3    3  501    0  0.23749452065E+01 -0.21669210987E+03 -0.95344190079E+01  0.21691476665E+03  0.00000000000E+00 0.  1.
         21    1    1    2  502  501 -0.79840541988E+01 -0.30288381409E+02  0.26699179082E+02  0.41157955895E+02  0.00000000000E+00 0. -1.
<scales pt_clust_4="550.00000" pt_clust_5="550.00000" pt_clust_6="31.32301"></scales>
<mgrwt>
<rscale>  0 0.30000000E+03</rscale>
<asrwt>  1 0.31323013E+02</asrwt>
<pdfrwt beam="1">  1        1 0.85943533E+00 0.30000000E+03</pdfrwt>
<pdfrwt beam="2">0</pdfrwt>
<totfact> 0.33492178E-04</totfact>
</mgrwt>
<clustering>
<clus scale="   31.323">  1  6  2 -1</clus>
<clus scale="  464.568">  4  5 -1 -1</clus>
<clus scale="  300.000">  1  4  2 -1</clus>
</clustering>
</event>
<event>
 6    1  0.9687246E-012  0.3000000E+03  0.7818608E-02  0.1093470E+00
          1   -1    0    0  502    0  0.00000000000E+00  0.00000000000E+00  0.22883321076E+03  0.22883321076E+03  0.00000000000E+00 0.  1.
         13   -1    0    0    0    0 -0.00000000000E+00 -0.00000000000E+00 -0.27500000000E+03  0.27500000000E+03  0.00000000000E+00 0.  1.
    9000005    2    1    2  501    0 -0.14553539887E+02 -0.35337388221E+02 -0.35303517854E+02  0.46410227578E+03  0.46117680718E+03 0.  0.
         13    1    3    3    0    0  0.29646369696E+01 -0.24817217801E+03 -0.36659412753E+01  0.24821695780E+03  0.00000000000E+00 0.  1.
          3    1    3    3  501    0 -0.17518176856E+02  0.21283478979E+03 -0.31637576579E+02  0.21588531798E+03  0.00000000000E+00 0.  1.
         21    1    1    2  502  501  0.14553539887E+02  0.35337388221E+02 -0.10863271386E+02  0.39730934984E+02  0.00000000000E+00 0.  1.
<scales pt_clust_4="550.00000" pt_clust_5="550.00000" pt_clust_6="38.21699"></scales>
<mgrwt>
<rscale>  0 0.30000000E+03</rscale>
<asrwt>  1 0.38216986E+02</asrwt>
<pdfrwt beam="1">  1        1 0.83212077E+00 0.30000000E+03</pdfrwt>
<pdfrwt beam="2">0</pdfrwt>
<totfact> 0.55926289E-04</totfact>
</mgrwt>
<clustering>
<clus scale="   38.217">  1  6  2 -1</clus>
<clus scale="  461.177">  4  5 -1 -1</clus>
<clus scale="  300.000">  1  4  2 -1</clus>
</clustering>
</event>
<event>
 6    1  0.9687246E-012  0.3000000E+03  0.7818608E-02  0.1093470E+00
          1   -1    0    0  502    0  0.00000000000E+00  0.00000000000E+00  0.25024365159E+03  0.25024365159E+03  0.00000000000E+00 0.  1.
         13   -1    0    0    0    0 -0.00000000000E+00 -0.00000000000E+00 -0.27500000000E+03  0.27500000000E+03  0.00000000000E+00 0.  1.
    9000005    2    1    2  501    0  0.12850849868E+02 -0.29799079155E+02 -0.35335899922E+02  0.49111072949E+03  0.48876169381E+03 0.  0.
         13    1    3    3    0    0 -0.55240675375E+02 -0.50643947748E+02 -0.25207168916E+03  0.26297619310E+03  0.00000000000E+00 0.  1.
          1    1    3    3  501    0  0.68091525243E+02  0.20844868593E+02  0.21673578924E+03  0.22813453639E+03  0.00000000000E+00 0.  1.
         21    1    1    2  502  501 -0.12850849868E+02  0.29799079155E+02  0.10579551510E+02  0.34132922098E+02  0.00000000000E+00 0. -1.
<scales pt_clust_4="550.00000" pt_clust_5="550.00000" pt_clust_6="32.45196"></scales>
<mgrwt>
<rscale>  0 0.30000000E+03</rscale>
<asrwt>  1 0.32451956E+02</asrwt>
<pdfrwt beam="1">  1        1 0.90997691E+00 0.30000000E+03</pdfrwt>
<pdfrwt beam="2">0</pdfrwt>
<totfact> 0.72982870E-05</totfact>
</mgrwt>
<clustering>
<clus scale="   32.452">  1  6  2 -1</clus>
<clus scale="  488.762">  4  5 -1 -1</clus>
<clus scale="  300.000">  1  4  2 -1</clus>
</clustering>
</event>
<event>
 6    1  0.9687246E-012  0.3000000E+03  0.7818608E-02  0.1093470E+00
          1   -1    0    0  502    0  0.00000000000E+00  0.00000000000E+00  0.22728251804E+03  0.22728251804E+03  0.00000000000E+00 0.  1.
         13   -1    0    0    0    0 -0.00000000000E+00 -0.00000000000E+00 -0.27500000000E+03  0.27500000000E+03  0.00000000000E+00 0.  1.
    9000005    2    1    2  501    0  0.37775657044E+01  0.32941216460E+02 -0.61442068734E+02  0.46639717247E+03  0.46114184470E+03 0.  0.
         13    1    3    3    0    0 -0.77603730576E+02 -0.19095553544E+03 -0.92919899615E+02  0.22609834864E+03  0.00000000000E+00 0.  1.
          1    1    3    3  501    0  0.81381296281E+02  0.22389675190E+03  0.31477830881E+02  0.24029882383E+03  0.00000000000E+00 0.  1.
         21    1    1    2  502  501 -0.37775657044E+01 -0.32941216460E+02  0.13724586769E+02  0.35885345568E+02  0.00000000000E+00 0. -1.
<scales pt_clust_4="550.00000" pt_clust_5="550.00000" pt_clust_6="33.15711"></scales>
<mgrwt>
<rscale>  0 0.30000000E+03</rscale>
<asrwt>  1 0.33157107E+02</asrwt>
<pdfrwt beam="1">  1        1 0.82648188E+00 0.30000000E+03</pdfrwt>
<pdfrwt beam="2">0</pdfrwt>
<totfact> 0.64012975E-04</totfact>
</mgrwt>
<clustering>
<clus scale="   33.157">  1  6  2 -1</clus>
<clus scale="  461.142">  4  5 -1 -1</clus>
<clus scale="  300.000">  1  4  2 -1</clus>
</clustering>
</event>
<event>
 6    1  0.9687246E-012  0.3000000E+03  0.7818608E-02  0.1093470E+00
          1   -1    0    0  502    0  0.00000000000E+00  0.00000000000E+00  0.22473146990E+03  0.22473146990E+03  0.00000000000E+00 0.  1.
         13   -1    0    0    0    0 -0.00000000000E+00 -0.00000000000E+00 -0.27500000000E+03  0.27500000000E+03  0.00000000000E+00 0.  1.
    9000005    2    1    2  501    0  0.24661959106E+02  0.22369535635E+02 -0.53750729504E+02  0.46625410346E+03  0.46194711788E+03 0.  0.
         13    1    3    3    0    0  0.97578112725E+02  0.13143225550E+03 -0.20739904324E+03  0.26421636778E+03  0.00000000000E+00 0.  1.
          1    1    3    3  501    0 -0.72916153619E+02 -0.10906271986E+03  0.15364831374E+03  0.20203773567E+03  0.00000000000E+00 0.  1.
         21    1    1    2  502  501 -0.24661959106E+02 -0.22369535635E+02  0.34821994068E+01  0.33477366447E+02  0.00000000000E+00 0. -1.
<scales pt_clust_4="550.00000" pt_clust_5="550.00000" pt_clust_6="33.29577"></scales>
<mgrwt>
<rscale>  0 0.30000000E+03</rscale>
<asrwt>  1 0.33295771E+02</asrwt>
<pdfrwt beam="1">  1        1 0.81720535E+00 0.30000000E+03</pdfrwt>
<pdfrwt beam="2">0</pdfrwt>
<totfact> 0.77091517E-04</totfact>
</mgrwt>
<clustering>
<clus scale="   33.296">  1  6  2 -1</clus>
<clus scale="  461.947">  4  5 -1 -1</clus>
<clus scale="  300.000">  1  4  2 -1</clus>
</clustering>
</event>
<event>
 6    1  0.9687246E-012  0.3000000E+03  0.7818608E-02  0.1093470E+00
          1   -1    0    0  502    0  0.00000000000E+00  0.00000000000E+00  0.24635107859E+03  0.24635107859E+03  0.00000000000E+00 0.  1.
         13   -1    0    0    0    0 -0.00000000000E+00 -0.00000000000E+00 -0.27500000000E+03  0.27500000000E+03  0.00000000000E+00 0.  1.
    9000005    2    1    2  501    0  0.84862419711E+01  0.37030821835E+02 -0.44925736489E+02  0.48002030582E+03  0.47640095942E+03 0.  0.
         13    1    3    3    0    0  0.58572783704E+02  0.24704544777E+03  0.19683039402E+02  0.25465593709E+03  0.00000000000E+00 0.  1.
          1    1    3    3  501    0 -0.50086541733E+02 -0.21001462594E+03 -0.64608775890E+02  0.22536436873E+03  0.00000000000E+00 0.  1.
         21    1    1    2  502  501 -0.84862419711E+01 -0.37030821835E+02  0.16276815078E+02  0.41330772769E+02  0.00000000000E+00 0.  1.
<scales pt_clust_4="550.00000" pt_clust_5="550.00000" pt_clust_6="37.99076"></scales>
<mgrwt>
<rscale>  0 0.30000000E+03</rscale>
<asrwt>  1 0.37990763E+02</asrwt>
<pdfrwt beam="1">  1        1 0.89582210E+00 0.30000000E+03</pdfrwt>
<pdfrwt beam="2">0</pdfrwt>
<totfact> 0.12158841E-04</totfact>
</mgrwt>
<clustering>
<clus scale="   37.991">  1  6  2 -1</clus>
<clus scale="  476.401">  4  5 -1 -1</clus>
<clus scale="  300.000">  1  4  2 -1</clus>
</clustering>
</event>
<event>
 6    1  0.9687246E-012  0.3000000E+03  0.7818608E-02  0.1093470E+00
          1   -1    0    0  502    0  0.00000000000E+00  0.00000000000E+00  0.23320972016E+03  0.23320972016E+03  0.00000000000E+00 0.  1.
         13   -1    0    0    0    0 -0.00000000000E+00 -0.00000000000E+00 -0.27500000000E+03  0.27500000000E+03  0.00000000000E+00 0.  1.
    9000005    2    1    2  501    0  0.29925996403E+02 -0.29252085978E+02 -0.42239884735E+02  0.46635936844E+03  0.46255335138E+03 0.  0.
         13    1    3    3    0    0  0.23804769601E+03 -0.66863303598E+02 -0.59006139586E+02  0.25420293360E+03  0.00000000000E+00 0.  1.
          3    1    3    3  501    0 -0.20812169961E+03  0.37611217621E+02  0.16766254851E+02  0.21215643483E+03  0.00000000000E+00 0.  1.
         21    1    1    2  502  501 -0.29925996403E+02  0.29252085978E+02  0.44960489397E+00  0.41850351723E+02  0.00000000000E+00 0.  1.
<scales pt_clust_4="550.00000" pt_clust_5="550.00000" pt_clust_6="41.84794"></scales>
<mgrwt>
<rscale>  0 0.30000000E+03</rscale>
<asrwt>  1 0.41847937E+02</asrwt>
<pdfrwt beam="1">  1        1 0.84803535E+00 0.30000000E+03</pdfrwt>
<pdfrwt beam="2">0</pdfrwt>
<totfact> 0.41069409E-04</totfact>
</mgrwt>
<clustering>
<clus scale="   41.848">  1  6  2 -1</clus>
<clus scale="  462.553">  4  5 -1 -1</clus>
<clus scale="  300.000">  1  4  2 -1</clus>
</clustering>
</event>
<event>
 6    1  0.9687246E-012  0.3000000E+03  0.7818608E-02  0.1093470E+00
          1   -1    0    0  502    0  0.00000000000E+00  0.00000000000E+00  0.24588403662E+03  0.24588403662E+03  0.00000000000E+00 0.  1.
         13   -1    0    0    0    0 -0.00000000000E+00 -0.00000000000E+00 -0.27500000000E+03  0.27500000000E+03  0.00000000000E+00 0.  1.
    9000005    2    1    2  501    0  0.40199610715E+02 -0.13563450749E+02 -0.52200379753E+02  0.47258428324E+03  0.46777243315E+03 0.  0.
         13    1    3    3    0    0 -0.18484725108E+03  0.10752926132E+03 -0.15557614111E+02  0.21441335692E+03  0.00000000000E+00 0.  1.
          3    1    3    3  501    0  0.22504686179E+03 -0.12109271207E+03 -0.36642765642E+02  0.25817092631E+03  0.00000000000E+00 0.  1.
         21    1    1    2  502  501 -0.40199610715E+02  0.13563450749E+02  0.23084416374E+02  0.48299753386E+02  0.00000000000E+00 0. -1.
<scales pt_clust_4="550.00000" pt_clust_5="550.00000" pt_clust_6="42.42612"></scales>
<mgrwt>
<rscale>  0 0.30000000E+03</rscale>
<asrwt>  1 0.42426123E+02</asrwt>
<pdfrwt beam="1">  1        1 0.89412377E+00 0.30000000E+03</pdfrwt>
<pdfrwt beam="2">0</pdfrwt>
<totfact> 0.12451949E-04</totfact>
</mgrwt>
<clustering>
<clus scale="   42.426">  1  6  2 -1</clus>
<clus scale="  467.772">  4  5 -1 -1</clus>
<clus scale="  300.000">  1  4  2 -1</clus>
</clustering>
</event>
<event>
 6    1  0.9687246E-012  0.3000000E+03  0.7818608E-02  0.1093470E+00
          1   -1    0    0  502    0  0.00000000000E+00  0.00000000000E+00  0.23026060742E+03  0.23026060742E+03  0.00000000000E+00 0.  1.
         13   -1    0    0    0    0 -0.00000000000E+00 -0.00000000000E+00 -0.27500000000E+03  0.27500000000E+03  0.00000000000E+00 0.  1.
    9000005    2    1    2  501    0  0.15571442147E+02 -0.37372018240E+02 -0.46421894667E+02  0.46473939852E+03  0.46063931516E+03 0.  0.
         13    1    3    3    0    0 -0.13688847885E+02  0.20698861822E+03  0.23823896005E+02  0.20880433580E+03  0.00000000000E+00 0.  1.
          1    1    3    3  501    0  0.29260290032E+02 -0.24436063646E+03 -0.70245790672E+02  0.25593506272E+03  0.00000000000E+00 0.  1.
         21    1    1    2  502  501 -0.15571442147E+02  0.37372018240E+02  0.16825020904E+01  0.40521208905E+02  0.00000000000E+00 0.  1.
<scales pt_clust_4="550.00000" pt_clust_5="550.00000" pt_clust_6="40.48626"></scales>
<mgrwt>
<rscale>  0 0.30000000E+03</rscale>
<asrwt>  1 0.40486264E+02</asrwt>
<pdfrwt beam="1">  1        1 0.83731130E+00 0.30000000E+03</pdfrwt>
<pdfrwt beam="2">0</pdfrwt>
<totfact> 0.50666833E-04</totfact>
</mgrwt>
<clustering>
<clus scale="   40.486">  1  6  2 -1</clus>
<clus scale="  460.639">  4  5 -1 -1</clus>
<clus scale="  300.000">  1  4  2 -1</clus>
</clustering>
</event>
<event>
 6    1  0.9687246E-012  0.3000000E+03  0.7818608E-02  0.1093470E+00
          1   -1    0    0  502    0  0.00000000000E+00  0.00000000000E+00  0.24635127759E+03  0.24635127759E+03  0.00000000000E+00 0.  1.
         13   -1    0    0    0    0 -0.00000000000E+00 -0.00000000000E+00 -0.27500000000E+03  0.27500000000E+03  0.00000000000E+00 0.  1.
    9000005    2    1    2  501    0 -0.77759020830E+01 -0.29940077686E+02 -0.39880578955E+02  0.48844189433E+03  0.48582728480E+03 0.  0.
         13    1    3    3    0    0  0.82049236802E+02  0.55131883347E+02  0.19744366669E+03  0.22080671036E+03  0.00000000000E+00 0.  1.
          1    1    3    3  501    0 -0.89825138885E+02 -0.85071961033E+02 -0.23732424565E+03  0.26763518398E+03  0.00000000000E+00 0.  1.
         21    1    1    2  502  501  0.77759020830E+01  0.29940077686E+02  0.11231856544E+02  0.32909383259E+02  0.00000000000E+00 0.  1.
<scales pt_clust_4="550.00000" pt_clust_5="550.00000" pt_clust_6="30.93336"></scales>
<mgrwt>
<rscale>  0 0.30000000E+03</rscale>
<asrwt>  1 0.30933362E+02</asrwt>
<pdfrwt beam="1">  1        1 0.89582283E+00 0.30000000E+03</pdfrwt>
<pdfrwt beam="2">0</pdfrwt>
<totfact> 0.12637022E-04</totfact>
</mgrwt>
<clustering>
<clus scale="   30.933">  1  6  2 -1</clus>
<clus scale="  485.827">  4  5 -1 -1</clus>
<clus scale="  300.000">  1  4  2 -1</clus>
</clustering>
</event>
<event>
 6    1  0.9687246E-012  0.3000000E+03  0.7818608E-02  0.1093470E+00
          1   -1    0    0  502    0  0.00000000000E+00  0.00000000000E+00  0.23924903842E+03  0.23924903842E+03  0.00000000000E+00 0.  1.
         13   -1    0    0    0    0 -0.00000000000E+00 -0.00000000000E+00 -0.27500000000E+03  0.27500000000E+03  0.00000000000E+00 0.  1.
    9000005    2    1    2  501    0  0.23134880400E+02  0.22840418649E+02 -0.34241950963E+02  0.48170392314E+03  0.47938424145E+03 0.  0.
         13    1    3    3    0    0 -0.23029323712E+00  0.21643791324E+02  0.22267469607E+03  0.22372422088E+03  0.00000000000E+00 0.  1.
          3    1    3    3  501    0  0.23365173637E+02  0.11966273243E+01 -0.25691664703E+03  0.25797970226E+03  0.00000000000E+00 0.  1.
         21    1    1    2  502  501 -0.23134880400E+02 -0.22840418649E+02 -0.15090106203E+01  0.32545115275E+02  0.00000000000E+00 0. -1.
<scales pt_clust_4="550.00000" pt_clust_5="550.00000" pt_clust_6="32.51011"></scales>
<mgrwt>
<rscale>  0 0.30000000E+03</rscale>
<asrwt>  1 0.32510113E+02</asrwt>
<pdfrwt beam="1">  1        1 0.86999650E+00 0.30000000E+03</pdfrwt>
<pdfrwt beam="2">0</pdfrwt>
<totfact> 0.25681605E-04</totfact>
</mgrwt>
<clustering>
<clus scale="   32.510">  1  6  2 -1</clus>
<clus scale="  479.384">  4  5 -1 -1</clus>
<clus scale="  300.000">  1  4  2 -1</clus>
</clustering>
</event>
<event>
 6    1  0.9687246E-012  0.3000000E+03  0.7818608E-02  0.1093470E+00
          1   -1    0    0  502    0  0.00000000000E+00  0.00000000000E+00  0.23034052243E+03  0.23034052243E+03  0.00000000000E+00 0.  1.
         13   -1    0    0    0    0 -0.00000000000E+00 -0.00000000000E+00 -0.27500000000E+03  0.27500000000E+03  0.00000000000E+00 0.  1.
    9000005    2    1    2  501    0  0.20144331986E+02 -0.39224587267E+02 -0.45779949669E+02  0.46123136448E+03  0.45683060912E+03 0.  0.
         13    1    3    3    0    0 -0.20320477098E+03  0.22591103771E+02 -0.93178716468E+02  0.22468825097E+03  0.00000000000E+00 0.  1.
          1    1    3    3  501    0  0.22334910297E+03 -0.61815691038E+02  0.47398766799E+02  0.23654311351E+03  0.00000000000E+00 0.  1.
         21    1    1    2  502  501 -0.20144331986E+02  0.39224587267E+02  0.11204721017E+01  0.44109157952E+02  0.00000000000E+00 0.  1.
<scales pt_clust_4="550.00000" pt_clust_5="550.00000" pt_clust_6="44.09492"></scales>
<mgrwt>
<rscale>  0 0.30000000E+03</rscale>
<asrwt>  1 0.44094924E+02</asrwt>
<pdfrwt beam="1">  1        1 0.83760190E+00 0.30000000E+03</pdfrwt>
<pdfrwt beam="2">0</pdfrwt>
<totfact> 0.49648413E-04</totfact>
</mgrwt>
<clustering>
<clus scale="   44.095">  1  6  2 -1</clus>
<clus scale="  456.831">  4  5 -1 -1</clus>
<clus scale="  300.000">  1  4  2 -1</clus>
</clustering>
</event>
<event>
 6    1  0.9687246E-012  0.3000000E+03  0.7818608E-02  0.1093470E+00
          1   -1    0    0  502    0  0.00000000000E+00  0.00000000000E+00  0.22612085783E+03  0.22612085783E+03  0.00000000000E+00 0.  1.
         13   -1    0    0    0    0 -0.00000000000E+00 -0.00000000000E+00 -0.27500000000E+03  0.27500000000E+03  0.00000000000E+00 0.  1.
    9000005    2    1    2  501    0 -0.13422023769E+02 -0.31466442801E+02 -0.44416235111E+02  0.46662150589E+03  0.46324134107E+03 0.  0.
         13    1    3    3    0    0  0.12473622090E+03 -0.18615237114E+02 -0.21345435966E+03  0.24792824671E+03  0.00000000000E+00 0.  1.
          1    1    3    3  501    0 -0.13815824467E+03 -0.12851205687E+02  0.16903812455E+03  0.21869325918E+03  0.00000000000E+00 0.  1.
         21    1    1    2  502  501  0.13422023769E+02  0.31466442801E+02 -0.44629070602E+01  0.34499351937E+02  0.00000000000E+00 0. -1.
<scales pt_clust_4="550.00000" pt_clust_5="550.00000" pt_clust_6="34.20949"></scales>
<mgrwt>
<rscale>  0 0.30000000E+03</rscale>
<asrwt>  1 0.34209486E+02</asrwt>
<pdfrwt beam="1">  1        1 0.82225766E+00 0.30000000E+03</pdfrwt>
<pdfrwt beam="2">0</pdfrwt>
<totfact> 0.69398991E-04</totfact>
</mgrwt>
<clustering>
<clus scale="   34.209">  1  6  2 -1</clus>
<clus scale="  463.241">  4  5 -1 -1</clus>
<clus scale="  300.000">  1  4  2 -1</clus>
</clustering>
</event>
<event>
 6    1  0.9687246E-012  0.3000000E+03  0.7818608E-02  0.1093470E+00
          1   -1    0    0  502    0  0.00000000000E+00  0.00000000000E+00  0.24216365274E+03  0.24216365274E+03  0.00000000000E+00 0.  1.
         13   -1    0    0    0    0 -0.00000000000E+00 -0.00000000000E+00 -0.27500000000E+03  0.27500000000E+03  0.00000000000E+00 0.  1.
    9000005    2    1    2  501    0 -0.31055581020E+02 -0.12049911986E+02 -0.51421429842E+02  0.47901847237E+03  0.47508408091E+03 0.  0.
         13    1    3    3    0    0  0.14629990190E+02  0.40437138917E+02 -0.25772900258E+03  0.26129186284E+03  0.00000000000E+00 0.  1.
          1    1    3    3  501    0 -0.45685571209E+02 -0.52487050903E+02  0.20630757273E+03  0.21772660953E+03  0.00000000000E+00 0.  1.
         21    1    1    2  502  501  0.31055581020E+02  0.12049911986E+02  0.18585082586E+02  0.38145180378E+02  0.00000000000E+00 0.  1.
<scales pt_clust_4="550.00000" pt_clust_5="550.00000" pt_clust_6="33.31140"></scales>
<mgrwt>
<rscale>  0 0.30000000E+03</rscale>
<asrwt>  1 0.33311402E+02</asrwt>
<pdfrwt beam="1">  1        1 0.88059510E+00 0.30000000E+03</pdfrwt>
<pdfrwt beam="2">0</pdfrwt>
<totfact> 0.19585304E-04</totfact>
</mgrwt>
<clustering>
<clus scale="   33.311">  1  6  2 -1</clus>
<clus scale="  475.084">  4  5 -1 -1</clus>
<clus scale="  300.000">  1  4  2 -1</clus>
</clustering>
</event>
<event>
 6    1  0.9687246E-012  0.3000000E+03  0.7818608E-02  0.1093470E+00
          1   -1    0    0  502    0  0.00000000000E+00  0.00000000000E+00  0.24432067133E+03  0.24432067133E+03  0.00000000000E+00 0.  1.
         13   -1    0    0    0    0 -0.00000000000E+00 -0.00000000000E+00 -0.27500000000E+03  0.27500000000E+03  0.00000000000E+00 0.  1.
    9000005    2    1    2  501    0 -0.35857571932E+02 -0.27529542557E+02 -0.55901230129E+02  0.46755402674E+03  0.46199370041E+03 0.  0.
         13    1    3    3    0    0 -0.98339231024E+02  0.80230492287E+01 -0.24560687752E+03  0.26468417399E+03  0.00000000000E+00 0.  1.
          3    1    3    3  501    0  0.62481659091E+02 -0.35552591786E+02  0.18970564739E+03  0.20286985275E+03  0.00000000000E+00 0.  1.
         21    1    1    2  502  501  0.35857571932E+02  0.27529542557E+02  0.25221901458E+02  0.51766644583E+02  0.00000000000E+00 0.  1.
<scales pt_clust_4="550.00000" pt_clust_5="550.00000" pt_clust_6="45.20665"></scales>
<mgrwt>
<rscale>  0 0.30000000E+03</rscale>
<asrwt>  1 0.45206650E+02</asrwt>
<pdfrwt beam="1">  1        1 0.88843880E+00 0.30000000E+03</pdfrwt>
<pdfrwt beam="2">0</pdfrwt>
<totfact> 0.14522110E-04</totfact>
</mgrwt>
<clustering>
<clus scale="   45.207">  1  6  2 -1</clus>
<clus scale="  461.994">  4  5 -1 -1</clus>
<clus scale="  300.000">  1  4  2 -1</clus>
</clustering>
</event>
<event>
 6    1  0.9687246E-012  0.3000000E+03  0.7818608E-02  0.1093470E+00
          1   -1    0    0  502    0  0.00000000000E+00  0.00000000000E+00  0.22450953165E+03  0.22450953165E+03  0.00000000000E+00 0.  1.
         13   -1    0    0    0    0 -0.00000000000E+00 -0.00000000000E+00 -0.27500000000E+03  0.27500000000E+03  0.00000000000E+00 0.  1.
    9000005    2    1    2  501    0  0.27227244129E+02 -0.17140197097E+02 -0.58069224644E+02  0.46645583705E+03  0.46170759566E+03 0.  0.
         13    1    3    3    0    0 -0.10918447242E+03 -0.55954088775E+02  0.16287255313E+03  0.20391070995E+03  0.00000000000E+00 0.  1.
          3    1    3    3  501    0  0.13641171655E+03  0.38813891678E+02 -0.22094177778E+03  0.26254512710E+03  0.00000000000E+00 0.  1.
         21    1    1    2  502  501 -0.27227244129E+02  0.17140197097E+02  0.75787562904E+01  0.33053694593E+02  0.00000000000E+00 0.  1.
<scales pt_clust_4="550.00000" pt_clust_5="550.00000" pt_clust_6="32.17311"></scales>
<mgrwt>
<rscale>  0 0.30000000E+03</rscale>
<asrwt>  1 0.32173113E+02</asrwt>
<pdfrwt beam="1">  1        1 0.81639830E+00 0.30000000E+03</pdfrwt>
<pdfrwt beam="2">0</pdfrwt>
<totfact> 0.78787643E-04</totfact>
</mgrwt>
<clustering>
<clus scale="   32.173">  1  6  2 -1</clus>
<clus scale="  461.708">  4  5 -1 -1</clus>
<clus scale="  300.000">  1  4  2 -1</clus>
</clustering>
</event>
<event>
 6    1  0.9687246E-012  0.3000000E+03  0.7818608E-02  0.1093470E+00
          1   -1    0    0  502    0  0.00000000000E+00  0.00000000000E+00  0.24979634347E+03  0.24979634347E+03  0.00000000000E+00 0.  1.
         13   -1    0    0    0    0 -0.00000000000E+00 -0.00000000000E+00 -0.27500000000E+03  0.27500000000E+03  0.00000000000E+00 0.  1.
    9000005    2    1    2  501    0 -0.38489000319E+02 -0.17775016724E+02 -0.35511522797E+02  0.48116600458E+03  0.47797730212E+03 0.  0.
         13    1    3    3    0    0  0.21894920452E+03 -0.31239348298E+02 -0.17413497162E+01  0.22117342367E+03  0.00000000000E+00 0.  1.
          3    1    3    3  501    0 -0.25743820484E+03  0.13464331574E+02 -0.33770173081E+02  0.25999258090E+03  0.00000000000E+00 0.  1.
         21    1    1    2  502  501  0.38489000319E+02  0.17775016724E+02  0.10307866269E+02  0.43630338895E+02  0.00000000000E+00 0.  1.
<scales pt_clust_4="550.00000" pt_clust_5="550.00000" pt_clust_6="42.39522"></scales>
<mgrwt>
<rscale>  0 0.30000000E+03</rscale>
<asrwt>  1 0.42395216E+02</asrwt>
<pdfrwt beam="1">  1        1 0.90835034E+00 0.30000000E+03</pdfrwt>
<pdfrwt beam="2">0</pdfrwt>
<totfact> 0.75897242E-05</totfact>
</mgrwt>
<clustering>
<clus scale="   42.395">  1  6  2 -1</clus>
<clus scale="  477.977">  4  5 -1 -1</clus>
<clus scale="  300.000">  1  4  2 -1</clus>
</clustering>
</event>
<event>
 6    1  0.9687246E-012  0.3000000E+03  0.7818608E-02  0.1093470E+00
          1   -1    0    0  502    0  0.00000000000E+00  0.00000000000E+00  0.24235353754E+03  0.24235353754E+03  0.00000000000E+00 0.  1.
         13   -1    0    0    0    0 -0.00000000000E+00 -0.00000000000E+00 -0.27500000000E+03  0.27500000000E+03  0.00000000000E+00 0.  1.
    9000005    2    1    2  501    0  0.31641873618E+02  0.10019167662E+02 -0.23580582097E+02  0.48294740330E+03  0.48122817729E+03 0.  0.
         13    1    3    3    0    0  0.11583670741E+03 -0.67198266126E+01  0.20678106545E+03  0.23711117199E+03  0.00000000000E+00 0.  1.
          1    1    3    3  501    0 -0.84194833795E+02  0.16738994275E+02 -0.23036164754E+03  0.24583623131E+03  0.00000000000E+00 0.  1.
         21    1    1    2  502  501 -0.31641873618E+02 -0.10019167662E+02 -0.90658803593E+01  0.34406134241E+02  0.00000000000E+00 0. -1.
<scales pt_clust_4="550.00000" pt_clust_5="550.00000" pt_clust_6="33.19025"></scales>
<mgrwt>
<rscale>  0 0.30000000E+03</rscale>
<asrwt>  1 0.33190254E+02</asrwt>
<pdfrwt beam="1">  1        1 0.88128559E+00 0.30000000E+03</pdfrwt>
<pdfrwt beam="2">0</pdfrwt>
<totfact> 0.19207819E-04</totfact>
</mgrwt>
<clustering>
<clus scale="   33.190">  1  6  2 -1</clus>
<clus scale="  481.228">  4  5 -1 -1</clus>
<clus scale="  300.000">  1  4  2 -1</clus>
</clustering>
</event>
<event>
 6    1  0.9687246E-012  0.3000000E+03  0.7818608E-02  0.1093470E+00
          1   -1    0    0  502    0  0.00000000000E+00  0.00000000000E+00  0.22725517158E+03  0.22725517158E+03  0.00000000000E+00 0.  1.
         13   -1    0    0    0    0 -0.00000000000E+00 -0.00000000000E+00 -0.27500000000E+03  0.27500000000E+03  0.00000000000E+00 0.  1.
    9000005    2    1    2  501    0 -0.36218247411E+02  0.96227457370E+01 -0.52314635018E+02  0.46450279665E+03  0.46002355198E+03 0.  0.
         13    1    3    3    0    0  0.13609477929E+03  0.90334254783E+02  0.12401032623E+03  0.20508687805E+03  0.00000000000E+00 0.  1.
          1    1    3    3  501    0 -0.17231302670E+03 -0.80711509046E+02 -0.17632496124E+03  0.25941591860E+03  0.00000000000E+00 0.  1.
         21    1    1    2  502  501  0.36218247411E+02 -0.96227457370E+01  0.45698066021E+01  0.37752374937E+02  0.00000000000E+00 0. -1.
<scales pt_clust_4="550.00000" pt_clust_5="550.00000" pt_clust_6="37.47477"></scales>
<mgrwt>
<rscale>  0 0.30000000E+03</rscale>
<asrwt>  1 0.37474774E+02</asrwt>
<pdfrwt beam="1">  1        1 0.82638244E+00 0.30000000E+03</pdfrwt>
<pdfrwt beam="2">0</pdfrwt>
<totfact> 0.62692610E-04</totfact>
</mgrwt>
<clustering>
<clus scale="   37.475">  1  6  2 -1</clus>
<clus scale="  460.024">  4  5 -1 -1</clus>
<clus scale="  300.000">  1  4  2 -1</clus>
</clustering>
</event>
<event>
 6    1  0.9687246E-012  0.3000000E+03  0.7818608E-02  0.1093470E+00
          1   -1    0    0  502    0  0.00000000000E+00  0.00000000000E+00  0.22201664841E+03  0.22201664841E+03  0.00000000000E+00 0.  1.
         13   -1    0    0    0    0 -0.00000000000E+00 -0.00000000000E+00 -0.27500000000E+03  0.27500000000E+03  0.00000000000E+00 0.  1.
    9000005    2    1    2  501    0  0.29736667690E+02 -0.94230458921E+01 -0.39208595986E+02  0.46291669106E+03  0.46019722475E+03 0.  0.
         13    1    3    3    0    0  0.87995053447E+02  0.98782701842E+02 -0.21259498687E+03  0.25039524767E+03  0.00000000000E+00 0.  1.
          3    1    3    3  501    0 -0.58258385757E+02 -0.10820574773E+03  0.17338639089E+03  0.21252144339E+03  0.00000000000E+00 0.  1.
         21    1    1    2  502  501 -0.29736667690E+02  0.94230458921E+01 -0.13774755605E+02  0.34099957348E+02  0.00000000000E+00 0. -1.
<scales pt_clust_4="550.00000" pt_clust_5="550.00000" pt_clust_6="31.19398"></scales>
<mgrwt>
<rscale>  0 0.30000000E+03</rscale>
<asrwt>  1 0.31193977E+02</asrwt>
<pdfrwt beam="1">  1        1 0.80733327E+00 0.30000000E+03</pdfrwt>
<pdfrwt beam="2">0</pdfrwt>
<totfact> 0.93472415E-04</totfact>
</mgrwt>
<clustering>
<clus scale="   31.194">  1  6  2 -1</clus>
<clus scale="  460.197">  4  5 -1 -1</clus>
<clus scale="  300.000">  1  4  2 -1</clus>
</clustering>
</event>
<event>
 6    1  0.9687246E-012  0.3000000E+03  0.7818608E-02  0.1093470E+00
          1   -1    0    0  502    0  0.00000000000E+00  0.00000000000E+00  0.23575754368E+03  0.23575754368E+03  0.00000000000E+00 0.  1.
         13   -1    0    0    0    0 -0.00000000000E+00 -0.00000000000E+00 -0.27500000000E+03  0.27500000000E+03  0.00000000000E+00 0.  1.
    9000005    2    1    2  501    0  0.24331107222E+02  0.27199924359E+02 -0.29946444666E+02  0.47309782387E+03  0.47073657467E+03 0.  0.
         13    1    3    3    0    0 -0.29434153907E+01 -0.21267240364E+03  0.50542943253E+02  0.21861565378E+03  0.00000000000E+00 0.  1.
          3    1    3    3  501    0  0.27274522613E+02  0.23987232800E+03 -0.80489387919E+02  0.25448217009E+03  0.00000000000E+00 0.  1.
         21    1    1    2  502  501 -0.24331107222E+02 -0.27199924359E+02 -0.92960116531E+01  0.37659719814E+02  0.00000000000E+00 0. -1.
<scales pt_clust_4="550.00000" pt_clust_5="550.00000" pt_clust_6="36.49438"></scales>
<mgrwt>
<rscale>  0 0.30000000E+03</rscale>
<asrwt>  1 0.36494383E+02</asrwt>
<pdfrwt beam="1">  1        1 0.85730016E+00 0.30000000E+03</pdfrwt>
<pdfrwt beam="2">0</pdfrwt>
<totfact> 0.34262685E-04</totfact>
</mgrwt>
<clustering>
<clus scale="   36.494">  1  6  2 -1</clus>
<clus scale="  470.737">  4  5 -1 -1</clus>
<clus scale="  300.000">  1  4  2 -1</clus>
</clustering>
</event>
<event>
 6    1  0.9687246E-012  0.3000000E+03  0.7818608E-02  0.1093470E+00
          1   -1    0    0  502    0  0.00000000000E+00  0.00000000000E+00  0.24219567185E+03  0.24219567185E+03  0.00000000000E+00 0.  1.
         13   -1    0    0    0    0 -0.00000000000E+00 -0.00000000000E+00 -0.27500000000E+03  0.27500000000E+03  0.00000000000E+00 0.  1.
    9000005    2    1    2  501    0  0.19892030822E+02  0.24226662146E+02 -0.27352719783E+02  0.48537831679E+03  0.48359209576E+03 0.  0.
         13    1    3    3    0    0  0.54437303852E+02 -0.22548707041E+03 -0.15604748033E+01  0.23197041633E+03  0.00000000000E+00 0.  1.
          3    1    3    3  501    0 -0.34545273030E+02  0.24971373255E+03 -0.25792244980E+02  0.25340790046E+03  0.00000000000E+00 0.  1.
         21    1    1    2  502  501 -0.19892030822E+02 -0.24226662146E+02 -0.54516083668E+01  0.31817355056E+02  0.00000000000E+00 0.  1.
<scales pt_clust_4="550.00000" pt_clust_5="550.00000" pt_clust_6="31.34685"></scales>
<mgrwt>
<rscale>  0 0.30000000E+03</rscale>
<asrwt>  1 0.31346850E+02</asrwt>
<pdfrwt beam="1">  1        1 0.88071153E+00 0.30000000E+03</pdfrwt>
<pdfrwt beam="2">0</pdfrwt>
<totfact> 0.19745961E-04</totfact>
</mgrwt>
<clustering>
<clus scale="   31.347">  1  6  2 -1</clus>
<clus scale="  483.592">  4  5 -1 -1</clus>
<clus scale="  300.000">  1  4  2 -1</clus>
</clustering>
</event>
<event>
 6    1  0.9687246E-012  0.3000000E+03  0.7818608E-02  0.1093470E+00
          1   -1    0    0  502    0  0.00000000000E+00  0.00000000000E+00  0.24495401685E+03  0.24495401685E+03  0.00000000000E+00 0.  1.
         13   -1    0    0    0    0 -0.00000000000E+00 -0.00000000000E+00 -0.27500000000E+03  0.27500000000E+03  0.00000000000E+00 0.  1.
    9000005    2    1    2  501    0  0.27766982841E+02 -0.22482252884E+02 -0.56890728269E+02  0.47526512146E+03  0.47049327698E+03 0.  0.
         13    1    3    3    0    0  0.19398479075E+03 -0.15902417427E+03 -0.67933178821E+02  0.25987247609E+03  0.00000000000E+00 0.  1.
          3    1    3    3  501    0 -0.16621780791E+03  0.13654192139E+03  0.11042450552E+02  0.21539264537E+03  0.00000000000E+00 0.  1.
         21    1    1    2  502  501 -0.27766982841E+02  0.22482252884E+02  0.26844745120E+02  0.44688895393E+02  0.00000000000E+00 0.  1.
<scales pt_clust_4="550.00000" pt_clust_5="550.00000" pt_clust_6="35.72754"></scales>
<mgrwt>
<rscale>  0 0.30000000E+03</rscale>
<asrwt>  1 0.35727539E+02</asrwt>
<pdfrwt beam="1">  1        1 0.89074188E+00 0.30000000E+03</pdfrwt>
<pdfrwt beam="2">0</pdfrwt>
<totfact> 0.14119029E-04</totfact>
</mgrwt>
<clustering>
<clus scale="   35.728">  1  6  2 -1</clus>
<clus scale="  470.493">  4  5 -1 -1</clus>
<clus scale="  300.000">  1  4  2 -1</clus>
</clustering>
</event>
<event>
 6    1  0.9687246E-012  0.3000000E+03  0.7818608E-02  0.1093470E+00
          1   -1    0    0  502    0  0.00000000000E+00  0.00000000000E+00  0.23287944419E+03  0.23287944419E+03  0.00000000000E+00 0.  1.
         13   -1    0    0    0    0 -0.00000000000E+00 -0.00000000000E+00 -0.27500000000E+03  0.27500000000E+03  0.00000000000E+00 0.  1.
    9000005    2    1    2  501    0  0.18310452658E+01  0.39035121644E+02 -0.57589868842E+02  0.46585096463E+03  0.46062287699E+03 0.  0.
         13    1    3    3    0    0  0.20821575136E+03  0.10213293725E+03  0.28171341280E+02  0.23362054801E+03  0.00000000000E+00 0.  1.
          1    1    3    3  501    0 -0.20638470609E+03 -0.63097815602E+02 -0.85761210122E+02  0.23223041662E+03  0.00000000000E+00 0.  1.
         21    1    1    2  502  501 -0.18310452658E+01 -0.39035121644E+02  0.15469313031E+02  0.42028479561E+02  0.00000000000E+00 0. -1.
<scales pt_clust_4="550.00000" pt_clust_5="550.00000" pt_clust_6="39.07804"></scales>
<mgrwt>
<rscale>  0 0.30000000E+03</rscale>
<asrwt>  1 0.39078043E+02</asrwt>
<pdfrwt beam="1">  1        1 0.84683434E+00 0.30000000E+03</pdfrwt>
<pdfrwt beam="2">0</pdfrwt>
<totfact> 0.42641819E-04</totfact>
</mgrwt>
<clustering>
<clus scale="   39.078">  1  6  2 -1</clus>
<clus scale="  460.623">  4  5 -1 -1</clus>
<clus scale="  300.000">  1  4  2 -1</clus>
</clustering>
</event>
<event>
 6    1  0.9687246E-012  0.3000000E+03  0.7818608E-02  0.1093470E+00
          1   -1    0    0  502    0  0.00000000000E+00  0.00000000000E+00  0.24494725927E+03  0.24494725927E+03  0.00000000000E+00 0.  1.
         13   -1    0    0    0    0 -0.00000000000E+00 -0.00000000000E+00 -0.27500000000E+03  0.27500000000E+03  0.00000000000E+00 0.  1.
    9000005    2    1    2  501    0  0.34622740799E+02  0.14684784700E+02 -0.56486476824E+02  0.47397857987E+03  0.46909550736E+03 0.  0.
         13    1    3    3    0    0 -0.88978707747E+02 -0.83687579244E+02 -0.21684342893E+03  0.24888128500E+03  0.00000000000E+00 0.  1.
          1    1    3    3  501    0  0.12360144855E+03  0.98372363944E+02  0.16035695210E+03  0.22509729487E+03  0.00000000000E+00 0.  1.
         21    1    1    2  502  501 -0.34622740799E+02 -0.14684784700E+02  0.26433736097E+02  0.45968679405E+02  0.00000000000E+00 0. -1.
<scales pt_clust_4="550.00000" pt_clust_5="550.00000" pt_clust_6="37.60820"></scales>
<mgrwt>
<rscale>  0 0.30000000E+03</rscale>
<asrwt>  1 0.37608205E+02</asrwt>
<pdfrwt beam="1">  1        1 0.89071731E+00 0.30000000E+03</pdfrwt>
<pdfrwt beam="2">0</pdfrwt>
<totfact> 0.13995576E-04</totfact>
</mgrwt>
<clustering>
<clus scale="   37.608">  1  6  2 -1</clus>
<clus scale="  469.096">  4  5 -1 -1</clus>
<clus scale="  300.000">  1  4  2 -1</clus>
</clustering>
</event>
<event>
 6    1  0.9687246E-012  0.3000000E+03  0.7818608E-02  0.1093470E+00
          1   -1    0    0  502    0  0.00000000000E+00  0.00000000000E+00  0.25478271680E+03  0.25478271680E+03  0.00000000000E+00 0.  1.
         13   -1    0    0    0    0 -0.00000000000E+00 -0.00000000000E+00 -0.27500000000E+03  0.27500000000E+03  0.00000000000E+00 0.  1.
    9000005    2    1    2  501    0 -0.38319506006E+02 -0.36968468879E+02  0.39317228219E+01  0.47131711389E+03  0.46828336632E+03 0.  0.
         13    1    3    3    0    0  0.13973805502E+03 -0.10349234735E+03  0.15154015399E+03  0.23065517174E+03  0.00000000000E+00 0.  1.
          1    1    3    3  501    0 -0.17805756103E+03  0.66523878466E+02 -0.14760843117E+03  0.24066194215E+03  0.00000000000E+00 0.  1.
         21    1    1    2  502  501  0.38319506006E+02  0.36968468879E+02 -0.24149006022E+02  0.58465602910E+02  0.00000000000E+00 0.  1.
<scales pt_clust_4="550.00000" pt_clust_5="550.00000" pt_clust_6="53.24524"></scales>
<mgrwt>
<rscale>  0 0.30000000E+03</rscale>
<asrwt>  1 0.53245235E+02</asrwt>
<pdfrwt beam="1">  1        1 0.92648261E+00 0.30000000E+03</pdfrwt>
<pdfrwt beam="2">0</pdfrwt>
<totfact> 0.28342178E-05</totfact>
</mgrwt>
<clustering>
<clus scale="   53.245">  1  6  2 -1</clus>
<clus scale="  468.283">  4  5 -1 -1</clus>
<clus scale="  300.000">  1  4  2 -1</clus>
</clustering>
</event>
<event>
 6    1  0.9687246E-012  0.3000000E+03  0.7818608E-02  0.1093470E+00
          1   -1    0    0  502    0  0.00000000000E+00  0.00000000000E+00  0.23704202460E+03  0.23704202460E+03  0.00000000000E+00 0.  1.
         13   -1    0    0    0    0 -0.00000000000E+00 -0.00000000000E+00 -0.27500000000E+03  0.27500000000E+03  0.00000000000E+00 0.  1.
    9000005    2    1    2  501    0  0.13474996010E+02  0.32318214150E+02 -0.71585398592E+02  0.46349466552E+03  0.45659258994E+03 0.  0.
         13    1    3    3    0    0  0.11640984701E+03  0.21679559180E+03 -0.50421341759E+02  0.25118497728E+03  0.00000000000E+00 0.  1.
          3    1    3    3  501    0 -0.10293485100E+03 -0.18447737765E+03 -0.21164056833E+02  0.21230968824E+03  0.00000000000E+00 0.  1.
         21    1    1    2  502  501 -0.13474996010E+02 -0.32318214150E+02  0.33627423188E+02  0.48547359080E+02  0.00000000000E+00 0.  1.
<scales pt_clust_4="550.00000" pt_clust_5="550.00000" pt_clust_6="35.01489"></scales>
<mgrwt>
<rscale>  0 0.30000000E+03</rscale>
<asrwt>  1 0.35014889E+02</asrwt>
<pdfrwt beam="1">  1        1 0.86197100E+00 0.30000000E+03</pdfrwt>
<pdfrwt beam="2">0</pdfrwt>
<totfact> 0.30804543E-04</totfact>
</mgrwt>
<clustering>
<clus scale="   35.015">  1  6  2 -1</clus>
<clus scale="  456.593">  4  5 -1 -1</clus>
<clus scale="  300.000">  1  4  2 -1</clus>
</clustering>
</event>
<event>
 6    1  0.9687246E-012  0.3000000E+03  0.7818608E-02  0.1093470E+00
          1   -1    0    0  502    0  0.00000000000E+00  0.00000000000E+00  0.23940644058E+03  0.23940644058E+03  0.00000000000E+00 0.  1.
         13   -1    0    0    0    0 -0.00000000000E+00 -0.00000000000E+00 -0.27500000000E+03  0.27500000000E+03  0.00000000000E+00 0.  1.
    9000005    2    1    2  501    0 -0.31819862289E+01 -0.31341869769E+02 -0.41291968336E+02  0.48239222966E+03  0.47958815535E+03 0.  0.
         13    1    3    3    0    0  0.35697277411E+02  0.15357354414E+02  0.21526134035E+03  0.21874091660E+03  0.00000000000E+00 0.  1.
          1    1    3    3  501    0 -0.38879263640E+02 -0.46699224183E+02 -0.25655330868E+03  0.26365131306E+03  0.00000000000E+00 0.  1.
         21    1    1    2  502  501  0.31819862289E+01  0.31341869769E+02  0.56984089198E+01  0.32014210926E+02  0.00000000000E+00 0.  1.
<scales pt_clust_4="550.00000" pt_clust_5="550.00000" pt_clust_6="31.50298"></scales>
<mgrwt>
<rscale>  0 0.30000000E+03</rscale>
<asrwt>  1 0.31502981E+02</asrwt>
<pdfrwt beam="1">  1        1 0.87056887E+00 0.30000000E+03</pdfrwt>
<pdfrwt beam="2">0</pdfrwt>
<totfact> 0.25490216E-04</totfact>
</mgrwt>
<clustering>
<clus scale="   31.503">  1  6  2 -1</clus>
<clus scale="  479.588">  4  5 -1 -1</clus>
<clus scale="  300.000">  1  4  2 -1</clus>
</clustering>
</event>
<event>
 6    1  0.9687246E-012  0.3000000E+03  0.7818608E-02  0.1093470E+00
          1   -1    0    0  502    0  0.00000000000E+00  0.00000000000E+00  0.22888819161E+03  0.22888819161E+03  0.00000000000E+00 0.  1.
         13   -1    0    0    0    0 -0.00000000000E+00 -0.00000000000E+00 -0.27500000000E+03  0.27500000000E+03  0.00000000000E+00 0.  1.
    9000005    2    1    2  501    0 -0.36038490188E+02 -0.42892474866E+01 -0.56559315297E+02  0.46612152880E+03  0.46125172417E+03 0.  0.
         13    1    3    3    0    0  0.16035252091E+03 -0.12798253876E+03  0.49327134271E+02  0.21101096503E+03  0.00000000000E+00 0.  1.
          3    1    3    3  501    0 -0.19639101109E+03  0.12369329127E+03 -0.10588644957E+03  0.25511056377E+03  0.00000000000E+00 0.  1.
         21    1    1    2  502  501  0.36038490188E+02  0.42892474866E+01  0.10447506903E+02  0.37766662806E+02  0.00000000000E+00 0. -1.
<scales pt_clust_4="550.00000" pt_clust_5="550.00000" pt_clust_6="36.29284"></scales>
<mgrwt>
<rscale>  0 0.30000000E+03</rscale>
<asrwt>  1 0.36292843E+02</asrwt>
<pdfrwt beam="1">  1        1 0.83232070E+00 0.30000000E+03</pdfrwt>
<pdfrwt beam="2">0</pdfrwt>
<totfact> 0.56263669E-04</totfact>
</mgrwt>
<clustering>
<clus scale="   36.293">  1  6  2 -1</clus>
<clus scale="  461.252">  4  5 -1 -1</clus>
<clus scale="  300.000">  1  4  2 -1</clus>
</clustering>
</event>
<event>
 6    1  0.9687246E-012  0.3000000E+03  0.7818608E-02  0.1093470E+00
          1   -1    0    0  502    0  0.00000000000E+00  0.00000000000E+00  0.23006818657E+03  0.23006818657E+03  0.00000000000E+00 0.  1.
         13   -1    0    0    0    0 -0.00000000000E+00 -0.00000000000E+00 -0.27500000000E+03  0.27500000000E+03  0.00000000000E+00 0.  1.
    9000005    2    1    2  501    0  0.33369842040E+02  0.67413808435E+01 -0.62182553569E+02  0.46690301123E+03  0.46148971749E+03 0.  0.
         13    1    3    3    0    0 -0.86353798186E+02  0.10953772722E+03  0.14846235082E+03  0.20370704887E+03  0.00000000000E+00 0.  1.
          3    1    3    3  501    0  0.11972364023E+03 -0.10279634638E+03 -0.21064490439E+03  0.26319596236E+03  0.00000000000E+00 0.  1.
         21    1    1    2  502  501 -0.33369842040E+02 -0.67413808435E+01  0.17250740138E+02  0.38165175341E+02  0.00000000000E+00 0. -1.
<scales pt_clust_4="550.00000" pt_clust_5="550.00000" pt_clust_6="34.04398"></scales>
<mgrwt>
<rscale>  0 0.30000000E+03</rscale>
<asrwt>  1 0.34043980E+02</asrwt>
<pdfrwt beam="1">  1        1 0.83661159E+00 0.30000000E+03</pdfrwt>
<pdfrwt beam="2">0</pdfrwt>
<totfact> 0.52934036E-04</totfact>
</mgrwt>
<clustering>
<clus scale="   34.044">  1  6  2 -1</clus>
<clus scale="  461.490">  4  5 -1 -1</clus>
<clus scale="  300.000">  1  4  2 -1</clus>
</clustering>
</event>
<event>
 6    1  0.9687246E-012  0.3000000E+03  0.7818608E-02  0.1093470E+00
          1   -1    0    0  502    0  0.00000000000E+00  0.00000000000E+00  0.24867421633E+03  0.24867421633E+03  0.00000000000E+00 0.  1.
         13   -1    0    0    0    0 -0.00000000000E+00 -0.00000000000E+00 -0.27500000000E+03  0.27500000000E+03  0.00000000000E+00 0.  1.
    9000005    2    1    2  501    0 -0.24306809737E+02 -0.26443165467E+02 -0.33640939478E+02  0.48701942804E+03  0.48452672628E+03 0.  0.
         13    1    3    3    0    0  0.17930572945E+03  0.87840056501E+02 -0.12580648429E+03  0.23599510933E+03  0.00000000000E+00 0.  1.
          3    1    3    3  501    0 -0.20361253919E+03 -0.11428322197E+03  0.92165544807E+02  0.25102431872E+03  0.00000000000E+00 0.  1.
         21    1    1    2  502  501  0.24306809737E+02  0.26443165467E+02  0.73151558036E+01  0.36654788281E+02  0.00000000000E+00 0. -1.
<scales pt_clust_4="550.00000" pt_clust_5="550.00000" pt_clust_6="35.91743"></scales>
<mgrwt>
<rscale>  0 0.30000000E+03</rscale>
<asrwt>  1 0.35917433E+02</asrwt>
<pdfrwt beam="1">  1        1 0.90426988E+00 0.30000000E+03</pdfrwt>
<pdfrwt beam="2">0</pdfrwt>
<totfact> 0.94909434E-05</totfact>
</mgrwt>
<clustering>
<clus scale="   35.917">  1  6  2 -1</clus>
<clus scale="  484.527">  4  5 -1 -1</clus>
<clus scale="  300.000">  1  4  2 -1</clus>
</clustering>
</event>
<event>
 6    1  0.9687246E-012  0.3000000E+03  0.7818608E-02  0.1093470E+00
          1   -1    0    0  502    0  0.00000000000E+00  0.00000000000E+00  0.22518111049E+03  0.22518111049E+03  0.00000000000E+00 0.  1.
         13   -1    0    0    0    0 -0.00000000000E+00 -0.00000000000E+00 -0.27500000000E+03  0.27500000000E+03  0.00000000000E+00 0.  1.
    9000005    2    1    2  501    0  0.34437195842E+01 -0.36820910416E+02 -0.57738546900E+02  0.46236101502E+03  0.45724865201E+03 0.  0.
         13    1    3    3    0    0  0.21232737868E+03 -0.35098477227E+02 -0.11735912824E+03  0.24512850471E+03  0.00000000000E+00 0.  1.
          1    1    3    3  501    0 -0.20888365910E+03 -0.17224331888E+01  0.59620581335E+02  0.21723251031E+03  0.00000000000E+00 0.  1.
         21    1    1    2  502  501 -0.34437195842E+01  0.36820910416E+02  0.79196573939E+01  0.37820095474E+02  0.00000000000E+00 0. -1.
<scales pt_clust_4="550.00000" pt_clust_5="550.00000" pt_clust_6="36.98160"></scales>
<mgrwt>
<rscale>  0 0.30000000E+03</rscale>
<asrwt>  1 0.36981599E+02</asrwt>
<pdfrwt beam="1">  1        1 0.81884040E+00 0.30000000E+03</pdfrwt>
<pdfrwt beam="2">0</pdfrwt>
<totfact> 0.73250435E-04</totfact>
</mgrwt>
<clustering>
<clus scale="   36.982">  1  6  2 -1</clus>
<clus scale="  457.249">  4  5 -1 -1</clus>
<clus scale="  300.000">  1  4  2 -1</clus>
</clustering>
</event>
<event>
 6    1  0.9687246E-012  0.3000000E+03  0.7818608E-02  0.1093470E+00
          1   -1    0    0  502    0  0.00000000000E+00  0.00000000000E+00  0.24599866986E+03  0.24599866986E+03  0.00000000000E+00 0.  1.
         13   -1    0    0    0    0 -0.00000000000E+00 -0.00000000000E+00 -0.27500000000E+03  0.27500000000E+03  0.00000000000E+00 0.  1.
    9000005    2    1    2  501    0 -0.24039541198E+02  0.35808047819E+02 -0.33020235358E+02  0.47768276714E+03  0.47458442268E+03 0.  0.
         13    1    3    3    0    0 -0.41545891705E+02  0.14586733291E+03 -0.21570501521E+03  0.26368919870E+03  0.00000000000E+00 0.  1.
          3    1    3    3  501    0  0.17506350507E+02 -0.11005928509E+03  0.18268477985E+03  0.21399356843E+03  0.00000000000E+00 0.  1.
         21    1    1    2  502  501  0.24039541198E+02 -0.35808047819E+02  0.40189052218E+01  0.43315902724E+02  0.00000000000E+00 0.  1.
<scales pt_clust_4="550.00000" pt_clust_5="550.00000" pt_clust_6="43.12906"></scales>
<mgrwt>
<rscale>  0 0.30000000E+03</rscale>
<asrwt>  1 0.43129060E+02</asrwt>
<pdfrwt beam="1">  1        1 0.89454062E+00 0.30000000E+03</pdfrwt>
<pdfrwt beam="2">0</pdfrwt>
<totfact> 0.12280584E-04</totfact>
</mgrwt>
<clustering>
<clus scale="   43.129">  1  6  2 -1</clus>
<clus scale="  474.584">  4  5 -1 -1</clus>
<clus scale="  300.000">  1  4  2 -1</clus>
</clustering>
</event>
<event>
 6    1  0.9687246E-012  0.3000000E+03  0.7818608E-02  0.1093470E+00
          1   -1    0    0  502    0  0.00000000000E+00  0.00000000000E+00  0.24229891641E+03  0.24229891641E+03  0.00000000000E+00 0.  1.
         13   -1    0    0    0    0 -0.00000000000E+00 -0.00000000000E+00 -0.27500000000E+03  0.27500000000E+03  0.00000000000E+00 0.  1.
    9000005    2    1    2  501    0  0.26532497687E+02  0.22069306345E+02 -0.51201080904E+02  0.47814182744E+03  0.47413819583E+03 0.  0.
         13    1    3    3    0    0  0.71260155516E+02 -0.47966866810E+02  0.19779623981E+03  0.21564364716E+03  0.00000000000E+00 0.  1.
          3    1    3    3  501    0 -0.44727657828E+02  0.70036173154E+02 -0.24899732072E+03  0.26249818028E+03  0.00000000000E+00 0.  1.
         21    1    1    2  502  501 -0.26532497687E+02 -0.22069306345E+02  0.18499997309E+02  0.39157088969E+02  0.00000000000E+00 0.  1.
<scales pt_clust_4="550.00000" pt_clust_5="550.00000" pt_clust_6="34.51127"></scales>
<mgrwt>
<rscale>  0 0.30000000E+03</rscale>
<asrwt>  1 0.34511269E+02</asrwt>
<pdfrwt beam="1">  1        1 0.88108697E+00 0.30000000E+03</pdfrwt>
<pdfrwt beam="2">0</pdfrwt>
<totfact> 0.19178869E-04</totfact>
</mgrwt>
<clustering>
<clus scale="   34.511">  1  6  2 -1</clus>
<clus scale="  474.138">  4  5 -1 -1</clus>
<clus scale="  300.000">  1  4  2 -1</clus>
</clustering>
</event>
<event>
 6    1  0.9687246E-012  0.3000000E+03  0.7818608E-02  0.1093470E+00
          1   -1    0    0  502    0  0.00000000000E+00  0.00000000000E+00  0.23355416000E+03  0.23355416000E+03  0.00000000000E+00 0.  1.
         13   -1    0    0    0    0 -0.00000000000E+00 -0.00000000000E+00 -0.27500000000E+03  0.27500000000E+03  0.00000000000E+00 0.  1.
    9000005    2    1    2  501    0 -0.17421342007E+00 -0.35268352390E+02 -0.38414838854E+02  0.47315537473E+03  0.47027270999E+03 0.  0.
         13    1    3    3    0    0  0.59774947307E+02 -0.24140206796E+03 -0.64450096748E+02  0.25690818927E+03  0.00000000000E+00 0.  1.
          1    1    3    3  501    0 -0.59949160727E+02  0.20613371557E+03  0.26035257894E+02  0.21624718546E+03  0.00000000000E+00 0.  1.
         21    1    1    2  502  501  0.17421342007E+00  0.35268352390E+02 -0.30310011483E+01  0.35398785270E+02  0.00000000000E+00 0.  1.
<scales pt_clust_4="550.00000" pt_clust_5="550.00000" pt_clust_6="35.26880"></scales>
<mgrwt>
<rscale>  0 0.30000000E+03</rscale>
<asrwt>  1 0.35268800E+02</asrwt>
<pdfrwt beam="1">  1        1 0.84928785E+00 0.30000000E+03</pdfrwt>
<pdfrwt beam="2">0</pdfrwt>
<totfact> 0.41268052E-04</totfact>
</mgrwt>
<clustering>
<clus scale="   35.269">  1  6  2 -1</clus>
<clus scale="  470.273">  4  5 -1 -1</clus>
<clus scale="  300.000">  1  4  2 -1</clus>
</clustering>
</event>
<event>
 6    1  0.9687246E-012  0.3000000E+03  0.7818608E-02  0.1093470E+00
          1   -1    0    0  502    0  0.00000000000E+00  0.00000000000E+00  0.23927426684E+03  0.23927426684E+03  0.00000000000E+00 0.  1.
         13   -1    0    0    0    0 -0.00000000000E+00 -0.00000000000E+00 -0.27500000000E+03  0.27500000000E+03  0.00000000000E+00 0.  1.
    9000005    2    1    2  501    0 -0.19007402250E+02 -0.40165546193E+02 -0.59680496170E+02  0.46379275426E+03  0.45778532616E+03 0.  0.
         13    1    3    3    0    0 -0.35131307330E+02 -0.45356102089E+02 -0.25822787138E+03  0.26452413559E+03  0.00000000000E+00 0.  1.
          3    1    3    3  501    0  0.16123905079E+02  0.51905558955E+01  0.19854737521E+03  0.19926861868E+03  0.00000000000E+00 0.  1.
         21    1    1    2  502  501  0.19007402250E+02  0.40165546193E+02  0.23954763014E+02  0.50481512580E+02  0.00000000000E+00 0. -1.
<scales pt_clust_4="550.00000" pt_clust_5="550.00000" pt_clust_6="44.43594"></scales>
<mgrwt>
<rscale>  0 0.30000000E+03</rscale>
<asrwt>  1 0.44435936E+02</asrwt>
<pdfrwt beam="1">  1        1 0.87008824E+00 0.30000000E+03</pdfrwt>
<pdfrwt beam="2">0</pdfrwt>
<totfact> 0.24192432E-04</totfact>
</mgrwt>
<clustering>
<clus scale="   44.436">  1  6  2 -1</clus>
<clus scale="  457.785">  4  5 -1 -1</clus>
<clus scale="  300.000">  1  4  2 -1</clus>
</clustering>
</event>
<event>
 6    1  0.9687246E-012  0.3000000E+03  0.7818608E-02  0.1093470E+00
          1   -1    0    0  502    0  0.00000000000E+00  0.00000000000E+00  0.24403066364E+03  0.24403066364E+03  0.00000000000E+00 0.  1.
         13   -1    0    0    0    0 -0.00000000000E+00 -0.00000000000E+00 -0.27500000000E+03  0.27500000000E+03  0.00000000000E+00 0.  1.
    9000005    2    1    2  501    0 -0.21769592538E+02  0.32864079851E+02 -0.29620263435E+02  0.47958724972E+03  0.47704570765E+03 0.  0.
         13    1    3    3    0    0  0.22217753608E+02 -0.19645011647E+03  0.90012191044E+02  0.21722907580E+03  0.00000000000E+00 0.  1.
          3    1    3    3  501    0 -0.43987346146E+02  0.22931419632E+03 -0.11963245448E+03  0.26235817392E+03  0.00000000000E+00 0.  1.
         21    1    1    2  502  501  0.21769592538E+02 -0.32864079851E+02 -0.13490729267E+01  0.39443413918E+02  0.00000000000E+00 0. -1.
<scales pt_clust_4="550.00000" pt_clust_5="550.00000" pt_clust_6="39.42034"></scales>
<mgrwt>
<rscale>  0 0.30000000E+03</rscale>
<asrwt>  1 0.39420336E+02</asrwt>
<pdfrwt beam="1">  1        1 0.88738423E+00 0.30000000E+03</pdfrwt>
<pdfrwt beam="2">0</pdfrwt>
<totfact> 0.15391378E-04</totfact>
</mgrwt>
<clustering>
<clus scale="   39.420">  1  6  2 -1</clus>
<clus scale="  477.046">  4  5 -1 -1</clus>
<clus scale="  300.000">  1  4  2 -1</clus>
</clustering>
</event>
<event>
 6    1  0.9687246E-012  0.3000000E+03  0.7818608E-02  0.1093470E+00
          1   -1    0    0  502    0  0.00000000000E+00  0.00000000000E+00  0.24706108883E+03  0.24706108883E+03  0.00000000000E+00 0.  1.
         13   -1    0    0    0    0 -0.00000000000E+00 -0.00000000000E+00 -0.27500000000E+03  0.27500000000E+03  0.00000000000E+00 0.  1.
    9000005    2    1    2  501    0  0.37345856347E+02 -0.95520348687E+01 -0.48968175910E+01  0.47715126326E+03  0.47556639373E+03 0.  0.
         13    1    3    3    0    0  0.20313686753E+03 -0.10125781779E+03 -0.11869639987E+03  0.25613779096E+03  0.00000000000E+00 0.  1.
          3    1    3    3  501    0 -0.16579101119E+03  0.91705782922E+02  0.11379958228E+03  0.22101347230E+03  0.00000000000E+00 0.  1.
         21    1    1    2  502  501 -0.37345856347E+02  0.95520348687E+01 -0.23042093579E+02  0.44909825572E+02  0.00000000000E+00 0.  1.
<scales pt_clust_4="550.00000" pt_clust_5="550.00000" pt_clust_6="38.54810"></scales>
<mgrwt>
<rscale>  0 0.30000000E+03</rscale>
<asrwt>  1 0.38548098E+02</asrwt>
<pdfrwt beam="1">  1        1 0.89840396E+00 0.30000000E+03</pdfrwt>
<pdfrwt beam="2">0</pdfrwt>
<totfact> 0.11339282E-04</totfact>
</mgrwt>
<clustering>
<clus scale="   38.548">  1  6  2 -1</clus>
<clus scale="  475.566">  4  5 -1 -1</clus>
<clus scale="  300.000">  1  4  2 -1</clus>
</clustering>
</event>
<event>
 6    1  0.9687246E-012  0.3000000E+03  0.7818608E-02  0.1093470E+00
          1   -1    0    0  502    0  0.00000000000E+00  0.00000000000E+00  0.24254453800E+03  0.24254453800E+03  0.00000000000E+00 0.  1.
         13   -1    0    0    0    0 -0.00000000000E+00 -0.00000000000E+00 -0.27500000000E+03  0.27500000000E+03  0.00000000000E+00 0.  1.
    9000005    2    1    2  501    0  0.27361705306E+02 -0.14221512296E+02 -0.53332798281E+02  0.48030507641E+03  0.47633776328E+03 0.  0.
         13    1    3    3    0    0  0.22082270992E+03  0.97645496042E+02 -0.82012061716E+02  0.25499664778E+03  0.00000000000E+00 0.  1.
          1    1    3    3  501    0 -0.19346100461E+03 -0.11186700834E+03  0.28679263435E+02  0.22530842863E+03  0.00000000000E+00 0.  1.
         21    1    1    2  502  501 -0.27361705306E+02  0.14221512296E+02  0.20877336286E+02  0.37239461591E+02  0.00000000000E+00 0.  1.
<scales pt_clust_4="550.00000" pt_clust_5="550.00000" pt_clust_6="30.83690"></scales>
<mgrwt>
<rscale>  0 0.30000000E+03</rscale>
<asrwt>  1 0.30836899E+02</asrwt>
<pdfrwt beam="1">  1        1 0.88198014E+00 0.30000000E+03</pdfrwt>
<pdfrwt beam="2">0</pdfrwt>
<totfact> 0.19080417E-04</totfact>
</mgrwt>
<clustering>
<clus scale="   30.837">  1  6  2 -1</clus>
<clus scale="  476.338">  4  5 -1 -1</clus>
<clus scale="  300.000">  1  4  2 -1</clus>
</clustering>
</event>
<event>
 6    1  0.9687246E-012  0.3000000E+03  0.7818608E-02  0.1093470E+00
          1   -1    0    0  502    0  0.00000000000E+00  0.00000000000E+00  0.22512943742E+03  0.22512943742E+03  0.00000000000E+00 0.  1.
         13   -1    0    0    0    0 -0.00000000000E+00 -0.00000000000E+00 -0.27500000000E+03  0.27500000000E+03  0.00000000000E+00 0.  1.
    9000005    2    1    2  501    0 -0.82978363738E+01  0.30244375502E+02 -0.56816697105E+02  0.46800740257E+03  0.46348593879E+03 0.  0.
         13    1    3    3    0    0  0.18807383540E+03 -0.10351035587E+02  0.10017371313E+03  0.21333936417E+03  0.00000000000E+00 0.  1.
          1    1    3    3  501    0 -0.19637167178E+03  0.40595411088E+02 -0.15699041024E+03  0.25466803840E+03  0.00000000000E+00 0.  1.
         21    1    1    2  502  501  0.82978363738E+01 -0.30244375502E+02  0.69461345235E+01  0.32122034848E+02  0.00000000000E+00 0.  1.
<scales pt_clust_4="550.00000" pt_clust_5="550.00000" pt_clust_6="31.36202"></scales>
<mgrwt>
<rscale>  0 0.30000000E+03</rscale>
<asrwt>  1 0.31362021E+02</asrwt>
<pdfrwt beam="1">  1        1 0.81865250E+00 0.30000000E+03</pdfrwt>
<pdfrwt beam="2">0</pdfrwt>
<totfact> 0.75833571E-04</totfact>
</mgrwt>
<clustering>
<clus scale="   31.362">  1  6  2 -1</clus>
<clus scale="  463.486">  4  5 -1 -1</clus>
<clus scale="  300.000">  1  4  2 -1</clus>
</clustering>
</event>
<event>
 6    1  0.9687246E-012  0.3000000E+03  0.7818608E-02  0.1093470E+00
          1   -1    0    0  502    0  0.00000000000E+00  0.00000000000E+00  0.24449729715E+03  0.24449729715E+03  0.00000000000E+00 0.  1.
         13   -1    0    0    0    0 -0.00000000000E+00 -0.00000000000E+00 -0.27500000000E+03  0.27500000000E+03  0.00000000000E+00 0.  1.
    9000005    2    1    2  501    0  0.12635694758E+02 -0.30928095258E+02 -0.45346079812E+02  0.48293866345E+03  0.47964286489E+03 0.  0.
         13    1    3    3    0    0  0.12426234842E+03 -0.20628428648E+03 -0.11068794308E+03  0.26503991930E+03  0.00000000000E+00 0.  1.
          1    1    3    3  501    0 -0.11162665366E+03  0.17535619122E+03  0.65341863266E+02  0.21789874415E+03  0.00000000000E+00 0.  1.
         21    1    1    2  502  501 -0.12635694758E+02  0.30928095258E+02  0.14843376961E+02  0.36558633698E+02  0.00000000000E+00 0. -1.
<scales pt_clust_4="550.00000" pt_clust_5="550.00000" pt_clust_6="33.40970"></scales>
<mgrwt>
<rscale>  0 0.30000000E+03</rscale>
<asrwt>  1 0.33409697E+02</asrwt>
<pdfrwt beam="1">  1        1 0.88908108E+00 0.30000000E+03</pdfrwt>
<pdfrwt beam="2">0</pdfrwt>
<totfact> 0.15044508E-04</totfact>
</mgrwt>
<clustering>
<clus scale="   33.410">  1  6  2 -1</clus>
<clus scale="  479.643">  4  5 -1 -1</clus>
<clus scale="  300.000">  1  4  2 -1</clus>
</clustering>
</event>
<event>
 6    1  0.9687246E-012  0.3000000E+03  0.7818608E-02  0.1093470E+00
          1   -1    0    0  502    0  0.00000000000E+00  0.00000000000E+00  0.22232430362E+03  0.22232430362E+03  0.00000000000E+00 0.  1.
         13   -1    0    0    0    0 -0.00000000000E+00 -0.00000000000E+00 -0.27500000000E+03  0.27500000000E+03  0.00000000000E+00 0.  1.
    9000005    2    1    2  501    0 -0.28636934754E+01 -0.32585781739E+02 -0.65586259790E+02  0.46215732252E+03  0.45630888593E+03 0.  0.
         13    1    3    3    0    0  0.13629332729E+03  0.10098833399E+03  0.10929508516E+03  0.20179179940E+03  0.00000000000E+00 0.  1.
          3    1    3    3  501    0 -0.13915702077E+03 -0.13357411573E+03 -0.17488134495E+03  0.26036552312E+03  0.00000000000E+00 0.  1.
         21    1    1    2  502  501  0.28636934754E+01  0.32585781739E+02  0.12910563412E+02  0.35166981097E+02  0.00000000000E+00 0.  1.
<scales pt_clust_4="550.00000" pt_clust_5="550.00000" pt_clust_6="32.71137"></scales>
<mgrwt>
<rscale>  0 0.30000000E+03</rscale>
<asrwt>  1 0.32711373E+02</asrwt>
<pdfrwt beam="1">  1        1 0.80845201E+00 0.30000000E+03</pdfrwt>
<pdfrwt beam="2">0</pdfrwt>
<totfact> 0.90810093E-04</totfact>
</mgrwt>
<clustering>
<clus scale="   32.711">  1  6  2 -1</clus>
<clus scale="  456.309">  4  5 -1 -1</clus>
<clus scale="  300.000">  1  4  2 -1</clus>
</clustering>
</event>
<event>
 6    1  0.9687246E-012  0.3000000E+03  0.7818608E-02  0.1093470E+00
          1   -1    0    0  502    0  0.00000000000E+00  0.00000000000E+00  0.22660729949E+03  0.22660729949E+03  0.00000000000E+00 0.  1.
         13   -1    0    0    0    0 -0.00000000000E+00 -0.00000000000E+00 -0.27500000000E+03  0.27500000000E+03  0.00000000000E+00 0.  1.
    9000005    2    1    2  501    0 -0.11531136047E+02 -0.29933681478E+02 -0.28344089048E+02  0.46377954240E+03  0.46179983129E+03 0.  0.
         13    1    3    3    0    0  0.21390181174E+03 -0.12063370118E+02  0.57614523607E+02  0.22185342751E+03  0.00000000000E+00 0.  1.
          1    1    3    3  501    0 -0.22543294779E+03 -0.17870311360E+02 -0.85958612655E+02  0.24192611489E+03  0.00000000000E+00 0.  1.
         21    1    1    2  502  501  0.11531136047E+02  0.29933681478E+02 -0.20048611458E+02  0.37827757094E+02  0.00000000000E+00 0.  1.
<scales pt_clust_4="550.00000" pt_clust_5="550.00000" pt_clust_6="32.07793"></scales>
<mgrwt>
<rscale>  0 0.30000000E+03</rscale>
<asrwt>  1 0.32077927E+02</asrwt>
<pdfrwt beam="1">  1        1 0.82402654E+00 0.30000000E+03</pdfrwt>
<pdfrwt beam="2">0</pdfrwt>
<totfact> 0.67742844E-04</totfact>
</mgrwt>
<clustering>
<clus scale="   32.078">  1  6  2 -1</clus>
<clus scale="  461.800">  4  5 -1 -1</clus>
<clus scale="  300.000">  1  4  2 -1</clus>
</clustering>
</event>
<event>
 6    1  0.9687246E-012  0.3000000E+03  0.7818608E-02  0.1093470E+00
          1   -1    0    0  502    0  0.00000000000E+00  0.00000000000E+00  0.24659648146E+03  0.24659648146E+03  0.00000000000E+00 0.  1.
         13   -1    0    0    0    0 -0.00000000000E+00 -0.00000000000E+00 -0.27500000000E+03  0.27500000000E+03  0.00000000000E+00 0.  1.
    9000005    2    1    2  501    0  0.27149427588E+02  0.15255937173E+02 -0.68830007144E+02  0.47056574544E+03  0.46446174855E+03 0.  0.
         13    1    3    3    0    0 -0.21120980617E+03  0.16474473761E+02 -0.92231021875E+02  0.23105746451E+03  0.00000000000E+00 0.  1.
          3    1    3    3  501    0  0.23835923376E+03 -0.12185365875E+01  0.23401014731E+02  0.23950828094E+03  0.00000000000E+00 0.  1.
         21    1    1    2  502  501 -0.27149427588E+02 -0.15255937173E+02  0.40426488603E+02  0.51030736014E+02  0.00000000000E+00 0. -1.
<scales pt_clust_4="550.00000" pt_clust_5="550.00000" pt_clust_6="31.14217"></scales>
<mgrwt>
<rscale>  0 0.30000000E+03</rscale>
<asrwt>  1 0.31142175E+02</asrwt>
<pdfrwt beam="1">  1        1 0.89671448E+00 0.30000000E+03</pdfrwt>
<pdfrwt beam="2">0</pdfrwt>
<totfact> 0.12335092E-04</totfact>
</mgrwt>
<clustering>
<clus scale="   31.142">  1  6  2 -1</clus>
<clus scale="  464.462">  4  5 -1 -1</clus>
<clus scale="  300.000">  1  4  2 -1</clus>
</clustering>
</event>
<event>
 6    1  0.9687246E-012  0.3000000E+03  0.7818608E-02  0.1093470E+00
          1   -1    0    0  502    0  0.00000000000E+00  0.00000000000E+00  0.23317276535E+03  0.23317276535E+03  0.00000000000E+00 0.  1.
         13   -1    0    0    0    0 -0.00000000000E+00 -0.00000000000E+00 -0.27500000000E+03  0.27500000000E+03  0.00000000000E+00 0.  1.
    9000005    2    1    2  501    0 -0.60880677759E+01 -0.42589980788E+02 -0.45068315825E+02  0.46502794365E+03  0.46083496422E+03 0.  0.
         13    1    3    3    0    0  0.81620039549E+02 -0.23349029781E+03  0.11001421036E+02  0.24758954197E+03  0.00000000000E+00 0.  1.
          1    1    3    3  501    0 -0.87708107325E+02  0.19090031703E+03 -0.56069736861E+02  0.21743840167E+03  0.00000000000E+00 0.  1.
         21    1    1    2  502  501  0.60880677759E+01  0.42589980788E+02  0.32410811760E+01  0.43144821705E+02  0.00000000000E+00 0. -1.
<scales pt_clust_4="550.00000" pt_clust_5="550.00000" pt_clust_6="43.02291"></scales>
<mgrwt>
<rscale>  0 0.30000000E+03</rscale>
<asrwt>  1 0.43022913E+02</asrwt>
<pdfrwt beam="1">  1        1 0.84790096E+00 0.30000000E+03</pdfrwt>
<pdfrwt beam="2">0</pdfrwt>
<totfact> 0.40980450E-04</totfact>
</mgrwt>
<clustering>
<clus scale="   43.023">  1  6  2 -1</clus>
<clus scale="  460.835">  4  5 -1 -1</clus>
<clus scale="  300.000">  1  4  2 -1</clus>
</clustering>
</event>
<event>
 6    1  0.9687246E-012  0.3000000E+03  0.7818608E-02  0.1093470E+00
          1   -1    0    0  502    0  0.00000000000E+00  0.00000000000E+00  0.24182788687E+03  0.24182788687E+03  0.00000000000E+00 0.  1.
         13   -1    0    0    0    0 -0.00000000000E+00 -0.00000000000E+00 -0.27500000000E+03  0.27500000000E+03  0.00000000000E+00 0.  1.
    9000005    2    1    2  501    0  0.82238193767E+01 -0.32603912901E+02 -0.52121248691E+02  0.47823104658E+03  0.47419158893E+03 0.  0.
         13    1    3    3    0    0 -0.58282278485E+02  0.21301434164E+03 -0.28472914269E+02  0.22267159804E+03  0.00000000000E+00 0.  1.
          1    1    3    3  501    0  0.66506097862E+02 -0.24561825454E+03 -0.23648334422E+02  0.25555944854E+03  0.00000000000E+00 0.  1.
         21    1    1    2  502  501 -0.82238193767E+01  0.32603912901E+02  0.18949135559E+02  0.38596840286E+02  0.00000000000E+00 0. -1.
<scales pt_clust_4="550.00000" pt_clust_5="550.00000" pt_clust_6="33.62509"></scales>
<mgrwt>
<rscale>  0 0.30000000E+03</rscale>
<asrwt>  1 0.33625085E+02</asrwt>
<pdfrwt beam="1">  1        1 0.87937413E+00 0.30000000E+03</pdfrwt>
<pdfrwt beam="2">0</pdfrwt>
<totfact> 0.20239402E-04</totfact>
</mgrwt>
<clustering>
<clus scale="   33.625">  1  6  2 -1</clus>
<clus scale="  474.192">  4  5 -1 -1</clus>
<clus scale="  300.000">  1  4  2 -1</clus>
</clustering>
</event>
<event>
 6    1  0.9687246E-012  0.3000000E+03  0.7818608E-02  0.1093470E+00
          1   -1    0    0  502    0  0.00000000000E+00  0.00000000000E+00  0.23665149281E+03  0.23665149281E+03  0.00000000000E+00 0.  1.
         13   -1    0    0    0    0 -0.00000000000E+00 -0.00000000000E+00 -0.27500000000E+03  0.27500000000E+03  0.00000000000E+00 0.  1.
    9000005    2    1    2  501    0  0.19906050806E+02 -0.23371541959E+02 -0.64169732790E+02  0.47153646416E+03  0.46613989595E+03 0.  0.
         13    1    3    3    0    0 -0.44653181753E+02 -0.56001385353E+02  0.19222370822E+03  0.20513414100E+03  0.00000000000E+00 0.  1.
          3    1    3    3  501    0  0.64559232560E+02  0.32629843394E+02 -0.25639344101E+03  0.26640232316E+03  0.00000000000E+00 0.  1.
         21    1    1    2  502  501 -0.19906050806E+02  0.23371541959E+02  0.25821225605E+02  0.40115028655E+02  0.00000000000E+00 0.  1.
<scales pt_clust_4="550.00000" pt_clust_5="550.00000" pt_clust_6="30.69983"></scales>
<mgrwt>
<rscale>  0 0.30000000E+03</rscale>
<asrwt>  1 0.30699834E+02</asrwt>
<pdfrwt beam="1">  1        1 0.86055088E+00 0.30000000E+03</pdfrwt>
<pdfrwt beam="2">0</pdfrwt>
<totfact> 0.32712566E-04</totfact>
</mgrwt>
<clustering>
<clus scale="   30.700">  1  6  2 -1</clus>
<clus scale="  466.140">  4  5 -1 -1</clus>
<clus scale="  300.000">  1  4  2 -1</clus>
</clustering>
</event>
<event>
 6    1  0.9687246E-012  0.3000000E+03  0.7818608E-02  0.1093470E+00
          1   -1    0    0  502    0  0.00000000000E+00  0.00000000000E+00  0.22779877456E+03  0.22779877456E+03  0.00000000000E+00 0.  1.
         13   -1    0    0    0    0 -0.00000000000E+00 -0.00000000000E+00 -0.27500000000E+03  0.27500000000E+03  0.00000000000E+00 0.  1.
    9000005    2    1    2  501    0  0.68718662573E+01 -0.30877538510E+02 -0.57888720196E+02  0.46940914332E+03  0.46475068045E+03 0.  0.
         13    1    3    3    0    0 -0.16439468870E+02 -0.78873185128E+00  0.20405339566E+03  0.20471606315E+03  0.00000000000E+00 0.  1.
          1    1    3    3  501    0  0.23311335127E+02 -0.30088806659E+02 -0.26194211585E+03  0.26469308017E+03  0.00000000000E+00 0.  1.
         21    1    1    2  502  501 -0.68718662573E+01  0.30877538510E+02  0.10687494757E+02  0.33389631242E+02  0.00000000000E+00 0. -1.
<scales pt_clust_4="550.00000" pt_clust_5="550.00000" pt_clust_6="31.63297"></scales>
<mgrwt>
<rscale>  0 0.30000000E+03</rscale>
<asrwt>  1 0.31632972E+02</asrwt>
<pdfrwt beam="1">  1        1 0.82835918E+00 0.30000000E+03</pdfrwt>
<pdfrwt beam="2">0</pdfrwt>
<totfact> 0.62193683E-04</totfact>
</mgrwt>
<clustering>
<clus scale="   31.633">  1  6  2 -1</clus>
<clus scale="  464.751">  4  5 -1 -1</clus>
<clus scale="  300.000">  1  4  2 -1</clus>
</clustering>
</event>
<event>
 6    1  0.9687246E-012  0.3000000E+03  0.7818608E-02  0.1093470E+00
          1   -1    0    0  502    0  0.00000000000E+00  0.00000000000E+00  0.22863867804E+03  0.22863867804E+03  0.00000000000E+00 0.  1.
         13   -1    0    0    0    0 -0.00000000000E+00 -0.00000000000E+00 -0.27500000000E+03  0.27500000000E+03  0.00000000000E+00 0.  1.
    9000005    2    1    2  501    0 -0.22834104573E+02 -0.23824450695E+02 -0.60707113693E+02  0.46765531351E+03  0.46252258087E+03 0.  0.
         13    1    3    3    0    0  0.16882151558E+03  0.13390866094E+03 -0.28088003222E+02  0.21730432468E+03  0.00000000000E+00 0.  1.
          3    1    3    3  501    0 -0.19165562015E+03 -0.15773311164E+03 -0.32619110471E+02  0.25035098883E+03  0.00000000000E+00 0.  1.
         21    1    1    2  502  501  0.22834104573E+02  0.23824450695E+02  0.14345791735E+02  0.35983364532E+02  0.00000000000E+00 0.  1.
<scales pt_clust_4="550.00000" pt_clust_5="550.00000" pt_clust_6="33.00001"></scales>
<mgrwt>
<rscale>  0 0.30000000E+03</rscale>
<asrwt>  1 0.33000012E+02</asrwt>
<pdfrwt beam="1">  1        1 0.83141337E+00 0.30000000E+03</pdfrwt>
<pdfrwt beam="2">0</pdfrwt>
<totfact> 0.58212618E-04</totfact>
</mgrwt>
<clustering>
<clus scale="   33.000">  1  6  2 -1</clus>
<clus scale="  462.523">  4  5 -1 -1</clus>
<clus scale="  300.000">  1  4  2 -1</clus>
</clustering>
</event>
<event>
 6    1  0.9687246E-012  0.3000000E+03  0.7818608E-02  0.1093470E+00
          1   -1    0    0  502    0  0.00000000000E+00  0.00000000000E+00  0.24315657541E+03  0.24315657541E+03  0.00000000000E+00 0.  1.
         13   -1    0    0    0    0 -0.00000000000E+00 -0.00000000000E+00 -0.27500000000E+03  0.27500000000E+03  0.00000000000E+00 0.  1.
    9000005    2    1    2  501    0 -0.27235576780E+02 -0.19423006174E+02 -0.33916218055E+02  0.48464051532E+03  0.48229357183E+03 0.  0.
         13    1    3    3    0    0  0.21754622850E+02  0.90907342037E+02 -0.23342923271E+03  0.25144903088E+03  0.00000000000E+00 0.  1.
          3    1    3    3  501    0 -0.48990199630E+02 -0.11033034821E+03  0.19951301465E+03  0.23319148443E+03  0.00000000000E+00 0.  1.
         21    1    1    2  502  501  0.27235576780E+02  0.19423006174E+02  0.20727934624E+01  0.33516060092E+02  0.00000000000E+00 0.  1.
<scales pt_clust_4="550.00000" pt_clust_5="550.00000" pt_clust_6="33.45190"></scales>
<mgrwt>
<rscale>  0 0.30000000E+03</rscale>
<asrwt>  1 0.33451903E+02</asrwt>
<pdfrwt beam="1">  1        1 0.88420573E+00 0.30000000E+03</pdfrwt>
<pdfrwt beam="2">0</pdfrwt>
<totfact> 0.17547926E-04</totfact>
</mgrwt>
<clustering>
<clus scale="   33.452">  1  6  2 -1</clus>
<clus scale="  482.294">  4  5 -1 -1</clus>
<clus scale="  300.000">  1  4  2 -1</clus>
</clustering>
</event>
<event>
 6    1  0.9687246E-012  0.3000000E+03  0.7818608E-02  0.1093470E+00
          1   -1    0    0  502    0  0.00000000000E+00  0.00000000000E+00  0.25982505306E+03  0.25982505306E+03  0.00000000000E+00 0.  1.
         13   -1    0    0    0    0 -0.00000000000E+00 -0.00000000000E+00 -0.27500000000E+03  0.27500000000E+03  0.00000000000E+00 0.  1.
    9000005    2    1    2  501    0  0.39638279719E+02  0.27002190413E+01 -0.72560072019E+02  0.46502865643E+03  0.45761141031E+03 0.  0.
         13    1    3    3    0    0  0.16429619874E+03  0.18019332468E+02 -0.21754408194E+03  0.27320937914E+03  0.00000000000E+00 0.  1.
          3    1    3    3  501    0 -0.12465791902E+03 -0.15319113426E+02  0.14498400992E+03  0.19181927730E+03  0.00000000000E+00 0.  1.
         21    1    1    2  502  501 -0.39638279719E+02 -0.27002190413E+01  0.57385125079E+02  0.69796396628E+02  0.00000000000E+00 0. -1.
<scales pt_clust_4="550.00000" pt_clust_5="550.00000" pt_clust_6="39.73014"></scales>
<mgrwt>
<rscale>  0 0.30000000E+03</rscale>
<asrwt>  1 0.39730145E+02</asrwt>
<pdfrwt beam="1">  1        1 0.94481837E+00 0.30000000E+03</pdfrwt>
<pdfrwt beam="2">0</pdfrwt>
<totfact> 0.15310537E-05</totfact>
</mgrwt>
<clustering>
<clus scale="   39.730">  1  6  2 -1</clus>
<clus scale="  457.611">  4  5 -1 -1</clus>
<clus scale="  300.000">  1  4  2 -1</clus>
</clustering>
</event>
<event>
 6    1  0.9687246E-012  0.3000000E+03  0.7818608E-02  0.1093470E+00
          1   -1    0    0  502    0  0.00000000000E+00  0.00000000000E+00  0.22800800761E+03  0.22800800761E+03  0.00000000000E+00 0.  1.
         13   -1    0    0    0    0 -0.00000000000E+00 -0.00000000000E+00 -0.27500000000E+03  0.27500000000E+03  0.00000000000E+00 0.  1.
    9000005    2    1    2  501    0  0.75411382638E+01 -0.32133783359E+02 -0.59465400717E+02  0.46772295816E+03  0.46275175085E+03 0.  0.
         13    1    3    3    0    0 -0.24183176772E+02 -0.21026784214E+03  0.92932234078E+02  0.23115750390E+03  0.00000000000E+00 0.  1.
          3    1    3    3  501    0  0.31724315036E+02  0.17813405878E+03 -0.15239763480E+03  0.23656545427E+03  0.00000000000E+00 0.  1.
         21    1    1    2  502  501 -0.75411382638E+01  0.32133783359E+02  0.12473408330E+02  0.35285049449E+02  0.00000000000E+00 0. -1.
<scales pt_clust_4="550.00000" pt_clust_5="550.00000" pt_clust_6="33.00680"></scales>
<mgrwt>
<rscale>  0 0.30000000E+03</rscale>
<asrwt>  1 0.33006799E+02</asrwt>
<pdfrwt beam="1">  1        1 0.82912003E+00 0.30000000E+03</pdfrwt>
<pdfrwt beam="2">0</pdfrwt>
<totfact> 0.60777926E-04</totfact>
</mgrwt>
<clustering>
<clus scale="   33.007">  1  6  2 -1</clus>
<clus scale="  462.752">  4  5 -1 -1</clus>
<clus scale="  300.000">  1  4  2 -1</clus>
</clustering>
</event>
<event>
 6    1  0.9687246E-012  0.3000000E+03  0.7818608E-02  0.1093470E+00
          1   -1    0    0  502    0  0.00000000000E+00  0.00000000000E+00  0.22351612357E+03  0.22351612357E+03  0.00000000000E+00 0.  1.
         13   -1    0    0    0    0 -0.00000000000E+00 -0.00000000000E+00 -0.27500000000E+03  0.27500000000E+03  0.00000000000E+00 0.  1.
    9000005    2    1    2  501    0  0.32227592555E+01 -0.30036123647E+02 -0.61932989316E+02  0.46655147339E+03  0.46143474864E+03 0.  0.
         13    1    3    3    0    0  0.51873246215E+02  0.12922972739E+03 -0.20444658272E+03  0.24736523867E+03  0.00000000000E+00 0.  1.
          1    1    3    3  501    0 -0.48650486960E+02 -0.15926585104E+03  0.14251359340E+03  0.21918623472E+03  0.00000000000E+00 0.  1.
         21    1    1    2  502  501 -0.32227592555E+01  0.30036123647E+02  0.10449112884E+02  0.31964650178E+02  0.00000000000E+00 0.  1.
<scales pt_clust_4="550.00000" pt_clust_5="550.00000" pt_clust_6="30.20852"></scales>
<mgrwt>
<rscale>  0 0.30000000E+03</rscale>
<asrwt>  1 0.30208524E+02</asrwt>
<pdfrwt beam="1">  1        1 0.81278590E+00 0.30000000E+03</pdfrwt>
<pdfrwt beam="2">0</pdfrwt>
<totfact> 0.85270408E-04</totfact>
</mgrwt>
<clustering>
<clus scale="   30.209">  1  6  2 -1</clus>
<clus scale="  461.435">  4  5 -1 -1</clus>
<clus scale="  300.000">  1  4  2 -1</clus>
</clustering>
</event>
<event>
 6    1  0.9687246E-012  0.3000000E+03  0.7818608E-02  0.1093470E+00
          1   -1    0    0  502    0  0.00000000000E+00  0.00000000000E+00  0.22911545904E+03  0.22911545904E+03  0.00000000000E+00 0.  1.
         13   -1    0    0    0    0 -0.00000000000E+00 -0.00000000000E+00 -0.27500000000E+03  0.27500000000E+03  0.00000000000E+00 0.  1.
    9000005    2    1    2  501    0 -0.22579014802E+02 -0.29514090664E+02 -0.60823050819E+02  0.46406483440E+03  0.45855842982E+03 0.  0.
         13    1    3    3    0    0 -0.12289976991E+03 -0.18831881945E+03  0.69587092729E+02  0.23539476349E+03  0.00000000000E+00 0.  1.
          1    1    3    3  501    0  0.10032075511E+03  0.15880472878E+03 -0.13041014355E+03  0.22867007091E+03  0.00000000000E+00 0.  1.
         21    1    1    2  502  501  0.22579014802E+02  0.29514090664E+02  0.14938509857E+02  0.40050624638E+02  0.00000000000E+00 0. -1.
<scales pt_clust_4="550.00000" pt_clust_5="550.00000" pt_clust_6="37.16037"></scales>
<mgrwt>
<rscale>  0 0.30000000E+03</rscale>
<asrwt>  1 0.37160375E+02</asrwt>
<pdfrwt beam="1">  1        1 0.83314712E+00 0.30000000E+03</pdfrwt>
<pdfrwt beam="2">0</pdfrwt>
<totfact> 0.55214302E-04</totfact>
</mgrwt>
<clustering>
<clus scale="   37.160">  1  6  2 -1</clus>
<clus scale="  458.558">  4  5 -1 -1</clus>
<clus scale="  300.000">  1  4  2 -1</clus>
</clustering>
</event>
<event>
 6    1  0.9687246E-012  0.3000000E+03  0.7818608E-02  0.1093470E+00
          1   -1    0    0  502    0  0.00000000000E+00  0.00000000000E+00  0.22576105720E+03  0.22576105720E+03  0.00000000000E+00 0.  1.
         13   -1    0    0    0    0 -0.00000000000E+00 -0.00000000000E+00 -0.27500000000E+03  0.27500000000E+03  0.00000000000E+00 0.  1.
    9000005    2    1    2  501    0  0.30714956068E+02 -0.19669757941E+02 -0.42217629277E+02  0.46361799934E+03  0.46024886006E+03 0.  0.
         13    1    3    3    0    0  0.24572862531E+03 -0.16800199181E+02 -0.31627152108E+02  0.24832454720E+03  0.00000000000E+00 0.  1.
          3    1    3    3  501    0 -0.21501366924E+03 -0.28695587599E+01 -0.10590477169E+02  0.21529345214E+03  0.00000000000E+00 0.  1.
         21    1    1    2  502  501 -0.30714956068E+02  0.19669757941E+02 -0.70213135219E+01  0.37143057861E+02  0.00000000000E+00 0. -1.
<scales pt_clust_4="550.00000" pt_clust_5="550.00000" pt_clust_6="36.47340"></scales>
<mgrwt>
<rscale>  0 0.30000000E+03</rscale>
<asrwt>  1 0.36473404E+02</asrwt>
<pdfrwt beam="1">  1        1 0.82094930E+00 0.30000000E+03</pdfrwt>
<pdfrwt beam="2">0</pdfrwt>
<totfact> 0.70421113E-04</totfact>
</mgrwt>
<clustering>
<clus scale="   36.473">  1  6  2 -1</clus>
<clus scale="  460.249">  4  5 -1 -1</clus>
<clus scale="  300.000">  1  4  2 -1</clus>
</clustering>
</event>
<event>
 6    1  0.9687246E-012  0.3000000E+03  0.7818608E-02  0.1093470E+00
          1   -1    0    0  502    0  0.00000000000E+00  0.00000000000E+00  0.23276894274E+03  0.23276894274E+03  0.00000000000E+00 0.  1.
         13   -1    0    0    0    0 -0.00000000000E+00 -0.00000000000E+00 -0.27500000000E+03  0.27500000000E+03  0.00000000000E+00 0.  1.
    9000005    2    1    2  501    0  0.11764548569E+02 -0.39640648420E+02 -0.35556785838E+02  0.46588420197E+03  0.46268133636E+03 0.  0.
         13    1    3    3    0    0 -0.92519869218E+02 -0.22455172471E+03  0.27524048719E+02  0.24441967295E+03  0.00000000000E+00 0.  1.
          3    1    3    3  501    0  0.10428441779E+03  0.18491107629E+03 -0.63080834557E+02  0.22146452902E+03  0.00000000000E+00 0.  1.
         21    1    1    2  502  501 -0.11764548569E+02  0.39640648420E+02 -0.66742714211E+01  0.41884740767E+02  0.00000000000E+00 0.  1.
<scales pt_clust_4="550.00000" pt_clust_5="550.00000" pt_clust_6="41.34957"></scales>
<mgrwt>
<rscale>  0 0.30000000E+03</rscale>
<asrwt>  1 0.41349575E+02</asrwt>
<pdfrwt beam="1">  1        1 0.84643252E+00 0.30000000E+03</pdfrwt>
<pdfrwt beam="2">0</pdfrwt>
<totfact> 0.42556703E-04</totfact>
</mgrwt>
<clustering>
<clus scale="   41.350">  1  6  2 -1</clus>
<clus scale="  462.681">  4  5 -1 -1</clus>
<clus scale="  300.000">  1  4  2 -1</clus>
</clustering>
</event>
<event>
 6    1  0.9687246E-012  0.3000000E+03  0.7818608E-02  0.1093470E+00
          1   -1    0    0  502    0  0.00000000000E+00  0.00000000000E+00  0.23118350776E+03  0.23118350776E+03  0.00000000000E+00 0.  1.
         13   -1    0    0    0    0 -0.00000000000E+00 -0.00000000000E+00 -0.27500000000E+03  0.27500000000E+03  0.00000000000E+00 0.  1.
    9000005    2    1    2  501    0 -0.16487585841E+02 -0.25261240988E+02 -0.37038460305E+02  0.47526567310E+03  0.47285900827E+03 0.  0.
         13    1    3    3    0    0 -0.62643101063E+02 -0.74980120673E+02 -0.24114154519E+03  0.26018343803E+03  0.00000000000E+00 0.  1.
          3    1    3    3  501    0  0.46155515222E+02  0.49718879685E+02  0.20410308489E+03  0.21508223507E+03  0.00000000000E+00 0.  1.
         21    1    1    2  502  501  0.16487585841E+02  0.25261240988E+02 -0.67780319371E+01  0.30917834659E+02  0.00000000000E+00 0. -1.
<scales pt_clust_4="550.00000" pt_clust_5="550.00000" pt_clust_6="30.16574"></scales>
<mgrwt>
<rscale>  0 0.30000000E+03</rscale>
<asrwt>  1 0.30165737E+02</asrwt>
<pdfrwt beam="1">  1        1 0.84066730E+00 0.30000000E+03</pdfrwt>
<pdfrwt beam="2">0</pdfrwt>
<totfact> 0.50519932E-04</totfact>
</mgrwt>
<clustering>
<clus scale="   30.166">  1  6  2 -1</clus>
<clus scale="  472.859">  4  5 -1 -1</clus>
<clus scale="  300.000">  1  4  2 -1</clus>
</clustering>
</event>
<event>
 6    1  0.9687246E-012  0.3000000E+03  0.7818608E-02  0.1093470E+00
          1   -1    0    0  502    0  0.00000000000E+00  0.00000000000E+00  0.23343384652E+03  0.23343384652E+03  0.00000000000E+00 0.  1.
         13   -1    0    0    0    0 -0.00000000000E+00 -0.00000000000E+00 -0.27500000000E+03  0.27500000000E+03  0.00000000000E+00 0.  1.
    9000005    2    1    2  501    0  0.11446863170E+01  0.31276572367E+02 -0.73187989668E+02  0.46394255738E+03  0.45706310333E+03 0.  0.
         13    1    3    3    0    0 -0.18249117551E+03 -0.57194519210E+02  0.81671296999E+02  0.20795298247E+03  0.00000000000E+00 0.  1.
          3    1    3    3  501    0  0.18363586182E+03  0.88471091577E+02 -0.15485928667E+03  0.25598957490E+03  0.00000000000E+00 0.  1.
         21    1    1    2  502  501 -0.11446863170E+01 -0.31276572367E+02  0.31621836189E+02  0.44491289145E+02  0.00000000000E+00 0. -1.
<scales pt_clust_4="550.00000" pt_clust_5="550.00000" pt_clust_6="31.29751"></scales>
<mgrwt>
<rscale>  0 0.30000000E+03</rscale>
<asrwt>  1 0.31297512E+02</asrwt>
<pdfrwt beam="1">  1        1 0.84885035E+00 0.30000000E+03</pdfrwt>
<pdfrwt beam="2">0</pdfrwt>
<totfact> 0.42606066E-04</totfact>
</mgrwt>
<clustering>
<clus scale="   31.298">  1  6  2 -1</clus>
<clus scale="  457.063">  4  5 -1 -1</clus>
<clus scale="  300.000">  1  4  2 -1</clus>
</clustering>
</event>
<event>
 6    1  0.9687246E-012  0.3000000E+03  0.7818608E-02  0.1093470E+00
          1   -1    0    0  502    0  0.00000000000E+00  0.00000000000E+00  0.23076328217E+03  0.23076328217E+03  0.00000000000E+00 0.  1.
         13   -1    0    0    0    0 -0.00000000000E+00 -0.00000000000E+00 -0.27500000000E+03  0.27500000000E+03  0.00000000000E+00 0.  1.
    9000005    2    1    2  501    0  0.27151722001E+02  0.16739728109E+02 -0.63675104831E+02  0.46840976300E+03  0.46296409429E+03 0.  0.
         13    1    3    3    0    0 -0.12064285914E+03 -0.49943807701E+02 -0.21178724942E+03  0.24880297910E+03  0.00000000000E+00 0.  1.
          3    1    3    3  501    0  0.14779458114E+03  0.66683535810E+02  0.14811214459E+03  0.21960678391E+03  0.00000000000E+00 0.  1.
         21    1    1    2  502  501 -0.27151722001E+02 -0.16739728109E+02  0.19438386999E+02  0.37353519163E+02  0.00000000000E+00 0.  1.
<scales pt_clust_4="550.00000" pt_clust_5="550.00000" pt_clust_6="31.89725"></scales>
<mgrwt>
<rscale>  0 0.30000000E+03</rscale>
<asrwt>  1 0.31897249E+02</asrwt>
<pdfrwt beam="1">  1        1 0.83913921E+00 0.30000000E+03</pdfrwt>
<pdfrwt beam="2">0</pdfrwt>
<totfact> 0.51348023E-04</totfact>
</mgrwt>
<clustering>
<clus scale="   31.897">  1  6  2 -1</clus>
<clus scale="  462.964">  4  5 -1 -1</clus>
<clus scale="  300.000">  1  4  2 -1</clus>
</clustering>
</event>
<event>
 6    1  0.9687246E-012  0.3000000E+03  0.7818608E-02  0.1093470E+00
          1   -1    0    0  502    0  0.00000000000E+00  0.00000000000E+00  0.27075997757E+03  0.27075997757E+03  0.00000000000E+00 0.  1.
         13   -1    0    0    0    0 -0.00000000000E+00 -0.00000000000E+00 -0.27500000000E+03  0.27500000000E+03  0.00000000000E+00 0.  1.
    9000005    2    1    2  501    0 -0.19328796827E+02  0.33800002253E+02 -0.60521146306E+02  0.47732309100E+03  0.47186701676E+03 0.  0.
         13    1    3    3    0    0 -0.70809547870E+02  0.24530097269E+03 -0.21976999094E+02  0.25626070273E+03  0.00000000000E+00 0.  1.
          1    1    3    3  501    0  0.51480751043E+02 -0.21150097044E+03 -0.38544147211E+02  0.22106238827E+03  0.00000000000E+00 0.  1.
         21    1    1    2  502  501  0.19328796827E+02 -0.33800002253E+02  0.56281123875E+02  0.68436886572E+02  0.00000000000E+00 0.  1.
<scales pt_clust_4="550.00000" pt_clust_5="550.00000" pt_clust_6="38.93639"></scales>
<mgrwt>
<rscale>  0 0.30000000E+03</rscale>
<asrwt>  1 0.38936391E+02</asrwt>
<pdfrwt beam="1">  1        1 0.98458174E+00 0.30000000E+03</pdfrwt>
<pdfrwt beam="2">0</pdfrwt>
<totfact> 0.16610062E-06</totfact>
</mgrwt>
<clustering>
<clus scale="   38.936">  1  6  2 -1</clus>
<clus scale="  471.867">  4  5 -1 -1</clus>
<clus scale="  300.000">  1  4  2 -1</clus>
</clustering>
</event>
<event>
 6    1  0.9687246E-012  0.3000000E+03  0.7818608E-02  0.1093470E+00
          1   -1    0    0  502    0  0.00000000000E+00  0.00000000000E+00  0.24862394056E+03  0.24862394056E+03  0.00000000000E+00 0.  1.
         13   -1    0    0    0    0 -0.00000000000E+00 -0.00000000000E+00 -0.27500000000E+03  0.27500000000E+03  0.00000000000E+00 0.  1.
    9000005    2    1    2  501    0  0.25956454354E+02  0.22836835471E+02 -0.66209648757E+02  0.47087952460E+03  0.46491778899E+03 0.  0.
         13    1    3    3    0    0 -0.15772245516E+03 -0.14054693042E+03 -0.76897242027E+02  0.22481770024E+03  0.00000000000E+00 0.  1.
          1    1    3    3  501    0  0.18367890951E+03  0.16338376589E+03  0.10687593270E+02  0.24606182436E+03  0.00000000000E+00 0.  1.
         21    1    1    2  502  501 -0.25956454354E+02 -0.22836835471E+02  0.39833589318E+02  0.52744415960E+02  0.00000000000E+00 0.  1.
<scales pt_clust_4="550.00000" pt_clust_5="550.00000" pt_clust_6="34.57251"></scales>
<mgrwt>
<rscale>  0 0.30000000E+03</rscale>
<asrwt>  1 0.34572512E+02</asrwt>
<pdfrwt beam="1">  1        1 0.90408706E+00 0.30000000E+03</pdfrwt>
<pdfrwt beam="2">0</pdfrwt>
<totfact> 0.96305180E-05</totfact>
</mgrwt>
<clustering>
<clus scale="   34.573">  1  6  2 -1</clus>
<clus scale="  464.918">  4  5 -1 -1</clus>
<clus scale="  300.000">  1  4  2 -1</clus>
</clustering>
</event>
<event>
 6    1  0.9687246E-012  0.3000000E+03  0.7818608E-02  0.1093470E+00
          1   -1    0    0  502    0  0.00000000000E+00  0.00000000000E+00  0.23209091768E+03  0.23209091768E+03  0.00000000000E+00 0.  1.
         13   -1    0    0    0    0 -0.00000000000E+00 -0.00000000000E+00 -0.27500000000E+03  0.27500000000E+03  0.00000000000E+00 0.  1.
    9000005    2    1    2  501    0  0.33034065996E+02  0.12775793672E+02 -0.49648557166E+02  0.47103691733E+03  0.46707207992E+03 0.  0.
         13    1    3    3    0    0 -0.38295356810E+02  0.19313650609E+03  0.10484668094E+03  0.22307189613E+03  0.00000000000E+00 0.  1.
          1    1    3    3  501    0  0.71329422806E+02 -0.18036071242E+03 -0.15449523810E+03  0.24796502120E+03  0.00000000000E+00 0.  1.
         21    1    1    2  502  501 -0.33034065996E+02 -0.12775793672E+02  0.67394748461E+01  0.36054000352E+02  0.00000000000E+00 0. -1.
<scales pt_clust_4="550.00000" pt_clust_5="550.00000" pt_clust_6="35.41850"></scales>
<mgrwt>
<rscale>  0 0.30000000E+03</rscale>
<asrwt>  1 0.35418504E+02</asrwt>
<pdfrwt beam="1">  1        1 0.84396697E+00 0.30000000E+03</pdfrwt>
<pdfrwt beam="2">0</pdfrwt>
<totfact> 0.46020516E-04</totfact>
</mgrwt>
<clustering>
<clus scale="   35.419">  1  6  2 -1</clus>
<clus scale="  467.072">  4  5 -1 -1</clus>
<clus scale="  300.000">  1  4  2 -1</clus>
</clustering>
</event>
<event>
 6    1  0.9687246E-012  0.3000000E+03  0.7818608E-02  0.1093470E+00
          1   -1    0    0  502    0  0.00000000000E+00  0.00000000000E+00  0.22465606612E+03  0.22465606612E+03  0.00000000000E+00 0.  1.
         13   -1    0    0    0    0 -0.00000000000E+00 -0.00000000000E+00 -0.27500000000E+03  0.27500000000E+03  0.00000000000E+00 0.  1.
    9000005    2    1    2  501    0  0.21862403005E+02  0.26411794065E+02 -0.64043594401E+02  0.46273414540E+03  0.45699645492E+03 0.  0.
         13    1    3    3    0    0 -0.15824382680E+03  0.65129712722E+00  0.12403002746E+03  0.20105964443E+03  0.00000000000E+00 0.  1.
          1    1    3    3  501    0  0.18010622981E+03  0.25760496938E+02 -0.18807362186E+03  0.26167450097E+03  0.00000000000E+00 0.  1.
         21    1    1    2  502  501 -0.21862403005E+02 -0.26411794065E+02  0.13699660519E+02  0.36921920714E+02  0.00000000000E+00 0.  1.
<scales pt_clust_4="550.00000" pt_clust_5="550.00000" pt_clust_6="34.28626"></scales>
<mgrwt>
<rscale>  0 0.30000000E+03</rscale>
<asrwt>  1 0.34286259E+02</asrwt>
<pdfrwt beam="1">  1        1 0.81693115E+00 0.30000000E+03</pdfrwt>
<pdfrwt beam="2">0</pdfrwt>
<totfact> 0.77067069E-04</totfact>
</mgrwt>
<clustering>
<clus scale="   34.286">  1  6  2 -1</clus>
<clus scale="  456.996">  4  5 -1 -1</clus>
<clus scale="  300.000">  1  4  2 -1</clus>
</clustering>
</event>
<event>
 6    1  0.9687246E-012  0.3000000E+03  0.7818608E-02  0.1093470E+00
          1   -1    0    0  502    0  0.00000000000E+00  0.00000000000E+00  0.26110783860E+03  0.26110783860E+03  0.00000000000E+00 0.  1.
         13   -1    0    0    0    0 -0.00000000000E+00 -0.00000000000E+00 -0.27500000000E+03  0.27500000000E+03  0.00000000000E+00 0.  1.
    9000005    2    1    2  501    0  0.11381400792E+02 -0.46357243374E+02 -0.37236000790E+02  0.48297155030E+03  0.47916225680E+03 0.  0.
         13    1    3    3    0    0  0.29507782002E+02 -0.12989796497E+03  0.19462977611E+03  0.23584940163E+03  0.00000000000E+00 0.  1.
          3    1    3    3  501    0 -0.18126381210E+02  0.83540721594E+02 -0.23186577690E+03  0.24712214866E+03  0.00000000000E+00 0.  1.
         21    1    1    2  502  501 -0.11381400792E+02  0.46357243374E+02  0.23343839390E+02  0.53136288304E+02  0.00000000000E+00 0.  1.
<scales pt_clust_4="550.00000" pt_clust_5="550.00000" pt_clust_6="47.73395"></scales>
<mgrwt>
<rscale>  0 0.30000000E+03</rscale>
<asrwt>  1 0.47733953E+02</asrwt>
<pdfrwt beam="1">  1        1 0.94948305E+00 0.30000000E+03</pdfrwt>
<pdfrwt beam="2">0</pdfrwt>
<totfact> 0.11948688E-05</totfact>
</mgrwt>
<clustering>
<clus scale="   47.734">  1  6  2 -1</clus>
<clus scale="  479.162">  4  5 -1 -1</clus>
<clus scale="  300.000">  1  4  2 -1</clus>
</clustering>
</event>
<event>
 6    1  0.9687246E-012  0.3000000E+03  0.7818608E-02  0.1093470E+00
          1   -1    0    0  502    0  0.00000000000E+00  0.00000000000E+00  0.23588866791E+03  0.23588866791E+03  0.00000000000E+00 0.  1.
         13   -1    0    0    0    0 -0.00000000000E+00 -0.00000000000E+00 -0.27500000000E+03  0.27500000000E+03  0.00000000000E+00 0.  1.
    9000005    2    1    2  501    0  0.24870527292E+02 -0.34553341313E+02 -0.47611273121E+02  0.46747524232E+03  0.46309155934E+03 0.  0.
         13    1    3    3    0    0 -0.43230988955E+02  0.66621905156E+02 -0.23266533327E+03  0.24584660656E+03  0.00000000000E+00 0.  1.
          1    1    3    3  501    0  0.68101516247E+02 -0.10117524647E+03  0.18505406015E+03  0.22162863576E+03  0.00000000000E+00 0.  1.
         21    1    1    2  502  501 -0.24870527292E+02  0.34553341313E+02  0.84999410337E+01  0.43413425588E+02  0.00000000000E+00 0. -1.
<scales pt_clust_4="550.00000" pt_clust_5="550.00000" pt_clust_6="42.57319"></scales>
<mgrwt>
<rscale>  0 0.30000000E+03</rscale>
<asrwt>  1 0.42573190E+02</asrwt>
<pdfrwt beam="1">  1        1 0.85777697E+00 0.30000000E+03</pdfrwt>
<pdfrwt beam="2">0</pdfrwt>
<totfact> 0.32933471E-04</totfact>
</mgrwt>
<clustering>
<clus scale="   42.573">  1  6  2 -1</clus>
<clus scale="  463.092">  4  5 -1 -1</clus>
<clus scale="  300.000">  1  4  2 -1</clus>
</clustering>
</event>
<event>
 6    1  0.9687246E-012  0.3000000E+03  0.7818608E-02  0.1093470E+00
          1   -1    0    0  502    0  0.00000000000E+00  0.00000000000E+00  0.25027655949E+03  0.25027655949E+03  0.00000000000E+00 0.  1.
         13   -1    0    0    0    0 -0.00000000000E+00 -0.00000000000E+00 -0.27500000000E+03  0.27500000000E+03  0.00000000000E+00 0.  1.
    9000005    2    1    2  501    0  0.37568267920E+02  0.16685818435E+02 -0.60984506997E+01  0.48014695128E+03  0.47834518126E+03 0.  0.
         13    1    3    3    0    0 -0.67004969727E+02  0.21511698561E+03  0.81144565630E+02  0.23947739767E+03  0.00000000000E+00 0.  1.
          1    1    3    3  501    0  0.10457323765E+03 -0.19843116717E+03 -0.87243016330E+02  0.24066955361E+03  0.00000000000E+00 0.  1.
         21    1    1    2  502  501 -0.37568267920E+02 -0.16685818435E+02 -0.18624989813E+02  0.45129608207E+02  0.00000000000E+00 0.  1.
<scales pt_clust_4="550.00000" pt_clust_5="550.00000" pt_clust_6="41.10709"></scales>
<mgrwt>
<rscale>  0 0.30000000E+03</rscale>
<asrwt>  1 0.41107092E+02</asrwt>
<pdfrwt beam="1">  1        1 0.91009658E+00 0.30000000E+03</pdfrwt>
<pdfrwt beam="2">0</pdfrwt>
<totfact> 0.69383233E-05</totfact>
</mgrwt>
<clustering>
<clus scale="   41.107">  1  6  2 -1</clus>
<clus scale="  478.345">  4  5 -1 -1</clus>
<clus scale="  300.000">  1  4  2 -1</clus>
</clustering>
</event>
<event>
 6    1  0.9687246E-012  0.3000000E+03  0.7818608E-02  0.1093470E+00
          1   -1    0    0  502    0  0.00000000000E+00  0.00000000000E+00  0.24560313524E+03  0.24560313524E+03  0.00000000000E+00 0.  1.
         13   -1    0    0    0    0 -0.00000000000E+00 -0.00000000000E+00 -0.27500000000E+03  0.27500000000E+03  0.00000000000E+00 0.  1.
    9000005    2    1    2  501    0 -0.32854813125E+02  0.90360757213E+01 -0.47542389502E+02  0.48199809052E+03  0.47843577526E+03 0.  0.
         13    1    3    3    0    0 -0.17816490954E+02 -0.16884297532E+02  0.21568156574E+03  0.21707382305E+03  0.00000000000E+00 0.  1.
          3    1    3    3  501    0 -0.15038322171E+02  0.25920373253E+02 -0.26322395524E+03  0.26492426747E+03  0.00000000000E+00 0.  1.
         21    1    1    2  502  501  0.32854813125E+02 -0.90360757213E+01  0.18145524745E+02  0.38605044725E+02  0.00000000000E+00 0. -1.
<scales pt_clust_4="550.00000" pt_clust_5="550.00000" pt_clust_6="34.07476"></scales>
<mgrwt>
<rscale>  0 0.30000000E+03</rscale>
<asrwt>  1 0.34074762E+02</asrwt>
<pdfrwt beam="1">  1        1 0.89310231E+00 0.30000000E+03</pdfrwt>
<pdfrwt beam="2">0</pdfrwt>
<totfact> 0.13322522E-04</totfact>
</mgrwt>
<clustering>
<clus scale="   34.075">  1  6  2 -1</clus>
<clus scale="  478.436">  4  5 -1 -1</clus>
<clus scale="  300.000">  1  4  2 -1</clus>
</clustering>
</event>
<event>
 6    1  0.9687246E-012  0.3000000E+03  0.7818608E-02  0.1093470E+00
          1   -1    0    0  502    0  0.00000000000E+00  0.00000000000E+00  0.25771584959E+03  0.25771584959E+03  0.00000000000E+00 0.  1.
         13   -1    0    0    0    0 -0.00000000000E+00 -0.00000000000E+00 -0.27500000000E+03  0.27500000000E+03  0.00000000000E+00 0.  1.
    9000005    2    1    2  501    0 -0.48876102981E+02 -0.24975661952E+02 -0.41978119175E+02  0.47252906345E+03  0.46744935146E+03 0.  0.
         13    1    3    3    0    0 -0.39516790695E+02  0.13164202319E+03  0.16375772477E+03  0.21379380589E+03  0.00000000000E+00 0.  1.
          1    1    3    3  501    0 -0.93593122853E+01 -0.15661768514E+03 -0.20573584394E+03  0.25873525756E+03  0.00000000000E+00 0.  1.
         21    1    1    2  502  501  0.48876102981E+02  0.24975661952E+02  0.24693968763E+02  0.60186786139E+02  0.00000000000E+00 0.  1.
<scales pt_clust_4="550.00000" pt_clust_5="550.00000" pt_clust_6="54.88768"></scales>
<mgrwt>
<rscale>  0 0.30000000E+03</rscale>
<asrwt>  1 0.54887677E+02</asrwt>
<pdfrwt beam="1">  1        1 0.93714854E+00 0.30000000E+03</pdfrwt>
<pdfrwt beam="2">0</pdfrwt>
<totfact> 0.19527059E-05</totfact>
</mgrwt>
<clustering>
<clus scale="   54.888">  1  6  2 -1</clus>
<clus scale="  467.449">  4  5 -1 -1</clus>
<clus scale="  300.000">  1  4  2 -1</clus>
</clustering>
</event>
<event>
 6    1  0.9687246E-012  0.3000000E+03  0.7818608E-02  0.1093470E+00
          1   -1    0    0  502    0  0.00000000000E+00  0.00000000000E+00  0.25869798861E+03  0.25869798861E+03  0.00000000000E+00 0.  1.
         13   -1    0    0    0    0 -0.00000000000E+00 -0.00000000000E+00 -0.27500000000E+03  0.27500000000E+03  0.00000000000E+00 0.  1.
    9000005    2    1    2  501    0 -0.16086392377E+02  0.27947889136E+02 -0.44528721320E+02  0.49084237427E+03  0.48775359848E+03 0.  0.
         13    1    3    3    0    0 -0.51920162845E+01  0.11336747325E+03  0.20090415182E+03  0.23074145540E+03  0.00000000000E+00 0.  1.
          1    1    3    3  501    0 -0.10894376092E+02 -0.85419584114E+02 -0.24543287314E+03  0.26010091887E+03  0.00000000000E+00 0.  1.
         21    1    1    2  502  501  0.16086392377E+02 -0.27947889136E+02  0.28226709927E+02  0.42855614336E+02  0.00000000000E+00 0. -1.
<scales pt_clust_4="550.00000" pt_clust_5="550.00000" pt_clust_6="32.24681"></scales>
<mgrwt>
<rscale>  0 0.30000000E+03</rscale>
<asrwt>  1 0.32246806E+02</asrwt>
<pdfrwt beam="1">  1        1 0.94071996E+00 0.30000000E+03</pdfrwt>
<pdfrwt beam="2">0</pdfrwt>
<totfact> 0.18913170E-05</totfact>
</mgrwt>
<clustering>
<clus scale="   32.247">  1  6  2 -1</clus>
<clus scale="  487.754">  4  5 -1 -1</clus>
<clus scale="  300.000">  1  4  2 -1</clus>
</clustering>
</event>
<event>
 6    1  0.9687246E-012  0.3000000E+03  0.7818608E-02  0.1093470E+00
          1   -1    0    0  502    0  0.00000000000E+00  0.00000000000E+00  0.23641261336E+03  0.23641261336E+03  0.00000000000E+00 0.  1.
         13   -1    0    0    0    0 -0.00000000000E+00 -0.00000000000E+00 -0.27500000000E+03  0.27500000000E+03  0.00000000000E+00 0.  1.
    9000005    2    1    2  501    0  0.21114181666E+02  0.21996480804E+02 -0.18207952187E+02  0.47473871005E+03  0.47340855448E+03 0.  0.
         13    1    3    3    0    0 -0.75981557478E+02 -0.20955674309E+03 -0.18249424582E+02  0.22365211188E+03  0.00000000000E+00 0.  1.
          3    1    3    3  501    0  0.97095739145E+02  0.23155322390E+03  0.41472394701E-01  0.25108659816E+03  0.00000000000E+00 0.  1.
         21    1    1    2  502  501 -0.21114181666E+02 -0.21996480804E+02 -0.20379434456E+02  0.36673903309E+02  0.00000000000E+00 0.  1.
<scales pt_clust_4="550.00000" pt_clust_5="550.00000" pt_clust_6="30.49024"></scales>
<mgrwt>
<rscale>  0 0.30000000E+03</rscale>
<asrwt>  1 0.30490240E+02</asrwt>
<pdfrwt beam="1">  1        1 0.85968223E+00 0.30000000E+03</pdfrwt>
<pdfrwt beam="2">0</pdfrwt>
<totfact> 0.33462758E-04</totfact>
</mgrwt>
<clustering>
<clus scale="   30.490">  1  6  2 -1</clus>
<clus scale="  473.409">  4  5 -1 -1</clus>
<clus scale="  300.000">  1  4  2 -1</clus>
</clustering>
</event>
<event>
 6    1  0.9687246E-012  0.3000000E+03  0.7818608E-02  0.1093470E+00
          1   -1    0    0  502    0  0.00000000000E+00  0.00000000000E+00  0.23272361204E+03  0.23272361204E+03  0.00000000000E+00 0.  1.
         13   -1    0    0    0    0 -0.00000000000E+00 -0.00000000000E+00 -0.27500000000E+03  0.27500000000E+03  0.00000000000E+00 0.  1.
    9000005    2    1    2  501    0  0.81319858152E+01 -0.29896973534E+02 -0.62276688263E+02  0.47084583781E+03  0.46567956672E+03 0.  0.
         13    1    3    3    0    0  0.85332799351E+01 -0.19129326832E+03  0.12109648727E+03  0.22656189132E+03  0.00000000000E+00 0.  1.
          1    1    3    3  501    0 -0.40129411993E+00  0.16139629478E+03 -0.18337317554E+03  0.24428394649E+03  0.00000000000E+00 0.  1.
         21    1    1    2  502  501 -0.81319858152E+01  0.29896973534E+02  0.20000300305E+02  0.36877774228E+02  0.00000000000E+00 0. -1.
<scales pt_clust_4="550.00000" pt_clust_5="550.00000" pt_clust_6="30.98319"></scales>
<mgrwt>
<rscale>  0 0.30000000E+03</rscale>
<asrwt>  1 0.30983193E+02</asrwt>
<pdfrwt beam="1">  1        1 0.84626768E+00 0.30000000E+03</pdfrwt>
<pdfrwt beam="2">0</pdfrwt>
<totfact> 0.45059998E-04</totfact>
</mgrwt>
<clustering>
<clus scale="   30.983">  1  6  2 -1</clus>
<clus scale="  465.680">  4  5 -1 -1</clus>
<clus scale="  300.000">  1  4  2 -1</clus>
</clustering>
</event>
<event>
 6    1  0.9687246E-012  0.3000000E+03  0.7818608E-02  0.1093470E+00
          1   -1    0    0  502    0  0.00000000000E+00  0.00000000000E+00  0.22469755728E+03  0.22469755728E+03  0.00000000000E+00 0.  1.
         13   -1    0    0    0    0 -0.00000000000E+00 -0.00000000000E+00 -0.27500000000E+03  0.27500000000E+03  0.00000000000E+00 0.  1.
    9000005    2    1    2  501    0  0.29011839787E+02  0.18549739710E+02 -0.60658977459E+02  0.46373872661E+03  0.45846299232E+03 0.  0.
         13    1    3    3    0    0 -0.19477163606E+03  0.47166138100E+02 -0.11585367988E+03  0.23147939420E+03  0.00000000000E+00 0.  1.
          1    1    3    3  501    0  0.22378347585E+03 -0.28616398390E+02  0.55194702424E+02  0.23225933242E+03  0.00000000000E+00 0.  1.
         21    1    1    2  502  501 -0.29011839787E+02 -0.18549739710E+02  0.10356534742E+02  0.35958830668E+02  0.00000000000E+00 0.  1.
<scales pt_clust_4="550.00000" pt_clust_5="550.00000" pt_clust_6="34.43515"></scales>
<mgrwt>
<rscale>  0 0.30000000E+03</rscale>
<asrwt>  1 0.34435152E+02</asrwt>
<pdfrwt beam="1">  1        1 0.81708203E+00 0.30000000E+03</pdfrwt>
<pdfrwt beam="2">0</pdfrwt>
<totfact> 0.76784518E-04</totfact>
</mgrwt>
<clustering>
<clus scale="   34.435">  1  6  2 -1</clus>
<clus scale="  458.463">  4  5 -1 -1</clus>
<clus scale="  300.000">  1  4  2 -1</clus>
</clustering>
</event>
<event>
 6    1  0.9687246E-012  0.3000000E+03  0.7818608E-02  0.1093470E+00
          1   -1    0    0  502    0  0.00000000000E+00  0.00000000000E+00  0.24871689661E+03  0.24871689661E+03  0.00000000000E+00 0.  1.
         13   -1    0    0    0    0 -0.00000000000E+00 -0.00000000000E+00 -0.27500000000E+03  0.27500000000E+03  0.00000000000E+00 0.  1.
    9000005    2    1    2  501    0  0.10554857794E+02  0.35334399859E+02 -0.63431775761E+02  0.47137237736E+03  0.46562689262E+03 0.  0.
         13    1    3    3    0    0  0.40011658292E+02  0.23845223818E+03 -0.10220390113E+03  0.26249960019E+03  0.00000000000E+00 0.  1.
          1    1    3    3  501    0 -0.29456800498E+02 -0.20311783832E+03  0.38772125371E+02  0.20887277717E+03  0.00000000000E+00 0.  1.
         21    1    1    2  502  501 -0.10554857794E+02 -0.35334399859E+02  0.37148672371E+02  0.52344519249E+02  0.00000000000E+00 0.  1.
<scales pt_clust_4="550.00000" pt_clust_5="550.00000" pt_clust_6="36.87716"></scales>
<mgrwt>
<rscale>  0 0.30000000E+03</rscale>
<asrwt>  1 0.36877159E+02</asrwt>
<pdfrwt beam="1">  1        1 0.90442508E+00 0.30000000E+03</pdfrwt>
<pdfrwt beam="2">0</pdfrwt>
<totfact> 0.93840499E-05</totfact>
</mgrwt>
<clustering>
<clus scale="   36.877">  1  6  2 -1</clus>
<clus scale="  465.627">  4  5 -1 -1</clus>
<clus scale="  300.000">  1  4  2 -1</clus>
</clustering>
</event>
<event>
 6    1  0.9687246E-012  0.3000000E+03  0.7818608E-02  0.1093470E+00
          1   -1    0    0  502    0  0.00000000000E+00  0.00000000000E+00  0.24141836616E+03  0.24141836616E+03  0.00000000000E+00 0.  1.
         13   -1    0    0    0    0 -0.00000000000E+00 -0.00000000000E+00 -0.27500000000E+03  0.27500000000E+03  0.00000000000E+00 0.  1.
    9000005    2    1    2  501    0 -0.41662802089E+02  0.72032468637E+01 -0.48222090535E+02  0.47167444126E+03  0.46729405376E+03 0.  0.
         13    1    3    3    0    0 -0.23009331060E+03 -0.89813018421E+02 -0.74793009169E+02  0.25807615946E+03  0.00000000000E+00 0.  1.
          1    1    3    3  501    0  0.18843050851E+03  0.97016265285E+02  0.26570918634E+02  0.21359828179E+03  0.00000000000E+00 0.  1.
         21    1    1    2  502  501  0.41662802089E+02 -0.72032468637E+01  0.14640456691E+02  0.44743924899E+02  0.00000000000E+00 0.  1.
<scales pt_clust_4="550.00000" pt_clust_5="550.00000" pt_clust_6="42.28092"></scales>
<mgrwt>
<rscale>  0 0.30000000E+03</rscale>
<asrwt>  1 0.42280916E+02</asrwt>
<pdfrwt beam="1">  1        1 0.87788497E+00 0.30000000E+03</pdfrwt>
<pdfrwt beam="2">0</pdfrwt>
<totfact> 0.20199475E-04</totfact>
</mgrwt>
<clustering>
<clus scale="   42.281">  1  6  2 -1</clus>
<clus scale="  467.294">  4  5 -1 -1</clus>
<clus scale="  300.000">  1  4  2 -1</clus>
</clustering>
</event>
<event>
 6    1  0.9687246E-012  0.3000000E+03  0.7818608E-02  0.1093470E+00
          1   -1    0    0  502    0  0.00000000000E+00  0.00000000000E+00  0.23812199118E+03  0.23812199118E+03  0.00000000000E+00 0.  1.
         13   -1    0    0    0    0 -0.00000000000E+00 -0.00000000000E+00 -0.27500000000E+03  0.27500000000E+03  0.00000000000E+00 0.  1.
    9000005    2    1    2  501    0  0.38580799735E+02 -0.14243593129E+02 -0.61117733960E+02  0.46538393164E+03  0.45951655941E+03 0.  0.
         13    1    3    3    0    0 -0.40594753060E+02  0.11143038314E+03  0.15990742567E+03  0.19908553199E+03  0.00000000000E+00 0.  1.
          3    1    3    3  501    0  0.79175552795E+02 -0.12567397627E+03 -0.22102515963E+03  0.26629839966E+03  0.00000000000E+00 0.  1.
         21    1    1    2  502  501 -0.38580799735E+02  0.14243593129E+02  0.24239725140E+02  0.47738059536E+02  0.00000000000E+00 0.  1.
<scales pt_clust_4="550.00000" pt_clust_5="550.00000" pt_clust_6="41.12612"></scales>
<mgrwt>
<rscale>  0 0.30000000E+03</rscale>
<asrwt>  1 0.41126124E+02</asrwt>
<pdfrwt beam="1">  1        1 0.86589815E+00 0.30000000E+03</pdfrwt>
<pdfrwt beam="2">0</pdfrwt>
<totfact> 0.27125194E-04</totfact>
</mgrwt>
<clustering>
<clus scale="   41.126">  1  6  2 -1</clus>
<clus scale="  459.517">  4  5 -1 -1</clus>
<clus scale="  300.000">  1  4  2 -1</clus>
</clustering>
</event>
<event>
 6    1  0.9687246E-012  0.3000000E+03  0.7818608E-02  0.1093470E+00
          1   -1    0    0  502    0  0.00000000000E+00  0.00000000000E+00  0.25299013567E+03  0.25299013567E+03  0.00000000000E+00 0.  1.
         13   -1    0    0    0    0 -0.00000000000E+00 -0.00000000000E+00 -0.27500000000E+03  0.27500000000E+03  0.00000000000E+00 0.  1.
    9000005    2    1    2  501    0  0.26899939791E+02 -0.30000806503E+02 -0.50069135961E+02  0.47888842617E+03  0.47455616231E+03 0.  0.
         13    1    3    3    0    0 -0.19784493330E+03  0.79169152512E+02 -0.79200762756E+02  0.22733924686E+03  0.00000000000E+00 0.  1.
          1    1    3    3  501    0  0.22474487309E+03 -0.10916995902E+03  0.29131626795E+02  0.25154917931E+03  0.00000000000E+00 0.  1.
         21    1    1    2  502  501 -0.26899939791E+02  0.30000806503E+02  0.28059271631E+02  0.49101709502E+02  0.00000000000E+00 0. -1.
<scales pt_clust_4="550.00000" pt_clust_5="550.00000" pt_clust_6="40.29460"></scales>
<mgrwt>
<rscale>  0 0.30000000E+03</rscale>
<asrwt>  1 0.40294604E+02</asrwt>
<pdfrwt beam="1">  1        1 0.91996413E+00 0.30000000E+03</pdfrwt>
<pdfrwt beam="2">0</pdfrwt>
<totfact> 0.40800121E-05</totfact>
</mgrwt>
<clustering>
<clus scale="   40.295">  1  6  2 -1</clus>
<clus scale="  474.556">  4  5 -1 -1</clus>
<clus scale="  300.000">  1  4  2 -1</clus>
</clustering>
</event>
<event>
 6    1  0.9687246E-012  0.3000000E+03  0.7818608E-02  0.1093470E+00
          1   -1    0    0  502    0  0.00000000000E+00  0.00000000000E+00  0.25321421104E+03  0.25321421104E+03  0.00000000000E+00 0.  1.
         13   -1    0    0    0    0 -0.00000000000E+00 -0.00000000000E+00 -0.27500000000E+03  0.27500000000E+03  0.00000000000E+00 0.  1.
    9000005    2    1    2  501    0  0.10596798358E+02  0.29188323989E+02 -0.57452211879E+02  0.48092421086E+03  0.47646940044E+03 0.  0.
         13    1    3    3    0    0  0.34862935689E+02  0.23025401068E+03  0.68110137055E+02  0.24263413710E+03  0.00000000000E+00 0.  1.
          1    1    3    3  501    0 -0.24266137331E+02 -0.20106568669E+03 -0.12556234893E+03  0.23829007376E+03  0.00000000000E+00 0.  1.
         21    1    1    2  502  501 -0.10596798358E+02 -0.29188323989E+02  0.35666422919E+02  0.47290000175E+02  0.00000000000E+00 0.  1.
<scales pt_clust_4="550.00000" pt_clust_5="550.00000" pt_clust_6="31.05238"></scales>
<mgrwt>
<rscale>  0 0.30000000E+03</rscale>
<asrwt>  1 0.31052381E+02</asrwt>
<pdfrwt beam="1">  1        1 0.92077895E+00 0.30000000E+03</pdfrwt>
<pdfrwt beam="2">0</pdfrwt>
<totfact> 0.41132928E-05</totfact>
</mgrwt>
<clustering>
<clus scale="   31.052">  1  6  2 -1</clus>
<clus scale="  476.469">  4  5 -1 -1</clus>
<clus scale="  300.000">  1  4  2 -1</clus>
</clustering>
</event>
<event>
 6    1  0.9687246E-012  0.3000000E+03  0.7818608E-02  0.1093470E+00
          1   -1    0    0  502    0  0.00000000000E+00  0.00000000000E+00  0.22616496467E+03  0.22616496467E+03  0.00000000000E+00 0.  1.
         13   -1    0    0    0    0 -0.00000000000E+00 -0.00000000000E+00 -0.27500000000E+03  0.27500000000E+03  0.00000000000E+00 0.  1.
    9000005    2    1    2  501    0  0.66680146390E+01 -0.29953824178E+02 -0.52236125344E+02  0.47029003285E+03  0.46637153451E+03 0.  0.
         13    1    3    3    0    0 -0.22202270097E+03 -0.74858874237E+02 -0.24054458358E+02  0.23553459993E+03  0.00000000000E+00 0.  1.
          1    1    3    3  501    0  0.22869071561E+03  0.44905050059E+02 -0.28181666986E+02  0.23475543291E+03  0.00000000000E+00 0.  1.
         21    1    1    2  502  501 -0.66680146390E+01  0.29953824178E+02  0.34010900183E+01  0.30874931828E+02  0.00000000000E+00 0.  1.
<scales pt_clust_4="550.00000" pt_clust_5="550.00000" pt_clust_6="30.68703"></scales>
<mgrwt>
<rscale>  0 0.30000000E+03</rscale>
<asrwt>  1 0.30687033E+02</asrwt>
<pdfrwt beam="1">  1        1 0.82241805E+00 0.30000000E+03</pdfrwt>
<pdfrwt beam="2">0</pdfrwt>
<totfact> 0.70612881E-04</totfact>
</mgrwt>
<clustering>
<clus scale="   30.687">  1  6  2 -1</clus>
<clus scale="  466.372">  4  5 -1 -1</clus>
<clus scale="  300.000">  1  4  2 -1</clus>
</clustering>
</event>
<event>
 6    1  0.9687246E-012  0.3000000E+03  0.7818608E-02  0.1093470E+00
          1   -1    0    0  502    0  0.00000000000E+00  0.00000000000E+00  0.25995043197E+03  0.25995043197E+03  0.00000000000E+00 0.  1.
         13   -1    0    0    0    0 -0.00000000000E+00 -0.00000000000E+00 -0.27500000000E+03  0.27500000000E+03  0.00000000000E+00 0.  1.
    9000005    2    1    2  501    0 -0.27512358108E+02 -0.12632043643E+02 -0.34408015302E+02  0.49901649458E+03  0.49690748835E+03 0.  0.
         13    1    3    3    0    0 -0.67975860255E+02 -0.86747412456E+02 -0.24688971968E+03  0.27037079138E+03  0.00000000000E+00 0.  1.
          1    1    3    3  501    0  0.40463502147E+02  0.74115368813E+02  0.21248170438E+03  0.22864570321E+03  0.00000000000E+00 0.  1.
         21    1    1    2  502  501  0.27512358108E+02  0.12632043643E+02  0.19358447270E+02  0.35933937385E+02  0.00000000000E+00 0. -1.
<scales pt_clust_4="550.00000" pt_clust_5="550.00000" pt_clust_6="30.27372"></scales>
<mgrwt>
<rscale>  0 0.30000000E+03</rscale>
<asrwt>  1 0.30273724E+02</asrwt>
<pdfrwt beam="1">  1        1 0.94527430E+00 0.30000000E+03</pdfrwt>
<pdfrwt beam="2">0</pdfrwt>
<totfact> 0.15787263E-05</totfact>
</mgrwt>
<clustering>
<clus scale="   30.274">  1  6  2 -1</clus>
<clus scale="  496.907">  4  5 -1 -1</clus>
<clus scale="  300.000">  1  4  2 -1</clus>
</clustering>
</event>
<event>
 6    1  0.9687246E-012  0.3000000E+03  0.7818608E-02  0.1093470E+00
          1   -1    0    0  502    0  0.00000000000E+00  0.00000000000E+00  0.23588248876E+03  0.23588248876E+03  0.00000000000E+00 0.  1.
         13   -1    0    0    0    0 -0.00000000000E+00 -0.00000000000E+00 -0.27500000000E+03  0.27500000000E+03  0.00000000000E+00 0.  1.
    9000005    2    1    2  501    0  0.25704793247E+02 -0.18034708930E+02 -0.55268695117E+02  0.47557175579E+03  0.47130444420E+03 0.  0.
         13    1    3    3    0    0 -0.15871455421E+02  0.22302448048E+03 -0.57806505519E+02  0.23094028248E+03  0.00000000000E+00 0.  1.
          3    1    3    3  501    0  0.41576248669E+02 -0.24105918941E+03  0.25378104021E+01  0.24463147331E+03  0.00000000000E+00 0.  1.
         21    1    1    2  502  501 -0.25704793247E+02  0.18034708930E+02  0.16151183881E+02  0.35310732970E+02  0.00000000000E+00 0.  1.
<scales pt_clust_4="550.00000" pt_clust_5="550.00000" pt_clust_6="31.40043"></scales>
<mgrwt>
<rscale>  0 0.30000000E+03</rscale>
<asrwt>  1 0.31400432E+02</asrwt>
<pdfrwt beam="1">  1        1 0.85775450E+00 0.30000000E+03</pdfrwt>
<pdfrwt beam="2">0</pdfrwt>
<totfact> 0.34865993E-04</totfact>
</mgrwt>
<clustering>
<clus scale="   31.400">  1  6  2 -1</clus>
<clus scale="  471.304">  4  5 -1 -1</clus>
<clus scale="  300.000">  1  4  2 -1</clus>
</clustering>
</event>
<event>
 6    1  0.9687246E-012  0.3000000E+03  0.7818608E-02  0.1093470E+00
          1   -1    0    0  502    0  0.00000000000E+00  0.00000000000E+00  0.22001018076E+03  0.22001018076E+03  0.00000000000E+00 0.  1.
         13   -1    0    0    0    0 -0.00000000000E+00 -0.00000000000E+00 -0.27500000000E+03  0.27500000000E+03  0.00000000000E+00 0.  1.
    9000005    2    1    2  501    0 -0.12866236720E+02  0.27528370767E+02 -0.58282753999E+02  0.46444558255E+03  0.45977110445E+03 0.  0.
         13    1    3    3    0    0 -0.14676070594E+03 -0.15811909234E+03 -0.89251431181E+02  0.23346556521E+03  0.00000000000E+00 0.  1.
          1    1    3    3  501    0  0.13389446922E+03  0.18564746311E+03  0.30968677182E+02  0.23098001734E+03  0.00000000000E+00 0.  1.
         21    1    1    2  502  501  0.12866236720E+02 -0.27528370767E+02  0.32929347563E+01  0.30564598210E+02  0.00000000000E+00 0.  1.
<scales pt_clust_4="550.00000" pt_clust_5="550.00000" pt_clust_6="30.38670"></scales>
<mgrwt>
<rscale>  0 0.30000000E+03</rscale>
<asrwt>  1 0.30386695E+02</asrwt>
<pdfrwt beam="1">  1        1 0.80003702E+00 0.30000000E+03</pdfrwt>
<pdfrwt beam="2">0</pdfrwt>
<totfact> 0.10645268E-03</totfact>
</mgrwt>
<clustering>
<clus scale="   30.387">  1  6  2 -1</clus>
<clus scale="  459.771">  4  5 -1 -1</clus>
<clus scale="  300.000">  1  4  2 -1</clus>
</clustering>
</event>
<event>
 6    1  0.9687246E-012  0.3000000E+03  0.7818608E-02  0.1093470E+00
          1   -1    0    0  502    0  0.00000000000E+00  0.00000000000E+00  0.22851600076E+03  0.22851600076E+03  0.00000000000E+00 0.  1.
         13   -1    0    0    0    0 -0.00000000000E+00 -0.00000000000E+00 -0.27500000000E+03  0.27500000000E+03  0.00000000000E+00 0.  1.
    9000005    2    1    2  501    0 -0.16483935080E+02 -0.31721539434E+02 -0.23443816676E+02  0.46098570342E+03  0.45899916126E+03 0.  0.
         13    1    3    3    0    0 -0.50428054906E+02  0.20695720483E+03  0.26902120973E+02  0.21470444212E+03  0.00000000000E+00 0.  1.
          3    1    3    3  501    0  0.33944119826E+02 -0.23867874426E+03 -0.50345937649E+02  0.24628126131E+03  0.00000000000E+00 0.  1.
         21    1    1    2  502  501  0.16483935080E+02  0.31721539434E+02 -0.23040182560E+02  0.42530297344E+02  0.00000000000E+00 0. -1.
<scales pt_clust_4="550.00000" pt_clust_5="550.00000" pt_clust_6="35.74881"></scales>
<mgrwt>
<rscale>  0 0.30000000E+03</rscale>
<asrwt>  1 0.35748811E+02</asrwt>
<pdfrwt beam="1">  1        1 0.83096728E+00 0.30000000E+03</pdfrwt>
<pdfrwt beam="2">0</pdfrwt>
<totfact> 0.57813797E-04</totfact>
</mgrwt>
<clustering>
<clus scale="   35.749">  1  6  2 -1</clus>
<clus scale="  458.999">  4  5 -1 -1</clus>
<clus scale="  300.000">  1  4  2 -1</clus>
</clustering>
</event>
<event>
 6    1  0.9687246E-012  0.3000000E+03  0.7818608E-02  0.1093470E+00
          1   -1    0    0  502    0  0.00000000000E+00  0.00000000000E+00  0.24461305852E+03  0.24461305852E+03  0.00000000000E+00 0.  1.
         13   -1    0    0    0    0 -0.00000000000E+00 -0.00000000000E+00 -0.27500000000E+03  0.27500000000E+03  0.00000000000E+00 0.  1.
    9000005    2    1    2  501    0  0.28445694373E+02  0.11785249631E+02 -0.65123688321E+02  0.47319440690E+03  0.46767916599E+03 0.  0.
         13    1    3    3    0    0 -0.90976783831E+02  0.11414430309E+03 -0.21239988001E+03  0.25771962702E+03  0.00000000000E+00 0.  1.
          3    1    3    3  501    0  0.11942247820E+03 -0.10235905345E+03  0.14727619169E+03  0.21547477988E+03  0.00000000000E+00 0.  1.
         21    1    1    2  502  501 -0.28445694373E+02 -0.11785249631E+02  0.34736746838E+02  0.46418651619E+02  0.00000000000E+00 0. -1.
<scales pt_clust_4="550.00000" pt_clust_5="550.00000" pt_clust_6="30.79041"></scales>
<mgrwt>
<rscale>  0 0.30000000E+03</rscale>
<asrwt>  1 0.30790415E+02</asrwt>
<pdfrwt beam="1">  1        1 0.88950203E+00 0.30000000E+03</pdfrwt>
<pdfrwt beam="2">0</pdfrwt>
<totfact> 0.15081118E-04</totfact>
</mgrwt>
<clustering>
<clus scale="   30.790">  1  6  2 -1</clus>
<clus scale="  467.679">  4  5 -1 -1</clus>
<clus scale="  300.000">  1  4  2 -1</clus>
</clustering>
</event>
<event>
 6    1  0.9687246E-012  0.3000000E+03  0.7818608E-02  0.1093470E+00
          1   -1    0    0  502    0  0.00000000000E+00  0.00000000000E+00  0.22815290434E+03  0.22815290434E+03  0.00000000000E+00 0.  1.
         13   -1    0    0    0    0 -0.00000000000E+00 -0.00000000000E+00 -0.27500000000E+03  0.27500000000E+03  0.00000000000E+00 0.  1.
    9000005    2    1    2  501    0  0.39909323426E+02  0.36342019713E+01 -0.58244250380E+02  0.46148929124E+03  0.45604167760E+03 0.  0.
         13    1    3    3    0    0  0.24570722842E+02 -0.19758834641E+03  0.82422470816E+02  0.21549556551E+03  0.00000000000E+00 0.  1.
          3    1    3    3  501    0  0.15338600585E+02  0.20122254839E+03 -0.14066672120E+03  0.24599372573E+03  0.00000000000E+00 0.  1.
         21    1    1    2  502  501 -0.39909323426E+02 -0.36342019713E+01  0.11397154716E+02  0.41663613093E+02  0.00000000000E+00 0. -1.
<scales pt_clust_4="550.00000" pt_clust_5="550.00000" pt_clust_6="40.07445"></scales>
<mgrwt>
<rscale>  0 0.30000000E+03</rscale>
<asrwt>  1 0.40074450E+02</asrwt>
<pdfrwt beam="1">  1        1 0.82964692E+00 0.30000000E+03</pdfrwt>
<pdfrwt beam="2">0</pdfrwt>
<totfact> 0.58031678E-04</totfact>
</mgrwt>
<clustering>
<clus scale="   40.074">  1  6  2 -1</clus>
<clus scale="  456.042">  4  5 -1 -1</clus>
<clus scale="  300.000">  1  4  2 -1</clus>
</clustering>
</event>
<event>
 6    1  0.9687246E-012  0.3000000E+03  0.7818608E-02  0.1093470E+00
          1   -1    0    0  502    0  0.00000000000E+00  0.00000000000E+00  0.24235165796E+03  0.24235165796E+03  0.00000000000E+00 0.  1.
         13   -1    0    0    0    0 -0.00000000000E+00 -0.00000000000E+00 -0.27500000000E+03  0.27500000000E+03  0.00000000000E+00 0.  1.
    9000005    2    1    2  501    0  0.10650067166E+02 -0.44660503714E+02 -0.24153084240E+02  0.47065953948E+03  0.46779166956E+03 0.  0.
         13    1    3    3    0    0 -0.22269430082E+03 -0.67224923513E+02  0.14456951234E+02  0.23306854228E+03  0.00000000000E+00 0.  1.
          3    1    3    3  501    0  0.23334436799E+03  0.22564419799E+02 -0.38610035474E+02  0.23759099721E+03  0.00000000000E+00 0.  1.
         21    1    1    2  502  501 -0.10650067166E+02  0.44660503714E+02 -0.84952578002E+01  0.46692118475E+02  0.00000000000E+00 0. -1.
<scales pt_clust_4="550.00000" pt_clust_5="550.00000" pt_clust_6="45.91282"></scales>
<mgrwt>
<rscale>  0 0.30000000E+03</rscale>
<asrwt>  1 0.45912816E+02</asrwt>
<pdfrwt beam="1">  1        1 0.88127876E+00 0.30000000E+03</pdfrwt>
<pdfrwt beam="2">0</pdfrwt>
<totfact> 0.18101995E-04</totfact>
</mgrwt>
<clustering>
<clus scale="   45.913">  1  6  2 -1</clus>
<clus scale="  467.792">  4  5 -1 -1</clus>
<clus scale="  300.000">  1  4  2 -1</clus>
</clustering>
</event>
<event>
 6    1  0.9687246E-012  0.3000000E+03  0.7818608E-02  0.1093470E+00
          1   -1    0    0  502    0  0.00000000000E+00  0.00000000000E+00  0.22729355953E+03  0.22729355953E+03  0.00000000000E+00 0.  1.
         13   -1    0    0    0    0 -0.00000000000E+00 -0.00000000000E+00 -0.27500000000E+03  0.27500000000E+03  0.00000000000E+00 0.  1.
    9000005    2    1    2  501    0  0.24493260661E+02 -0.31365240247E+02 -0.39348733254E+02  0.46162970109E+03  0.45822479201E+03 0.  0.
         13    1    3    3    0    0 -0.32662192042E+02 -0.93847024395E+02 -0.23134815109E+03  0.25178572197E+03  0.00000000000E+00 0.  1.
          3    1    3    3  501    0  0.57155452703E+02  0.62481784148E+02  0.19199941784E+03  0.20984397912E+03  0.00000000000E+00 0.  1.
         21    1    1    2  502  501 -0.24493260661E+02  0.31365240247E+02 -0.83577072111E+01  0.40663858442E+02  0.00000000000E+00 0.  1.
<scales pt_clust_4="550.00000" pt_clust_5="550.00000" pt_clust_6="39.79572"></scales>
<mgrwt>
<rscale>  0 0.30000000E+03</rscale>
<asrwt>  1 0.39795725E+02</asrwt>
<pdfrwt beam="1">  1        1 0.82652203E+00 0.30000000E+03</pdfrwt>
<pdfrwt beam="2">0</pdfrwt>
<totfact> 0.61828545E-04</totfact>
</mgrwt>
<clustering>
<clus scale="   39.796">  1  6  2 -1</clus>
<clus scale="  458.225">  4  5 -1 -1</clus>
<clus scale="  300.000">  1  4  2 -1</clus>
</clustering>
</event>
<event>
 6    1  0.9687246E-012  0.3000000E+03  0.7818608E-02  0.1093470E+00
          1   -1    0    0  502    0  0.00000000000E+00  0.00000000000E+00  0.26290662186E+03  0.26290662186E+03  0.00000000000E+00 0.  1.
         13   -1    0    0    0    0 -0.00000000000E+00 -0.00000000000E+00 -0.27500000000E+03  0.27500000000E+03  0.00000000000E+00 0.  1.
    9000005    2    1    2  501    0 -0.37627289838E+02  0.34900380861E+02 -0.47934197148E+02  0.47530938684E+03  0.47009305083E+03 0.  0.
         13    1    3    3    0    0  0.19424052703E+03  0.62263413063E+01  0.78573484823E+02  0.20962333406E+03  0.00000000000E+00 0.  1.
          1    1    3    3  501    0 -0.23186781687E+03  0.28674039555E+02 -0.12650768197E+03  0.26568605278E+03  0.00000000000E+00 0.  1.
         21    1    1    2  502  501  0.37627289838E+02 -0.34900380861E+02  0.35840819010E+02  0.62597235020E+02  0.00000000000E+00 0. -1.
<scales pt_clust_4="550.00000" pt_clust_5="550.00000" pt_clust_6="51.32104"></scales>
<mgrwt>
<rscale>  0 0.30000000E+03</rscale>
<asrwt>  1 0.51321044E+02</asrwt>
<pdfrwt beam="1">  1        1 0.95602408E+00 0.30000000E+03</pdfrwt>
<pdfrwt beam="2">0</pdfrwt>
<totfact> 0.86161299E-06</totfact>
</mgrwt>
<clustering>
<clus scale="   51.321">  1  6  2 -1</clus>
<clus scale="  470.093">  4  5 -1 -1</clus>
<clus scale="  300.000">  1  4  2 -1</clus>
</clustering>
</event>
<event>
 6    1  0.9687246E-012  0.3000000E+03  0.7818608E-02  0.1093470E+00
          1   -1    0    0  502    0  0.00000000000E+00  0.00000000000E+00  0.25422852763E+03  0.25422852763E+03  0.00000000000E+00 0.  1.
         13   -1    0    0    0    0 -0.00000000000E+00 -0.00000000000E+00 -0.27500000000E+03  0.27500000000E+03  0.00000000000E+00 0.  1.
    9000005    2    1    2  501    0  0.21482653542E+02 -0.26437723527E+02 -0.43298075826E+02  0.48838852896E+03  0.48527123778E+03 0.  0.
         13    1    3    3    0    0  0.18445464252E+02 -0.23872867123E+03  0.67678586420E+02  0.24882123036E+03  0.00000000000E+00 0.  1.
          1    1    3    3  501    0  0.30371892907E+01  0.21229094770E+03 -0.11097666225E+03  0.23956729860E+03  0.00000000000E+00 0.  1.
         21    1    1    2  502  501 -0.21482653542E+02  0.26437723527E+02  0.22526603455E+02  0.40839998674E+02  0.00000000000E+00 0.  1.
<scales pt_clust_4="550.00000" pt_clust_5="550.00000" pt_clust_6="34.06549"></scales>
<mgrwt>
<rscale>  0 0.30000000E+03</rscale>
<asrwt>  1 0.34065490E+02</asrwt>
<pdfrwt beam="1">  1        1 0.92446737E+00 0.30000000E+03</pdfrwt>
<pdfrwt beam="2">0</pdfrwt>
<totfact> 0.33806730E-05</totfact>
</mgrwt>
<clustering>
<clus scale="   34.065">  1  6  2 -1</clus>
<clus scale="  485.271">  4  5 -1 -1</clus>
<clus scale="  300.000">  1  4  2 -1</clus>
</clustering>
</event>
<event>
 6    1  0.9687246E-012  0.3000000E+03  0.7818608E-02  0.1093470E+00
          1   -1    0    0  502    0  0.00000000000E+00  0.00000000000E+00  0.24985818178E+03  0.24985818178E+03  0.00000000000E+00 0.  1.
         13   -1    0    0    0    0 -0.00000000000E+00 -0.00000000000E+00 -0.27500000000E+03  0.27500000000E+03  0.00000000000E+00 0.  1.
    9000005    2    1    2  501    0 -0.34261792077E+02 -0.21106640679E+02 -0.66799575742E+02  0.46693815555E+03  0.46037994864E+03 0.  0.
         13    1    3    3    0    0 -0.14303708246E+03  0.17413038040E+03  0.22067462823E+02  0.22642431241E+03  0.00000000000E+00 0.  1.
          3    1    3    3  501    0  0.10877529038E+03 -0.19523702108E+03 -0.88867038565E+02  0.24051384314E+03  0.00000000000E+00 0.  1.
         21    1    1    2  502  501  0.34261792077E+02  0.21106640679E+02  0.41657757525E+02  0.57920026235E+02  0.00000000000E+00 0. -1.
<scales pt_clust_4="550.00000" pt_clust_5="550.00000" pt_clust_6="40.24128"></scales>
<mgrwt>
<rscale>  0 0.30000000E+03</rscale>
<asrwt>  1 0.40241281E+02</asrwt>
<pdfrwt beam="1">  1        1 0.90857521E+00 0.30000000E+03</pdfrwt>
<pdfrwt beam="2">0</pdfrwt>
<totfact> 0.75709515E-05</totfact>
</mgrwt>
<clustering>
<clus scale="   40.241">  1  6  2 -1</clus>
<clus scale="  460.380">  4  5 -1 -1</clus>
<clus scale="  300.000">  1  4  2 -1</clus>
</clustering>
</event>
<event>
 6    1  0.9687246E-012  0.3000000E+03  0.7818608E-02  0.1093470E+00
          1   -1    0    0  502    0  0.00000000000E+00  0.00000000000E+00  0.23988936953E+03  0.23988936953E+03  0.00000000000E+00 0.  1.
         13   -1    0    0    0    0 -0.00000000000E+00 -0.00000000000E+00 -0.27500000000E+03  0.27500000000E+03  0.00000000000E+00 0.  1.
    9000005    2    1    2  501    0  0.23817550602E+02  0.20628734100E+02 -0.48864913714E+02  0.48050913255E+03  0.47697843377E+03 0.  0.
         13    1    3    3    0    0 -0.21739440606E+03  0.71855129964E+02 -0.47886092498E+02  0.23391572274E+03  0.00000000000E+00 0.  1.
          1    1    3    3  501    0  0.24121195667E+03 -0.51226395864E+02 -0.97882121551E+00  0.24659340981E+03  0.00000000000E+00 0.  1.
         21    1    1    2  502  501 -0.23817550602E+02 -0.20628734100E+02  0.13754283245E+02  0.34380236981E+02  0.00000000000E+00 0.  1.
<scales pt_clust_4="550.00000" pt_clust_5="550.00000" pt_clust_6="31.50905"></scales>
<mgrwt>
<rscale>  0 0.30000000E+03</rscale>
<asrwt>  1 0.31509052E+02</asrwt>
<pdfrwt beam="1">  1        1 0.87232498E+00 0.30000000E+03</pdfrwt>
<pdfrwt beam="2">0</pdfrwt>
<totfact> 0.24458073E-04</totfact>
</mgrwt>
<clustering>
<clus scale="   31.509">  1  6  2 -1</clus>
<clus scale="  476.978">  4  5 -1 -1</clus>
<clus scale="  300.000">  1  4  2 -1</clus>
</clustering>
</event>
<event>
 6    1  0.9687246E-012  0.3000000E+03  0.7818608E-02  0.1093470E+00
          1   -1    0    0  502    0  0.00000000000E+00  0.00000000000E+00  0.22806034549E+03  0.22806034549E+03  0.00000000000E+00 0.  1.
         13   -1    0    0    0    0 -0.00000000000E+00 -0.00000000000E+00 -0.27500000000E+03  0.27500000000E+03  0.00000000000E+00 0.  1.
    9000005    2    1    2  501    0  0.28023269310E+02 -0.12653364231E+02 -0.71049251684E+02  0.46398754261E+03  0.45748336831E+03 0.  0.
         13    1    3    3    0    0 -0.18394491584E+03 -0.11143256955E+03  0.13075887063E+02  0.21546212763E+03  0.00000000000E+00 0.  1.
          1    1    3    3  501    0  0.21196818515E+03  0.98779205319E+02 -0.84125138748E+02  0.24852541498E+03  0.00000000000E+00 0.  1.
         21    1    1    2  502  501 -0.28023269310E+02  0.12653364231E+02  0.24109597179E+02  0.39072802885E+02  0.00000000000E+00 0. -1.
<scales pt_clust_4="550.00000" pt_clust_5="550.00000" pt_clust_6="30.74754"></scales>
<mgrwt>
<rscale>  0 0.30000000E+03</rscale>
<asrwt>  1 0.30747541E+02</asrwt>
<pdfrwt beam="1">  1        1 0.82931035E+00 0.30000000E+03</pdfrwt>
<pdfrwt beam="2">0</pdfrwt>
<totfact> 0.61376333E-04</totfact>
</mgrwt>
<clustering>
<clus scale="   30.748">  1  6  2 -1</clus>
<clus scale="  457.483">  4  5 -1 -1</clus>
<clus scale="  300.000">  1  4  2 -1</clus>
</clustering>
</event>
<event>
 6    1  0.9687246E-012  0.3000000E+03  0.7818608E-02  0.1093470E+00
          1   -1    0    0  502    0  0.00000000000E+00  0.00000000000E+00  0.23288623974E+03  0.23288623974E+03  0.00000000000E+00 0.  1.
         13   -1    0    0    0    0 -0.00000000000E+00 -0.00000000000E+00 -0.27500000000E+03  0.27500000000E+03  0.00000000000E+00 0.  1.
    9000005    2    1    2  501    0 -0.37300428743E+02 -0.70895388856E+01 -0.38345495085E+02  0.46973151043E+03  0.46662161475E+03 0.  0.
         13    1    3    3    0    0 -0.36984103134E+02  0.14718391302E+03  0.15862990803E+03  0.21953217499E+03  0.00000000000E+00 0.  1.
          1    1    3    3  501    0 -0.31632560850E+00 -0.15427345190E+03 -0.19697540311E+03  0.25019933544E+03  0.00000000000E+00 0.  1.
         21    1    1    2  502  501  0.37300428743E+02  0.70895388856E+01 -0.37682651764E+01  0.38154729306E+02  0.00000000000E+00 0. -1.
<scales pt_clust_4="550.00000" pt_clust_5="550.00000" pt_clust_6="37.96821"></scales>
<mgrwt>
<rscale>  0 0.30000000E+03</rscale>
<asrwt>  1 0.37968210E+02</asrwt>
<pdfrwt beam="1">  1        1 0.84685905E+00 0.30000000E+03</pdfrwt>
<pdfrwt beam="2">0</pdfrwt>
<totfact> 0.42846203E-04</totfact>
</mgrwt>
<clustering>
<clus scale="   37.968">  1  6  2 -1</clus>
<clus scale="  466.622">  4  5 -1 -1</clus>
<clus scale="  300.000">  1  4  2 -1</clus>
</clustering>
</event>
<event>
 6    1  0.9687246E-012  0.3000000E+03  0.7818608E-02  0.1093470E+00
          1   -1    0    0  502    0  0.00000000000E+00  0.00000000000E+00  0.24388697347E+03  0.24388697347E+03  0.00000000000E+00 0.  1.
         13   -1    0    0    0    0 -0.00000000000E+00 -0.00000000000E+00 -0.27500000000E+03  0.27500000000E+03  0.00000000000E+00 0.  1.
    9000005    2    1    2  501    0  0.30119654359E+02  0.27806143435E+01 -0.40579015716E+02  0.48719264675E+03  0.48455659436E+03 0.  0.
         13    1    3    3    0    0  0.23340110919E+03  0.10617208858E+03 -0.37234442952E+02  0.25910421437E+03  0.00000000000E+00 0.  1.
          3    1    3    3  501    0 -0.20328145483E+03 -0.10339147423E+03 -0.33445727641E+01  0.22808843238E+03  0.00000000000E+00 0.  1.
         21    1    1    2  502  501 -0.30119654359E+02 -0.27806143435E+01  0.94659891895E+01  0.31694326719E+02  0.00000000000E+00 0.  1.
<scales pt_clust_4="550.00000" pt_clust_5="550.00000" pt_clust_6="30.24773"></scales>
<mgrwt>
<rscale>  0 0.30000000E+03</rscale>
<asrwt>  1 0.30247734E+02</asrwt>
<pdfrwt beam="1">  1        1 0.88686172E+00 0.30000000E+03</pdfrwt>
<pdfrwt beam="2">0</pdfrwt>
<totfact> 0.16446230E-04</totfact>
</mgrwt>
<clustering>
<clus scale="   30.248">  1  6  2 -1</clus>
<clus scale="  484.557">  4  5 -1 -1</clus>
<clus scale="  300.000">  1  4  2 -1</clus>
</clustering>
</event>
<event>
 6    1  0.9687246E-012  0.3000000E+03  0.7818608E-02  0.1093470E+00
          1   -1    0    0  502    0  0.00000000000E+00  0.00000000000E+00  0.24183948495E+03  0.24183948495E+03  0.00000000000E+00 0.  1.
         13   -1    0    0    0    0 -0.00000000000E+00 -0.00000000000E+00 -0.27500000000E+03  0.27500000000E+03  0.00000000000E+00 0.  1.
    9000005    2    1    2  501    0  0.33331499948E+02  0.44961637604E+01 -0.36390729353E+02  0.48305134114E+03  0.48050297462E+03 0.  0.
         13    1    3    3    0    0 -0.13221531076E+03 -0.12082209637E+03 -0.16105672628E+03  0.24086954239E+03  0.00000000000E+00 0.  1.
          3    1    3    3  501    0  0.16554681070E+03  0.12531826013E+03  0.12466599693E+03  0.24218179875E+03  0.00000000000E+00 0.  1.
         21    1    1    2  502  501 -0.33331499948E+02 -0.44961637604E+01  0.32302143018E+01  0.33788143804E+02  0.00000000000E+00 0.  1.
<scales pt_clust_4="550.00000" pt_clust_5="550.00000" pt_clust_6="33.63338"></scales>
<mgrwt>
<rscale>  0 0.30000000E+03</rscale>
<asrwt>  1 0.33633382E+02</asrwt>
<pdfrwt beam="1">  1        1 0.87941631E+00 0.30000000E+03</pdfrwt>
<pdfrwt beam="2">0</pdfrwt>
<totfact> 0.20214738E-04</totfact>
</mgrwt>
<clustering>
<clus scale="   33.633">  1  6  2 -1</clus>
<clus scale="  480.503">  4  5 -1 -1</clus>
<clus scale="  300.000">  1  4  2 -1</clus>
</clustering>
</event>
<event>
 6    1  0.9687246E-012  0.3000000E+03  0.7818608E-02  0.1093470E+00
          1   -1    0    0  502    0  0.00000000000E+00  0.00000000000E+00  0.22667489694E+03  0.22667489694E+03  0.00000000000E+00 0.  1.
         13   -1    0    0    0    0 -0.00000000000E+00 -0.00000000000E+00 -0.27500000000E+03  0.27500000000E+03  0.00000000000E+00 0.  1.
    9000005    2    1    2  501    0  0.21536892565E+02 -0.30271132004E+02 -0.47534719072E+02  0.46451572740E+03  0.46058129827E+03 0.  0.
         13    1    3    3    0    0 -0.84500725043E+02  0.18235832398E+03  0.50899466898E+02  0.20732989796E+03  0.00000000000E+00 0.  1.
          1    1    3    3  501    0  0.10603761761E+03 -0.21262945598E+03 -0.98434185970E+02  0.25718582944E+03  0.00000000000E+00 0.  1.
         21    1    1    2  502  501 -0.21536892565E+02  0.30271132004E+02 -0.79038398464E+00  0.37159169541E+02  0.00000000000E+00 0. -1.
<scales pt_clust_4="550.00000" pt_clust_5="550.00000" pt_clust_6="37.15076"></scales>
<mgrwt>
<rscale>  0 0.30000000E+03</rscale>
<asrwt>  1 0.37150763E+02</asrwt>
<pdfrwt beam="1">  1        1 0.82427235E+00 0.30000000E+03</pdfrwt>
<pdfrwt beam="2">0</pdfrwt>
<totfact> 0.65570634E-04</totfact>
</mgrwt>
<clustering>
<clus scale="   37.151">  1  6  2 -1</clus>
<clus scale="  460.581">  4  5 -1 -1</clus>
<clus scale="  300.000">  1  4  2 -1</clus>
</clustering>
</event>
<event>
 6    1  0.9687246E-012  0.3000000E+03  0.7818608E-02  0.1093470E+00
          1   -1    0    0  502    0  0.00000000000E+00  0.00000000000E+00  0.25261496209E+03  0.25261496209E+03  0.00000000000E+00 0.  1.
         13   -1    0    0    0    0 -0.00000000000E+00 -0.00000000000E+00 -0.27500000000E+03  0.27500000000E+03  0.00000000000E+00 0.  1.
    9000005    2    1    2  501    0  0.37422057295E+02  0.16840867016E+02 -0.22269674078E+02  0.48657792415E+03  0.48433264676E+03 0.  0.
         13    1    3    3    0    0  0.22618590055E+03  0.24349137745E+02  0.11321139852E+03  0.25410581038E+03  0.00000000000E+00 0.  1.
          3    1    3    3  501    0 -0.18876384325E+03 -0.75082707287E+01 -0.13548107260E+03  0.23247211377E+03  0.00000000000E+00 0.  1.
         21    1    1    2  502  501 -0.37422057295E+02 -0.16840867016E+02 -0.11536382905E+00  0.41037037940E+02  0.00000000000E+00 0.  1.
<scales pt_clust_4="550.00000" pt_clust_5="550.00000" pt_clust_6="41.03688"></scales>
<mgrwt>
<rscale>  0 0.30000000E+03</rscale>
<asrwt>  1 0.41036876E+02</asrwt>
<pdfrwt beam="1">  1        1 0.91859986E+00 0.30000000E+03</pdfrwt>
<pdfrwt beam="2">0</pdfrwt>
<totfact> 0.43564553E-05</totfact>
</mgrwt>
<clustering>
<clus scale="   41.037">  1  6  2 -1</clus>
<clus scale="  484.333">  4  5 -1 -1</clus>
<clus scale="  300.000">  1  4  2 -1</clus>
</clustering>
</event>
<event>
 6    1  0.9687246E-012  0.3000000E+03  0.7818608E-02  0.1093470E+00
          1   -1    0    0  502    0  0.00000000000E+00  0.00000000000E+00  0.23964480216E+03  0.23964480216E+03  0.00000000000E+00 0.  1.
         13   -1    0    0    0    0 -0.00000000000E+00 -0.00000000000E+00 -0.27500000000E+03  0.27500000000E+03  0.00000000000E+00 0.  1.
    9000005    2    1    2  501    0  0.76581346929E+01  0.29012903090E+02 -0.43834790137E+02  0.48346309184E+03  0.48053582257E+03 0.  0.
         13    1    3    3    0    0 -0.24076988349E+02  0.17915613333E+03  0.15093880235E+03  0.23549765080E+03  0.00000000000E+00 0.  1.
          1    1    3    3  501    0  0.31735123042E+02 -0.15014323024E+03 -0.19477359249E+03  0.24796544104E+03  0.00000000000E+00 0.  1.
         21    1    1    2  502  501 -0.76581346929E+01 -0.29012903090E+02  0.84795922959E+01  0.31181710316E+02  0.00000000000E+00 0.  1.
<scales pt_clust_4="550.00000" pt_clust_5="550.00000" pt_clust_6="30.00659"></scales>
<mgrwt>
<rscale>  0 0.30000000E+03</rscale>
<asrwt>  1 0.30006592E+02</asrwt>
<pdfrwt beam="1">  1        1 0.87143564E+00 0.30000000E+03</pdfrwt>
<pdfrwt beam="2">0</pdfrwt>
<totfact> 0.25210431E-04</totfact>
</mgrwt>
<clustering>
<clus scale="   30.007">  1  6  2 -1</clus>
<clus scale="  480.536">  4  5 -1 -1</clus>
<clus scale="  300.000">  1  4  2 -1</clus>
</clustering>
</event>
<event>
 6    1  0.9687246E-012  0.3000000E+03  0.7818608E-02  0.1093470E+00
          1   -1    0    0  502    0  0.00000000000E+00  0.00000000000E+00  0.23426509697E+03  0.23426509697E+03  0.00000000000E+00 0.  1.
         13   -1    0    0    0    0 -0.00000000000E+00 -0.00000000000E+00 -0.27500000000E+03  0.27500000000E+03  0.00000000000E+00 0.  1.
    9000005    2    1    2  501    0 -0.94064801539E+01  0.28603479067E+02 -0.63972702149E+02  0.47123042606E+03  0.46589587564E+03 0.  0.
         13    1    3    3    0    0  0.17619823215E+03 -0.12696754835E+03 -0.72327452576E+02  0.22890573550E+03  0.00000000000E+00 0.  1.
          3    1    3    3  501    0 -0.18560471230E+03  0.15557102742E+03  0.83547504266E+01  0.24232469056E+03  0.00000000000E+00 0.  1.
         21    1    1    2  502  501  0.94064801539E+01 -0.28603479067E+02  0.23237799123E+02  0.38034670916E+02  0.00000000000E+00 0. -1.
<scales pt_clust_4="550.00000" pt_clust_5="550.00000" pt_clust_6="30.11048"></scales>
<mgrwt>
<rscale>  0 0.30000000E+03</rscale>
<asrwt>  1 0.30110478E+02</asrwt>
<pdfrwt beam="1">  1        1 0.85187308E+00 0.30000000E+03</pdfrwt>
<pdfrwt beam="2">0</pdfrwt>
<totfact> 0.40200193E-04</totfact>
</mgrwt>
<clustering>
<clus scale="   30.110">  1  6  2 -1</clus>
<clus scale="  465.896">  4  5 -1 -1</clus>
<clus scale="  300.000">  1  4  2 -1</clus>
</clustering>
</event>
<event>
 6    1  0.9687246E-012  0.3000000E+03  0.7818608E-02  0.1093470E+00
          1   -1    0    0  502    0  0.00000000000E+00  0.00000000000E+00  0.23956673560E+03  0.23956673560E+03  0.00000000000E+00 0.  1.
         13   -1    0    0    0    0 -0.00000000000E+00 -0.00000000000E+00 -0.27500000000E+03  0.27500000000E+03  0.00000000000E+00 0.  1.
    9000005    2    1    2  501    0 -0.29635675538E+02 -0.90881487089E+01 -0.51839027466E+02  0.47949514064E+03  0.47567576921E+03 0.  0.
         13    1    3    3    0    0  0.37101087969E+02 -0.89064442497E+02  0.19170247693E+03  0.21461315269E+03  0.00000000000E+00 0.  1.
          3    1    3    3  501    0 -0.66736763508E+02  0.79976293788E+02 -0.24354150440E+03  0.26488198794E+03  0.00000000000E+00 0.  1.
         21    1    1    2  502  501  0.29635675538E+02  0.90881487089E+01  0.16405763067E+02  0.35071594965E+02  0.00000000000E+00 0.  1.
<scales pt_clust_4="550.00000" pt_clust_5="550.00000" pt_clust_6="30.99787"></scales>
<mgrwt>
<rscale>  0 0.30000000E+03</rscale>
<asrwt>  1 0.30997866E+02</asrwt>
<pdfrwt beam="1">  1        1 0.87115177E+00 0.30000000E+03</pdfrwt>
<pdfrwt beam="2">0</pdfrwt>
<totfact> 0.25221237E-04</totfact>
</mgrwt>
<clustering>
<clus scale="   30.998">  1  6  2 -1</clus>
<clus scale="  475.676">  4  5 -1 -1</clus>
<clus scale="  300.000">  1  4  2 -1</clus>
</clustering>
</event>
<event>
 6    1  0.9687246E-012  0.3000000E+03  0.7818608E-02  0.1093470E+00
          1   -1    0    0  502    0  0.00000000000E+00  0.00000000000E+00  0.23996952868E+03  0.23996952868E+03  0.00000000000E+00 0.  1.
         13   -1    0    0    0    0 -0.00000000000E+00 -0.00000000000E+00 -0.27500000000E+03  0.27500000000E+03  0.00000000000E+00 0.  1.
    9000005    2    1    2  501    0  0.23485138294E+02  0.25394855924E+02 -0.58368276001E+02  0.47324299569E+03  0.46835416823E+03 0.  0.
         13    1    3    3    0    0 -0.69217860462E+02  0.18839171771E+03 -0.16295957101E+03  0.25853118437E+03  0.00000000000E+00 0.  1.
          3    1    3    3  501    0  0.92702998756E+02 -0.16299686178E+03  0.10459129501E+03  0.21471181132E+03  0.00000000000E+00 0.  1.
         21    1    1    2  502  501 -0.23485138294E+02 -0.25394855924E+02  0.23337804686E+02  0.41726532993E+02  0.00000000000E+00 0. -1.
<scales pt_clust_4="550.00000" pt_clust_5="550.00000" pt_clust_6="34.58974"></scales>
<mgrwt>
<rscale>  0 0.30000000E+03</rscale>
<asrwt>  1 0.34589745E+02</asrwt>
<pdfrwt beam="1">  1        1 0.87261647E+00 0.30000000E+03</pdfrwt>
<pdfrwt beam="2">0</pdfrwt>
<totfact> 0.23865757E-04</totfact>
</mgrwt>
<clustering>
<clus scale="   34.590">  1  6  2 -1</clus>
<clus scale="  468.354">  4  5 -1 -1</clus>
<clus scale="  300.000">  1  4  2 -1</clus>
</clustering>
</event>
<event>
 6    1  0.9687246E-012  0.3000000E+03  0.7818608E-02  0.1093470E+00
          1   -1    0    0  502    0  0.00000000000E+00  0.00000000000E+00  0.24211707437E+03  0.24211707437E+03  0.00000000000E+00 0.  1.
         13   -1    0    0    0    0 -0.00000000000E+00 -0.00000000000E+00 -0.27500000000E+03  0.27500000000E+03  0.00000000000E+00 0.  1.
    9000005    2    1    2  501    0 -0.32775865142E+02 -0.75005650090E+01 -0.45429133568E+02  0.48122942824E+03  0.47789898579E+03 0.  0.
         13    1    3    3    0    0 -0.12929831460E+03  0.16260531022E+03 -0.15300881550E+03  0.25801209020E+03  0.00000000000E+00 0.  1.
          1    1    3    3  501    0  0.96522449461E+02 -0.17010587523E+03  0.10757968193E+03  0.22321733804E+03  0.00000000000E+00 0.  1.
         21    1    1    2  502  501  0.32775865142E+02  0.75005650090E+01  0.12546207939E+02  0.35887646132E+02  0.00000000000E+00 0.  1.
<scales pt_clust_4="550.00000" pt_clust_5="550.00000" pt_clust_6="33.62314"></scales>
<mgrwt>
<rscale>  0 0.30000000E+03</rscale>
<asrwt>  1 0.33623144E+02</asrwt>
<pdfrwt beam="1">  1        1 0.88042572E+00 0.30000000E+03</pdfrwt>
<pdfrwt beam="2">0</pdfrwt>
<totfact> 0.19646615E-04</totfact>
</mgrwt>
<clustering>
<clus scale="   33.623">  1  6  2 -1</clus>
<clus scale="  477.899">  4  5 -1 -1</clus>
<clus scale="  300.000">  1  4  2 -1</clus>
</clustering>
</event>
<event>
 6    1  0.9687246E-012  0.3000000E+03  0.7818608E-02  0.1093470E+00
          1   -1    0    0  502    0  0.00000000000E+00  0.00000000000E+00  0.22903338831E+03  0.22903338831E+03  0.00000000000E+00 0.  1.
         13   -1    0    0    0    0 -0.00000000000E+00 -0.00000000000E+00 -0.27500000000E+03  0.27500000000E+03  0.00000000000E+00 0.  1.
    9000005    2    1    2  501    0 -0.11752426177E+02  0.34346584357E+02 -0.52612367017E+02  0.46712846396E+03  0.46273440903E+03 0.  0.
         13    1    3    3    0    0  0.14331331026E+03  0.19396485229E+03 -0.37653379008E+02  0.24408778292E+03  0.00000000000E+00 0.  1.
          3    1    3    3  501    0 -0.15506573644E+03 -0.15961826793E+03 -0.14958988009E+02  0.22304068103E+03  0.00000000000E+00 0.  1.
         21    1    1    2  502  501  0.11752426177E+02 -0.34346584357E+02  0.66457553316E+01  0.36904924360E+02  0.00000000000E+00 0.  1.
<scales pt_clust_4="550.00000" pt_clust_5="550.00000" pt_clust_6="36.30162"></scales>
<mgrwt>
<rscale>  0 0.30000000E+03</rscale>
<asrwt>  1 0.36301617E+02</asrwt>
<pdfrwt beam="1">  1        1 0.83284868E+00 0.30000000E+03</pdfrwt>
<pdfrwt beam="2">0</pdfrwt>
<totfact> 0.55742455E-04</totfact>
</mgrwt>
<clustering>
<clus scale="   36.302">  1  6  2 -1</clus>
<clus scale="  462.734">  4  5 -1 -1</clus>
<clus scale="  300.000">  1  4  2 -1</clus>
</clustering>
</event>
<event>
 6    1  0.9687246E-012  0.3000000E+03  0.7818608E-02  0.1093470E+00
          1   -1    0    0  502    0  0.00000000000E+00  0.00000000000E+00  0.23056040506E+03  0.23056040506E+03  0.00000000000E+00 0.  1.
         13   -1    0    0    0    0 -0.00000000000E+00 -0.00000000000E+00 -0.27500000000E+03  0.27500000000E+03  0.00000000000E+00 0.  1.
    9000005    2    1    2  501    0  0.28960820724E+02 -0.15836803351E+02 -0.46524305841E+02  0.47248655592E+03  0.46903038389E+03 0.  0.
         13    1    3    3    0    0 -0.16203047779E+03  0.12957926479E+03  0.50567747242E+02  0.21354568284E+03  0.00000000000E+00 0.  1.
          1    1    3    3  501    0  0.19099129852E+03 -0.14541606814E+03 -0.97092053083E+02  0.25894087308E+03  0.00000000000E+00 0.  1.
         21    1    1    2  502  501 -0.28960820724E+02  0.15836803351E+02  0.20847109015E+01  0.33073849140E+02  0.00000000000E+00 0. -1.
<scales pt_clust_4="550.00000" pt_clust_5="550.00000" pt_clust_6="33.00808"></scales>
<mgrwt>
<rscale>  0 0.30000000E+03</rscale>
<asrwt>  1 0.33008082E+02</asrwt>
<pdfrwt beam="1">  1        1 0.83840147E+00 0.30000000E+03</pdfrwt>
<pdfrwt beam="2">0</pdfrwt>
<totfact> 0.51664325E-04</totfact>
</mgrwt>
<clustering>
<clus scale="   33.008">  1  6  2 -1</clus>
<clus scale="  469.030">  4  5 -1 -1</clus>
<clus scale="  300.000">  1  4  2 -1</clus>
</clustering>
</event>
<event>
 6    1  0.9687246E-012  0.3000000E+03  0.7818608E-02  0.1093470E+00
          1   -1    0    0  502    0  0.00000000000E+00  0.00000000000E+00  0.23483764556E+03  0.23483764556E+03  0.00000000000E+00 0.  1.
         13   -1    0    0    0    0 -0.00000000000E+00 -0.00000000000E+00 -0.27500000000E+03  0.27500000000E+03  0.00000000000E+00 0.  1.
    9000005    2    1    2  501    0  0.23903840057E+02 -0.21342545745E+02 -0.46117635553E+02  0.47724373200E+03  0.47392810171E+03 0.  0.
         13    1    3    3    0    0 -0.53145367466E+02  0.17013346031E+03 -0.16172449456E+03  0.24067537586E+03  0.00000000000E+00 0.  1.
          1    1    3    3  501    0  0.77049207523E+02 -0.19147600606E+03  0.11560685901E+03  0.23656835614E+03  0.00000000000E+00 0.  1.
         21    1    1    2  502  501 -0.23903840057E+02  0.21342545745E+02  0.59552811141E+01  0.32593913565E+02  0.00000000000E+00 0. -1.
<scales pt_clust_4="550.00000" pt_clust_5="550.00000" pt_clust_6="32.04525"></scales>
<mgrwt>
<rscale>  0 0.30000000E+03</rscale>
<asrwt>  1 0.32045247E+02</asrwt>
<pdfrwt beam="1">  1        1 0.85395507E+00 0.30000000E+03</pdfrwt>
<pdfrwt beam="2">0</pdfrwt>
<totfact> 0.37929350E-04</totfact>
</mgrwt>
<clustering>
<clus scale="   32.045">  1  6  2 -1</clus>
<clus scale="  473.928">  4  5 -1 -1</clus>
<clus scale="  300.000">  1  4  2 -1</clus>
</clustering>
</event>
<event>
 6    1  0.9687246E-012  0.3000000E+03  0.7818608E-02  0.1093470E+00
          1   -1    0    0  502    0  0.00000000000E+00  0.00000000000E+00  0.24157891774E+03  0.24157891774E+03  0.00000000000E+00 0.  1.
         13   -1    0    0    0    0 -0.00000000000E+00 -0.00000000000E+00 -0.27500000000E+03  0.27500000000E+03  0.00000000000E+00 0.  1.
    9000005    2    1    2  501    0 -0.39069323457E+02 -0.80043152041E+00 -0.32650841784E+02  0.47749380553E+03  0.47477068583E+03 0.  0.
         13    1    3    3    0    0  0.98520758947E+02  0.17683636631E+03 -0.12125230349E+03  0.23596517009E+03  0.00000000000E+00 0.  1.
          1    1    3    3  501    0 -0.13759008240E+03 -0.17763679783E+03  0.88601461706E+02  0.24152863544E+03  0.00000000000E+00 0.  1.
         21    1    1    2  502  501  0.39069323457E+02  0.80043152041E+00 -0.77024047565E+00  0.39085112209E+02  0.00000000000E+00 0.  1.
<scales pt_clust_4="550.00000" pt_clust_5="550.00000" pt_clust_6="39.07752"></scales>
<mgrwt>
<rscale>  0 0.30000000E+03</rscale>
<asrwt>  1 0.39077522E+02</asrwt>
<pdfrwt beam="1">  1        1 0.87846879E+00 0.30000000E+03</pdfrwt>
<pdfrwt beam="2">0</pdfrwt>
<totfact> 0.20175301E-04</totfact>
</mgrwt>
<clustering>
<clus scale="   39.078">  1  6  2 -1</clus>
<clus scale="  474.771">  4  5 -1 -1</clus>
<clus scale="  300.000">  1  4  2 -1</clus>
</clustering>
</event>
<event>
 6    1  0.9687246E-012  0.3000000E+03  0.7818608E-02  0.1093470E+00
          1   -1    0    0  502    0  0.00000000000E+00  0.00000000000E+00  0.21873439205E+03  0.21873439205E+03  0.00000000000E+00 0.  1.
         13   -1    0    0    0    0 -0.00000000000E+00 -0.00000000000E+00 -0.27500000000E+03  0.27500000000E+03  0.00000000000E+00 0.  1.
    9000005    2    1    2  501    0 -0.28907422806E+02 -0.12344674078E+02 -0.53802632729E+02  0.46220509903E+03  0.45798558952E+03 0.  0.
         13    1    3    3    0    0 -0.21563610312E+03  0.36521747680E+02 -0.13030247495E+03  0.25458103229E+03  0.00000000000E+00 0.  1.
          1    1    3    3  501    0  0.18672868032E+03 -0.48866421758E+02  0.76499842217E+02  0.20762406674E+03  0.00000000000E+00 0.  1.
         21    1    1    2  502  501  0.28907422806E+02  0.12344674078E+02 -0.24629752249E+01  0.31529293020E+02  0.00000000000E+00 0. -1.
<scales pt_clust_4="550.00000" pt_clust_5="550.00000" pt_clust_6="31.43295"></scales>
<mgrwt>
<rscale>  0 0.30000000E+03</rscale>
<asrwt>  1 0.31432946E+02</asrwt>
<pdfrwt beam="1">  1        1 0.79539779E+00 0.30000000E+03</pdfrwt>
<pdfrwt beam="2">0</pdfrwt>
<totfact> 0.11434048E-03</totfact>
</mgrwt>
<clustering>
<clus scale="   31.433">  1  6  2 -1</clus>
<clus scale="  457.986">  4  5 -1 -1</clus>
<clus scale="  300.000">  1  4  2 -1</clus>
</clustering>
</event>
<event>
 6    1  0.9687246E-012  0.3000000E+03  0.7818608E-02  0.1093470E+00
          1   -1    0    0  502    0  0.00000000000E+00  0.00000000000E+00  0.24612342355E+03  0.24612342355E+03  0.00000000000E+00 0.  1.
         13   -1    0    0    0    0 -0.00000000000E+00 -0.00000000000E+00 -0.27500000000E+03  0.27500000000E+03  0.00000000000E+00 0.  1.
    9000005    2    1    2  501    0 -0.24873730172E+02  0.30009210247E+02 -0.46721784203E+02  0.47825494338E+03  0.47436864420E+03 0.  0.
         13    1    3    3    0    0  0.13546390647E+03  0.10515468281E+03  0.13966474143E+03  0.22116558789E+03  0.00000000000E+00 0.  1.
          1    1    3    3  501    0 -0.16033763664E+03 -0.75145472560E+02 -0.18638652563E+03  0.25708935549E+03  0.00000000000E+00 0.  1.
         21    1    1    2  502  501  0.24873730172E+02 -0.30009210247E+02  0.17845207755E+02  0.42868480170E+02  0.00000000000E+00 0. -1.
<scales pt_clust_4="550.00000" pt_clust_5="550.00000" pt_clust_6="38.97762"></scales>
<mgrwt>
<rscale>  0 0.30000000E+03</rscale>
<asrwt>  1 0.38977624E+02</asrwt>
<pdfrwt beam="1">  1        1 0.89499427E+00 0.30000000E+03</pdfrwt>
<pdfrwt beam="2">0</pdfrwt>
<totfact> 0.12362175E-04</totfact>
</mgrwt>
<clustering>
<clus scale="   38.978">  1  6  2 -1</clus>
<clus scale="  474.369">  4  5 -1 -1</clus>
<clus scale="  300.000">  1  4  2 -1</clus>
</clustering>
</event>
<event>
 6    1  0.9687246E-012  0.3000000E+03  0.7818608E-02  0.1093470E+00
          1   -1    0    0  502    0  0.00000000000E+00  0.00000000000E+00  0.23473608755E+03  0.23473608755E+03  0.00000000000E+00 0.  1.
         13   -1    0    0    0    0 -0.00000000000E+00 -0.00000000000E+00 -0.27500000000E+03  0.27500000000E+03  0.00000000000E+00 0.  1.
    9000005    2    1    2  501    0 -0.88927290716E+01 -0.35847148425E+02 -0.50668341432E+02  0.47136486365E+03  0.46717604303E+03 0.  0.
         13    1    3    3    0    0 -0.31119508488E+02  0.10701436021E+03 -0.22126254146E+03  0.24774504911E+03  0.00000000000E+00 0.  1.
          1    1    3    3  501    0  0.22226779416E+02 -0.14286150864E+03  0.17059420003E+03  0.22361981455E+03  0.00000000000E+00 0.  1.
         21    1    1    2  502  501  0.88927290716E+01  0.35847148425E+02  0.10404428977E+02  0.38371223891E+02  0.00000000000E+00 0.  1.
<scales pt_clust_4="550.00000" pt_clust_5="550.00000" pt_clust_6="36.93371"></scales>
<mgrwt>
<rscale>  0 0.30000000E+03</rscale>
<asrwt>  1 0.36933707E+02</asrwt>
<pdfrwt beam="1">  1        1 0.85358577E+00 0.30000000E+03</pdfrwt>
<pdfrwt beam="2">0</pdfrwt>
<totfact> 0.37238193E-04</totfact>
</mgrwt>
<clustering>
<clus scale="   36.934">  1  6  2 -1</clus>
<clus scale="  467.176">  4  5 -1 -1</clus>
<clus scale="  300.000">  1  4  2 -1</clus>
</clustering>
</event>
<event>
 6    1  0.9687246E-012  0.3000000E+03  0.7818608E-02  0.1093470E+00
          1   -1    0    0  502    0  0.00000000000E+00  0.00000000000E+00  0.23462690357E+03  0.23462690357E+03  0.00000000000E+00 0.  1.
         13   -1    0    0    0    0 -0.00000000000E+00 -0.00000000000E+00 -0.27500000000E+03  0.27500000000E+03  0.00000000000E+00 0.  1.
    9000005    2    1    2  501    0 -0.24235162511E+02  0.38309068752E+02 -0.20707538290E+02  0.46021372691E+03  0.45750731628E+03 0.  0.
         13    1    3    3    0    0 -0.66663407709E+02 -0.63637106958E+02  0.19622747383E+03  0.21679232642E+03  0.00000000000E+00 0.  1.
          1    1    3    3  501    0  0.42428245198E+02  0.10194617571E+03 -0.21693501212E+03  0.24342140049E+03  0.00000000000E+00 0.  1.
         21    1    1    2  502  501  0.24235162511E+02 -0.38309068752E+02 -0.19665558138E+02  0.49413176659E+02  0.00000000000E+00 0.  1.
<scales pt_clust_4="550.00000" pt_clust_5="550.00000" pt_clust_6="45.33133"></scales>
<mgrwt>
<rscale>  0 0.30000000E+03</rscale>
<asrwt>  1 0.45331335E+02</asrwt>
<pdfrwt beam="1">  1        1 0.85318874E+00 0.30000000E+03</pdfrwt>
<pdfrwt beam="2">0</pdfrwt>
<totfact> 0.36195944E-04</totfact>
</mgrwt>
<clustering>
<clus scale="   45.331">  1  6  2 -1</clus>
<clus scale="  457.507">  4  5 -1 -1</clus>
<clus scale="  300.000">  1  4  2 -1</clus>
</clustering>
</event>
<event>
 6    1  0.9687246E-012  0.3000000E+03  0.7818608E-02  0.1093470E+00
          1   -1    0    0  502    0  0.00000000000E+00  0.00000000000E+00  0.23042882506E+03  0.23042882506E+03  0.00000000000E+00 0.  1.
         13   -1    0    0    0    0 -0.00000000000E+00 -0.00000000000E+00 -0.27500000000E+03  0.27500000000E+03  0.00000000000E+00 0.  1.
    9000005    2    1    2  501    0 -0.10684246530E+02 -0.33859763313E+02 -0.67946037491E+02  0.46291975668E+03  0.45652754617E+03 0.  0.
         13    1    3    3    0    0  0.19202945688E+03 -0.11767310461E+03  0.21047937349E+02  0.22619745252E+03  0.00000000000E+00 0.  1.
          3    1    3    3  501    0 -0.20271370341E+03  0.83813341295E+02 -0.88993974840E+02  0.23672230416E+03  0.00000000000E+00 0.  1.
         21    1    1    2  502  501  0.10684246530E+02  0.33859763313E+02  0.23374862551E+02  0.42509068383E+02  0.00000000000E+00 0. -1.
<scales pt_clust_4="550.00000" pt_clust_5="550.00000" pt_clust_6="35.50545"></scales>
<mgrwt>
<rscale>  0 0.30000000E+03</rscale>
<asrwt>  1 0.35505446E+02</asrwt>
<pdfrwt beam="1">  1        1 0.83792300E+00 0.30000000E+03</pdfrwt>
<pdfrwt beam="2">0</pdfrwt>
<totfact> 0.51376305E-04</totfact>
</mgrwt>
<clustering>
<clus scale="   35.505">  1  6  2 -1</clus>
<clus scale="  456.528">  4  5 -1 -1</clus>
<clus scale="  300.000">  1  4  2 -1</clus>
</clustering>
</event>
<event>
 6    1  0.9687246E-012  0.3000000E+03  0.7818608E-02  0.1093470E+00
          1   -1    0    0  502    0  0.00000000000E+00  0.00000000000E+00  0.24927306170E+03  0.24927306170E+03  0.00000000000E+00 0.  1.
         13   -1    0    0    0    0 -0.00000000000E+00 -0.00000000000E+00 -0.27500000000E+03  0.27500000000E+03  0.00000000000E+00 0.  1.
    9000005    2    1    2  501    0 -0.16989650601E+02  0.27749474493E+02 -0.42882641839E+02  0.48748991711E+03  0.48450884073E+03 0.  0.
         13    1    3    3    0    0 -0.16770858481E+03  0.19153477202E+03 -0.67974759339E+02  0.26350010668E+03  0.00000000000E+00 0.  1.
          1    1    3    3  501    0  0.15071893421E+03 -0.16378529752E+03  0.25092117500E+02  0.22398981043E+03  0.00000000000E+00 0.  1.
         21    1    1    2  502  501  0.16989650601E+02 -0.27749474493E+02  0.17155703538E+02  0.36783144592E+02  0.00000000000E+00 0.  1.
<scales pt_clust_4="550.00000" pt_clust_5="550.00000" pt_clust_6="32.53739"></scales>
<mgrwt>
<rscale>  0 0.30000000E+03</rscale>
<asrwt>  1 0.32537387E+02</asrwt>
<pdfrwt beam="1">  1        1 0.90644750E+00 0.30000000E+03</pdfrwt>
<pdfrwt beam="2">0</pdfrwt>
<totfact> 0.87736931E-05</totfact>
</mgrwt>
<clustering>
<clus scale="   32.537">  1  6  2 -1</clus>
<clus scale="  484.509">  4  5 -1 -1</clus>
<clus scale="  300.000">  1  4  2 -1</clus>
</clustering>
</event>
<event>
 6    1  0.9687246E-012  0.3000000E+03  0.7818608E-02  0.1093470E+00
          1   -1    0    0  502    0  0.00000000000E+00  0.00000000000E+00  0.25179456572E+03  0.25179456572E+03  0.00000000000E+00 0.  1.
         13   -1    0    0    0    0 -0.00000000000E+00 -0.00000000000E+00 -0.27500000000E+03  0.27500000000E+03  0.00000000000E+00 0.  1.
    9000005    2    1    2  501    0  0.31830714348E+02 -0.11535388253E+02 -0.64066138929E+02  0.47372991890E+03  0.46815521608E+03 0.  0.
         13    1    3    3    0    0  0.20520800690E+03 -0.14353770213E+03 -0.49987389418E+02  0.25536667192E+03  0.00000000000E+00 0.  1.
          3    1    3    3  501    0 -0.17337729255E+03  0.13200231388E+03 -0.14078749512E+02  0.21836324697E+03  0.00000000000E+00 0.  1.
         21    1    1    2  502  501 -0.31830714348E+02  0.11535388253E+02  0.40860704653E+02  0.53064646826E+02  0.00000000000E+00 0. -1.
<scales pt_clust_4="550.00000" pt_clust_5="550.00000" pt_clust_6="33.85646"></scales>
<mgrwt>
<rscale>  0 0.30000000E+03</rscale>
<asrwt>  1 0.33856455E+02</asrwt>
<pdfrwt beam="1">  1        1 0.91561660E+00 0.30000000E+03</pdfrwt>
<pdfrwt beam="2">0</pdfrwt>
<totfact> 0.52723616E-05</totfact>
</mgrwt>
<clustering>
<clus scale="   33.856">  1  6  2 -1</clus>
<clus scale="  468.155">  4  5 -1 -1</clus>
<clus scale="  300.000">  1  4  2 -1</clus>
</clustering>
</event>
<event>
 6    1  0.9687246E-012  0.3000000E+03  0.7818608E-02  0.1093470E+00
          1   -1    0    0  502    0  0.00000000000E+00  0.00000000000E+00  0.25816306265E+03  0.25816306265E+03  0.00000000000E+00 0.  1.
         13   -1    0    0    0    0 -0.00000000000E+00 -0.00000000000E+00 -0.27500000000E+03  0.27500000000E+03  0.00000000000E+00 0.  1.
    9000005    2    1    2  501    0  0.39940532412E+01  0.29993036884E+02 -0.63984228693E+02  0.47714162208E+03  0.47186291577E+03 0.  0.
         13    1    3    3    0    0 -0.10976481423E+03 -0.97332418132E+02  0.14568122272E+03  0.20674847694E+03  0.00000000000E+00 0.  1.
          1    1    3    3  501    0  0.11375886747E+03  0.12732545502E+03 -0.20966545141E+03  0.27039314514E+03  0.00000000000E+00 0.  1.
         21    1    1    2  502  501 -0.39940532412E+01 -0.29993036884E+02  0.47147291344E+02  0.56021440573E+02  0.00000000000E+00 0. -1.
<scales pt_clust_4="550.00000" pt_clust_5="550.00000" pt_clust_6="30.25780"></scales>
<mgrwt>
<rscale>  0 0.30000000E+03</rscale>
<asrwt>  1 0.30257804E+02</asrwt>
<pdfrwt beam="1">  1        1 0.93877477E+00 0.30000000E+03</pdfrwt>
<pdfrwt beam="2">0</pdfrwt>
<totfact> 0.20627995E-05</totfact>
</mgrwt>
<clustering>
<clus scale="   30.258">  1  6  2 -1</clus>
<clus scale="  471.863">  4  5 -1 -1</clus>
<clus scale="  300.000">  1  4  2 -1</clus>
</clustering>
</event>
<event>
 6    1  0.9687246E-012  0.3000000E+03  0.7818608E-02  0.1093470E+00
          1   -1    0    0  502    0  0.00000000000E+00  0.00000000000E+00  0.22446840531E+03  0.22446840531E+03  0.00000000000E+00 0.  1.
         13   -1    0    0    0    0 -0.00000000000E+00 -0.00000000000E+00 -0.27500000000E+03  0.27500000000E+03  0.00000000000E+00 0.  1.
    9000005    2    1    2  501    0  0.29079383003E+02  0.15267349880E+02 -0.63463157123E+02  0.46417070291E+03  0.45863729312E+03 0.  0.
         13    1    3    3    0    0  0.23991887557E+03 -0.62491229628E+01 -0.76329940505E+02  0.25184594142E+03  0.00000000000E+00 0.  1.
          3    1    3    3  501    0 -0.21083949256E+03  0.21516472843E+02  0.12866783382E+02  0.21232476149E+03  0.00000000000E+00 0.  1.
         21    1    1    2  502  501 -0.29079383003E+02 -0.15267349880E+02  0.12931562436E+02  0.35297702407E+02  0.00000000000E+00 0.  1.
<scales pt_clust_4="550.00000" pt_clust_5="550.00000" pt_clust_6="32.84361"></scales>
<mgrwt>
<rscale>  0 0.30000000E+03</rscale>
<asrwt>  1 0.32843607E+02</asrwt>
<pdfrwt beam="1">  1        1 0.81624875E+00 0.30000000E+03</pdfrwt>
<pdfrwt beam="2">0</pdfrwt>
<totfact> 0.78701450E-04</totfact>
</mgrwt>
<clustering>
<clus scale="   32.844">  1  6  2 -1</clus>
<clus scale="  458.637">  4  5 -1 -1</clus>
<clus scale="  300.000">  1  4  2 -1</clus>
</clustering>
</event>
<event>
 6    1  0.9687246E-012  0.3000000E+03  0.7818608E-02  0.1093470E+00
          1   -1    0    0  502    0  0.00000000000E+00  0.00000000000E+00  0.25312421808E+03  0.25312421808E+03  0.00000000000E+00 0.  1.
         13   -1    0    0    0    0 -0.00000000000E+00 -0.00000000000E+00 -0.27500000000E+03  0.27500000000E+03  0.00000000000E+00 0.  1.
    9000005    2    1    2  501    0 -0.17935619329E+02  0.31195932382E+02 -0.70312614551E+02  0.46778352374E+03  0.46106690261E+03 0.  0.
         13    1    3    3    0    0 -0.16339877650E+03 -0.12208725411E+03 -0.13756091105E+03  0.24602329570E+03  0.00000000000E+00 0.  1.
          3    1    3    3  501    0  0.14546315718E+03  0.15328318650E+03  0.67248296498E+02  0.22176022804E+03  0.00000000000E+00 0.  1.
         21    1    1    2  502  501  0.17935619329E+02 -0.31195932382E+02  0.48436832629E+02  0.60340694336E+02  0.00000000000E+00 0. -1.
<scales pt_clust_4="550.00000" pt_clust_5="550.00000" pt_clust_6="35.98434"></scales>
<mgrwt>
<rscale>  0 0.30000000E+03</rscale>
<asrwt>  1 0.35984339E+02</asrwt>
<pdfrwt beam="1">  1        1 0.92045170E+00 0.30000000E+03</pdfrwt>
<pdfrwt beam="2">0</pdfrwt>
<totfact> 0.40658985E-05</totfact>
</mgrwt>
<clustering>
<clus scale="   35.984">  1  6  2 -1</clus>
<clus scale="  461.067">  4  5 -1 -1</clus>
<clus scale="  300.000">  1  4  2 -1</clus>
</clustering>
</event>
<event>
 6    1  0.9687246E-012  0.3000000E+03  0.7818608E-02  0.1093470E+00
          1   -1    0    0  502    0  0.00000000000E+00  0.00000000000E+00  0.24394469650E+03  0.24394469650E+03  0.00000000000E+00 0.  1.
         13   -1    0    0    0    0 -0.00000000000E+00 -0.00000000000E+00 -0.27500000000E+03  0.27500000000E+03  0.00000000000E+00 0.  1.
    9000005    2    1    2  501    0  0.11078485794E+02 -0.36477781400E+02 -0.54574963622E+02  0.47415032414E+03  0.46945366314E+03 0.  0.
         13    1    3    3    0    0 -0.80094997067E+01  0.19369744311E+03 -0.12739794088E+03  0.23197647918E+03  0.00000000000E+00 0.  1.
          1    1    3    3  501    0  0.19087985501E+02 -0.23017522451E+03  0.72822977254E+02  0.24217384496E+03  0.00000000000E+00 0.  1.
         21    1    1    2  502  501 -0.11078485794E+02  0.36477781400E+02  0.23519660124E+02  0.44794372367E+02  0.00000000000E+00 0.  1.
<scales pt_clust_4="550.00000" pt_clust_5="550.00000" pt_clust_6="38.12298"></scales>
<mgrwt>
<rscale>  0 0.30000000E+03</rscale>
<asrwt>  1 0.38122977E+02</asrwt>
<pdfrwt beam="1">  1        1 0.88707162E+00 0.30000000E+03</pdfrwt>
<pdfrwt beam="2">0</pdfrwt>
<totfact> 0.15640835E-04</totfact>
</mgrwt>
<clustering>
<clus scale="   38.123">  1  6  2 -1</clus>
<clus scale="  469.454">  4  5 -1 -1</clus>
<clus scale="  300.000">  1  4  2 -1</clus>
</clustering>
</event>
<event>
 6    1  0.9687246E-012  0.3000000E+03  0.7818608E-02  0.1093470E+00
          1   -1    0    0  502    0  0.00000000000E+00  0.00000000000E+00  0.23177637204E+03  0.23177637204E+03  0.00000000000E+00 0.  1.
         13   -1    0    0    0    0 -0.00000000000E+00 -0.00000000000E+00 -0.27500000000E+03  0.27500000000E+03  0.00000000000E+00 0.  1.
    9000005    2    1    2  501    0 -0.98562331199E+01  0.33082930611E+02 -0.67988745261E+02  0.46429182586E+03  0.45798777762E+03 0.  0.
         13    1    3    3    0    0  0.13613157286E+03 -0.74273580257E+02 -0.19043511634E+03  0.24558889101E+03  0.00000000000E+00 0.  1.
          3    1    3    3  501    0 -0.14598780598E+03  0.10735651087E+03  0.12244637107E+03  0.21870293485E+03  0.00000000000E+00 0.  1.
         21    1    1    2  502  501  0.98562331199E+01 -0.33082930611E+02  0.24765117301E+02  0.42484546179E+02  0.00000000000E+00 0.  1.
<scales pt_clust_4="550.00000" pt_clust_5="550.00000" pt_clust_6="34.51993"></scales>
<mgrwt>
<rscale>  0 0.30000000E+03</rscale>
<asrwt>  1 0.34519931E+02</asrwt>
<pdfrwt beam="1">  1        1 0.84282317E+00 0.30000000E+03</pdfrwt>
<pdfrwt beam="2">0</pdfrwt>
<totfact> 0.47287978E-04</totfact>
</mgrwt>
<clustering>
<clus scale="   34.520">  1  6  2 -1</clus>
<clus scale="  457.988">  4  5 -1 -1</clus>
<clus scale="  300.000">  1  4  2 -1</clus>
</clustering>
</event>
<event>
 6    1  0.9687246E-012  0.3000000E+03  0.7818608E-02  0.1093470E+00
          1   -1    0    0  502    0  0.00000000000E+00  0.00000000000E+00  0.22327178858E+03  0.22327178858E+03  0.00000000000E+00 0.  1.
         13   -1    0    0    0    0 -0.00000000000E+00 -0.00000000000E+00 -0.27500000000E+03  0.27500000000E+03  0.00000000000E+00 0.  1.
    9000005    2    1    2  501    0  0.17125465542E+01 -0.33871203469E+02 -0.59755061671E+02  0.46342036730E+03  0.45829856883E+03 0.  0.
         13    1    3    3    0    0  0.35984556529E+02 -0.21381282931E+03  0.81991877343E+02  0.23180483652E+03  0.00000000000E+00 0.  1.
          1    1    3    3  501    0 -0.34272009975E+02  0.17994162584E+03 -0.14174693901E+03  0.23161553078E+03  0.00000000000E+00 0.  1.
         21    1    1    2  502  501 -0.17125465542E+01  0.33871203469E+02  0.80268502499E+01  0.34851421277E+02  0.00000000000E+00 0.  1.
<scales pt_clust_4="550.00000" pt_clust_5="550.00000" pt_clust_6="33.91447"></scales>
<mgrwt>
<rscale>  0 0.30000000E+03</rscale>
<asrwt>  1 0.33914469E+02</asrwt>
<pdfrwt beam="1">  1        1 0.81189741E+00 0.30000000E+03</pdfrwt>
<pdfrwt beam="2">0</pdfrwt>
<totfact> 0.84776053E-04</totfact>
</mgrwt>
<clustering>
<clus scale="   33.914">  1  6  2 -1</clus>
<clus scale="  458.299">  4  5 -1 -1</clus>
<clus scale="  300.000">  1  4  2 -1</clus>
</clustering>
</event>
<event>
 6    1  0.9687246E-012  0.3000000E+03  0.7818608E-02  0.1093470E+00
          1   -1    0    0  502    0  0.00000000000E+00  0.00000000000E+00  0.23514270030E+03  0.23514270030E+03  0.00000000000E+00 0.  1.
         13   -1    0    0    0    0 -0.00000000000E+00 -0.00000000000E+00 -0.27500000000E+03  0.27500000000E+03  0.00000000000E+00 0.  1.
    9000005    2    1    2  501    0 -0.11860030049E+02 -0.35890412989E+02 -0.52895393994E+02  0.47015802874E+03  0.46564135042E+03 0.  0.
         13    1    3    3    0    0  0.10308996944E+03  0.11236041519E+03  0.13571873908E+03  0.20413716182E+03  0.00000000000E+00 0.  1.
          1    1    3    3  501    0 -0.11494999949E+03 -0.14825082818E+03 -0.18861413307E+03  0.26602086691E+03  0.00000000000E+00 0.  1.
         21    1    1    2  502  501  0.11860030049E+02  0.35890412989E+02  0.13038094297E+02  0.39984671565E+02  0.00000000000E+00 0. -1.
<scales pt_clust_4="550.00000" pt_clust_5="550.00000" pt_clust_6="37.79923"></scales>
<mgrwt>
<rscale>  0 0.30000000E+03</rscale>
<asrwt>  1 0.37799234E+02</asrwt>
<pdfrwt beam="1">  1        1 0.85506436E+00 0.30000000E+03</pdfrwt>
<pdfrwt beam="2">0</pdfrwt>
<totfact> 0.35863896E-04</totfact>
</mgrwt>
<clustering>
<clus scale="   37.799">  1  6  2 -1</clus>
<clus scale="  465.641">  4  5 -1 -1</clus>
<clus scale="  300.000">  1  4  2 -1</clus>
</clustering>
</event>
<event>
 6    1  0.9687246E-012  0.3000000E+03  0.7818608E-02  0.1093470E+00
          1   -1    0    0  502    0  0.00000000000E+00  0.00000000000E+00  0.24079302738E+03  0.24079302738E+03  0.00000000000E+00 0.  1.
         13   -1    0    0    0    0 -0.00000000000E+00 -0.00000000000E+00 -0.27500000000E+03  0.27500000000E+03  0.00000000000E+00 0.  1.
    9000005    2    1    2  501    0 -0.19130115012E+01  0.30351445289E+02 -0.53113351994E+02  0.47998351712E+03  0.47606541431E+03 0.  0.
         13    1    3    3    0    0 -0.22477868060E+03 -0.36834920206E+02 -0.88832649135E+02  0.24448620851E+03  0.00000000000E+00 0.  1.
          3    1    3    3  501    0  0.22286566910E+03  0.67186365495E+02  0.35719297141E+02  0.23549730861E+03  0.00000000000E+00 0.  1.
         21    1    1    2  502  501  0.19130115012E+01 -0.30351445289E+02  0.18906379376E+02  0.35809510262E+02  0.00000000000E+00 0. -1.
<scales pt_clust_4="550.00000" pt_clust_5="550.00000" pt_clust_6="30.41167"></scales>
<mgrwt>
<rscale>  0 0.30000000E+03</rscale>
<asrwt>  1 0.30411673E+02</asrwt>
<pdfrwt beam="1">  1        1 0.87561101E+00 0.30000000E+03</pdfrwt>
<pdfrwt beam="2">0</pdfrwt>
<totfact> 0.22756422E-04</totfact>
</mgrwt>
<clustering>
<clus scale="   30.412">  1  6  2 -1</clus>
<clus scale="  476.065">  4  5 -1 -1</clus>
<clus scale="  300.000">  1  4  2 -1</clus>
</clustering>
</event>
<event>
 6    1  0.9687246E-012  0.3000000E+03  0.7818608E-02  0.1093470E+00
          1   -1    0    0  502    0  0.00000000000E+00  0.00000000000E+00  0.23464867980E+03  0.23464867980E+03  0.00000000000E+00 0.  1.
         13   -1    0    0    0    0 -0.00000000000E+00 -0.00000000000E+00 -0.27500000000E+03  0.27500000000E+03  0.00000000000E+00 0.  1.
    9000005    2    1    2  501    0 -0.17667970320E+02 -0.24899078842E+02 -0.22618620512E+02  0.47434188244E+03  0.47281761614E+03 0.  0.
         13    1    3    3    0    0 -0.12358231174E+03 -0.69540555074E+02 -0.21066837121E+03  0.25394810336E+03  0.00000000000E+00 0.  1.
          3    1    3    3  501    0  0.10591434142E+03  0.44641476231E+02  0.18804975070E+03  0.22039377907E+03  0.00000000000E+00 0.  1.
         21    1    1    2  502  501  0.17667970320E+02  0.24899078842E+02 -0.17732699683E+02  0.35306797369E+02  0.00000000000E+00 0. -1.
<scales pt_clust_4="550.00000" pt_clust_5="550.00000" pt_clust_6="30.53068"></scales>
<mgrwt>
<rscale>  0 0.30000000E+03</rscale>
<asrwt>  1 0.30530677E+02</asrwt>
<pdfrwt beam="1">  1        1 0.85326793E+00 0.30000000E+03</pdfrwt>
<pdfrwt beam="2">0</pdfrwt>
<totfact> 0.38873496E-04</totfact>
</mgrwt>
<clustering>
<clus scale="   30.531">  1  6  2 -1</clus>
<clus scale="  472.818">  4  5 -1 -1</clus>
<clus scale="  300.000">  1  4  2 -1</clus>
</clustering>
</event>
<event>
 6    1  0.9687246E-012  0.3000000E+03  0.7818608E-02  0.1093470E+00
          1   -1    0    0  502    0  0.00000000000E+00  0.00000000000E+00  0.24820393926E+03  0.24820393926E+03  0.00000000000E+00 0.  1.
         13   -1    0    0    0    0 -0.00000000000E+00 -0.00000000000E+00 -0.27500000000E+03  0.27500000000E+03  0.00000000000E+00 0.  1.
    9000005    2    1    2  501    0  0.38985746531E+02 -0.17745580059E+02 -0.48633190746E+02  0.47512427317E+03  0.47068364500E+03 0.  0.
         13    1    3    3    0    0  0.30399363289E+02  0.77756692968E+01  0.21139223705E+03  0.21370835315E+03  0.00000000000E+00 0.  1.
          3    1    3    3  501    0  0.85863832424E+01 -0.25521249356E+02 -0.26002542779E+03  0.26141592003E+03  0.00000000000E+00 0.  1.
         21    1    1    2  502  501 -0.38985746531E+02  0.17745580059E+02  0.21837130009E+02  0.48079666089E+02  0.00000000000E+00 0.  1.
<scales pt_clust_4="550.00000" pt_clust_5="550.00000" pt_clust_6="42.83450"></scales>
<mgrwt>
<rscale>  0 0.30000000E+03</rscale>
<asrwt>  1 0.42834496E+02</asrwt>
<pdfrwt beam="1">  1        1 0.90255978E+00 0.30000000E+03</pdfrwt>
<pdfrwt beam="2">0</pdfrwt>
<totfact> 0.98110023E-05</totfact>
</mgrwt>
<clustering>
<clus scale="   42.834">  1  6  2 -1</clus>
<clus scale="  470.684">  4  5 -1 -1</clus>
<clus scale="  300.000">  1  4  2 -1</clus>
</clustering>
</event>
<event>
 6    1  0.9687246E-012  0.3000000E+03  0.7818608E-02  0.1093470E+00
          1   -1    0    0  502    0  0.00000000000E+00  0.00000000000E+00  0.25447728374E+03  0.25447728374E+03  0.00000000000E+00 0.  1.
         13   -1    0    0    0    0 -0.00000000000E+00 -0.00000000000E+00 -0.27500000000E+03  0.27500000000E+03  0.00000000000E+00 0.  1.
    9000005    2    1    2  501    0 -0.43164714215E+01  0.52322570317E+02 -0.35191125014E+02  0.47496631690E+03  0.47074229003E+03 0.  0.
         13    1    3    3    0    0 -0.43541075274E+02  0.23251686953E+03 -0.12750962602E+03  0.26873523137E+03  0.00000000000E+00 0.  1.
          3    1    3    3  501    0  0.39224603853E+02 -0.18019429921E+03  0.92318501002E+02  0.20623108554E+03  0.00000000000E+00 0.  1.
         21    1    1    2  502  501  0.43164714215E+01 -0.52322570317E+02  0.14668408756E+02  0.54510966837E+02  0.00000000000E+00 0.  1.
<scales pt_clust_4="550.00000" pt_clust_5="550.00000" pt_clust_6="52.50032"></scales>
<mgrwt>
<rscale>  0 0.30000000E+03</rscale>
<asrwt>  1 0.52500317E+02</asrwt>
<pdfrwt beam="1">  1        1 0.92537194E+00 0.30000000E+03</pdfrwt>
<pdfrwt beam="2">0</pdfrwt>
<totfact> 0.29948943E-05</totfact>
</mgrwt>
<clustering>
<clus scale="   52.500">  1  6  2 -1</clus>
<clus scale="  470.742">  4  5 -1 -1</clus>
<clus scale="  300.000">  1  4  2 -1</clus>
</clustering>
</event>
<event>
 6    1  0.9687246E-012  0.3000000E+03  0.7818608E-02  0.1093470E+00
          1   -1    0    0  502    0  0.00000000000E+00  0.00000000000E+00  0.26238021806E+03  0.26238021806E+03  0.00000000000E+00 0.  1.
         13   -1    0    0    0    0 -0.00000000000E+00 -0.00000000000E+00 -0.27500000000E+03  0.27500000000E+03  0.00000000000E+00 0.  1.
    9000005    2    1    2  501    0  0.35599769771E+02  0.10679888953E+00 -0.29545661189E+02  0.49796143571E+03  0.49580771509E+03 0.  0.
         13    1    3    3    0    0  0.56945224974E+02 -0.24199989239E+03 -0.51630781505E+02  0.25391424569E+03  0.00000000000E+00 0.  1.
          1    1    3    3  501    0 -0.21345455203E+02  0.24210669128E+03  0.22085120316E+02  0.24404719002E+03  0.00000000000E+00 0.  1.
         21    1    1    2  502  501 -0.35599769771E+02 -0.10679888953E+00  0.16925879251E+02  0.39418782352E+02  0.00000000000E+00 0.  1.
<scales pt_clust_4="550.00000" pt_clust_5="550.00000" pt_clust_6="35.59993"></scales>
<mgrwt>
<rscale>  0 0.30000000E+03</rscale>
<asrwt>  1 0.35599930E+02</asrwt>
<pdfrwt beam="1">  1        1 0.95410988E+00 0.30000000E+03</pdfrwt>
<pdfrwt beam="2">0</pdfrwt>
<totfact> 0.10104818E-05</totfact>
</mgrwt>
<clustering>
<clus scale="   35.600">  1  6  2 -1</clus>
<clus scale="  495.808">  4  5 -1 -1</clus>
<clus scale="  300.000">  1  4  2 -1</clus>
</clustering>
</event>
<event>
 6    1  0.9687246E-012  0.3000000E+03  0.7818608E-02  0.1093470E+00
          1   -1    0    0  502    0  0.00000000000E+00  0.00000000000E+00  0.23752093940E+03  0.23752093940E+03  0.00000000000E+00 0.  1.
         13   -1    0    0    0    0 -0.00000000000E+00 -0.00000000000E+00 -0.27500000000E+03  0.27500000000E+03  0.00000000000E+00 0.  1.
    9000005    2    1    2  501    0 -0.28183331771E+02  0.16678752484E+02 -0.33130241379E+02  0.47948469866E+03  0.47721638947E+03 0.  0.
         13    1    3    3    0    0 -0.23631311396E+03 -0.24268956738E+02  0.64233706865E+02  0.24608705612E+03  0.00000000000E+00 0.  1.
          1    1    3    3  501    0  0.20812978219E+03  0.40947709222E+02 -0.97363948244E+02  0.23339764254E+03  0.00000000000E+00 0.  1.
         21    1    1    2  502  501  0.28183331771E+02 -0.16678752484E+02 -0.43488192189E+01  0.33036240747E+02  0.00000000000E+00 0.  1.
<scales pt_clust_4="550.00000" pt_clust_5="550.00000" pt_clust_6="32.74877"></scales>
<mgrwt>
<rscale>  0 0.30000000E+03</rscale>
<asrwt>  1 0.32748772E+02</asrwt>
<pdfrwt beam="1">  1        1 0.86371251E+00 0.30000000E+03</pdfrwt>
<pdfrwt beam="2">0</pdfrwt>
<totfact> 0.29870546E-04</totfact>
</mgrwt>
<clustering>
<clus scale="   32.749">  1  6  2 -1</clus>
<clus scale="  477.216">  4  5 -1 -1</clus>
<clus scale="  300.000">  1  4  2 -1</clus>
</clustering>
</event>
<event>
 6    1  0.9687246E-012  0.3000000E+03  0.7818608E-02  0.1093470E+00
          1   -1    0    0  502    0  0.00000000000E+00  0.00000000000E+00  0.24065474650E+03  0.24065474650E+03  0.00000000000E+00 0.  1.
         13   -1    0    0    0    0 -0.00000000000E+00 -0.00000000000E+00 -0.27500000000E+03  0.27500000000E+03  0.00000000000E+00 0.  1.
    9000005    2    1    2  501    0 -0.13167881953E+02 -0.30287090613E+02 -0.49245693318E+02  0.47942321217E+03  0.47574234317E+03 0.  0.
         13    1    3    3    0    0  0.79068862020E+02 -0.23182561137E+03 -0.75306380668E+02  0.25625387801E+03  0.00000000000E+00 0.  1.
          1    1    3    3  501    0 -0.92236743973E+02  0.20153852075E+03  0.26060687350E+02  0.22316933416E+03  0.00000000000E+00 0.  1.
         21    1    1    2  502  501  0.13167881953E+02  0.30287090613E+02  0.14900439822E+02  0.36231534329E+02  0.00000000000E+00 0. -1.
<scales pt_clust_4="550.00000" pt_clust_5="550.00000" pt_clust_6="33.02576"></scales>
<mgrwt>
<rscale>  0 0.30000000E+03</rscale>
<asrwt>  1 0.33025762E+02</asrwt>
<pdfrwt beam="1">  1        1 0.87510817E+00 0.30000000E+03</pdfrwt>
<pdfrwt beam="2">0</pdfrwt>
<totfact> 0.22679719E-04</totfact>
</mgrwt>
<clustering>
<clus scale="   33.026">  1  6  2 -1</clus>
<clus scale="  475.742">  4  5 -1 -1</clus>
<clus scale="  300.000">  1  4  2 -1</clus>
</clustering>
</event>
<event>
 6    1  0.9687246E-012  0.3000000E+03  0.7818608E-02  0.1093470E+00
          1   -1    0    0  502    0  0.00000000000E+00  0.00000000000E+00  0.22489081283E+03  0.22489081283E+03  0.00000000000E+00 0.  1.
         13   -1    0    0    0    0 -0.00000000000E+00 -0.00000000000E+00 -0.27500000000E+03  0.27500000000E+03  0.00000000000E+00 0.  1.
    9000005    2    1    2  501    0  0.31857256027E+02  0.15823957574E+02 -0.63019007223E+02  0.46204975248E+03  0.45634777977E+03 0.  0.
         13    1    3    3    0    0  0.20445513853E+03  0.55995713249E+02  0.87703075493E+02  0.22941066458E+03  0.00000000000E+00 0.  1.
          3    1    3    3  501    0 -0.17259788250E+03 -0.40171755675E+02 -0.15072208272E+03  0.23263908790E+03  0.00000000000E+00 0.  1.
         21    1    1    2  502  501 -0.31857256027E+02 -0.15823957574E+02  0.12909820056E+02  0.37841060354E+02  0.00000000000E+00 0. -1.
<scales pt_clust_4="550.00000" pt_clust_5="550.00000" pt_clust_6="35.57081"></scales>
<mgrwt>
<rscale>  0 0.30000000E+03</rscale>
<asrwt>  1 0.35570808E+02</asrwt>
<pdfrwt beam="1">  1        1 0.81778477E+00 0.30000000E+03</pdfrwt>
<pdfrwt beam="2">0</pdfrwt>
<totfact> 0.75305402E-04</totfact>
</mgrwt>
<clustering>
<clus scale="   35.571">  1  6  2 -1</clus>
<clus scale="  456.348">  4  5 -1 -1</clus>
<clus scale="  300.000">  1  4  2 -1</clus>
</clustering>
</event>
<event>
 6    1  0.9687246E-012  0.3000000E+03  0.7818608E-02  0.1093470E+00
          1   -1    0    0  502    0  0.00000000000E+00  0.00000000000E+00  0.24497104694E+03  0.24497104694E+03  0.00000000000E+00 0.  1.
         13   -1    0    0    0    0 -0.00000000000E+00 -0.00000000000E+00 -0.27500000000E+03  0.27500000000E+03  0.00000000000E+00 0.  1.
    9000005    2    1    2  501    0  0.14725294056E+02  0.31608411487E+02 -0.54769792593E+02  0.47721551978E+03  0.47277795653E+03 0.  0.
         13    1    3    3    0    0 -0.98297607401E+02 -0.16103152195E+03  0.92061468322E+02  0.20992590272E+03  0.00000000000E+00 0.  1.
          1    1    3    3  501    0  0.11302290146E+03  0.19263993344E+03 -0.14683126091E+03  0.26728961706E+03  0.00000000000E+00 0.  1.
         21    1    1    2  502  501 -0.14725294056E+02 -0.31608411487E+02  0.24740839530E+02  0.42755527156E+02  0.00000000000E+00 0.  1.
<scales pt_clust_4="550.00000" pt_clust_5="550.00000" pt_clust_6="34.87013"></scales>
<mgrwt>
<rscale>  0 0.30000000E+03</rscale>
<asrwt>  1 0.34870130E+02</asrwt>
<pdfrwt beam="1">  1        1 0.89080381E+00 0.30000000E+03</pdfrwt>
<pdfrwt beam="2">0</pdfrwt>
<totfact> 0.14157045E-04</totfact>
</mgrwt>
<clustering>
<clus scale="   34.870">  1  6  2 -1</clus>
<clus scale="  472.778">  4  5 -1 -1</clus>
<clus scale="  300.000">  1  4  2 -1</clus>
</clustering>
</event>
<event>
 6    1  0.9687246E-012  0.3000000E+03  0.7818608E-02  0.1093470E+00
          1   -1    0    0  502    0  0.00000000000E+00  0.00000000000E+00  0.23034261987E+03  0.23034261987E+03  0.00000000000E+00 0.  1.
         13   -1    0    0    0    0 -0.00000000000E+00 -0.00000000000E+00 -0.27500000000E+03  0.27500000000E+03  0.00000000000E+00 0.  1.
    9000005    2    1    2  501    0  0.31755969909E+02  0.21544975572E+02 -0.44319837107E+02  0.46696630513E+03  0.46327168548E+03 0.  0.
         13    1    3    3    0    0  0.15797747483E+03 -0.31826733710E+01  0.16042485865E+03  0.22517359356E+03  0.00000000000E+00 0.  1.
          1    1    3    3  501    0 -0.12622150492E+03  0.24727648943E+02 -0.20474469576E+03  0.24179271157E+03  0.00000000000E+00 0.  1.
         21    1    1    2  502  501 -0.31755969909E+02 -0.21544975572E+02 -0.33754302565E+00  0.38376314734E+02  0.00000000000E+00 0. -1.
<scales pt_clust_4="550.00000" pt_clust_5="550.00000" pt_clust_6="38.37483"></scales>
<mgrwt>
<rscale>  0 0.30000000E+03</rscale>
<asrwt>  1 0.38374830E+02</asrwt>
<pdfrwt beam="1">  1        1 0.83760953E+00 0.30000000E+03</pdfrwt>
<pdfrwt beam="2">0</pdfrwt>
<totfact> 0.50910105E-04</totfact>
</mgrwt>
<clustering>
<clus scale="   38.375">  1  6  2 -1</clus>
<clus scale="  463.272">  4  5 -1 -1</clus>
<clus scale="  300.000">  1  4  2 -1</clus>
</clustering>
</event>
<event>
 6    1  0.9687246E-012  0.3000000E+03  0.7818608E-02  0.1093470E+00
          1   -1    0    0  502    0  0.00000000000E+00  0.00000000000E+00  0.22714142350E+03  0.22714142350E+03  0.00000000000E+00 0.  1.
         13   -1    0    0    0    0 -0.00000000000E+00 -0.00000000000E+00 -0.27500000000E+03  0.27500000000E+03  0.00000000000E+00 0.  1.
    9000005    2    1    2  501    0  0.10218029437E+02  0.33998046961E+02 -0.56206715577E+02  0.46567271432E+03  0.46090303391E+03 0.  0.
         13    1    3    3    0    0 -0.12597505646E+03  0.78964632716E+02  0.15214501079E+03  0.21272807144E+03  0.00000000000E+00 0.  1.
          1    1    3    3  501    0  0.13619308590E+03 -0.44966585754E+02 -0.20835172637E+03  0.25294464288E+03  0.00000000000E+00 0.  1.
         21    1    1    2  502  501 -0.10218029437E+02 -0.33998046961E+02  0.83481390740E+01  0.36468709173E+02  0.00000000000E+00 0.  1.
<scales pt_clust_4="550.00000" pt_clust_5="550.00000" pt_clust_6="35.50036"></scales>
<mgrwt>
<rscale>  0 0.30000000E+03</rscale>
<asrwt>  1 0.35500357E+02</asrwt>
<pdfrwt beam="1">  1        1 0.82596881E+00 0.30000000E+03</pdfrwt>
<pdfrwt beam="2">0</pdfrwt>
<totfact> 0.63862812E-04</totfact>
</mgrwt>
<clustering>
<clus scale="   35.500">  1  6  2 -1</clus>
<clus scale="  460.903">  4  5 -1 -1</clus>
<clus scale="  300.000">  1  4  2 -1</clus>
</clustering>
</event>
<event>
 6    1  0.9687246E-012  0.3000000E+03  0.7818608E-02  0.1093470E+00
          1   -1    0    0  502    0  0.00000000000E+00  0.00000000000E+00  0.23041501632E+03  0.23041501632E+03  0.00000000000E+00 0.  1.
         13   -1    0    0    0    0 -0.00000000000E+00 -0.00000000000E+00 -0.27500000000E+03  0.27500000000E+03  0.00000000000E+00 0.  1.
    9000005    2    1    2  501    0 -0.17237361628E+01  0.30646683334E+02 -0.59266652010E+02  0.47138941051E+03  0.46664038599E+03 0.  0.
         13    1    3    3    0    0  0.22371858127E+03  0.62078079960E+02 -0.72930398041E+02  0.24335680508E+03  0.00000000000E+00 0.  1.
          3    1    3    3  501    0 -0.22544231744E+03 -0.31431396626E+02  0.13663746031E+02  0.22803260543E+03  0.00000000000E+00 0.  1.
         21    1    1    2  502  501  0.17237361628E+01 -0.30646683334E+02  0.14681668330E+02  0.34025605809E+02  0.00000000000E+00 0. -1.
<scales pt_clust_4="550.00000" pt_clust_5="550.00000" pt_clust_6="30.69512"></scales>
<mgrwt>
<rscale>  0 0.30000000E+03</rscale>
<asrwt>  1 0.30695121E+02</asrwt>
<pdfrwt beam="1">  1        1 0.83787279E+00 0.30000000E+03</pdfrwt>
<pdfrwt beam="2">0</pdfrwt>
<totfact> 0.52855046E-04</totfact>
</mgrwt>
<clustering>
<clus scale="   30.695">  1  6  2 -1</clus>
<clus scale="  466.640">  4  5 -1 -1</clus>
<clus scale="  300.000">  1  4  2 -1</clus>
</clustering>
</event>
<event>
 6    1  0.9687246E-012  0.3000000E+03  0.7818608E-02  0.1093470E+00
          1   -1    0    0  502    0  0.00000000000E+00  0.00000000000E+00  0.22434490880E+03  0.22434490880E+03  0.00000000000E+00 0.  1.
         13   -1    0    0    0    0 -0.00000000000E+00 -0.00000000000E+00 -0.27500000000E+03  0.27500000000E+03  0.00000000000E+00 0.  1.
    9000005    2    1    2  501    0  0.18618234897E+02  0.31881735616E+02 -0.46135805349E+02  0.46214937572E+03  0.45835624705E+03 0.  0.
         13    1    3    3    0    0  0.11633697382E+02  0.10287131869E+03  0.18950971827E+03  0.21594393819E+03  0.00000000000E+00 0.  1.
          1    1    3    3  501    0  0.69845375150E+01 -0.70989583074E+02 -0.23564552361E+03  0.24620543753E+03  0.00000000000E+00 0.  1.
         21    1    1    2  502  501 -0.18618234897E+02 -0.31881735616E+02 -0.45192858509E+01  0.37195533081E+02  0.00000000000E+00 0. -1.
<scales pt_clust_4="550.00000" pt_clust_5="550.00000" pt_clust_6="36.91998"></scales>
<mgrwt>
<rscale>  0 0.30000000E+03</rscale>
<asrwt>  1 0.36919982E+02</asrwt>
<pdfrwt beam="1">  1        1 0.81579967E+00 0.30000000E+03</pdfrwt>
<pdfrwt beam="2">0</pdfrwt>
<totfact> 0.77648411E-04</totfact>
</mgrwt>
<clustering>
<clus scale="   36.920">  1  6  2 -1</clus>
<clus scale="  458.356">  4  5 -1 -1</clus>
<clus scale="  300.000">  1  4  2 -1</clus>
</clustering>
</event>
<event>
 6    1  0.9687246E-012  0.3000000E+03  0.7818608E-02  0.1093470E+00
          1   -1    0    0  502    0  0.00000000000E+00  0.00000000000E+00  0.23245267267E+03  0.23245267267E+03  0.00000000000E+00 0.  1.
         13   -1    0    0    0    0 -0.00000000000E+00 -0.00000000000E+00 -0.27500000000E+03  0.27500000000E+03  0.00000000000E+00 0.  1.
    9000005    2    1    2  501    0  0.32202286009E+01 -0.37341784118E+02 -0.39376131110E+02  0.46983837753E+03  0.46668280726E+03 0.  0.
         13    1    3    3    0    0  0.61215709907E+02 -0.18629097737E+03  0.13130878279E+03  0.23599510127E+03  0.00000000000E+00 0.  1.
          1    1    3    3  501    0 -0.57995481306E+02  0.14894919325E+03 -0.17068491390E+03  0.23384327626E+03  0.00000000000E+00 0.  1.
         21    1    1    2  502  501 -0.32202286009E+01  0.37341784118E+02 -0.31711962169E+01  0.37614295139E+02  0.00000000000E+00 0.  1.
<scales pt_clust_4="550.00000" pt_clust_5="550.00000" pt_clust_6="37.48040"></scales>
<mgrwt>
<rscale>  0 0.30000000E+03</rscale>
<asrwt>  1 0.37480396E+02</asrwt>
<pdfrwt beam="1">  1        1 0.84528245E+00 0.30000000E+03</pdfrwt>
<pdfrwt beam="2">0</pdfrwt>
<totfact> 0.44357589E-04</totfact>
</mgrwt>
<clustering>
<clus scale="   37.480">  1  6  2 -1</clus>
<clus scale="  466.683">  4  5 -1 -1</clus>
<clus scale="  300.000">  1  4  2 -1</clus>
</clustering>
</event>
<event>
 6    1  0.9687246E-012  0.3000000E+03  0.7818608E-02  0.1093470E+00
          1   -1    0    0  502    0  0.00000000000E+00  0.00000000000E+00  0.25314394468E+03  0.25314394468E+03  0.00000000000E+00 0.  1.
         13   -1    0    0    0    0 -0.00000000000E+00 -0.00000000000E+00 -0.27500000000E+03  0.27500000000E+03  0.00000000000E+00 0.  1.
    9000005    2    1    2  501    0 -0.33008771302E+02 -0.12848424259E+02 -0.53451099232E+02  0.48067913889E+03  0.47638299043E+03 0.  0.
         13    1    3    3    0    0  0.10666579438E+03  0.85362602360E+02  0.15801445001E+03  0.20888497309E+03  0.00000000000E+00 0.  1.
          1    1    3    3  501    0 -0.13967456568E+03 -0.98211026618E+02 -0.21146554924E+03  0.27179416580E+03  0.00000000000E+00 0.  1.
         21    1    1    2  502  501  0.33008771302E+02  0.12848424259E+02  0.31595043913E+02  0.47464805789E+02  0.00000000000E+00 0.  1.
<scales pt_clust_4="550.00000" pt_clust_5="550.00000" pt_clust_6="35.42119"></scales>
<mgrwt>
<rscale>  0 0.30000000E+03</rscale>
<asrwt>  1 0.35421194E+02</asrwt>
<pdfrwt beam="1">  1        1 0.92052344E+00 0.30000000E+03</pdfrwt>
<pdfrwt beam="2">0</pdfrwt>
<totfact> 0.40633722E-05</totfact>
</mgrwt>
<clustering>
<clus scale="   35.421">  1  6  2 -1</clus>
<clus scale="  476.383">  4  5 -1 -1</clus>
<clus scale="  300.000">  1  4  2 -1</clus>
</clustering>
</event>
<event>
 6    1  0.9687246E-012  0.3000000E+03  0.7818608E-02  0.1093470E+00
          1   -1    0    0  502    0  0.00000000000E+00  0.00000000000E+00  0.23820542743E+03  0.23820542743E+03  0.00000000000E+00 0.  1.
         13   -1    0    0    0    0 -0.00000000000E+00 -0.00000000000E+00 -0.27500000000E+03  0.27500000000E+03  0.00000000000E+00 0.  1.
    9000005    2    1    2  501    0 -0.19371669472E+02 -0.23422475799E+02 -0.72596376259E+02  0.46624115273E+03  0.45955054641E+03 0.  0.
         13    1    3    3    0    0 -0.61565603268E+02  0.19800810616E+03 -0.11464065196E+03  0.23693883745E+03  0.00000000000E+00 0.  1.
          3    1    3    3  501    0  0.42193933795E+02 -0.22143058196E+03  0.42044275703E+02  0.22930231528E+03  0.00000000000E+00 0.  1.
         21    1    1    2  502  501  0.19371669472E+02  0.23422475799E+02  0.35801803693E+02  0.46964274703E+02  0.00000000000E+00 0.  1.
<scales pt_clust_4="550.00000" pt_clust_5="550.00000" pt_clust_6="30.39529"></scales>
<mgrwt>
<rscale>  0 0.30000000E+03</rscale>
<asrwt>  1 0.30395295E+02</asrwt>
<pdfrwt beam="1">  1        1 0.86620155E+00 0.30000000E+03</pdfrwt>
<pdfrwt beam="2">0</pdfrwt>
<totfact> 0.28487679E-04</totfact>
</mgrwt>
<clustering>
<clus scale="   30.395">  1  6  2 -1</clus>
<clus scale="  459.551">  4  5 -1 -1</clus>
<clus scale="  300.000">  1  4  2 -1</clus>
</clustering>
</event>
<event>
 6    1  0.9687246E-012  0.3000000E+03  0.7818608E-02  0.1093470E+00
          1   -1    0    0  502    0  0.00000000000E+00  0.00000000000E+00  0.22466527774E+03  0.22466527774E+03  0.00000000000E+00 0.  1.
         13   -1    0    0    0    0 -0.00000000000E+00 -0.00000000000E+00 -0.27500000000E+03  0.27500000000E+03  0.00000000000E+00 0.  1.
    9000005    2    1    2  501    0  0.91950879252E+01 -0.30402952935E+02 -0.46425614825E+02  0.46766261675E+03  0.46426726808E+03 0.  0.
         13    1    3    3    0    0 -0.61985055624E+02  0.19705542049E+03 -0.90082298269E+02  0.22536150143E+03  0.00000000000E+00 0.  1.
          1    1    3    3  501    0  0.71180143549E+02 -0.22745837343E+03  0.43656683444E+02  0.24230111532E+03  0.00000000000E+00 0.  1.
         21    1    1    2  502  501 -0.91950879252E+01  0.30402952935E+02 -0.39091074375E+01  0.32002660985E+02  0.00000000000E+00 0. -1.
<scales pt_clust_4="550.00000" pt_clust_5="550.00000" pt_clust_6="31.76303"></scales>
<mgrwt>
<rscale>  0 0.30000000E+03</rscale>
<asrwt>  1 0.31763032E+02</asrwt>
<pdfrwt beam="1">  1        1 0.81696465E+00 0.30000000E+03</pdfrwt>
<pdfrwt beam="2">0</pdfrwt>
<totfact> 0.78139421E-04</totfact>
</mgrwt>
<clustering>
<clus scale="   31.763">  1  6  2 -1</clus>
<clus scale="  464.267">  4  5 -1 -1</clus>
<clus scale="  300.000">  1  4  2 -1</clus>
</clustering>
</event>
<event>
 6    1  0.9687246E-012  0.3000000E+03  0.7818608E-02  0.1093470E+00
          1   -1    0    0  502    0  0.00000000000E+00  0.00000000000E+00  0.22734116442E+03  0.22734116442E+03  0.00000000000E+00 0.  1.
         13   -1    0    0    0    0 -0.00000000000E+00 -0.00000000000E+00 -0.27500000000E+03  0.27500000000E+03  0.00000000000E+00 0.  1.
    9000005    2    1    2  501    0  0.33688915342E+01  0.30227717137E+02 -0.70051448913E+02  0.46457221626E+03  0.45825219510E+03 0.  0.
         13    1    3    3    0    0 -0.16210748257E+03  0.13286469129E+03  0.74085642490E+02  0.22230731998E+03  0.00000000000E+00 0.  1.
          1    1    3    3  501    0  0.16547637410E+03 -0.10263697415E+03 -0.14413709140E+03  0.24226489627E+03  0.00000000000E+00 0.  1.
         21    1    1    2  502  501 -0.33688915342E+01 -0.30227717137E+02  0.22392613337E+02  0.37768948166E+02  0.00000000000E+00 0. -1.
<scales pt_clust_4="550.00000" pt_clust_5="550.00000" pt_clust_6="30.41487"></scales>
<mgrwt>
<rscale>  0 0.30000000E+03</rscale>
<asrwt>  1 0.30414870E+02</asrwt>
<pdfrwt beam="1">  1        1 0.82669514E+00 0.30000000E+03</pdfrwt>
<pdfrwt beam="2">0</pdfrwt>
<totfact> 0.64792777E-04</totfact>
</mgrwt>
<clustering>
<clus scale="   30.415">  1  6  2 -1</clus>
<clus scale="  458.252">  4  5 -1 -1</clus>
<clus scale="  300.000">  1  4  2 -1</clus>
</clustering>
</event>
<event>
 6    1  0.9687246E-012  0.3000000E+03  0.7818608E-02  0.1093470E+00
          1   -1    0    0  502    0  0.00000000000E+00  0.00000000000E+00  0.25048124308E+03  0.25048124308E+03  0.00000000000E+00 0.  1.
         13   -1    0    0    0    0 -0.00000000000E+00 -0.00000000000E+00 -0.27500000000E+03  0.27500000000E+03  0.00000000000E+00 0.  1.
    9000005    2    1    2  501    0  0.31527224695E+02 -0.22008615939E+02 -0.46630559161E+02  0.48112724810E+03  0.47731611616E+03 0.  0.
         13    1    3    3    0    0  0.24961813608E+03  0.24868113736E+02  0.97409511677E+01  0.25104287098E+03  0.00000000000E+00 0.  1.
          1    1    3    3  501    0 -0.21809091139E+03 -0.46876729674E+02 -0.56371510329E+02  0.23008437711E+03  0.00000000000E+00 0.  1.
         21    1    1    2  502  501 -0.31527224695E+02  0.22008615939E+02  0.22111802241E+02  0.44353994982E+02  0.00000000000E+00 0. -1.
<scales pt_clust_4="550.00000" pt_clust_5="550.00000" pt_clust_6="38.44925"></scales>
<mgrwt>
<rscale>  0 0.30000000E+03</rscale>
<asrwt>  1 0.38449253E+02</asrwt>
<pdfrwt beam="1">  1        1 0.91084088E+00 0.30000000E+03</pdfrwt>
<pdfrwt beam="2">0</pdfrwt>
<totfact> 0.67337963E-05</totfact>
</mgrwt>
<clustering>
<clus scale="   38.449">  1  6  2 -1</clus>
<clus scale="  477.316">  4  5 -1 -1</clus>
<clus scale="  300.000">  1  4  2 -1</clus>
</clustering>
</event>
<event>
 6    1  0.9687246E-012  0.3000000E+03  0.7818608E-02  0.1093470E+00
          1   -1    0    0  502    0  0.00000000000E+00  0.00000000000E+00  0.22594245582E+03  0.22594245582E+03  0.00000000000E+00 0.  1.
         13   -1    0    0    0    0 -0.00000000000E+00 -0.00000000000E+00 -0.27500000000E+03  0.27500000000E+03  0.00000000000E+00 0.  1.
    9000005    2    1    2  501    0 -0.23428813936E+02  0.23614327444E+02 -0.44385511007E+02  0.46735118199E+03  0.46404795866E+03 0.  0.
         13    1    3    3    0    0  0.12407699456E+03 -0.10936605072E+03  0.12420716479E+03  0.20684161432E+03  0.00000000000E+00 0.  1.
          3    1    3    3  501    0 -0.14750580850E+03  0.13298037816E+03 -0.16859267580E+03  0.26050956767E+03  0.00000000000E+00 0.  1.
         21    1    1    2  502  501  0.23428813936E+02 -0.23614327444E+02 -0.46720331763E+01  0.33591273823E+02  0.00000000000E+00 0.  1.
<scales pt_clust_4="550.00000" pt_clust_5="550.00000" pt_clust_6="33.26480"></scales>
<mgrwt>
<rscale>  0 0.30000000E+03</rscale>
<asrwt>  1 0.33264800E+02</asrwt>
<pdfrwt beam="1">  1        1 0.82160893E+00 0.30000000E+03</pdfrwt>
<pdfrwt beam="2">0</pdfrwt>
<totfact> 0.70694531E-04</totfact>
</mgrwt>
<clustering>
<clus scale="   33.265">  1  6  2 -1</clus>
<clus scale="  464.048">  4  5 -1 -1</clus>
<clus scale="  300.000">  1  4  2 -1</clus>
</clustering>
</event>
<event>
 6    1  0.9687246E-012  0.3000000E+03  0.7818608E-02  0.1093470E+00
          1   -1    0    0  502    0  0.00000000000E+00  0.00000000000E+00  0.23110068569E+03  0.23110068569E+03  0.00000000000E+00 0.  1.
         13   -1    0    0    0    0 -0.00000000000E+00 -0.00000000000E+00 -0.27500000000E+03  0.27500000000E+03  0.00000000000E+00 0.  1.
    9000005    2    1    2  501    0 -0.30037191949E+02  0.12392494026E+02 -0.45050784004E+02  0.47358710867E+03  0.47031837041E+03 0.  0.
         13    1    3    3    0    0  0.14595646512E+03 -0.12166646004E+03 -0.13674115250E+03  0.23410288336E+03  0.00000000000E+00 0.  1.
          3    1    3    3  501    0 -0.17599365707E+03  0.13405895407E+03  0.91690368497E+02  0.23948422531E+03  0.00000000000E+00 0.  1.
         21    1    1    2  502  501  0.30037191949E+02 -0.12392494026E+02  0.11514696928E+01  0.32513577023E+02  0.00000000000E+00 0.  1.
<scales pt_clust_4="550.00000" pt_clust_5="550.00000" pt_clust_6="32.49318"></scales>
<mgrwt>
<rscale>  0 0.30000000E+03</rscale>
<asrwt>  1 0.32493181E+02</asrwt>
<pdfrwt beam="1">  1        1 0.84036613E+00 0.30000000E+03</pdfrwt>
<pdfrwt beam="2">0</pdfrwt>
<totfact> 0.50077915E-04</totfact>
</mgrwt>
<clustering>
<clus scale="   32.493">  1  6  2 -1</clus>
<clus scale="  470.318">  4  5 -1 -1</clus>
<clus scale="  300.000">  1  4  2 -1</clus>
</clustering>
</event>
<event>
 6    1  0.9687246E-012  0.3000000E+03  0.7818608E-02  0.1093470E+00
          1   -1    0    0  502    0  0.00000000000E+00  0.00000000000E+00  0.22848380907E+03  0.22848380907E+03  0.00000000000E+00 0.  1.
         13   -1    0    0    0    0 -0.00000000000E+00 -0.00000000000E+00 -0.27500000000E+03  0.27500000000E+03  0.00000000000E+00 0.  1.
    9000005    2    1    2  501    0 -0.25120992716E+01  0.30452037423E+02 -0.64235972198E+02  0.46816203287E+03  0.46272647608E+03 0.  0.
         13    1    3    3    0    0 -0.97227830122E+02 -0.17943690898E+03  0.51441850134E+02  0.21046880814E+03  0.00000000000E+00 0.  1.
          1    1    3    3  501    0  0.94715730851E+02  0.20988894640E+03 -0.11567782233E+03  0.25769322473E+03  0.00000000000E+00 0.  1.
         21    1    1    2  502  501  0.25120992716E+01 -0.30452037423E+02  0.17719781265E+02  0.35321776201E+02  0.00000000000E+00 0.  1.
<scales pt_clust_4="550.00000" pt_clust_5="550.00000" pt_clust_6="30.55548"></scales>
<mgrwt>
<rscale>  0 0.30000000E+03</rscale>
<asrwt>  1 0.30555478E+02</asrwt>
<pdfrwt beam="1">  1        1 0.83085021E+00 0.30000000E+03</pdfrwt>
<pdfrwt beam="2">0</pdfrwt>
<totfact> 0.59683785E-04</totfact>
</mgrwt>
<clustering>
<clus scale="   30.555">  1  6  2 -1</clus>
<clus scale="  462.726">  4  5 -1 -1</clus>
<clus scale="  300.000">  1  4  2 -1</clus>
</clustering>
</event>
<event>
 6    1  0.9687246E-012  0.3000000E+03  0.7818608E-02  0.1093470E+00
          1   -1    0    0  502    0  0.00000000000E+00  0.00000000000E+00  0.23996914931E+03  0.23996914931E+03  0.00000000000E+00 0.  1.
         13   -1    0    0    0    0 -0.00000000000E+00 -0.00000000000E+00 -0.27500000000E+03  0.27500000000E+03  0.00000000000E+00 0.  1.
    9000005    2    1    2  501    0 -0.75292211727E+01  0.34279664514E+02 -0.44534299697E+02  0.47860845468E+03  0.47523779782E+03 0.  0.
         13    1    3    3    0    0 -0.14321153675E+03  0.13994068162E+03  0.12587150079E+03  0.23650914007E+03  0.00000000000E+00 0.  1.
          1    1    3    3  501    0  0.13568231557E+03 -0.10566101710E+03 -0.17040580048E+03  0.24209931461E+03  0.00000000000E+00 0.  1.
         21    1    1    2  502  501  0.75292211727E+01 -0.34279664514E+02  0.95034490039E+01  0.36360694625E+02  0.00000000000E+00 0. -1.
<scales pt_clust_4="550.00000" pt_clust_5="550.00000" pt_clust_6="35.09679"></scales>
<mgrwt>
<rscale>  0 0.30000000E+03</rscale>
<asrwt>  1 0.35096789E+02</asrwt>
<pdfrwt beam="1">  1        1 0.87261509E+00 0.30000000E+03</pdfrwt>
<pdfrwt beam="2">0</pdfrwt>
<totfact> 0.23801614E-04</totfact>
</mgrwt>
<clustering>
<clus scale="   35.097">  1  6  2 -1</clus>
<clus scale="  475.238">  4  5 -1 -1</clus>
<clus scale="  300.000">  1  4  2 -1</clus>
</clustering>
</event>
<event>
 6    1  0.9687246E-012  0.3000000E+03  0.7818608E-02  0.1093470E+00
          1   -1    0    0  502    0  0.00000000000E+00  0.00000000000E+00  0.21962174668E+03  0.21962174668E+03  0.00000000000E+00 0.  1.
         13   -1    0    0    0    0 -0.00000000000E+00 -0.00000000000E+00 -0.27500000000E+03  0.27500000000E+03  0.00000000000E+00 0.  1.
    9000005    2    1    2  501    0  0.32900379253E+02  0.43759124562E+01 -0.44493080372E+02  0.45969223831E+03  0.45632853976E+03 0.  0.
         13    1    3    3    0    0  0.15100310807E+02  0.61544897228E+02 -0.24363606169E+03  0.25174257550E+03  0.00000000000E+00 0.  1.
          1    1    3    3  501    0  0.17800068446E+02 -0.57168984772E+02  0.19914298132E+03  0.20794966282E+03  0.00000000000E+00 0.  1.
         21    1    1    2  502  501 -0.32900379253E+02 -0.43759124562E+01 -0.10885172946E+02  0.34929508369E+02  0.00000000000E+00 0.  1.
<scales pt_clust_4="550.00000" pt_clust_5="550.00000" pt_clust_6="33.19013"></scales>
<mgrwt>
<rscale>  0 0.30000000E+03</rscale>
<asrwt>  1 0.33190129E+02</asrwt>
<pdfrwt beam="1">  1        1 0.79862453E+00 0.30000000E+03</pdfrwt>
<pdfrwt beam="2">0</pdfrwt>
<totfact> 0.10717072E-03</totfact>
</mgrwt>
<clustering>
<clus scale="   33.190">  1  6  2 -1</clus>
<clus scale="  456.329">  4  5 -1 -1</clus>
<clus scale="  300.000">  1  4  2 -1</clus>
</clustering>
</event>
<event>
 6    1  0.9687246E-012  0.3000000E+03  0.7818608E-02  0.1093470E+00
          1   -1    0    0  502    0  0.00000000000E+00  0.00000000000E+00  0.24762770721E+03  0.24762770721E+03  0.00000000000E+00 0.  1.
         13   -1    0    0    0    0 -0.00000000000E+00 -0.00000000000E+00 -0.27500000000E+03  0.27500000000E+03  0.00000000000E+00 0.  1.
    9000005    2    1    2  501    0 -0.90824555808E+01  0.28885049540E+02 -0.68357756520E+02  0.47167041800E+03  0.46570737943E+03 0.  0.
         13    1    3    3    0    0 -0.17205588542E+03  0.13635523278E+01  0.12841102460E+03  0.21469624641E+03  0.00000000000E+00 0.  1.
          1    1    3    3  501    0  0.16297342984E+03  0.27521497213E+02 -0.19676878112E+03  0.25697417159E+03  0.00000000000E+00 0.  1.
         21    1    1    2  502  501  0.90824555808E+01 -0.28885049540E+02  0.40985463728E+02  0.50957289207E+02  0.00000000000E+00 0.  1.
<scales pt_clust_4="550.00000" pt_clust_5="550.00000" pt_clust_6="30.27932"></scales>
<mgrwt>
<rscale>  0 0.30000000E+03</rscale>
<asrwt>  1 0.30279318E+02</asrwt>
<pdfrwt beam="1">  1        1 0.90046439E+00 0.30000000E+03</pdfrwt>
<pdfrwt beam="2">0</pdfrwt>
<totfact> 0.11198223E-04</totfact>
</mgrwt>
<clustering>
<clus scale="   30.279">  1  6  2 -1</clus>
<clus scale="  465.707">  4  5 -1 -1</clus>
<clus scale="  300.000">  1  4  2 -1</clus>
</clustering>
</event>
<event>
 6    1  0.9687246E-012  0.3000000E+03  0.7818608E-02  0.1093470E+00
          1   -1    0    0  502    0  0.00000000000E+00  0.00000000000E+00  0.23817741161E+03  0.23817741161E+03  0.00000000000E+00 0.  1.
         13   -1    0    0    0    0 -0.00000000000E+00 -0.00000000000E+00 -0.27500000000E+03  0.27500000000E+03  0.00000000000E+00 0.  1.
    9000005    2    1    2  501    0  0.52357645491E+01 -0.41616934870E+02 -0.54975336982E+02  0.46747287376E+03  0.46233020400E+03 0.  0.
         13    1    3    3    0    0 -0.11612844247E+03  0.53133824498E+00  0.17148555484E+03  0.20710720168E+03  0.00000000000E+00 0.  1.
          3    1    3    3  501    0  0.12136420702E+03 -0.42148273115E+02 -0.22646089182E+03  0.26036567208E+03  0.00000000000E+00 0.  1.
         21    1    1    2  502  501 -0.52357645491E+01  0.41616934870E+02  0.18152748592E+02  0.45704537847E+02  0.00000000000E+00 0. -1.
<scales pt_clust_4="550.00000" pt_clust_5="550.00000" pt_clust_6="41.94499"></scales>
<mgrwt>
<rscale>  0 0.30000000E+03</rscale>
<asrwt>  1 0.41944994E+02</asrwt>
<pdfrwt beam="1">  1        1 0.86609968E+00 0.30000000E+03</pdfrwt>
<pdfrwt beam="2">0</pdfrwt>
<totfact> 0.26894974E-04</totfact>
</mgrwt>
<clustering>
<clus scale="   41.945">  1  6  2 -1</clus>
<clus scale="  462.330">  4  5 -1 -1</clus>
<clus scale="  300.000">  1  4  2 -1</clus>
</clustering>
</event>
<event>
 6    1  0.9687246E-012  0.3000000E+03  0.7818608E-02  0.1093470E+00
          1   -1    0    0  502    0  0.00000000000E+00  0.00000000000E+00  0.25261806560E+03  0.25261806560E+03  0.00000000000E+00 0.  1.
         13   -1    0    0    0    0 -0.00000000000E+00 -0.00000000000E+00 -0.27500000000E+03  0.27500000000E+03  0.00000000000E+00 0.  1.
    9000005    2    1    2  501    0  0.29531225283E+02 -0.22888478550E+02 -0.29819522477E+02  0.48952222025E+03  0.48718253712E+03 0.  0.
         13    1    3    3    0    0 -0.13917418362E+03  0.54327079744E+02  0.16356485477E+03  0.22152730463E+03  0.00000000000E+00 0.  1.
          1    1    3    3  501    0  0.16870540890E+03 -0.77215558294E+02 -0.19338437725E+03  0.26799491562E+03  0.00000000000E+00 0.  1.
         21    1    1    2  502  501 -0.29531225283E+02  0.22888478550E+02  0.74375880811E+01  0.38095845358E+02  0.00000000000E+00 0. -1.
<scales pt_clust_4="550.00000" pt_clust_5="550.00000" pt_clust_6="37.36276"></scales>
<mgrwt>
<rscale>  0 0.30000000E+03</rscale>
<asrwt>  1 0.37362758E+02</asrwt>
<pdfrwt beam="1">  1        1 0.91861115E+00 0.30000000E+03</pdfrwt>
<pdfrwt beam="2">0</pdfrwt>
<totfact> 0.44294020E-05</totfact>
</mgrwt>
<clustering>
<clus scale="   37.363">  1  6  2 -1</clus>
<clus scale="  487.183">  4  5 -1 -1</clus>
<clus scale="  300.000">  1  4  2 -1</clus>
</clustering>
</event>
<event>
 6    1  0.9687246E-012  0.3000000E+03  0.7818608E-02  0.1093470E+00
          1   -1    0    0  502    0  0.00000000000E+00  0.00000000000E+00  0.25708862853E+03  0.25708862853E+03  0.00000000000E+00 0.  1.
         13   -1    0    0    0    0 -0.00000000000E+00 -0.00000000000E+00 -0.27500000000E+03  0.27500000000E+03  0.00000000000E+00 0.  1.
    9000005    2    1    2  501    0 -0.26725605635E+01  0.34400075788E+02 -0.51135687621E+02  0.48418911937E+03  0.48024341429E+03 0.  0.
         13    1    3    3    0    0  0.18505204695E+03 -0.11630916432E+03 -0.96995732493E+02  0.23912393001E+03  0.00000000000E+00 0.  1.
          3    1    3    3  501    0 -0.18772460751E+03  0.15070924010E+03  0.45860044872E+02  0.24506518935E+03  0.00000000000E+00 0.  1.
         21    1    1    2  502  501  0.26725605635E+01 -0.34400075788E+02  0.33224316148E+02  0.47899509159E+02  0.00000000000E+00 0. -1.
<scales pt_clust_4="550.00000" pt_clust_5="550.00000" pt_clust_6="34.50374"></scales>
<mgrwt>
<rscale>  0 0.30000000E+03</rscale>
<asrwt>  1 0.34503736E+02</asrwt>
<pdfrwt beam="1">  1        1 0.93486774E+00 0.30000000E+03</pdfrwt>
<pdfrwt beam="2">0</pdfrwt>
<totfact> 0.22669365E-05</totfact>
</mgrwt>
<clustering>
<clus scale="   34.504">  1  6  2 -1</clus>
<clus scale="  480.243">  4  5 -1 -1</clus>
<clus scale="  300.000">  1  4  2 -1</clus>
</clustering>
</event>
<event>
 6    1  0.9687246E-012  0.3000000E+03  0.7818608E-02  0.1093470E+00
          1   -1    0    0  502    0  0.00000000000E+00  0.00000000000E+00  0.23527640545E+03  0.23527640545E+03  0.00000000000E+00 0.  1.
         13   -1    0    0    0    0 -0.00000000000E+00 -0.00000000000E+00 -0.27500000000E+03  0.27500000000E+03  0.00000000000E+00 0.  1.
    9000005    2    1    2  501    0  0.30903116468E+02 -0.57171505150E+01 -0.65268430601E+02  0.46977668858E+03  0.46415781873E+03 0.  0.
         13    1    3    3    0    0 -0.10657029272E+03 -0.19301556172E+03  0.22034935085E+02  0.22158017222E+03  0.00000000000E+00 0.  1.
          3    1    3    3  501    0  0.13747340919E+03  0.18729841120E+03 -0.87303365687E+02  0.24819651636E+03  0.00000000000E+00 0.  1.
         21    1    1    2  502  501 -0.30903116468E+02  0.57171505150E+01  0.25544836049E+02  0.40499716866E+02  0.00000000000E+00 0.  1.
<scales pt_clust_4="550.00000" pt_clust_5="550.00000" pt_clust_6="31.42751"></scales>
<mgrwt>
<rscale>  0 0.30000000E+03</rscale>
<asrwt>  1 0.31427511E+02</asrwt>
<pdfrwt beam="1">  1        1 0.85555057E+00 0.30000000E+03</pdfrwt>
<pdfrwt beam="2">0</pdfrwt>
<totfact> 0.36715331E-04</totfact>
</mgrwt>
<clustering>
<clus scale="   31.428">  1  6  2 -1</clus>
<clus scale="  464.158">  4  5 -1 -1</clus>
<clus scale="  300.000">  1  4  2 -1</clus>
</clustering>
</event>
<event>
 6    1  0.9687246E-012  0.3000000E+03  0.7818608E-02  0.1093470E+00
          1   -1    0    0  502    0  0.00000000000E+00  0.00000000000E+00  0.25028585017E+03  0.25028585017E+03  0.00000000000E+00 0.  1.
         13   -1    0    0    0    0 -0.00000000000E+00 -0.00000000000E+00 -0.27500000000E+03  0.27500000000E+03  0.00000000000E+00 0.  1.
    9000005    2    1    2  501    0  0.27462075365E+02  0.26179759137E+02 -0.60036261432E+02  0.47344766984E+03  0.46809058741E+03 0.  0.
         13    1    3    3    0    0  0.11106751235E+02  0.23788742964E+03 -0.98393712881E+02  0.25767248948E+03  0.00000000000E+00 0.  1.
          1    1    3    3  501    0  0.16355324130E+02 -0.21170767050E+03  0.38357451448E+02  0.21577518036E+03  0.00000000000E+00 0.  1.
         21    1    1    2  502  501 -0.27462075365E+02 -0.26179759137E+02  0.35322111601E+02  0.51838180328E+02  0.00000000000E+00 0. -1.
<scales pt_clust_4="550.00000" pt_clust_5="550.00000" pt_clust_6="37.94134"></scales>
<mgrwt>
<rscale>  0 0.30000000E+03</rscale>
<asrwt>  1 0.37941341E+02</asrwt>
<pdfrwt beam="1">  1        1 0.91013036E+00 0.30000000E+03</pdfrwt>
<pdfrwt beam="2">0</pdfrwt>
<totfact> 0.70274149E-05</totfact>
</mgrwt>
<clustering>
<clus scale="   37.941">  1  6  2 -1</clus>
<clus scale="  468.091">  4  5 -1 -1</clus>
<clus scale="  300.000">  1  4  2 -1</clus>
</clustering>
</event>
<event>
 6    1  0.9687246E-012  0.3000000E+03  0.7818608E-02  0.1093470E+00
          1   -1    0    0  502    0  0.00000000000E+00  0.00000000000E+00  0.23974648122E+03  0.23974648122E+03  0.00000000000E+00 0.  1.
         13   -1    0    0    0    0 -0.00000000000E+00 -0.00000000000E+00 -0.27500000000E+03  0.27500000000E+03  0.00000000000E+00 0.  1.
    9000005    2    1    2  501    0  0.30591885300E+02 -0.13203780886E+02 -0.35286838874E+02  0.48142675153E+03  0.47897427156E+03 0.  0.
         13    1    3    3    0    0  0.30074931873E+02 -0.17178340565E+03 -0.19137336511E+03  0.25891659827E+03  0.00000000000E+00 0.  1.
          3    1    3    3  501    0  0.51695342715E+00  0.15857962477E+03  0.15608652624E+03  0.22251015326E+03  0.00000000000E+00 0.  1.
         21    1    1    2  502  501 -0.30591885300E+02  0.13203780886E+02  0.33320089725E-01  0.33319729683E+02  0.00000000000E+00 0.  1.
<scales pt_clust_4="550.00000" pt_clust_5="550.00000" pt_clust_6="33.31971"></scales>
<mgrwt>
<rscale>  0 0.30000000E+03</rscale>
<asrwt>  1 0.33319713E+02</asrwt>
<pdfrwt beam="1">  1        1 0.87180539E+00 0.30000000E+03</pdfrwt>
<pdfrwt beam="2">0</pdfrwt>
<totfact> 0.24498080E-04</totfact>
</mgrwt>
<clustering>
<clus scale="   33.320">  1  6  2 -1</clus>
<clus scale="  478.974">  4  5 -1 -1</clus>
<clus scale="  300.000">  1  4  2 -1</clus>
</clustering>
</event>
<event>
 6    1  0.9687246E-012  0.3000000E+03  0.7818608E-02  0.1093470E+00
          1   -1    0    0  502    0  0.00000000000E+00  0.00000000000E+00  0.25125060558E+03  0.25125060558E+03  0.00000000000E+00 0.  1.
         13   -1    0    0    0    0 -0.00000000000E+00 -0.00000000000E+00 -0.27500000000E+03  0.27500000000E+03  0.00000000000E+00 0.  1.
    9000005    2    1    2  501    0  0.32252165945E+02  0.33821703900E+02 -0.21618565807E+02  0.47946759271E+03  0.47669455651E+03 0.  0.
         13    1    3    3    0    0 -0.74089785228E+02 -0.11233931103E+03 -0.18973827951E+03  0.23261563100E+03  0.00000000000E+00 0.  1.
          1    1    3    3  501    0  0.10634195117E+03  0.14616101492E+03  0.16811971370E+03  0.24685196171E+03  0.00000000000E+00 0.  1.
         21    1    1    2  502  501 -0.32252165945E+02 -0.33821703900E+02 -0.21308286120E+01  0.46783012872E+02  0.00000000000E+00 0. -1.
<scales pt_clust_4="550.00000" pt_clust_5="550.00000" pt_clust_6="46.73448"></scales>
<mgrwt>
<rscale>  0 0.30000000E+03</rscale>
<asrwt>  1 0.46734485E+02</asrwt>
<pdfrwt beam="1">  1        1 0.91363857E+00 0.30000000E+03</pdfrwt>
<pdfrwt beam="2">0</pdfrwt>
<totfact> 0.55366014E-05</totfact>
</mgrwt>
<clustering>
<clus scale="   46.734">  1  6  2 -1</clus>
<clus scale="  476.695">  4  5 -1 -1</clus>
<clus scale="  300.000">  1  4  2 -1</clus>
</clustering>
</event>
<event>
 6    1  0.9687246E-012  0.3000000E+03  0.7818608E-02  0.1093470E+00
          1   -1    0    0  502    0  0.00000000000E+00  0.00000000000E+00  0.23940741131E+03  0.23940741131E+03  0.00000000000E+00 0.  1.
         13   -1    0    0    0    0 -0.00000000000E+00 -0.00000000000E+00 -0.27500000000E+03  0.27500000000E+03  0.00000000000E+00 0.  1.
    9000005    2    1    2  501    0  0.23062144278E+02 -0.23270421252E+02 -0.50714861919E+02  0.47832336841E+03  0.47449749478E+03 0.  0.
         13    1    3    3    0    0  0.20765749150E+03  0.71199164857E+02 -0.13136503729E+03  0.25582753541E+03  0.00000000000E+00 0.  1.
          1    1    3    3  501    0 -0.18459534722E+03 -0.94469586110E+02  0.80650175370E+02  0.22249583300E+03  0.00000000000E+00 0.  1.
         21    1    1    2  502  501 -0.23062144278E+02  0.23270421252E+02  0.15122273227E+02  0.36084042893E+02  0.00000000000E+00 0. -1.
<scales pt_clust_4="550.00000" pt_clust_5="550.00000" pt_clust_6="32.76240"></scales>
<mgrwt>
<rscale>  0 0.30000000E+03</rscale>
<asrwt>  1 0.32762402E+02</asrwt>
<pdfrwt beam="1">  1        1 0.87057240E+00 0.30000000E+03</pdfrwt>
<pdfrwt beam="2">0</pdfrwt>
<totfact> 0.25298921E-04</totfact>
</mgrwt>
<clustering>
<clus scale="   32.762">  1  6  2 -1</clus>
<clus scale="  474.497">  4  5 -1 -1</clus>
<clus scale="  300.000">  1  4  2 -1</clus>
</clustering>
</event>
<event>
 6    1  0.9687246E-012  0.3000000E+03  0.7818608E-02  0.1093470E+00
          1   -1    0    0  502    0  0.00000000000E+00  0.00000000000E+00  0.25161665800E+03  0.25161665800E+03  0.00000000000E+00 0.  1.
         13   -1    0    0    0    0 -0.00000000000E+00 -0.00000000000E+00 -0.27500000000E+03  0.27500000000E+03  0.00000000000E+00 0.  1.
    9000005    2    1    2  501    0  0.45855066723E+02 -0.41014318311E+02 -0.38558116210E+02  0.46325156333E+03  0.45752641579E+03 0.  0.
         13    1    3    3    0    0  0.15971666833E+02 -0.10214174102E+03  0.19460614552E+03  0.22036238625E+03  0.00000000000E+00 0.  1.
          3    1    3    3  501    0  0.29883399890E+02  0.61127422711E+02 -0.23316426173E+03  0.24288917708E+03  0.00000000000E+00 0.  1.
         21    1    1    2  502  501 -0.45855066723E+02  0.41014318311E+02  0.15174774211E+02  0.63365094674E+02  0.00000000000E+00 0.  1.
<scales pt_clust_4="550.00000" pt_clust_5="550.00000" pt_clust_6="61.52123"></scales>
<mgrwt>
<rscale>  0 0.30000000E+03</rscale>
<asrwt>  1 0.61521228E+02</asrwt>
<pdfrwt beam="1">  1        1 0.91496967E+00 0.30000000E+03</pdfrwt>
<pdfrwt beam="2">0</pdfrwt>
<totfact> 0.49058723E-05</totfact>
</mgrwt>
<clustering>
<clus scale="   61.521">  1  6  2 -1</clus>
<clus scale="  457.526">  4  5 -1 -1</clus>
<clus scale="  300.000">  1  4  2 -1</clus>
</clustering>
</event>
<event>
 6    1  0.9687246E-012  0.3000000E+03  0.7818608E-02  0.1093470E+00
          1   -1    0    0  502    0  0.00000000000E+00  0.00000000000E+00  0.24784259870E+03  0.24784259870E+03  0.00000000000E+00 0.  1.
         13   -1    0    0    0    0 -0.00000000000E+00 -0.00000000000E+00 -0.27500000000E+03  0.27500000000E+03  0.00000000000E+00 0.  1.
    9000005    2    1    2  501    0  0.54138226308E+02  0.14757361388E+01 -0.18615508010E+02  0.46801478381E+03  0.46449776682E+03 0.  0.
         13    1    3    3    0    0  0.19082315098E+03  0.12222446086E+03  0.10287995414E+03  0.24887060643E+03  0.00000000000E+00 0.  1.
          3    1    3    3  501    0 -0.13668492467E+03 -0.12074872473E+03 -0.12149546215E+03  0.21914417738E+03  0.00000000000E+00 0.  1.
         21    1    1    2  502  501 -0.54138226308E+02 -0.14757361388E+01 -0.85418932867E+01  0.54827814892E+02  0.00000000000E+00 0. -1.
<scales pt_clust_4="550.00000" pt_clust_5="550.00000" pt_clust_6="54.15836"></scales>
<mgrwt>
<rscale>  0 0.30000000E+03</rscale>
<asrwt>  1 0.54158363E+02</asrwt>
<pdfrwt beam="1">  1        1 0.90124581E+00 0.30000000E+03</pdfrwt>
<pdfrwt beam="2">0</pdfrwt>
<totfact> 0.98342066E-05</totfact>
</mgrwt>
<clustering>
<clus scale="   54.158">  1  6  2 -1</clus>
<clus scale="  464.498">  4  5 -1 -1</clus>
<clus scale="  300.000">  1  4  2 -1</clus>
</clustering>
</event>
<event>
 6    1  0.9687246E-012  0.3000000E+03  0.7818608E-02  0.1093470E+00
          1   -1    0    0  502    0  0.00000000000E+00  0.00000000000E+00  0.22027060115E+03  0.22027060115E+03  0.00000000000E+00 0.  1.
         13   -1    0    0    0    0 -0.00000000000E+00 -0.00000000000E+00 -0.27500000000E+03  0.27500000000E+03  0.00000000000E+00 0.  1.
    9000005    2    1    2  501    0  0.17178061357E+02  0.24623642079E+02 -0.56337292916E+02  0.46520409380E+03  0.46080315621E+03 0.  0.
         13    1    3    3    0    0  0.13672411034E+03  0.10270171198E+03  0.14099488723E+03  0.22163186191E+03  0.00000000000E+00 0.  1.
          1    1    3    3  501    0 -0.11954604898E+03 -0.78078069900E+02 -0.19733218014E+03  0.24357223189E+03  0.00000000000E+00 0.  1.
         21    1    1    2  502  501 -0.17178061357E+02 -0.24623642079E+02  0.16078940705E+01  0.30066507356E+02  0.00000000000E+00 0.  1.
<scales pt_clust_4="550.00000" pt_clust_5="550.00000" pt_clust_6="30.02348"></scales>
<mgrwt>
<rscale>  0 0.30000000E+03</rscale>
<asrwt>  1 0.30023483E+02</asrwt>
<pdfrwt beam="1">  1        1 0.80098400E+00 0.30000000E+03</pdfrwt>
<pdfrwt beam="2">0</pdfrwt>
<totfact> 0.10502868E-03</totfact>
</mgrwt>
<clustering>
<clus scale="   30.023">  1  6  2 -1</clus>
<clus scale="  460.803">  4  5 -1 -1</clus>
<clus scale="  300.000">  1  4  2 -1</clus>
</clustering>
</event>
<event>
 6    1  0.9687246E-012  0.3000000E+03  0.7818608E-02  0.1093470E+00
          1   -1    0    0  502    0  0.00000000000E+00  0.00000000000E+00  0.23435826198E+03  0.23435826198E+03  0.00000000000E+00 0.  1.
         13   -1    0    0    0    0 -0.00000000000E+00 -0.00000000000E+00 -0.27500000000E+03  0.27500000000E+03  0.00000000000E+00 0.  1.
    9000005    2    1    2  501    0 -0.32469391236E+02 -0.44683545189E+01 -0.25561039236E+02  0.47327980532E+03  0.47145114257E+03 0.  0.
         13    1    3    3    0    0  0.17516287562E+03 -0.12229282944E+01  0.12635653100E+03  0.21598495660E+03  0.00000000000E+00 0.  1.
          3    1    3    3  501    0 -0.20763226686E+03 -0.32454262245E+01 -0.15191757023E+03  0.25729484872E+03  0.00000000000E+00 0.  1.
         21    1    1    2  502  501  0.32469391236E+02  0.44683545189E+01 -0.15080698785E+02  0.36078456663E+02  0.00000000000E+00 0.  1.
<scales pt_clust_4="550.00000" pt_clust_5="550.00000" pt_clust_6="32.77543"></scales>
<mgrwt>
<rscale>  0 0.30000000E+03</rscale>
<asrwt>  1 0.32775427E+02</asrwt>
<pdfrwt beam="1">  1        1 0.85221186E+00 0.30000000E+03</pdfrwt>
<pdfrwt beam="2">0</pdfrwt>
<totfact> 0.39260141E-04</totfact>
</mgrwt>
<clustering>
<clus scale="   32.775">  1  6  2 -1</clus>
<clus scale="  471.451">  4  5 -1 -1</clus>
<clus scale="  300.000">  1  4  2 -1</clus>
</clustering>
</event>
<event>
 6    1  0.9687246E-012  0.3000000E+03  0.7818608E-02  0.1093470E+00
          1   -1    0    0  502    0  0.00000000000E+00  0.00000000000E+00  0.23588639556E+03  0.23588639556E+03  0.00000000000E+00 0.  1.
         13   -1    0    0    0    0 -0.00000000000E+00 -0.00000000000E+00 -0.27500000000E+03  0.27500000000E+03  0.00000000000E+00 0.  1.
    9000005    2    1    2  501    0  0.38163943561E+02  0.23853861811E+02 -0.36671135415E+02  0.46581468640E+03  0.46218292546E+03 0.  0.
         13    1    3    3    0    0 -0.88968503983E+02 -0.14345782376E+03 -0.15109235874E+03  0.22654898536E+03  0.00000000000E+00 0.  1.
          1    1    3    3  501    0  0.12713244754E+03  0.16731168557E+03  0.11442122332E+03  0.23926570104E+03  0.00000000000E+00 0.  1.
         21    1    1    2  502  501 -0.38163943561E+02 -0.23853861811E+02 -0.24424690265E+01  0.45071709157E+02  0.00000000000E+00 0.  1.
<scales pt_clust_4="550.00000" pt_clust_5="550.00000" pt_clust_6="45.00548"></scales>
<mgrwt>
<rscale>  0 0.30000000E+03</rscale>
<asrwt>  1 0.45005481E+02</asrwt>
<pdfrwt beam="1">  1        1 0.85776871E+00 0.30000000E+03</pdfrwt>
<pdfrwt beam="2">0</pdfrwt>
<totfact> 0.32612974E-04</totfact>
</mgrwt>
<clustering>
<clus scale="   45.005">  1  6  2 -1</clus>
<clus scale="  462.183">  4  5 -1 -1</clus>
<clus scale="  300.000">  1  4  2 -1</clus>
</clustering>
</event>
<event>
 6    1  0.9687246E-012  0.3000000E+03  0.7818608E-02  0.1093470E+00
          1   -1    0    0  502    0  0.00000000000E+00  0.00000000000E+00  0.23866642275E+03  0.23866642275E+03  0.00000000000E+00 0.  1.
         13   -1    0    0    0    0 -0.00000000000E+00 -0.00000000000E+00 -0.27500000000E+03  0.27500000000E+03  0.00000000000E+00 0.  1.
    9000005    2    1    2  501    0  0.47235661366E+01  0.46024232713E+02 -0.52983814846E+02  0.46449557279E+03  0.45913866144E+03 0.  0.
         13    1    3    3    0    0  0.24798979202E+02  0.24986843655E+03  0.65742064929E+01  0.25118209559E+03  0.00000000000E+00 0.  1.
          1    1    3    3  501    0 -0.20075413065E+02 -0.20384420384E+03 -0.59558021339E+02  0.21331347720E+03  0.00000000000E+00 0.  1.
         21    1    1    2  502  501 -0.47235661366E+01 -0.46024232713E+02  0.16650237592E+02  0.49170849959E+02  0.00000000000E+00 0.  1.
<scales pt_clust_4="550.00000" pt_clust_5="550.00000" pt_clust_6="46.26599"></scales>
<mgrwt>
<rscale>  0 0.30000000E+03</rscale>
<asrwt>  1 0.46265993E+02</asrwt>
<pdfrwt beam="1">  1        1 0.86787790E+00 0.30000000E+03</pdfrwt>
<pdfrwt beam="2">0</pdfrwt>
<totfact> 0.25311362E-04</totfact>
</mgrwt>
<clustering>
<clus scale="   46.266">  1  6  2 -1</clus>
<clus scale="  459.139">  4  5 -1 -1</clus>
<clus scale="  300.000">  1  4  2 -1</clus>
</clustering>
</event>
<event>
 6    1  0.9687246E-012  0.3000000E+03  0.7818608E-02  0.1093470E+00
          1   -1    0    0  502    0  0.00000000000E+00  0.00000000000E+00  0.24008435355E+03  0.24008435355E+03  0.00000000000E+00 0.  1.
         13   -1    0    0    0    0 -0.00000000000E+00 -0.00000000000E+00 -0.27500000000E+03  0.27500000000E+03  0.00000000000E+00 0.  1.
    9000005    2    1    2  501    0  0.11435482556E+02  0.32741760920E+02 -0.56001738983E+02  0.47449597507E+03  0.46990152417E+03 0.  0.
         13    1    3    3    0    0 -0.80547643276E+02  0.89186845372E+02  0.17917170643E+03  0.21574224577E+03  0.00000000000E+00 0.  1.
          1    1    3    3  501    0  0.91983125832E+02 -0.56445084452E+02 -0.23517344542E+03  0.25875372930E+03  0.00000000000E+00 0.  1.
         21    1    1    2  502  501 -0.11435482556E+02 -0.32741760920E+02  0.21086092535E+02  0.40588378482E+02  0.00000000000E+00 0. -1.
<scales pt_clust_4="550.00000" pt_clust_5="550.00000" pt_clust_6="34.68131"></scales>
<mgrwt>
<rscale>  0 0.30000000E+03</rscale>
<asrwt>  1 0.34681309E+02</asrwt>
<pdfrwt beam="1">  1        1 0.87303401E+00 0.30000000E+03</pdfrwt>
<pdfrwt beam="2">0</pdfrwt>
<totfact> 0.23619440E-04</totfact>
</mgrwt>
<clustering>
<clus scale="   34.681">  1  6  2 -1</clus>
<clus scale="  469.902">  4  5 -1 -1</clus>
<clus scale="  300.000">  1  4  2 -1</clus>
</clustering>
</event>
<event>
 6    1  0.9687246E-012  0.3000000E+03  0.7818608E-02  0.1093470E+00
          1   -1    0    0  502    0  0.00000000000E+00  0.00000000000E+00  0.24139005377E+03  0.24139005377E+03  0.00000000000E+00 0.  1.
         13   -1    0    0    0    0 -0.00000000000E+00 -0.00000000000E+00 -0.27500000000E+03  0.27500000000E+03  0.00000000000E+00 0.  1.
    9000005    2    1    2  501    0 -0.37747149241E+02  0.16777905737E+02 -0.44222623257E+02  0.47374061872E+03  0.46985975357E+03 0.  0.
         13    1    3    3    0    0 -0.17583543562E+03  0.15235872024E+03 -0.12491036092E+03  0.26407172950E+03  0.00000000000E+00 0.  1.
          1    1    3    3  501    0  0.13808828638E+03 -0.13558081451E+03  0.80687737661E+02  0.20966888922E+03  0.00000000000E+00 0.  1.
         21    1    1    2  502  501  0.37747149241E+02 -0.16777905737E+02  0.10612677032E+02  0.42649435055E+02  0.00000000000E+00 0. -1.
<scales pt_clust_4="550.00000" pt_clust_5="550.00000" pt_clust_6="41.30793"></scales>
<mgrwt>
<rscale>  0 0.30000000E+03</rscale>
<asrwt>  1 0.41307934E+02</asrwt>
<pdfrwt beam="1">  1        1 0.87778201E+00 0.30000000E+03</pdfrwt>
<pdfrwt beam="2">0</pdfrwt>
<totfact> 0.20339717E-04</totfact>
</mgrwt>
<clustering>
<clus scale="   41.308">  1  6  2 -1</clus>
<clus scale="  469.860">  4  5 -1 -1</clus>
<clus scale="  300.000">  1  4  2 -1</clus>
</clustering>
</event>
<event>
 6    1  0.9687246E-012  0.3000000E+03  0.7818608E-02  0.1093470E+00
          1   -1    0    0  502    0  0.00000000000E+00  0.00000000000E+00  0.24747858478E+03  0.24747858478E+03  0.00000000000E+00 0.  1.
         13   -1    0    0    0    0 -0.00000000000E+00 -0.00000000000E+00 -0.27500000000E+03  0.27500000000E+03  0.00000000000E+00 0.  1.
    9000005    2    1    2  501    0 -0.38413545788E+02 -0.14110327035E+02 -0.36632099624E+02  0.48055357555E+03  0.47740457310E+03 0.  0.
         13    1    3    3    0    0  0.86625035799E+02  0.74271641714E+02  0.18129276264E+03  0.21421307004E+03  0.00000000000E+00 0.  1.
          3    1    3    3  501    0 -0.12503858159E+03 -0.88381968749E+02 -0.21792486226E+03  0.26634050551E+03  0.00000000000E+00 0.  1.
         21    1    1    2  502  501  0.38413545788E+02  0.14110327035E+02  0.91106844078E+01  0.41925009236E+02  0.00000000000E+00 0.  1.
<scales pt_clust_4="550.00000" pt_clust_5="550.00000" pt_clust_6="40.92312"></scales>
<mgrwt>
<rscale>  0 0.30000000E+03</rscale>
<asrwt>  1 0.40923121E+02</asrwt>
<pdfrwt beam="1">  1        1 0.89992213E+00 0.30000000E+03</pdfrwt>
<pdfrwt beam="2">0</pdfrwt>
<totfact> 0.10754557E-04</totfact>
</mgrwt>
<clustering>
<clus scale="   40.923">  1  6  2 -1</clus>
<clus scale="  477.405">  4  5 -1 -1</clus>
<clus scale="  300.000">  1  4  2 -1</clus>
</clustering>
</event>
<event>
 6    1  0.9687246E-012  0.3000000E+03  0.7818608E-02  0.1093470E+00
          1   -1    0    0  502    0  0.00000000000E+00  0.00000000000E+00  0.23818499320E+03  0.23818499320E+03  0.00000000000E+00 0.  1.
         13   -1    0    0    0    0 -0.00000000000E+00 -0.00000000000E+00 -0.27500000000E+03  0.27500000000E+03  0.00000000000E+00 0.  1.
    9000005    2    1    2  501    0  0.18626091039E+02  0.24786256562E+02 -0.21950010577E+02  0.47880101590E+03  0.47729165097E+03 0.  0.
         13    1    3    3    0    0 -0.40798120976E+01 -0.19542555413E+03 -0.12767553018E+03  0.23347126821E+03  0.00000000000E+00 0.  1.
          3    1    3    3  501    0  0.22705903137E+02  0.22021181069E+03  0.10572551960E+03  0.24532974769E+03  0.00000000000E+00 0.  1.
         21    1    1    2  502  501 -0.18626091039E+02 -0.24786256562E+02 -0.14864996227E+02  0.34383977295E+02  0.00000000000E+00 0.  1.
<scales pt_clust_4="550.00000" pt_clust_5="550.00000" pt_clust_6="31.00469"></scales>
<mgrwt>
<rscale>  0 0.30000000E+03</rscale>
<asrwt>  1 0.31004689E+02</asrwt>
<pdfrwt beam="1">  1        1 0.86612725E+00 0.30000000E+03</pdfrwt>
<pdfrwt beam="2">0</pdfrwt>
<totfact> 0.28431186E-04</totfact>
</mgrwt>
<clustering>
<clus scale="   31.005">  1  6  2 -1</clus>
<clus scale="  477.292">  4  5 -1 -1</clus>
<clus scale="  300.000">  1  4  2 -1</clus>
</clustering>
</event>
<event>
 6    1  0.9687246E-012  0.3000000E+03  0.7818608E-02  0.1093470E+00
          1   -1    0    0  502    0  0.00000000000E+00  0.00000000000E+00  0.23480524359E+03  0.23480524359E+03  0.00000000000E+00 0.  1.
         13   -1    0    0    0    0 -0.00000000000E+00 -0.00000000000E+00 -0.27500000000E+03  0.27500000000E+03  0.00000000000E+00 0.  1.
    9000005    2    1    2  501    0 -0.16832159670E+02  0.36083192429E+02 -0.53963231755E+02  0.46767580865E+03  0.46284264414E+03 0.  0.
         13    1    3    3    0    0 -0.35618428424E+02 -0.20299757240E+03  0.40292262877E+02  0.21000036498E+03  0.00000000000E+00 0.  1.
          3    1    3    3  501    0  0.18786268754E+02  0.23908076483E+03 -0.94255494633E+02  0.25767544367E+03  0.00000000000E+00 0.  1.
         21    1    1    2  502  501  0.16832159670E+02 -0.36083192429E+02  0.13768475342E+02  0.42129434938E+02  0.00000000000E+00 0. -1.
<scales pt_clust_4="550.00000" pt_clust_5="550.00000" pt_clust_6="39.81606"></scales>
<mgrwt>
<rscale>  0 0.30000000E+03</rscale>
<asrwt>  1 0.39816057E+02</asrwt>
<pdfrwt beam="1">  1        1 0.85383725E+00 0.30000000E+03</pdfrwt>
<pdfrwt beam="2">0</pdfrwt>
<totfact> 0.36521424E-04</totfact>
</mgrwt>
<clustering>
<clus scale="   39.816">  1  6  2 -1</clus>
<clus scale="  462.843">  4  5 -1 -1</clus>
<clus scale="  300.000">  1  4  2 -1</clus>
</clustering>
</event>
<event>
 6    1  0.9687246E-012  0.3000000E+03  0.7818608E-02  0.1093470E+00
          1   -1    0    0  502    0  0.00000000000E+00  0.00000000000E+00  0.25503698003E+03  0.25503698003E+03  0.00000000000E+00 0.  1.
         13   -1    0    0    0    0 -0.00000000000E+00 -0.00000000000E+00 -0.27500000000E+03  0.27500000000E+03  0.00000000000E+00 0.  1.
    9000005    2    1    2  501    0  0.61402615585E+02  0.36592602296E+01 -0.16465416310E+02  0.46842606689E+03  0.46407779394E+03 0.  0.
         13    1    3    3    0    0  0.57908648415E+02 -0.22956331330E+02 -0.23761937979E+03  0.24564888430E+03  0.00000000000E+00 0.  1.
          1    1    3    3  501    0  0.34939671698E+01  0.26615591559E+02  0.22115396348E+03  0.22277718259E+03  0.00000000000E+00 0.  1.
         21    1    1    2  502  501 -0.61402615585E+02 -0.36592602296E+01 -0.34976036596E+01  0.61610913136E+02  0.00000000000E+00 0.  1.
<scales pt_clust_4="550.00000" pt_clust_5="550.00000" pt_clust_6="61.51159"></scales>
<mgrwt>
<rscale>  0 0.30000000E+03</rscale>
<asrwt>  1 0.61511586E+02</asrwt>
<pdfrwt beam="1">  1        1 0.92740720E+00 0.30000000E+03</pdfrwt>
<pdfrwt beam="2">0</pdfrwt>
<totfact> 0.26467975E-05</totfact>
</mgrwt>
<clustering>
<clus scale="   61.512">  1  6  2 -1</clus>
<clus scale="  464.078">  4  5 -1 -1</clus>
<clus scale="  300.000">  1  4  2 -1</clus>
</clustering>
</event>
<event>
 6    1  0.9687246E-012  0.3000000E+03  0.7818608E-02  0.1093470E+00
          1   -1    0    0  502    0  0.00000000000E+00  0.00000000000E+00  0.24711461905E+03  0.24711461905E+03  0.00000000000E+00 0.  1.
         13   -1    0    0    0    0 -0.00000000000E+00 -0.00000000000E+00 -0.27500000000E+03  0.27500000000E+03  0.00000000000E+00 0.  1.
    9000005    2    1    2  501    0  0.17883868095E+02 -0.26779569910E+02 -0.47014646221E+02  0.48465922034E+03  0.48129741824E+03 0.  0.
         13    1    3    3    0    0  0.75748028201E+02 -0.25263101739E+02  0.20818723220E+03  0.22297513704E+03  0.00000000000E+00 0.  1.
          1    1    3    3  501    0 -0.57864160106E+02 -0.15164681712E+01 -0.25520187843E+03  0.26168408330E+03  0.00000000000E+00 0.  1.
         21    1    1    2  502  501 -0.17883868095E+02  0.26779569910E+02  0.19129265272E+02  0.37455398709E+02  0.00000000000E+00 0. -1.
<scales pt_clust_4="550.00000" pt_clust_5="550.00000" pt_clust_6="32.20214"></scales>
<mgrwt>
<rscale>  0 0.30000000E+03</rscale>
<asrwt>  1 0.32202144E+02</asrwt>
<pdfrwt beam="1">  1        1 0.89859861E+00 0.30000000E+03</pdfrwt>
<pdfrwt beam="2">0</pdfrwt>
<totfact> 0.11665656E-04</totfact>
</mgrwt>
<clustering>
<clus scale="   32.202">  1  6  2 -1</clus>
<clus scale="  481.297">  4  5 -1 -1</clus>
<clus scale="  300.000">  1  4  2 -1</clus>
</clustering>
</event>
<event>
 6    1  0.9687246E-012  0.3000000E+03  0.7818608E-02  0.1093470E+00
          1   -1    0    0  502    0  0.00000000000E+00  0.00000000000E+00  0.23115698661E+03  0.23115698661E+03  0.00000000000E+00 0.  1.
         13   -1    0    0    0    0 -0.00000000000E+00 -0.00000000000E+00 -0.27500000000E+03  0.27500000000E+03  0.00000000000E+00 0.  1.
    9000005    2    1    2  501    0 -0.13654402799E+02 -0.27486462619E+02 -0.37823338735E+02  0.47488104016E+03  0.47237638490E+03 0.  0.
         13    1    3    3    0    0  0.12774529702E+03 -0.12411883342E+03  0.14107850264E+03  0.22721683394E+03  0.00000000000E+00 0.  1.
          1    1    3    3  501    0 -0.14139969982E+03  0.96632370797E+02 -0.17890184137E+03  0.24766420622E+03  0.00000000000E+00 0.  1.
         21    1    1    2  502  501  0.13654402799E+02  0.27486462619E+02 -0.60196746579E+01  0.31275946445E+02  0.00000000000E+00 0.  1.
<scales pt_clust_4="550.00000" pt_clust_5="550.00000" pt_clust_6="30.69119"></scales>
<mgrwt>
<rscale>  0 0.30000000E+03</rscale>
<asrwt>  1 0.30691192E+02</asrwt>
<pdfrwt beam="1">  1        1 0.84057086E+00 0.30000000E+03</pdfrwt>
<pdfrwt beam="2">0</pdfrwt>
<totfact> 0.50440204E-04</totfact>
</mgrwt>
<clustering>
<clus scale="   30.691">  1  6  2 -1</clus>
<clus scale="  472.376">  4  5 -1 -1</clus>
<clus scale="  300.000">  1  4  2 -1</clus>
</clustering>
</event>
<event>
 6    1  0.9687246E-012  0.3000000E+03  0.7818608E-02  0.1093470E+00
          1   -1    0    0  502    0  0.00000000000E+00  0.00000000000E+00  0.26938761480E+03  0.26938761480E+03  0.00000000000E+00 0.  1.
         13   -1    0    0    0    0 -0.00000000000E+00 -0.00000000000E+00 -0.27500000000E+03  0.27500000000E+03  0.00000000000E+00 0.  1.
    9000005    2    1    2  501    0  0.37931914577E+02  0.78439117878E+01 -0.36235886932E+02  0.49500992800E+03  0.49215996609E+03 0.  0.
         13    1    3    3    0    0 -0.59169852251E+02  0.33291044384E+02 -0.24989063554E+03  0.25894921275E+03  0.00000000000E+00 0.  1.
          3    1    3    3  501    0  0.97101766828E+02 -0.25447132596E+02  0.21365474861E+03  0.23606071525E+03  0.00000000000E+00 0.  1.
         21    1    1    2  502  501 -0.37931914577E+02 -0.78439117878E+01  0.30623501730E+02  0.49377686801E+02  0.00000000000E+00 0. -1.
<scales pt_clust_4="550.00000" pt_clust_5="550.00000" pt_clust_6="38.73444"></scales>
<mgrwt>
<rscale>  0 0.30000000E+03</rscale>
<asrwt>  1 0.38734443E+02</asrwt>
<pdfrwt beam="1">  1        1 0.97959133E+00 0.30000000E+03</pdfrwt>
<pdfrwt beam="2">0</pdfrwt>
<totfact> 0.29159644E-06</totfact>
</mgrwt>
<clustering>
<clus scale="   38.734">  1  6  2 -1</clus>
<clus scale="  492.160">  4  5 -1 -1</clus>
<clus scale="  300.000">  1  4  2 -1</clus>
</clustering>
</event>
<event>
 6    1  0.9687246E-012  0.3000000E+03  0.7818608E-02  0.1093470E+00
          1   -1    0    0  502    0  0.00000000000E+00  0.00000000000E+00  0.23175972619E+03  0.23175972619E+03  0.00000000000E+00 0.  1.
         13   -1    0    0    0    0 -0.00000000000E+00 -0.00000000000E+00 -0.27500000000E+03  0.27500000000E+03  0.00000000000E+00 0.  1.
    9000005    2    1    2  501    0  0.97335191225E+01  0.43616394460E+02 -0.51856849285E+02  0.46124734729E+03  0.45613907013E+03 0.  0.
         13    1    3    3    0    0  0.99821263524E+02  0.21545849466E+03 -0.10565408501E+03  0.25990273806E+03  0.00000000000E+00 0.  1.
          1    1    3    3  501    0 -0.90087744402E+02 -0.17184210020E+03  0.53797235724E+02  0.20134460923E+03  0.00000000000E+00 0.  1.
         21    1    1    2  502  501 -0.97335191225E+01 -0.43616394460E+02  0.86165754705E+01  0.45512378899E+02  0.00000000000E+00 0.  1.
<scales pt_clust_4="550.00000" pt_clust_5="550.00000" pt_clust_6="44.68927"></scales>
<mgrwt>
<rscale>  0 0.30000000E+03</rscale>
<asrwt>  1 0.44689275E+02</asrwt>
<pdfrwt beam="1">  1        1 0.84276264E+00 0.30000000E+03</pdfrwt>
<pdfrwt beam="2">0</pdfrwt>
<totfact> 0.45156869E-04</totfact>
</mgrwt>
<clustering>
<clus scale="   44.689">  1  6  2 -1</clus>
<clus scale="  456.139">  4  5 -1 -1</clus>
<clus scale="  300.000">  1  4  2 -1</clus>
</clustering>
</event>
<event>
 6    1  0.9687246E-012  0.3000000E+03  0.7818608E-02  0.1093470E+00
          1   -1    0    0  502    0  0.00000000000E+00  0.00000000000E+00  0.23734588661E+03  0.23734588661E+03  0.00000000000E+00 0.  1.
         13   -1    0    0    0    0 -0.00000000000E+00 -0.00000000000E+00 -0.27500000000E+03  0.27500000000E+03  0.00000000000E+00 0.  1.
    9000005    2    1    2  501    0 -0.32490728997E+02 -0.11428453847E+01 -0.44435385729E+02  0.47913535784E+03  0.47596137875E+03 0.  0.
         13    1    3    3    0    0  0.60337832299E+02  0.18757563715E+03  0.10295453832E+03  0.22231713973E+03  0.00000000000E+00 0.  1.
          3    1    3    3  501    0 -0.92828561295E+02 -0.18871848254E+03 -0.14738992404E+03  0.25681821811E+03  0.00000000000E+00 0.  1.
         21    1    1    2  502  501  0.32490728997E+02  0.11428453847E+01  0.67812723391E+01  0.33210528765E+02  0.00000000000E+00 0.  1.
<scales pt_clust_4="550.00000" pt_clust_5="550.00000" pt_clust_6="32.51082"></scales>
<mgrwt>
<rscale>  0 0.30000000E+03</rscale>
<asrwt>  1 0.32510822E+02</asrwt>
<pdfrwt beam="1">  1        1 0.86307595E+00 0.30000000E+03</pdfrwt>
<pdfrwt beam="2">0</pdfrwt>
<totfact> 0.30390076E-04</totfact>
</mgrwt>
<clustering>
<clus scale="   32.511">  1  6  2 -1</clus>
<clus scale="  475.961">  4  5 -1 -1</clus>
<clus scale="  300.000">  1  4  2 -1</clus>
</clustering>
</event>
<event>
 6    1  0.9687246E-012  0.3000000E+03  0.7818608E-02  0.1093470E+00
          1   -1    0    0  502    0  0.00000000000E+00  0.00000000000E+00  0.22673344837E+03  0.22673344837E+03  0.00000000000E+00 0.  1.
         13   -1    0    0    0    0 -0.00000000000E+00 -0.00000000000E+00 -0.27500000000E+03  0.27500000000E+03  0.00000000000E+00 0.  1.
    9000005    2    1    2  501    0  0.32378922925E+02 -0.21960552912E+01 -0.64798420152E+02  0.46531202630E+03  0.45963379908E+03 0.  0.
         13    1    3    3    0    0 -0.11037660974E+03 -0.58681367809E+01  0.16270803351E+03  0.19670113161E+03  0.00000000000E+00 0.  1.
          3    1    3    3  501    0  0.14275553266E+03  0.36720814897E+01 -0.22750645367E+03  0.26861089469E+03  0.00000000000E+00 0.  1.
         21    1    1    2  502  501 -0.32378922925E+02  0.21960552912E+01  0.16531868522E+02  0.36421422068E+02  0.00000000000E+00 0. -1.
<scales pt_clust_4="550.00000" pt_clust_5="550.00000" pt_clust_6="32.45331"></scales>
<mgrwt>
<rscale>  0 0.30000000E+03</rscale>
<asrwt>  1 0.32453310E+02</asrwt>
<pdfrwt beam="1">  1        1 0.82448527E+00 0.30000000E+03</pdfrwt>
<pdfrwt beam="2">0</pdfrwt>
<totfact> 0.66958279E-04</totfact>
</mgrwt>
<clustering>
<clus scale="   32.453">  1  6  2 -1</clus>
<clus scale="  459.634">  4  5 -1 -1</clus>
<clus scale="  300.000">  1  4  2 -1</clus>
</clustering>
</event>
<event>
 6    1  0.9687246E-012  0.3000000E+03  0.7818608E-02  0.1093470E+00
          1   -1    0    0  502    0  0.00000000000E+00  0.00000000000E+00  0.23701133178E+03  0.23701133178E+03  0.00000000000E+00 0.  1.
         13   -1    0    0    0    0 -0.00000000000E+00 -0.00000000000E+00 -0.27500000000E+03  0.27500000000E+03  0.00000000000E+00 0.  1.
    9000005    2    1    2  501    0 -0.38780386627E+02  0.21717782173E+02 -0.37702367061E+02  0.46756290753E+03  0.46391596607E+03 0.  0.
         13    1    3    3    0    0 -0.62799306153E+02 -0.20818196470E+03 -0.81648783392E+02  0.23227140829E+03  0.00000000000E+00 0.  1.
          3    1    3    3  501    0  0.24018919526E+02  0.22989974687E+03  0.43946416332E+02  0.23529149924E+03  0.00000000000E+00 0.  1.
         21    1    1    2  502  501  0.38780386627E+02 -0.21717782173E+02 -0.28630116110E+00  0.44448424244E+02  0.00000000000E+00 0. -1.
<scales pt_clust_4="550.00000" pt_clust_5="550.00000" pt_clust_6="44.44750"></scales>
<mgrwt>
<rscale>  0 0.30000000E+03</rscale>
<asrwt>  1 0.44447502E+02</asrwt>
<pdfrwt beam="1">  1        1 0.86185939E+00 0.30000000E+03</pdfrwt>
<pdfrwt beam="2">0</pdfrwt>
<totfact> 0.29570900E-04</totfact>
</mgrwt>
<clustering>
<clus scale="   44.448">  1  6  2 -1</clus>
<clus scale="  463.916">  4  5 -1 -1</clus>
<clus scale="  300.000">  1  4  2 -1</clus>
</clustering>
</event>
<event>
 6    1  0.9687246E-012  0.3000000E+03  0.7818608E-02  0.1093470E+00
          1   -1    0    0  502    0  0.00000000000E+00  0.00000000000E+00  0.23109644641E+03  0.23109644641E+03  0.00000000000E+00 0.  1.
         13   -1    0    0    0    0 -0.00000000000E+00 -0.00000000000E+00 -0.27500000000E+03  0.27500000000E+03  0.00000000000E+00 0.  1.
    9000005    2    1    2  501    0 -0.27044217138E+02 -0.26337597063E+02 -0.31210225590E+02  0.46626958016E+03  0.46368975027E+03 0.  0.
         13    1    3    3    0    0  0.13407375819E+03  0.15354118196E+03 -0.81628681237E+02  0.21957665812E+03  0.00000000000E+00 0.  1.
          3    1    3    3  501    0 -0.16111797532E+03 -0.17987877902E+03  0.50418455647E+02  0.24669292204E+03  0.00000000000E+00 0.  1.
         21    1    1    2  502  501  0.27044217138E+02  0.26337597063E+02 -0.12693328000E+02  0.39826866251E+02  0.00000000000E+00 0. -1.
<scales pt_clust_4="550.00000" pt_clust_5="550.00000" pt_clust_6="37.74997"></scales>
<mgrwt>
<rscale>  0 0.30000000E+03</rscale>
<asrwt>  1 0.37749969E+02</asrwt>
<pdfrwt beam="1">  1        1 0.84035071E+00 0.30000000E+03</pdfrwt>
<pdfrwt beam="2">0</pdfrwt>
<totfact> 0.48706342E-04</totfact>
</mgrwt>
<clustering>
<clus scale="   37.750">  1  6  2 -1</clus>
<clus scale="  463.690">  4  5 -1 -1</clus>
<clus scale="  300.000">  1  4  2 -1</clus>
</clustering>
</event>
<event>
 6    1  0.9687246E-012  0.3000000E+03  0.7818608E-02  0.1093470E+00
          1   -1    0    0  502    0  0.00000000000E+00  0.00000000000E+00  0.24856177424E+03  0.24856177424E+03  0.00000000000E+00 0.  1.
         13   -1    0    0    0    0 -0.00000000000E+00 -0.00000000000E+00 -0.27500000000E+03  0.27500000000E+03  0.00000000000E+00 0.  1.
    9000005    2    1    2  501    0  0.27412862238E+02  0.15771370123E+02 -0.37739895821E+02  0.48997712183E+03  0.48749674773E+03 0.  0.
         13    1    3    3    0    0  0.10220616769E+03 -0.11597525657E+03 -0.20988120023E+03  0.26066545429E+03  0.00000000000E+00 0.  1.
          3    1    3    3  501    0 -0.74793305450E+02  0.13174662670E+03  0.17214130441E+03  0.22931166754E+03  0.00000000000E+00 0.  1.
         21    1    1    2  502  501 -0.27412862238E+02 -0.15771370123E+02  0.11301670065E+02  0.33584652416E+02  0.00000000000E+00 0. -1.
<scales pt_clust_4="550.00000" pt_clust_5="550.00000" pt_clust_6="31.62596"></scales>
<mgrwt>
<rscale>  0 0.30000000E+03</rscale>
<asrwt>  1 0.31625957E+02</asrwt>
<pdfrwt beam="1">  1        1 0.90386100E+00 0.30000000E+03</pdfrwt>
<pdfrwt beam="2">0</pdfrwt>
<totfact> 0.98833950E-05</totfact>
</mgrwt>
<clustering>
<clus scale="   31.626">  1  6  2 -1</clus>
<clus scale="  487.497">  4  5 -1 -1</clus>
<clus scale="  300.000">  1  4  2 -1</clus>
</clustering>
</event>
<event>
 6    1  0.9687246E-012  0.3000000E+03  0.7818608E-02  0.1093470E+00
          1   -1    0    0  502    0  0.00000000000E+00  0.00000000000E+00  0.22929253507E+03  0.22929253507E+03  0.00000000000E+00 0.  1.
         13   -1    0    0    0    0 -0.00000000000E+00 -0.00000000000E+00 -0.27500000000E+03  0.27500000000E+03  0.00000000000E+00 0.  1.
    9000005    2    1    2  501    0  0.22189087423E+01  0.34033595742E+02 -0.65532580527E+02  0.46484327141E+03  0.45893522274E+03 0.  0.
         13    1    3    3    0    0  0.38689161470E+02  0.70484442997E+02  0.18886755394E+03  0.20527021423E+03  0.00000000000E+00 0.  1.
          1    1    3    3  501    0 -0.36470252728E+02 -0.36450847255E+02 -0.25440013446E+03  0.25957305718E+03  0.00000000000E+00 0.  1.
         21    1    1    2  502  501 -0.22189087423E+01 -0.34033595742E+02  0.19825115598E+02  0.39449263664E+02  0.00000000000E+00 0.  1.
<scales pt_clust_4="550.00000" pt_clust_5="550.00000" pt_clust_6="34.10585"></scales>
<mgrwt>
<rscale>  0 0.30000000E+03</rscale>
<asrwt>  1 0.34105853E+02</asrwt>
<pdfrwt beam="1">  1        1 0.83379104E+00 0.30000000E+03</pdfrwt>
<pdfrwt beam="2">0</pdfrwt>
<totfact> 0.55486673E-04</totfact>
</mgrwt>
<clustering>
<clus scale="   34.106">  1  6  2 -1</clus>
<clus scale="  458.935">  4  5 -1 -1</clus>
<clus scale="  300.000">  1  4  2 -1</clus>
</clustering>
</event>
<event>
 6    1  0.9687246E-012  0.3000000E+03  0.7818608E-02  0.1093470E+00
          1   -1    0    0  502    0  0.00000000000E+00  0.00000000000E+00  0.24329133434E+03  0.24329133434E+03  0.00000000000E+00 0.  1.
         13   -1    0    0    0    0 -0.00000000000E+00 -0.00000000000E+00 -0.27500000000E+03  0.27500000000E+03  0.00000000000E+00 0.  1.
    9000005    2    1    2  501    0  0.29552436251E+02 -0.87881519515E+01 -0.74027285381E+02  0.46593253682E+03  0.45897985988E+03 0.  0.
         13    1    3    3    0    0  0.15497972763E+03  0.17659434464E+03 -0.20879947237E+02  0.23588185758E+03  0.00000000000E+00 0.  1.
          3    1    3    3  501    0 -0.12542729138E+03 -0.18538249659E+03 -0.53147338144E+02  0.23005067924E+03  0.00000000000E+00 0.  1.
         21    1    1    2  502  501 -0.29552436251E+02  0.87881519515E+01  0.42318619720E+02  0.52358797523E+02  0.00000000000E+00 0.  1.
<scales pt_clust_4="550.00000" pt_clust_5="550.00000" pt_clust_6="30.83145"></scales>
<mgrwt>
<rscale>  0 0.30000000E+03</rscale>
<asrwt>  1 0.30831447E+02</asrwt>
<pdfrwt beam="1">  1        1 0.88469576E+00 0.30000000E+03</pdfrwt>
<pdfrwt beam="2">0</pdfrwt>
<totfact> 0.17550418E-04</totfact>
</mgrwt>
<clustering>
<clus scale="   30.831">  1  6  2 -1</clus>
<clus scale="  458.980">  4  5 -1 -1</clus>
<clus scale="  300.000">  1  4  2 -1</clus>
</clustering>
</event>
<event>
 6    1  0.9687246E-012  0.3000000E+03  0.7818608E-02  0.1093470E+00
          1   -1    0    0  502    0  0.00000000000E+00  0.00000000000E+00  0.23964272019E+03  0.23964272019E+03  0.00000000000E+00 0.  1.
         13   -1    0    0    0    0 -0.00000000000E+00 -0.00000000000E+00 -0.27500000000E+03  0.27500000000E+03  0.00000000000E+00 0.  1.
    9000005    2    1    2  501    0 -0.37891107454E+02 -0.10651997280E+02 -0.58124191204E+02  0.46917258357E+03  0.46389146414E+03 0.  0.
         13    1    3    3    0    0  0.67846461076E+02  0.19843616916E+03 -0.98029516164E+02  0.23149479810E+03  0.00000000000E+00 0.  1.
          3    1    3    3  501    0 -0.10573756853E+03 -0.20908816644E+03  0.39905324960E+02  0.23767778546E+03  0.00000000000E+00 0.  1.
         21    1    1    2  502  501  0.37891107454E+02  0.10651997280E+02  0.22766911394E+02  0.45470136624E+02  0.00000000000E+00 0. -1.
<scales pt_clust_4="550.00000" pt_clust_5="550.00000" pt_clust_6="39.35989"></scales>
<mgrwt>
<rscale>  0 0.30000000E+03</rscale>
<asrwt>  1 0.39359892E+02</asrwt>
<pdfrwt beam="1">  1        1 0.87142807E+00 0.30000000E+03</pdfrwt>
<pdfrwt beam="2">0</pdfrwt>
<totfact> 0.23962721E-04</totfact>
</mgrwt>
<clustering>
<clus scale="   39.360">  1  6  2 -1</clus>
<clus scale="  463.891">  4  5 -1 -1</clus>
<clus scale="  300.000">  1  4  2 -1</clus>
</clustering>
</event>
<event>
 6    1  0.9687246E-012  0.3000000E+03  0.7818608E-02  0.1093470E+00
          1   -1    0    0  502    0  0.00000000000E+00  0.00000000000E+00  0.22875627453E+03  0.22875627453E+03  0.00000000000E+00 0.  1.
         13   -1    0    0    0    0 -0.00000000000E+00 -0.00000000000E+00 -0.27500000000E+03  0.27500000000E+03  0.00000000000E+00 0.  1.
    9000005    2    1    2  501    0 -0.29583693058E+02  0.83018581292E+01 -0.46422685559E+02  0.47302928688E+03  0.46974197680E+03 0.  0.
         13    1    3    3    0    0  0.16138787308E+03 -0.70825252888E+02 -0.15924329300E+03  0.23753039466E+03  0.00000000000E+00 0.  1.
          3    1    3    3  501    0 -0.19097156614E+03  0.79127111018E+02  0.11282060744E+03  0.23549889222E+03  0.00000000000E+00 0.  1.
         21    1    1    2  502  501  0.29583693058E+02 -0.83018581292E+01  0.17896008958E+00  0.30726987650E+02  0.00000000000E+00 0.  1.
<scales pt_clust_4="550.00000" pt_clust_5="550.00000" pt_clust_6="30.72647"></scales>
<mgrwt>
<rscale>  0 0.30000000E+03</rscale>
<asrwt>  1 0.30726466E+02</asrwt>
<pdfrwt beam="1">  1        1 0.83184100E+00 0.30000000E+03</pdfrwt>
<pdfrwt beam="2">0</pdfrwt>
<totfact> 0.58556556E-04</totfact>
</mgrwt>
<clustering>
<clus scale="   30.726">  1  6  2 -1</clus>
<clus scale="  469.742">  4  5 -1 -1</clus>
<clus scale="  300.000">  1  4  2 -1</clus>
</clustering>
</event>
<event>
 6    1  0.9687246E-012  0.3000000E+03  0.7818608E-02  0.1093470E+00
          1   -1    0    0  502    0  0.00000000000E+00  0.00000000000E+00  0.22882878682E+03  0.22882878682E+03  0.00000000000E+00 0.  1.
         13   -1    0    0    0    0 -0.00000000000E+00 -0.00000000000E+00 -0.27500000000E+03  0.27500000000E+03  0.00000000000E+00 0.  1.
    9000005    2    1    2  501    0  0.80351940969E+01 -0.32821226108E+02 -0.48904227182E+02  0.46992795213E+03  0.46615325755E+03 0.  0.
         13    1    3    3    0    0  0.19440154127E+02 -0.24191337044E+03 -0.85574776157E+02  0.25733837783E+03  0.00000000000E+00 0.  1.
          3    1    3    3  501    0 -0.11404960031E+02  0.20909214434E+03  0.36670548975E+02  0.21258957429E+03  0.00000000000E+00 0.  1.
         21    1    1    2  502  501 -0.80351940969E+01  0.32821226108E+02  0.27330140038E+01  0.33900834694E+02  0.00000000000E+00 0. -1.
<scales pt_clust_4="550.00000" pt_clust_5="550.00000" pt_clust_6="33.79049"></scales>
<mgrwt>
<rscale>  0 0.30000000E+03</rscale>
<asrwt>  1 0.33790490E+02</asrwt>
<pdfrwt beam="1">  1        1 0.83210468E+00 0.30000000E+03</pdfrwt>
<pdfrwt beam="2">0</pdfrwt>
<totfact> 0.57239018E-04</totfact>
</mgrwt>
<clustering>
<clus scale="   33.790">  1  6  2 -1</clus>
<clus scale="  466.153">  4  5 -1 -1</clus>
<clus scale="  300.000">  1  4  2 -1</clus>
</clustering>
</event>
<event>
 6    1  0.9687246E-012  0.3000000E+03  0.7818608E-02  0.1093470E+00
          1   -1    0    0  502    0  0.00000000000E+00  0.00000000000E+00  0.25719784920E+03  0.25719784920E+03  0.00000000000E+00 0.  1.
         13   -1    0    0    0    0 -0.00000000000E+00 -0.00000000000E+00 -0.27500000000E+03  0.27500000000E+03  0.00000000000E+00 0.  1.
    9000005    2    1    2  501    0  0.12796471324E+02  0.31426396440E+02  0.13475605524E+02  0.48604954357E+03  0.48467638563E+03 0.  0.
         13    1    3    3    0    0  0.14901445861E+03  0.30429539007E+02 -0.18863964437E+03  0.24231421986E+03  0.00000000000E+00 0.  1.
          3    1    3    3  501    0 -0.13621798729E+03  0.99685743392E+00  0.20211524989E+03  0.24373532371E+03  0.00000000000E+00 0.  1.
         21    1    1    2  502  501 -0.12796471324E+02 -0.31426396440E+02 -0.31277756325E+02  0.46148305628E+02  0.00000000000E+00 0. -1.
<scales pt_clust_4="550.00000" pt_clust_5="550.00000" pt_clust_6="33.93183"></scales>
<mgrwt>
<rscale>  0 0.30000000E+03</rscale>
<asrwt>  1 0.33931832E+02</asrwt>
<pdfrwt beam="1">  1        1 0.93526491E+00 0.30000000E+03</pdfrwt>
<pdfrwt beam="2">0</pdfrwt>
<totfact> 0.22489090E-05</totfact>
</mgrwt>
<clustering>
<clus scale="   33.932">  1  6  2 -1</clus>
<clus scale="  484.676">  4  5 -1 -1</clus>
<clus scale="  300.000">  1  4  2 -1</clus>
</clustering>
</event>
<event>
 6    1  0.9687246E-012  0.3000000E+03  0.7818608E-02  0.1093470E+00
          1   -1    0    0  502    0  0.00000000000E+00  0.00000000000E+00  0.23223361405E+03  0.23223361405E+03  0.00000000000E+00 0.  1.
         13   -1    0    0    0    0 -0.00000000000E+00 -0.00000000000E+00 -0.27500000000E+03  0.27500000000E+03  0.00000000000E+00 0.  1.
    9000005    2    1    2  501    0  0.31942504728E+02  0.96969504895E+01 -0.47329833490E+02  0.47354118892E+03  0.46998594661E+03 0.  0.
         13    1    3    3    0    0 -0.80875452731E+01 -0.30407889985E+02  0.20883094303E+03  0.21118809372E+03  0.00000000000E+00 0.  1.
          3    1    3    3  501    0  0.40030050002E+02  0.40104840474E+02 -0.25616077652E+03  0.26235309520E+03  0.00000000000E+00 0.  1.
         21    1    1    2  502  501 -0.31942504728E+02 -0.96969504895E+01  0.45634475356E+01  0.33692425121E+02  0.00000000000E+00 0.  1.
<scales pt_clust_4="550.00000" pt_clust_5="550.00000" pt_clust_6="33.38195"></scales>
<mgrwt>
<rscale>  0 0.30000000E+03</rscale>
<asrwt>  1 0.33381948E+02</asrwt>
<pdfrwt beam="1">  1        1 0.84448587E+00 0.30000000E+03</pdfrwt>
<pdfrwt beam="2">0</pdfrwt>
<totfact> 0.46057855E-04</totfact>
</mgrwt>
<clustering>
<clus scale="   33.382">  1  6  2 -1</clus>
<clus scale="  469.986">  4  5 -1 -1</clus>
<clus scale="  300.000">  1  4  2 -1</clus>
</clustering>
</event>
<event>
 6    1  0.9687246E-012  0.3000000E+03  0.7818608E-02  0.1093470E+00
          1   -1    0    0  502    0  0.00000000000E+00  0.00000000000E+00  0.22361768928E+03  0.22361768928E+03  0.00000000000E+00 0.  1.
         13   -1    0    0    0    0 -0.00000000000E+00 -0.00000000000E+00 -0.27500000000E+03  0.27500000000E+03  0.00000000000E+00 0.  1.
    9000005    2    1    2  501    0  0.61735429841E+01 -0.32523466664E+02 -0.55544357502E+02  0.46525287023E+03  0.46073763585E+03 0.  0.
         13    1    3    3    0    0 -0.26480096764E+02 -0.24103645223E+03 -0.73646391614E+02  0.25342367258E+03  0.00000000000E+00 0.  1.
          1    1    3    3  501    0  0.32653639748E+02  0.20851298556E+03  0.18102034112E+02  0.21182919765E+03  0.00000000000E+00 0.  1.
         21    1    1    2  502  501 -0.61735429841E+01  0.32523466664E+02  0.41620467777E+01  0.33364819049E+02  0.00000000000E+00 0.  1.
<scales pt_clust_4="550.00000" pt_clust_5="550.00000" pt_clust_6="33.10421"></scales>
<mgrwt>
<rscale>  0 0.30000000E+03</rscale>
<asrwt>  1 0.33104207E+02</asrwt>
<pdfrwt beam="1">  1        1 0.81315523E+00 0.30000000E+03</pdfrwt>
<pdfrwt beam="2">0</pdfrwt>
<totfact> 0.83230288E-04</totfact>
</mgrwt>
<clustering>
<clus scale="   33.104">  1  6  2 -1</clus>
<clus scale="  460.738">  4  5 -1 -1</clus>
<clus scale="  300.000">  1  4  2 -1</clus>
</clustering>
</event>
<event>
 6    1  0.9687246E-012  0.3000000E+03  0.7818608E-02  0.1093470E+00
          1   -1    0    0  502    0  0.00000000000E+00  0.00000000000E+00  0.24261670019E+03  0.24261670019E+03  0.00000000000E+00 0.  1.
         13   -1    0    0    0    0 -0.00000000000E+00 -0.00000000000E+00 -0.27500000000E+03  0.27500000000E+03  0.00000000000E+00 0.  1.
    9000005    2    1    2  501    0 -0.17242517967E+02 -0.43642963148E+02 -0.53806545068E+02  0.46603212793E+03  0.46053098409E+03 0.  0.
         13    1    3    3    0    0 -0.54569415468E+02  0.17783185586E+03 -0.13213164167E+03  0.22816827298E+03  0.00000000000E+00 0.  1.
          3    1    3    3  501    0  0.37326897501E+02 -0.22147481901E+03  0.78325096605E+02  0.23786385495E+03  0.00000000000E+00 0.  1.
         21    1    1    2  502  501  0.17242517967E+02  0.43642963148E+02  0.21423245259E+02  0.51584572263E+02  0.00000000000E+00 0. -1.
<scales pt_clust_4="550.00000" pt_clust_5="550.00000" pt_clust_6="46.92561"></scales>
<mgrwt>
<rscale>  0 0.30000000E+03</rscale>
<asrwt>  1 0.46925608E+02</asrwt>
<pdfrwt beam="1">  1        1 0.88224255E+00 0.30000000E+03</pdfrwt>
<pdfrwt beam="2">0</pdfrwt>
<totfact> 0.17521154E-04</totfact>
</mgrwt>
<clustering>
<clus scale="   46.926">  1  6  2 -1</clus>
<clus scale="  460.531">  4  5 -1 -1</clus>
<clus scale="  300.000">  1  4  2 -1</clus>
</clustering>
</event>
<event>
 6    1  0.9687246E-012  0.3000000E+03  0.7818608E-02  0.1093470E+00
          1   -1    0    0  502    0  0.00000000000E+00  0.00000000000E+00  0.24109211287E+03  0.24109211287E+03  0.00000000000E+00 0.  1.
         13   -1    0    0    0    0 -0.00000000000E+00 -0.00000000000E+00 -0.27500000000E+03  0.27500000000E+03  0.00000000000E+00 0.  1.
    9000005    2    1    2  501    0  0.29406347360E+02 -0.11006119877E+02 -0.47050023583E+02  0.48205413863E+03  0.47872394959E+03 0.  0.
         13    1    3    3    0    0  0.17381851592E+03 -0.13581036288E+03  0.98937230598E+02  0.24175588253E+03  0.00000000000E+00 0.  1.
          1    1    3    3  501    0 -0.14441216856E+03  0.12480424300E+03 -0.14598725418E+03  0.24029825609E+03  0.00000000000E+00 0.  1.
         21    1    1    2  502  501 -0.29406347360E+02  0.11006119877E+02  0.13142136449E+02  0.34037974238E+02  0.00000000000E+00 0.  1.
<scales pt_clust_4="550.00000" pt_clust_5="550.00000" pt_clust_6="31.39853"></scales>
<mgrwt>
<rscale>  0 0.30000000E+03</rscale>
<asrwt>  1 0.31398534E+02</asrwt>
<pdfrwt beam="1">  1        1 0.87669859E+00 0.30000000E+03</pdfrwt>
<pdfrwt beam="2">0</pdfrwt>
<totfact> 0.22010983E-04</totfact>
</mgrwt>
<clustering>
<clus scale="   31.399">  1  6  2 -1</clus>
<clus scale="  478.724">  4  5 -1 -1</clus>
<clus scale="  300.000">  1  4  2 -1</clus>
</clustering>
</event>
<event>
 6    1  0.9687246E-012  0.3000000E+03  0.7818608E-02  0.1093470E+00
          1   -1    0    0  502    0  0.00000000000E+00  0.00000000000E+00  0.24606802396E+03  0.24606802396E+03  0.00000000000E+00 0.  1.
         13   -1    0    0    0    0 -0.00000000000E+00 -0.00000000000E+00 -0.27500000000E+03  0.27500000000E+03  0.00000000000E+00 0.  1.
    9000005    2    1    2  501    0 -0.27507640862E+01  0.38781587185E+02 -0.67802255049E+02  0.46609096694E+03  0.45949109401E+03 0.  0.
         13    1    3    3    0    0  0.19347372828E+03  0.13869123322E+03 -0.61229888069E+02  0.24579756081E+03  0.00000000000E+00 0.  1.
          3    1    3    3  501    0 -0.19622449237E+03 -0.99909646037E+02 -0.65723669805E+01  0.22029340613E+03  0.00000000000E+00 0.  1.
         21    1    1    2  502  501  0.27507640862E+01 -0.38781587185E+02  0.38870279005E+02  0.54977057011E+02  0.00000000000E+00 0.  1.
<scales pt_clust_4="550.00000" pt_clust_5="550.00000" pt_clust_6="38.87902"></scales>
<mgrwt>
<rscale>  0 0.30000000E+03</rscale>
<asrwt>  1 0.38879020E+02</asrwt>
<pdfrwt beam="1">  1        1 0.89479281E+00 0.30000000E+03</pdfrwt>
<pdfrwt beam="2">0</pdfrwt>
<totfact> 0.12432544E-04</totfact>
</mgrwt>
<clustering>
<clus scale="   38.879">  1  6  2 -1</clus>
<clus scale="  459.491">  4  5 -1 -1</clus>
<clus scale="  300.000">  1  4  2 -1</clus>
</clustering>
</event>
<event>
 6    1  0.9687246E-012  0.3000000E+03  0.7818608E-02  0.1093470E+00
          1   -1    0    0  502    0  0.00000000000E+00  0.00000000000E+00  0.22628068792E+03  0.22628068792E+03  0.00000000000E+00 0.  1.
         13   -1    0    0    0    0 -0.00000000000E+00 -0.00000000000E+00 -0.27500000000E+03  0.27500000000E+03  0.00000000000E+00 0.  1.
    9000005    2    1    2  501    0 -0.17600614222E+02 -0.35692998554E+02 -0.50462382779E+02  0.46144590335E+03  0.45694868188E+03 0.  0.
         13    1    3    3    0    0 -0.24387072973E+02 -0.20597253338E+03 -0.15729805462E+03  0.26031152841E+03  0.00000000000E+00 0.  1.
          1    1    3    3  501    0  0.67864587512E+01  0.17027953483E+03  0.10683567184E+03  0.20113437494E+03  0.00000000000E+00 0.  1.
         21    1    1    2  502  501  0.17600614222E+02  0.35692998554E+02  0.17430707029E+01  0.39834784576E+02  0.00000000000E+00 0.  1.
<scales pt_clust_4="550.00000" pt_clust_5="550.00000" pt_clust_6="39.79663"></scales>
<mgrwt>
<rscale>  0 0.30000000E+03</rscale>
<asrwt>  1 0.39796630E+02</asrwt>
<pdfrwt beam="1">  1        1 0.82283887E+00 0.30000000E+03</pdfrwt>
<pdfrwt beam="2">0</pdfrwt>
<totfact> 0.66683018E-04</totfact>
</mgrwt>
<clustering>
<clus scale="   39.797">  1  6  2 -1</clus>
<clus scale="  456.949">  4  5 -1 -1</clus>
<clus scale="  300.000">  1  4  2 -1</clus>
</clustering>
</event>
<event>
 6    1  0.9687246E-012  0.3000000E+03  0.7818608E-02  0.1093470E+00
          1   -1    0    0  502    0  0.00000000000E+00  0.00000000000E+00  0.23358897082E+03  0.23358897082E+03  0.00000000000E+00 0.  1.
         13   -1    0    0    0    0 -0.00000000000E+00 -0.00000000000E+00 -0.27500000000E+03  0.27500000000E+03  0.00000000000E+00 0.  1.
    9000005    2    1    2  501    0 -0.32902501294E+02 -0.61029628146E+01 -0.62404738081E+02  0.46908509051E+03  0.46370966138E+03 0.  0.
         13    1    3    3    0    0  0.12218615666E+03  0.17170144333E+03 -0.94530981471E+02  0.23096958453E+03  0.00000000000E+00 0.  1.
          3    1    3    3  501    0 -0.15508865795E+03 -0.17780440614E+03  0.32126243390E+02  0.23811550597E+03  0.00000000000E+00 0.  1.
         21    1    1    2  502  501  0.32902501294E+02  0.61029628146E+01  0.20993708901E+02  0.39503880314E+02  0.00000000000E+00 0.  1.
<scales pt_clust_4="550.00000" pt_clust_5="550.00000" pt_clust_6="33.46372"></scales>
<mgrwt>
<rscale>  0 0.30000000E+03</rscale>
<asrwt>  1 0.33463723E+02</asrwt>
<pdfrwt beam="1">  1        1 0.84941444E+00 0.30000000E+03</pdfrwt>
<pdfrwt beam="2">0</pdfrwt>
<totfact> 0.41563962E-04</totfact>
</mgrwt>
<clustering>
<clus scale="   33.464">  1  6  2 -1</clus>
<clus scale="  463.710">  4  5 -1 -1</clus>
<clus scale="  300.000">  1  4  2 -1</clus>
</clustering>
</event>
<event>
 6    1  0.9687246E-012  0.3000000E+03  0.7818608E-02  0.1093470E+00
          1   -1    0    0  502    0  0.00000000000E+00  0.00000000000E+00  0.24574367933E+03  0.24574367933E+03  0.00000000000E+00 0.  1.
         13   -1    0    0    0    0 -0.00000000000E+00 -0.00000000000E+00 -0.27500000000E+03  0.27500000000E+03  0.00000000000E+00 0.  1.
    9000005    2    1    2  501    0  0.48497247408E+01  0.36035388565E+02 -0.37039786506E+02  0.48355965858E+03  0.48076598108E+03 0.  0.
         13    1    3    3    0    0 -0.10257385635E+03 -0.35923975942E+02 -0.22821087477E+03  0.25276892890E+03  0.00000000000E+00 0.  1.
          3    1    3    3  501    0  0.10742358109E+03  0.71959364507E+02  0.19117108827E+03  0.23079072967E+03  0.00000000000E+00 0.  1.
         21    1    1    2  502  501 -0.48497247408E+01 -0.36035388565E+02  0.77834658395E+01  0.37184020756E+02  0.00000000000E+00 0.  1.
<scales pt_clust_4="550.00000" pt_clust_5="550.00000" pt_clust_6="36.36027"></scales>
<mgrwt>
<rscale>  0 0.30000000E+03</rscale>
<asrwt>  1 0.36360268E+02</asrwt>
<pdfrwt beam="1">  1        1 0.89361338E+00 0.30000000E+03</pdfrwt>
<pdfrwt beam="2">0</pdfrwt>
<totfact> 0.12982683E-04</totfact>
</mgrwt>
<clustering>
<clus scale="   36.360">  1  6  2 -1</clus>
<clus scale="  480.766">  4  5 -1 -1</clus>
<clus scale="  300.000">  1  4  2 -1</clus>
</clustering>
</event>
<event>
 6    1  0.9687246E-012  0.3000000E+03  0.7818608E-02  0.1093470E+00
          1   -1    0    0  502    0  0.00000000000E+00  0.00000000000E+00  0.25921930292E+03  0.25921930292E+03  0.00000000000E+00 0.  1.
         13   -1    0    0    0    0 -0.00000000000E+00 -0.00000000000E+00 -0.27500000000E+03  0.27500000000E+03  0.00000000000E+00 0.  1.
    9000005    2    1    2  501    0 -0.44853257839E+02 -0.23389589326E+02 -0.35083856191E+02  0.48007597850E+03  0.47611257129E+03 0.  0.
         13    1    3    3    0    0  0.47083559468E+01  0.48120087773E+02  0.21235312390E+03  0.21778788004E+03  0.00000000000E+00 0.  1.
          1    1    3    3  501    0 -0.49561613786E+02 -0.71509677099E+02 -0.24743698009E+03  0.26228809846E+03  0.00000000000E+00 0.  1.
         21    1    1    2  502  501  0.44853257839E+02  0.23389589326E+02  0.19303159112E+02  0.54143324421E+02  0.00000000000E+00 0.  1.
<scales pt_clust_4="550.00000" pt_clust_5="550.00000" pt_clust_6="50.58545"></scales>
<mgrwt>
<rscale>  0 0.30000000E+03</rscale>
<asrwt>  1 0.50585449E+02</asrwt>
<pdfrwt beam="1">  1        1 0.94261565E+00 0.30000000E+03</pdfrwt>
<pdfrwt beam="2">0</pdfrwt>
<totfact> 0.16124960E-05</totfact>
</mgrwt>
<clustering>
<clus scale="   50.585">  1  6  2 -1</clus>
<clus scale="  476.113">  4  5 -1 -1</clus>
<clus scale="  300.000">  1  4  2 -1</clus>
</clustering>
</event>
<event>
 6    1  0.9687246E-012  0.3000000E+03  0.7818608E-02  0.1093470E+00
          1   -1    0    0  502    0  0.00000000000E+00  0.00000000000E+00  0.23961249916E+03  0.23961249916E+03  0.00000000000E+00 0.  1.
         13   -1    0    0    0    0 -0.00000000000E+00 -0.00000000000E+00 -0.27500000000E+03  0.27500000000E+03  0.00000000000E+00 0.  1.
    9000005    2    1    2  501    0 -0.37743070135E+02  0.20202020302E+02 -0.43226449444E+02  0.47109112415E+03  0.46714629438E+03 0.  0.
         13    1    3    3    0    0 -0.46309237260E+02 -0.20616382832E+03  0.63562258692E+02  0.22065409648E+03  0.00000000000E+00 0.  1.
          3    1    3    3  501    0  0.85661671255E+01  0.22636584862E+03 -0.10678870814E+03  0.25043702767E+03  0.00000000000E+00 0.  1.
         21    1    1    2  502  501  0.37743070135E+02 -0.20202020302E+02  0.78389486048E+01  0.43521375009E+02  0.00000000000E+00 0. -1.
<scales pt_clust_4="550.00000" pt_clust_5="550.00000" pt_clust_6="42.80959"></scales>
<mgrwt>
<rscale>  0 0.30000000E+03</rscale>
<asrwt>  1 0.42809590E+02</asrwt>
<pdfrwt beam="1">  1        1 0.87131818E+00 0.30000000E+03</pdfrwt>
<pdfrwt beam="2">0</pdfrwt>
<totfact> 0.23660958E-04</totfact>
</mgrwt>
<clustering>
<clus scale="   42.810">  1  6  2 -1</clus>
<clus scale="  467.146">  4  5 -1 -1</clus>
<clus scale="  300.000">  1  4  2 -1</clus>
</clustering>
</event>
<event>
 6    1  0.9687246E-012  0.3000000E+03  0.7818608E-02  0.1093470E+00
          1   -1    0    0  502    0  0.00000000000E+00  0.00000000000E+00  0.24980173309E+03  0.24980173309E+03  0.00000000000E+00 0.  1.
         13   -1    0    0    0    0 -0.00000000000E+00 -0.00000000000E+00 -0.27500000000E+03  0.27500000000E+03  0.00000000000E+00 0.  1.
    9000005    2    1    2  501    0 -0.59601203958E+01  0.36480586325E+02 -0.40410847117E+02  0.48482950761E+03  0.48172633172E+03 0.  0.
         13    1    3    3    0    0 -0.91386910926E+02  0.15261302872E+03  0.15911919338E+03  0.23866550175E+03  0.00000000000E+00 0.  1.
          3    1    3    3  501    0  0.85426790530E+02 -0.11613244240E+03 -0.19953004050E+03  0.24616400586E+03  0.00000000000E+00 0.  1.
         21    1    1    2  502  501  0.59601203958E+01 -0.36480586325E+02  0.15212580211E+02  0.39972225487E+02  0.00000000000E+00 0.  1.
<scales pt_clust_4="550.00000" pt_clust_5="550.00000" pt_clust_6="36.96426"></scales>
<mgrwt>
<rscale>  0 0.30000000E+03</rscale>
<asrwt>  1 0.36964256E+02</asrwt>
<pdfrwt beam="1">  1        1 0.90836994E+00 0.30000000E+03</pdfrwt>
<pdfrwt beam="2">0</pdfrwt>
<totfact> 0.77742799E-05</totfact>
</mgrwt>
<clustering>
<clus scale="   36.964">  1  6  2 -1</clus>
<clus scale="  481.726">  4  5 -1 -1</clus>
<clus scale="  300.000">  1  4  2 -1</clus>
</clustering>
</event>
<event>
 6    1  0.9687246E-012  0.3000000E+03  0.7818608E-02  0.1093470E+00
          1   -1    0    0  502    0  0.00000000000E+00  0.00000000000E+00  0.23125535684E+03  0.23125535684E+03  0.00000000000E+00 0.  1.
         13   -1    0    0    0    0 -0.00000000000E+00 -0.00000000000E+00 -0.27500000000E+03  0.27500000000E+03  0.00000000000E+00 0.  1.
    9000005    2    1    2  501    0 -0.21830389485E+02  0.36548441065E+02 -0.50767537375E+02  0.46310821913E+03  0.45834433053E+03 0.  0.
         13    1    3    3    0    0 -0.15192757719E+03 -0.16018798501E+03  0.46452269937E+01  0.22082517381E+03  0.00000000000E+00 0.  1.
          1    1    3    3  501    0  0.13009718771E+03  0.19673642608E+03 -0.55412764369E+02  0.24228304532E+03  0.00000000000E+00 0.  1.
         21    1    1    2  502  501  0.21830389485E+02 -0.36548441065E+02  0.70228942197E+01  0.43147137710E+02  0.00000000000E+00 0.  1.
<scales pt_clust_4="550.00000" pt_clust_5="550.00000" pt_clust_6="42.57176"></scales>
<mgrwt>
<rscale>  0 0.30000000E+03</rscale>
<asrwt>  1 0.42571756E+02</asrwt>
<pdfrwt beam="1">  1        1 0.84092857E+00 0.30000000E+03</pdfrwt>
<pdfrwt beam="2">0</pdfrwt>
<totfact> 0.47155824E-04</totfact>
</mgrwt>
<clustering>
<clus scale="   42.572">  1  6  2 -1</clus>
<clus scale="  458.344">  4  5 -1 -1</clus>
<clus scale="  300.000">  1  4  2 -1</clus>
</clustering>
</event>
<event>
 6    1  0.9687246E-012  0.3000000E+03  0.7818608E-02  0.1093470E+00
          1   -1    0    0  502    0  0.00000000000E+00  0.00000000000E+00  0.24053817385E+03  0.24053817385E+03  0.00000000000E+00 0.  1.
         13   -1    0    0    0    0 -0.00000000000E+00 -0.00000000000E+00 -0.27500000000E+03  0.27500000000E+03  0.00000000000E+00 0.  1.
    9000005    2    1    2  501    0  0.35649671462E+02 -0.93703845166E+01 -0.38930385189E+02  0.47840771194E+03  0.47539421618E+03 0.  0.
         13    1    3    3    0    0  0.89370661765E+02  0.13042480599E+03  0.16294706823E+03  0.22704513262E+03  0.00000000000E+00 0.  1.
          3    1    3    3  501    0 -0.53720990303E+02 -0.13979519051E+03 -0.20187745341E+03  0.25136257933E+03  0.00000000000E+00 0.  1.
         21    1    1    2  502  501 -0.35649671462E+02  0.93703845166E+01  0.44685590379E+01  0.37130461905E+02  0.00000000000E+00 0.  1.
<scales pt_clust_4="550.00000" pt_clust_5="550.00000" pt_clust_6="36.86059"></scales>
<mgrwt>
<rscale>  0 0.30000000E+03</rscale>
<asrwt>  1 0.36860591E+02</asrwt>
<pdfrwt beam="1">  1        1 0.87468427E+00 0.30000000E+03</pdfrwt>
<pdfrwt beam="2">0</pdfrwt>
<totfact> 0.22448374E-04</totfact>
</mgrwt>
<clustering>
<clus scale="   36.861">  1  6  2 -1</clus>
<clus scale="  475.394">  4  5 -1 -1</clus>
<clus scale="  300.000">  1  4  2 -1</clus>
</clustering>
</event>
<event>
 6    1  0.9687246E-012  0.3000000E+03  0.7818608E-02  0.1093470E+00
          1   -1    0    0  502    0  0.00000000000E+00  0.00000000000E+00  0.25171948273E+03  0.25171948273E+03  0.00000000000E+00 0.  1.
         13   -1    0    0    0    0 -0.00000000000E+00 -0.00000000000E+00 -0.27500000000E+03  0.27500000000E+03  0.00000000000E+00 0.  1.
    9000005    2    1    2  501    0 -0.24269267541E+02 -0.26090468431E+02 -0.23627221495E+02  0.49108480729E+03  0.48922012679E+03 0.  0.
         13    1    3    3    0    0 -0.15674739541E+03 -0.10130958025E+03  0.16465687082E+03  0.24888805139E+03  0.00000000000E+00 0.  1.
          3    1    3    3  501    0  0.13247812787E+03  0.75219111822E+02 -0.18828409231E+03  0.24219675589E+03  0.00000000000E+00 0.  1.
         21    1    1    2  502  501  0.24269267541E+02  0.26090468431E+02  0.34670422139E+00  0.35634675441E+02  0.00000000000E+00 0. -1.
<scales pt_clust_4="550.00000" pt_clust_5="550.00000" pt_clust_6="35.63299"></scales>
<mgrwt>
<rscale>  0 0.30000000E+03</rscale>
<asrwt>  1 0.35632989E+02</asrwt>
<pdfrwt beam="1">  1        1 0.91534357E+00 0.30000000E+03</pdfrwt>
<pdfrwt beam="2">0</pdfrwt>
<totfact> 0.52984752E-05</totfact>
</mgrwt>
<clustering>
<clus scale="   35.633">  1  6  2 -1</clus>
<clus scale="  489.220">  4  5 -1 -1</clus>
<clus scale="  300.000">  1  4  2 -1</clus>
</clustering>
</event>
<event>
 6    1  0.9687246E-012  0.3000000E+03  0.7818608E-02  0.1093470E+00
          1   -1    0    0  502    0  0.00000000000E+00  0.00000000000E+00  0.23039062839E+03  0.23039062839E+03  0.00000000000E+00 0.  1.
         13   -1    0    0    0    0 -0.00000000000E+00 -0.00000000000E+00 -0.27500000000E+03  0.27500000000E+03  0.00000000000E+00 0.  1.
    9000005    2    1    2  501    0 -0.26698479056E+02 -0.14349703537E+02 -0.48840238975E+02  0.47478633108E+03  0.47129393000E+03 0.  0.
         13    1    3    3    0    0  0.27136216969E+02  0.16372489493E+03  0.13448093883E+03  0.21360556734E+03  0.00000000000E+00 0.  1.
          1    1    3    3  501    0 -0.53834696025E+02 -0.17807459847E+03 -0.18332117780E+03  0.26118076374E+03  0.00000000000E+00 0.  1.
         21    1    1    2  502  501  0.26698479056E+02  0.14349703537E+02  0.42308673687E+01  0.30604297316E+02  0.00000000000E+00 0. -1.
<scales pt_clust_4="550.00000" pt_clust_5="550.00000" pt_clust_6="30.31044"></scales>
<mgrwt>
<rscale>  0 0.30000000E+03</rscale>
<asrwt>  1 0.30310440E+02</asrwt>
<pdfrwt beam="1">  1        1 0.83778410E+00 0.30000000E+03</pdfrwt>
<pdfrwt beam="2">0</pdfrwt>
<totfact> 0.53062506E-04</totfact>
</mgrwt>
<clustering>
<clus scale="   30.310">  1  6  2 -1</clus>
<clus scale="  471.294">  4  5 -1 -1</clus>
<clus scale="  300.000">  1  4  2 -1</clus>
</clustering>
</event>
<event>
 6    1  0.9687246E-012  0.3000000E+03  0.7818608E-02  0.1093470E+00
          1   -1    0    0  502    0  0.00000000000E+00  0.00000000000E+00  0.22405161608E+03  0.22405161608E+03  0.00000000000E+00 0.  1.
         13   -1    0    0    0    0 -0.00000000000E+00 -0.00000000000E+00 -0.27500000000E+03  0.27500000000E+03  0.00000000000E+00 0.  1.
    9000005    2    1    2  501    0 -0.27353451579E+02  0.16769604711E+02 -0.65601457641E+02  0.46377919733E+03  0.45799362624E+03 0.  0.
         13    1    3    3    0    0  0.90182841037E+02  0.15287975920E+03  0.11292776919E+03  0.21037548964E+03  0.00000000000E+00 0.  1.
          1    1    3    3  501    0 -0.11753629262E+03 -0.13611015448E+03 -0.17852922683E+03  0.25340370768E+03  0.00000000000E+00 0.  1.
         21    1    1    2  502  501  0.27353451579E+02 -0.16769604711E+02  0.14653073724E+02  0.35272418757E+02  0.00000000000E+00 0.  1.
<scales pt_clust_4="550.00000" pt_clust_5="550.00000" pt_clust_6="32.08475"></scales>
<mgrwt>
<rscale>  0 0.30000000E+03</rscale>
<asrwt>  1 0.32084746E+02</asrwt>
<pdfrwt beam="1">  1        1 0.81473315E+00 0.30000000E+03</pdfrwt>
<pdfrwt beam="2">0</pdfrwt>
<totfact> 0.81322668E-04</totfact>
</mgrwt>
<clustering>
<clus scale="   32.085">  1  6  2 -1</clus>
<clus scale="  457.994">  4  5 -1 -1</clus>
<clus scale="  300.000">  1  4  2 -1</clus>
</clustering>
</event>
<event>
 6    1  0.9687246E-012  0.3000000E+03  0.7818608E-02  0.1093470E+00
          1   -1    0    0  502    0  0.00000000000E+00  0.00000000000E+00  0.22747447044E+03  0.22747447044E+03  0.00000000000E+00 0.  1.
         13   -1    0    0    0    0 -0.00000000000E+00 -0.00000000000E+00 -0.27500000000E+03  0.27500000000E+03  0.00000000000E+00 0.  1.
    9000005    2    1    2  501    0 -0.31783274786E+02  0.20192502319E+02 -0.45343298847E+02  0.46475609512E+03  0.46100357862E+03 0.  0.
         13    1    3    3    0    0  0.20287304396E+03 -0.55943559726E+02  0.14364092916E+02  0.21093477903E+03  0.00000000000E+00 0.  1.
          1    1    3    3  501    0 -0.23465631874E+03  0.76136062045E+02 -0.59707391762E+02  0.25382131609E+03  0.00000000000E+00 0.  1.
         21    1    1    2  502  501  0.31783274786E+02 -0.20192502319E+02 -0.21822307102E+01  0.37718375322E+02  0.00000000000E+00 0.  1.
<scales pt_clust_4="550.00000" pt_clust_5="550.00000" pt_clust_6="37.65519"></scales>
<mgrwt>
<rscale>  0 0.30000000E+03</rscale>
<asrwt>  1 0.37655195E+02</asrwt>
<pdfrwt beam="1">  1        1 0.82717989E+00 0.30000000E+03</pdfrwt>
<pdfrwt beam="2">0</pdfrwt>
<totfact> 0.61631622E-04</totfact>
</mgrwt>
<clustering>
<clus scale="   37.655">  1  6  2 -1</clus>
<clus scale="  461.004">  4  5 -1 -1</clus>
<clus scale="  300.000">  1  4  2 -1</clus>
</clustering>
</event>
<event>
 6    1  0.9687246E-012  0.3000000E+03  0.7818608E-02  0.1093470E+00
          1   -1    0    0  502    0  0.00000000000E+00  0.00000000000E+00  0.22633132045E+03  0.22633132045E+03  0.00000000000E+00 0.  1.
         13   -1    0    0    0    0 -0.00000000000E+00 -0.00000000000E+00 -0.27500000000E+03  0.27500000000E+03  0.00000000000E+00 0.  1.
    9000005    2    1    2  501    0  0.82794216308E+01 -0.30012663362E+02 -0.62029036140E+02  0.46745200651E+03  0.46227099009E+03 0.  0.
         13    1    3    3    0    0 -0.86296680825E+02  0.19167135785E+03  0.23944240076E+02  0.21156170063E+03  0.00000000000E+00 0.  1.
          3    1    3    3  501    0  0.94576102456E+02 -0.22168402122E+03 -0.85973276216E+02  0.25589030588E+03  0.00000000000E+00 0.  1.
         21    1    1    2  502  501 -0.82794216308E+01  0.30012663362E+02  0.13360356586E+02  0.33879313935E+02  0.00000000000E+00 0.  1.
<scales pt_clust_4="550.00000" pt_clust_5="550.00000" pt_clust_6="31.13372"></scales>
<mgrwt>
<rscale>  0 0.30000000E+03</rscale>
<asrwt>  1 0.31133724E+02</asrwt>
<pdfrwt beam="1">  1        1 0.82302298E+00 0.30000000E+03</pdfrwt>
<pdfrwt beam="2">0</pdfrwt>
<totfact> 0.69550091E-04</totfact>
</mgrwt>
<clustering>
<clus scale="   31.134">  1  6  2 -1</clus>
<clus scale="  462.271">  4  5 -1 -1</clus>
<clus scale="  300.000">  1  4  2 -1</clus>
</clustering>
</event>
<event>
 6    1  0.9687246E-012  0.3000000E+03  0.7818608E-02  0.1093470E+00
          1   -1    0    0  502    0  0.00000000000E+00  0.00000000000E+00  0.22640815941E+03  0.22640815941E+03  0.00000000000E+00 0.  1.
         13   -1    0    0    0    0 -0.00000000000E+00 -0.00000000000E+00 -0.27500000000E+03  0.27500000000E+03  0.00000000000E+00 0.  1.
    9000005    2    1    2  501    0 -0.34331719551E+02  0.11446794169E+02 -0.60876366653E+02  0.46319028866E+03  0.45774405013E+03 0.  0.
         13    1    3    3    0    0  0.18415822207E+03  0.23186514310E+02  0.80890933293E+02  0.20247273468E+03  0.00000000000E+00 0.  1.
          1    1    3    3  501    0 -0.21848994162E+03 -0.11739720141E+02 -0.14176729995E+03  0.26071755398E+03  0.00000000000E+00 0.  1.
         21    1    1    2  502  501  0.34331719551E+02 -0.11446794169E+02  0.12284526059E+02  0.38217870749E+02  0.00000000000E+00 0.  1.
<scales pt_clust_4="550.00000" pt_clust_5="550.00000" pt_clust_6="36.18972"></scales>
<mgrwt>
<rscale>  0 0.30000000E+03</rscale>
<asrwt>  1 0.36189723E+02</asrwt>
<pdfrwt beam="1">  1        1 0.82330240E+00 0.30000000E+03</pdfrwt>
<pdfrwt beam="2">0</pdfrwt>
<totfact> 0.67218061E-04</totfact>
</mgrwt>
<clustering>
<clus scale="   36.190">  1  6  2 -1</clus>
<clus scale="  457.744">  4  5 -1 -1</clus>
<clus scale="  300.000">  1  4  2 -1</clus>
</clustering>
</event>
<event>
 6    1  0.9687246E-012  0.3000000E+03  0.7818608E-02  0.1093470E+00
          1   -1    0    0  502    0  0.00000000000E+00  0.00000000000E+00  0.22556762705E+03  0.22556762705E+03  0.00000000000E+00 0.  1.
         13   -1    0    0    0    0 -0.00000000000E+00 -0.00000000000E+00 -0.27500000000E+03  0.27500000000E+03  0.00000000000E+00 0.  1.
    9000005    2    1    2  501    0 -0.16957368761E+02 -0.32393744164E+02 -0.49457519382E+02  0.46400387932E+03  0.45990938975E+03 0.  0.
         13    1    3    3    0    0  0.16608857805E+03  0.45597080113E+02 -0.16111685984E+03  0.23584561051E+03  0.00000000000E+00 0.  1.
          3    1    3    3  501    0 -0.18304594681E+03 -0.77990824277E+02  0.11165934046E+03  0.22815826881E+03  0.00000000000E+00 0.  1.
         21    1    1    2  502  501  0.16957368761E+02  0.32393744164E+02  0.25146436447E-01  0.36563747737E+02  0.00000000000E+00 0.  1.
<scales pt_clust_4="550.00000" pt_clust_5="550.00000" pt_clust_6="36.56374"></scales>
<mgrwt>
<rscale>  0 0.30000000E+03</rscale>
<asrwt>  1 0.36563739E+02</asrwt>
<pdfrwt beam="1">  1        1 0.82024592E+00 0.30000000E+03</pdfrwt>
<pdfrwt beam="2">0</pdfrwt>
<totfact> 0.71390983E-04</totfact>
</mgrwt>
<clustering>
<clus scale="   36.564">  1  6  2 -1</clus>
<clus scale="  459.909">  4  5 -1 -1</clus>
<clus scale="  300.000">  1  4  2 -1</clus>
</clustering>
</event>
<event>
 6    1  0.9687246E-012  0.3000000E+03  0.7818608E-02  0.1093470E+00
          1   -1    0    0  502    0  0.00000000000E+00  0.00000000000E+00  0.22974081982E+03  0.22974081982E+03  0.00000000000E+00 0.  1.
         13   -1    0    0    0    0 -0.00000000000E+00 -0.00000000000E+00 -0.27500000000E+03  0.27500000000E+03  0.00000000000E+00 0.  1.
    9000005    2    1    2  501    0 -0.82700531349E+01 -0.30394566243E+02 -0.51056982619E+02  0.47271211474E+03  0.46888986394E+03 0.  0.
         13    1    3    3    0    0  0.10799477643E+03 -0.14083085661E+03  0.13799779736E+03  0.22481012875E+03  0.00000000000E+00 0.  1.
          1    1    3    3  501    0 -0.11626482957E+03  0.11043629037E+03 -0.18905477998E+03  0.24790198599E+03  0.00000000000E+00 0.  1.
         21    1    1    2  502  501  0.82700531349E+01  0.30394566243E+02  0.57978024353E+01  0.32028705079E+02  0.00000000000E+00 0.  1.
<scales pt_clust_4="550.00000" pt_clust_5="550.00000" pt_clust_6="31.49958"></scales>
<mgrwt>
<rscale>  0 0.30000000E+03</rscale>
<asrwt>  1 0.31499578E+02</asrwt>
<pdfrwt beam="1">  1        1 0.83542116E+00 0.30000000E+03</pdfrwt>
<pdfrwt beam="2">0</pdfrwt>
<totfact> 0.54797919E-04</totfact>
</mgrwt>
<clustering>
<clus scale="   31.500">  1  6  2 -1</clus>
<clus scale="  468.890">  4  5 -1 -1</clus>
<clus scale="  300.000">  1  4  2 -1</clus>
</clustering>
</event>
<event>
 6    1  0.9687246E-012  0.3000000E+03  0.7818608E-02  0.1093470E+00
          1   -1    0    0  502    0  0.00000000000E+00  0.00000000000E+00  0.22785845409E+03  0.22785845409E+03  0.00000000000E+00 0.  1.
         13   -1    0    0    0    0 -0.00000000000E+00 -0.00000000000E+00 -0.27500000000E+03  0.27500000000E+03  0.00000000000E+00 0.  1.
    9000005    2    1    2  501    0  0.20538300683E+02 -0.28532736437E+02 -0.58364378266E+02  0.46595464927E+03  0.46094619609E+03 0.  0.
         13    1    3    3    0    0 -0.31526326306E+02 -0.13049737773E+03 -0.22605121595E+03  0.26291182377E+03  0.00000000000E+00 0.  1.
          3    1    3    3  501    0  0.52064626990E+02  0.10196464129E+03  0.16768683768E+03  0.20304282551E+03  0.00000000000E+00 0.  1.
         21    1    1    2  502  501 -0.20538300683E+02  0.28532736437E+02  0.11222832352E+02  0.36903804811E+02  0.00000000000E+00 0.  1.
<scales pt_clust_4="550.00000" pt_clust_5="550.00000" pt_clust_6="35.15592"></scales>
<mgrwt>
<rscale>  0 0.30000000E+03</rscale>
<asrwt>  1 0.35155922E+02</asrwt>
<pdfrwt beam="1">  1        1 0.82857620E+00 0.30000000E+03</pdfrwt>
<pdfrwt beam="2">0</pdfrwt>
<totfact> 0.60705615E-04</totfact>
</mgrwt>
<clustering>
<clus scale="   35.156">  1  6  2 -1</clus>
<clus scale="  460.946">  4  5 -1 -1</clus>
<clus scale="  300.000">  1  4  2 -1</clus>
</clustering>
</event>
<event>
 6    1  0.9687246E-012  0.3000000E+03  0.7818608E-02  0.1093470E+00
          1   -1    0    0  502    0  0.00000000000E+00  0.00000000000E+00  0.24363470855E+03  0.24363470855E+03  0.00000000000E+00 0.  1.
         13   -1    0    0    0    0 -0.00000000000E+00 -0.00000000000E+00 -0.27500000000E+03  0.27500000000E+03  0.00000000000E+00 0.  1.
    9000005    2    1    2  501    0  0.28179379621E+02  0.34175185000E+02 -0.22464035328E+02  0.47345447984E+03  0.47084232062E+03 0.  0.
         13    1    3    3    0    0  0.24803665490E+03  0.13200884723E+02  0.17536023640E+02  0.24900593900E+03  0.00000000000E+00 0.  1.
          1    1    3    3  501    0 -0.21985727528E+03  0.20974300276E+02 -0.40000058969E+02  0.22444854084E+03  0.00000000000E+00 0.  1.
         21    1    1    2  502  501 -0.28179379621E+02 -0.34175185000E+02 -0.89012561261E+01  0.45180228709E+02  0.00000000000E+00 0.  1.
<scales pt_clust_4="550.00000" pt_clust_5="550.00000" pt_clust_6="44.29473"></scales>
<mgrwt>
<rscale>  0 0.30000000E+03</rscale>
<asrwt>  1 0.44294725E+02</asrwt>
<pdfrwt beam="1">  1        1 0.88594439E+00 0.30000000E+03</pdfrwt>
<pdfrwt beam="2">0</pdfrwt>
<totfact> 0.15775908E-04</totfact>
</mgrwt>
<clustering>
<clus scale="   44.295">  1  6  2 -1</clus>
<clus scale="  470.842">  4  5 -1 -1</clus>
<clus scale="  300.000">  1  4  2 -1</clus>
</clustering>
</event>
<event>
 6    1  0.9687246E-012  0.3000000E+03  0.7818608E-02  0.1093470E+00
          1   -1    0    0  502    0  0.00000000000E+00  0.00000000000E+00  0.22775885218E+03  0.22775885218E+03  0.00000000000E+00 0.  1.
         13   -1    0    0    0    0 -0.00000000000E+00 -0.00000000000E+00 -0.27500000000E+03  0.27500000000E+03  0.00000000000E+00 0.  1.
    9000005    2    1    2  501    0  0.26998337133E+02 -0.17816588016E+02 -0.32991016912E+02  0.46741189691E+03  0.46512270764E+03 0.  0.
         13    1    3    3    0    0 -0.50559383054E+02 -0.15742950118E+03  0.15089574537E+03  0.22385223928E+03  0.00000000000E+00 0.  1.
          1    1    3    3  501    0  0.77557720187E+02  0.13961291317E+03 -0.18388676228E+03  0.24355965763E+03  0.00000000000E+00 0.  1.
         21    1    1    2  502  501 -0.26998337133E+02  0.17816588016E+02 -0.14250130903E+02  0.35346955276E+02  0.00000000000E+00 0.  1.
<scales pt_clust_4="550.00000" pt_clust_5="550.00000" pt_clust_6="32.34721"></scales>
<mgrwt>
<rscale>  0 0.30000000E+03</rscale>
<asrwt>  1 0.32347211E+02</asrwt>
<pdfrwt beam="1">  1        1 0.82821401E+00 0.30000000E+03</pdfrwt>
<pdfrwt beam="2">0</pdfrwt>
<totfact> 0.62108744E-04</totfact>
</mgrwt>
<clustering>
<clus scale="   32.347">  1  6  2 -1</clus>
<clus scale="  465.123">  4  5 -1 -1</clus>
<clus scale="  300.000">  1  4  2 -1</clus>
</clustering>
</event>
<event>
 6    1  0.9687246E-012  0.3000000E+03  0.7818608E-02  0.1093470E+00
          1   -1    0    0  502    0  0.00000000000E+00  0.00000000000E+00  0.22110971447E+03  0.22110971447E+03  0.00000000000E+00 0.  1.
         13   -1    0    0    0    0 -0.00000000000E+00 -0.00000000000E+00 -0.27500000000E+03  0.27500000000E+03  0.00000000000E+00 0.  1.
    9000005    2    1    2  501    0  0.41415759659E+01  0.30507072403E+02 -0.55787704665E+02  0.46526438553E+03  0.46088051199E+03 0.  0.
         13    1    3    3    0    0  0.10797625217E+02  0.22813850506E+03  0.59962890723E+02  0.23613410272E+03  0.00000000000E+00 0.  1.
          1    1    3    3  501    0 -0.66560492512E+01 -0.19763143266E+03 -0.11575059539E+03  0.22913028281E+03  0.00000000000E+00 0.  1.
         21    1    1    2  502  501 -0.41415759659E+01 -0.30507072403E+02  0.18974191337E+01  0.30845328941E+02  0.00000000000E+00 0.  1.
<scales pt_clust_4="550.00000" pt_clust_5="550.00000" pt_clust_6="30.78691"></scales>
<mgrwt>
<rscale>  0 0.30000000E+03</rscale>
<asrwt>  1 0.30786915E+02</asrwt>
<pdfrwt beam="1">  1        1 0.80403533E+00 0.30000000E+03</pdfrwt>
<pdfrwt beam="2">0</pdfrwt>
<totfact> 0.99278122E-04</totfact>
</mgrwt>
<clustering>
<clus scale="   30.787">  1  6  2 -1</clus>
<clus scale="  460.881">  4  5 -1 -1</clus>
<clus scale="  300.000">  1  4  2 -1</clus>
</clustering>
</event>
<event>
 6    1  0.9687246E-012  0.3000000E+03  0.7818608E-02  0.1093470E+00
          1   -1    0    0  502    0  0.00000000000E+00  0.00000000000E+00  0.25262819376E+03  0.25262819376E+03  0.00000000000E+00 0.  1.
         13   -1    0    0    0    0 -0.00000000000E+00 -0.00000000000E+00 -0.27500000000E+03  0.27500000000E+03  0.00000000000E+00 0.  1.
    9000005    2    1    2  501    0  0.37836941057E+02  0.92901446927E+01 -0.62096302893E+02  0.47198669368E+03  0.46625909887E+03 0.  0.
         13    1    3    3    0    0  0.12997311437E+03 -0.11925498610E+03 -0.19677098391E+03  0.26426044403E+03  0.00000000000E+00 0.  1.
          1    1    3    3  501    0 -0.92136173316E+02  0.12854513079E+03  0.13467468102E+03  0.20772624965E+03  0.00000000000E+00 0.  1.
         21    1    1    2  502  501 -0.37836941057E+02 -0.92901446927E+01  0.39724496654E+02  0.55641500082E+02  0.00000000000E+00 0.  1.
<scales pt_clust_4="550.00000" pt_clust_5="550.00000" pt_clust_6="38.96076"></scales>
<mgrwt>
<rscale>  0 0.30000000E+03</rscale>
<asrwt>  1 0.38960761E+02</asrwt>
<pdfrwt beam="1">  1        1 0.91864798E+00 0.30000000E+03</pdfrwt>
<pdfrwt beam="2">0</pdfrwt>
<totfact> 0.43871451E-05</totfact>
</mgrwt>
<clustering>
<clus scale="   38.961">  1  6  2 -1</clus>
<clus scale="  466.259">  4  5 -1 -1</clus>
<clus scale="  300.000">  1  4  2 -1</clus>
</clustering>
</event>
<event>
 6    1  0.9687246E-012  0.3000000E+03  0.7818608E-02  0.1093470E+00
          1   -1    0    0  502    0  0.00000000000E+00  0.00000000000E+00  0.22461531258E+03  0.22461531258E+03  0.00000000000E+00 0.  1.
         13   -1    0    0    0    0 -0.00000000000E+00 -0.00000000000E+00 -0.27500000000E+03  0.27500000000E+03  0.00000000000E+00 0.  1.
    9000005    2    1    2  501    0 -0.32851761786E+02  0.26463158901E+01 -0.56350973937E+02  0.46612146516E+03  0.46152740631E+03 0.  0.
         13    1    3    3    0    0 -0.14880485267E+02 -0.18498971602E+03 -0.16519413092E+03  0.24845869831E+03  0.00000000000E+00 0.  1.
          1    1    3    3  501    0 -0.17971276519E+02  0.18763603191E+03  0.10884315699E+03  0.21766276685E+03  0.00000000000E+00 0.  1.
         21    1    1    2  502  501  0.32851761786E+02 -0.26463158901E+01  0.59662865166E+01  0.33493847420E+02  0.00000000000E+00 0. -1.
<scales pt_clust_4="550.00000" pt_clust_5="550.00000" pt_clust_6="32.95817"></scales>
<mgrwt>
<rscale>  0 0.30000000E+03</rscale>
<asrwt>  1 0.32958174E+02</asrwt>
<pdfrwt beam="1">  1        1 0.81678295E+00 0.30000000E+03</pdfrwt>
<pdfrwt beam="2">0</pdfrwt>
<totfact> 0.77860922E-04</totfact>
</mgrwt>
<clustering>
<clus scale="   32.958">  1  6  2 -1</clus>
<clus scale="  461.527">  4  5 -1 -1</clus>
<clus scale="  300.000">  1  4  2 -1</clus>
</clustering>
</event>
<event>
 6    1  0.9687246E-012  0.3000000E+03  0.7818608E-02  0.1093470E+00
          1   -1    0    0  502    0  0.00000000000E+00  0.00000000000E+00  0.23276000088E+03  0.23276000088E+03  0.00000000000E+00 0.  1.
         13   -1    0    0    0    0 -0.00000000000E+00 -0.00000000000E+00 -0.27500000000E+03  0.27500000000E+03  0.00000000000E+00 0.  1.
    9000005    2    1    2  501    0  0.34523386224E+02  0.89286310824E+01 -0.22430522895E+02  0.46696784480E+03  0.46506371077E+03 0.  0.
         13    1    3    3    0    0 -0.12676820024E+03 -0.16343172542E+03  0.62542330558E+02  0.21608250410E+03  0.00000000000E+00 0.  1.
          3    1    3    3  501    0  0.16129158646E+03  0.17236035650E+03 -0.84972853453E+02  0.25088534071E+03  0.00000000000E+00 0.  1.
         21    1    1    2  502  501 -0.34523386224E+02 -0.89286310824E+01 -0.19809476223E+02  0.40792156080E+02  0.00000000000E+00 0.  1.
<scales pt_clust_4="550.00000" pt_clust_5="550.00000" pt_clust_6="35.65930"></scales>
<mgrwt>
<rscale>  0 0.30000000E+03</rscale>
<asrwt>  1 0.35659303E+02</asrwt>
<pdfrwt beam="1">  1        1 0.84640000E+00 0.30000000E+03</pdfrwt>
<pdfrwt beam="2">0</pdfrwt>
<totfact> 0.43760386E-04</totfact>
</mgrwt>
<clustering>
<clus scale="   35.659">  1  6  2 -1</clus>
<clus scale="  465.064">  4  5 -1 -1</clus>
<clus scale="  300.000">  1  4  2 -1</clus>
</clustering>
</event>
<event>
 6    1  0.9687246E-012  0.3000000E+03  0.7818608E-02  0.1093470E+00
          1   -1    0    0  502    0  0.00000000000E+00  0.00000000000E+00  0.22568052835E+03  0.22568052835E+03  0.00000000000E+00 0.  1.
         13   -1    0    0    0    0 -0.00000000000E+00 -0.00000000000E+00 -0.27500000000E+03  0.27500000000E+03  0.00000000000E+00 0.  1.
    9000005    2    1    2  501    0  0.28934392001E+02 -0.22558274889E+02 -0.56073282494E+02  0.46337518333E+03  0.45850438679E+03 0.  0.
         13    1    3    3    0    0  0.22641058125E+03 -0.89088958090E+02 -0.73763692734E+02  0.25424334036E+03  0.00000000000E+00 0.  1.
          3    1    3    3  501    0 -0.19747618925E+03  0.66530683200E+02  0.17690410239E+02  0.20913184296E+03  0.00000000000E+00 0.  1.
         21    1    1    2  502  501 -0.28934392001E+02  0.22558274889E+02  0.67538108455E+01  0.37305345024E+02  0.00000000000E+00 0.  1.
<scales pt_clust_4="550.00000" pt_clust_5="550.00000" pt_clust_6="36.68889"></scales>
<mgrwt>
<rscale>  0 0.30000000E+03</rscale>
<asrwt>  1 0.36688892E+02</asrwt>
<pdfrwt beam="1">  1        1 0.82065647E+00 0.30000000E+03</pdfrwt>
<pdfrwt beam="2">0</pdfrwt>
<totfact> 0.70760491E-04</totfact>
</mgrwt>
<clustering>
<clus scale="   36.689">  1  6  2 -1</clus>
<clus scale="  458.504">  4  5 -1 -1</clus>
<clus scale="  300.000">  1  4  2 -1</clus>
</clustering>
</event>
<event>
 6    1  0.9687246E-012  0.3000000E+03  0.7818608E-02  0.1093470E+00
          1   -1    0    0  502    0  0.00000000000E+00  0.00000000000E+00  0.23390391657E+03  0.23390391657E+03  0.00000000000E+00 0.  1.
         13   -1    0    0    0    0 -0.00000000000E+00 -0.00000000000E+00 -0.27500000000E+03  0.27500000000E+03  0.00000000000E+00 0.  1.
    9000005    2    1    2  501    0  0.13880742758E+02 -0.34362184774E+02 -0.12332485433E+02  0.46199145200E+03  0.46033745965E+03 0.  0.
         13    1    3    3    0    0  0.14267364887E+03  0.15744871980E+03 -0.70278466423E+02  0.22379663155E+03  0.00000000000E+00 0.  1.
          1    1    3    3  501    0 -0.12879290611E+03 -0.19181090457E+03  0.57945980990E+02  0.23819482045E+03  0.00000000000E+00 0.  1.
         21    1    1    2  502  501 -0.13880742758E+02  0.34362184774E+02 -0.28763598000E+02  0.46912464568E+02  0.00000000000E+00 0.  1.
<scales pt_clust_4="550.00000" pt_clust_5="550.00000" pt_clust_6="37.05990"></scales>
<mgrwt>
<rscale>  0 0.30000000E+03</rscale>
<asrwt>  1 0.37059899E+02</asrwt>
<pdfrwt beam="1">  1        1 0.85055970E+00 0.30000000E+03</pdfrwt>
<pdfrwt beam="2">0</pdfrwt>
<totfact> 0.39782366E-04</totfact>
</mgrwt>
<clustering>
<clus scale="   37.060">  1  6  2 -1</clus>
<clus scale="  460.337">  4  5 -1 -1</clus>
<clus scale="  300.000">  1  4  2 -1</clus>
</clustering>
</event>
<event>
 6    1  0.9687246E-012  0.3000000E+03  0.7818608E-02  0.1093470E+00
          1   -1    0    0  502    0  0.00000000000E+00  0.00000000000E+00  0.23718040545E+03  0.23718040545E+03  0.00000000000E+00 0.  1.
         13   -1    0    0    0    0 -0.00000000000E+00 -0.00000000000E+00 -0.27500000000E+03  0.27500000000E+03  0.00000000000E+00 0.  1.
    9000005    2    1    2  501    0 -0.31220506783E+02 -0.19839871819E+02 -0.34342327235E+02  0.47502624087E+03  0.47233694914E+03 0.  0.
         13    1    3    3    0    0 -0.61845338004E+01  0.69162688177E+02  0.20606662253E+03  0.21745155510E+03  0.00000000000E+00 0.  1.
          3    1    3    3  501    0 -0.25035972983E+02 -0.89002559996E+02 -0.24040894976E+03  0.25757468578E+03  0.00000000000E+00 0.  1.
         21    1    1    2  502  501  0.31220506783E+02  0.19839871819E+02 -0.34772673121E+01  0.37154164579E+02  0.00000000000E+00 0.  1.
<scales pt_clust_4="550.00000" pt_clust_5="550.00000" pt_clust_6="36.99111"></scales>
<mgrwt>
<rscale>  0 0.30000000E+03</rscale>
<asrwt>  1 0.36991106E+02</asrwt>
<pdfrwt beam="1">  1        1 0.86247420E+00 0.30000000E+03</pdfrwt>
<pdfrwt beam="2">0</pdfrwt>
<totfact> 0.30111855E-04</totfact>
</mgrwt>
<clustering>
<clus scale="   36.991">  1  6  2 -1</clus>
<clus scale="  472.337">  4  5 -1 -1</clus>
<clus scale="  300.000">  1  4  2 -1</clus>
</clustering>
</event>
<event>
 6    1  0.9687246E-012  0.3000000E+03  0.7818608E-02  0.1093470E+00
          1   -1    0    0  502    0  0.00000000000E+00  0.00000000000E+00  0.23557783725E+03  0.23557783725E+03  0.00000000000E+00 0.  1.
         13   -1    0    0    0    0 -0.00000000000E+00 -0.00000000000E+00 -0.27500000000E+03  0.27500000000E+03  0.00000000000E+00 0.  1.
    9000005    2    1    2  501    0  0.23439843858E+02 -0.20993888417E+02 -0.65377132867E+02  0.46978776365E+03  0.46415105703E+03 0.  0.
         13    1    3    3    0    0 -0.14184006360E+03  0.15278717308E+03  0.32050453337E+02  0.21092594781E+03  0.00000000000E+00 0.  1.
          3    1    3    3  501    0  0.16527990745E+03 -0.17378106150E+03 -0.97427586204E+02  0.25886181584E+03  0.00000000000E+00 0.  1.
         21    1    1    2  502  501 -0.23439843858E+02  0.20993888417E+02  0.25954970120E+02  0.40790073607E+02  0.00000000000E+00 0. -1.
<scales pt_clust_4="550.00000" pt_clust_5="550.00000" pt_clust_6="31.46696"></scales>
<mgrwt>
<rscale>  0 0.30000000E+03</rscale>
<asrwt>  1 0.31466961E+02</asrwt>
<pdfrwt beam="1">  1        1 0.85664668E+00 0.30000000E+03</pdfrwt>
<pdfrwt beam="2">0</pdfrwt>
<totfact> 0.35780608E-04</totfact>
</mgrwt>
<clustering>
<clus scale="   31.467">  1  6  2 -1</clus>
<clus scale="  464.151">  4  5 -1 -1</clus>
<clus scale="  300.000">  1  4  2 -1</clus>
</clustering>
</event>
<event>
 6    1  0.9687246E-012  0.3000000E+03  0.7818608E-02  0.1093470E+00
          1   -1    0    0  502    0  0.00000000000E+00  0.00000000000E+00  0.25222238525E+03  0.25222238525E+03  0.00000000000E+00 0.  1.
         13   -1    0    0    0    0 -0.00000000000E+00 -0.00000000000E+00 -0.27500000000E+03  0.27500000000E+03  0.00000000000E+00 0.  1.
    9000005    2    1    2  501    0 -0.33138661444E+02 -0.34524726123E+01 -0.37841530159E+02  0.49065721060E+03  0.48805985951E+03 0.  0.
         13    1    3    3    0    0 -0.68137418718E+02  0.20322525093E+03 -0.14146993334E+03  0.25682085679E+03  0.00000000000E+00 0.  1.
          3    1    3    3  501    0  0.34998757275E+02 -0.20667772354E+03  0.10362840318E+03  0.23383635381E+03  0.00000000000E+00 0.  1.
         21    1    1    2  502  501  0.33138661444E+02  0.34524726123E+01  0.15063915406E+02  0.36565174645E+02  0.00000000000E+00 0.  1.
<scales pt_clust_4="550.00000" pt_clust_5="550.00000" pt_clust_6="33.31802"></scales>
<mgrwt>
<rscale>  0 0.30000000E+03</rscale>
<asrwt>  1 0.33318020E+02</asrwt>
<pdfrwt beam="1">  1        1 0.91717231E+00 0.30000000E+03</pdfrwt>
<pdfrwt beam="2">0</pdfrwt>
<totfact> 0.48731766E-05</totfact>
</mgrwt>
<clustering>
<clus scale="   33.318">  1  6  2 -1</clus>
<clus scale="  488.060">  4  5 -1 -1</clus>
<clus scale="  300.000">  1  4  2 -1</clus>
</clustering>
</event>
<event>
 6    1  0.9687246E-012  0.3000000E+03  0.7818608E-02  0.1093470E+00
          1   -1    0    0  502    0  0.00000000000E+00  0.00000000000E+00  0.23994453694E+03  0.23994453694E+03  0.00000000000E+00 0.  1.
         13   -1    0    0    0    0 -0.00000000000E+00 -0.00000000000E+00 -0.27500000000E+03  0.27500000000E+03  0.00000000000E+00 0.  1.
    9000005    2    1    2  501    0 -0.17159386597E+02  0.47732583158E+02 -0.49489745318E+02  0.46220752387E+03  0.45674250534E+03 0.  0.
         13    1    3    3    0    0  0.85997296158E+02 -0.18478152361E+03 -0.39736943793E+02  0.20765059864E+03  0.00000000000E+00 0.  1.
          3    1    3    3  501    0 -0.10315668275E+03  0.23251410677E+03 -0.97528015253E+01  0.25455692523E+03  0.00000000000E+00 0.  1.
         21    1    1    2  502  501  0.17159386597E+02 -0.47732583158E+02  0.14434282261E+02  0.52737013072E+02  0.00000000000E+00 0. -1.
<scales pt_clust_4="550.00000" pt_clust_5="550.00000" pt_clust_6="50.72321"></scales>
<mgrwt>
<rscale>  0 0.30000000E+03</rscale>
<asrwt>  1 0.50723210E+02</asrwt>
<pdfrwt beam="1">  1        1 0.87252559E+00 0.30000000E+03</pdfrwt>
<pdfrwt beam="2">0</pdfrwt>
<totfact> 0.22315607E-04</totfact>
</mgrwt>
<clustering>
<clus scale="   50.723">  1  6  2 -1</clus>
<clus scale="  456.743">  4  5 -1 -1</clus>
<clus scale="  300.000">  1  4  2 -1</clus>
</clustering>
</event>
<event>
 6    1  0.9687246E-012  0.3000000E+03  0.7818608E-02  0.1093470E+00
          1   -1    0    0  502    0  0.00000000000E+00  0.00000000000E+00  0.23300295020E+03  0.23300295020E+03  0.00000000000E+00 0.  1.
         13   -1    0    0    0    0 -0.00000000000E+00 -0.00000000000E+00 -0.27500000000E+03  0.27500000000E+03  0.00000000000E+00 0.  1.
    9000005    2    1    2  501    0 -0.39216956912E+02 -0.13198883426E+01 -0.54465514328E+02  0.46683045426E+03  0.46197886202E+03 0.  0.
         13    1    3    3    0    0 -0.10441008133E+03 -0.21398268069E+03 -0.55140523253E+02  0.24439830200E+03  0.00000000000E+00 0.  1.
          1    1    3    3  501    0  0.65193124420E+02  0.21266279234E+03  0.67500892503E+00  0.22243215225E+03  0.00000000000E+00 0.  1.
         21    1    1    2  502  501  0.39216956912E+02  0.13198883426E+01  0.12468464529E+02  0.41172495946E+02  0.00000000000E+00 0. -1.
<scales pt_clust_4="550.00000" pt_clust_5="550.00000" pt_clust_6="39.23916"></scales>
<mgrwt>
<rscale>  0 0.30000000E+03</rscale>
<asrwt>  1 0.39239162E+02</asrwt>
<pdfrwt beam="1">  1        1 0.84728346E+00 0.30000000E+03</pdfrwt>
<pdfrwt beam="2">0</pdfrwt>
<totfact> 0.42213719E-04</totfact>
</mgrwt>
<clustering>
<clus scale="   39.239">  1  6  2 -1</clus>
<clus scale="  461.979">  4  5 -1 -1</clus>
<clus scale="  300.000">  1  4  2 -1</clus>
</clustering>
</event>
<event>
 6    1  0.9687246E-012  0.3000000E+03  0.7818608E-02  0.1093470E+00
          1   -1    0    0  502    0  0.00000000000E+00  0.00000000000E+00  0.22372269600E+03  0.22372269600E+03  0.00000000000E+00 0.  1.
         13   -1    0    0    0    0 -0.00000000000E+00 -0.00000000000E+00 -0.27500000000E+03  0.27500000000E+03  0.00000000000E+00 0.  1.
    9000005    2    1    2  501    0 -0.33639528345E+02 -0.84921259584E+00 -0.60504960969E+02  0.46383016554E+03  0.45863409504E+03 0.  0.
         13    1    3    3    0    0 -0.21892655293E+03 -0.68677112773E+02  0.53980242866E+02  0.23571009316E+03  0.00000000000E+00 0.  1.
          3    1    3    3  501    0  0.18528702459E+03  0.67827900178E+02 -0.11448520383E+03  0.22812007237E+03  0.00000000000E+00 0.  1.
         21    1    1    2  502  501  0.33639528345E+02  0.84921259584E+00  0.92276569741E+01  0.34892530469E+02  0.00000000000E+00 0.  1.
<scales pt_clust_4="550.00000" pt_clust_5="550.00000" pt_clust_6="33.65025"></scales>
<mgrwt>
<rscale>  0 0.30000000E+03</rscale>
<asrwt>  1 0.33650246E+02</asrwt>
<pdfrwt beam="1">  1        1 0.81353708E+00 0.30000000E+03</pdfrwt>
<pdfrwt beam="2">0</pdfrwt>
<totfact> 0.82393990E-04</totfact>
</mgrwt>
<clustering>
<clus scale="   33.650">  1  6  2 -1</clus>
<clus scale="  458.634">  4  5 -1 -1</clus>
<clus scale="  300.000">  1  4  2 -1</clus>
</clustering>
</event>
<event>
 6    1  0.9687246E-012  0.3000000E+03  0.7818608E-02  0.1093470E+00
          1   -1    0    0  502    0  0.00000000000E+00  0.00000000000E+00  0.23452410294E+03  0.23452410294E+03  0.00000000000E+00 0.  1.
         13   -1    0    0    0    0 -0.00000000000E+00 -0.00000000000E+00 -0.27500000000E+03  0.27500000000E+03  0.00000000000E+00 0.  1.
    9000005    2    1    2  501    0  0.21615497163E+02  0.26649585786E+02 -0.63020452128E+02  0.46846698293E+03  0.46293877194E+03 0.  0.
         13    1    3    3    0    0 -0.16592023790E+03 -0.23388839510E+00 -0.18079496039E+03  0.24539029678E+03  0.00000000000E+00 0.  1.
          1    1    3    3  501    0  0.18753573506E+03  0.26883474181E+02  0.11777450826E+03  0.22307668616E+03  0.00000000000E+00 0.  1.
         21    1    1    2  502  501 -0.21615497163E+02 -0.26649585786E+02  0.22544555067E+02  0.41057120008E+02  0.00000000000E+00 0. -1.
<scales pt_clust_4="550.00000" pt_clust_5="550.00000" pt_clust_6="34.31370"></scales>
<mgrwt>
<rscale>  0 0.30000000E+03</rscale>
<asrwt>  1 0.34313702E+02</asrwt>
<pdfrwt beam="1">  1        1 0.85281492E+00 0.30000000E+03</pdfrwt>
<pdfrwt beam="2">0</pdfrwt>
<totfact> 0.38405950E-04</totfact>
</mgrwt>
<clustering>
<clus scale="   34.314">  1  6  2 -1</clus>
<clus scale="  462.939">  4  5 -1 -1</clus>
<clus scale="  300.000">  1  4  2 -1</clus>
</clustering>
</event>
<event>
 6    1  0.9687246E-012  0.3000000E+03  0.7818608E-02  0.1093470E+00
          1   -1    0    0  502    0  0.00000000000E+00  0.00000000000E+00  0.23228261944E+03  0.23228261944E+03  0.00000000000E+00 0.  1.
         13   -1    0    0    0    0 -0.00000000000E+00 -0.00000000000E+00 -0.27500000000E+03  0.27500000000E+03  0.00000000000E+00 0.  1.
    9000005    2    1    2  501    0 -0.10506167400E+02  0.29979598330E+02 -0.61946119671E+02  0.47014907292E+03  0.46496631400E+03 0.  0.
         13    1    3    3    0    0  0.43243103909E+02 -0.52706582333E+02  0.18878599760E+03  0.20071896460E+03  0.00000000000E+00 0.  1.
          3    1    3    3  501    0 -0.53749271309E+02  0.82686180663E+02 -0.25073211728E+03  0.26943010833E+03  0.00000000000E+00 0.  1.
         21    1    1    2  502  501  0.10506167400E+02 -0.29979598330E+02  0.19228739116E+02  0.37133546524E+02  0.00000000000E+00 0.  1.
<scales pt_clust_4="550.00000" pt_clust_5="550.00000" pt_clust_6="31.76721"></scales>
<mgrwt>
<rscale>  0 0.30000000E+03</rscale>
<asrwt>  1 0.31767214E+02</asrwt>
<pdfrwt beam="1">  1        1 0.84466407E+00 0.30000000E+03</pdfrwt>
<pdfrwt beam="2">0</pdfrwt>
<totfact> 0.46327570E-04</totfact>
</mgrwt>
<clustering>
<clus scale="   31.767">  1  6  2 -1</clus>
<clus scale="  464.966">  4  5 -1 -1</clus>
<clus scale="  300.000">  1  4  2 -1</clus>
</clustering>
</event>
<event>
 6    1  0.9687246E-012  0.3000000E+03  0.7818608E-02  0.1093470E+00
          1   -1    0    0  502    0  0.00000000000E+00  0.00000000000E+00  0.23418656028E+03  0.23418656028E+03  0.00000000000E+00 0.  1.
         13   -1    0    0    0    0 -0.00000000000E+00 -0.00000000000E+00 -0.27500000000E+03  0.27500000000E+03  0.00000000000E+00 0.  1.
    9000005    2    1    2  501    0 -0.24541845416E+02  0.18782145180E+02 -0.48579122606E+02  0.47732157974E+03  0.47383635169E+03 0.  0.
         13    1    3    3    0    0 -0.22723198372E+03  0.93098653705E+00  0.74961501633E+02  0.23927905861E+03  0.00000000000E+00 0.  1.
          1    1    3    3  501    0  0.20269013830E+03  0.17851158643E+02 -0.12354062424E+03  0.23804252113E+03  0.00000000000E+00 0.  1.
         21    1    1    2  502  501  0.24541845416E+02 -0.18782145180E+02  0.77656828843E+01  0.31864980538E+02  0.00000000000E+00 0. -1.
<scales pt_clust_4="550.00000" pt_clust_5="550.00000" pt_clust_6="30.90423"></scales>
<mgrwt>
<rscale>  0 0.30000000E+03</rscale>
<asrwt>  1 0.30904226E+02</asrwt>
<pdfrwt beam="1">  1        1 0.85158749E+00 0.30000000E+03</pdfrwt>
<pdfrwt beam="2">0</pdfrwt>
<totfact> 0.40251819E-04</totfact>
</mgrwt>
<clustering>
<clus scale="   30.904">  1  6  2 -1</clus>
<clus scale="  473.836">  4  5 -1 -1</clus>
<clus scale="  300.000">  1  4  2 -1</clus>
</clustering>
</event>
<event>
 6    1  0.9687246E-012  0.3000000E+03  0.7818608E-02  0.1093470E+00
          1   -1    0    0  502    0  0.00000000000E+00  0.00000000000E+00  0.22346006526E+03  0.22346006526E+03  0.00000000000E+00 0.  1.
         13   -1    0    0    0    0 -0.00000000000E+00 -0.00000000000E+00 -0.27500000000E+03  0.27500000000E+03  0.00000000000E+00 0.  1.
    9000005    2    1    2  501    0 -0.23867215458E+02 -0.21647265328E+02 -0.49079021240E+02  0.46614436992E+03  0.46243223851E+03 0.  0.
         13    1    3    3    0    0 -0.23886661359E+03 -0.29969683855E+02 -0.67985477003E+02  0.25015488426E+03  0.00000000000E+00 0.  1.
          3    1    3    3  501    0  0.21499939813E+03  0.83224185278E+01  0.18906455763E+02  0.21598948566E+03  0.00000000000E+00 0.  1.
         21    1    1    2  502  501  0.23867215458E+02  0.21647265328E+02 -0.24609135004E+01  0.32315695338E+02  0.00000000000E+00 0. -1.
<scales pt_clust_4="550.00000" pt_clust_5="550.00000" pt_clust_6="32.22186"></scales>
<mgrwt>
<rscale>  0 0.30000000E+03</rscale>
<asrwt>  1 0.32221857E+02</asrwt>
<pdfrwt beam="1">  1        1 0.81258206E+00 0.30000000E+03</pdfrwt>
<pdfrwt beam="2">0</pdfrwt>
<totfact> 0.84539409E-04</totfact>
</mgrwt>
<clustering>
<clus scale="   32.222">  1  6  2 -1</clus>
<clus scale="  462.432">  4  5 -1 -1</clus>
<clus scale="  300.000">  1  4  2 -1</clus>
</clustering>
</event>
<event>
 6    1  0.9687246E-012  0.3000000E+03  0.7818608E-02  0.1093470E+00
          1   -1    0    0  502    0  0.00000000000E+00  0.00000000000E+00  0.23729385274E+03  0.23729385274E+03  0.00000000000E+00 0.  1.
         13   -1    0    0    0    0 -0.00000000000E+00 -0.00000000000E+00 -0.27500000000E+03  0.27500000000E+03  0.00000000000E+00 0.  1.
    9000005    2    1    2  501    0  0.40397732401E+02  0.19219992221E+02 -0.24204090419E+02  0.46556387924E+03  0.46277694711E+03 0.  0.
         13    1    3    3    0    0 -0.12562552125E+03 -0.78489775791E+02  0.14637826297E+03  0.20825228057E+03  0.00000000000E+00 0.  1.
          3    1    3    3  501    0  0.16602325365E+03  0.97709768012E+02 -0.17058235339E+03  0.25731159866E+03  0.00000000000E+00 0.  1.
         21    1    1    2  502  501 -0.40397732401E+02 -0.19219992221E+02 -0.13502056846E+02  0.46729973499E+02  0.00000000000E+00 0. -1.
<scales pt_clust_4="550.00000" pt_clust_5="550.00000" pt_clust_6="44.73686"></scales>
<mgrwt>
<rscale>  0 0.30000000E+03</rscale>
<asrwt>  1 0.44736863E+02</asrwt>
<pdfrwt beam="1">  1        1 0.86288674E+00 0.30000000E+03</pdfrwt>
<pdfrwt beam="2">0</pdfrwt>
<totfact> 0.28790692E-04</totfact>
</mgrwt>
<clustering>
<clus scale="   44.737">  1  6  2 -1</clus>
<clus scale="  462.777">  4  5 -1 -1</clus>
<clus scale="  300.000">  1  4  2 -1</clus>
</clustering>
</event>
<event>
 6    1  0.9687246E-012  0.3000000E+03  0.7818608E-02  0.1093470E+00
          1   -1    0    0  502    0  0.00000000000E+00  0.00000000000E+00  0.23918130310E+03  0.23918130310E+03  0.00000000000E+00 0.  1.
         13   -1    0    0    0    0 -0.00000000000E+00 -0.00000000000E+00 -0.27500000000E+03  0.27500000000E+03  0.00000000000E+00 0.  1.
    9000005    2    1    2  501    0  0.15851062945E+02  0.28449107147E+02 -0.60620376771E+02  0.47324560696E+03  0.46821572649E+03 0.  0.
         13    1    3    3    0    0  0.20422513833E+03  0.85527520124E+02  0.75501404555E+02  0.23393017316E+03  0.00000000000E+00 0.  1.
          3    1    3    3  501    0 -0.18837407538E+03 -0.57078412977E+02 -0.13612178133E+03  0.23931543380E+03  0.00000000000E+00 0.  1.
         21    1    1    2  502  501 -0.15851062945E+02 -0.28449107147E+02  0.24801679872E+02  0.40935696139E+02  0.00000000000E+00 0.  1.
<scales pt_clust_4="550.00000" pt_clust_5="550.00000" pt_clust_6="32.56698"></scales>
<mgrwt>
<rscale>  0 0.30000000E+03</rscale>
<asrwt>  1 0.32566976E+02</asrwt>
<pdfrwt beam="1">  1        1 0.86975019E+00 0.30000000E+03</pdfrwt>
<pdfrwt beam="2">0</pdfrwt>
<totfact> 0.25822534E-04</totfact>
</mgrwt>
<clustering>
<clus scale="   32.567">  1  6  2 -1</clus>
<clus scale="  468.216">  4  5 -1 -1</clus>
<clus scale="  300.000">  1  4  2 -1</clus>
</clustering>
</event>
<event>
 6    1  0.9687246E-012  0.3000000E+03  0.7818608E-02  0.1093470E+00
          1   -1    0    0  502    0  0.00000000000E+00  0.00000000000E+00  0.23593354678E+03  0.23593354678E+03  0.00000000000E+00 0.  1.
         13   -1    0    0    0    0 -0.00000000000E+00 -0.00000000000E+00 -0.27500000000E+03  0.27500000000E+03  0.00000000000E+00 0.  1.
    9000005    2    1    2  501    0 -0.34939217690E+02 -0.46825959910E+01 -0.40186814840E+02  0.47566414293E+03  0.47265073907E+03 0.  0.
         13    1    3    3    0    0  0.17607034409E+03  0.11648025695E+03 -0.86195369403E+02  0.22803082694E+03  0.00000000000E+00 0.  1.
          1    1    3    3  501    0 -0.21100956178E+03 -0.12116285295E+03  0.46008554563E+02  0.24763331599E+03  0.00000000000E+00 0.  1.
         21    1    1    2  502  501  0.34939217690E+02  0.46825959910E+01  0.11203616220E+01  0.35269403853E+02  0.00000000000E+00 0.  1.
<scales pt_clust_4="550.00000" pt_clust_5="550.00000" pt_clust_6="35.25160"></scales>
<mgrwt>
<rscale>  0 0.30000000E+03</rscale>
<asrwt>  1 0.35251605E+02</asrwt>
<pdfrwt beam="1">  1        1 0.85794017E+00 0.30000000E+03</pdfrwt>
<pdfrwt beam="2">0</pdfrwt>
<totfact> 0.33961244E-04</totfact>
</mgrwt>
<clustering>
<clus scale="   35.252">  1  6  2 -1</clus>
<clus scale="  472.651">  4  5 -1 -1</clus>
<clus scale="  300.000">  1  4  2 -1</clus>
</clustering>
</event>
<event>
 6    1  0.9687246E-012  0.3000000E+03  0.7818608E-02  0.1093470E+00
          1   -1    0    0  502    0  0.00000000000E+00  0.00000000000E+00  0.25101627264E+03  0.25101627264E+03  0.00000000000E+00 0.  1.
         13   -1    0    0    0    0 -0.00000000000E+00 -0.00000000000E+00 -0.27500000000E+03  0.27500000000E+03  0.00000000000E+00 0.  1.
    9000005    2    1    2  501    0  0.16262988846E+02  0.30066545176E+02 -0.66824817644E+02  0.47120896508E+03  0.46519227270E+03 0.  0.
         13    1    3    3    0    0  0.75272720355E+02 -0.19434459076E+03  0.45639080858E+02  0.21335118488E+03  0.00000000000E+00 0.  1.
          1    1    3    3  501    0 -0.59009731509E+02  0.22441113594E+03 -0.11246389850E+03  0.25785778020E+03  0.00000000000E+00 0.  1.
         21    1    1    2  502  501 -0.16262988846E+02 -0.30066545176E+02  0.42841090286E+02  0.54807307559E+02  0.00000000000E+00 0.  1.
<scales pt_clust_4="550.00000" pt_clust_5="550.00000" pt_clust_6="34.18307"></scales>
<mgrwt>
<rscale>  0 0.30000000E+03</rscale>
<asrwt>  1 0.34183065E+02</asrwt>
<pdfrwt beam="1">  1        1 0.91278645E+00 0.30000000E+03</pdfrwt>
<pdfrwt beam="2">0</pdfrwt>
<totfact> 0.61539892E-05</totfact>
</mgrwt>
<clustering>
<clus scale="   34.183">  1  6  2 -1</clus>
<clus scale="  465.192">  4  5 -1 -1</clus>
<clus scale="  300.000">  1  4  2 -1</clus>
</clustering>
</event>
<event>
 6    1  0.9687246E-012  0.3000000E+03  0.7818608E-02  0.1093470E+00
          1   -1    0    0  502    0  0.00000000000E+00  0.00000000000E+00  0.22807340231E+03  0.22807340231E+03  0.00000000000E+00 0.  1.
         13   -1    0    0    0    0 -0.00000000000E+00 -0.00000000000E+00 -0.27500000000E+03  0.27500000000E+03  0.00000000000E+00 0.  1.
    9000005    2    1    2  501    0 -0.26574689880E+02  0.17213776797E+02 -0.65587722793E+02  0.46632063583E+03  0.46059815215E+03 0.  0.
         13    1    3    3    0    0 -0.31860943591E+02  0.23830128377E+03 -0.29015247164E+02  0.24216627788E+03  0.00000000000E+00 0.  1.
          3    1    3    3  501    0  0.52862537106E+01 -0.22108750697E+03 -0.36572475629E+02  0.22415435796E+03  0.00000000000E+00 0.  1.
         21    1    1    2  502  501  0.26574689880E+02 -0.17213776797E+02  0.18661125105E+02  0.36752766481E+02  0.00000000000E+00 0.  1.
<scales pt_clust_4="550.00000" pt_clust_5="550.00000" pt_clust_6="31.66273"></scales>
<mgrwt>
<rscale>  0 0.30000000E+03</rscale>
<asrwt>  1 0.31662727E+02</asrwt>
<pdfrwt beam="1">  1        1 0.82935783E+00 0.30000000E+03</pdfrwt>
<pdfrwt beam="2">0</pdfrwt>
<totfact> 0.60977006E-04</totfact>
</mgrwt>
<clustering>
<clus scale="   31.663">  1  6  2 -1</clus>
<clus scale="  460.598">  4  5 -1 -1</clus>
<clus scale="  300.000">  1  4  2 -1</clus>
</clustering>
</event>
<event>
 6    1  0.9687246E-012  0.3000000E+03  0.7818608E-02  0.1093470E+00
          1   -1    0    0  502    0  0.00000000000E+00  0.00000000000E+00  0.24662856184E+03  0.24662856184E+03  0.00000000000E+00 0.  1.
         13   -1    0    0    0    0 -0.00000000000E+00 -0.00000000000E+00 -0.27500000000E+03  0.27500000000E+03  0.00000000000E+00 0.  1.
    9000005    2    1    2  501    0 -0.33897990937E+02 -0.14580944793E+02 -0.54788612451E+02  0.47624635345E+03  0.47164299993E+03 0.  0.
         13    1    3    3    0    0 -0.21469065952E+03  0.31117790019E+02  0.95228198881E+02  0.23691518737E+03  0.00000000000E+00 0.  1.
          3    1    3    3  501    0  0.18079266859E+03 -0.45698734812E+02 -0.15001681133E+03  0.23933116609E+03  0.00000000000E+00 0.  1.
         21    1    1    2  502  501  0.33897990937E+02  0.14580944793E+02  0.26417174294E+02  0.45382208389E+02  0.00000000000E+00 0. -1.
<scales pt_clust_4="550.00000" pt_clust_5="550.00000" pt_clust_6="36.90092"></scales>
<mgrwt>
<rscale>  0 0.30000000E+03</rscale>
<asrwt>  1 0.36900918E+02</asrwt>
<pdfrwt beam="1">  1        1 0.89683113E+00 0.30000000E+03</pdfrwt>
<pdfrwt beam="2">0</pdfrwt>
<totfact> 0.11911633E-04</totfact>
</mgrwt>
<clustering>
<clus scale="   36.901">  1  6  2 -1</clus>
<clus scale="  471.643">  4  5 -1 -1</clus>
<clus scale="  300.000">  1  4  2 -1</clus>
</clustering>
</event>
<event>
 6    1  0.9687246E-012  0.3000000E+03  0.7818608E-02  0.1093470E+00
          1   -1    0    0  502    0  0.00000000000E+00  0.00000000000E+00  0.22478437877E+03  0.22478437877E+03  0.00000000000E+00 0.  1.
         13   -1    0    0    0    0 -0.00000000000E+00 -0.00000000000E+00 -0.27500000000E+03  0.27500000000E+03  0.00000000000E+00 0.  1.
    9000005    2    1    2  501    0 -0.19663593923E+02 -0.23781076960E+02 -0.46621507878E+02  0.46871809161E+03  0.46537177381E+03 0.  0.
         13    1    3    3    0    0 -0.10466557945E+03  0.20070197369E+03 -0.21910763380E+02  0.22741206502E+03  0.00000000000E+00 0.  1.
          1    1    3    3  501    0  0.85001985529E+02 -0.22448305065E+03 -0.24710744499E+02  0.24130602659E+03  0.00000000000E+00 0.  1.
         21    1    1    2  502  501  0.19663593923E+02  0.23781076960E+02 -0.35941133494E+01  0.31066287163E+02  0.00000000000E+00 0.  1.
<scales pt_clust_4="550.00000" pt_clust_5="550.00000" pt_clust_6="30.85770"></scales>
<mgrwt>
<rscale>  0 0.30000000E+03</rscale>
<asrwt>  1 0.30857698E+02</asrwt>
<pdfrwt beam="1">  1        1 0.81739774E+00 0.30000000E+03</pdfrwt>
<pdfrwt beam="2">0</pdfrwt>
<totfact> 0.77928781E-04</totfact>
</mgrwt>
<clustering>
<clus scale="   30.858">  1  6  2 -1</clus>
<clus scale="  465.372">  4  5 -1 -1</clus>
<clus scale="  300.000">  1  4  2 -1</clus>
</clustering>
</event>
<event>
 6    1  0.9687246E-012  0.3000000E+03  0.7818608E-02  0.1093470E+00
          1   -1    0    0  502    0  0.00000000000E+00  0.00000000000E+00  0.22280524993E+03  0.22280524993E+03  0.00000000000E+00 0.  1.
         13   -1    0    0    0    0 -0.00000000000E+00 -0.00000000000E+00 -0.27500000000E+03  0.27500000000E+03  0.00000000000E+00 0.  1.
    9000005    2    1    2  501    0  0.31594814958E+02 -0.10001045144E+01 -0.55511933114E+02  0.46602103616E+03  0.46162192202E+03 0.  0.
         13    1    3    3    0    0 -0.90776168903E+02  0.20297661395E+03 -0.50930177115E+02  0.22810896868E+03  0.00000000000E+00 0.  1.
          1    1    3    3  501    0  0.12237098386E+03 -0.20397671846E+03 -0.45817559993E+01  0.23791206748E+03  0.00000000000E+00 0.  1.
         21    1    1    2  502  501 -0.31594814958E+02  0.10001045144E+01  0.33171830400E+01  0.31784213764E+02  0.00000000000E+00 0.  1.
<scales pt_clust_4="550.00000" pt_clust_5="550.00000" pt_clust_6="31.61064"></scales>
<mgrwt>
<rscale>  0 0.30000000E+03</rscale>
<asrwt>  1 0.31610640E+02</asrwt>
<pdfrwt beam="1">  1        1 0.81020091E+00 0.30000000E+03</pdfrwt>
<pdfrwt beam="2">0</pdfrwt>
<totfact> 0.88587756E-04</totfact>
</mgrwt>
<clustering>
<clus scale="   31.611">  1  6  2 -1</clus>
<clus scale="  461.622">  4  5 -1 -1</clus>
<clus scale="  300.000">  1  4  2 -1</clus>
</clustering>
</event>
<event>
 6    1  0.9687246E-012  0.3000000E+03  0.7818608E-02  0.1093470E+00
          1   -1    0    0  502    0  0.00000000000E+00  0.00000000000E+00  0.24996609647E+03  0.24996609647E+03  0.00000000000E+00 0.  1.
         13   -1    0    0    0    0 -0.00000000000E+00 -0.00000000000E+00 -0.27500000000E+03  0.27500000000E+03  0.00000000000E+00 0.  1.
    9000005    2    1    2  501    0 -0.34631264084E+02 -0.28996346582E+02 -0.38668431297E+02  0.47778545516E+03  0.47407128263E+03 0.  0.
         13    1    3    3    0    0 -0.39016441343E+02  0.21826377153E+03 -0.59623138340E+02  0.22960025105E+03  0.00000000000E+00 0.  1.
          3    1    3    3  501    0  0.43851772590E+01 -0.24726011812E+03  0.20954707043E+02  0.24818520411E+03  0.00000000000E+00 0.  1.
         21    1    1    2  502  501  0.34631264084E+02  0.28996346582E+02  0.13634527772E+02  0.47180641313E+02  0.00000000000E+00 0. -1.
<scales pt_clust_4="550.00000" pt_clust_5="550.00000" pt_clust_6="45.16761"></scales>
<mgrwt>
<rscale>  0 0.30000000E+03</rscale>
<asrwt>  1 0.45167605E+02</asrwt>
<pdfrwt beam="1">  1        1 0.90896762E+00 0.30000000E+03</pdfrwt>
<pdfrwt beam="2">0</pdfrwt>
<totfact> 0.72601377E-05</totfact>
</mgrwt>
<clustering>
<clus scale="   45.168">  1  6  2 -1</clus>
<clus scale="  474.071">  4  5 -1 -1</clus>
<clus scale="  300.000">  1  4  2 -1</clus>
</clustering>
</event>
<event>
 6    1  0.9687246E-012  0.3000000E+03  0.7818608E-02  0.1093470E+00
          1   -1    0    0  502    0  0.00000000000E+00  0.00000000000E+00  0.22601044487E+03  0.22601044487E+03  0.00000000000E+00 0.  1.
         13   -1    0    0    0    0 -0.00000000000E+00 -0.00000000000E+00 -0.27500000000E+03  0.27500000000E+03  0.00000000000E+00 0.  1.
    9000005    2    1    2  501    0  0.29534439796E+02  0.67005553319E+01 -0.60137760598E+02  0.46873873805E+03  0.46387743395E+03 0.  0.
         13    1    3    3    0    0 -0.40537278604E+02 -0.19707243678E+03  0.74616278652E+02  0.21458892175E+03  0.00000000000E+00 0.  1.
          3    1    3    3  501    0  0.70071718400E+02  0.20377299211E+03 -0.13475403925E+03  0.25414981631E+03  0.00000000000E+00 0.  1.
         21    1    1    2  502  501 -0.29534439796E+02 -0.67005553319E+01  0.11148205470E+02  0.32271706819E+02  0.00000000000E+00 0.  1.
<scales pt_clust_4="550.00000" pt_clust_5="550.00000" pt_clust_6="30.28499"></scales>
<mgrwt>
<rscale>  0 0.30000000E+03</rscale>
<asrwt>  1 0.30284989E+02</asrwt>
<pdfrwt beam="1">  1        1 0.82185616E+00 0.30000000E+03</pdfrwt>
<pdfrwt beam="2">0</pdfrwt>
<totfact> 0.71608766E-04</totfact>
</mgrwt>
<clustering>
<clus scale="   30.285">  1  6  2 -1</clus>
<clus scale="  463.877">  4  5 -1 -1</clus>
<clus scale="  300.000">  1  4  2 -1</clus>
</clustering>
</event>
<event>
 6    1  0.9687246E-012  0.3000000E+03  0.7818608E-02  0.1093470E+00
          1   -1    0    0  502    0  0.00000000000E+00  0.00000000000E+00  0.23046338503E+03  0.23046338503E+03  0.00000000000E+00 0.  1.
         13   -1    0    0    0    0 -0.00000000000E+00 -0.00000000000E+00 -0.27500000000E+03  0.27500000000E+03  0.00000000000E+00 0.  1.
    9000005    2    1    2  501    0 -0.31102804938E+02  0.11324899204E+02 -0.69312546755E+02  0.46411747093E+03  0.45771733621E+03 0.  0.
         13    1    3    3    0    0  0.80924946246E+01  0.12628783579E+03 -0.23010429383E+03  0.26260634413E+03  0.00000000000E+00 0.  1.
          3    1    3    3  501    0 -0.39195299562E+02 -0.11496293659E+03  0.16079174708E+03  0.20151112680E+03  0.00000000000E+00 0.  1.
         21    1    1    2  502  501  0.31102804938E+02 -0.11324899204E+02  0.24775931786E+02  0.41345914101E+02  0.00000000000E+00 0.  1.
<scales pt_clust_4="550.00000" pt_clust_5="550.00000" pt_clust_6="33.10042"></scales>
<mgrwt>
<rscale>  0 0.30000000E+03</rscale>
<asrwt>  1 0.33100420E+02</asrwt>
<pdfrwt beam="1">  1        1 0.83804867E+00 0.30000000E+03</pdfrwt>
<pdfrwt beam="2">0</pdfrwt>
<totfact> 0.51946874E-04</totfact>
</mgrwt>
<clustering>
<clus scale="   33.100">  1  6  2 -1</clus>
<clus scale="  457.717">  4  5 -1 -1</clus>
<clus scale="  300.000">  1  4  2 -1</clus>
</clustering>
</event>
<event>
 6    1  0.9687246E-012  0.3000000E+03  0.7818608E-02  0.1093470E+00
          1   -1    0    0  502    0  0.00000000000E+00  0.00000000000E+00  0.22066043397E+03  0.22066043397E+03  0.00000000000E+00 0.  1.
         13   -1    0    0    0    0 -0.00000000000E+00 -0.00000000000E+00 -0.27500000000E+03  0.27500000000E+03  0.00000000000E+00 0.  1.
    9000005    2    1    2  501    0  0.24254651344E+02 -0.21159769242E+02 -0.36919072174E+02  0.45906128708E+03  0.45644082142E+03 0.  0.
         13    1    3    3    0    0  0.18219388739E+02 -0.18402816348E+03  0.12978396806E+03  0.22592518550E+03  0.00000000000E+00 0.  1.
          1    1    3    3  501    0  0.60352626059E+01  0.16286839424E+03 -0.16670304023E+03  0.23313610158E+03  0.00000000000E+00 0.  1.
         21    1    1    2  502  501 -0.24254651344E+02  0.21159769242E+02 -0.17420493860E+02  0.36599146883E+02  0.00000000000E+00 0.  1.
<scales pt_clust_4="550.00000" pt_clust_5="550.00000" pt_clust_6="32.18734"></scales>
<mgrwt>
<rscale>  0 0.30000000E+03</rscale>
<asrwt>  1 0.32187342E+02</asrwt>
<pdfrwt beam="1">  1        1 0.80240158E+00 0.30000000E+03</pdfrwt>
<pdfrwt beam="2">0</pdfrwt>
<totfact> 0.10120774E-03</totfact>
</mgrwt>
<clustering>
<clus scale="   32.187">  1  6  2 -1</clus>
<clus scale="  456.441">  4  5 -1 -1</clus>
<clus scale="  300.000">  1  4  2 -1</clus>
</clustering>
</event>
<event>
 6    1  0.9687246E-012  0.3000000E+03  0.7818608E-02  0.1093470E+00
          1   -1    0    0  502    0  0.00000000000E+00  0.00000000000E+00  0.23584844411E+03  0.23584844411E+03  0.00000000000E+00 0.  1.
         13   -1    0    0    0    0 -0.00000000000E+00 -0.00000000000E+00 -0.27500000000E+03  0.27500000000E+03  0.00000000000E+00 0.  1.
    9000005    2    1    2  501    0  0.30065278185E+02 -0.53950243192E+01 -0.43428246448E+02  0.48000501172E+03  0.47705950514E+03 0.  0.
         13    1    3    3    0    0 -0.55527070482E+02  0.15703423435E+03 -0.18442829775E+03  0.24850916145E+03  0.00000000000E+00 0.  1.
          1    1    3    3  501    0  0.85592348667E+02 -0.16242925867E+03  0.14100005131E+03  0.23149585026E+03  0.00000000000E+00 0.  1.
         21    1    1    2  502  501 -0.30065278185E+02  0.53950243192E+01  0.42766905593E+01  0.30843432395E+02  0.00000000000E+00 0.  1.
<scales pt_clust_4="550.00000" pt_clust_5="550.00000" pt_clust_6="30.54549"></scales>
<mgrwt>
<rscale>  0 0.30000000E+03</rscale>
<asrwt>  1 0.30545495E+02</asrwt>
<pdfrwt beam="1">  1        1 0.85763071E+00 0.30000000E+03</pdfrwt>
<pdfrwt beam="2">0</pdfrwt>
<totfact> 0.35154676E-04</totfact>
</mgrwt>
<clustering>
<clus scale="   30.545">  1  6  2 -1</clus>
<clus scale="  477.060">  4  5 -1 -1</clus>
<clus scale="  300.000">  1  4  2 -1</clus>
</clustering>
</event>
<event>
 6    1  0.9687246E-012  0.3000000E+03  0.7818608E-02  0.1093470E+00
          1   -1    0    0  502    0  0.00000000000E+00  0.00000000000E+00  0.22951893574E+03  0.22951893574E+03  0.00000000000E+00 0.  1.
         13   -1    0    0    0    0 -0.00000000000E+00 -0.00000000000E+00 -0.27500000000E+03  0.27500000000E+03  0.00000000000E+00 0.  1.
    9000005    2    1    2  501    0  0.40558143114E+02 -0.15440848342E+02 -0.39755330932E+02  0.46074489328E+03  0.45697044497E+03 0.  0.
         13    1    3    3    0    0  0.72667802928E+02  0.20542028188E+03  0.44128783611E+02  0.22231835582E+03  0.00000000000E+00 0.  1.
          3    1    3    3  501    0 -0.32109659814E+02 -0.22086113022E+03 -0.83884114544E+02  0.23842653747E+03  0.00000000000E+00 0.  1.
         21    1    1    2  502  501 -0.40558143114E+02  0.15440848342E+02 -0.57257333322E+01  0.43774042452E+02  0.00000000000E+00 0. -1.
<scales pt_clust_4="550.00000" pt_clust_5="550.00000" pt_clust_6="43.39798"></scales>
<mgrwt>
<rscale>  0 0.30000000E+03</rscale>
<asrwt>  1 0.43397980E+02</asrwt>
<pdfrwt beam="1">  1        1 0.83461431E+00 0.30000000E+03</pdfrwt>
<pdfrwt beam="2">0</pdfrwt>
<totfact> 0.52345984E-04</totfact>
</mgrwt>
<clustering>
<clus scale="   43.398">  1  6  2 -1</clus>
<clus scale="  456.970">  4  5 -1 -1</clus>
<clus scale="  300.000">  1  4  2 -1</clus>
</clustering>
</event>
<event>
 6    1  0.9687246E-012  0.3000000E+03  0.7818608E-02  0.1093470E+00
          1   -1    0    0  502    0  0.00000000000E+00  0.00000000000E+00  0.24144809180E+03  0.24144809180E+03  0.00000000000E+00 0.  1.
         13   -1    0    0    0    0 -0.00000000000E+00 -0.00000000000E+00 -0.27500000000E+03  0.27500000000E+03  0.00000000000E+00 0.  1.
    9000005    2    1    2  501    0 -0.38895603343E+02  0.26378162691E+02 -0.39877131705E+02  0.46902780206E+03  0.46496044783E+03 0.  0.
         13    1    3    3    0    0 -0.62366021784E+02  0.30026565393E+02 -0.24906062638E+03  0.25850011783E+03  0.00000000000E+00 0.  1.
          1    1    3    3  501    0  0.23470418441E+02 -0.36484027029E+01  0.20918349468E+03  0.21052768424E+03  0.00000000000E+00 0.  1.
         21    1    1    2  502  501  0.38895603343E+02 -0.26378162691E+02  0.63252235057E+01  0.47420289737E+02  0.00000000000E+00 0. -1.
<scales pt_clust_4="550.00000" pt_clust_5="550.00000" pt_clust_6="46.99655"></scales>
<mgrwt>
<rscale>  0 0.30000000E+03</rscale>
<asrwt>  1 0.46996547E+02</asrwt>
<pdfrwt beam="1">  1        1 0.87799306E+00 0.30000000E+03</pdfrwt>
<pdfrwt beam="2">0</pdfrwt>
<totfact> 0.19764355E-04</totfact>
</mgrwt>
<clustering>
<clus scale="   46.997">  1  6  2 -1</clus>
<clus scale="  464.960">  4  5 -1 -1</clus>
<clus scale="  300.000">  1  4  2 -1</clus>
</clustering>
</event>
<event>
 6    1  0.9687246E-012  0.3000000E+03  0.7818608E-02  0.1093470E+00
          1   -1    0    0  502    0  0.00000000000E+00  0.00000000000E+00  0.24270536465E+03  0.24270536465E+03  0.00000000000E+00 0.  1.
         13   -1    0    0    0    0 -0.00000000000E+00 -0.00000000000E+00 -0.27500000000E+03  0.27500000000E+03  0.00000000000E+00 0.  1.
    9000005    2    1    2  501    0  0.23599572376E+02  0.21938420833E+02 -0.68421925579E+02  0.46929653049E+03  0.46316243318E+03 0.  0.
         13    1    3    3    0    0 -0.17735582917E+03  0.31814011668E+02 -0.16661727126E+03  0.24541502921E+03  0.00000000000E+00 0.  1.
          1    1    3    3  501    0  0.20095540154E+03 -0.98755908351E+01  0.98195345686E+02  0.22388150129E+03  0.00000000000E+00 0.  1.
         21    1    1    2  502  501 -0.23599572376E+02 -0.21938420833E+02  0.36127290228E+02  0.48408834154E+02  0.00000000000E+00 0.  1.
<scales pt_clust_4="550.00000" pt_clust_5="550.00000" pt_clust_6="32.22164"></scales>
<mgrwt>
<rscale>  0 0.30000000E+03</rscale>
<asrwt>  1 0.32221641E+02</asrwt>
<pdfrwt beam="1">  1        1 0.88256496E+00 0.30000000E+03</pdfrwt>
<pdfrwt beam="2">0</pdfrwt>
<totfact> 0.18590171E-04</totfact>
</mgrwt>
<clustering>
<clus scale="   32.222">  1  6  2 -1</clus>
<clus scale="  463.162">  4  5 -1 -1</clus>
<clus scale="  300.000">  1  4  2 -1</clus>
</clustering>
</event>
<event>
 6    1  0.9687246E-012  0.3000000E+03  0.7818608E-02  0.1093470E+00
          1   -1    0    0  502    0  0.00000000000E+00  0.00000000000E+00  0.23248839445E+03  0.23248839445E+03  0.00000000000E+00 0.  1.
         13   -1    0    0    0    0 -0.00000000000E+00 -0.00000000000E+00 -0.27500000000E+03  0.27500000000E+03  0.00000000000E+00 0.  1.
    9000005    2    1    2  501    0  0.23548401560E+02 -0.30363058229E+02 -0.44870499236E+02  0.46899155171E+03  0.46525613522E+03 0.  0.
         13    1    3    3    0    0 -0.16110955763E+03  0.13556234802E+03 -0.63823441677E+02  0.22001561642E+03  0.00000000000E+00 0.  1.
          1    1    3    3  501    0  0.18465795919E+03 -0.16592540625E+03  0.18952942441E+02  0.24897593530E+03  0.00000000000E+00 0.  1.
         21    1    1    2  502  501 -0.23548401560E+02  0.30363058229E+02  0.23588936822E+01  0.38496842734E+02  0.00000000000E+00 0.  1.
<scales pt_clust_4="550.00000" pt_clust_5="550.00000" pt_clust_6="38.42450"></scales>
<mgrwt>
<rscale>  0 0.30000000E+03</rscale>
<asrwt>  1 0.38424504E+02</asrwt>
<pdfrwt beam="1">  1        1 0.84541234E+00 0.30000000E+03</pdfrwt>
<pdfrwt beam="2">0</pdfrwt>
<totfact> 0.44038793E-04</totfact>
</mgrwt>
<clustering>
<clus scale="   38.425">  1  6  2 -1</clus>
<clus scale="  465.256">  4  5 -1 -1</clus>
<clus scale="  300.000">  1  4  2 -1</clus>
</clustering>
</event>
<event>
 6    1  0.9687246E-012  0.3000000E+03  0.7818608E-02  0.1093470E+00
          1   -1    0    0  502    0  0.00000000000E+00  0.00000000000E+00  0.22963705973E+03  0.22963705973E+03  0.00000000000E+00 0.  1.
         13   -1    0    0    0    0 -0.00000000000E+00 -0.00000000000E+00 -0.27500000000E+03  0.27500000000E+03  0.00000000000E+00 0.  1.
    9000005    2    1    2  501    0  0.26997746345E+02 -0.13987268448E+02 -0.58250127861E+02  0.47161280213E+03  0.46701288606E+03 0.  0.
         13    1    3    3    0    0  0.21598577836E+03 -0.72275599179E+02  0.67131171240E+02  0.23744517860E+03  0.00000000000E+00 0.  1.
          1    1    3    3  501    0 -0.18898803201E+03  0.58288330731E+02 -0.12538129910E+03  0.23416762353E+03  0.00000000000E+00 0.  1.
         21    1    1    2  502  501 -0.26997746345E+02  0.13987268448E+02  0.12887187593E+02  0.33024257605E+02  0.00000000000E+00 0.  1.
<scales pt_clust_4="550.00000" pt_clust_5="550.00000" pt_clust_6="30.40595"></scales>
<mgrwt>
<rscale>  0 0.30000000E+03</rscale>
<asrwt>  1 0.30405953E+02</asrwt>
<pdfrwt beam="1">  1        1 0.83504385E+00 0.30000000E+03</pdfrwt>
<pdfrwt beam="2">0</pdfrwt>
<totfact> 0.55520236E-04</totfact>
</mgrwt>
<clustering>
<clus scale="   30.406">  1  6  2 -1</clus>
<clus scale="  467.013">  4  5 -1 -1</clus>
<clus scale="  300.000">  1  4  2 -1</clus>
</clustering>
</event>
<event>
 6    1  0.9687246E-012  0.3000000E+03  0.7818608E-02  0.1093470E+00
          1   -1    0    0  502    0  0.00000000000E+00  0.00000000000E+00  0.24344063345E+03  0.24344063345E+03  0.00000000000E+00 0.  1.
         13   -1    0    0    0    0 -0.00000000000E+00 -0.00000000000E+00 -0.27500000000E+03  0.27500000000E+03  0.00000000000E+00 0.  1.
    9000005    2    1    2  501    0 -0.57735756198E+01 -0.34388895750E+02 -0.53529782703E+02  0.47722620015E+03  0.47293073293E+03 0.  0.
         13    1    3    3    0    0  0.41746446026E+02 -0.11701566998E+03 -0.23862491992E+03  0.26903026816E+03  0.00000000000E+00 0.  1.
          3    1    3    3  501    0 -0.47520021646E+02  0.82626774233E+02  0.18509513722E+03  0.20819593199E+03  0.00000000000E+00 0.  1.
         21    1    1    2  502  501  0.57735756198E+01  0.34388895750E+02  0.21970416155E+02  0.41214433302E+02  0.00000000000E+00 0. -1.
<scales pt_clust_4="550.00000" pt_clust_5="550.00000" pt_clust_6="34.87019"></scales>
<mgrwt>
<rscale>  0 0.30000000E+03</rscale>
<asrwt>  1 0.34870193E+02</asrwt>
<pdfrwt beam="1">  1        1 0.88523867E+00 0.30000000E+03</pdfrwt>
<pdfrwt beam="2">0</pdfrwt>
<totfact> 0.16855103E-04</totfact>
</mgrwt>
<clustering>
<clus scale="   34.870">  1  6  2 -1</clus>
<clus scale="  472.931">  4  5 -1 -1</clus>
<clus scale="  300.000">  1  4  2 -1</clus>
</clustering>
</event>
<event>
 6    1  0.9687246E-012  0.3000000E+03  0.7818608E-02  0.1093470E+00
          1   -1    0    0  502    0  0.00000000000E+00  0.00000000000E+00  0.22165768470E+03  0.22165768470E+03  0.00000000000E+00 0.  1.
         13   -1    0    0    0    0 -0.00000000000E+00 -0.00000000000E+00 -0.27500000000E+03  0.27500000000E+03  0.00000000000E+00 0.  1.
    9000005    2    1    2  501    0 -0.28083729224E+02 -0.10870797219E+02 -0.47877223843E+02  0.46605152022E+03  0.46260665890E+03 0.  0.
         13    1    3    3    0    0 -0.10270007164E+03 -0.53671087787E+01 -0.23933466398E+03  0.26049413036E+03  0.00000000000E+00 0.  1.
          3    1    3    3  501    0  0.74616342413E+02 -0.55036884403E+01  0.19145744014E+03  0.20555738986E+03  0.00000000000E+00 0.  1.
         21    1    1    2  502  501  0.28083729224E+02  0.10870797219E+02 -0.54650914614E+01  0.30606164477E+02  0.00000000000E+00 0.  1.
<scales pt_clust_4="550.00000" pt_clust_5="550.00000" pt_clust_6="30.11430"></scales>
<mgrwt>
<rscale>  0 0.30000000E+03</rscale>
<asrwt>  1 0.30114299E+02</asrwt>
<pdfrwt beam="1">  1        1 0.80602794E+00 0.30000000E+03</pdfrwt>
<pdfrwt beam="2">0</pdfrwt>
<totfact> 0.96299603E-04</totfact>
</mgrwt>
<clustering>
<clus scale="   30.114">  1  6  2 -1</clus>
<clus scale="  462.607">  4  5 -1 -1</clus>
<clus scale="  300.000">  1  4  2 -1</clus>
</clustering>
</event>
<event>
 6    1  0.9687246E-012  0.3000000E+03  0.7818608E-02  0.1093470E+00
          1   -1    0    0  502    0  0.00000000000E+00  0.00000000000E+00  0.24360882440E+03  0.24360882440E+03  0.00000000000E+00 0.  1.
         13   -1    0    0    0    0 -0.00000000000E+00 -0.00000000000E+00 -0.27500000000E+03  0.27500000000E+03  0.00000000000E+00 0.  1.
    9000005    2    1    2  501    0  0.61720583149E+01 -0.39113418457E+02 -0.31462030711E+02  0.47901136453E+03  0.47633399434E+03 0.  0.
         13    1    3    3    0    0 -0.13123699126E+02 -0.16546089185E+03  0.17181393630E+03  0.23889237517E+03  0.00000000000E+00 0.  1.
          1    1    3    3  501    0  0.19295757441E+02  0.12634747339E+03 -0.20327596701E+03  0.24011898936E+03  0.00000000000E+00 0.  1.
         21    1    1    2  502  501 -0.61720583149E+01  0.39113418457E+02  0.70855106315E-01  0.39597459864E+02  0.00000000000E+00 0.  1.
<scales pt_clust_4="550.00000" pt_clust_5="550.00000" pt_clust_6="39.59740"></scales>
<mgrwt>
<rscale>  0 0.30000000E+03</rscale>
<asrwt>  1 0.39597396E+02</asrwt>
<pdfrwt beam="1">  1        1 0.88585027E+00 0.30000000E+03</pdfrwt>
<pdfrwt beam="2">0</pdfrwt>
<totfact> 0.16147369E-04</totfact>
</mgrwt>
<clustering>
<clus scale="   39.597">  1  6  2 -1</clus>
<clus scale="  476.334">  4  5 -1 -1</clus>
<clus scale="  300.000">  1  4  2 -1</clus>
</clustering>
</event>
<event>
 6    1  0.9687246E-012  0.3000000E+03  0.7818608E-02  0.1093470E+00
          1   -1    0    0  502    0  0.00000000000E+00  0.00000000000E+00  0.23198576522E+03  0.23198576522E+03  0.00000000000E+00 0.  1.
         13   -1    0    0    0    0 -0.00000000000E+00 -0.00000000000E+00 -0.27500000000E+03  0.27500000000E+03  0.00000000000E+00 0.  1.
    9000005    2    1    2  501    0 -0.29566057989E+02 -0.21185271770E+02 -0.44658789696E+02  0.47057598514E+03  0.46703788151E+03 0.  0.
         13    1    3    3    0    0  0.95517613605E+02  0.16186066124E+03  0.92916765295E+02  0.20965689457E+03  0.00000000000E+00 0.  1.
          1    1    3    3  501    0 -0.12508367159E+03 -0.18304593301E+03 -0.13757555499E+03  0.26091909057E+03  0.00000000000E+00 0.  1.
         21    1    1    2  502  501  0.29566057989E+02  0.21185271770E+02  0.16445549209E+01  0.36409780086E+02  0.00000000000E+00 0. -1.
<scales pt_clust_4="550.00000" pt_clust_5="550.00000" pt_clust_6="36.37262"></scales>
<mgrwt>
<rscale>  0 0.30000000E+03</rscale>
<asrwt>  1 0.36372621E+02</asrwt>
<pdfrwt beam="1">  1        1 0.84358460E+00 0.30000000E+03</pdfrwt>
<pdfrwt beam="2">0</pdfrwt>
<totfact> 0.46139345E-04</totfact>
</mgrwt>
<clustering>
<clus scale="   36.373">  1  6  2 -1</clus>
<clus scale="  467.038">  4  5 -1 -1</clus>
<clus scale="  300.000">  1  4  2 -1</clus>
</clustering>
</event>
<event>
 6    1  0.9687246E-012  0.3000000E+03  0.7818608E-02  0.1093470E+00
          1   -1    0    0  502    0  0.00000000000E+00  0.00000000000E+00  0.25538067061E+03  0.25538067061E+03  0.00000000000E+00 0.  1.
         13   -1    0    0    0    0 -0.00000000000E+00 -0.00000000000E+00 -0.27500000000E+03  0.27500000000E+03  0.00000000000E+00 0.  1.
    9000005    2    1    2  501    0 -0.30083805288E+02 -0.28957346982E+01 -0.13290628063E+02  0.49950231119E+03  0.49840996927E+03 0.  0.
         13    1    3    3    0    0 -0.20276646998E+03  0.97475156916E+02  0.12423407094E+03  0.25700146293E+03  0.00000000000E+00 0.  1.
          1    1    3    3  501    0  0.17268266469E+03 -0.10037089161E+03 -0.13752469900E+03  0.24250084826E+03  0.00000000000E+00 0.  1.
         21    1    1    2  502  501  0.30083805288E+02  0.28957346982E+01 -0.63287013304E+01  0.30878359422E+02  0.00000000000E+00 0. -1.
<scales pt_clust_4="550.00000" pt_clust_5="550.00000" pt_clust_6="30.22286"></scales>
<mgrwt>
<rscale>  0 0.30000000E+03</rscale>
<asrwt>  1 0.30222864E+02</asrwt>
<pdfrwt beam="1">  1        1 0.92865698E+00 0.30000000E+03</pdfrwt>
<pdfrwt beam="2">0</pdfrwt>
<totfact> 0.28486370E-05</totfact>
</mgrwt>
<clustering>
<clus scale="   30.223">  1  6  2 -1</clus>
<clus scale="  498.410">  4  5 -1 -1</clus>
<clus scale="  300.000">  1  4  2 -1</clus>
</clustering>
</event>
<event>
 6    1  0.9687246E-012  0.3000000E+03  0.7818608E-02  0.1093470E+00
          1   -1    0    0  502    0  0.00000000000E+00  0.00000000000E+00  0.23035945856E+03  0.23035945856E+03  0.00000000000E+00 0.  1.
         13   -1    0    0    0    0 -0.00000000000E+00 -0.00000000000E+00 -0.27500000000E+03  0.27500000000E+03  0.00000000000E+00 0.  1.
    9000005    2    1    2  501    0  0.36732900761E+02  0.95208563874E+01 -0.61489307887E+02  0.46384038300E+03  0.45817792746E+03 0.  0.
         13    1    3    3    0    0 -0.15066225681E+03  0.57981351023E+02  0.11792514569E+03  0.19991821498E+03  0.00000000000E+00 0.  1.
          3    1    3    3  501    0  0.18739515757E+03 -0.48460494635E+02 -0.17941445358E+03  0.26392216802E+03  0.00000000000E+00 0.  1.
         21    1    1    2  502  501 -0.36732900761E+02 -0.95208563874E+01  0.16848766446E+02  0.41519075561E+02  0.00000000000E+00 0. -1.
<scales pt_clust_4="550.00000" pt_clust_5="550.00000" pt_clust_6="37.94671"></scales>
<mgrwt>
<rscale>  0 0.30000000E+03</rscale>
<asrwt>  1 0.37946709E+02</asrwt>
<pdfrwt beam="1">  1        1 0.83767076E+00 0.30000000E+03</pdfrwt>
<pdfrwt beam="2">0</pdfrwt>
<totfact> 0.50962821E-04</totfact>
</mgrwt>
<clustering>
<clus scale="   37.947">  1  6  2 -1</clus>
<clus scale="  458.178">  4  5 -1 -1</clus>
<clus scale="  300.000">  1  4  2 -1</clus>
</clustering>
</event>
<event>
 6    1  0.9687246E-012  0.3000000E+03  0.7818608E-02  0.1093470E+00
          1   -1    0    0  502    0  0.00000000000E+00  0.00000000000E+00  0.23206498629E+03  0.23206498629E+03  0.00000000000E+00 0.  1.
         13   -1    0    0    0    0 -0.00000000000E+00 -0.00000000000E+00 -0.27500000000E+03  0.27500000000E+03  0.00000000000E+00 0.  1.
    9000005    2    1    2  501    0  0.53711331794E+01  0.34443668964E+02 -0.41959112992E+02  0.47219138904E+03  0.46902977018E+03 0.  0.
         13    1    3    3    0    0  0.20015393081E+03 -0.93640787866E+02  0.41002216377E+02  0.22474735798E+03  0.00000000000E+00 0.  1.
          3    1    3    3  501    0 -0.19478279763E+03  0.12808445683E+03 -0.82961329369E+02  0.24744403106E+03  0.00000000000E+00 0.  1.
         21    1    1    2  502  501 -0.53711331794E+01 -0.34443668964E+02 -0.97590071684E+00  0.34873597255E+02  0.00000000000E+00 0. -1.
<scales pt_clust_4="550.00000" pt_clust_5="550.00000" pt_clust_6="34.85994"></scales>
<mgrwt>
<rscale>  0 0.30000000E+03</rscale>
<asrwt>  1 0.34859940E+02</asrwt>
<pdfrwt beam="1">  1        1 0.84387268E+00 0.30000000E+03</pdfrwt>
<pdfrwt beam="2">0</pdfrwt>
<totfact> 0.46243447E-04</totfact>
</mgrwt>
<clustering>
<clus scale="   34.860">  1  6  2 -1</clus>
<clus scale="  469.030">  4  5 -1 -1</clus>
<clus scale="  300.000">  1  4  2 -1</clus>
</clustering>
</event>
<event>
 6    1  0.9687246E-012  0.3000000E+03  0.7818608E-02  0.1093470E+00
          1   -1    0    0  502    0  0.00000000000E+00  0.00000000000E+00  0.23156634626E+03  0.23156634626E+03  0.00000000000E+00 0.  1.
         13   -1    0    0    0    0 -0.00000000000E+00 -0.00000000000E+00 -0.27500000000E+03  0.27500000000E+03  0.00000000000E+00 0.  1.
    9000005    2    1    2  501    0 -0.13615033973E+00 -0.38858133169E+02 -0.58464069317E+02  0.46490237570E+03  0.45957175553E+03 0.  0.
         13    1    3    3    0    0 -0.19850866634E+03 -0.80405198766E+02 -0.12932994597E+03  0.25019376796E+03  0.00000000000E+00 0.  1.
          1    1    3    3  501    0  0.19837251600E+03  0.41547065598E+02  0.70865876657E+02  0.21470860774E+03  0.00000000000E+00 0.  1.
         21    1    1    2  502  501  0.13615033973E+00  0.38858133169E+02  0.15030415581E+02  0.41663970560E+02  0.00000000000E+00 0.  1.
<scales pt_clust_4="550.00000" pt_clust_5="550.00000" pt_clust_6="38.85837"></scales>
<mgrwt>
<rscale>  0 0.30000000E+03</rscale>
<asrwt>  1 0.38858372E+02</asrwt>
<pdfrwt beam="1">  1        1 0.84205944E+00 0.30000000E+03</pdfrwt>
<pdfrwt beam="2">0</pdfrwt>
<totfact> 0.46943995E-04</totfact>
</mgrwt>
<clustering>
<clus scale="   38.858">  1  6  2 -1</clus>
<clus scale="  459.572">  4  5 -1 -1</clus>
<clus scale="  300.000">  1  4  2 -1</clus>
</clustering>
</event>
<event>
 6    1  0.9687246E-012  0.3000000E+03  0.7818608E-02  0.1093470E+00
          1   -1    0    0  502    0  0.00000000000E+00  0.00000000000E+00  0.23782348042E+03  0.23782348042E+03  0.00000000000E+00 0.  1.
         13   -1    0    0    0    0 -0.00000000000E+00 -0.00000000000E+00 -0.27500000000E+03  0.27500000000E+03  0.00000000000E+00 0.  1.
    9000005    2    1    2  501    0  0.28862586040E+02  0.15656927580E+02 -0.40860546448E+02  0.47978168404E+03  0.47690952164E+03 0.  0.
         13    1    3    3    0    0  0.21749090554E+03 -0.82717760184E+02  0.65781841946E+02  0.24180937239E+03  0.00000000000E+00 0.  1.
          3    1    3    3  501    0 -0.18862831950E+03  0.98374687764E+02 -0.10664238839E+03  0.23797231165E+03  0.00000000000E+00 0.  1.
         21    1    1    2  502  501 -0.28862586040E+02 -0.15656927580E+02  0.36840268682E+01  0.33041796381E+02  0.00000000000E+00 0. -1.
<scales pt_clust_4="550.00000" pt_clust_5="550.00000" pt_clust_6="32.83578"></scales>
<mgrwt>
<rscale>  0 0.30000000E+03</rscale>
<asrwt>  1 0.32835777E+02</asrwt>
<pdfrwt beam="1">  1        1 0.86481266E+00 0.30000000E+03</pdfrwt>
<pdfrwt beam="2">0</pdfrwt>
<totfact> 0.29049908E-04</totfact>
</mgrwt>
<clustering>
<clus scale="   32.836">  1  6  2 -1</clus>
<clus scale="  476.910">  4  5 -1 -1</clus>
<clus scale="  300.000">  1  4  2 -1</clus>
</clustering>
</event>
<event>
 6    1  0.9687246E-012  0.3000000E+03  0.7818608E-02  0.1093470E+00
          1   -1    0    0  502    0  0.00000000000E+00  0.00000000000E+00  0.21979532001E+03  0.21979532001E+03  0.00000000000E+00 0.  1.
         13   -1    0    0    0    0 -0.00000000000E+00 -0.00000000000E+00 -0.27500000000E+03  0.27500000000E+03  0.00000000000E+00 0.  1.
    9000005    2    1    2  501    0  0.29708970865E+02 -0.14512680032E+02 -0.60715854851E+02  0.46127496977E+03  0.45606462467E+03 0.  0.
         13    1    3    3    0    0  0.20222157154E+03  0.85157111933E+02  0.61076917246E+02  0.22776234879E+03  0.00000000000E+00 0.  1.
          3    1    3    3  501    0 -0.17251260067E+03 -0.99669791965E+02 -0.12179277210E+03  0.23351262098E+03  0.00000000000E+00 0.  1.
         21    1    1    2  502  501 -0.29708970865E+02  0.14512680032E+02  0.55111748559E+01  0.33520350235E+02  0.00000000000E+00 0. -1.
<scales pt_clust_4="550.00000" pt_clust_5="550.00000" pt_clust_6="33.06419"></scales>
<mgrwt>
<rscale>  0 0.30000000E+03</rscale>
<asrwt>  1 0.33064193E+02</asrwt>
<pdfrwt beam="1">  1        1 0.79925571E+00 0.30000000E+03</pdfrwt>
<pdfrwt beam="2">0</pdfrwt>
<totfact> 0.10612508E-03</totfact>
</mgrwt>
<clustering>
<clus scale="   33.064">  1  6  2 -1</clus>
<clus scale="  456.065">  4  5 -1 -1</clus>
<clus scale="  300.000">  1  4  2 -1</clus>
</clustering>
</event>
<event>
 6    1  0.9687246E-012  0.3000000E+03  0.7818608E-02  0.1093470E+00
          1   -1    0    0  502    0  0.00000000000E+00  0.00000000000E+00  0.22710848875E+03  0.22710848875E+03  0.00000000000E+00 0.  1.
         13   -1    0    0    0    0 -0.00000000000E+00 -0.00000000000E+00 -0.27500000000E+03  0.27500000000E+03  0.00000000000E+00 0.  1.
    9000005    2    1    2  501    0 -0.19675567259E+02  0.22795342895E+02 -0.51085510038E+02  0.47182718705E+03  0.46808589970E+03 0.  0.
         13    1    3    3    0    0 -0.89582717435E+02 -0.11967947193E+03  0.15259391320E+03  0.21361915085E+03  0.00000000000E+00 0.  1.
          3    1    3    3  501    0  0.69907150176E+02  0.14247481483E+03 -0.20367942324E+03  0.25820803620E+03  0.00000000000E+00 0.  1.
         21    1    1    2  502  501  0.19675567259E+02 -0.22795342895E+02  0.31939987928E+01  0.30281301705E+02  0.00000000000E+00 0.  1.
<scales pt_clust_4="550.00000" pt_clust_5="550.00000" pt_clust_6="30.11238"></scales>
<mgrwt>
<rscale>  0 0.30000000E+03</rscale>
<asrwt>  1 0.30112383E+02</asrwt>
<pdfrwt beam="1">  1        1 0.82584905E+00 0.30000000E+03</pdfrwt>
<pdfrwt beam="2">0</pdfrwt>
<totfact> 0.66047415E-04</totfact>
</mgrwt>
<clustering>
<clus scale="   30.112">  1  6  2 -1</clus>
<clus scale="  468.086">  4  5 -1 -1</clus>
<clus scale="  300.000">  1  4  2 -1</clus>
</clustering>
</event>
<event>
 6    1  0.9687246E-012  0.3000000E+03  0.7818608E-02  0.1093470E+00
          1   -1    0    0  502    0  0.00000000000E+00  0.00000000000E+00  0.24747014013E+03  0.24747014013E+03  0.00000000000E+00 0.  1.
         13   -1    0    0    0    0 -0.00000000000E+00 -0.00000000000E+00 -0.27500000000E+03  0.27500000000E+03  0.00000000000E+00 0.  1.
    9000005    2    1    2  501    0  0.30425811370E+02  0.57457203049E+01 -0.37211015211E+02  0.49002837588E+03  0.48763142455E+03 0.  0.
         13    1    3    3    0    0 -0.13444084041E+03  0.11897019138E+02  0.17514583527E+03  0.22111522392E+03  0.00000000000E+00 0.  1.
          3    1    3    3  501    0  0.16486665178E+03 -0.61512988331E+01 -0.21235685049E+03  0.26891315196E+03  0.00000000000E+00 0.  1.
         21    1    1    2  502  501 -0.30425811370E+02 -0.57457203049E+01  0.96811553442E+01  0.32441764257E+02  0.00000000000E+00 0.  1.
<scales pt_clust_4="550.00000" pt_clust_5="550.00000" pt_clust_6="30.96358"></scales>
<mgrwt>
<rscale>  0 0.30000000E+03</rscale>
<asrwt>  1 0.30963580E+02</asrwt>
<pdfrwt beam="1">  1        1 0.89989142E+00 0.30000000E+03</pdfrwt>
<pdfrwt beam="2">0</pdfrwt>
<totfact> 0.11338675E-04</totfact>
</mgrwt>
<clustering>
<clus scale="   30.964">  1  6  2 -1</clus>
<clus scale="  487.631">  4  5 -1 -1</clus>
<clus scale="  300.000">  1  4  2 -1</clus>
</clustering>
</event>
<event>
 6    1  0.9687246E-012  0.3000000E+03  0.7818608E-02  0.1093470E+00
          1   -1    0    0  502    0  0.00000000000E+00  0.00000000000E+00  0.24110778444E+03  0.24110778444E+03  0.00000000000E+00 0.  1.
         13   -1    0    0    0    0 -0.00000000000E+00 -0.00000000000E+00 -0.27500000000E+03  0.27500000000E+03  0.00000000000E+00 0.  1.
    9000005    2    1    2  501    0 -0.18761816881E+02 -0.24087180678E+02 -0.59485038185E+02  0.47626822350E+03  0.47155143188E+03 0.  0.
         13    1    3    3    0    0 -0.13949711029E+03  0.20865529634E+02  0.16522759935E+03  0.21724404180E+03  0.00000000000E+00 0.  1.
          3    1    3    3  501    0  0.12073529341E+03 -0.44952710312E+02 -0.22471263754E+03  0.25902418171E+03  0.00000000000E+00 0.  1.
         21    1    1    2  502  501  0.18761816881E+02  0.24087180678E+02  0.25592822627E+02  0.39839560938E+02  0.00000000000E+00 0. -1.
<scales pt_clust_4="550.00000" pt_clust_5="550.00000" pt_clust_6="30.53192"></scales>
<mgrwt>
<rscale>  0 0.30000000E+03</rscale>
<asrwt>  1 0.30531918E+02</asrwt>
<pdfrwt beam="1">  1        1 0.87675558E+00 0.30000000E+03</pdfrwt>
<pdfrwt beam="2">0</pdfrwt>
<totfact> 0.22097273E-04</totfact>
</mgrwt>
<clustering>
<clus scale="   30.532">  1  6  2 -1</clus>
<clus scale="  471.551">  4  5 -1 -1</clus>
<clus scale="  300.000">  1  4  2 -1</clus>
</clustering>
</event>
<event>
 6    1  0.9687246E-012  0.3000000E+03  0.7818608E-02  0.1093470E+00
          1   -1    0    0  502    0  0.00000000000E+00  0.00000000000E+00  0.23631497137E+03  0.23631497137E+03  0.00000000000E+00 0.  1.
         13   -1    0    0    0    0 -0.00000000000E+00 -0.00000000000E+00 -0.27500000000E+03  0.27500000000E+03  0.00000000000E+00 0.  1.
    9000005    2    1    2  501    0 -0.14535703290E+01  0.32998536402E+02 -0.43586021426E+02  0.47792281657E+03  0.47478359393E+03 0.  0.
         13    1    3    3    0    0 -0.17850551413E+03  0.17356617776E+03 -0.37402184058E+02  0.25177045102E+03  0.00000000000E+00 0.  1.
          3    1    3    3  501    0  0.17705194380E+03 -0.14056764136E+03 -0.61838373680E+01  0.22615236555E+03  0.00000000000E+00 0.  1.
         21    1    1    2  502  501  0.14535703290E+01 -0.32998536402E+02  0.49009927942E+01  0.33392154794E+02  0.00000000000E+00 0. -1.
<scales pt_clust_4="550.00000" pt_clust_5="550.00000" pt_clust_6="33.03054"></scales>
<mgrwt>
<rscale>  0 0.30000000E+03</rscale>
<asrwt>  1 0.33030535E+02</asrwt>
<pdfrwt beam="1">  1        1 0.85932717E+00 0.30000000E+03</pdfrwt>
<pdfrwt beam="2">0</pdfrwt>
<totfact> 0.33243776E-04</totfact>
</mgrwt>
<clustering>
<clus scale="   33.031">  1  6  2 -1</clus>
<clus scale="  474.784">  4  5 -1 -1</clus>
<clus scale="  300.000">  1  4  2 -1</clus>
</clustering>
</event>
<event>
 6    1  0.9687246E-012  0.3000000E+03  0.7818608E-02  0.1093470E+00
          1   -1    0    0  502    0  0.00000000000E+00  0.00000000000E+00  0.24189322343E+03  0.24189322343E+03  0.00000000000E+00 0.  1.
         13   -1    0    0    0    0 -0.00000000000E+00 -0.00000000000E+00 -0.27500000000E+03  0.27500000000E+03  0.00000000000E+00 0.  1.
    9000005    2    1    2  501    0  0.34201744907E+02  0.29906330260E+02  0.34527358767E+01  0.45857730884E+03  0.45630809642E+03 0.  0.
         13    1    3    3    0    0  0.18427257759E+03  0.14903259881E+03 -0.79236954222E+02  0.24989116285E+03  0.00000000000E+00 0.  1.
          1    1    3    3  501    0 -0.15007083268E+03 -0.11912626855E+03  0.82689690099E+02  0.20868614599E+03  0.00000000000E+00 0.  1.
         21    1    1    2  502  501 -0.34201744907E+02 -0.29906330260E+02 -0.36559512444E+02  0.58315914589E+02  0.00000000000E+00 0. -1.
<scales pt_clust_4="550.00000" pt_clust_5="550.00000" pt_clust_6="45.43292"></scales>
<mgrwt>
<rscale>  0 0.30000000E+03</rscale>
<asrwt>  1 0.45432918E+02</asrwt>
<pdfrwt beam="1">  1        1 0.87961172E+00 0.30000000E+03</pdfrwt>
<pdfrwt beam="2">0</pdfrwt>
<totfact> 0.19026508E-04</totfact>
</mgrwt>
<clustering>
<clus scale="   45.433">  1  6  2 -1</clus>
<clus scale="  456.308">  4  5 -1 -1</clus>
<clus scale="  300.000">  1  4  2 -1</clus>
</clustering>
</event>
<event>
 6    1  0.9687246E-012  0.3000000E+03  0.7818608E-02  0.1093470E+00
          1   -1    0    0  502    0  0.00000000000E+00  0.00000000000E+00  0.25679315289E+03  0.25679315289E+03  0.00000000000E+00 0.  1.
         13   -1    0    0    0    0 -0.00000000000E+00 -0.00000000000E+00 -0.27500000000E+03  0.27500000000E+03  0.00000000000E+00 0.  1.
    9000005    2    1    2  501    0  0.32023201170E+02  0.37192015069E+02 -0.29418990923E+02  0.48144989547E+03  0.47803743936E+03 0.  0.
         13    1    3    3    0    0 -0.20516605973E+03 -0.72966567634E+02  0.40671336794E+01  0.21779296048E+03  0.00000000000E+00 0.  1.
          3    1    3    3  501    0  0.23718926090E+03  0.11015858270E+03 -0.33486124602E+02  0.26365693500E+03  0.00000000000E+00 0.  1.
         21    1    1    2  502  501 -0.32023201170E+02 -0.37192015069E+02  0.11212143810E+02  0.50343257412E+02  0.00000000000E+00 0. -1.
<scales pt_clust_4="550.00000" pt_clust_5="550.00000" pt_clust_6="49.07883"></scales>
<mgrwt>
<rscale>  0 0.30000000E+03</rscale>
<asrwt>  1 0.49078828E+02</asrwt>
<pdfrwt beam="1">  1        1 0.93379328E+00 0.30000000E+03</pdfrwt>
<pdfrwt beam="2">0</pdfrwt>
<totfact> 0.21916706E-05</totfact>
</mgrwt>
<clustering>
<clus scale="   49.079">  1  6  2 -1</clus>
<clus scale="  478.037">  4  5 -1 -1</clus>
<clus scale="  300.000">  1  4  2 -1</clus>
</clustering>
</event>
<event>
 6    1  0.9687246E-012  0.3000000E+03  0.7818608E-02  0.1093470E+00
          1   -1    0    0  502    0  0.00000000000E+00  0.00000000000E+00  0.23837526297E+03  0.23837526297E+03  0.00000000000E+00 0.  1.
         13   -1    0    0    0    0 -0.00000000000E+00 -0.00000000000E+00 -0.27500000000E+03  0.27500000000E+03  0.00000000000E+00 0.  1.
    9000005    2    1    2  501    0 -0.14166612977E+02  0.28795036530E+02 -0.34356722405E+02  0.48120398785E+03  0.47890191741E+03 0.  0.
         13    1    3    3    0    0  0.44330535046E+02 -0.13204940576E+03 -0.19953570404E+03  0.24334489739E+03  0.00000000000E+00 0.  1.
          1    1    3    3  501    0 -0.58497148023E+02  0.16084444229E+03  0.16517898163E+03  0.23785909046E+03  0.00000000000E+00 0.  1.
         21    1    1    2  502  501  0.14166612977E+02 -0.28795036530E+02 -0.22680146286E+01  0.32171275112E+02  0.00000000000E+00 0. -1.
<scales pt_clust_4="550.00000" pt_clust_5="550.00000" pt_clust_6="32.09123"></scales>
<mgrwt>
<rscale>  0 0.30000000E+03</rscale>
<asrwt>  1 0.32091230E+02</asrwt>
<pdfrwt beam="1">  1        1 0.86681914E+00 0.30000000E+03</pdfrwt>
<pdfrwt beam="2">0</pdfrwt>
<totfact> 0.27771911E-04</totfact>
</mgrwt>
<clustering>
<clus scale="   32.091">  1  6  2 -1</clus>
<clus scale="  478.902">  4  5 -1 -1</clus>
<clus scale="  300.000">  1  4  2 -1</clus>
</clustering>
</event>
<event>
 6    1  0.9687246E-012  0.3000000E+03  0.7818608E-02  0.1093470E+00
          1   -1    0    0  502    0  0.00000000000E+00  0.00000000000E+00  0.24503266886E+03  0.24503266886E+03  0.00000000000E+00 0.  1.
         13   -1    0    0    0    0 -0.00000000000E+00 -0.00000000000E+00 -0.27500000000E+03  0.27500000000E+03  0.00000000000E+00 0.  1.
    9000005    2    1    2  501    0  0.15093125460E+02 -0.37117700217E+02 -0.41063338060E+02  0.47845566230E+03  0.47500325993E+03 0.  0.
         13    1    3    3    0    0  0.63222703523E+02  0.15852893516E+03 -0.16867904511E+03  0.23996073383E+03  0.00000000000E+00 0.  1.
          1    1    3    3  501    0 -0.48129578063E+02 -0.19564663537E+03  0.12761570705E+03  0.23849492846E+03  0.00000000000E+00 0.  1.
         21    1    1    2  502  501 -0.15093125460E+02  0.37117700217E+02  0.11096006924E+02  0.41577006569E+02  0.00000000000E+00 0. -1.
<scales pt_clust_4="550.00000" pt_clust_5="550.00000" pt_clust_6="40.06902"></scales>
<mgrwt>
<rscale>  0 0.30000000E+03</rscale>
<asrwt>  1 0.40069017E+02</asrwt>
<pdfrwt beam="1">  1        1 0.89102789E+00 0.30000000E+03</pdfrwt>
<pdfrwt beam="2">0</pdfrwt>
<totfact> 0.13706797E-04</totfact>
</mgrwt>
<clustering>
<clus scale="   40.069">  1  6  2 -1</clus>
<clus scale="  475.003">  4  5 -1 -1</clus>
<clus scale="  300.000">  1  4  2 -1</clus>
</clustering>
</event>
<event>
 6    1  0.9687246E-012  0.3000000E+03  0.7818608E-02  0.1093470E+00
          1   -1    0    0  502    0  0.00000000000E+00  0.00000000000E+00  0.25115660943E+03  0.25115660943E+03  0.00000000000E+00 0.  1.
         13   -1    0    0    0    0 -0.00000000000E+00 -0.00000000000E+00 -0.27500000000E+03  0.27500000000E+03  0.00000000000E+00 0.  1.
    9000005    2    1    2  501    0  0.31103313343E+02  0.38004524539E+00 -0.56082179349E+02  0.48135817154E+03  0.47706699523E+03 0.  0.
         13    1    3    3    0    0 -0.90888576905E+02  0.11749065599E+03 -0.20694585947E+03  0.25473785821E+03  0.00000000000E+00 0.  1.
          1    1    3    3  501    0  0.12199189025E+03 -0.11711061074E+03  0.15086368012E+03  0.22662031333E+03  0.00000000000E+00 0.  1.
         21    1    1    2  502  501 -0.31103313343E+02 -0.38004524539E+00  0.32238788778E+02  0.44798437888E+02  0.00000000000E+00 0.  1.
<scales pt_clust_4="550.00000" pt_clust_5="550.00000" pt_clust_6="31.10564"></scales>
<mgrwt>
<rscale>  0 0.30000000E+03</rscale>
<asrwt>  1 0.31105635E+02</asrwt>
<pdfrwt beam="1">  1        1 0.91329676E+00 0.30000000E+03</pdfrwt>
<pdfrwt beam="2">0</pdfrwt>
<totfact> 0.60846060E-05</totfact>
</mgrwt>
<clustering>
<clus scale="   31.106">  1  6  2 -1</clus>
<clus scale="  477.067">  4  5 -1 -1</clus>
<clus scale="  300.000">  1  4  2 -1</clus>
</clustering>
</event>
<event>
 6    1  0.9687246E-012  0.3000000E+03  0.7818608E-02  0.1093470E+00
          1   -1    0    0  502    0  0.00000000000E+00  0.00000000000E+00  0.24931464005E+03  0.24931464005E+03  0.00000000000E+00 0.  1.
         13   -1    0    0    0    0 -0.00000000000E+00 -0.00000000000E+00 -0.27500000000E+03  0.27500000000E+03  0.00000000000E+00 0.  1.
    9000005    2    1    2  501    0 -0.24741076102E+02 -0.30955997734E+02 -0.23101825581E+02  0.48460230831E+03  0.48242647961E+03 0.  0.
         13    1    3    3    0    0 -0.12652757747E+03 -0.22375509070E+03  0.33842812455E+02  0.25926994510E+03  0.00000000000E+00 0.  1.
          1    1    3    3  501    0  0.10178650137E+03  0.19279909297E+03 -0.56944638036E+02  0.22533236321E+03  0.00000000000E+00 0.  1.
         21    1    1    2  502  501  0.24741076102E+02  0.30955997734E+02 -0.25835343687E+01  0.39712331740E+02  0.00000000000E+00 0. -1.
<scales pt_clust_4="550.00000" pt_clust_5="550.00000" pt_clust_6="39.62822"></scales>
<mgrwt>
<rscale>  0 0.30000000E+03</rscale>
<asrwt>  1 0.39628225E+02</asrwt>
<pdfrwt beam="1">  1        1 0.90659869E+00 0.30000000E+03</pdfrwt>
<pdfrwt beam="2">0</pdfrwt>
<totfact> 0.83962063E-05</totfact>
</mgrwt>
<clustering>
<clus scale="   39.628">  1  6  2 -1</clus>
<clus scale="  482.426">  4  5 -1 -1</clus>
<clus scale="  300.000">  1  4  2 -1</clus>
</clustering>
</event>
<event>
 6    1  0.9687246E-012  0.3000000E+03  0.7818608E-02  0.1093470E+00
          1   -1    0    0  502    0  0.00000000000E+00  0.00000000000E+00  0.22072924656E+03  0.22072924656E+03  0.00000000000E+00 0.  1.
         13   -1    0    0    0    0 -0.00000000000E+00 -0.00000000000E+00 -0.27500000000E+03  0.27500000000E+03  0.00000000000E+00 0.  1.
    9000005    2    1    2  501    0  0.20984186159E+02 -0.23129264234E+02 -0.41499987551E+02  0.46198919034E+03  0.45906041442E+03 0.  0.
         13    1    3    3    0    0  0.73163673255E+02  0.84897787582E+02 -0.22001045135E+03  0.24691123126E+03  0.00000000000E+00 0.  1.
          3    1    3    3  501    0 -0.52179487096E+02 -0.10802705182E+03  0.17851046379E+03  0.21507795908E+03  0.00000000000E+00 0.  1.
         21    1    1    2  502  501 -0.20984186159E+02  0.23129264234E+02 -0.12770765886E+02  0.33740056225E+02  0.00000000000E+00 0.  1.
<scales pt_clust_4="550.00000" pt_clust_5="550.00000" pt_clust_6="31.22979"></scales>
<mgrwt>
<rscale>  0 0.30000000E+03</rscale>
<asrwt>  1 0.31229792E+02</asrwt>
<pdfrwt beam="1">  1        1 0.80265181E+00 0.30000000E+03</pdfrwt>
<pdfrwt beam="2">0</pdfrwt>
<totfact> 0.10136352E-03</totfact>
</mgrwt>
<clustering>
<clus scale="   31.230">  1  6  2 -1</clus>
<clus scale="  459.060">  4  5 -1 -1</clus>
<clus scale="  300.000">  1  4  2 -1</clus>
</clustering>
</event>
<event>
 6    1  0.9687246E-012  0.3000000E+03  0.7818608E-02  0.1093470E+00
          1   -1    0    0  502    0  0.00000000000E+00  0.00000000000E+00  0.21956104827E+03  0.21956104827E+03  0.00000000000E+00 0.  1.
         13   -1    0    0    0    0 -0.00000000000E+00 -0.00000000000E+00 -0.27500000000E+03  0.27500000000E+03  0.00000000000E+00 0.  1.
    9000005    2    1    2  501    0 -0.30747786245E+02 -0.96756707278E+01 -0.51285014303E+02  0.46206027660E+03  0.45807259420E+03 0.  0.
         13    1    3    3    0    0  0.16614221289E+03 -0.14377495844E+03 -0.74433063303E+01  0.21984057038E+03  0.00000000000E+00 0.  1.
          1    1    3    3  501    0 -0.19688999913E+03  0.13409928771E+03 -0.43841707973E+02  0.24221970622E+03  0.00000000000E+00 0.  1.
         21    1    1    2  502  501  0.30747786245E+02  0.96756707278E+01 -0.41539374239E+01  0.32500771669E+02  0.00000000000E+00 0. -1.
<scales pt_clust_4="550.00000" pt_clust_5="550.00000" pt_clust_6="32.23424"></scales>
<mgrwt>
<rscale>  0 0.30000000E+03</rscale>
<asrwt>  1 0.32234236E+02</asrwt>
<pdfrwt beam="1">  1        1 0.79840381E+00 0.30000000E+03</pdfrwt>
<pdfrwt beam="2">0</pdfrwt>
<totfact> 0.10816335E-03</totfact>
</mgrwt>
<clustering>
<clus scale="   32.234">  1  6  2 -1</clus>
<clus scale="  458.073">  4  5 -1 -1</clus>
<clus scale="  300.000">  1  4  2 -1</clus>
</clustering>
</event>
<event>
 6    1  0.9687246E-012  0.3000000E+03  0.7818608E-02  0.1093470E+00
          1   -1    0    0  502    0  0.00000000000E+00  0.00000000000E+00  0.25821649198E+03  0.25821649198E+03  0.00000000000E+00 0.  1.
         13   -1    0    0    0    0 -0.00000000000E+00 -0.00000000000E+00 -0.27500000000E+03  0.27500000000E+03  0.00000000000E+00 0.  1.
    9000005    2    1    2  501    0  0.29563402380E+02 -0.18536837327E+02 -0.28296953440E+02  0.49647185259E+03  0.49443500457E+03 0.  0.
         13    1    3    3    0    0  0.15996492097E+03 -0.12141689955E+03  0.15159984488E+03  0.25162144663E+03  0.00000000000E+00 0.  1.
          3    1    3    3  501    0 -0.13040151859E+03  0.10288006223E+03 -0.17989679832E+03  0.24485040596E+03  0.00000000000E+00 0.  1.
         21    1    1    2  502  501 -0.29563402380E+02  0.18536837327E+02  0.11513445416E+02  0.36744639388E+02  0.00000000000E+00 0. -1.
<scales pt_clust_4="550.00000" pt_clust_5="550.00000" pt_clust_6="34.89426"></scales>
<mgrwt>
<rscale>  0 0.30000000E+03</rscale>
<asrwt>  1 0.34894256E+02</asrwt>
<pdfrwt beam="1">  1        1 0.93896906E+00 0.30000000E+03</pdfrwt>
<pdfrwt beam="2">0</pdfrwt>
<totfact> 0.19936469E-05</totfact>
</mgrwt>
<clustering>
<clus scale="   34.894">  1  6  2 -1</clus>
<clus scale="  494.435">  4  5 -1 -1</clus>
<clus scale="  300.000">  1  4  2 -1</clus>
</clustering>
</event>
<event>
 6    1  0.9687246E-012  0.3000000E+03  0.7818608E-02  0.1093470E+00
          1   -1    0    0  502    0  0.00000000000E+00  0.00000000000E+00  0.25198383190E+03  0.25198383190E+03  0.00000000000E+00 0.  1.
         13   -1    0    0    0    0 -0.00000000000E+00 -0.00000000000E+00 -0.27500000000E+03  0.27500000000E+03  0.00000000000E+00 0.  1.
    9000005    2    1    2  501    0 -0.33254633578E+02  0.22891045405E+02 -0.65468019963E+02  0.46840029888E+03  0.46204210603E+03 0.  0.
         13    1    3    3    0    0  0.12418152386E+03 -0.15847804721E+03 -0.10161657170E+03  0.22552665022E+03  0.00000000000E+00 0.  1.
          1    1    3    3  501    0 -0.15743615744E+03  0.18136909261E+03  0.36148551736E+02  0.24287364867E+03  0.00000000000E+00 0.  1.
         21    1    1    2  502  501  0.33254633578E+02 -0.22891045405E+02  0.42451851863E+02  0.58583533017E+02  0.00000000000E+00 0. -1.
<scales pt_clust_4="550.00000" pt_clust_5="550.00000" pt_clust_6="40.37166"></scales>
<mgrwt>
<rscale>  0 0.30000000E+03</rscale>
<asrwt>  1 0.40371656E+02</asrwt>
<pdfrwt beam="1">  1        1 0.91630484E+00 0.30000000E+03</pdfrwt>
<pdfrwt beam="2">0</pdfrwt>
<totfact> 0.49210144E-05</totfact>
</mgrwt>
<clustering>
<clus scale="   40.372">  1  6  2 -1</clus>
<clus scale="  462.042">  4  5 -1 -1</clus>
<clus scale="  300.000">  1  4  2 -1</clus>
</clustering>
</event>
<event>
 6    1  0.9687246E-012  0.3000000E+03  0.7818608E-02  0.1093470E+00
          1   -1    0    0  502    0  0.00000000000E+00  0.00000000000E+00  0.24493926074E+03  0.24493926074E+03  0.00000000000E+00 0.  1.
         13   -1    0    0    0    0 -0.00000000000E+00 -0.00000000000E+00 -0.27500000000E+03  0.27500000000E+03  0.00000000000E+00 0.  1.
    9000005    2    1    2  501    0  0.35754513855E+02  0.86858558497E+01 -0.50316849352E+02  0.47793760186E+03  0.47385518525E+03 0.  0.
         13    1    3    3    0    0 -0.68959715711E+02 -0.16027298068E+03  0.12359669810E+03  0.21382005170E+03  0.00000000000E+00 0.  1.
          3    1    3    3  501    0  0.10471422957E+03  0.16895883653E+03 -0.17391354745E+03  0.26411755016E+03  0.00000000000E+00 0.  1.
         21    1    1    2  502  501 -0.35754513855E+02 -0.86858558497E+01  0.20256110090E+02  0.42001658881E+02  0.00000000000E+00 0. -1.
<scales pt_clust_4="550.00000" pt_clust_5="550.00000" pt_clust_6="36.79442"></scales>
<mgrwt>
<rscale>  0 0.30000000E+03</rscale>
<asrwt>  1 0.36794420E+02</asrwt>
<pdfrwt beam="1">  1        1 0.89068822E+00 0.30000000E+03</pdfrwt>
<pdfrwt beam="2">0</pdfrwt>
<totfact> 0.14064571E-04</totfact>
</mgrwt>
<clustering>
<clus scale="   36.794">  1  6  2 -1</clus>
<clus scale="  473.855">  4  5 -1 -1</clus>
<clus scale="  300.000">  1  4  2 -1</clus>
</clustering>
</event>
<event>
 6    1  0.9687246E-012  0.3000000E+03  0.7818608E-02  0.1093470E+00
          1   -1    0    0  502    0  0.00000000000E+00  0.00000000000E+00  0.21822771601E+03  0.21822771601E+03  0.00000000000E+00 0.  1.
         13   -1    0    0    0    0 -0.00000000000E+00 -0.00000000000E+00 -0.27500000000E+03  0.27500000000E+03  0.00000000000E+00 0.  1.
    9000005    2    1    2  501    0  0.29457834488E+02  0.83827383507E+01 -0.58142874862E+02  0.46256971813E+03  0.45787783951E+03 0.  0.
         13    1    3    3    0    0  0.20453592839E+03  0.98754800348E+02 -0.11892614657E+03  0.25638035208E+03  0.00000000000E+00 0.  1.
          1    1    3    3  501    0 -0.17507809390E+03 -0.90372061998E+02  0.60783271709E+02  0.20618936605E+03  0.00000000000E+00 0.  1.
         21    1    1    2  502  501 -0.29457834488E+02 -0.83827383507E+01  0.13705908746E+01  0.30657997885E+02  0.00000000000E+00 0.  1.
<scales pt_clust_4="550.00000" pt_clust_5="550.00000" pt_clust_6="30.62735"></scales>
<mgrwt>
<rscale>  0 0.30000000E+03</rscale>
<asrwt>  1 0.30627346E+02</asrwt>
<pdfrwt beam="1">  1        1 0.79355533E+00 0.30000000E+03</pdfrwt>
<pdfrwt beam="2">0</pdfrwt>
<totfact> 0.11864019E-03</totfact>
</mgrwt>
<clustering>
<clus scale="   30.627">  1  6  2 -1</clus>
<clus scale="  457.878">  4  5 -1 -1</clus>
<clus scale="  300.000">  1  4  2 -1</clus>
</clustering>
</event>
<event>
 6    1  0.9687246E-012  0.3000000E+03  0.7818608E-02  0.1093470E+00
          1   -1    0    0  502    0  0.00000000000E+00  0.00000000000E+00  0.24673087685E+03  0.24673087685E+03  0.00000000000E+00 0.  1.
         13   -1    0    0    0    0 -0.00000000000E+00 -0.00000000000E+00 -0.27500000000E+03  0.27500000000E+03  0.00000000000E+00 0.  1.
    9000005    2    1    2  501    0  0.36698717459E+02  0.54028999993E+01 -0.25060839544E+02  0.48449809189E+03  0.48242550532E+03 0.  0.
         13    1    3    3    0    0 -0.40746263306E+02  0.67535150703E+02  0.21269200818E+03  0.22684608196E+03  0.00000000000E+00 0.  1.
          1    1    3    3  501    0  0.77444980765E+02 -0.62132250703E+02 -0.23775284773E+03  0.25765200994E+03  0.00000000000E+00 0.  1.
         21    1    1    2  502  501 -0.36698717459E+02 -0.54028999993E+01 -0.32082836108E+01  0.37232784952E+02  0.00000000000E+00 0. -1.
<scales pt_clust_4="550.00000" pt_clust_5="550.00000" pt_clust_6="37.09432"></scales>
<mgrwt>
<rscale>  0 0.30000000E+03</rscale>
<asrwt>  1 0.37094320E+02</asrwt>
<pdfrwt beam="1">  1        1 0.89720319E+00 0.30000000E+03</pdfrwt>
<pdfrwt beam="2">0</pdfrwt>
<totfact> 0.11786232E-04</totfact>
</mgrwt>
<clustering>
<clus scale="   37.094">  1  6  2 -1</clus>
<clus scale="  482.426">  4  5 -1 -1</clus>
<clus scale="  300.000">  1  4  2 -1</clus>
</clustering>
</event>
<event>
 6    1  0.9687246E-012  0.3000000E+03  0.7818608E-02  0.1093470E+00
          1   -1    0    0  502    0  0.00000000000E+00  0.00000000000E+00  0.24709323836E+03  0.24709323836E+03  0.00000000000E+00 0.  1.
         13   -1    0    0    0    0 -0.00000000000E+00 -0.00000000000E+00 -0.27500000000E+03  0.27500000000E+03  0.00000000000E+00 0.  1.
    9000005    2    1    2  501    0 -0.43951587787E+01  0.42304547541E+02 -0.40223351328E+02  0.47781355289E+03  0.47421396138E+03 0.  0.
         13    1    3    3    0    0 -0.10109358038E+03  0.11278548039E+03 -0.21682753322E+03  0.26448942463E+03  0.00000000000E+00 0.  1.
          3    1    3    3  501    0  0.96698421602E+02 -0.70480932850E+02  0.17660418189E+03  0.21332412826E+03  0.00000000000E+00 0.  1.
         21    1    1    2  502  501  0.43951587787E+01 -0.42304547541E+02  0.12316589684E+02  0.44279685464E+02  0.00000000000E+00 0. -1.
<scales pt_clust_4="550.00000" pt_clust_5="550.00000" pt_clust_6="42.53225"></scales>
<mgrwt>
<rscale>  0 0.30000000E+03</rscale>
<asrwt>  1 0.42532249E+02</asrwt>
<pdfrwt beam="1">  1        1 0.89852087E+00 0.30000000E+03</pdfrwt>
<pdfrwt beam="2">0</pdfrwt>
<totfact> 0.11103192E-04</totfact>
</mgrwt>
<clustering>
<clus scale="   42.532">  1  6  2 -1</clus>
<clus scale="  474.214">  4  5 -1 -1</clus>
<clus scale="  300.000">  1  4  2 -1</clus>
</clustering>
</event>
<event>
 6    1  0.9687246E-012  0.3000000E+03  0.7818608E-02  0.1093470E+00
          1   -1    0    0  502    0  0.00000000000E+00  0.00000000000E+00  0.22495483755E+03  0.22495483755E+03  0.00000000000E+00 0.  1.
         13   -1    0    0    0    0 -0.00000000000E+00 -0.00000000000E+00 -0.27500000000E+03  0.27500000000E+03  0.00000000000E+00 0.  1.
    9000005    2    1    2  501    0  0.51757322623E+01  0.29597726765E+02 -0.56601913030E+02  0.46920090102E+03  0.46480414727E+03 0.  0.
         13    1    3    3    0    0 -0.11753640369E+02  0.96765155473E+02  0.18973540333E+03  0.21331002473E+03  0.00000000000E+00 0.  1.
          3    1    3    3  501    0  0.16929372631E+02 -0.67167428708E+02 -0.24633731636E+03  0.25589087629E+03  0.00000000000E+00 0.  1.
         21    1    1    2  502  501 -0.51757322623E+01 -0.29597726765E+02  0.65567505808E+01  0.30753936533E+02  0.00000000000E+00 0.  1.
<scales pt_clust_4="550.00000" pt_clust_5="550.00000" pt_clust_6="30.04686"></scales>
<mgrwt>
<rscale>  0 0.30000000E+03</rscale>
<asrwt>  1 0.30046857E+02</asrwt>
<pdfrwt beam="1">  1        1 0.81801759E+00 0.30000000E+03</pdfrwt>
<pdfrwt beam="2">0</pdfrwt>
<totfact> 0.77405430E-04</totfact>
</mgrwt>
<clustering>
<clus scale="   30.047">  1  6  2 -1</clus>
<clus scale="  464.804">  4  5 -1 -1</clus>
<clus scale="  300.000">  1  4  2 -1</clus>
</clustering>
</event>
<event>
 6    1  0.9687246E-012  0.3000000E+03  0.7818608E-02  0.1093470E+00
          1   -1    0    0  502    0  0.00000000000E+00  0.00000000000E+00  0.22933511449E+03  0.22933511449E+03  0.00000000000E+00 0.  1.
         13   -1    0    0    0    0 -0.00000000000E+00 -0.00000000000E+00 -0.27500000000E+03  0.27500000000E+03  0.00000000000E+00 0.  1.
    9000005    2    1    2  501    0 -0.19770854778E+01 -0.36193855082E+02 -0.35524815920E+02  0.46669570663E+03  0.46392775949E+03 0.  0.
         13    1    3    3    0    0 -0.17571995097E+03 -0.44900702392E+02 -0.16863426869E+03  0.24765114742E+03  0.00000000000E+00 0.  1.
          1    1    3    3  501    0  0.17374286550E+03  0.87068473104E+01  0.13310945277E+03  0.21904455920E+03  0.00000000000E+00 0.  1.
         21    1    1    2  502  501  0.19770854778E+01  0.36193855082E+02 -0.10140069593E+02  0.37639407860E+02  0.00000000000E+00 0.  1.
<scales pt_clust_4="550.00000" pt_clust_5="550.00000" pt_clust_6="36.24783"></scales>
<mgrwt>
<rscale>  0 0.30000000E+03</rscale>
<asrwt>  1 0.36247832E+02</asrwt>
<pdfrwt beam="1">  1        1 0.83394587E+00 0.30000000E+03</pdfrwt>
<pdfrwt beam="2">0</pdfrwt>
<totfact> 0.54713842E-04</totfact>
</mgrwt>
<clustering>
<clus scale="   36.248">  1  6  2 -1</clus>
<clus scale="  463.928">  4  5 -1 -1</clus>
<clus scale="  300.000">  1  4  2 -1</clus>
</clustering>
</event>
<event>
 6    1  0.9687246E-012  0.3000000E+03  0.7818608E-02  0.1093470E+00
          1   -1    0    0  502    0  0.00000000000E+00  0.00000000000E+00  0.22639804857E+03  0.22639804857E+03  0.00000000000E+00 0.  1.
         13   -1    0    0    0    0 -0.00000000000E+00 -0.00000000000E+00 -0.27500000000E+03  0.27500000000E+03  0.00000000000E+00 0.  1.
    9000005    2    1    2  501    0  0.34478767560E+02  0.14378292557E+02 -0.35209713672E+02  0.46171338224E+03  0.45885074119E+03 0.  0.
         13    1    3    3    0    0  0.17304839286E+03 -0.15142251526E+03 -0.75267237454E+02  0.24194974981E+03  0.00000000000E+00 0.  1.
          3    1    3    3  501    0 -0.13856962530E+03  0.16580080781E+03  0.40057523782E+02  0.21976363243E+03  0.00000000000E+00 0.  1.
         21    1    1    2  502  501 -0.34478767560E+02 -0.14378292557E+02 -0.13392237762E+02  0.39684666329E+02  0.00000000000E+00 0. -1.
<scales pt_clust_4="550.00000" pt_clust_5="550.00000" pt_clust_6="37.35669"></scales>
<mgrwt>
<rscale>  0 0.30000000E+03</rscale>
<asrwt>  1 0.37356688E+02</asrwt>
<pdfrwt beam="1">  1        1 0.82326563E+00 0.30000000E+03</pdfrwt>
<pdfrwt beam="2">0</pdfrwt>
<totfact> 0.66874175E-04</totfact>
</mgrwt>
<clustering>
<clus scale="   37.357">  1  6  2 -1</clus>
<clus scale="  458.851">  4  5 -1 -1</clus>
<clus scale="  300.000">  1  4  2 -1</clus>
</clustering>
</event>
<event>
 6    1  0.9687246E-012  0.3000000E+03  0.7818608E-02  0.1093470E+00
          1   -1    0    0  502    0  0.00000000000E+00  0.00000000000E+00  0.23871573349E+03  0.23871573349E+03  0.00000000000E+00 0.  1.
         13   -1    0    0    0    0 -0.00000000000E+00 -0.00000000000E+00 -0.27500000000E+03  0.27500000000E+03  0.00000000000E+00 0.  1.
    9000005    2    1    2  501    0 -0.20176365942E+02  0.26871949001E+02 -0.56450742470E+02  0.47452550335E+03  0.46995593370E+03 0.  0.
         13    1    3    3    0    0  0.10274280160E+02 -0.20613217863E+03 -0.10948445981E+03  0.23362979870E+03  0.00000000000E+00 0.  1.
          1    1    3    3  501    0 -0.30450646102E+02  0.23300412763E+03  0.53033717343E+02  0.24089570465E+03  0.00000000000E+00 0.  1.
         21    1    1    2  502  501  0.20176365942E+02 -0.26871949001E+02  0.20166475960E+02  0.39190230139E+02  0.00000000000E+00 0. -1.
<scales pt_clust_4="550.00000" pt_clust_5="550.00000" pt_clust_6="33.60338"></scales>
<mgrwt>
<rscale>  0 0.30000000E+03</rscale>
<asrwt>  1 0.33603384E+02</asrwt>
<pdfrwt beam="1">  1        1 0.86805721E+00 0.30000000E+03</pdfrwt>
<pdfrwt beam="2">0</pdfrwt>
<totfact> 0.26722042E-04</totfact>
</mgrwt>
<clustering>
<clus scale="   33.603">  1  6  2 -1</clus>
<clus scale="  469.956">  4  5 -1 -1</clus>
<clus scale="  300.000">  1  4  2 -1</clus>
</clustering>
</event>
<event>
 6    1  0.9687246E-012  0.3000000E+03  0.7818608E-02  0.1093470E+00
          1   -1    0    0  502    0  0.00000000000E+00  0.00000000000E+00  0.22182668804E+03  0.22182668804E+03  0.00000000000E+00 0.  1.
         13   -1    0    0    0    0 -0.00000000000E+00 -0.00000000000E+00 -0.27500000000E+03  0.27500000000E+03  0.00000000000E+00 0.  1.
    9000005    2    1    2  501    0 -0.12855909665E+02  0.30435678158E+02 -0.44238406742E+02  0.46260041963E+03  0.45929348644E+03 0.  0.
         13    1    3    3    0    0 -0.15601504563E+03  0.13932592603E+03  0.10018739493E+03  0.23192654490E+03  0.00000000000E+00 0.  1.
          1    1    3    3  501    0  0.14315913597E+03 -0.10889024787E+03 -0.14442580167E+03  0.23067387472E+03  0.00000000000E+00 0.  1.
         21    1    1    2  502  501  0.12855909665E+02 -0.30435678158E+02 -0.89349052177E+01  0.34226268413E+02  0.00000000000E+00 0.  1.
<scales pt_clust_4="550.00000" pt_clust_5="550.00000" pt_clust_6="33.03946"></scales>
<mgrwt>
<rscale>  0 0.30000000E+03</rscale>
<asrwt>  1 0.33039461E+02</asrwt>
<pdfrwt beam="1">  1        1 0.80664250E+00 0.30000000E+03</pdfrwt>
<pdfrwt beam="2">0</pdfrwt>
<totfact> 0.93592436E-04</totfact>
</mgrwt>
<clustering>
<clus scale="   33.039">  1  6  2 -1</clus>
<clus scale="  459.293">  4  5 -1 -1</clus>
<clus scale="  300.000">  1  4  2 -1</clus>
</clustering>
</event>
<event>
 6    1  0.9687246E-012  0.3000000E+03  0.7818608E-02  0.1093470E+00
          1   -1    0    0  502    0  0.00000000000E+00  0.00000000000E+00  0.23896306972E+03  0.23896306972E+03  0.00000000000E+00 0.  1.
         13   -1    0    0    0    0 -0.00000000000E+00 -0.00000000000E+00 -0.27500000000E+03  0.27500000000E+03  0.00000000000E+00 0.  1.
    9000005    2    1    2  501    0 -0.33948507745E+00 -0.32791756318E+02 -0.67304102043E+02  0.46865246872E+03  0.46263363448E+03 0.  0.
         13    1    3    3    0    0 -0.45455731829E+02 -0.21793910493E+03 -0.14190140993E+03  0.26400698315E+03  0.00000000000E+00 0.  1.
          3    1    3    3  501    0  0.45116246752E+02  0.18514734861E+03  0.74597307889E+02  0.20464548557E+03  0.00000000000E+00 0.  1.
         21    1    1    2  502  501  0.33948507745E+00  0.32791756318E+02  0.31267171758E+02  0.45310600992E+02  0.00000000000E+00 0. -1.
<scales pt_clust_4="550.00000" pt_clust_5="550.00000" pt_clust_6="32.79351"></scales>
<mgrwt>
<rscale>  0 0.30000000E+03</rscale>
<asrwt>  1 0.32793514E+02</asrwt>
<pdfrwt beam="1">  1        1 0.86895662E+00 0.30000000E+03</pdfrwt>
<pdfrwt beam="2">0</pdfrwt>
<totfact> 0.26276919E-04</totfact>
</mgrwt>
<clustering>
<clus scale="   32.794">  1  6  2 -1</clus>
<clus scale="  462.634">  4  5 -1 -1</clus>
<clus scale="  300.000">  1  4  2 -1</clus>
</clustering>
</event>
<event>
 6    1  0.9687246E-012  0.3000000E+03  0.7818608E-02  0.1093470E+00
          1   -1    0    0  502    0  0.00000000000E+00  0.00000000000E+00  0.23627597778E+03  0.23627597778E+03  0.00000000000E+00 0.  1.
         13   -1    0    0    0    0 -0.00000000000E+00 -0.00000000000E+00 -0.27500000000E+03  0.27500000000E+03  0.00000000000E+00 0.  1.
    9000005    2    1    2  501    0  0.15198378115E+02 -0.27164934964E+02 -0.71867048165E+02  0.46580747706E+03  0.45917622835E+03 0.  0.
         13    1    3    3    0    0 -0.19649180172E+03 -0.16414439295E+02 -0.14150566524E+03  0.24269799187E+03  0.00000000000E+00 0.  1.
          3    1    3    3  501    0  0.21169017983E+03 -0.10750495669E+02  0.69638617078E+02  0.22310948519E+03  0.00000000000E+00 0.  1.
         21    1    1    2  502  501 -0.15198378115E+02  0.27164934964E+02  0.33143025944E+02  0.45468500720E+02  0.00000000000E+00 0. -1.
<scales pt_clust_4="550.00000" pt_clust_5="550.00000" pt_clust_6="31.12755"></scales>
<mgrwt>
<rscale>  0 0.30000000E+03</rscale>
<asrwt>  1 0.31127550E+02</asrwt>
<pdfrwt beam="1">  1        1 0.85918537E+00 0.30000000E+03</pdfrwt>
<pdfrwt beam="2">0</pdfrwt>
<totfact> 0.33737424E-04</totfact>
</mgrwt>
<clustering>
<clus scale="   31.128">  1  6  2 -1</clus>
<clus scale="  459.176">  4  5 -1 -1</clus>
<clus scale="  300.000">  1  4  2 -1</clus>
</clustering>
</event>
<event>
 6    1  0.9687246E-012  0.3000000E+03  0.7818608E-02  0.1093470E+00
          1   -1    0    0  502    0  0.00000000000E+00  0.00000000000E+00  0.22821051770E+03  0.22821051770E+03  0.00000000000E+00 0.  1.
         13   -1    0    0    0    0 -0.00000000000E+00 -0.00000000000E+00 -0.27500000000E+03  0.27500000000E+03  0.00000000000E+00 0.  1.
    9000005    2    1    2  501    0 -0.27229421716E+02  0.20209556205E+02 -0.56895136178E+02  0.46782702142E+03  0.46311467033E+03 0.  0.
         13    1    3    3    0    0 -0.16751998970E+02 -0.17190232880E+03 -0.17189700643E+03  0.24367934039E+03  0.00000000000E+00 0.  1.
          3    1    3    3  501    0 -0.10477422747E+02  0.19211188500E+03  0.11500187025E+03  0.22414768102E+03  0.00000000000E+00 0.  1.
         21    1    1    2  502  501  0.27229421716E+02 -0.20209556205E+02  0.10105653880E+02  0.35383496285E+02  0.00000000000E+00 0. -1.
<scales pt_clust_4="550.00000" pt_clust_5="550.00000" pt_clust_6="33.90970"></scales>
<mgrwt>
<rscale>  0 0.30000000E+03</rscale>
<asrwt>  1 0.33909697E+02</asrwt>
<pdfrwt beam="1">  1        1 0.82985643E+00 0.30000000E+03</pdfrwt>
<pdfrwt beam="2">0</pdfrwt>
<totfact> 0.59615757E-04</totfact>
</mgrwt>
<clustering>
<clus scale="   33.910">  1  6  2 -1</clus>
<clus scale="  463.115">  4  5 -1 -1</clus>
<clus scale="  300.000">  1  4  2 -1</clus>
</clustering>
</event>
<event>
 6    1  0.9687246E-012  0.3000000E+03  0.7818608E-02  0.1093470E+00
          1   -1    0    0  502    0  0.00000000000E+00  0.00000000000E+00  0.23100816092E+03  0.23100816092E+03  0.00000000000E+00 0.  1.
         13   -1    0    0    0    0 -0.00000000000E+00 -0.00000000000E+00 -0.27500000000E+03  0.27500000000E+03  0.00000000000E+00 0.  1.
    9000005    2    1    2  501    0 -0.51388523689E+01  0.33837355986E+02 -0.51226932225E+02  0.47102643660E+03  0.46698001127E+03 0.  0.
         13    1    3    3    0    0  0.21081192235E+03 -0.78312823127E+02 -0.23173217135E+02  0.22607866521E+03  0.00000000000E+00 0.  1.
          1    1    3    3  501    0 -0.21595077472E+03  0.11215017911E+03 -0.28053715091E+02  0.24494777139E+03  0.00000000000E+00 0.  1.
         21    1    1    2  502  501  0.51388523689E+01 -0.33837355986E+02  0.72350931457E+01  0.34981724323E+02  0.00000000000E+00 0.  1.
<scales pt_clust_4="550.00000" pt_clust_5="550.00000" pt_clust_6="34.22535"></scales>
<mgrwt>
<rscale>  0 0.30000000E+03</rscale>
<asrwt>  1 0.34225348E+02</asrwt>
<pdfrwt beam="1">  1        1 0.84002968E+00 0.30000000E+03</pdfrwt>
<pdfrwt beam="2">0</pdfrwt>
<totfact> 0.49887036E-04</totfact>
</mgrwt>
<clustering>
<clus scale="   34.225">  1  6  2 -1</clus>
<clus scale="  466.980">  4  5 -1 -1</clus>
<clus scale="  300.000">  1  4  2 -1</clus>
</clustering>
</event>
<event>
 6    1  0.9687246E-012  0.3000000E+03  0.7818608E-02  0.1093470E+00
          1   -1    0    0  502    0  0.00000000000E+00  0.00000000000E+00  0.22381232416E+03  0.22381232416E+03  0.00000000000E+00 0.  1.
         13   -1    0    0    0    0 -0.00000000000E+00 -0.00000000000E+00 -0.27500000000E+03  0.27500000000E+03  0.00000000000E+00 0.  1.
    9000005    2    1    2  501    0 -0.21962398224E+02  0.25026901718E+02 -0.49888589714E+02  0.46548995375E+03  0.46160950262E+03 0.  0.
         13    1    3    3    0    0  0.21349463621E+03  0.32183927676E+02  0.27241078232E+02  0.21761856822E+03  0.00000000000E+00 0.  1.
          3    1    3    3  501    0 -0.23545703444E+03 -0.71570259583E+01 -0.77129667946E+02  0.24787138553E+03  0.00000000000E+00 0.  1.
         21    1    1    2  502  501  0.21962398224E+02 -0.25026901718E+02 -0.12990861211E+01  0.33322370415E+02  0.00000000000E+00 0. -1.
<scales pt_clust_4="550.00000" pt_clust_5="550.00000" pt_clust_6="33.29704"></scales>
<mgrwt>
<rscale>  0 0.30000000E+03</rscale>
<asrwt>  1 0.33297038E+02</asrwt>
<pdfrwt beam="1">  1        1 0.81386300E+00 0.30000000E+03</pdfrwt>
<pdfrwt beam="2">0</pdfrwt>
<totfact> 0.82064076E-04</totfact>
</mgrwt>
<clustering>
<clus scale="   33.297">  1  6  2 -1</clus>
<clus scale="  461.610">  4  5 -1 -1</clus>
<clus scale="  300.000">  1  4  2 -1</clus>
</clustering>
</event>
<event>
 6    1  0.9687246E-012  0.3000000E+03  0.7818608E-02  0.1093470E+00
          1   -1    0    0  502    0  0.00000000000E+00  0.00000000000E+00  0.23999920039E+03  0.23999920039E+03  0.00000000000E+00 0.  1.
         13   -1    0    0    0    0 -0.00000000000E+00 -0.00000000000E+00 -0.27500000000E+03  0.27500000000E+03  0.00000000000E+00 0.  1.
    9000005    2    1    2  501    0  0.29337960353E+02 -0.16448723964E+02 -0.40818718767E+02  0.48086527853E+03  0.47794766644E+03 0.  0.
         13    1    3    3    0    0 -0.21349279670E+03 -0.65330549347E+02  0.24748427795E+02  0.22463245446E+03  0.00000000000E+00 0.  1.
          1    1    3    3  501    0  0.24283075705E+03  0.48881825383E+02 -0.65567146562E+02  0.25623282407E+03  0.00000000000E+00 0.  1.
         21    1    1    2  502  501 -0.29337960353E+02  0.16448723964E+02  0.58179191523E+01  0.34133921851E+02  0.00000000000E+00 0. -1.
<scales pt_clust_4="550.00000" pt_clust_5="550.00000" pt_clust_6="33.63445"></scales>
<mgrwt>
<rscale>  0 0.30000000E+03</rscale>
<asrwt>  1 0.33634453E+02</asrwt>
<pdfrwt beam="1">  1        1 0.87272437E+00 0.30000000E+03</pdfrwt>
<pdfrwt beam="2">0</pdfrwt>
<totfact> 0.23930584E-04</totfact>
</mgrwt>
<clustering>
<clus scale="   33.634">  1  6  2 -1</clus>
<clus scale="  477.948">  4  5 -1 -1</clus>
<clus scale="  300.000">  1  4  2 -1</clus>
</clustering>
</event>
<event>
 6    1  0.9687246E-012  0.3000000E+03  0.7818608E-02  0.1093470E+00
          1   -1    0    0  502    0  0.00000000000E+00  0.00000000000E+00  0.22021420675E+03  0.22021420675E+03  0.00000000000E+00 0.  1.
         13   -1    0    0    0    0 -0.00000000000E+00 -0.00000000000E+00 -0.27500000000E+03  0.27500000000E+03  0.00000000000E+00 0.  1.
    9000005    2    1    2  501    0 -0.25182394586E+02  0.20296447459E+02 -0.47256728299E+02  0.46200599096E+03  0.45844327734E+03 0.  0.
         13    1    3    3    0    0 -0.35346926283E+02 -0.28645105149E+02  0.20237131205E+03  0.20742250406E+03  0.00000000000E+00 0.  1.
          1    1    3    3  501    0  0.10164531696E+02  0.48941552608E+02 -0.24962804035E+03  0.25458348691E+03  0.00000000000E+00 0.  1.
         21    1    1    2  502  501  0.25182394586E+02 -0.20296447459E+02 -0.75290649526E+01  0.33208215785E+02  0.00000000000E+00 0.  1.
<scales pt_clust_4="550.00000" pt_clust_5="550.00000" pt_clust_6="32.34347"></scales>
<mgrwt>
<rscale>  0 0.30000000E+03</rscale>
<asrwt>  1 0.32343466E+02</asrwt>
<pdfrwt beam="1">  1        1 0.80077893E+00 0.30000000E+03</pdfrwt>
<pdfrwt beam="2">0</pdfrwt>
<totfact> 0.10389916E-03</totfact>
</mgrwt>
<clustering>
<clus scale="   32.343">  1  6  2 -1</clus>
<clus scale="  458.443">  4  5 -1 -1</clus>
<clus scale="  300.000">  1  4  2 -1</clus>
</clustering>
</event>
<event>
 6    1  0.9687246E-012  0.3000000E+03  0.7818608E-02  0.1093470E+00
          1   -1    0    0  502    0  0.00000000000E+00  0.00000000000E+00  0.22771930738E+03  0.22771930738E+03  0.00000000000E+00 0.  1.
         13   -1    0    0    0    0 -0.00000000000E+00 -0.00000000000E+00 -0.27500000000E+03  0.27500000000E+03  0.00000000000E+00 0.  1.
    9000005    2    1    2  501    0  0.17910172676E+01  0.31188014999E+02 -0.66798892971E+02  0.46588372448E+03  0.46001049185E+03 0.  0.
         13    1    3    3    0    0 -0.95787218712E+02 -0.74810955413E+02 -0.22263654749E+03  0.25365114350E+03  0.00000000000E+00 0.  1.
          1    1    3    3  501    0  0.97578235979E+02  0.10599897041E+03  0.15583765452E+03  0.21223258099E+03  0.00000000000E+00 0.  1.
         21    1    1    2  502  501 -0.17910172676E+01 -0.31188014999E+02  0.19518200354E+02  0.36835582898E+02  0.00000000000E+00 0. -1.
<scales pt_clust_4="550.00000" pt_clust_5="550.00000" pt_clust_6="31.23940"></scales>
<mgrwt>
<rscale>  0 0.30000000E+03</rscale>
<asrwt>  1 0.31239399E+02</asrwt>
<pdfrwt beam="1">  1        1 0.82807021E+00 0.30000000E+03</pdfrwt>
<pdfrwt beam="2">0</pdfrwt>
<totfact> 0.62701440E-04</totfact>
</mgrwt>
<clustering>
<clus scale="   31.239">  1  6  2 -1</clus>
<clus scale="  460.010">  4  5 -1 -1</clus>
<clus scale="  300.000">  1  4  2 -1</clus>
</clustering>
</event>
<event>
 6    1  0.9687246E-012  0.3000000E+03  0.7818608E-02  0.1093470E+00
          1   -1    0    0  502    0  0.00000000000E+00  0.00000000000E+00  0.23268814382E+03  0.23268814382E+03  0.00000000000E+00 0.  1.
         13   -1    0    0    0    0 -0.00000000000E+00 -0.00000000000E+00 -0.27500000000E+03  0.27500000000E+03  0.00000000000E+00 0.  1.
    9000005    2    1    2  501    0 -0.26454846954E+02 -0.14517918117E+02 -0.38821073937E+02  0.47731028289E+03  0.47477089369E+03 0.  0.
         13    1    3    3    0    0  0.73732418965E+00  0.77117177626E+02  0.20306861959E+03  0.21721985866E+03  0.00000000000E+00 0.  1.
          1    1    3    3  501    0 -0.27192171144E+02 -0.91635095743E+02 -0.24188969353E+03  0.26009042423E+03  0.00000000000E+00 0.  1.
         21    1    1    2  502  501  0.26454846954E+02  0.14517918117E+02 -0.34907822450E+01  0.30377860927E+02  0.00000000000E+00 0.  1.
<scales pt_clust_4="550.00000" pt_clust_5="550.00000" pt_clust_6="30.17664"></scales>
<mgrwt>
<rscale>  0 0.30000000E+03</rscale>
<asrwt>  1 0.30176643E+02</asrwt>
<pdfrwt beam="1">  1        1 0.84613870E+00 0.30000000E+03</pdfrwt>
<pdfrwt beam="2">0</pdfrwt>
<totfact> 0.45408746E-04</totfact>
</mgrwt>
<clustering>
<clus scale="   30.177">  1  6  2 -1</clus>
<clus scale="  474.771">  4  5 -1 -1</clus>
<clus scale="  300.000">  1  4  2 -1</clus>
</clustering>
</event>
<event>
 6    1  0.9687246E-012  0.3000000E+03  0.7818608E-02  0.1093470E+00
          1   -1    0    0  502    0  0.00000000000E+00  0.00000000000E+00  0.21976874451E+03  0.21976874451E+03  0.00000000000E+00 0.  1.
         13   -1    0    0    0    0 -0.00000000000E+00 -0.00000000000E+00 -0.27500000000E+03  0.27500000000E+03  0.00000000000E+00 0.  1.
    9000005    2    1    2  501    0  0.10260076273E+02  0.29117822965E+02 -0.65880214516E+02  0.46211117100E+03  0.45634790995E+03 0.  0.
         13    1    3    3    0    0  0.12612271956E+03 -0.11411979604E+03  0.11389484852E+03  0.20470052456E+03  0.00000000000E+00 0.  1.
          1    1    3    3  501    0 -0.11586264328E+03  0.14323761900E+03 -0.17977506304E+03  0.25741064643E+03  0.00000000000E+00 0.  1.
         21    1    1    2  502  501 -0.10260076273E+02 -0.29117822965E+02  0.10648959024E+02  0.32657573511E+02  0.00000000000E+00 0. -1.
<scales pt_clust_4="550.00000" pt_clust_5="550.00000" pt_clust_6="30.87259"></scales>
<mgrwt>
<rscale>  0 0.30000000E+03</rscale>
<asrwt>  1 0.30872589E+02</asrwt>
<pdfrwt beam="1">  1        1 0.79915907E+00 0.30000000E+03</pdfrwt>
<pdfrwt beam="2">0</pdfrwt>
<totfact> 0.10769223E-03</totfact>
</mgrwt>
<clustering>
<clus scale="   30.873">  1  6  2 -1</clus>
<clus scale="  456.348">  4  5 -1 -1</clus>
<clus scale="  300.000">  1  4  2 -1</clus>
</clustering>
</event>
<event>
 6    1  0.9687246E-012  0.3000000E+03  0.7818608E-02  0.1093470E+00
          1   -1    0    0  502    0  0.00000000000E+00  0.00000000000E+00  0.24356188513E+03  0.24356188513E+03  0.00000000000E+00 0.  1.
         13   -1    0    0    0    0 -0.00000000000E+00 -0.00000000000E+00 -0.27500000000E+03  0.27500000000E+03  0.00000000000E+00 0.  1.
    9000005    2    1    2  501    0  0.29571662016E+02  0.13884179022E+02 -0.65367975841E+02  0.47146104557E+03  0.46576312822E+03 0.  0.
         13    1    3    3    0    0 -0.17979816104E+03 -0.43822719630E+02 -0.15015962316E+03  0.23831853033E+03  0.00000000000E+00 0.  1.
          1    1    3    3  501    0  0.20936982306E+03  0.57706898652E+02  0.84791647318E+02  0.23314251525E+03  0.00000000000E+00 0.  1.
         21    1    1    2  502  501 -0.29571662016E+02 -0.13884179022E+02  0.33929860974E+02  0.47100839559E+02  0.00000000000E+00 0.  1.
<scales pt_clust_4="550.00000" pt_clust_5="550.00000" pt_clust_6="32.66885"></scales>
<mgrwt>
<rscale>  0 0.30000000E+03</rscale>
<asrwt>  1 0.32668848E+02</asrwt>
<pdfrwt beam="1">  1        1 0.88567958E+00 0.30000000E+03</pdfrwt>
<pdfrwt beam="2">0</pdfrwt>
<totfact> 0.16826743E-04</totfact>
</mgrwt>
<clustering>
<clus scale="   32.669">  1  6  2 -1</clus>
<clus scale="  465.763">  4  5 -1 -1</clus>
<clus scale="  300.000">  1  4  2 -1</clus>
</clustering>
</event>
<event>
 6    1  0.9687246E-012  0.3000000E+03  0.7818608E-02  0.1093470E+00
          1   -1    0    0  502    0  0.00000000000E+00  0.00000000000E+00  0.23075961322E+03  0.23075961322E+03  0.00000000000E+00 0.  1.
         13   -1    0    0    0    0 -0.00000000000E+00 -0.00000000000E+00 -0.27500000000E+03  0.27500000000E+03  0.00000000000E+00 0.  1.
    9000005    2    1    2  501    0  0.12412883174E+02 -0.31985221928E+02 -0.43466812992E+02  0.47144150566E+03  0.46817795264E+03 0.  0.
         13    1    3    3    0    0  0.12785586838E+03 -0.34399109368E+02  0.17790376666E+03  0.22176602985E+03  0.00000000000E+00 0.  1.
          3    1    3    3  501    0 -0.11544298520E+03  0.24138874402E+01 -0.22137057965E+03  0.24967547581E+03  0.00000000000E+00 0.  1.
         21    1    1    2  502  501 -0.12412883174E+02  0.31985221928E+02 -0.77357378443E+00  0.34318107565E+02  0.00000000000E+00 0. -1.
<scales pt_clust_4="550.00000" pt_clust_5="550.00000" pt_clust_6="34.30939"></scales>
<mgrwt>
<rscale>  0 0.30000000E+03</rscale>
<asrwt>  1 0.34309388E+02</asrwt>
<pdfrwt beam="1">  1        1 0.83912587E+00 0.30000000E+03</pdfrwt>
<pdfrwt beam="2">0</pdfrwt>
<totfact> 0.50657118E-04</totfact>
</mgrwt>
<clustering>
<clus scale="   34.309">  1  6  2 -1</clus>
<clus scale="  468.178">  4  5 -1 -1</clus>
<clus scale="  300.000">  1  4  2 -1</clus>
</clustering>
</event>
<event>
 6    1  0.9687246E-012  0.3000000E+03  0.7818608E-02  0.1093470E+00
          1   -1    0    0  502    0  0.00000000000E+00  0.00000000000E+00  0.25090707824E+03  0.25090707824E+03  0.00000000000E+00 0.  1.
         13   -1    0    0    0    0 -0.00000000000E+00 -0.00000000000E+00 -0.27500000000E+03  0.27500000000E+03  0.00000000000E+00 0.  1.
    9000005    2    1    2  501    0  0.37031420476E+02  0.21440770855E+02 -0.89556650632E+00  0.47723316277E+03  0.47531006390E+03 0.  0.
         13    1    3    3    0    0 -0.21154589663E+02 -0.22398398698E+03 -0.27934268728E+01  0.22499810293E+03  0.00000000000E+00 0.  1.
          1    1    3    3  501    0  0.58186010138E+02  0.24542475784E+03  0.18978603665E+01  0.25223505984E+03  0.00000000000E+00 0.  1.
         21    1    1    2  502  501 -0.37031420476E+02 -0.21440770855E+02 -0.23197355249E+02  0.48673915477E+02  0.00000000000E+00 0.  1.
<scales pt_clust_4="550.00000" pt_clust_5="550.00000" pt_clust_6="42.79059"></scales>
<mgrwt>
<rscale>  0 0.30000000E+03</rscale>
<asrwt>  1 0.42790590E+02</asrwt>
<pdfrwt beam="1">  1        1 0.91238938E+00 0.30000000E+03</pdfrwt>
<pdfrwt beam="2">0</pdfrwt>
<totfact> 0.60413857E-05</totfact>
</mgrwt>
<clustering>
<clus scale="   42.791">  1  6  2 -1</clus>
<clus scale="  475.310">  4  5 -1 -1</clus>
<clus scale="  300.000">  1  4  2 -1</clus>
</clustering>
</event>
<event>
 6    1  0.9687246E-012  0.3000000E+03  0.7818608E-02  0.1093470E+00
          1   -1    0    0  502    0  0.00000000000E+00  0.00000000000E+00  0.23001748914E+03  0.23001748914E+03  0.00000000000E+00 0.  1.
         13   -1    0    0    0    0 -0.00000000000E+00 -0.00000000000E+00 -0.27500000000E+03  0.27500000000E+03  0.00000000000E+00 0.  1.
    9000005    2    1    2  501    0  0.37459321608E+02  0.16636628264E+02 -0.46455870511E+02  0.46400347978E+03  0.45984900040E+03 0.  0.
         13    1    3    3    0    0  0.24085251758E+03  0.69793895678E+02 -0.37859302121E+02  0.25360293740E+03  0.00000000000E+00 0.  1.
          3    1    3    3  501    0 -0.20339319597E+03 -0.53157267414E+02 -0.85965683899E+01  0.21040054238E+03  0.00000000000E+00 0.  1.
         21    1    1    2  502  501 -0.37459321608E+02 -0.16636628264E+02  0.14733596530E+01  0.41014009362E+02  0.00000000000E+00 0.  1.
<scales pt_clust_4="550.00000" pt_clust_5="550.00000" pt_clust_6="40.98754"></scales>
<mgrwt>
<rscale>  0 0.30000000E+03</rscale>
<asrwt>  1 0.40987537E+02</asrwt>
<pdfrwt beam="1">  1        1 0.83642723E+00 0.30000000E+03</pdfrwt>
<pdfrwt beam="2">0</pdfrwt>
<totfact> 0.51306772E-04</totfact>
</mgrwt>
<clustering>
<clus scale="   40.988">  1  6  2 -1</clus>
<clus scale="  459.849">  4  5 -1 -1</clus>
<clus scale="  300.000">  1  4  2 -1</clus>
</clustering>
</event>
<event>
 6    1  0.9687246E-012  0.3000000E+03  0.7818608E-02  0.1093470E+00
          1   -1    0    0  502    0  0.00000000000E+00  0.00000000000E+00  0.24840013215E+03  0.24840013215E+03  0.00000000000E+00 0.  1.
         13   -1    0    0    0    0 -0.00000000000E+00 -0.00000000000E+00 -0.27500000000E+03  0.27500000000E+03  0.00000000000E+00 0.  1.
    9000005    2    1    2  501    0 -0.20549191243E+02 -0.42052705712E+02 -0.46622571627E+02  0.47249229400E+03  0.46785104936E+03 0.  0.
         13    1    3    3    0    0 -0.23577415234E+03  0.40929024184E+02 -0.16545471623E+02  0.23987160850E+03  0.00000000000E+00 0.  1.
          1    1    3    3  501    0  0.21522496110E+03 -0.82981729896E+02 -0.30077100004E+02  0.23262068550E+03  0.00000000000E+00 0.  1.
         21    1    1    2  502  501  0.20549191243E+02  0.42052705712E+02  0.20022703781E+02  0.50907838151E+02  0.00000000000E+00 0.  1.
<scales pt_clust_4="550.00000" pt_clust_5="550.00000" pt_clust_6="46.80491"></scales>
<mgrwt>
<rscale>  0 0.30000000E+03</rscale>
<asrwt>  1 0.46804907E+02</asrwt>
<pdfrwt beam="1">  1        1 0.90327321E+00 0.30000000E+03</pdfrwt>
<pdfrwt beam="2">0</pdfrwt>
<totfact> 0.94082099E-05</totfact>
</mgrwt>
<clustering>
<clus scale="   46.805">  1  6  2 -1</clus>
<clus scale="  467.851">  4  5 -1 -1</clus>
<clus scale="  300.000">  1  4  2 -1</clus>
</clustering>
</event>
<event>
 6    1  0.9687246E-012  0.3000000E+03  0.7818608E-02  0.1093470E+00
          1   -1    0    0  502    0  0.00000000000E+00  0.00000000000E+00  0.22342419436E+03  0.22342419436E+03  0.00000000000E+00 0.  1.
         13   -1    0    0    0    0 -0.00000000000E+00 -0.00000000000E+00 -0.27500000000E+03  0.27500000000E+03  0.00000000000E+00 0.  1.
    9000005    2    1    2  501    0 -0.79045192413E+01 -0.29923932359E+02 -0.67719288903E+02  0.46351667076E+03  0.45749740855E+03 0.  0.
         13    1    3    3    0    0  0.14690005643E+03  0.14046241167E+03 -0.10745481916E+03  0.22990401004E+03  0.00000000000E+00 0.  1.
          1    1    3    3  501    0 -0.15480457568E+03 -0.17038634403E+03  0.39735530253E+02  0.23361266072E+03  0.00000000000E+00 0.  1.
         21    1    1    2  502  501  0.79045192413E+01  0.29923932359E+02  0.16143483268E+02  0.34907523606E+02  0.00000000000E+00 0.  1.
<scales pt_clust_4="550.00000" pt_clust_5="550.00000" pt_clust_6="30.95033"></scales>
<mgrwt>
<rscale>  0 0.30000000E+03</rscale>
<asrwt>  1 0.30950334E+02</asrwt>
<pdfrwt beam="1">  1        1 0.81245162E+00 0.30000000E+03</pdfrwt>
<pdfrwt beam="2">0</pdfrwt>
<totfact> 0.85394063E-04</totfact>
</mgrwt>
<clustering>
<clus scale="   30.950">  1  6  2 -1</clus>
<clus scale="  457.497">  4  5 -1 -1</clus>
<clus scale="  300.000">  1  4  2 -1</clus>
</clustering>
</event>
<event>
 6    1  0.9687246E-012  0.3000000E+03  0.7818608E-02  0.1093470E+00
          1   -1    0    0  502    0  0.00000000000E+00  0.00000000000E+00  0.23478765111E+03  0.23478765111E+03  0.00000000000E+00 0.  1.
         13   -1    0    0    0    0 -0.00000000000E+00 -0.00000000000E+00 -0.27500000000E+03  0.27500000000E+03  0.00000000000E+00 0.  1.
    9000005    2    1    2  501    0 -0.28496666211E+02  0.10621326843E+02 -0.40189704594E+02  0.47937592505E+03  0.47671919679E+03 0.  0.
         13    1    3    3    0    0 -0.16263225854E+03  0.12943227597E+03 -0.16130153711E+03  0.26309722814E+03  0.00000000000E+00 0.  1.
          1    1    3    3  501    0  0.13413559233E+03 -0.11881094913E+03  0.12111183251E+03  0.21627869691E+03  0.00000000000E+00 0.  1.
         21    1    1    2  502  501  0.28496666211E+02 -0.10621326843E+02 -0.22644298706E-01  0.30411726058E+02  0.00000000000E+00 0.  1.
<scales pt_clust_4="550.00000" pt_clust_5="550.00000" pt_clust_6="30.41172"></scales>
<mgrwt>
<rscale>  0 0.30000000E+03</rscale>
<asrwt>  1 0.30411718E+02</asrwt>
<pdfrwt beam="1">  1        1 0.85377328E+00 0.30000000E+03</pdfrwt>
<pdfrwt beam="2">0</pdfrwt>
<totfact> 0.38466604E-04</totfact>
</mgrwt>
<clustering>
<clus scale="   30.412">  1  6  2 -1</clus>
<clus scale="  476.719">  4  5 -1 -1</clus>
<clus scale="  300.000">  1  4  2 -1</clus>
</clustering>
</event>
<event>
 6    1  0.9687246E-012  0.3000000E+03  0.7818608E-02  0.1093470E+00
          1   -1    0    0  502    0  0.00000000000E+00  0.00000000000E+00  0.22719984269E+03  0.22719984269E+03  0.00000000000E+00 0.  1.
         13   -1    0    0    0    0 -0.00000000000E+00 -0.00000000000E+00 -0.27500000000E+03  0.27500000000E+03  0.00000000000E+00 0.  1.
    9000005    2    1    2  501    0 -0.87994688016E+01  0.33835303651E+02 -0.47239889406E+02  0.46723454097E+03  0.46352373261E+03 0.  0.
         13    1    3    3    0    0 -0.44149208252E+02 -0.17054747171E+03 -0.15396753128E+03  0.23396921461E+03  0.00000000000E+00 0.  1.
          3    1    3    3  501    0  0.35349739450E+02  0.20438277536E+03  0.10672764188E+03  0.23326532636E+03  0.00000000000E+00 0.  1.
         21    1    1    2  502  501  0.87994688016E+01 -0.33835303651E+02 -0.56026790496E+00  0.34965301722E+02  0.00000000000E+00 0.  1.
<scales pt_clust_4="550.00000" pt_clust_5="550.00000" pt_clust_6="34.96081"></scales>
<mgrwt>
<rscale>  0 0.30000000E+03</rscale>
<asrwt>  1 0.34960813E+02</asrwt>
<pdfrwt beam="1">  1        1 0.82618125E+00 0.30000000E+03</pdfrwt>
<pdfrwt beam="2">0</pdfrwt>
<totfact> 0.63768416E-04</totfact>
</mgrwt>
<clustering>
<clus scale="   34.961">  1  6  2 -1</clus>
<clus scale="  463.524">  4  5 -1 -1</clus>
<clus scale="  300.000">  1  4  2 -1</clus>
</clustering>
</event>
<event>
 6    1  0.9687246E-012  0.3000000E+03  0.7818608E-02  0.1093470E+00
          1   -1    0    0  502    0  0.00000000000E+00  0.00000000000E+00  0.22522982265E+03  0.22522982265E+03  0.00000000000E+00 0.  1.
         13   -1    0    0    0    0 -0.00000000000E+00 -0.00000000000E+00 -0.27500000000E+03  0.27500000000E+03  0.00000000000E+00 0.  1.
    9000005    2    1    2  501    0  0.26211144927E+02 -0.16992073977E+02 -0.49769452506E+02  0.46899275017E+03  0.46529715947E+03 0.  0.
         13    1    3    3    0    0 -0.20733067123E+03 -0.81543495789E+02 -0.41029482129E+02  0.22653645919E+03  0.00000000000E+00 0.  1.
          1    1    3    3  501    0  0.23354181616E+03  0.64551421812E+02 -0.87399703764E+01  0.24245629098E+03  0.00000000000E+00 0.  1.
         21    1    1    2  502  501 -0.26211144927E+02  0.16992073977E+02 -0.72484804426E-03  0.31237072477E+02  0.00000000000E+00 0. -1.
<scales pt_clust_4="550.00000" pt_clust_5="550.00000" pt_clust_6="31.23707"></scales>
<mgrwt>
<rscale>  0 0.30000000E+03</rscale>
<asrwt>  1 0.31237072E+02</asrwt>
<pdfrwt beam="1">  1        1 0.81901754E+00 0.30000000E+03</pdfrwt>
<pdfrwt beam="2">0</pdfrwt>
<totfact> 0.75351542E-04</totfact>
</mgrwt>
<clustering>
<clus scale="   31.237">  1  6  2 -1</clus>
<clus scale="  465.297">  4  5 -1 -1</clus>
<clus scale="  300.000">  1  4  2 -1</clus>
</clustering>
</event>
<event>
 6    1  0.9687246E-012  0.3000000E+03  0.7818608E-02  0.1093470E+00
          1   -1    0    0  502    0  0.00000000000E+00  0.00000000000E+00  0.24380700401E+03  0.24380700401E+03  0.00000000000E+00 0.  1.
         13   -1    0    0    0    0 -0.00000000000E+00 -0.00000000000E+00 -0.27500000000E+03  0.27500000000E+03  0.00000000000E+00 0.  1.
    9000005    2    1    2  501    0 -0.35562282452E+02  0.23137965070E+02 -0.51891282181E+02  0.47160043231E+03  0.46681283319E+03 0.  0.
         13    1    3    3    0    0  0.87010007961E+02  0.21293228621E+03 -0.80849998581E+02  0.24381883083E+03  0.00000000000E+00 0.  1.
          3    1    3    3  501    0 -0.12257229041E+03 -0.18979432114E+03  0.28958716400E+02  0.22778160148E+03  0.00000000000E+00 0.  1.
         21    1    1    2  502  501  0.35562282452E+02 -0.23137965070E+02  0.20698286196E+02  0.47206571705E+02  0.00000000000E+00 0. -1.
<scales pt_clust_4="550.00000" pt_clust_5="550.00000" pt_clust_6="42.42689"></scales>
<mgrwt>
<rscale>  0 0.30000000E+03</rscale>
<asrwt>  1 0.42426894E+02</asrwt>
<pdfrwt beam="1">  1        1 0.88657092E+00 0.30000000E+03</pdfrwt>
<pdfrwt beam="2">0</pdfrwt>
<totfact> 0.15585111E-04</totfact>
</mgrwt>
<clustering>
<clus scale="   42.427">  1  6  2 -1</clus>
<clus scale="  466.813">  4  5 -1 -1</clus>
<clus scale="  300.000">  1  4  2 -1</clus>
</clustering>
</event>
<event>
 6    1  0.9687246E-012  0.3000000E+03  0.7818608E-02  0.1093470E+00
          1   -1    0    0  502    0  0.00000000000E+00  0.00000000000E+00  0.25162186003E+03  0.25162186003E+03  0.00000000000E+00 0.  1.
         13   -1    0    0    0    0 -0.00000000000E+00 -0.00000000000E+00 -0.27500000000E+03  0.27500000000E+03  0.00000000000E+00 0.  1.
    9000005    2    1    2  501    0 -0.29533814138E+02 -0.14891901770E+02 -0.53220436690E+02  0.48207326197E+03  0.47798347263E+03 0.  0.
         13    1    3    3    0    0  0.39846029163E+02  0.17885181695E+03 -0.16613563730E+03  0.24733929823E+03  0.00000000000E+00 0.  1.
          1    1    3    3  501    0 -0.69379843300E+02 -0.19374371872E+03  0.11291520061E+03  0.23473396373E+03  0.00000000000E+00 0.  1.
         21    1    1    2  502  501  0.29533814138E+02  0.14891901770E+02  0.29842296717E+02  0.44548598061E+02  0.00000000000E+00 0.  1.
<scales pt_clust_4="550.00000" pt_clust_5="550.00000" pt_clust_6="33.07590"></scales>
<mgrwt>
<rscale>  0 0.30000000E+03</rscale>
<asrwt>  1 0.33075896E+02</asrwt>
<pdfrwt beam="1">  1        1 0.91498858E+00 0.30000000E+03</pdfrwt>
<pdfrwt beam="2">0</pdfrwt>
<totfact> 0.54758462E-05</totfact>
</mgrwt>
<clustering>
<clus scale="   33.076">  1  6  2 -1</clus>
<clus scale="  477.983">  4  5 -1 -1</clus>
<clus scale="  300.000">  1  4  2 -1</clus>
</clustering>
</event>
<event>
 6    1  0.9687246E-012  0.3000000E+03  0.7818608E-02  0.1093470E+00
          1   -1    0    0  502    0  0.00000000000E+00  0.00000000000E+00  0.23887931983E+03  0.23887931983E+03  0.00000000000E+00 0.  1.
         13   -1    0    0    0    0 -0.00000000000E+00 -0.00000000000E+00 -0.27500000000E+03  0.27500000000E+03  0.00000000000E+00 0.  1.
    9000005    2    1    2  501    0  0.28733749528E+02 -0.25484552108E+02 -0.64258695153E+02  0.46626799087E+03  0.46021904421E+03 0.  0.
         13    1    3    3    0    0  0.17558668547E+03  0.14368059453E+03  0.18080974681E+02  0.22759990993E+03  0.00000000000E+00 0.  1.
          1    1    3    3  501    0 -0.14685293594E+03 -0.16916514663E+03 -0.82339669834E+02  0.23866808094E+03  0.00000000000E+00 0.  1.
         21    1    1    2  502  501 -0.28733749528E+02  0.25484552108E+02  0.28138014984E+02  0.47611328960E+02  0.00000000000E+00 0.  1.
<scales pt_clust_4="550.00000" pt_clust_5="550.00000" pt_clust_6="38.40691"></scales>
<mgrwt>
<rscale>  0 0.30000000E+03</rscale>
<asrwt>  1 0.38406910E+02</asrwt>
<pdfrwt beam="1">  1        1 0.86865207E+00 0.30000000E+03</pdfrwt>
<pdfrwt beam="2">0</pdfrwt>
<totfact> 0.25698648E-04</totfact>
</mgrwt>
<clustering>
<clus scale="   38.407">  1  6  2 -1</clus>
<clus scale="  460.219">  4  5 -1 -1</clus>
<clus scale="  300.000">  1  4  2 -1</clus>
</clustering>
</event>
<event>
 6    1  0.9687246E-012  0.3000000E+03  0.7818608E-02  0.1093470E+00
          1   -1    0    0  502    0  0.00000000000E+00  0.00000000000E+00  0.22894769231E+03  0.22894769231E+03  0.00000000000E+00 0.  1.
         13   -1    0    0    0    0 -0.00000000000E+00 -0.00000000000E+00 -0.27500000000E+03  0.27500000000E+03  0.00000000000E+00 0.  1.
    9000005    2    1    2  501    0 -0.21847740770E+02  0.22737759871E+02 -0.59732679579E+02  0.46957499856E+03  0.46469167925E+03 0.  0.
         13    1    3    3    0    0  0.17524518482E+03  0.14227859713E+03 -0.76787652208E+02  0.23843325594E+03  0.00000000000E+00 0.  1.
          3    1    3    3  501    0 -0.19709292559E+03 -0.11954083726E+03  0.17054972628E+02  0.23114174262E+03  0.00000000000E+00 0.  1.
         21    1    1    2  502  501  0.21847740770E+02 -0.22737759871E+02  0.13680371890E+02  0.34372693752E+02  0.00000000000E+00 0.  1.
<scales pt_clust_4="550.00000" pt_clust_5="550.00000" pt_clust_6="31.53299"></scales>
<mgrwt>
<rscale>  0 0.30000000E+03</rscale>
<asrwt>  1 0.31532991E+02</asrwt>
<pdfrwt beam="1">  1        1 0.83253706E+00 0.30000000E+03</pdfrwt>
<pdfrwt beam="2">0</pdfrwt>
<totfact> 0.57552673E-04</totfact>
</mgrwt>
<clustering>
<clus scale="   31.533">  1  6  2 -1</clus>
<clus scale="  464.692">  4  5 -1 -1</clus>
<clus scale="  300.000">  1  4  2 -1</clus>
</clustering>
</event>
<event>
 6    1  0.9687246E-012  0.3000000E+03  0.7818608E-02  0.1093470E+00
          1   -1    0    0  502    0  0.00000000000E+00  0.00000000000E+00  0.23236905029E+03  0.23236905029E+03  0.00000000000E+00 0.  1.
         13   -1    0    0    0    0 -0.00000000000E+00 -0.00000000000E+00 -0.27500000000E+03  0.27500000000E+03  0.00000000000E+00 0.  1.
    9000005    2    1    2  501    0  0.27200638592E+02  0.18163342856E+02 -0.53876974679E+02  0.47278213309E+03  0.46856209323E+03 0.  0.
         13    1    3    3    0    0  0.17373201165E+02  0.24246931675E+03 -0.57398607873E+01  0.24315868006E+03  0.00000000000E+00 0.  1.
          3    1    3    3  501    0  0.98274374265E+01 -0.22430597390E+03 -0.48137113892E+02  0.22962345304E+03  0.00000000000E+00 0.  1.
         21    1    1    2  502  501 -0.27200638592E+02 -0.18163342856E+02  0.11246024970E+02  0.34586917196E+02  0.00000000000E+00 0. -1.
<scales pt_clust_4="550.00000" pt_clust_5="550.00000" pt_clust_6="32.70752"></scales>
<mgrwt>
<rscale>  0 0.30000000E+03</rscale>
<asrwt>  1 0.32707518E+02</asrwt>
<pdfrwt beam="1">  1        1 0.84497836E+00 0.30000000E+03</pdfrwt>
<pdfrwt beam="2">0</pdfrwt>
<totfact> 0.45782084E-04</totfact>
</mgrwt>
<clustering>
<clus scale="   32.708">  1  6  2 -1</clus>
<clus scale="  468.562">  4  5 -1 -1</clus>
<clus scale="  300.000">  1  4  2 -1</clus>
</clustering>
</event>
<event>
 6    1  0.9687246E-012  0.3000000E+03  0.7818608E-02  0.1093470E+00
          1   -1    0    0  502    0  0.00000000000E+00  0.00000000000E+00  0.23348858995E+03  0.23348858995E+03  0.00000000000E+00 0.  1.
         13   -1    0    0    0    0 -0.00000000000E+00 -0.00000000000E+00 -0.27500000000E+03  0.27500000000E+03  0.00000000000E+00 0.  1.
    9000005    2    1    2  501    0 -0.98707444042E+01  0.28885345870E+02 -0.40529707921E+02  0.47794749403E+03  0.47524662547E+03 0.  0.
         13    1    3    3    0    0  0.31773399319E+02 -0.11045080034E+03 -0.21924304197E+03  0.24754078381E+03  0.00000000000E+00 0.  1.
          1    1    3    3  501    0 -0.41644143723E+02  0.13933614621E+03  0.17871333405E+03  0.23040671022E+03  0.00000000000E+00 0.  1.
         21    1    1    2  502  501  0.98707444042E+01 -0.28885345870E+02 -0.98170212765E+00  0.30541095923E+02  0.00000000000E+00 0. -1.
<scales pt_clust_4="550.00000" pt_clust_5="550.00000" pt_clust_6="30.52531"></scales>
<mgrwt>
<rscale>  0 0.30000000E+03</rscale>
<asrwt>  1 0.30525314E+02</asrwt>
<pdfrwt beam="1">  1        1 0.84904942E+00 0.30000000E+03</pdfrwt>
<pdfrwt beam="2">0</pdfrwt>
<totfact> 0.42628991E-04</totfact>
</mgrwt>
<clustering>
<clus scale="   30.525">  1  6  2 -1</clus>
<clus scale="  475.247">  4  5 -1 -1</clus>
<clus scale="  300.000">  1  4  2 -1</clus>
</clustering>
</event>
<event>
 6    1  0.9687246E-012  0.3000000E+03  0.7818608E-02  0.1093470E+00
          1   -1    0    0  502    0  0.00000000000E+00  0.00000000000E+00  0.21764239012E+03  0.21764239012E+03  0.00000000000E+00 0.  1.
         13   -1    0    0    0    0 -0.00000000000E+00 -0.00000000000E+00 -0.27500000000E+03  0.27500000000E+03  0.00000000000E+00 0.  1.
    9000005    2    1    2  501    0 -0.16205075566E+02 -0.27583099272E+02 -0.50690153267E+02  0.45996385256E+03  0.45604146981E+03 0.  0.
         13    1    3    3    0    0  0.10668708871E+03 -0.20674133069E+03 -0.66986022060E+02  0.24209758335E+03  0.00000000000E+00 0.  1.
          3    1    3    3  501    0 -0.12289216427E+03  0.17915823141E+03  0.16295868793E+02  0.21786626922E+03  0.00000000000E+00 0.  1.
         21    1    1    2  502  501  0.16205075566E+02  0.27583099272E+02 -0.66674566079E+01  0.32678537561E+02  0.00000000000E+00 0.  1.
<scales pt_clust_4="550.00000" pt_clust_5="550.00000" pt_clust_6="31.99114"></scales>
<mgrwt>
<rscale>  0 0.30000000E+03</rscale>
<asrwt>  1 0.31991137E+02</asrwt>
<pdfrwt beam="1">  1        1 0.79142687E+00 0.30000000E+03</pdfrwt>
<pdfrwt beam="2">0</pdfrwt>
<totfact> 0.12221318E-03</totfact>
</mgrwt>
<clustering>
<clus scale="   31.991">  1  6  2 -1</clus>
<clus scale="  456.041">  4  5 -1 -1</clus>
<clus scale="  300.000">  1  4  2 -1</clus>
</clustering>
</event>
<event>
 6    1  0.9687246E-012  0.3000000E+03  0.7818608E-02  0.1093470E+00
          1   -1    0    0  502    0  0.00000000000E+00  0.00000000000E+00  0.23693378067E+03  0.23693378067E+03  0.00000000000E+00 0.  1.
         13   -1    0    0    0    0 -0.00000000000E+00 -0.00000000000E+00 -0.27500000000E+03  0.27500000000E+03  0.00000000000E+00 0.  1.
    9000005    2    1    2  501    0  0.27092592312E+02  0.14982526497E+02 -0.67862841170E+02  0.46896491599E+03  0.46299486235E+03 0.  0.
         13    1    3    3    0    0 -0.40399152802E+02 -0.21397844268E+03  0.97104214317E+01  0.21797513107E+03  0.00000000000E+00 0.  1.
          1    1    3    3  501    0  0.67491745114E+02  0.22896096918E+03 -0.77573262602E+02  0.25098978493E+03  0.00000000000E+00 0.  1.
         21    1    1    2  502  501 -0.27092592312E+02 -0.14982526497E+02  0.29796621838E+02  0.42968864674E+02  0.00000000000E+00 0.  1.
<scales pt_clust_4="550.00000" pt_clust_5="550.00000" pt_clust_6="30.95940"></scales>
<mgrwt>
<rscale>  0 0.30000000E+03</rscale>
<asrwt>  1 0.30959403E+02</asrwt>
<pdfrwt beam="1">  1        1 0.86157738E+00 0.30000000E+03</pdfrwt>
<pdfrwt beam="2">0</pdfrwt>
<totfact> 0.31840241E-04</totfact>
</mgrwt>
<clustering>
<clus scale="   30.959">  1  6  2 -1</clus>
<clus scale="  462.995">  4  5 -1 -1</clus>
<clus scale="  300.000">  1  4  2 -1</clus>
</clustering>
</event>
<event>
 6    1  0.9687246E-012  0.3000000E+03  0.7818608E-02  0.1093470E+00
          1   -1    0    0  502    0  0.00000000000E+00  0.00000000000E+00  0.22913908929E+03  0.22913908929E+03  0.00000000000E+00 0.  1.
         13   -1    0    0    0    0 -0.00000000000E+00 -0.00000000000E+00 -0.27500000000E+03  0.27500000000E+03  0.00000000000E+00 0.  1.
    9000005    2    1    2  501    0 -0.29931396064E+02  0.11560518476E+02 -0.61527223186E+02  0.46843240358E+03  0.46326426958E+03 0.  0.
         13    1    3    3    0    0  0.47255712875E+02 -0.56279245919E+02 -0.24628727241E+03  0.25701726882E+03  0.00000000000E+00 0.  1.
          3    1    3    3  501    0 -0.77187108939E+02  0.67839764395E+02  0.18476004922E+03  0.21141513476E+03  0.00000000000E+00 0.  1.
         21    1    1    2  502  501  0.29931396064E+02 -0.11560518476E+02  0.15666312474E+02  0.35706685708E+02  0.00000000000E+00 0.  1.
<scales pt_clust_4="550.00000" pt_clust_5="550.00000" pt_clust_6="32.08635"></scales>
<mgrwt>
<rscale>  0 0.30000000E+03</rscale>
<asrwt>  1 0.32086353E+02</asrwt>
<pdfrwt beam="1">  1        1 0.83323305E+00 0.30000000E+03</pdfrwt>
<pdfrwt beam="2">0</pdfrwt>
<totfact> 0.56671196E-04</totfact>
</mgrwt>
<clustering>
<clus scale="   32.086">  1  6  2 -1</clus>
<clus scale="  463.264">  4  5 -1 -1</clus>
<clus scale="  300.000">  1  4  2 -1</clus>
</clustering>
</event>
<event>
 6    1  0.9687246E-012  0.3000000E+03  0.7818608E-02  0.1093470E+00
          1   -1    0    0  502    0  0.00000000000E+00  0.00000000000E+00  0.24941691548E+03  0.24941691548E+03  0.00000000000E+00 0.  1.
         13   -1    0    0    0    0 -0.00000000000E+00 -0.00000000000E+00 -0.27500000000E+03  0.27500000000E+03  0.00000000000E+00 0.  1.
    9000005    2    1    2  501    0  0.29450676334E+02 -0.81233972501E+01 -0.38809139926E+02  0.49112636936E+03  0.48863650029E+03 0.  0.
         13    1    3    3    0    0  0.11936540002E+03 -0.22297246614E+03 -0.50592947630E+02  0.25792337182E+03  0.00000000000E+00 0.  1.
          1    1    3    3  501    0 -0.89914723688E+02  0.21484906889E+03  0.11783807705E+02  0.23320299754E+03  0.00000000000E+00 0.  1.
         21    1    1    2  502  501 -0.29450676334E+02  0.81233972501E+01  0.13226055403E+02  0.33290546120E+02  0.00000000000E+00 0.  1.
<scales pt_clust_4="550.00000" pt_clust_5="550.00000" pt_clust_6="30.55048"></scales>
<mgrwt>
<rscale>  0 0.30000000E+03</rscale>
<asrwt>  1 0.30550481E+02</asrwt>
<pdfrwt beam="1">  1        1 0.90697060E+00 0.30000000E+03</pdfrwt>
<pdfrwt beam="2">0</pdfrwt>
<totfact> 0.86567294E-05</totfact>
</mgrwt>
<clustering>
<clus scale="   30.550">  1  6  2 -1</clus>
<clus scale="  488.637">  4  5 -1 -1</clus>
<clus scale="  300.000">  1  4  2 -1</clus>
</clustering>
</event>
<event>
 6    1  0.9687246E-012  0.3000000E+03  0.7818608E-02  0.1093470E+00
          1   -1    0    0  502    0  0.00000000000E+00  0.00000000000E+00  0.22850497560E+03  0.22850497560E+03  0.00000000000E+00 0.  1.
         13   -1    0    0    0    0 -0.00000000000E+00 -0.00000000000E+00 -0.27500000000E+03  0.27500000000E+03  0.00000000000E+00 0.  1.
    9000005    2    1    2  501    0 -0.64632813065E+01  0.29968716582E+02 -0.62229497609E+02  0.46904526542E+03  0.46388689641E+03 0.  0.
         13    1    3    3    0    0 -0.18884365111E+03  0.28599965369E+02  0.10812217815E+03  0.21947730633E+03  0.00000000000E+00 0.  1.
          1    1    3    3  501    0  0.18238036980E+03  0.13687512132E+01 -0.17035167576E+03  0.24956795909E+03  0.00000000000E+00 0.  1.
         21    1    1    2  502  501  0.64632813065E+01 -0.29968716582E+02  0.15734473214E+02  0.34459710187E+02  0.00000000000E+00 0.  1.
<scales pt_clust_4="550.00000" pt_clust_5="550.00000" pt_clust_6="30.65776"></scales>
<mgrwt>
<rscale>  0 0.30000000E+03</rscale>
<asrwt>  1 0.30657756E+02</asrwt>
<pdfrwt beam="1">  1        1 0.83092718E+00 0.30000000E+03</pdfrwt>
<pdfrwt beam="2">0</pdfrwt>
<totfact> 0.59560988E-04</totfact>
</mgrwt>
<clustering>
<clus scale="   30.658">  1  6  2 -1</clus>
<clus scale="  463.887">  4  5 -1 -1</clus>
<clus scale="  300.000">  1  4  2 -1</clus>
</clustering>
</event>
<event>
 6    1  0.9687246E-012  0.3000000E+03  0.7818608E-02  0.1093470E+00
          1   -1    0    0  502    0  0.00000000000E+00  0.00000000000E+00  0.23172198719E+03  0.23172198719E+03  0.00000000000E+00 0.  1.
         13   -1    0    0    0    0 -0.00000000000E+00 -0.00000000000E+00 -0.27500000000E+03  0.27500000000E+03  0.00000000000E+00 0.  1.
    9000005    2    1    2  501    0  0.14117773623E+02  0.32529478062E+02 -0.50472746643E+02  0.47053852867E+03  0.46647779190E+03 0.  0.
         13    1    3    3    0    0  0.10625467826E+03 -0.19473764094E+03 -0.10672598429E+02  0.22209617243E+03  0.00000000000E+00 0.  1.
          1    1    3    3  501    0 -0.92136904634E+02  0.22726711901E+03 -0.39800148214E+02  0.24844235624E+03  0.00000000000E+00 0.  1.
         21    1    1    2  502  501 -0.14117773623E+02 -0.32529478062E+02  0.71947338302E+01  0.36183458513E+02  0.00000000000E+00 0. -1.
<scales pt_clust_4="550.00000" pt_clust_5="550.00000" pt_clust_6="35.46094"></scales>
<mgrwt>
<rscale>  0 0.30000000E+03</rscale>
<asrwt>  1 0.35460943E+02</asrwt>
<pdfrwt beam="1">  1        1 0.84262541E+00 0.30000000E+03</pdfrwt>
<pdfrwt beam="2">0</pdfrwt>
<totfact> 0.47230647E-04</totfact>
</mgrwt>
<clustering>
<clus scale="   35.461">  1  6  2 -1</clus>
<clus scale="  466.478">  4  5 -1 -1</clus>
<clus scale="  300.000">  1  4  2 -1</clus>
</clustering>
</event>
<event>
 6    1  0.9687246E-012  0.3000000E+03  0.7818608E-02  0.1093470E+00
          1   -1    0    0  502    0  0.00000000000E+00  0.00000000000E+00  0.21792438120E+03  0.21792438120E+03  0.00000000000E+00 0.  1.
         13   -1    0    0    0    0 -0.00000000000E+00 -0.00000000000E+00 -0.27500000000E+03  0.27500000000E+03  0.00000000000E+00 0.  1.
    9000005    2    1    2  501    0  0.25419582199E+02  0.16383602505E+02 -0.57810771934E+02  0.46267346319E+03  0.45805029265E+03 0.  0.
         13    1    3    3    0    0  0.78044255211E+02 -0.16328702469E+03 -0.16673196654E+03  0.24607540891E+03  0.00000000000E+00 0.  1.
          1    1    3    3  501    0 -0.52624673013E+02  0.17967062719E+03  0.10892119460E+03  0.21659805428E+03  0.00000000000E+00 0.  1.
         21    1    1    2  502  501 -0.25419582199E+02 -0.16383602505E+02  0.73515313407E+00  0.30250918008E+02  0.00000000000E+00 0. -1.
<scales pt_clust_4="550.00000" pt_clust_5="550.00000" pt_clust_6="30.24198"></scales>
<mgrwt>
<rscale>  0 0.30000000E+03</rscale>
<asrwt>  1 0.30241984E+02</asrwt>
<pdfrwt beam="1">  1        1 0.79245230E+00 0.30000000E+03</pdfrwt>
<pdfrwt beam="2">0</pdfrwt>
<totfact> 0.12127745E-03</totfact>
</mgrwt>
<clustering>
<clus scale="   30.242">  1  6  2 -1</clus>
<clus scale="  458.050">  4  5 -1 -1</clus>
<clus scale="  300.000">  1  4  2 -1</clus>
</clustering>
</event>
<event>
 6    1  0.9687246E-012  0.3000000E+03  0.7818608E-02  0.1093470E+00
          1   -1    0    0  502    0  0.00000000000E+00  0.00000000000E+00  0.23361732303E+03  0.23361732303E+03  0.00000000000E+00 0.  1.
         13   -1    0    0    0    0 -0.00000000000E+00 -0.00000000000E+00 -0.27500000000E+03  0.27500000000E+03  0.00000000000E+00 0.  1.
    9000005    2    1    2  501    0 -0.12993206776E+02  0.34753972175E+02 -0.64163472542E+02  0.46507852825E+03  0.45913442936E+03 0.  0.
         13    1    3    3    0    0  0.20611108423E+03  0.30359343049E+02 -0.11797631422E+03  0.23941988111E+03  0.00000000000E+00 0.  1.
          3    1    3    3  501    0 -0.21910429100E+03  0.43946291258E+01  0.53812841683E+02  0.22565864714E+03  0.00000000000E+00 0.  1.
         21    1    1    2  502  501  0.12993206776E+02 -0.34753972175E+02  0.22780795577E+02  0.43538794785E+02  0.00000000000E+00 0.  1.
<scales pt_clust_4="550.00000" pt_clust_5="550.00000" pt_clust_6="37.10340"></scales>
<mgrwt>
<rscale>  0 0.30000000E+03</rscale>
<asrwt>  1 0.37103396E+02</asrwt>
<pdfrwt beam="1">  1        1 0.84951754E+00 0.30000000E+03</pdfrwt>
<pdfrwt beam="2">0</pdfrwt>
<totfact> 0.40679777E-04</totfact>
</mgrwt>
<clustering>
<clus scale="   37.103">  1  6  2 -1</clus>
<clus scale="  459.134">  4  5 -1 -1</clus>
<clus scale="  300.000">  1  4  2 -1</clus>
</clustering>
</event>
<event>
 6    1  0.9687246E-012  0.3000000E+03  0.7818608E-02  0.1093470E+00
          1   -1    0    0  502    0  0.00000000000E+00  0.00000000000E+00  0.22197414917E+03  0.22197414917E+03  0.00000000000E+00 0.  1.
         13   -1    0    0    0    0 -0.00000000000E+00 -0.00000000000E+00 -0.27500000000E+03  0.27500000000E+03  0.00000000000E+00 0.  1.
    9000005    2    1    2  501    0 -0.31670039247E+02  0.33652750941E+01 -0.50732768347E+02  0.46504336951E+03  0.46116938892E+03 0.  0.
         13    1    3    3    0    0  0.53986384557E+02 -0.20061524133E+01 -0.24593934761E+03  0.25180293300E+03  0.00000000000E+00 0.  1.
          3    1    3    3  501    0 -0.85656423804E+02  0.53714275074E+01  0.19520657927E+03  0.21324043651E+03  0.00000000000E+00 0.  1.
         21    1    1    2  502  501  0.31670039247E+02 -0.33652750941E+01 -0.22930824837E+01  0.31930779659E+02  0.00000000000E+00 0. -1.
<scales pt_clust_4="550.00000" pt_clust_5="550.00000" pt_clust_6="31.84834"></scales>
<mgrwt>
<rscale>  0 0.30000000E+03</rscale>
<asrwt>  1 0.31848335E+02</asrwt>
<pdfrwt beam="1">  1        1 0.80717872E+00 0.30000000E+03</pdfrwt>
<pdfrwt beam="2">0</pdfrwt>
<totfact> 0.93357916E-04</totfact>
</mgrwt>
<clustering>
<clus scale="   31.848">  1  6  2 -1</clus>
<clus scale="  461.169">  4  5 -1 -1</clus>
<clus scale="  300.000">  1  4  2 -1</clus>
</clustering>
</event>
<event>
 6    1  0.9687246E-012  0.3000000E+03  0.7818608E-02  0.1093470E+00
          1   -1    0    0  502    0  0.00000000000E+00  0.00000000000E+00  0.24843533580E+03  0.24843533580E+03  0.00000000000E+00 0.  1.
         13   -1    0    0    0    0 -0.00000000000E+00 -0.00000000000E+00 -0.27500000000E+03  0.27500000000E+03  0.00000000000E+00 0.  1.
    9000005    2    1    2  501    0 -0.33263536600E+02 -0.23876443474E+02 -0.50132873332E+02  0.47619120493E+03  0.47177135484E+03 0.  0.
         13    1    3    3    0    0 -0.24781893971E+03 -0.57905909894E+02 -0.62787387137E+01  0.25457168704E+03  0.00000000000E+00 0.  1.
          1    1    3    3  501    0  0.21455540311E+03  0.34029466420E+02 -0.43854134618E+02  0.22161951789E+03  0.00000000000E+00 0.  1.
         21    1    1    2  502  501  0.33263536600E+02  0.23876443474E+02  0.23568209135E+02  0.47244130873E+02  0.00000000000E+00 0.  1.
<scales pt_clust_4="550.00000" pt_clust_5="550.00000" pt_clust_6="40.94566"></scales>
<mgrwt>
<rscale>  0 0.30000000E+03</rscale>
<asrwt>  1 0.40945664E+02</asrwt>
<pdfrwt beam="1">  1        1 0.90340122E+00 0.30000000E+03</pdfrwt>
<pdfrwt beam="2">0</pdfrwt>
<totfact> 0.95900986E-05</totfact>
</mgrwt>
<clustering>
<clus scale="   40.946">  1  6  2 -1</clus>
<clus scale="  471.771">  4  5 -1 -1</clus>
<clus scale="  300.000">  1  4  2 -1</clus>
</clustering>
</event>
<event>
 6    1  0.9687246E-012  0.3000000E+03  0.7818608E-02  0.1093470E+00
          1   -1    0    0  502    0  0.00000000000E+00  0.00000000000E+00  0.22938860476E+03  0.22938860476E+03  0.00000000000E+00 0.  1.
         13   -1    0    0    0    0 -0.00000000000E+00 -0.00000000000E+00 -0.27500000000E+03  0.27500000000E+03  0.00000000000E+00 0.  1.
    9000005    2    1    2  501    0 -0.21306431539E+02 -0.27272891828E+02 -0.25155521640E+02  0.46418639812E+03  0.46221038205E+03 0.  0.
         13    1    3    3    0    0 -0.15033815383E+03  0.28387737878E+02  0.16676845750E+03  0.22631646554E+03  0.00000000000E+00 0.  1.
          3    1    3    3  501    0  0.12903172229E+03 -0.55660629706E+02 -0.19192397914E+03  0.23786993258E+03  0.00000000000E+00 0.  1.
         21    1    1    2  502  501  0.21306431539E+02  0.27272891828E+02 -0.20455873603E+02  0.40202206636E+02  0.00000000000E+00 0.  1.
<scales pt_clust_4="550.00000" pt_clust_5="550.00000" pt_clust_6="34.60890"></scales>
<mgrwt>
<rscale>  0 0.30000000E+03</rscale>
<asrwt>  1 0.34608898E+02</asrwt>
<pdfrwt beam="1">  1        1 0.83414038E+00 0.30000000E+03</pdfrwt>
<pdfrwt beam="2">0</pdfrwt>
<totfact> 0.55005988E-04</totfact>
</mgrwt>
<clustering>
<clus scale="   34.609">  1  6  2 -1</clus>
<clus scale="  462.210">  4  5 -1 -1</clus>
<clus scale="  300.000">  1  4  2 -1</clus>
</clustering>
</event>
<event>
 6    1  0.9687246E-012  0.3000000E+03  0.7818608E-02  0.1093470E+00
          1   -1    0    0  502    0  0.00000000000E+00  0.00000000000E+00  0.22999870385E+03  0.22999870385E+03  0.00000000000E+00 0.  1.
         13   -1    0    0    0    0 -0.00000000000E+00 -0.00000000000E+00 -0.27500000000E+03  0.27500000000E+03  0.00000000000E+00 0.  1.
    9000005    2    1    2  501    0 -0.11424614238E+02  0.28583523225E+02 -0.66003442880E+02  0.46773438073E+03  0.46202971423E+03 0.  0.
         13    1    3    3    0    0 -0.21736878253E+03  0.36485866167E+02  0.57082060515E+02  0.22768128531E+03  0.00000000000E+00 0.  1.
          1    1    3    3  501    0  0.20594416829E+03 -0.79023429420E+01 -0.12308550339E+03  0.24005309542E+03  0.00000000000E+00 0.  1.
         21    1    1    2  502  501  0.11424614238E+02 -0.28583523225E+02  0.21002146734E+02  0.37264323124E+02  0.00000000000E+00 0. -1.
<scales pt_clust_4="550.00000" pt_clust_5="550.00000" pt_clust_6="30.78213"></scales>
<mgrwt>
<rscale>  0 0.30000000E+03</rscale>
<asrwt>  1 0.30782131E+02</asrwt>
<pdfrwt beam="1">  1        1 0.83635892E+00 0.30000000E+03</pdfrwt>
<pdfrwt beam="2">0</pdfrwt>
<totfact> 0.54183817E-04</totfact>
</mgrwt>
<clustering>
<clus scale="   30.782">  1  6  2 -1</clus>
<clus scale="  462.030">  4  5 -1 -1</clus>
<clus scale="  300.000">  1  4  2 -1</clus>
</clustering>
</event>
<event>
 6    1  0.9687246E-012  0.3000000E+03  0.7818608E-02  0.1093470E+00
          1   -1    0    0  502    0  0.00000000000E+00  0.00000000000E+00  0.26398561778E+03  0.26398561778E+03  0.00000000000E+00 0.  1.
         13   -1    0    0    0    0 -0.00000000000E+00 -0.00000000000E+00 -0.27500000000E+03  0.27500000000E+03  0.00000000000E+00 0.  1.
    9000005    2    1    2  501    0  0.30689001801E+02 -0.79169904952E+01 -0.30916570828E+02  0.50156115143E+03  0.49960310317E+03 0.  0.
         13    1    3    3    0    0  0.25856466744E+03 -0.15513446603E+02 -0.74284982989E+02  0.26947098725E+03  0.00000000000E+00 0.  1.
          1    1    3    3  501    0 -0.22787566564E+03  0.75964561074E+01  0.43368412161E+02  0.23209016418E+03  0.00000000000E+00 0.  1.
         21    1    1    2  502  501 -0.30689001801E+02  0.79169904952E+01  0.19902188604E+02  0.37424466345E+02  0.00000000000E+00 0.  1.
<scales pt_clust_4="550.00000" pt_clust_5="550.00000" pt_clust_6="31.69375"></scales>
<mgrwt>
<rscale>  0 0.30000000E+03</rscale>
<asrwt>  1 0.31693747E+02</asrwt>
<pdfrwt beam="1">  1        1 0.95994770E+00 0.30000000E+03</pdfrwt>
<pdfrwt beam="2">0</pdfrwt>
<totfact> 0.77481357E-06</totfact>
</mgrwt>
<clustering>
<clus scale="   31.694">  1  6  2 -1</clus>
<clus scale="  499.603">  4  5 -1 -1</clus>
<clus scale="  300.000">  1  4  2 -1</clus>
</clustering>
</event>
<event>
 6    1  0.9687246E-012  0.3000000E+03  0.7818608E-02  0.1093470E+00
          1   -1    0    0  502    0  0.00000000000E+00  0.00000000000E+00  0.24463615149E+03  0.24463615149E+03  0.00000000000E+00 0.  1.
         13   -1    0    0    0    0 -0.00000000000E+00 -0.00000000000E+00 -0.27500000000E+03  0.27500000000E+03  0.00000000000E+00 0.  1.
    9000005    2    1    2  501    0  0.33993192628E+02 -0.22872270706E+02 -0.27735233023E+02  0.47858024410E+03  0.47601589152E+03 0.  0.
         13    1    3    3    0    0 -0.31717871758E+01 -0.17333176719E+02 -0.25128119853E+03  0.25189827309E+03  0.00000000000E+00 0.  1.
          1    1    3    3  501    0  0.37164979804E+02 -0.55390939870E+01  0.22354596551E+03  0.22668197101E+03  0.00000000000E+00 0.  1.
         21    1    1    2  502  501 -0.33993192628E+02  0.22872270706E+02 -0.26286154832E+01  0.41055907390E+02  0.00000000000E+00 0.  1.
<scales pt_clust_4="550.00000" pt_clust_5="550.00000" pt_clust_6="40.97169"></scales>
<mgrwt>
<rscale>  0 0.30000000E+03</rscale>
<asrwt>  1 0.40971693E+02</asrwt>
<pdfrwt beam="1">  1        1 0.88958601E+00 0.30000000E+03</pdfrwt>
<pdfrwt beam="2">0</pdfrwt>
<totfact> 0.14261274E-04</totfact>
</mgrwt>
<clustering>
<clus scale="   40.972">  1  6  2 -1</clus>
<clus scale="  476.016">  4  5 -1 -1</clus>
<clus scale="  300.000">  1  4  2 -1</clus>
</clustering>
</event>
<event>
 6    1  0.9687246E-012  0.3000000E+03  0.7818608E-02  0.1093470E+00
          1   -1    0    0  502    0  0.00000000000E+00  0.00000000000E+00  0.23014318762E+03  0.23014318762E+03  0.00000000000E+00 0.  1.
         13   -1    0    0    0    0 -0.00000000000E+00 -0.00000000000E+00 -0.27500000000E+03  0.27500000000E+03  0.00000000000E+00 0.  1.
    9000005    2    1    2  501    0 -0.27033897406E+02 -0.31023715857E+02 -0.55634477753E+02  0.46260543233E+03  0.45740057756E+03 0.  0.
         13    1    3    3    0    0 -0.10747986669E+03 -0.21870327723E+03  0.20805151263E+02  0.24457289206E+03  0.00000000000E+00 0.  1.
          1    1    3    3  501    0  0.80445969284E+02  0.18767956137E+03 -0.76439629016E+02  0.21803254026E+03  0.00000000000E+00 0.  1.
         21    1    1    2  502  501  0.27033897406E+02  0.31023715857E+02  0.10777665372E+02  0.42537755293E+02  0.00000000000E+00 0. -1.
<scales pt_clust_4="550.00000" pt_clust_5="550.00000" pt_clust_6="41.14976"></scales>
<mgrwt>
<rscale>  0 0.30000000E+03</rscale>
<asrwt>  1 0.41149758E+02</asrwt>
<pdfrwt beam="1">  1        1 0.83688432E+00 0.30000000E+03</pdfrwt>
<pdfrwt beam="2">0</pdfrwt>
<totfact> 0.50879857E-04</totfact>
</mgrwt>
<clustering>
<clus scale="   41.150">  1  6  2 -1</clus>
<clus scale="  457.401">  4  5 -1 -1</clus>
<clus scale="  300.000">  1  4  2 -1</clus>
</clustering>
</event>
<event>
 6    1  0.9687246E-012  0.3000000E+03  0.7818608E-02  0.1093470E+00
          1   -1    0    0  502    0  0.00000000000E+00  0.00000000000E+00  0.23165586342E+03  0.23165586342E+03  0.00000000000E+00 0.  1.
         13   -1    0    0    0    0 -0.00000000000E+00 -0.00000000000E+00 -0.27500000000E+03  0.27500000000E+03  0.00000000000E+00 0.  1.
    9000005    2    1    2  501    0 -0.97912828449E+01 -0.29830273234E+02 -0.70306614436E+02  0.46527120886E+03  0.45885571081E+03 0.  0.
         13    1    3    3    0    0  0.21782343668E+02 -0.10560305934E+03 -0.24751043447E+03  0.26997757650E+03  0.00000000000E+00 0.  1.
          3    1    3    3  501    0 -0.31573626513E+02  0.75772786104E+02  0.17720382004E+03  0.19529363236E+03  0.00000000000E+00 0.  1.
         21    1    1    2  502  501  0.97912828449E+01  0.29830273234E+02  0.26962477859E+02  0.41384654563E+02  0.00000000000E+00 0.  1.
<scales pt_clust_4="550.00000" pt_clust_5="550.00000" pt_clust_6="31.39609"></scales>
<mgrwt>
<rscale>  0 0.30000000E+03</rscale>
<asrwt>  1 0.31396089E+02</asrwt>
<pdfrwt beam="1">  1        1 0.84238496E+00 0.30000000E+03</pdfrwt>
<pdfrwt beam="2">0</pdfrwt>
<totfact> 0.48552141E-04</totfact>
</mgrwt>
<clustering>
<clus scale="   31.396">  1  6  2 -1</clus>
<clus scale="  458.856">  4  5 -1 -1</clus>
<clus scale="  300.000">  1  4  2 -1</clus>
</clustering>
</event>
<event>
 6    1  0.9687246E-012  0.3000000E+03  0.7818608E-02  0.1093470E+00
          1   -1    0    0  502    0  0.00000000000E+00  0.00000000000E+00  0.23536491247E+03  0.23536491247E+03  0.00000000000E+00 0.  1.
         13   -1    0    0    0    0 -0.00000000000E+00 -0.00000000000E+00 -0.27500000000E+03  0.27500000000E+03  0.00000000000E+00 0.  1.
    9000005    2    1    2  501    0  0.30359994279E+02 -0.24105974795E+02 -0.35466943440E+02  0.47137516127E+03  0.46843762799E+03 0.  0.
         13    1    3    3    0    0  0.42670989172E+02 -0.82571736985E+02  0.20420795711E+03  0.22436531553E+03  0.00000000000E+00 0.  1.
          3    1    3    3  501    0 -0.12310994893E+02  0.58465762190E+02 -0.23967490055E+03  0.24700984575E+03  0.00000000000E+00 0.  1.
         21    1    1    2  502  501 -0.30359994279E+02  0.24105974795E+02 -0.41681440900E+01  0.38989751199E+02  0.00000000000E+00 0. -1.
<scales pt_clust_4="550.00000" pt_clust_5="550.00000" pt_clust_6="38.76634"></scales>
<mgrwt>
<rscale>  0 0.30000000E+03</rscale>
<asrwt>  1 0.38766336E+02</asrwt>
<pdfrwt beam="1">  1        1 0.85587241E+00 0.30000000E+03</pdfrwt>
<pdfrwt beam="2">0</pdfrwt>
<totfact> 0.35039156E-04</totfact>
</mgrwt>
<clustering>
<clus scale="   38.766">  1  6  2 -1</clus>
<clus scale="  468.438">  4  5 -1 -1</clus>
<clus scale="  300.000">  1  4  2 -1</clus>
</clustering>
</event>
<event>
 6    1  0.9687246E-012  0.3000000E+03  0.7818608E-02  0.1093470E+00
          1   -1    0    0  502    0  0.00000000000E+00  0.00000000000E+00  0.24251354397E+03  0.24251354397E+03  0.00000000000E+00 0.  1.
         13   -1    0    0    0    0 -0.00000000000E+00 -0.00000000000E+00 -0.27500000000E+03  0.27500000000E+03  0.00000000000E+00 0.  1.
    9000005    2    1    2  501    0  0.35591922360E+01 -0.31054585792E+02 -0.65907390998E+02  0.47175314578E+03  0.46607959752E+03 0.  0.
         13    1    3    3    0    0  0.12532440328E+02 -0.22785834735E+03  0.62482008791E+02  0.23660196521E+03  0.00000000000E+00 0.  1.
          3    1    3    3  501    0 -0.89732480919E+01  0.19680376156E+03 -0.12838939979E+03  0.23515118057E+03  0.00000000000E+00 0.  1.
         21    1    1    2  502  501 -0.35591922360E+01  0.31054585792E+02  0.33420934972E+02  0.45760398190E+02  0.00000000000E+00 0.  1.
<scales pt_clust_4="550.00000" pt_clust_5="550.00000" pt_clust_6="31.25788"></scales>
<mgrwt>
<rscale>  0 0.30000000E+03</rscale>
<asrwt>  1 0.31257881E+02</asrwt>
<pdfrwt beam="1">  1        1 0.88186743E+00 0.30000000E+03</pdfrwt>
<pdfrwt beam="2">0</pdfrwt>
<totfact> 0.19095295E-04</totfact>
</mgrwt>
<clustering>
<clus scale="   31.258">  1  6  2 -1</clus>
<clus scale="  466.080">  4  5 -1 -1</clus>
<clus scale="  300.000">  1  4  2 -1</clus>
</clustering>
</event>
<event>
 6    1  0.9687246E-012  0.3000000E+03  0.7818608E-02  0.1093470E+00
          1   -1    0    0  502    0  0.00000000000E+00  0.00000000000E+00  0.23284783602E+03  0.23284783602E+03  0.00000000000E+00 0.  1.
         13   -1    0    0    0    0 -0.00000000000E+00 -0.00000000000E+00 -0.27500000000E+03  0.27500000000E+03  0.00000000000E+00 0.  1.
    9000005    2    1    2  501    0 -0.22046735675E+02 -0.26206173204E+02 -0.48224649819E+02  0.47306713516E+03  0.46935495678E+03 0.  0.
         13    1    3    3    0    0  0.54145485759E+02 -0.23465034083E+03  0.17933509653E+02  0.24148318129E+03  0.00000000000E+00 0.  1.
          1    1    3    3  501    0 -0.76192221434E+02  0.20844416762E+03 -0.66158159472E+02  0.23158395387E+03  0.00000000000E+00 0.  1.
         21    1    1    2  502  501  0.22046735675E+02  0.26206173204E+02  0.60724858374E+01  0.34780700858E+02  0.00000000000E+00 0.  1.
<scales pt_clust_4="550.00000" pt_clust_5="550.00000" pt_clust_6="34.24649"></scales>
<mgrwt>
<rscale>  0 0.30000000E+03</rscale>
<asrwt>  1 0.34246490E+02</asrwt>
<pdfrwt beam="1">  1        1 0.84671940E+00 0.30000000E+03</pdfrwt>
<pdfrwt beam="2">0</pdfrwt>
<totfact> 0.43802970E-04</totfact>
</mgrwt>
<clustering>
<clus scale="   34.246">  1  6  2 -1</clus>
<clus scale="  469.355">  4  5 -1 -1</clus>
<clus scale="  300.000">  1  4  2 -1</clus>
</clustering>
</event>
<event>
 6    1  0.9687246E-012  0.3000000E+03  0.7818608E-02  0.1093470E+00
          1   -1    0    0  502    0  0.00000000000E+00  0.00000000000E+00  0.23107517202E+03  0.23107517202E+03  0.00000000000E+00 0.  1.
         13   -1    0    0    0    0 -0.00000000000E+00 -0.00000000000E+00 -0.27500000000E+03  0.27500000000E+03  0.00000000000E+00 0.  1.
    9000005    2    1    2  501    0  0.41973186236E+02 -0.12817438274E+02 -0.50290148949E+02  0.46172934473E+03  0.45687947384E+03 0.  0.
         13    1    3    3    0    0 -0.68751607392E+02  0.30037625039E+02 -0.23246923811E+03  0.24427646040E+03  0.00000000000E+00 0.  1.
          1    1    3    3  501    0  0.11072479363E+03 -0.42855063313E+02  0.18217908916E+03  0.21745288433E+03  0.00000000000E+00 0.  1.
         21    1    1    2  502  501 -0.41973186236E+02  0.12817438274E+02  0.63653209690E+01  0.44345827286E+02  0.00000000000E+00 0.  1.
<scales pt_clust_4="550.00000" pt_clust_5="550.00000" pt_clust_6="43.88662"></scales>
<mgrwt>
<rscale>  0 0.30000000E+03</rscale>
<asrwt>  1 0.43886616E+02</asrwt>
<pdfrwt beam="1">  1        1 0.84027335E+00 0.30000000E+03</pdfrwt>
<pdfrwt beam="2">0</pdfrwt>
<totfact> 0.47455504E-04</totfact>
</mgrwt>
<clustering>
<clus scale="   43.887">  1  6  2 -1</clus>
<clus scale="  456.879">  4  5 -1 -1</clus>
<clus scale="  300.000">  1  4  2 -1</clus>
</clustering>
</event>
<event>
 6    1  0.9687246E-012  0.3000000E+03  0.7818608E-02  0.1093470E+00
          1   -1    0    0  502    0  0.00000000000E+00  0.00000000000E+00  0.23969547032E+03  0.23969547032E+03  0.00000000000E+00 0.  1.
         13   -1    0    0    0    0 -0.00000000000E+00 -0.00000000000E+00 -0.27500000000E+03  0.27500000000E+03  0.00000000000E+00 0.  1.
    9000005    2    1    2  501    0  0.99732213871E+01  0.28650097081E+02 -0.55352426888E+02  0.47833324555E+03  0.47415030257E+03 0.  0.
         13    1    3    3    0    0 -0.87000319322E+02  0.69213281055E+02 -0.24076725522E+03  0.26519503205E+03  0.00000000000E+00 0.  1.
          3    1    3    3  501    0  0.96973540709E+02 -0.40563183975E+02  0.18541482833E+03  0.21313821351E+03  0.00000000000E+00 0.  1.
         21    1    1    2  502  501 -0.99732213871E+01 -0.28650097081E+02  0.20047897205E+02  0.36362224765E+02  0.00000000000E+00 0.  1.
<scales pt_clust_4="550.00000" pt_clust_5="550.00000" pt_clust_6="30.33633"></scales>
<mgrwt>
<rscale>  0 0.30000000E+03</rscale>
<asrwt>  1 0.30336335E+02</asrwt>
<pdfrwt beam="1">  1        1 0.87161989E+00 0.30000000E+03</pdfrwt>
<pdfrwt beam="2">0</pdfrwt>
<totfact> 0.25048727E-04</totfact>
</mgrwt>
<clustering>
<clus scale="   30.336">  1  6  2 -1</clus>
<clus scale="  474.150">  4  5 -1 -1</clus>
<clus scale="  300.000">  1  4  2 -1</clus>
</clustering>
</event>
<event>
 6    1  0.9687246E-012  0.3000000E+03  0.7818608E-02  0.1093470E+00
          1   -1    0    0  502    0  0.00000000000E+00  0.00000000000E+00  0.23661151806E+03  0.23661151806E+03  0.00000000000E+00 0.  1.
         13   -1    0    0    0    0 -0.00000000000E+00 -0.00000000000E+00 -0.27500000000E+03  0.27500000000E+03  0.00000000000E+00 0.  1.
    9000005    2    1    2  501    0  0.38010585143E+02  0.26417639649E+02 -0.39078012606E+02  0.46531711537E+03  0.46135694481E+03 0.  0.
         13    1    3    3    0    0  0.16760818034E+03  0.31567697263E+01 -0.19767505952E+03  0.25918699132E+03  0.00000000000E+00 0.  1.
          3    1    3    3  501    0 -0.12959759520E+03  0.23260869923E+02  0.15859704692E+03  0.20613012405E+03  0.00000000000E+00 0.  1.
         21    1    1    2  502  501 -0.38010585143E+02 -0.26417639649E+02  0.68953066641E+00  0.46294402687E+02  0.00000000000E+00 0. -1.
<scales pt_clust_4="550.00000" pt_clust_5="550.00000" pt_clust_6="46.28927"></scales>
<mgrwt>
<rscale>  0 0.30000000E+03</rscale>
<asrwt>  1 0.46289267E+02</asrwt>
<pdfrwt beam="1">  1        1 0.86040552E+00 0.30000000E+03</pdfrwt>
<pdfrwt beam="2">0</pdfrwt>
<totfact> 0.30433725E-04</totfact>
</mgrwt>
<clustering>
<clus scale="   46.289">  1  6  2 -1</clus>
<clus scale="  461.357">  4  5 -1 -1</clus>
<clus scale="  300.000">  1  4  2 -1</clus>
</clustering>
</event>
<event>
 6    1  0.9687246E-012  0.3000000E+03  0.7818608E-02  0.1093470E+00
          1   -1    0    0  502    0  0.00000000000E+00  0.00000000000E+00  0.24320446710E+03  0.24320446710E+03  0.00000000000E+00 0.  1.
         13   -1    0    0    0    0 -0.00000000000E+00 -0.00000000000E+00 -0.27500000000E+03  0.27500000000E+03  0.00000000000E+00 0.  1.
    9000005    2    1    2  501    0  0.31451491628E+02 -0.98226570730E+01 -0.47581519088E+02  0.48166848104E+03  0.47817867346E+03 0.  0.
         13    1    3    3    0    0 -0.20761808704E+03 -0.90772297096E+02 -0.31238828839E+02  0.22873728251E+03  0.00000000000E+00 0.  1.
          1    1    3    3  501    0  0.23906957866E+03  0.80949640023E+02 -0.16342690249E+02  0.25293119852E+03  0.00000000000E+00 0.  1.
         21    1    1    2  502  501 -0.31451491628E+02  0.98226570730E+01  0.15785986188E+02  0.36535986062E+02  0.00000000000E+00 0.  1.
<scales pt_clust_4="550.00000" pt_clust_5="550.00000" pt_clust_6="32.94967"></scales>
<mgrwt>
<rscale>  0 0.30000000E+03</rscale>
<asrwt>  1 0.32949672E+02</asrwt>
<pdfrwt beam="1">  1        1 0.88437988E+00 0.30000000E+03</pdfrwt>
<pdfrwt beam="2">0</pdfrwt>
<totfact> 0.17502494E-04</totfact>
</mgrwt>
<clustering>
<clus scale="   32.950">  1  6  2 -1</clus>
<clus scale="  478.179">  4  5 -1 -1</clus>
<clus scale="  300.000">  1  4  2 -1</clus>
</clustering>
</event>
<event>
 6    1  0.9687246E-012  0.3000000E+03  0.7818608E-02  0.1093470E+00
          1   -1    0    0  502    0  0.00000000000E+00  0.00000000000E+00  0.25197177915E+03  0.25197177915E+03  0.00000000000E+00 0.  1.
         13   -1    0    0    0    0 -0.00000000000E+00 -0.00000000000E+00 -0.27500000000E+03  0.27500000000E+03  0.00000000000E+00 0.  1.
    9000005    2    1    2  501    0  0.37254596884E+02 -0.25674135598E+02 -0.17390369945E+02  0.48137735416E+03  0.47893075272E+03 0.  0.
         13    1    3    3    0    0 -0.15941641499E+03  0.11186681462E+03  0.94633886262E+02  0.21652563361E+03  0.00000000000E+00 0.  1.
          1    1    3    3  501    0  0.19667101187E+03 -0.13754095022E+03 -0.11202425621E+03  0.26485172055E+03  0.00000000000E+00 0.  1.
         21    1    1    2  502  501 -0.37254596884E+02  0.25674135598E+02 -0.56378509029E+01  0.45594424994E+02  0.00000000000E+00 0.  1.
<scales pt_clust_4="550.00000" pt_clust_5="550.00000" pt_clust_6="45.24454"></scales>
<mgrwt>
<rscale>  0 0.30000000E+03</rscale>
<asrwt>  1 0.45244539E+02</asrwt>
<pdfrwt beam="1">  1        1 0.91626102E+00 0.30000000E+03</pdfrwt>
<pdfrwt beam="2">0</pdfrwt>
<totfact> 0.48320652E-05</totfact>
</mgrwt>
<clustering>
<clus scale="   45.245">  1  6  2 -1</clus>
<clus scale="  478.931">  4  5 -1 -1</clus>
<clus scale="  300.000">  1  4  2 -1</clus>
</clustering>
</event>
<event>
 6    1  0.9687246E-012  0.3000000E+03  0.7818608E-02  0.1093470E+00
          1   -1    0    0  502    0  0.00000000000E+00  0.00000000000E+00  0.24618031558E+03  0.24618031558E+03  0.00000000000E+00 0.  1.
         13   -1    0    0    0    0 -0.00000000000E+00 -0.00000000000E+00 -0.27500000000E+03  0.27500000000E+03  0.00000000000E+00 0.  1.
    9000005    2    1    2  501    0 -0.27397929323E+02 -0.16204457982E+02 -0.51799362087E+02  0.48192096542E+03  0.47807050945E+03 0.  0.
         13    1    3    3    0    0  0.15695494290E+03  0.15635378253E+02 -0.19174687981E+03  0.24828649796E+03  0.00000000000E+00 0.  1.
          3    1    3    3  501    0 -0.18435287222E+03 -0.31839836236E+02  0.13994751772E+03  0.23363446746E+03  0.00000000000E+00 0.  1.
         21    1    1    2  502  501  0.27397929323E+02  0.16204457982E+02  0.22979677672E+02  0.39259350168E+02  0.00000000000E+00 0.  1.
<scales pt_clust_4="550.00000" pt_clust_5="550.00000" pt_clust_6="31.83129"></scales>
<mgrwt>
<rscale>  0 0.30000000E+03</rscale>
<asrwt>  1 0.31831289E+02</asrwt>
<pdfrwt beam="1">  1        1 0.89520115E+00 0.30000000E+03</pdfrwt>
<pdfrwt beam="2">0</pdfrwt>
<totfact> 0.12770600E-04</totfact>
</mgrwt>
<clustering>
<clus scale="   31.831">  1  6  2 -1</clus>
<clus scale="  478.071">  4  5 -1 -1</clus>
<clus scale="  300.000">  1  4  2 -1</clus>
</clustering>
</event>
<event>
 6    1  0.9687246E-012  0.3000000E+03  0.7818608E-02  0.1093470E+00
          1   -1    0    0  502    0  0.00000000000E+00  0.00000000000E+00  0.26290701531E+03  0.26290701531E+03  0.00000000000E+00 0.  1.
         13   -1    0    0    0    0 -0.00000000000E+00 -0.00000000000E+00 -0.27500000000E+03  0.27500000000E+03  0.00000000000E+00 0.  1.
    9000005    2    1    2  501    0 -0.89993715058E+01  0.28869994750E+02  0.45331854611E+01  0.50339767138E+03  0.50246810893E+03 0.  0.
         13    1    3    3    0    0 -0.20763859878E+03  0.16276052185E+03  0.25015677698E+01  0.26383902861E+03  0.00000000000E+00 0.  1.
          1    1    3    3  501    0  0.19863922727E+03 -0.13389052710E+03  0.20316176914E+01  0.23955864277E+03  0.00000000000E+00 0.  1.
         21    1    1    2  502  501  0.89993715058E+01 -0.28869994750E+02 -0.16626170153E+02  0.34509343928E+02  0.00000000000E+00 0.  1.
<scales pt_clust_4="550.00000" pt_clust_5="550.00000" pt_clust_6="30.24014"></scales>
<mgrwt>
<rscale>  0 0.30000000E+03</rscale>
<asrwt>  1 0.30240142E+02</asrwt>
<pdfrwt beam="1">  1        1 0.95602551E+00 0.30000000E+03</pdfrwt>
<pdfrwt beam="2">0</pdfrwt>
<totfact> 0.94918046E-06</totfact>
</mgrwt>
<clustering>
<clus scale="   30.240">  1  6  2 -1</clus>
<clus scale="  502.468">  4  5 -1 -1</clus>
<clus scale="  300.000">  1  4  2 -1</clus>
</clustering>
</event>
<event>
 6    1  0.9687246E-012  0.3000000E+03  0.7818608E-02  0.1093470E+00
          1   -1    0    0  502    0  0.00000000000E+00  0.00000000000E+00  0.25202214318E+03  0.25202214318E+03  0.00000000000E+00 0.  1.
         13   -1    0    0    0    0 -0.00000000000E+00 -0.00000000000E+00 -0.27500000000E+03  0.27500000000E+03  0.00000000000E+00 0.  1.
    9000005    2    1    2  501    0  0.38945416551E+02  0.29199070234E+02 -0.62836738540E+02  0.46410901558E+03  0.45725199995E+03 0.  0.
         13    1    3    3    0    0  0.41774782358E+02 -0.32651814687E+02 -0.25591310281E+03  0.26134802397E+03  0.00000000000E+00 0.  1.
          1    1    3    3  501    0 -0.28293658070E+01  0.61850884921E+02  0.19307636427E+03  0.20276099160E+03  0.00000000000E+00 0.  1.
         21    1    1    2  502  501 -0.38945416551E+02 -0.29199070234E+02  0.39858881718E+02  0.62913127603E+02  0.00000000000E+00 0.  1.
<scales pt_clust_4="550.00000" pt_clust_5="550.00000" pt_clust_6="48.67578"></scales>
<mgrwt>
<rscale>  0 0.30000000E+03</rscale>
<asrwt>  1 0.48675776E+02</asrwt>
<pdfrwt beam="1">  1        1 0.91644416E+00 0.30000000E+03</pdfrwt>
<pdfrwt beam="2">0</pdfrwt>
<totfact> 0.47241232E-05</totfact>
</mgrwt>
<clustering>
<clus scale="   48.676">  1  6  2 -1</clus>
<clus scale="  457.252">  4  5 -1 -1</clus>
<clus scale="  300.000">  1  4  2 -1</clus>
</clustering>
</event>
<event>
 6    1  0.9687246E-012  0.3000000E+03  0.7818608E-02  0.1093470E+00
          1   -1    0    0  502    0  0.00000000000E+00  0.00000000000E+00  0.22140070021E+03  0.22140070021E+03  0.00000000000E+00 0.  1.
         13   -1    0    0    0    0 -0.00000000000E+00 -0.00000000000E+00 -0.27500000000E+03  0.27500000000E+03  0.00000000000E+00 0.  1.
    9000005    2    1    2  501    0 -0.49530781711E+01 -0.30595174294E+02 -0.51924550778E+02  0.46536197509E+03  0.46141631008E+03 0.  0.
         13    1    3    3    0    0 -0.17253119146E+03 -0.14002426353E+03 -0.12177162446E+03  0.25338140209E+03  0.00000000000E+00 0.  1.
          1    1    3    3  501    0  0.16757811329E+03  0.10942908924E+03  0.69847073680E+02  0.21198057299E+03  0.00000000000E+00 0.  1.
         21    1    1    2  502  501  0.49530781711E+01  0.30595174294E+02 -0.16747490073E+01  0.31038725130E+02  0.00000000000E+00 0.  1.
<scales pt_clust_4="550.00000" pt_clust_5="550.00000" pt_clust_6="30.99351"></scales>
<mgrwt>
<rscale>  0 0.30000000E+03</rscale>
<asrwt>  1 0.30993510E+02</asrwt>
<pdfrwt beam="1">  1        1 0.80509346E+00 0.30000000E+03</pdfrwt>
<pdfrwt beam="2">0</pdfrwt>
<totfact> 0.97352879E-04</totfact>
</mgrwt>
<clustering>
<clus scale="   30.994">  1  6  2 -1</clus>
<clus scale="  461.416">  4  5 -1 -1</clus>
<clus scale="  300.000">  1  4  2 -1</clus>
</clustering>
</event>
<event>
 6    1  0.9687246E-012  0.3000000E+03  0.7818608E-02  0.1093470E+00
          1   -1    0    0  502    0  0.00000000000E+00  0.00000000000E+00  0.22840461312E+03  0.22840461312E+03  0.00000000000E+00 0.  1.
         13   -1    0    0    0    0 -0.00000000000E+00 -0.00000000000E+00 -0.27500000000E+03  0.27500000000E+03  0.00000000000E+00 0.  1.
    9000005    2    1    2  501    0 -0.51104589813E+01  0.37603427339E+02 -0.53159576132E+02  0.46489197728E+03  0.46028086585E+03 0.  0.
         13    1    3    3    0    0 -0.11320408261E+02  0.24883991922E+03 -0.10609440654E+02  0.24932311821E+03  0.00000000000E+00 0.  1.
          1    1    3    3  501    0  0.62099492795E+01 -0.21123649188E+03 -0.42550135477E+02  0.21556885907E+03  0.00000000000E+00 0.  1.
         21    1    1    2  502  501  0.51104589813E+01 -0.37603427339E+02  0.65641892522E+01  0.38512635838E+02  0.00000000000E+00 0.  1.
<scales pt_clust_4="550.00000" pt_clust_5="550.00000" pt_clust_6="37.94910"></scales>
<mgrwt>
<rscale>  0 0.30000000E+03</rscale>
<asrwt>  1 0.37949105E+02</asrwt>
<pdfrwt beam="1">  1        1 0.83056223E+00 0.30000000E+03</pdfrwt>
<pdfrwt beam="2">0</pdfrwt>
<totfact> 0.57607435E-04</totfact>
</mgrwt>
<clustering>
<clus scale="   37.949">  1  6  2 -1</clus>
<clus scale="  460.281">  4  5 -1 -1</clus>
<clus scale="  300.000">  1  4  2 -1</clus>
</clustering>
</event>
<event>
 6    1  0.9687246E-012  0.3000000E+03  0.7818608E-02  0.1093470E+00
          1   -1    0    0  502    0  0.00000000000E+00  0.00000000000E+00  0.22496394842E+03  0.22496394842E+03  0.00000000000E+00 0.  1.
         13   -1    0    0    0    0 -0.00000000000E+00 -0.00000000000E+00 -0.27500000000E+03  0.27500000000E+03  0.00000000000E+00 0.  1.
    9000005    2    1    2  501    0 -0.78750689276E+01  0.33735856632E+02 -0.56811638654E+02  0.46466475135E+03  0.45987568334E+03 0.  0.
         13    1    3    3    0    0  0.22027705884E+03  0.54894350102E+02 -0.62508868991E+02  0.23546280179E+03  0.00000000000E+00 0.  1.
          1    1    3    3  501    0 -0.22815212777E+03 -0.21158493470E+02  0.56972303363E+01  0.22920194956E+03  0.00000000000E+00 0.  1.
         21    1    1    2  502  501  0.78750689276E+01 -0.33735856632E+02  0.67755870748E+01  0.35299197066E+02  0.00000000000E+00 0.  1.
<scales pt_clust_4="550.00000" pt_clust_5="550.00000" pt_clust_6="34.64282"></scales>
<mgrwt>
<rscale>  0 0.30000000E+03</rscale>
<asrwt>  1 0.34642816E+02</asrwt>
<pdfrwt beam="1">  1        1 0.81805072E+00 0.30000000E+03</pdfrwt>
<pdfrwt beam="2">0</pdfrwt>
<totfact> 0.75292872E-04</totfact>
</mgrwt>
<clustering>
<clus scale="   34.643">  1  6  2 -1</clus>
<clus scale="  459.876">  4  5 -1 -1</clus>
<clus scale="  300.000">  1  4  2 -1</clus>
</clustering>
</event>
<event>
 6    1  0.9687246E-012  0.3000000E+03  0.7818608E-02  0.1093470E+00
          1   -1    0    0  502    0  0.00000000000E+00  0.00000000000E+00  0.22345062010E+03  0.22345062010E+03  0.00000000000E+00 0.  1.
         13   -1    0    0    0    0 -0.00000000000E+00 -0.00000000000E+00 -0.27500000000E+03  0.27500000000E+03  0.00000000000E+00 0.  1.
    9000005    2    1    2  501    0 -0.79493672172E+00 -0.30202168128E+02 -0.58636842676E+02  0.46741781468E+03  0.46274002558E+03 0.  0.
         13    1    3    3    0    0 -0.55284391487E+02  0.18539664393E+03  0.75548464149E+02  0.20769171855E+03  0.00000000000E+00 0.  1.
          3    1    3    3  501    0  0.54489454765E+02 -0.21559881205E+03 -0.13418530682E+03  0.25972609612E+03  0.00000000000E+00 0.  1.
         21    1    1    2  502  501  0.79493672172E+00  0.30202168128E+02  0.70874627799E+01  0.31032805427E+02  0.00000000000E+00 0. -1.
<scales pt_clust_4="550.00000" pt_clust_5="550.00000" pt_clust_6="30.21263"></scales>
<mgrwt>
<rscale>  0 0.30000000E+03</rscale>
<asrwt>  1 0.30212628E+02</asrwt>
<pdfrwt beam="1">  1        1 0.81254771E+00 0.30000000E+03</pdfrwt>
<pdfrwt beam="2">0</pdfrwt>
<totfact> 0.85640099E-04</totfact>
</mgrwt>
<clustering>
<clus scale="   30.213">  1  6  2 -1</clus>
<clus scale="  462.740">  4  5 -1 -1</clus>
<clus scale="  300.000">  1  4  2 -1</clus>
</clustering>
</event>
<event>
 6    1  0.9687246E-012  0.3000000E+03  0.7818608E-02  0.1093470E+00
          1   -1    0    0  502    0  0.00000000000E+00  0.00000000000E+00  0.23657470367E+03  0.23657470367E+03  0.00000000000E+00 0.  1.
         13   -1    0    0    0    0 -0.00000000000E+00 -0.00000000000E+00 -0.27500000000E+03  0.27500000000E+03  0.00000000000E+00 0.  1.
    9000005    2    1    2  501    0  0.25868426129E+02 -0.16254233248E+02 -0.58376691238E+02  0.47508588720E+03  0.47049483160E+03 0.  0.
         13    1    3    3    0    0  0.17437246101E+03  0.46899969776E+02  0.13335939407E+03  0.22447737149E+03  0.00000000000E+00 0.  1.
          3    1    3    3  501    0 -0.14850403488E+03 -0.63154203024E+02 -0.19173608531E+03  0.25060851571E+03  0.00000000000E+00 0.  1.
         21    1    1    2  502  501 -0.25868426129E+02  0.16254233248E+02  0.19951394905E+02  0.36488816472E+02  0.00000000000E+00 0.  1.
<scales pt_clust_4="550.00000" pt_clust_5="550.00000" pt_clust_6="30.55120"></scales>
<mgrwt>
<rscale>  0 0.30000000E+03</rscale>
<asrwt>  1 0.30551196E+02</asrwt>
<pdfrwt beam="1">  1        1 0.86027165E+00 0.30000000E+03</pdfrwt>
<pdfrwt beam="2">0</pdfrwt>
<totfact> 0.32969195E-04</totfact>
</mgrwt>
<clustering>
<clus scale="   30.551">  1  6  2 -1</clus>
<clus scale="  470.495">  4  5 -1 -1</clus>
<clus scale="  300.000">  1  4  2 -1</clus>
</clustering>
</event>
<event>
 6    1  0.9687246E-012  0.3000000E+03  0.7818608E-02  0.1093470E+00
          1   -1    0    0  502    0  0.00000000000E+00  0.00000000000E+00  0.23922034253E+03  0.23922034253E+03  0.00000000000E+00 0.  1.
         13   -1    0    0    0    0 -0.00000000000E+00 -0.00000000000E+00 -0.27500000000E+03  0.27500000000E+03  0.00000000000E+00 0.  1.
    9000005    2    1    2  501    0 -0.35725434657E+02  0.12628953716E+02 -0.65072775470E+02  0.46632583433E+03  0.46020595444E+03 0.  0.
         13    1    3    3    0    0 -0.22727879469E+03 -0.89989680646E+02 -0.35836724601E+02  0.24705882694E+03  0.00000000000E+00 0.  1.
          3    1    3    3  501    0  0.19155336004E+03  0.10261863436E+03 -0.29236050869E+02  0.21926700739E+03  0.00000000000E+00 0.  1.
         21    1    1    2  502  501  0.35725434657E+02 -0.12628953716E+02  0.29293118001E+02  0.47894508199E+02  0.00000000000E+00 0.  1.
<scales pt_clust_4="550.00000" pt_clust_5="550.00000" pt_clust_6="37.89191"></scales>
<mgrwt>
<rscale>  0 0.30000000E+03</rscale>
<asrwt>  1 0.37891914E+02</asrwt>
<pdfrwt beam="1">  1        1 0.86989215E+00 0.30000000E+03</pdfrwt>
<pdfrwt beam="2">0</pdfrwt>
<totfact> 0.25017945E-04</totfact>
</mgrwt>
<clustering>
<clus scale="   37.892">  1  6  2 -1</clus>
<clus scale="  460.206">  4  5 -1 -1</clus>
<clus scale="  300.000">  1  4  2 -1</clus>
</clustering>
</event>
<event>
 6    1  0.9687246E-012  0.3000000E+03  0.7818608E-02  0.1093470E+00
          1   -1    0    0  502    0  0.00000000000E+00  0.00000000000E+00  0.24909685485E+03  0.24909685485E+03  0.00000000000E+00 0.  1.
         13   -1    0    0    0    0 -0.00000000000E+00 -0.00000000000E+00 -0.27500000000E+03  0.27500000000E+03  0.00000000000E+00 0.  1.
    9000005    2    1    2  501    0  0.28716389521E+02  0.17069333292E+02 -0.70986926190E+02  0.46798499800E+03  0.46136192029E+03 0.  0.
         13    1    3    3    0    0  0.21231517947E+03  0.79402458897E+02 -0.13496056288E+03  0.26381212907E+03  0.00000000000E+00 0.  1.
          1    1    3    3  501    0 -0.18359878995E+03 -0.62333125605E+02  0.63973636686E+02  0.20417286893E+03  0.00000000000E+00 0.  1.
         21    1    1    2  502  501 -0.28716389521E+02 -0.17069333292E+02  0.45083781037E+02  0.56111856847E+02  0.00000000000E+00 0. -1.
<scales pt_clust_4="550.00000" pt_clust_5="550.00000" pt_clust_6="33.40648"></scales>
<mgrwt>
<rscale>  0 0.30000000E+03</rscale>
<asrwt>  1 0.33406484E+02</asrwt>
<pdfrwt beam="1">  1        1 0.90580674E+00 0.30000000E+03</pdfrwt>
<pdfrwt beam="2">0</pdfrwt>
<totfact> 0.89967876E-05</totfact>
</mgrwt>
<clustering>
<clus scale="   33.406">  1  6  2 -1</clus>
<clus scale="  461.362">  4  5 -1 -1</clus>
<clus scale="  300.000">  1  4  2 -1</clus>
</clustering>
</event>
<event>
 6    1  0.9687246E-012  0.3000000E+03  0.7818608E-02  0.1093470E+00
          1   -1    0    0  502    0  0.00000000000E+00  0.00000000000E+00  0.22631032408E+03  0.22631032408E+03  0.00000000000E+00 0.  1.
         13   -1    0    0    0    0 -0.00000000000E+00 -0.00000000000E+00 -0.27500000000E+03  0.27500000000E+03  0.00000000000E+00 0.  1.
    9000005    2    1    2  501    0  0.29757324120E+02 -0.13243521138E+02 -0.69288517662E+02  0.46277201233E+03  0.45639472776E+03 0.  0.
         13    1    3    3    0    0  0.84636431009E+02 -0.21429004176E+03  0.29250330596E+02  0.23224799093E+03  0.00000000000E+00 0.  1.
          1    1    3    3  501    0 -0.54879106889E+02  0.20104652062E+03 -0.98538848258E+02  0.23052402140E+03  0.00000000000E+00 0.  1.
         21    1    1    2  502  501 -0.29757324120E+02  0.13243521138E+02  0.20598841737E+02  0.38538311741E+02  0.00000000000E+00 0. -1.
<scales pt_clust_4="550.00000" pt_clust_5="550.00000" pt_clust_6="32.57129"></scales>
<mgrwt>
<rscale>  0 0.30000000E+03</rscale>
<asrwt>  1 0.32571294E+02</asrwt>
<pdfrwt beam="1">  1        1 0.82294663E+00 0.30000000E+03</pdfrwt>
<pdfrwt beam="2">0</pdfrwt>
<totfact> 0.69063068E-04</totfact>
</mgrwt>
<clustering>
<clus scale="   32.571">  1  6  2 -1</clus>
<clus scale="  456.395">  4  5 -1 -1</clus>
<clus scale="  300.000">  1  4  2 -1</clus>
</clustering>
</event>
<event>
 6    1  0.9687246E-012  0.3000000E+03  0.7818608E-02  0.1093470E+00
          1   -1    0    0  502    0  0.00000000000E+00  0.00000000000E+00  0.23856688185E+03  0.23856688185E+03  0.00000000000E+00 0.  1.
         13   -1    0    0    0    0 -0.00000000000E+00 -0.00000000000E+00 -0.27500000000E+03  0.27500000000E+03  0.00000000000E+00 0.  1.
    9000005    2    1    2  501    0  0.36896227840E+02  0.29210066435E+02 -0.51521120791E+02  0.46414818666E+03  0.45887313463E+03 0.  0.
         13    1    3    3    0    0  0.21687015982E+03 -0.39217641558E+01 -0.14275630909E+03  0.25966788450E+03  0.00000000000E+00 0.  1.
          1    1    3    3  501    0 -0.17997393198E+03  0.33131830591E+02  0.91235188301E+02  0.20448030217E+03  0.00000000000E+00 0.  1.
         21    1    1    2  502  501 -0.36896227840E+02 -0.29210066435E+02  0.15088002638E+02  0.49418695182E+02  0.00000000000E+00 0.  1.
<scales pt_clust_4="550.00000" pt_clust_5="550.00000" pt_clust_6="47.05911"></scales>
<mgrwt>
<rscale>  0 0.30000000E+03</rscale>
<asrwt>  1 0.47059108E+02</asrwt>
<pdfrwt beam="1">  1        1 0.86751593E+00 0.30000000E+03</pdfrwt>
<pdfrwt beam="2">0</pdfrwt>
<totfact> 0.25455350E-04</totfact>
</mgrwt>
<clustering>
<clus scale="   47.059">  1  6  2 -1</clus>
<clus scale="  458.873">  4  5 -1 -1</clus>
<clus scale="  300.000">  1  4  2 -1</clus>
</clustering>
</event>
<event>
 6    1  0.9687246E-012  0.3000000E+03  0.7818608E-02  0.1093470E+00
          1   -1    0    0  502    0  0.00000000000E+00  0.00000000000E+00  0.22612388425E+03  0.22612388425E+03  0.00000000000E+00 0.  1.
         13   -1    0    0    0    0 -0.00000000000E+00 -0.00000000000E+00 -0.27500000000E+03  0.27500000000E+03  0.00000000000E+00 0.  1.
    9000005    2    1    2  501    0 -0.14556330704E+02 -0.27355084787E+02 -0.51844629407E+02  0.46999512744E+03  0.46609802273E+03 0.  0.
         13    1    3    3    0    0 -0.29448766281E+02 -0.83262678960E+02 -0.24917196869E+03  0.26436068831E+03  0.00000000000E+00 0.  1.
          1    1    3    3  501    0  0.14892435577E+02  0.55907594173E+02  0.19732733929E+03  0.20563443912E+03  0.00000000000E+00 0.  1.
         21    1    1    2  502  501  0.14556330704E+02  0.27355084787E+02  0.29685136576E+01  0.31128756811E+02  0.00000000000E+00 0.  1.
<scales pt_clust_4="550.00000" pt_clust_5="550.00000" pt_clust_6="30.98689"></scales>
<mgrwt>
<rscale>  0 0.30000000E+03</rscale>
<asrwt>  1 0.30986891E+02</asrwt>
<pdfrwt beam="1">  1        1 0.82226867E+00 0.30000000E+03</pdfrwt>
<pdfrwt beam="2">0</pdfrwt>
<totfact> 0.70697041E-04</totfact>
</mgrwt>
<clustering>
<clus scale="   30.987">  1  6  2 -1</clus>
<clus scale="  466.098">  4  5 -1 -1</clus>
<clus scale="  300.000">  1  4  2 -1</clus>
</clustering>
</event>
<event>
 6    1  0.9687246E-012  0.3000000E+03  0.7818608E-02  0.1093470E+00
          1   -1    0    0  502    0  0.00000000000E+00  0.00000000000E+00  0.23632828589E+03  0.23632828589E+03  0.00000000000E+00 0.  1.
         13   -1    0    0    0    0 -0.00000000000E+00 -0.00000000000E+00 -0.27500000000E+03  0.27500000000E+03  0.00000000000E+00 0.  1.
    9000005    2    1    2  501    0 -0.40014649230E+02  0.14610084365E+02 -0.51029027273E+02  0.46697369304E+03  0.46221839172E+03 0.  0.
         13    1    3    3    0    0  0.13285885772E+03 -0.15686907106E+03  0.35393840885E+02  0.20859555485E+03  0.00000000000E+00 0.  1.
          1    1    3    3  501    0 -0.17287350695E+03  0.17147915543E+03 -0.86422868158E+02  0.25837813819E+03  0.00000000000E+00 0.  1.
         21    1    1    2  502  501  0.40014649230E+02 -0.14610084365E+02  0.12357313158E+02  0.44354592847E+02  0.00000000000E+00 0. -1.
<scales pt_clust_4="550.00000" pt_clust_5="550.00000" pt_clust_6="42.59844"></scales>
<mgrwt>
<rscale>  0 0.30000000E+03</rscale>
<asrwt>  1 0.42598436E+02</asrwt>
<pdfrwt beam="1">  1        1 0.85937559E+00 0.30000000E+03</pdfrwt>
<pdfrwt beam="2">0</pdfrwt>
<totfact> 0.31680722E-04</totfact>
</mgrwt>
<clustering>
<clus scale="   42.598">  1  6  2 -1</clus>
<clus scale="  462.218">  4  5 -1 -1</clus>
<clus scale="  300.000">  1  4  2 -1</clus>
</clustering>
</event>
<event>
 6    1  0.9687246E-012  0.3000000E+03  0.7818608E-02  0.1093470E+00
          1   -1    0    0  502    0  0.00000000000E+00  0.00000000000E+00  0.22885910781E+03  0.22885910781E+03  0.00000000000E+00 0.  1.
         13   -1    0    0    0    0 -0.00000000000E+00 -0.00000000000E+00 -0.27500000000E+03  0.27500000000E+03  0.00000000000E+00 0.  1.
    9000005    2    1    2  501    0 -0.21111730117E+02 -0.26208431823E+02 -0.46118182498E+02  0.47020516951E+03  0.46672628770E+03 0.  0.
         13    1    3    3    0    0  0.14342229515E+02 -0.22159546089E+03  0.78774635401E+02  0.23561767976E+03  0.00000000000E+00 0.  1.
          3    1    3    3  501    0 -0.35453959632E+02  0.19538702907E+03 -0.12489281790E+03  0.23458748974E+03  0.00000000000E+00 0.  1.
         21    1    1    2  502  501  0.21111730117E+02  0.26208431823E+02 -0.22709696232E-01  0.33653938297E+02  0.00000000000E+00 0. -1.
<scales pt_clust_4="550.00000" pt_clust_5="550.00000" pt_clust_6="33.65393"></scales>
<mgrwt>
<rscale>  0 0.30000000E+03</rscale>
<asrwt>  1 0.33653931E+02</asrwt>
<pdfrwt beam="1">  1        1 0.83221494E+00 0.30000000E+03</pdfrwt>
<pdfrwt beam="2">0</pdfrwt>
<totfact> 0.57170771E-04</totfact>
</mgrwt>
<clustering>
<clus scale="   33.654">  1  6  2 -1</clus>
<clus scale="  466.726">  4  5 -1 -1</clus>
<clus scale="  300.000">  1  4  2 -1</clus>
</clustering>
</event>
<event>
 6    1  0.9687246E-012  0.3000000E+03  0.7818608E-02  0.1093470E+00
          1   -1    0    0  502    0  0.00000000000E+00  0.00000000000E+00  0.23229331067E+03  0.23229331067E+03  0.00000000000E+00 0.  1.
         13   -1    0    0    0    0 -0.00000000000E+00 -0.00000000000E+00 -0.27500000000E+03  0.27500000000E+03  0.00000000000E+00 0.  1.
    9000005    2    1    2  501    0  0.15294105124E+02  0.31669133192E+02 -0.59539972959E+02  0.46830352885E+03  0.46316988579E+03 0.  0.
         13    1    3    3    0    0  0.19429981617E+03 -0.99621279168E+02  0.44983469577E+02  0.22293570903E+03  0.00000000000E+00 0.  1.
          1    1    3    3  501    0 -0.17900571104E+03  0.13129041236E+03 -0.10452344254E+03  0.24536781982E+03  0.00000000000E+00 0.  1.
         21    1    1    2  502  501 -0.15294105124E+02 -0.31669133192E+02  0.16833283627E+02  0.38989781820E+02  0.00000000000E+00 0.  1.
<scales pt_clust_4="550.00000" pt_clust_5="550.00000" pt_clust_6="35.16879"></scales>
<mgrwt>
<rscale>  0 0.30000000E+03</rscale>
<asrwt>  1 0.35168788E+02</asrwt>
<pdfrwt beam="1">  1        1 0.84470295E+00 0.30000000E+03</pdfrwt>
<pdfrwt beam="2">0</pdfrwt>
<totfact> 0.45411768E-04</totfact>
</mgrwt>
<clustering>
<clus scale="   35.169">  1  6  2 -1</clus>
<clus scale="  463.170">  4  5 -1 -1</clus>
<clus scale="  300.000">  1  4  2 -1</clus>
</clustering>
</event>
<event>
 6    1  0.9687246E-012  0.3000000E+03  0.7818608E-02  0.1093470E+00
          1   -1    0    0  502    0  0.00000000000E+00  0.00000000000E+00  0.23832805590E+03  0.23832805590E+03  0.00000000000E+00 0.  1.
         13   -1    0    0    0    0 -0.00000000000E+00 -0.00000000000E+00 -0.27500000000E+03  0.27500000000E+03  0.00000000000E+00 0.  1.
    9000005    2    1    2  501    0 -0.25073457522E+02 -0.22219397290E+02 -0.58984358356E+02  0.47307605324E+03  0.46818737460E+03 0.  0.
         13    1    3    3    0    0  0.26159721229E+02  0.12970422168E+03  0.15621274481E+03  0.20471916808E+03  0.00000000000E+00 0.  1.
          1    1    3    3  501    0 -0.51233178750E+02 -0.15192361897E+03 -0.21519710316E+03  0.26835688517E+03  0.00000000000E+00 0.  1.
         21    1    1    2  502  501  0.25073457522E+02  0.22219397290E+02  0.22312414260E+02  0.40252002660E+02  0.00000000000E+00 0.  1.
<scales pt_clust_4="550.00000" pt_clust_5="550.00000" pt_clust_6="33.50194"></scales>
<mgrwt>
<rscale>  0 0.30000000E+03</rscale>
<asrwt>  1 0.33501939E+02</asrwt>
<pdfrwt beam="1">  1        1 0.86664748E+00 0.30000000E+03</pdfrwt>
<pdfrwt beam="2">0</pdfrwt>
<totfact> 0.27661894E-04</totfact>
</mgrwt>
<clustering>
<clus scale="   33.502">  1  6  2 -1</clus>
<clus scale="  468.187">  4  5 -1 -1</clus>
<clus scale="  300.000">  1  4  2 -1</clus>
</clustering>
</event>
<event>
 6    1  0.9687246E-012  0.3000000E+03  0.7818608E-02  0.1093470E+00
          1   -1    0    0  502    0  0.00000000000E+00  0.00000000000E+00  0.23666875804E+03  0.23666875804E+03  0.00000000000E+00 0.  1.
         13   -1    0    0    0    0 -0.00000000000E+00 -0.00000000000E+00 -0.27500000000E+03  0.27500000000E+03  0.00000000000E+00 0.  1.
    9000005    2    1    2  501    0  0.11670170711E+02  0.33612217469E+02 -0.35343576168E+02  0.47596301348E+03  0.47331347728E+03 0.  0.
         13    1    3    3    0    0  0.15201441460E+03  0.84281878769E+01 -0.20435849946E+03  0.25483683584E+03  0.00000000000E+00 0.  1.
          1    1    3    3  501    0 -0.14034424389E+03  0.25184029593E+02  0.16901492330E+03  0.22112617764E+03  0.00000000000E+00 0.  1.
         21    1    1    2  502  501 -0.11670170711E+02 -0.33612217469E+02 -0.29876657973E+01  0.35705744559E+02  0.00000000000E+00 0.  1.
<scales pt_clust_4="550.00000" pt_clust_5="550.00000" pt_clust_6="35.58055"></scales>
<mgrwt>
<rscale>  0 0.30000000E+03</rscale>
<asrwt>  1 0.35580547E+02</asrwt>
<pdfrwt beam="1">  1        1 0.86061367E+00 0.30000000E+03</pdfrwt>
<pdfrwt beam="2">0</pdfrwt>
<totfact> 0.31763451E-04</totfact>
</mgrwt>
<clustering>
<clus scale="   35.581">  1  6  2 -1</clus>
<clus scale="  473.313">  4  5 -1 -1</clus>
<clus scale="  300.000">  1  4  2 -1</clus>
</clustering>
</event>
<event>
 6    1  0.9687246E-012  0.3000000E+03  0.7818608E-02  0.1093470E+00
          1   -1    0    0  502    0  0.00000000000E+00  0.00000000000E+00  0.22472557532E+03  0.22472557532E+03  0.00000000000E+00 0.  1.
         13   -1    0    0    0    0 -0.00000000000E+00 -0.00000000000E+00 -0.27500000000E+03  0.27500000000E+03  0.00000000000E+00 0.  1.
    9000005    2    1    2  501    0  0.21909239364E+02  0.31282051551E+02 -0.53942843574E+02  0.46135841728E+03  0.45659958093E+03 0.  0.
         13    1    3    3    0    0 -0.40486627671E+02 -0.84474469875E+02 -0.22609171945E+03  0.24472958277E+03  0.00000000000E+00 0.  1.
          1    1    3    3  501    0  0.62395867036E+02  0.11575652143E+03  0.17214887587E+03  0.21662883451E+03  0.00000000000E+00 0.  1.
         21    1    1    2  502  501 -0.21909239364E+02 -0.31282051551E+02  0.36684188906E+01  0.38367158038E+02  0.00000000000E+00 0. -1.
<scales pt_clust_4="550.00000" pt_clust_5="550.00000" pt_clust_6="38.19138"></scales>
<mgrwt>
<rscale>  0 0.30000000E+03</rscale>
<asrwt>  1 0.38191380E+02</asrwt>
<pdfrwt beam="1">  1        1 0.81718391E+00 0.30000000E+03</pdfrwt>
<pdfrwt beam="2">0</pdfrwt>
<totfact> 0.75175709E-04</totfact>
</mgrwt>
<clustering>
<clus scale="   38.191">  1  6  2 -1</clus>
<clus scale="  456.600">  4  5 -1 -1</clus>
<clus scale="  300.000">  1  4  2 -1</clus>
</clustering>
</event>
<event>
 6    1  0.9687246E-012  0.3000000E+03  0.7818608E-02  0.1093470E+00
          1   -1    0    0  502    0  0.00000000000E+00  0.00000000000E+00  0.23948654222E+03  0.23948654222E+03  0.00000000000E+00 0.  1.
         13   -1    0    0    0    0 -0.00000000000E+00 -0.00000000000E+00 -0.27500000000E+03  0.27500000000E+03  0.00000000000E+00 0.  1.
    9000005    2    1    2  501    0  0.29504275492E+02  0.83441073643E+01 -0.44599444515E+02  0.48250714956E+03  0.47946210750E+03 0.  0.
         13    1    3    3    0    0  0.96486960527E+02  0.19582175122E+03  0.96308113078E+02  0.23860248206E+03  0.00000000000E+00 0.  1.
          3    1    3    3  501    0 -0.66982685035E+02 -0.18747764386E+03 -0.14090755759E+03  0.24390466750E+03  0.00000000000E+00 0.  1.
         21    1    1    2  502  501 -0.29504275492E+02 -0.83441073643E+01  0.90859867386E+01  0.31979392662E+02  0.00000000000E+00 0.  1.
<scales pt_clust_4="550.00000" pt_clust_5="550.00000" pt_clust_6="30.66148"></scales>
<mgrwt>
<rscale>  0 0.30000000E+03</rscale>
<asrwt>  1 0.30661481E+02</asrwt>
<pdfrwt beam="1">  1        1 0.87086015E+00 0.30000000E+03</pdfrwt>
<pdfrwt beam="2">0</pdfrwt>
<totfact> 0.25447795E-04</totfact>
</mgrwt>
<clustering>
<clus scale="   30.661">  1  6  2 -1</clus>
<clus scale="  479.462">  4  5 -1 -1</clus>
<clus scale="  300.000">  1  4  2 -1</clus>
</clustering>
</event>
<event>
 6    1  0.9687246E-012  0.3000000E+03  0.7818608E-02  0.1093470E+00
          1   -1    0    0  502    0  0.00000000000E+00  0.00000000000E+00  0.23928887521E+03  0.23928887521E+03  0.00000000000E+00 0.  1.
         13   -1    0    0    0    0 -0.00000000000E+00 -0.00000000000E+00 -0.27500000000E+03  0.27500000000E+03  0.00000000000E+00 0.  1.
    9000005    2    1    2  501    0 -0.12880258620E+02  0.46692983468E+02 -0.30522308137E+02  0.46557481579E+03  0.46204129905E+03 0.  0.
         13    1    3    3    0    0  0.10050306333E+03 -0.16259145318E+03  0.74837418915E+02  0.20527417191E+03  0.00000000000E+00 0.  1.
          3    1    3    3  501    0 -0.11338332195E+03  0.20928443664E+03 -0.10535972705E+03  0.26030064387E+03  0.00000000000E+00 0.  1.
         21    1    1    2  502  501  0.12880258620E+02 -0.46692983468E+02 -0.51888166542E+01  0.48714059423E+02  0.00000000000E+00 0. -1.
<scales pt_clust_4="550.00000" pt_clust_5="550.00000" pt_clust_6="48.43695"></scales>
<mgrwt>
<rscale>  0 0.30000000E+03</rscale>
<asrwt>  1 0.48436950E+02</asrwt>
<pdfrwt beam="1">  1        1 0.87014136E+00 0.30000000E+03</pdfrwt>
<pdfrwt beam="2">0</pdfrwt>
<totfact> 0.23794842E-04</totfact>
</mgrwt>
<clustering>
<clus scale="   48.437">  1  6  2 -1</clus>
<clus scale="  462.041">  4  5 -1 -1</clus>
<clus scale="  300.000">  1  4  2 -1</clus>
</clustering>
</event>
<event>
 6    1  0.9687246E-012  0.3000000E+03  0.7818608E-02  0.1093470E+00
          1   -1    0    0  502    0  0.00000000000E+00  0.00000000000E+00  0.23503498436E+03  0.23503498436E+03  0.00000000000E+00 0.  1.
         13   -1    0    0    0    0 -0.00000000000E+00 -0.00000000000E+00 -0.27500000000E+03  0.27500000000E+03  0.00000000000E+00 0.  1.
    9000005    2    1    2  501    0 -0.35933758479E+02 -0.19551743660E+02 -0.61610650395E+02  0.46375281520E+03  0.45781797221E+03 0.  0.
         13    1    3    3    0    0  0.53270686515E+01  0.87721175951E+02  0.17771615660E+03  0.19825845427E+03  0.00000000000E+00 0.  1.
          1    1    3    3  501    0 -0.41260827130E+02 -0.10727291961E+03 -0.23932680700E+03  0.26549436093E+03  0.00000000000E+00 0.  1.
         21    1    1    2  502  501  0.35933758479E+02  0.19551743660E+02  0.21645634753E+02  0.46282169163E+02  0.00000000000E+00 0. -1.
<scales pt_clust_4="550.00000" pt_clust_5="550.00000" pt_clust_6="40.90850"></scales>
<mgrwt>
<rscale>  0 0.30000000E+03</rscale>
<asrwt>  1 0.40908504E+02</asrwt>
<pdfrwt beam="1">  1        1 0.85467267E+00 0.30000000E+03</pdfrwt>
<pdfrwt beam="2">0</pdfrwt>
<totfact> 0.35665442E-04</totfact>
</mgrwt>
<clustering>
<clus scale="   40.909">  1  6  2 -1</clus>
<clus scale="  457.818">  4  5 -1 -1</clus>
<clus scale="  300.000">  1  4  2 -1</clus>
</clustering>
</event>
<event>
 6    1  0.9687246E-012  0.3000000E+03  0.7818608E-02  0.1093470E+00
          1   -1    0    0  502    0  0.00000000000E+00  0.00000000000E+00  0.22260824571E+03  0.22260824571E+03  0.00000000000E+00 0.  1.
         13   -1    0    0    0    0 -0.00000000000E+00 -0.00000000000E+00 -0.27500000000E+03  0.27500000000E+03  0.00000000000E+00 0.  1.
    9000005    2    1    2  501    0  0.25509873873E+02  0.25056009673E+02 -0.48221592431E+02  0.46160897438E+03  0.45768872170E+03 0.  0.
         13    1    3    3    0    0  0.22918713261E+03 -0.51999301669E+02  0.13091020404E+02  0.23537638782E+03  0.00000000000E+00 0.  1.
          1    1    3    3  501    0 -0.20367725874E+03  0.77055311342E+02 -0.61312612835E+02  0.22623258657E+03  0.00000000000E+00 0.  1.
         21    1    1    2  502  501 -0.25509873873E+02 -0.25056009673E+02 -0.41701618621E+01  0.35999271322E+02  0.00000000000E+00 0. -1.
<scales pt_clust_4="550.00000" pt_clust_5="550.00000" pt_clust_6="35.75694"></scales>
<mgrwt>
<rscale>  0 0.30000000E+03</rscale>
<asrwt>  1 0.35756937E+02</asrwt>
<pdfrwt beam="1">  1        1 0.80948453E+00 0.30000000E+03</pdfrwt>
<pdfrwt beam="2">0</pdfrwt>
<totfact> 0.87673499E-04</totfact>
</mgrwt>
<clustering>
<clus scale="   35.757">  1  6  2 -1</clus>
<clus scale="  457.689">  4  5 -1 -1</clus>
<clus scale="  300.000">  1  4  2 -1</clus>
</clustering>
</event>
<event>
 6    1  0.9687246E-012  0.3000000E+03  0.7818608E-02  0.1093470E+00
          1   -1    0    0  502    0  0.00000000000E+00  0.00000000000E+00  0.24835744278E+03  0.24835744278E+03  0.00000000000E+00 0.  1.
         13   -1    0    0    0    0 -0.00000000000E+00 -0.00000000000E+00 -0.27500000000E+03  0.27500000000E+03  0.00000000000E+00 0.  1.
    9000005    2    1    2  501    0  0.19372972947E+02 -0.41774271195E+02 -0.30547542657E+02  0.47714434154E+03  0.47393371740E+03 0.  0.
         13    1    3    3    0    0  0.61165807186E+02 -0.65082510506E+02  0.21193466356E+03  0.22998541424E+03  0.00000000000E+00 0.  1.
          3    1    3    3  501    0 -0.41792834239E+02  0.23308239311E+02 -0.24248220622E+03  0.24715892730E+03  0.00000000000E+00 0.  1.
         21    1    1    2  502  501 -0.19372972947E+02  0.41774271195E+02  0.39049854326E+01  0.46213101236E+02  0.00000000000E+00 0.  1.
<scales pt_clust_4="550.00000" pt_clust_5="550.00000" pt_clust_6="46.04782"></scales>
<mgrwt>
<rscale>  0 0.30000000E+03</rscale>
<asrwt>  1 0.46047821E+02</asrwt>
<pdfrwt beam="1">  1        1 0.90311797E+00 0.30000000E+03</pdfrwt>
<pdfrwt beam="2">0</pdfrwt>
<totfact> 0.94906192E-05</totfact>
</mgrwt>
<clustering>
<clus scale="   46.048">  1  6  2 -1</clus>
<clus scale="  473.934">  4  5 -1 -1</clus>
<clus scale="  300.000">  1  4  2 -1</clus>
</clustering>
</event>
<event>
 6    1  0.9687246E-012  0.3000000E+03  0.7818608E-02  0.1093470E+00
          1   -1    0    0  502    0  0.00000000000E+00  0.00000000000E+00  0.24749387791E+03  0.24749387791E+03  0.00000000000E+00 0.  1.
         13   -1    0    0    0    0 -0.00000000000E+00 -0.00000000000E+00 -0.27500000000E+03  0.27500000000E+03  0.00000000000E+00 0.  1.
    9000005    2    1    2  501    0  0.16507517777E+02 -0.33751137792E+02 -0.60721956058E+02  0.47234480941E+03  0.46691629398E+03 0.  0.
         13    1    3    3    0    0  0.95611520125E+02 -0.19876698779E+03 -0.15197815307E+03  0.26785674758E+03  0.00000000000E+00 0.  1.
          3    1    3    3  501    0 -0.79104002348E+02  0.16501584999E+03  0.91256197012E+02  0.20448806183E+03  0.00000000000E+00 0.  1.
         21    1    1    2  502  501 -0.16507517777E+02  0.33751137792E+02  0.33215833973E+02  0.50149068505E+02  0.00000000000E+00 0.  1.
<scales pt_clust_4="550.00000" pt_clust_5="550.00000" pt_clust_6="37.57176"></scales>
<mgrwt>
<rscale>  0 0.30000000E+03</rscale>
<asrwt>  1 0.37571764E+02</asrwt>
<pdfrwt beam="1">  1        1 0.89997774E+00 0.30000000E+03</pdfrwt>
<pdfrwt beam="2">0</pdfrwt>
<totfact> 0.10906653E-04</totfact>
</mgrwt>
<clustering>
<clus scale="   37.572">  1  6  2 -1</clus>
<clus scale="  466.916">  4  5 -1 -1</clus>
<clus scale="  300.000">  1  4  2 -1</clus>
</clustering>
</event>
<event>
 6    1  0.9687246E-012  0.3000000E+03  0.7818608E-02  0.1093470E+00
          1   -1    0    0  502    0  0.00000000000E+00  0.00000000000E+00  0.25485077686E+03  0.25485077686E+03  0.00000000000E+00 0.  1.
         13   -1    0    0    0    0 -0.00000000000E+00 -0.00000000000E+00 -0.27500000000E+03  0.27500000000E+03  0.00000000000E+00 0.  1.
    9000005    2    1    2  501    0 -0.29924302519E+02 -0.23290507978E+02 -0.74315643964E+02  0.46373033533E+03  0.45616345461E+03 0.  0.
         13    1    3    3    0    0  0.29744342659E+02  0.14645982570E+03  0.12527296971E+03  0.19500903415E+03  0.00000000000E+00 0.  1.
          1    1    3    3  501    0 -0.59668645177E+02 -0.16975033367E+03 -0.19958861367E+03  0.26872130118E+03  0.00000000000E+00 0.  1.
         21    1    1    2  502  501  0.29924302519E+02  0.23290507978E+02  0.54166420826E+02  0.66120441530E+02  0.00000000000E+00 0.  1.
<scales pt_clust_4="550.00000" pt_clust_5="550.00000" pt_clust_6="37.91981"></scales>
<mgrwt>
<rscale>  0 0.30000000E+03</rscale>
<asrwt>  1 0.37919805E+02</asrwt>
<pdfrwt beam="1">  1        1 0.92673010E+00 0.30000000E+03</pdfrwt>
<pdfrwt beam="2">0</pdfrwt>
<totfact> 0.29762869E-05</totfact>
</mgrwt>
<clustering>
<clus scale="   37.920">  1  6  2 -1</clus>
<clus scale="  456.163">  4  5 -1 -1</clus>
<clus scale="  300.000">  1  4  2 -1</clus>
</clustering>
</event>
<event>
 6    1  0.9687246E-012  0.3000000E+03  0.7818608E-02  0.1093470E+00
          1   -1    0    0  502    0  0.00000000000E+00  0.00000000000E+00  0.23723948315E+03  0.23723948315E+03  0.00000000000E+00 0.  1.
         13   -1    0    0    0    0 -0.00000000000E+00 -0.00000000000E+00 -0.27500000000E+03  0.27500000000E+03  0.00000000000E+00 0.  1.
    9000005    2    1    2  501    0 -0.28946271736E+02 -0.33054753980E+02 -0.41294425146E+02  0.46816010116E+03  0.46426086133E+03 0.  0.
         13    1    3    3    0    0 -0.12708580081E+03 -0.21704312714E+03 -0.60698889792E+02  0.25873321207E+03  0.00000000000E+00 0.  1.
          1    1    3    3  501    0  0.98139529074E+02  0.18398837316E+03  0.19404464646E+02  0.20942688909E+03  0.00000000000E+00 0.  1.
         21    1    1    2  502  501  0.28946271736E+02  0.33054753980E+02  0.35339082917E+01  0.44079381982E+02  0.00000000000E+00 0.  1.
<scales pt_clust_4="550.00000" pt_clust_5="550.00000" pt_clust_6="43.93749"></scales>
<mgrwt>
<rscale>  0 0.30000000E+03</rscale>
<asrwt>  1 0.43937494E+02</asrwt>
<pdfrwt beam="1">  1        1 0.86268903E+00 0.30000000E+03</pdfrwt>
<pdfrwt beam="2">0</pdfrwt>
<totfact> 0.29026503E-04</totfact>
</mgrwt>
<clustering>
<clus scale="   43.937">  1  6  2 -1</clus>
<clus scale="  464.261">  4  5 -1 -1</clus>
<clus scale="  300.000">  1  4  2 -1</clus>
</clustering>
</event>
<event>
 6    1  0.9687246E-012  0.3000000E+03  0.7818608E-02  0.1093470E+00
          1   -1    0    0  502    0  0.00000000000E+00  0.00000000000E+00  0.22589563274E+03  0.22589563274E+03  0.00000000000E+00 0.  1.
         13   -1    0    0    0    0 -0.00000000000E+00 -0.00000000000E+00 -0.27500000000E+03  0.27500000000E+03  0.00000000000E+00 0.  1.
    9000005    2    1    2  501    0 -0.37011879565E+02  0.17809143732E+01 -0.52758891880E+02  0.46366115363E+03  0.45915695990E+03 0.  0.
         13    1    3    3    0    0  0.59173485442E+02  0.19720301110E+03  0.65191893399E+02  0.21596414501E+03  0.00000000000E+00 0.  1.
          1    1    3    3  501    0 -0.96185365007E+02 -0.19542209672E+03 -0.11795078528E+03  0.24769700862E+03  0.00000000000E+00 0.  1.
         21    1    1    2  502  501  0.37011879565E+02 -0.17809143732E+01  0.36545246227E+01  0.37234479117E+02  0.00000000000E+00 0.  1.
<scales pt_clust_4="550.00000" pt_clust_5="550.00000" pt_clust_6="37.05470"></scales>
<mgrwt>
<rscale>  0 0.30000000E+03</rscale>
<asrwt>  1 0.37054701E+02</asrwt>
<pdfrwt beam="1">  1        1 0.82143866E+00 0.30000000E+03</pdfrwt>
<pdfrwt beam="2">0</pdfrwt>
<totfact> 0.69522866E-04</totfact>
</mgrwt>
<clustering>
<clus scale="   37.055">  1  6  2 -1</clus>
<clus scale="  459.157">  4  5 -1 -1</clus>
<clus scale="  300.000">  1  4  2 -1</clus>
</clustering>
</event>
<event>
 6    1  0.9687246E-012  0.3000000E+03  0.7818608E-02  0.1093470E+00
          1   -1    0    0  502    0  0.00000000000E+00  0.00000000000E+00  0.24951708068E+03  0.24951708068E+03  0.00000000000E+00 0.  1.
         13   -1    0    0    0    0 -0.00000000000E+00 -0.00000000000E+00 -0.27500000000E+03  0.27500000000E+03  0.00000000000E+00 0.  1.
    9000005    2    1    2  501    0  0.92744707339E+01 -0.30072563807E+02 -0.76359918574E+02  0.46469364084E+03  0.45729527416E+03 0.  0.
         13    1    3    3    0    0 -0.12088652376E+03  0.17662608029E+03 -0.39903356661E+02  0.21772138558E+03  0.00000000000E+00 0.  1.
          3    1    3    3  501    0  0.13016099450E+03 -0.20669864410E+03 -0.36456561913E+02  0.24697225526E+03  0.00000000000E+00 0.  1.
         21    1    1    2  502  501 -0.92744707339E+01  0.30072563807E+02  0.50876999259E+02  0.59823439845E+02  0.00000000000E+00 0. -1.
<scales pt_clust_4="550.00000" pt_clust_5="550.00000" pt_clust_6="31.47022"></scales>
<mgrwt>
<rscale>  0 0.30000000E+03</rscale>
<asrwt>  1 0.31470222E+02</asrwt>
<pdfrwt beam="1">  1        1 0.90733484E+00 0.30000000E+03</pdfrwt>
<pdfrwt beam="2">0</pdfrwt>
<totfact> 0.84528451E-05</totfact>
</mgrwt>
<clustering>
<clus scale="   31.470">  1  6  2 -1</clus>
<clus scale="  457.295">  4  5 -1 -1</clus>
<clus scale="  300.000">  1  4  2 -1</clus>
</clustering>
</event>
<event>
 6    1  0.9687246E-012  0.3000000E+03  0.7818608E-02  0.1093470E+00
          1   -1    0    0  502    0  0.00000000000E+00  0.00000000000E+00  0.25155446960E+03  0.25155446960E+03  0.00000000000E+00 0.  1.
         13   -1    0    0    0    0 -0.00000000000E+00 -0.00000000000E+00 -0.27500000000E+03  0.27500000000E+03  0.00000000000E+00 0.  1.
    9000005    2    1    2  501    0  0.18807044194E+02 -0.27905826619E+02 -0.75623138838E+02  0.46446628318E+03  0.45703132170E+03 0.  0.
         13    1    3    3    0    0 -0.16281397359E+03 -0.98175975362E+02 -0.16355533808E+03  0.25079326297E+03  0.00000000000E+00 0.  1.
          3    1    3    3  501    0  0.18162101778E+03  0.70270148742E+02  0.87932199246E+02  0.21367302021E+03  0.00000000000E+00 0.  1.
         21    1    1    2  502  501 -0.18807044194E+02  0.27905826619E+02  0.52177608437E+02  0.62088186419E+02  0.00000000000E+00 0.  1.
<scales pt_clust_4="550.00000" pt_clust_5="550.00000" pt_clust_6="33.65175"></scales>
<mgrwt>
<rscale>  0 0.30000000E+03</rscale>
<asrwt>  1 0.33651747E+02</asrwt>
<pdfrwt beam="1">  1        1 0.91474353E+00 0.30000000E+03</pdfrwt>
<pdfrwt beam="2">0</pdfrwt>
<totfact> 0.55302832E-05</totfact>
</mgrwt>
<clustering>
<clus scale="   33.652">  1  6  2 -1</clus>
<clus scale="  457.031">  4  5 -1 -1</clus>
<clus scale="  300.000">  1  4  2 -1</clus>
</clustering>
</event>
<event>
 6    1  0.9687246E-012  0.3000000E+03  0.7818608E-02  0.1093470E+00
          1   -1    0    0  502    0  0.00000000000E+00  0.00000000000E+00  0.23554872887E+03  0.23554872887E+03  0.00000000000E+00 0.  1.
         13   -1    0    0    0    0 -0.00000000000E+00 -0.00000000000E+00 -0.27500000000E+03  0.27500000000E+03  0.00000000000E+00 0.  1.
    9000005    2    1    2  501    0  0.42007240258E+02  0.94958128005E+01 -0.45905445123E+02  0.46700065133E+03  0.46273914872E+03 0.  0.
         13    1    3    3    0    0  0.87622758887E+01  0.12050407686E+03 -0.22401048231E+03  0.25451661283E+03  0.00000000000E+00 0.  1.
          1    1    3    3  501    0  0.33244964369E+02 -0.11100826406E+03  0.17810503719E+03  0.21248403850E+03  0.00000000000E+00 0.  1.
         21    1    1    2  502  501 -0.42007240258E+02 -0.94958128005E+01  0.64541739890E+01  0.43548077532E+02  0.00000000000E+00 0.  1.
<scales pt_clust_4="550.00000" pt_clust_5="550.00000" pt_clust_6="43.06714"></scales>
<mgrwt>
<rscale>  0 0.30000000E+03</rscale>
<asrwt>  1 0.43067142E+02</asrwt>
<pdfrwt beam="1">  1        1 0.85654083E+00 0.30000000E+03</pdfrwt>
<pdfrwt beam="2">0</pdfrwt>
<totfact> 0.33843095E-04</totfact>
</mgrwt>
<clustering>
<clus scale="   43.067">  1  6  2 -1</clus>
<clus scale="  462.739">  4  5 -1 -1</clus>
<clus scale="  300.000">  1  4  2 -1</clus>
</clustering>
</event>
<event>
 6    1  0.9687246E-012  0.3000000E+03  0.7818608E-02  0.1093470E+00
          1   -1    0    0  502    0  0.00000000000E+00  0.00000000000E+00  0.23348181076E+03  0.23348181076E+03  0.00000000000E+00 0.  1.
         13   -1    0    0    0    0 -0.00000000000E+00 -0.00000000000E+00 -0.27500000000E+03  0.27500000000E+03  0.00000000000E+00 0.  1.
    9000005    2    1    2  501    0 -0.29263268239E+02  0.12062967793E+02 -0.37829184739E+02  0.47661548348E+03  0.47405634456E+03 0.  0.
         13    1    3    3    0    0  0.36827173339E+02  0.18270278884E+03  0.13086339628E+03  0.22773181208E+03  0.00000000000E+00 0.  1.
          3    1    3    3  501    0 -0.66090441578E+02 -0.17063982105E+03 -0.16869258102E+03  0.24888367140E+03  0.00000000000E+00 0.  1.
         21    1    1    2  502  501  0.29263268239E+02 -0.12062967793E+02 -0.36890045036E+01  0.31866327279E+02  0.00000000000E+00 0. -1.
<scales pt_clust_4="550.00000" pt_clust_5="550.00000" pt_clust_6="31.65209"></scales>
<mgrwt>
<rscale>  0 0.30000000E+03</rscale>
<asrwt>  1 0.31652094E+02</asrwt>
<pdfrwt beam="1">  1        1 0.84902477E+00 0.30000000E+03</pdfrwt>
<pdfrwt beam="2">0</pdfrwt>
<totfact> 0.42356687E-04</totfact>
</mgrwt>
<clustering>
<clus scale="   31.652">  1  6  2 -1</clus>
<clus scale="  474.056">  4  5 -1 -1</clus>
<clus scale="  300.000">  1  4  2 -1</clus>
</clustering>
</event>
<event>
 6    1  0.9687246E-012  0.3000000E+03  0.7818608E-02  0.1093470E+00
          1   -1    0    0  502    0  0.00000000000E+00  0.00000000000E+00  0.23224125464E+03  0.23224125464E+03  0.00000000000E+00 0.  1.
         13   -1    0    0    0    0 -0.00000000000E+00 -0.00000000000E+00 -0.27500000000E+03  0.27500000000E+03  0.00000000000E+00 0.  1.
    9000005    2    1    2  501    0  0.28945764027E+02  0.81763259191E+01 -0.59224747230E+02  0.47295074898E+03  0.46826288634E+03 0.  0.
         13    1    3    3    0    0 -0.33485921974E+02  0.14429231048E+03  0.15316569321E+03  0.21307582549E+03  0.00000000000E+00 0.  1.
          1    1    3    3  501    0  0.62431686001E+02 -0.13611598456E+03 -0.21239044044E+03  0.25987492349E+03  0.00000000000E+00 0.  1.
         21    1    1    2  502  501 -0.28945764027E+02 -0.81763259191E+01  0.16466001874E+02  0.34290505659E+02  0.00000000000E+00 0. -1.
<scales pt_clust_4="550.00000" pt_clust_5="550.00000" pt_clust_6="30.07839"></scales>
<mgrwt>
<rscale>  0 0.30000000E+03</rscale>
<asrwt>  1 0.30078390E+02</asrwt>
<pdfrwt beam="1">  1        1 0.84451365E+00 0.30000000E+03</pdfrwt>
<pdfrwt beam="2">0</pdfrwt>
<totfact> 0.46955737E-04</totfact>
</mgrwt>
<clustering>
<clus scale="   30.078">  1  6  2 -1</clus>
<clus scale="  468.263">  4  5 -1 -1</clus>
<clus scale="  300.000">  1  4  2 -1</clus>
</clustering>
</event>
<event>
 6    1  0.9687246E-012  0.3000000E+03  0.7818608E-02  0.1093470E+00
          1   -1    0    0  502    0  0.00000000000E+00  0.00000000000E+00  0.24741973528E+03  0.24741973528E+03  0.00000000000E+00 0.  1.
         13   -1    0    0    0    0 -0.00000000000E+00 -0.00000000000E+00 -0.27500000000E+03  0.27500000000E+03  0.00000000000E+00 0.  1.
    9000005    2    1    2  501    0  0.45402620454E+01 -0.43626304461E+02 -0.45029138067E+02  0.47521452792E+03  0.47103859274E+03 0.  0.
         13    1    3    3    0    0 -0.10183934921E+03  0.11775277758E+03  0.13872399346E+03  0.20852173996E+03  0.00000000000E+00 0.  1.
          1    1    3    3  501    0  0.10637961125E+03 -0.16137908204E+03 -0.18375313152E+03  0.26669278797E+03  0.00000000000E+00 0.  1.
         21    1    1    2  502  501 -0.45402620454E+01  0.43626304461E+02  0.17448873344E+02  0.47205207354E+02  0.00000000000E+00 0.  1.
<scales pt_clust_4="550.00000" pt_clust_5="550.00000" pt_clust_6="43.86192"></scales>
<mgrwt>
<rscale>  0 0.30000000E+03</rscale>
<asrwt>  1 0.43861924E+02</asrwt>
<pdfrwt beam="1">  1        1 0.89970813E+00 0.30000000E+03</pdfrwt>
<pdfrwt beam="2">0</pdfrwt>
<totfact> 0.10685921E-04</totfact>
</mgrwt>
<clustering>
<clus scale="   43.862">  1  6  2 -1</clus>
<clus scale="  471.039">  4  5 -1 -1</clus>
<clus scale="  300.000">  1  4  2 -1</clus>
</clustering>
</event>
<event>
 6    1  0.9687246E-012  0.3000000E+03  0.7818608E-02  0.1093470E+00
          1   -1    0    0  502    0  0.00000000000E+00  0.00000000000E+00  0.23906958233E+03  0.23906958233E+03  0.00000000000E+00 0.  1.
         13   -1    0    0    0    0 -0.00000000000E+00 -0.00000000000E+00 -0.27500000000E+03  0.27500000000E+03  0.00000000000E+00 0.  1.
    9000005    2    1    2  501    0 -0.40072568041E+02  0.68296860955E+01 -0.20064513275E+02  0.47043264564E+03  0.46824334920E+03 0.  0.
         13    1    3    3    0    0  0.10608123847E+03 -0.14462047784E+03  0.12163174974E+03  0.21670854693E+03  0.00000000000E+00 0.  1.
          1    1    3    3  501    0 -0.14615380651E+03  0.15145016394E+03 -0.14169626301E+03  0.25372409871E+03  0.00000000000E+00 0.  1.
         21    1    1    2  502  501  0.40072568041E+02 -0.68296860955E+01 -0.15865904396E+02  0.43636936692E+02  0.00000000000E+00 0.  1.
<scales pt_clust_4="550.00000" pt_clust_5="550.00000" pt_clust_6="40.65042"></scales>
<mgrwt>
<rscale>  0 0.30000000E+03</rscale>
<asrwt>  1 0.40650424E+02</asrwt>
<pdfrwt beam="1">  1        1 0.86934394E+00 0.30000000E+03</pdfrwt>
<pdfrwt beam="2">0</pdfrwt>
<totfact> 0.25019689E-04</totfact>
</mgrwt>
<clustering>
<clus scale="   40.650">  1  6  2 -1</clus>
<clus scale="  468.243">  4  5 -1 -1</clus>
<clus scale="  300.000">  1  4  2 -1</clus>
</clustering>
</event>
<event>
 6    1  0.9687246E-012  0.3000000E+03  0.7818608E-02  0.1093470E+00
          1   -1    0    0  502    0  0.00000000000E+00  0.00000000000E+00  0.23599623889E+03  0.23599623889E+03  0.00000000000E+00 0.  1.
         13   -1    0    0    0    0 -0.00000000000E+00 -0.00000000000E+00 -0.27500000000E+03  0.27500000000E+03  0.00000000000E+00 0.  1.
    9000005    2    1    2  501    0  0.17978947721E+02 -0.30157583085E+02 -0.17994763610E+02  0.47008046743E+03  0.46842193796E+03 0.  0.
         13    1    3    3    0    0 -0.12767978633E+03 -0.36192870329E+02 -0.19805241817E+03  0.23840472320E+03  0.00000000000E+00 0.  1.
          1    1    3    3  501    0  0.14565873405E+03  0.60352872443E+01  0.18005765456E+03  0.23167574423E+03  0.00000000000E+00 0.  1.
         21    1    1    2  502  501 -0.17978947721E+02  0.30157583085E+02 -0.21008997498E+02  0.40915771465E+02  0.00000000000E+00 0. -1.
<scales pt_clust_4="550.00000" pt_clust_5="550.00000" pt_clust_6="35.11016"></scales>
<mgrwt>
<rscale>  0 0.30000000E+03</rscale>
<asrwt>  1 0.35110164E+02</asrwt>
<pdfrwt beam="1">  1        1 0.85816814E+00 0.30000000E+03</pdfrwt>
<pdfrwt beam="2">0</pdfrwt>
<totfact> 0.33801049E-04</totfact>
</mgrwt>
<clustering>
<clus scale="   35.110">  1  6  2 -1</clus>
<clus scale="  468.422">  4  5 -1 -1</clus>
<clus scale="  300.000">  1  4  2 -1</clus>
</clustering>
</event>
<event>
 6    1  0.9687246E-012  0.3000000E+03  0.7818608E-02  0.1093470E+00
          1   -1    0    0  502    0  0.00000000000E+00  0.00000000000E+00  0.22088608259E+03  0.22088608259E+03  0.00000000000E+00 0.  1.
         13   -1    0    0    0    0 -0.00000000000E+00 -0.00000000000E+00 -0.27500000000E+03  0.27500000000E+03  0.00000000000E+00 0.  1.
    9000005    2    1    2  501    0  0.19630746465E+02 -0.24927355806E+02 -0.64679070990E+02  0.46244416661E+03  0.45679807982E+03 0.  0.
         13    1    3    3    0    0  0.14882578608E+03 -0.45154792351E+01  0.14981206383E+03  0.21121827247E+03  0.00000000000E+00 0.  1.
          3    1    3    3  501    0 -0.12919503962E+03 -0.20411876571E+02 -0.21449113482E+03  0.25122589414E+03  0.00000000000E+00 0.  1.
         21    1    1    2  502  501 -0.19630746465E+02  0.24927355806E+02  0.10565153576E+02  0.33441915979E+02  0.00000000000E+00 0. -1.
<scales pt_clust_4="550.00000" pt_clust_5="550.00000" pt_clust_6="31.72915"></scales>
<mgrwt>
<rscale>  0 0.30000000E+03</rscale>
<asrwt>  1 0.31729155E+02</asrwt>
<pdfrwt beam="1">  1        1 0.80322212E+00 0.30000000E+03</pdfrwt>
<pdfrwt beam="2">0</pdfrwt>
<totfact> 0.10008668E-03</totfact>
</mgrwt>
<clustering>
<clus scale="   31.729">  1  6  2 -1</clus>
<clus scale="  456.798">  4  5 -1 -1</clus>
<clus scale="  300.000">  1  4  2 -1</clus>
</clustering>
</event>
<event>
 6    1  0.9687246E-012  0.3000000E+03  0.7818608E-02  0.1093470E+00
          1   -1    0    0  502    0  0.00000000000E+00  0.00000000000E+00  0.25454698183E+03  0.25454698183E+03  0.00000000000E+00 0.  1.
         13   -1    0    0    0    0 -0.00000000000E+00 -0.00000000000E+00 -0.27500000000E+03  0.27500000000E+03  0.00000000000E+00 0.  1.
    9000005    2    1    2  501    0  0.42370225853E+01 -0.53151402830E+02 -0.39787355384E+02  0.47282978357E+03  0.46812599436E+03 0.  0.
         13    1    3    3    0    0  0.17773366026E+03  0.12574824360E+03  0.12932087828E+02  0.21810344714E+03  0.00000000000E+00 0.  1.
          3    1    3    3  501    0 -0.17349663767E+03 -0.17889964643E+03 -0.52719443211E+02  0.25472633643E+03  0.00000000000E+00 0.  1.
         21    1    1    2  502  501 -0.42370225853E+01  0.53151402830E+02  0.19334337213E+02  0.56717198262E+02  0.00000000000E+00 0.  1.
<scales pt_clust_4="550.00000" pt_clust_5="550.00000" pt_clust_6="53.32001"></scales>
<mgrwt>
<rscale>  0 0.30000000E+03</rscale>
<asrwt>  1 0.53320015E+02</asrwt>
<pdfrwt beam="1">  1        1 0.92562539E+00 0.30000000E+03</pdfrwt>
<pdfrwt beam="2">0</pdfrwt>
<totfact> 0.29511473E-05</totfact>
</mgrwt>
<clustering>
<clus scale="   53.320">  1  6  2 -1</clus>
<clus scale="  468.126">  4  5 -1 -1</clus>
<clus scale="  300.000">  1  4  2 -1</clus>
</clustering>
</event>
<event>
 6    1  0.9687246E-012  0.3000000E+03  0.7818608E-02  0.1093470E+00
          1   -1    0    0  502    0  0.00000000000E+00  0.00000000000E+00  0.24642955807E+03  0.24642955807E+03  0.00000000000E+00 0.  1.
         13   -1    0    0    0    0 -0.00000000000E+00 -0.00000000000E+00 -0.27500000000E+03  0.27500000000E+03  0.00000000000E+00 0.  1.
    9000005    2    1    2  501    0  0.26165918214E+02  0.33496346682E+02 -0.46575214651E+02  0.47526861833E+03  0.47106724406E+03 0.  0.
         13    1    3    3    0    0  0.68856879435E+02  0.11259455865E+03  0.18477590411E+03  0.22707033981E+03  0.00000000000E+00 0.  1.
          3    1    3    3  501    0 -0.42690961221E+02 -0.79098211969E+02 -0.23135111876E+03  0.24819827852E+03  0.00000000000E+00 0.  1.
         21    1    1    2  502  501 -0.26165918214E+02 -0.33496346682E+02  0.18004772718E+02  0.46160939740E+02  0.00000000000E+00 0.  1.
<scales pt_clust_4="550.00000" pt_clust_5="550.00000" pt_clust_6="42.50483"></scales>
<mgrwt>
<rscale>  0 0.30000000E+03</rscale>
<asrwt>  1 0.42504829E+02</asrwt>
<pdfrwt beam="1">  1        1 0.89610748E+00 0.30000000E+03</pdfrwt>
<pdfrwt beam="2">0</pdfrwt>
<totfact> 0.11825616E-04</totfact>
</mgrwt>
<clustering>
<clus scale="   42.505">  1  6  2 -1</clus>
<clus scale="  471.067">  4  5 -1 -1</clus>
<clus scale="  300.000">  1  4  2 -1</clus>
</clustering>
</event>
<event>
 6    1  0.9687246E-012  0.3000000E+03  0.7818608E-02  0.1093470E+00
          1   -1    0    0  502    0  0.00000000000E+00  0.00000000000E+00  0.22915195402E+03  0.22915195402E+03  0.00000000000E+00 0.  1.
         13   -1    0    0    0    0 -0.00000000000E+00 -0.00000000000E+00 -0.27500000000E+03  0.27500000000E+03  0.00000000000E+00 0.  1.
    9000005    2    1    2  501    0 -0.19582091474E+02 -0.27804867679E+02 -0.65414385519E+02  0.46491663044E+03  0.45903361800E+03 0.  0.
         13    1    3    3    0    0  0.16268276049E+03 -0.77086182817E+02  0.10683886761E+03  0.20933825206E+03  0.00000000000E+00 0.  1.
          3    1    3    3  501    0 -0.18226485196E+03  0.49281315138E+02 -0.17225325313E+03  0.25557837839E+03  0.00000000000E+00 0.  1.
         21    1    1    2  502  501  0.19582091474E+02  0.27804867679E+02  0.19566339540E+02  0.39235323576E+02  0.00000000000E+00 0. -1.
<scales pt_clust_4="550.00000" pt_clust_5="550.00000" pt_clust_6="34.00837"></scales>
<mgrwt>
<rscale>  0 0.30000000E+03</rscale>
<asrwt>  1 0.34008366E+02</asrwt>
<pdfrwt beam="1">  1        1 0.83327983E+00 0.30000000E+03</pdfrwt>
<pdfrwt beam="2">0</pdfrwt>
<totfact> 0.56006116E-04</totfact>
</mgrwt>
<clustering>
<clus scale="   34.008">  1  6  2 -1</clus>
<clus scale="  459.034">  4  5 -1 -1</clus>
<clus scale="  300.000">  1  4  2 -1</clus>
</clustering>
</event>
<event>
 6    1  0.9687246E-012  0.3000000E+03  0.7818608E-02  0.1093470E+00
          1   -1    0    0  502    0  0.00000000000E+00  0.00000000000E+00  0.26194426531E+03  0.26194426531E+03  0.00000000000E+00 0.  1.
         13   -1    0    0    0    0 -0.00000000000E+00 -0.00000000000E+00 -0.27500000000E+03  0.27500000000E+03  0.00000000000E+00 0.  1.
    9000005    2    1    2  501    0  0.20413438885E+02  0.29636646347E+02 -0.55716872581E+02  0.48113197294E+03  0.47653810571E+03 0.  0.
         13    1    3    3    0    0  0.23155524652E+03  0.47110005742E+01  0.59758404968E+02  0.23918840416E+03  0.00000000000E+00 0.  1.
          3    1    3    3  501    0 -0.21114180764E+03  0.24925645772E+02 -0.11547527755E+03  0.24194356878E+03  0.00000000000E+00 0.  1.
         21    1    1    2  502  501 -0.20413438885E+02 -0.29636646347E+02  0.42661137888E+02  0.55812292371E+02  0.00000000000E+00 0.  1.
<scales pt_clust_4="550.00000" pt_clust_5="550.00000" pt_clust_6="35.98665"></scales>
<mgrwt>
<rscale>  0 0.30000000E+03</rscale>
<asrwt>  1 0.35986654E+02</asrwt>
<pdfrwt beam="1">  1        1 0.95252460E+00 0.30000000E+03</pdfrwt>
<pdfrwt beam="2">0</pdfrwt>
<totfact> 0.10884895E-05</totfact>
</mgrwt>
<clustering>
<clus scale="   35.987">  1  6  2 -1</clus>
<clus scale="  476.538">  4  5 -1 -1</clus>
<clus scale="  300.000">  1  4  2 -1</clus>
</clustering>
</event>
<event>
 6    1  0.9687246E-012  0.3000000E+03  0.7818608E-02  0.1093470E+00
          1   -1    0    0  502    0  0.00000000000E+00  0.00000000000E+00  0.22448517014E+03  0.22448517014E+03  0.00000000000E+00 0.  1.
         13   -1    0    0    0    0 -0.00000000000E+00 -0.00000000000E+00 -0.27500000000E+03  0.27500000000E+03  0.00000000000E+00 0.  1.
    9000005    2    1    2  501    0  0.28449661288E+02 -0.17282220119E+02 -0.46256225857E+02  0.46592635509E+03  0.46242801773E+03 0.  0.
         13    1    3    3    0    0  0.21252931857E+03  0.39113527503E+02  0.85752397404E+02  0.23249097390E+03  0.00000000000E+00 0.  1.
          1    1    3    3  501    0 -0.18407965728E+03 -0.56395747622E+02 -0.13200862326E+03  0.23343538119E+03  0.00000000000E+00 0.  1.
         21    1    1    2  502  501 -0.28449661288E+02  0.17282220119E+02 -0.42586039993E+01  0.33558815052E+02  0.00000000000E+00 0. -1.
<scales pt_clust_4="550.00000" pt_clust_5="550.00000" pt_clust_6="33.28753"></scales>
<mgrwt>
<rscale>  0 0.30000000E+03</rscale>
<asrwt>  1 0.33287527E+02</asrwt>
<pdfrwt beam="1">  1        1 0.81630971E+00 0.30000000E+03</pdfrwt>
<pdfrwt beam="2">0</pdfrwt>
<totfact> 0.78411972E-04</totfact>
</mgrwt>
<clustering>
<clus scale="   33.288">  1  6  2 -1</clus>
<clus scale="  462.428">  4  5 -1 -1</clus>
<clus scale="  300.000">  1  4  2 -1</clus>
</clustering>
</event>
<event>
 6    1  0.9687246E-012  0.3000000E+03  0.7818608E-02  0.1093470E+00
          1   -1    0    0  502    0  0.00000000000E+00  0.00000000000E+00  0.24491614530E+03  0.24491614530E+03  0.00000000000E+00 0.  1.
         13   -1    0    0    0    0 -0.00000000000E+00 -0.00000000000E+00 -0.27500000000E+03  0.27500000000E+03  0.00000000000E+00 0.  1.
    9000005    2    1    2  501    0  0.33698070294E+02  0.12439563236E+01 -0.88470200540E+01  0.48006504099E+03  0.47879752134E+03 0.  0.
         13    1    3    3    0    0 -0.14337186850E+03  0.12089206431E+03 -0.13575756931E+03  0.23151782116E+03  0.00000000000E+00 0.  1.
          3    1    3    3  501    0  0.17706993879E+03 -0.11964810798E+03  0.12691054926E+03  0.24854721982E+03  0.00000000000E+00 0.  1.
         21    1    1    2  502  501 -0.33698070294E+02 -0.12439563236E+01 -0.21236834649E+02  0.39851104311E+02  0.00000000000E+00 0.  1.
<scales pt_clust_4="550.00000" pt_clust_5="550.00000" pt_clust_6="33.72104"></scales>
<mgrwt>
<rscale>  0 0.30000000E+03</rscale>
<asrwt>  1 0.33721040E+02</asrwt>
<pdfrwt beam="1">  1        1 0.89060416E+00 0.30000000E+03</pdfrwt>
<pdfrwt beam="2">0</pdfrwt>
<totfact> 0.14331766E-04</totfact>
</mgrwt>
<clustering>
<clus scale="   33.721">  1  6  2 -1</clus>
<clus scale="  478.798">  4  5 -1 -1</clus>
<clus scale="  300.000">  1  4  2 -1</clus>
</clustering>
</event>
<event>
 6    1  0.9687246E-012  0.3000000E+03  0.7818608E-02  0.1093470E+00
          1   -1    0    0  502    0  0.00000000000E+00  0.00000000000E+00  0.22935280901E+03  0.22935280901E+03  0.00000000000E+00 0.  1.
         13   -1    0    0    0    0 -0.00000000000E+00 -0.00000000000E+00 -0.27500000000E+03  0.27500000000E+03  0.00000000000E+00 0.  1.
    9000005    2    1    2  501    0 -0.27720943472E+01 -0.39123413001E+02 -0.35848011249E+02  0.46392571567E+03  0.46087271974E+03 0.  0.
         13    1    3    3    0    0 -0.32891774759E+02  0.14794351281E+02  0.20865199695E+03  0.21174606846E+03  0.00000000000E+00 0.  1.
          1    1    3    3  501    0  0.30119680412E+02 -0.53917764282E+02 -0.24450000820E+03  0.25217964721E+03  0.00000000000E+00 0.  1.
         21    1    1    2  502  501  0.27720943472E+01  0.39123413001E+02 -0.97991797458E+01  0.40427093336E+02  0.00000000000E+00 0. -1.
<scales pt_clust_4="550.00000" pt_clust_5="550.00000" pt_clust_6="39.22152"></scales>
<mgrwt>
<rscale>  0 0.30000000E+03</rscale>
<asrwt>  1 0.39221518E+02</asrwt>
<pdfrwt beam="1">  1        1 0.83401021E+00 0.30000000E+03</pdfrwt>
<pdfrwt beam="2">0</pdfrwt>
<totfact> 0.53864563E-04</totfact>
</mgrwt>
<clustering>
<clus scale="   39.222">  1  6  2 -1</clus>
<clus scale="  460.873">  4  5 -1 -1</clus>
<clus scale="  300.000">  1  4  2 -1</clus>
</clustering>
</event>
<event>
 6    1  0.9687246E-012  0.3000000E+03  0.7818608E-02  0.1093470E+00
          1   -1    0    0  502    0  0.00000000000E+00  0.00000000000E+00  0.22990702943E+03  0.22990702943E+03  0.00000000000E+00 0.  1.
         13   -1    0    0    0    0 -0.00000000000E+00 -0.00000000000E+00 -0.27500000000E+03  0.27500000000E+03  0.00000000000E+00 0.  1.
    9000005    2    1    2  501    0  0.38142534216E+02 -0.24690505555E+01 -0.25672734610E+02  0.46203402287E+03  0.45973405340E+03 0.  0.
         13    1    3    3    0    0 -0.12263107327E+02  0.19333653110E+03 -0.13119097129E+03  0.23396681177E+03  0.00000000000E+00 0.  1.
          1    1    3    3  501    0  0.50405641543E+02 -0.19580558166E+03  0.10551823668E+03  0.22806721110E+03  0.00000000000E+00 0.  1.
         21    1    1    2  502  501 -0.38142534216E+02  0.24690505555E+01 -0.19420235959E+02  0.42873006563E+02  0.00000000000E+00 0. -1.
<scales pt_clust_4="550.00000" pt_clust_5="550.00000" pt_clust_6="38.22238"></scales>
<mgrwt>
<rscale>  0 0.30000000E+03</rscale>
<asrwt>  1 0.38222383E+02</asrwt>
<pdfrwt beam="1">  1        1 0.83602556E+00 0.30000000E+03</pdfrwt>
<pdfrwt beam="2">0</pdfrwt>
<totfact> 0.52315849E-04</totfact>
</mgrwt>
<clustering>
<clus scale="   38.222">  1  6  2 -1</clus>
<clus scale="  459.734">  4  5 -1 -1</clus>
<clus scale="  300.000">  1  4  2 -1</clus>
</clustering>
</event>
<event>
 6    1  0.9687246E-012  0.3000000E+03  0.7818608E-02  0.1093470E+00
          1   -1    0    0  502    0  0.00000000000E+00  0.00000000000E+00  0.25852063373E+03  0.25852063373E+03  0.00000000000E+00 0.  1.
         13   -1    0    0    0    0 -0.00000000000E+00 -0.00000000000E+00 -0.27500000000E+03  0.27500000000E+03  0.00000000000E+00 0.  1.
    9000005    2    1    2  501    0  0.42159507259E+02  0.13132983165E+02  0.10717135156E+02  0.48165977191E+03  0.47951160527E+03 0.  0.
         13    1    3    3    0    0  0.84021081042E+02  0.19239193754E+03 -0.13265036692E+03  0.24833509525E+03  0.00000000000E+00 0.  1.
          1    1    3    3  501    0 -0.41861573783E+02 -0.17925895438E+03  0.14336750207E+03  0.23332467665E+03  0.00000000000E+00 0.  1.
         21    1    1    2  502  501 -0.42159507259E+02 -0.13132983165E+02 -0.27196501426E+02  0.51860861822E+02  0.00000000000E+00 0.  1.
<scales pt_clust_4="550.00000" pt_clust_5="550.00000" pt_clust_6="44.15769"></scales>
<mgrwt>
<rscale>  0 0.30000000E+03</rscale>
<asrwt>  1 0.44157686E+02</asrwt>
<pdfrwt beam="1">  1        1 0.94007503E+00 0.30000000E+03</pdfrwt>
<pdfrwt beam="2">0</pdfrwt>
<totfact> 0.18305972E-05</totfact>
</mgrwt>
<clustering>
<clus scale="   44.158">  1  6  2 -1</clus>
<clus scale="  479.512">  4  5 -1 -1</clus>
<clus scale="  300.000">  1  4  2 -1</clus>
</clustering>
</event>
<event>
 6    1  0.9687246E-012  0.3000000E+03  0.7818608E-02  0.1093470E+00
          1   -1    0    0  502    0  0.00000000000E+00  0.00000000000E+00  0.22111092921E+03  0.22111092921E+03  0.00000000000E+00 0.  1.
         13   -1    0    0    0    0 -0.00000000000E+00 -0.00000000000E+00 -0.27500000000E+03  0.27500000000E+03  0.00000000000E+00 0.  1.
    9000005    2    1    2  501    0 -0.25182583795E+02 -0.19376162198E+02 -0.65693982758E+02  0.46221470325E+03  0.45641771913E+03 0.  0.
         13    1    3    3    0    0  0.12554551917E+03  0.13999339285E+03 -0.13577243458E+03  0.23193529576E+03  0.00000000000E+00 0.  1.
          1    1    3    3  501    0 -0.15072810297E+03 -0.15936955505E+03  0.70078451827E+02  0.23027940749E+03  0.00000000000E+00 0.  1.
         21    1    1    2  502  501  0.25182583795E+02  0.19376162198E+02  0.11804911971E+02  0.33896225966E+02  0.00000000000E+00 0.  1.
<scales pt_clust_4="550.00000" pt_clust_5="550.00000" pt_clust_6="31.77417"></scales>
<mgrwt>
<rscale>  0 0.30000000E+03</rscale>
<asrwt>  1 0.31774175E+02</asrwt>
<pdfrwt beam="1">  1        1 0.80403974E+00 0.30000000E+03</pdfrwt>
<pdfrwt beam="2">0</pdfrwt>
<totfact> 0.98673695E-04</totfact>
</mgrwt>
<clustering>
<clus scale="   31.774">  1  6  2 -1</clus>
<clus scale="  456.418">  4  5 -1 -1</clus>
<clus scale="  300.000">  1  4  2 -1</clus>
</clustering>
</event>
<event>
 6    1  0.9687246E-012  0.3000000E+03  0.7818608E-02  0.1093470E+00
          1   -1    0    0  502    0  0.00000000000E+00  0.00000000000E+00  0.23252899948E+03  0.23252899948E+03  0.00000000000E+00 0.  1.
         13   -1    0    0    0    0 -0.00000000000E+00 -0.00000000000E+00 -0.27500000000E+03  0.27500000000E+03  0.00000000000E+00 0.  1.
    9000005    2    1    2  501    0 -0.56856888007E+01 -0.34166093227E+02 -0.57265465713E+02  0.46986568598E+03  0.46507502654E+03 0.  0.
         13    1    3    3    0    0 -0.12562260111E+03 -0.40028371293E+02  0.16861982826E+03  0.21404661852E+03  0.00000000000E+00 0.  1.
          3    1    3    3  501    0  0.11993691231E+03  0.58622780658E+01 -0.22588529397E+03  0.25581906745E+03  0.00000000000E+00 0.  1.
         21    1    1    2  502  501  0.56856888007E+01  0.34166093227E+02  0.14794465193E+02  0.37663313501E+02  0.00000000000E+00 0. -1.
<scales pt_clust_4="550.00000" pt_clust_5="550.00000" pt_clust_6="34.63595"></scales>
<mgrwt>
<rscale>  0 0.30000000E+03</rscale>
<asrwt>  1 0.34635949E+02</asrwt>
<pdfrwt beam="1">  1        1 0.84556000E+00 0.30000000E+03</pdfrwt>
<pdfrwt beam="2">0</pdfrwt>
<totfact> 0.44761410E-04</totfact>
</mgrwt>
<clustering>
<clus scale="   34.636">  1  6  2 -1</clus>
<clus scale="  465.075">  4  5 -1 -1</clus>
<clus scale="  300.000">  1  4  2 -1</clus>
</clustering>
</event>
<event>
 6    1  0.9687246E-012  0.3000000E+03  0.7818608E-02  0.1093470E+00
          1   -1    0    0  502    0  0.00000000000E+00  0.00000000000E+00  0.22871139722E+03  0.22871139722E+03  0.00000000000E+00 0.  1.
         13   -1    0    0    0    0 -0.00000000000E+00 -0.00000000000E+00 -0.27500000000E+03  0.27500000000E+03  0.00000000000E+00 0.  1.
    9000005    2    1    2  501    0  0.27530232967E+02  0.14273849754E+02 -0.40852480332E+02  0.47222794218E+03  0.46943439128E+03 0.  0.
         13    1    3    3    0    0 -0.20058459674E+03 -0.48594606545E+02 -0.98500016791E+02  0.22868727455E+03  0.00000000000E+00 0.  1.
          3    1    3    3  501    0  0.22811482971E+03  0.62868456299E+02  0.57647536458E+02  0.24354066763E+03  0.00000000000E+00 0.  1.
         21    1    1    2  502  501 -0.27530232967E+02 -0.14273849754E+02 -0.54361224435E+01  0.31483455040E+02  0.00000000000E+00 0. -1.
<scales pt_clust_4="550.00000" pt_clust_5="550.00000" pt_clust_6="31.01060"></scales>
<mgrwt>
<rscale>  0 0.30000000E+03</rscale>
<asrwt>  1 0.31010603E+02</asrwt>
<pdfrwt beam="1">  1        1 0.83167781E+00 0.30000000E+03</pdfrwt>
<pdfrwt beam="2">0</pdfrwt>
<totfact> 0.58624729E-04</totfact>
</mgrwt>
<clustering>
<clus scale="   31.011">  1  6  2 -1</clus>
<clus scale="  469.434">  4  5 -1 -1</clus>
<clus scale="  300.000">  1  4  2 -1</clus>
</clustering>
</event>
<event>
 6    1  0.9687246E-012  0.3000000E+03  0.7818608E-02  0.1093470E+00
          1   -1    0    0  502    0  0.00000000000E+00  0.00000000000E+00  0.24103139488E+03  0.24103139488E+03  0.00000000000E+00 0.  1.
         13   -1    0    0    0    0 -0.00000000000E+00 -0.00000000000E+00 -0.27500000000E+03  0.27500000000E+03  0.00000000000E+00 0.  1.
    9000005    2    1    2  501    0  0.12071354959E+02 -0.27471315072E+02 -0.39665749882E+02  0.48548883080E+03  0.48293440792E+03 0.  0.
         13    1    3    3    0    0 -0.20319792236E+03 -0.10934121831E+03  0.53794723326E+02  0.23693621490E+03  0.00000000000E+00 0.  1.
          1    1    3    3  501    0  0.21526927732E+03  0.81869903242E+02 -0.93460473208E+02  0.24855261590E+03  0.00000000000E+00 0.  1.
         21    1    1    2  502  501 -0.12071354959E+02  0.27471315072E+02  0.56971447644E+01  0.30542564083E+02  0.00000000000E+00 0.  1.
<scales pt_clust_4="550.00000" pt_clust_5="550.00000" pt_clust_6="30.00651"></scales>
<mgrwt>
<rscale>  0 0.30000000E+03</rscale>
<asrwt>  1 0.30006512E+02</asrwt>
<pdfrwt beam="1">  1        1 0.87647780E+00 0.30000000E+03</pdfrwt>
<pdfrwt beam="2">0</pdfrwt>
<totfact> 0.22327546E-04</totfact>
</mgrwt>
<clustering>
<clus scale="   30.007">  1  6  2 -1</clus>
<clus scale="  482.934">  4  5 -1 -1</clus>
<clus scale="  300.000">  1  4  2 -1</clus>
</clustering>
</event>
<event>
 6    1  0.9687246E-012  0.3000000E+03  0.7818608E-02  0.1093470E+00
          1   -1    0    0  502    0  0.00000000000E+00  0.00000000000E+00  0.25276974317E+03  0.25276974317E+03  0.00000000000E+00 0.  1.
         13   -1    0    0    0    0 -0.00000000000E+00 -0.00000000000E+00 -0.27500000000E+03  0.27500000000E+03  0.00000000000E+00 0.  1.
    9000005    2    1    2  501    0  0.67526562187E+01  0.45238335627E+02 -0.16921092557E+01  0.47763072760E+03  0.47543258548E+03 0.  0.
         13    1    3    3    0    0  0.12542241472E+03  0.15124231329E+03  0.15805002139E+03  0.25216032341E+03  0.00000000000E+00 0.  1.
          1    1    3    3  501    0 -0.11866975850E+03 -0.10600397766E+03 -0.15974213064E+03  0.22547040419E+03  0.00000000000E+00 0.  1.
         21    1    1    2  502  501 -0.67526562187E+01 -0.45238335627E+02 -0.20538147577E+02  0.50139015569E+02  0.00000000000E+00 0.  1.
<scales pt_clust_4="550.00000" pt_clust_5="550.00000" pt_clust_6="45.73956"></scales>
<mgrwt>
<rscale>  0 0.30000000E+03</rscale>
<asrwt>  1 0.45739561E+02</asrwt>
<pdfrwt beam="1">  1        1 0.91916270E+00 0.30000000E+03</pdfrwt>
<pdfrwt beam="2">0</pdfrwt>
<totfact> 0.41518965E-05</totfact>
</mgrwt>
<clustering>
<clus scale="   45.740">  1  6  2 -1</clus>
<clus scale="  475.433">  4  5 -1 -1</clus>
<clus scale="  300.000">  1  4  2 -1</clus>
</clustering>
</event>
<event>
 6    1  0.9687246E-012  0.3000000E+03  0.7818608E-02  0.1093470E+00
          1   -1    0    0  502    0  0.00000000000E+00  0.00000000000E+00  0.22736305253E+03  0.22736305253E+03  0.00000000000E+00 0.  1.
         13   -1    0    0    0    0 -0.00000000000E+00 -0.00000000000E+00 -0.27500000000E+03  0.27500000000E+03  0.00000000000E+00 0.  1.
    9000005    2    1    2  501    0  0.24591213184E+02  0.26542863539E+02 -0.22003630934E+02  0.45801986491E+03  0.45605787518E+03 0.  0.
         13    1    3    3    0    0 -0.18209478808E+03  0.13235485055E+03 -0.17260915206E+02  0.22577479378E+03  0.00000000000E+00 0.  1.
          1    1    3    3  501    0  0.20668600127E+03 -0.10581198701E+03 -0.47427157278E+01  0.23224507114E+03  0.00000000000E+00 0.  1.
         21    1    1    2  502  501 -0.24591213184E+02 -0.26542863539E+02 -0.25633316541E+02  0.44343187612E+02  0.00000000000E+00 0. -1.
<scales pt_clust_4="550.00000" pt_clust_5="550.00000" pt_clust_6="36.18360"></scales>
<mgrwt>
<rscale>  0 0.30000000E+03</rscale>
<asrwt>  1 0.36183597E+02</asrwt>
<pdfrwt beam="1">  1        1 0.82677474E+00 0.30000000E+03</pdfrwt>
<pdfrwt beam="2">0</pdfrwt>
<totfact> 0.62599945E-04</totfact>
</mgrwt>
<clustering>
<clus scale="   36.184">  1  6  2 -1</clus>
<clus scale="  456.058">  4  5 -1 -1</clus>
<clus scale="  300.000">  1  4  2 -1</clus>
</clustering>
</event>
<event>
 6    1  0.9687246E-012  0.3000000E+03  0.7818608E-02  0.1093470E+00
          1   -1    0    0  502    0  0.00000000000E+00  0.00000000000E+00  0.24045976211E+03  0.24045976211E+03  0.00000000000E+00 0.  1.
         13   -1    0    0    0    0 -0.00000000000E+00 -0.00000000000E+00 -0.27500000000E+03  0.27500000000E+03  0.00000000000E+00 0.  1.
    9000005    2    1    2  501    0  0.49824950161E+02  0.17638523349E+02 -0.38965367036E+02  0.46241991924E+03  0.45773380770E+03 0.  0.
         13    1    3    3    0    0  0.15663357626E+03  0.15067038609E+02  0.16757973819E+03  0.22987836244E+03  0.00000000000E+00 0.  1.
          1    1    3    3  501    0 -0.10680862610E+03  0.25714847400E+01 -0.20654510523E+03  0.23254155680E+03  0.00000000000E+00 0.  1.
         21    1    1    2  502  501 -0.49824950161E+02 -0.17638523349E+02  0.44251291500E+01  0.53039842878E+02  0.00000000000E+00 0.  1.
<scales pt_clust_4="550.00000" pt_clust_5="550.00000" pt_clust_6="52.85493"></scales>
<mgrwt>
<rscale>  0 0.30000000E+03</rscale>
<asrwt>  1 0.52854926E+02</asrwt>
<pdfrwt beam="1">  1        1 0.87439913E+00 0.30000000E+03</pdfrwt>
<pdfrwt beam="2">0</pdfrwt>
<totfact> 0.21188990E-04</totfact>
</mgrwt>
<clustering>
<clus scale="   52.855">  1  6  2 -1</clus>
<clus scale="  457.734">  4  5 -1 -1</clus>
<clus scale="  300.000">  1  4  2 -1</clus>
</clustering>
</event>
<event>
 6    1  0.9687246E-012  0.3000000E+03  0.7818608E-02  0.1093470E+00
          1   -1    0    0  502    0  0.00000000000E+00  0.00000000000E+00  0.23150418635E+03  0.23150418635E+03  0.00000000000E+00 0.  1.
         13   -1    0    0    0    0 -0.00000000000E+00 -0.00000000000E+00 -0.27500000000E+03  0.27500000000E+03  0.00000000000E+00 0.  1.
    9000005    2    1    2  501    0 -0.34638301968E+02 -0.19467461927E+02 -0.24634884969E+02  0.46252090921E+03  0.46015206167E+03 0.  0.
         13    1    3    3    0    0  0.11352358226E+02 -0.22731618231E+03 -0.82217490453E+02  0.24199429438E+03  0.00000000000E+00 0.  1.
          1    1    3    3  501    0 -0.45990660194E+02  0.20784872038E+03  0.57582605484E+02  0.22052661482E+03  0.00000000000E+00 0.  1.
         21    1    1    2  502  501  0.34638301968E+02  0.19467461927E+02 -0.18860928685E+02  0.43983277140E+02  0.00000000000E+00 0.  1.
<scales pt_clust_4="550.00000" pt_clust_5="550.00000" pt_clust_6="39.73406"></scales>
<mgrwt>
<rscale>  0 0.30000000E+03</rscale>
<asrwt>  1 0.39734061E+02</asrwt>
<pdfrwt beam="1">  1        1 0.84183340E+00 0.30000000E+03</pdfrwt>
<pdfrwt beam="2">0</pdfrwt>
<totfact> 0.46954156E-04</totfact>
</mgrwt>
<clustering>
<clus scale="   39.734">  1  6  2 -1</clus>
<clus scale="  460.152">  4  5 -1 -1</clus>
<clus scale="  300.000">  1  4  2 -1</clus>
</clustering>
</event>
<event>
 6    1  0.9687246E-012  0.3000000E+03  0.7818608E-02  0.1093470E+00
          1   -1    0    0  502    0  0.00000000000E+00  0.00000000000E+00  0.24430145348E+03  0.24430145348E+03  0.00000000000E+00 0.  1.
         13   -1    0    0    0    0 -0.00000000000E+00 -0.00000000000E+00 -0.27500000000E+03  0.27500000000E+03  0.00000000000E+00 0.  1.
    9000005    2    1    2  501    0 -0.30492731376E+02 -0.32321399774E+02 -0.56819544744E+02  0.46775743250E+03  0.46216239077E+03 0.  0.
         13    1    3    3    0    0 -0.57100680963E+01  0.16498698087E+03  0.11804742753E+03  0.20294951067E+03  0.00000000000E+00 0.  1.
          3    1    3    3  501    0 -0.24782663280E+02 -0.19730838065E+03 -0.17486697227E+03  0.26480792183E+03  0.00000000000E+00 0.  1.
         21    1    1    2  502  501  0.30492731376E+02  0.32321399774E+02  0.26120998221E+02  0.51544020974E+02  0.00000000000E+00 0.  1.
<scales pt_clust_4="550.00000" pt_clust_5="550.00000" pt_clust_6="44.43512"></scales>
<mgrwt>
<rscale>  0 0.30000000E+03</rscale>
<asrwt>  1 0.44435116E+02</asrwt>
<pdfrwt beam="1">  1        1 0.88836892E+00 0.30000000E+03</pdfrwt>
<pdfrwt beam="2">0</pdfrwt>
<totfact> 0.14599013E-04</totfact>
</mgrwt>
<clustering>
<clus scale="   44.435">  1  6  2 -1</clus>
<clus scale="  462.162">  4  5 -1 -1</clus>
<clus scale="  300.000">  1  4  2 -1</clus>
</clustering>
</event>
<event>
 6    1  0.9687246E-012  0.3000000E+03  0.7818608E-02  0.1093470E+00
          1   -1    0    0  502    0  0.00000000000E+00  0.00000000000E+00  0.23192402821E+03  0.23192402821E+03  0.00000000000E+00 0.  1.
         13   -1    0    0    0    0 -0.00000000000E+00 -0.00000000000E+00 -0.27500000000E+03  0.27500000000E+03  0.00000000000E+00 0.  1.
    9000005    2    1    2  501    0 -0.25705429167E+02 -0.34002839358E+02 -0.53536789846E+02  0.46303335850E+03  0.45794840435E+03 0.  0.
         13    1    3    3    0    0  0.19612868209E+03 -0.85387054220E+02  0.38648746401E+02  0.21737326092E+03  0.00000000000E+00 0.  1.
          3    1    3    3  501    0 -0.22183411125E+03  0.51384214862E+02 -0.92185536247E+02  0.24566009758E+03  0.00000000000E+00 0.  1.
         21    1    1    2  502  501  0.25705429167E+02  0.34002839358E+02  0.10460818060E+02  0.43890669710E+02  0.00000000000E+00 0.  1.
<scales pt_clust_4="550.00000" pt_clust_5="550.00000" pt_clust_6="42.62584"></scales>
<mgrwt>
<rscale>  0 0.30000000E+03</rscale>
<asrwt>  1 0.42625839E+02</asrwt>
<pdfrwt beam="1">  1        1 0.84336010E+00 0.30000000E+03</pdfrwt>
<pdfrwt beam="2">0</pdfrwt>
<totfact> 0.45016449E-04</totfact>
</mgrwt>
<clustering>
<clus scale="   42.626">  1  6  2 -1</clus>
<clus scale="  457.948">  4  5 -1 -1</clus>
<clus scale="  300.000">  1  4  2 -1</clus>
</clustering>
</event>
<event>
 6    1  0.9687246E-012  0.3000000E+03  0.7818608E-02  0.1093470E+00
          1   -1    0    0  502    0  0.00000000000E+00  0.00000000000E+00  0.23614089459E+03  0.23614089459E+03  0.00000000000E+00 0.  1.
         13   -1    0    0    0    0 -0.00000000000E+00 -0.00000000000E+00 -0.27500000000E+03  0.27500000000E+03  0.00000000000E+00 0.  1.
    9000005    2    1    2  501    0  0.29120583108E+02 -0.29817914076E+02 -0.55945143799E+02  0.46609592741E+03  0.46084535158E+03 0.  0.
         13    1    3    3    0    0 -0.21378423622E+03  0.19406724992E+02 -0.33144999495E+02  0.21720707084E+03  0.00000000000E+00 0.  1.
          1    1    3    3  501    0  0.24290481933E+03 -0.49224639067E+02 -0.22800144304E+02  0.24888885657E+03  0.00000000000E+00 0.  1.
         21    1    1    2  502  501 -0.29120583108E+02  0.29817914076E+02  0.17086038393E+02  0.45044967181E+02  0.00000000000E+00 0. -1.
<scales pt_clust_4="550.00000" pt_clust_5="550.00000" pt_clust_6="41.67873"></scales>
<mgrwt>
<rscale>  0 0.30000000E+03</rscale>
<asrwt>  1 0.41678728E+02</asrwt>
<pdfrwt beam="1">  1        1 0.85869416E+00 0.30000000E+03</pdfrwt>
<pdfrwt beam="2">0</pdfrwt>
<totfact> 0.32337599E-04</totfact>
</mgrwt>
<clustering>
<clus scale="   41.679">  1  6  2 -1</clus>
<clus scale="  460.845">  4  5 -1 -1</clus>
<clus scale="  300.000">  1  4  2 -1</clus>
</clustering>
</event>
<event>
 6    1  0.9687246E-012  0.3000000E+03  0.7818608E-02  0.1093470E+00
          1   -1    0    0  502    0  0.00000000000E+00  0.00000000000E+00  0.22190675700E+03  0.22190675700E+03  0.00000000000E+00 0.  1.
         13   -1    0    0    0    0 -0.00000000000E+00 -0.00000000000E+00 -0.27500000000E+03  0.27500000000E+03  0.00000000000E+00 0.  1.
    9000005    2    1    2  501    0 -0.16933766580E+02 -0.27333271771E+02 -0.48755465155E+02  0.46446178030E+03  0.46077520526E+03 0.  0.
         13    1    3    3    0    0 -0.16720901847E+03 -0.12114578714E+03  0.10340844607E+03  0.23092956571E+03  0.00000000000E+00 0.  1.
          3    1    3    3  501    0  0.15027525189E+03  0.93812515366E+02 -0.15216391123E+03  0.23353221459E+03  0.00000000000E+00 0.  1.
         21    1    1    2  502  501  0.16933766580E+02  0.27333271771E+02 -0.43377778490E+01  0.32444976699E+02  0.00000000000E+00 0. -1.
<scales pt_clust_4="550.00000" pt_clust_5="550.00000" pt_clust_6="32.15371"></scales>
<mgrwt>
<rscale>  0 0.30000000E+03</rscale>
<asrwt>  1 0.32153713E+02</asrwt>
<pdfrwt beam="1">  1        1 0.80693366E+00 0.30000000E+03</pdfrwt>
<pdfrwt beam="2">0</pdfrwt>
<totfact> 0.93593250E-04</totfact>
</mgrwt>
<clustering>
<clus scale="   32.154">  1  6  2 -1</clus>
<clus scale="  460.775">  4  5 -1 -1</clus>
<clus scale="  300.000">  1  4  2 -1</clus>
</clustering>
</event>
<event>
 6    1  0.9687246E-012  0.3000000E+03  0.7818608E-02  0.1093470E+00
          1   -1    0    0  502    0  0.00000000000E+00  0.00000000000E+00  0.23180117845E+03  0.23180117845E+03  0.00000000000E+00 0.  1.
         13   -1    0    0    0    0 -0.00000000000E+00 -0.00000000000E+00 -0.27500000000E+03  0.27500000000E+03  0.00000000000E+00 0.  1.
    9000005    2    1    2  501    0  0.32246858166E+02 -0.24346228224E+02 -0.52451198284E+02  0.46534994005E+03  0.46061571815E+03 0.  0.
         13    1    3    3    0    0  0.12098678661E+03 -0.39888132648E+02 -0.23188229055E+03  0.26457184720E+03  0.00000000000E+00 0.  1.
          1    1    3    3  501    0 -0.88739928444E+02  0.15541904424E+02  0.17943109227E+03  0.20077809284E+03  0.00000000000E+00 0.  1.
         21    1    1    2  502  501 -0.32246858166E+02  0.24346228224E+02  0.92523767383E+01  0.41451238409E+02  0.00000000000E+00 0. -1.
<scales pt_clust_4="550.00000" pt_clust_5="550.00000" pt_clust_6="40.40543"></scales>
<mgrwt>
<rscale>  0 0.30000000E+03</rscale>
<asrwt>  1 0.40405429E+02</asrwt>
<pdfrwt beam="1">  1        1 0.84291338E+00 0.30000000E+03</pdfrwt>
<pdfrwt beam="2">0</pdfrwt>
<totfact> 0.45851785E-04</totfact>
</mgrwt>
<clustering>
<clus scale="   40.405">  1  6  2 -1</clus>
<clus scale="  460.616">  4  5 -1 -1</clus>
<clus scale="  300.000">  1  4  2 -1</clus>
</clustering>
</event>
<event>
 6    1  0.9687246E-012  0.3000000E+03  0.7818608E-02  0.1093470E+00
          1   -1    0    0  502    0  0.00000000000E+00  0.00000000000E+00  0.23758618647E+03  0.23758618647E+03  0.00000000000E+00 0.  1.
         13   -1    0    0    0    0 -0.00000000000E+00 -0.00000000000E+00 -0.27500000000E+03  0.27500000000E+03  0.00000000000E+00 0.  1.
    9000005    2    1    2  501    0 -0.28775393397E+01  0.36681109391E+02 -0.58819814801E+02  0.47001858248E+03  0.46486978096E+03 0.  0.
         13    1    3    3    0    0  0.17198422969E+03  0.17192636717E+03 -0.52952031129E+02  0.24887982761E+03  0.00000000000E+00 0.  1.
          3    1    3    3  501    0 -0.17486176903E+03 -0.13524525778E+03 -0.58677836713E+01  0.22113875487E+03  0.00000000000E+00 0.  1.
         21    1    1    2  502  501  0.28775393397E+01 -0.36681109391E+02  0.21406001273E+02  0.42567603988E+02  0.00000000000E+00 0. -1.
<scales pt_clust_4="550.00000" pt_clust_5="550.00000" pt_clust_6="36.79380"></scales>
<mgrwt>
<rscale>  0 0.30000000E+03</rscale>
<asrwt>  1 0.36793804E+02</asrwt>
<pdfrwt beam="1">  1        1 0.86394977E+00 0.30000000E+03</pdfrwt>
<pdfrwt beam="2">0</pdfrwt>
<totfact> 0.29053744E-04</totfact>
</mgrwt>
<clustering>
<clus scale="   36.794">  1  6  2 -1</clus>
<clus scale="  464.870">  4  5 -1 -1</clus>
<clus scale="  300.000">  1  4  2 -1</clus>
</clustering>
</event>
<event>
 6    1  0.9687246E-012  0.3000000E+03  0.7818608E-02  0.1093470E+00
          1   -1    0    0  502    0  0.00000000000E+00  0.00000000000E+00  0.25963859772E+03  0.25963859772E+03  0.00000000000E+00 0.  1.
         13   -1    0    0    0    0 -0.00000000000E+00 -0.00000000000E+00 -0.27500000000E+03  0.27500000000E+03  0.00000000000E+00 0.  1.
    9000005    2    1    2  501    0 -0.54551326858E+01 -0.41881263177E+02 -0.32994048729E+02  0.48887060783E+03  0.48592392951E+03 0.  0.
         13    1    3    3    0    0 -0.64717737181E+02  0.61184194767E+02 -0.23676020479E+03  0.25295708285E+03  0.00000000000E+00 0.  1.
          1    1    3    3  501    0  0.59262604495E+02 -0.10306545794E+03  0.20376615606E+03  0.23591352498E+03  0.00000000000E+00 0.  1.
         21    1    1    2  502  501  0.54551326858E+01  0.41881263177E+02  0.17632646451E+02  0.45767989892E+02  0.00000000000E+00 0. -1.
<scales pt_clust_4="550.00000" pt_clust_5="550.00000" pt_clust_6="42.23504"></scales>
<mgrwt>
<rscale>  0 0.30000000E+03</rscale>
<asrwt>  1 0.42235041E+02</asrwt>
<pdfrwt beam="1">  1        1 0.94414036E+00 0.30000000E+03</pdfrwt>
<pdfrwt beam="2">0</pdfrwt>
<totfact> 0.15599218E-05</totfact>
</mgrwt>
<clustering>
<clus scale="   42.235">  1  6  2 -1</clus>
<clus scale="  485.924">  4  5 -1 -1</clus>
<clus scale="  300.000">  1  4  2 -1</clus>
</clustering>
</event>
<event>
 6    1  0.9687246E-012  0.3000000E+03  0.7818608E-02  0.1093470E+00
          1   -1    0    0  502    0  0.00000000000E+00  0.00000000000E+00  0.22795703239E+03  0.22795703239E+03  0.00000000000E+00 0.  1.
         13   -1    0    0    0    0 -0.00000000000E+00 -0.00000000000E+00 -0.27500000000E+03  0.27500000000E+03  0.00000000000E+00 0.  1.
    9000005    2    1    2  501    0 -0.34726992562E+02  0.55195692323E+01 -0.49731685368E+02  0.46769148461E+03  0.46370858801E+03 0.  0.
         13    1    3    3    0    0  0.20606362387E+03 -0.32527273843E+02 -0.77046668837E+02  0.22238801633E+03  0.00000000000E+00 0.  1.
          3    1    3    3  501    0 -0.24079061643E+03  0.38046843075E+02  0.27314983469E+02  0.24530346829E+03  0.00000000000E+00 0.  1.
         21    1    1    2  502  501  0.34726992562E+02 -0.55195692323E+01  0.26887177597E+01  0.35265547779E+02  0.00000000000E+00 0.  1.
<scales pt_clust_4="550.00000" pt_clust_5="550.00000" pt_clust_6="35.16290"></scales>
<mgrwt>
<rscale>  0 0.30000000E+03</rscale>
<asrwt>  1 0.35162902E+02</asrwt>
<pdfrwt beam="1">  1        1 0.82893466E+00 0.30000000E+03</pdfrwt>
<pdfrwt beam="2">0</pdfrwt>
<totfact> 0.60277228E-04</totfact>
</mgrwt>
<clustering>
<clus scale="   35.163">  1  6  2 -1</clus>
<clus scale="  463.709">  4  5 -1 -1</clus>
<clus scale="  300.000">  1  4  2 -1</clus>
</clustering>
</event>
<event>
 6    1  0.9687246E-012  0.3000000E+03  0.7818608E-02  0.1093470E+00
          1   -1    0    0  502    0  0.00000000000E+00  0.00000000000E+00  0.22856100272E+03  0.22856100272E+03  0.00000000000E+00 0.  1.
         13   -1    0    0    0    0 -0.00000000000E+00 -0.00000000000E+00 -0.27500000000E+03  0.27500000000E+03  0.00000000000E+00 0.  1.
    9000005    2    1    2  501    0 -0.14897165593E+01 -0.30125228114E+02 -0.59399573659E+02  0.47073227804E+03  0.46599444161E+03 0.  0.
         13    1    3    3    0    0  0.41307274894E+02 -0.10103940755E+01 -0.26015263720E+03  0.26341356552E+03  0.00000000000E+00 0.  1.
          3    1    3    3  501    0 -0.42796991454E+02 -0.29114834039E+02  0.20075306354E+03  0.20731871252E+03  0.00000000000E+00 0.  1.
         21    1    1    2  502  501  0.14897165593E+01  0.30125228114E+02  0.12960576379E+02  0.32828724685E+02  0.00000000000E+00 0.  1.
<scales pt_clust_4="550.00000" pt_clust_5="550.00000" pt_clust_6="30.16204"></scales>
<mgrwt>
<rscale>  0 0.30000000E+03</rscale>
<asrwt>  1 0.30162039E+02</asrwt>
<pdfrwt beam="1">  1        1 0.83113092E+00 0.30000000E+03</pdfrwt>
<pdfrwt beam="2">0</pdfrwt>
<totfact> 0.59525013E-04</totfact>
</mgrwt>
<clustering>
<clus scale="   30.162">  1  6  2 -1</clus>
<clus scale="  465.994">  4  5 -1 -1</clus>
<clus scale="  300.000">  1  4  2 -1</clus>
</clustering>
</event>
<event>
 6    1  0.9687246E-012  0.3000000E+03  0.7818608E-02  0.1093470E+00
          1   -1    0    0  502    0  0.00000000000E+00  0.00000000000E+00  0.25981841594E+03  0.25981841594E+03  0.00000000000E+00 0.  1.
         13   -1    0    0    0    0 -0.00000000000E+00 -0.00000000000E+00 -0.27500000000E+03  0.27500000000E+03  0.00000000000E+00 0.  1.
    9000005    2    1    2  501    0  0.15437687279E+01 -0.31581761355E+02 -0.66912724258E+02  0.47418920072E+03  0.46837836686E+03 0.  0.
         13    1    3    3    0    0  0.54021269681E+02 -0.24437560143E+03 -0.35646138450E+02  0.25280106673E+03  0.00000000000E+00 0.  1.
          3    1    3    3  501    0 -0.52477500953E+02  0.21279384008E+03 -0.31266585808E+02  0.22138813399E+03  0.00000000000E+00 0.  1.
         21    1    1    2  502  501 -0.15437687279E+01  0.31581761355E+02  0.51731140194E+02  0.60629215217E+02  0.00000000000E+00 0.  1.
<scales pt_clust_4="550.00000" pt_clust_5="550.00000" pt_clust_6="31.61947"></scales>
<mgrwt>
<rscale>  0 0.30000000E+03</rscale>
<asrwt>  1 0.31619470E+02</asrwt>
<pdfrwt beam="1">  1        1 0.94479424E+00 0.30000000E+03</pdfrwt>
<pdfrwt beam="2">0</pdfrwt>
<totfact> 0.15994138E-05</totfact>
</mgrwt>
<clustering>
<clus scale="   31.619">  1  6  2 -1</clus>
<clus scale="  468.378">  4  5 -1 -1</clus>
<clus scale="  300.000">  1  4  2 -1</clus>
</clustering>
</event>
<event>
 6    1  0.9687246E-012  0.3000000E+03  0.7818608E-02  0.1093470E+00
          1   -1    0    0  502    0  0.00000000000E+00  0.00000000000E+00  0.22344116677E+03  0.22344116677E+03  0.00000000000E+00 0.  1.
         13   -1    0    0    0    0 -0.00000000000E+00 -0.00000000000E+00 -0.27500000000E+03  0.27500000000E+03  0.00000000000E+00 0.  1.
    9000005    2    1    2  501    0  0.46246807262E+01  0.32331854881E+02 -0.43238249437E+02  0.46473703310E+03  0.46156714269E+03 0.  0.
         13    1    3    3    0    0  0.32420910165E+02 -0.12376208669E+03 -0.20280900593E+03  0.23979087223E+03  0.00000000000E+00 0.  1.
          1    1    3    3  501    0 -0.27796229439E+02  0.15609394157E+03  0.15957075649E+03  0.22494616088E+03  0.00000000000E+00 0.  1.
         21    1    1    2  502  501 -0.46246807262E+01 -0.32331854881E+02 -0.83205837880E+01  0.33704133670E+02  0.00000000000E+00 0. -1.
<scales pt_clust_4="550.00000" pt_clust_5="550.00000" pt_clust_6="32.66095"></scales>
<mgrwt>
<rscale>  0 0.30000000E+03</rscale>
<asrwt>  1 0.32660949E+02</asrwt>
<pdfrwt beam="1">  1        1 0.81251333E+00 0.30000000E+03</pdfrwt>
<pdfrwt beam="2">0</pdfrwt>
<totfact> 0.84428494E-04</totfact>
</mgrwt>
<clustering>
<clus scale="   32.661">  1  6  2 -1</clus>
<clus scale="  461.567">  4  5 -1 -1</clus>
<clus scale="  300.000">  1  4  2 -1</clus>
</clustering>
</event>
<event>
 6    1  0.9687246E-012  0.3000000E+03  0.7818608E-02  0.1093470E+00
          1   -1    0    0  502    0  0.00000000000E+00  0.00000000000E+00  0.24685735476E+03  0.24685735476E+03  0.00000000000E+00 0.  1.
         13   -1    0    0    0    0 -0.00000000000E+00 -0.00000000000E+00 -0.27500000000E+03  0.27500000000E+03  0.00000000000E+00 0.  1.
    9000005    2    1    2  501    0 -0.34618512826E+01  0.41198688413E+02 -0.60868871865E+02  0.46912859363E+03  0.46332202781E+03 0.  0.
         13    1    3    3    0    0  0.45582439088E+02  0.10953091984E+03  0.17910937965E+03  0.21483703366E+03  0.00000000000E+00 0.  1.
          1    1    3    3  501    0 -0.49044290370E+02 -0.68332231431E+02 -0.23997825151E+03  0.25429155997E+03  0.00000000000E+00 0.  1.
         21    1    1    2  502  501  0.34618512826E+01 -0.41198688413E+02  0.32726226625E+02  0.52728761130E+02  0.00000000000E+00 0.  1.
<scales pt_clust_4="550.00000" pt_clust_5="550.00000" pt_clust_6="41.34388"></scales>
<mgrwt>
<rscale>  0 0.30000000E+03</rscale>
<asrwt>  1 0.41343879E+02</asrwt>
<pdfrwt beam="1">  1        1 0.89766311E+00 0.30000000E+03</pdfrwt>
<pdfrwt beam="2">0</pdfrwt>
<totfact> 0.11416839E-04</totfact>
</mgrwt>
<clustering>
<clus scale="   41.344">  1  6  2 -1</clus>
<clus scale="  463.322">  4  5 -1 -1</clus>
<clus scale="  300.000">  1  4  2 -1</clus>
</clustering>
</event>
<event>
 6    1  0.9687246E-012  0.3000000E+03  0.7818608E-02  0.1093470E+00
          1   -1    0    0  502    0  0.00000000000E+00  0.00000000000E+00  0.22792904585E+03  0.22792904585E+03  0.00000000000E+00 0.  1.
         13   -1    0    0    0    0 -0.00000000000E+00 -0.00000000000E+00 -0.27500000000E+03  0.27500000000E+03  0.00000000000E+00 0.  1.
    9000005    2    1    2  501    0 -0.26884804967E+02  0.15152337303E+02 -0.51980309037E+02  0.47168024060E+03  0.46779045606E+03 0.  0.
         13    1    3    3    0    0  0.19536195278E+03 -0.96567575114E+02 -0.18562655733E+01  0.21793355611E+03  0.00000000000E+00 0.  1.
          1    1    3    3  501    0 -0.22224675774E+03  0.11171991242E+03 -0.50124043464E+02  0.25374668449E+03  0.00000000000E+00 0.  1.
         21    1    1    2  502  501  0.26884804967E+02 -0.15152337303E+02  0.49093548826E+01  0.31248805245E+02  0.00000000000E+00 0.  1.
<scales pt_clust_4="550.00000" pt_clust_5="550.00000" pt_clust_6="30.86075"></scales>
<mgrwt>
<rscale>  0 0.30000000E+03</rscale>
<asrwt>  1 0.30860753E+02</asrwt>
<pdfrwt beam="1">  1        1 0.82883289E+00 0.30000000E+03</pdfrwt>
<pdfrwt beam="2">0</pdfrwt>
<totfact> 0.61907155E-04</totfact>
</mgrwt>
<clustering>
<clus scale="   30.861">  1  6  2 -1</clus>
<clus scale="  467.790">  4  5 -1 -1</clus>
<clus scale="  300.000">  1  4  2 -1</clus>
</clustering>
</event>
<event>
 6    1  0.9687246E-012  0.3000000E+03  0.7818608E-02  0.1093470E+00
          1   -1    0    0  502    0  0.00000000000E+00  0.00000000000E+00  0.22946662870E+03  0.22946662870E+03  0.00000000000E+00 0.  1.
         13   -1    0    0    0    0 -0.00000000000E+00 -0.00000000000E+00 -0.27500000000E+03  0.27500000000E+03  0.00000000000E+00 0.  1.
    9000005    2    1    2  501    0  0.69208557869E+01  0.33429093023E+02 -0.41023559570E+02  0.47003203988E+03  0.46699227357E+03 0.  0.
         13    1    3    3    0    0 -0.51553460553E+02 -0.13286551195E+03 -0.19119164115E+03  0.23846435207E+03  0.00000000000E+00 0.  1.
          1    1    3    3  501    0  0.58474316340E+02  0.16629460498E+03  0.15016808158E+03  0.23156768782E+03  0.00000000000E+00 0.  1.
         21    1    1    2  502  501 -0.69208557869E+01 -0.33429093023E+02 -0.45098117302E+01  0.34434588817E+02  0.00000000000E+00 0. -1.
<scales pt_clust_4="550.00000" pt_clust_5="550.00000" pt_clust_6="34.13801"></scales>
<mgrwt>
<rscale>  0 0.30000000E+03</rscale>
<asrwt>  1 0.34138009E+02</asrwt>
<pdfrwt beam="1">  1        1 0.83442410E+00 0.30000000E+03</pdfrwt>
<pdfrwt beam="2">0</pdfrwt>
<totfact> 0.54882886E-04</totfact>
</mgrwt>
<clustering>
<clus scale="   34.138">  1  6  2 -1</clus>
<clus scale="  466.992">  4  5 -1 -1</clus>
<clus scale="  300.000">  1  4  2 -1</clus>
</clustering>
</event>
<event>
 6    1  0.9687246E-012  0.3000000E+03  0.7818608E-02  0.1093470E+00
          1   -1    0    0  502    0  0.00000000000E+00  0.00000000000E+00  0.22436493473E+03  0.22436493473E+03  0.00000000000E+00 0.  1.
         13   -1    0    0    0    0 -0.00000000000E+00 -0.00000000000E+00 -0.27500000000E+03  0.27500000000E+03  0.00000000000E+00 0.  1.
    9000005    2    1    2  501    0  0.22071808940E+02 -0.28238061989E+02 -0.60370864169E+02  0.46222548569E+03  0.45686234851E+03 0.  0.
         13    1    3    3    0    0 -0.16242430374E+03  0.42242406005E+02 -0.16786215397E+03  0.23736844367E+03  0.00000000000E+00 0.  1.
          3    1    3    3  501    0  0.18449611268E+03 -0.70480467994E+02  0.10749128981E+03  0.22485704203E+03  0.00000000000E+00 0.  1.
         21    1    1    2  502  501 -0.22071808940E+02  0.28238061989E+02  0.97357989020E+01  0.37139449041E+02  0.00000000000E+00 0. -1.
<scales pt_clust_4="550.00000" pt_clust_5="550.00000" pt_clust_6="35.84066"></scales>
<mgrwt>
<rscale>  0 0.30000000E+03</rscale>
<asrwt>  1 0.35840660E+02</asrwt>
<pdfrwt beam="1">  1        1 0.81587249E+00 0.30000000E+03</pdfrwt>
<pdfrwt beam="2">0</pdfrwt>
<totfact> 0.77971082E-04</totfact>
</mgrwt>
<clustering>
<clus scale="   35.841">  1  6  2 -1</clus>
<clus scale="  456.862">  4  5 -1 -1</clus>
<clus scale="  300.000">  1  4  2 -1</clus>
</clustering>
</event>
<event>
 6    1  0.9687246E-012  0.3000000E+03  0.7818608E-02  0.1093470E+00
          1   -1    0    0  502    0  0.00000000000E+00  0.00000000000E+00  0.23189201205E+03  0.23189201205E+03  0.00000000000E+00 0.  1.
         13   -1    0    0    0    0 -0.00000000000E+00 -0.00000000000E+00 -0.27500000000E+03  0.27500000000E+03  0.00000000000E+00 0.  1.
    9000005    2    1    2  501    0 -0.12831722648E+02 -0.30659681235E+02 -0.32937391025E+02  0.47213413235E+03  0.46980964022E+03 0.  0.
         13    1    3    3    0    0  0.60745742164E+02 -0.18280491884E+03 -0.16814962594E+03  0.25569900322E+03  0.00000000000E+00 0.  1.
          1    1    3    3  501    0 -0.73577464812E+02  0.15214523761E+03  0.13521223491E+03  0.21643512914E+03  0.00000000000E+00 0.  1.
         21    1    1    2  502  501  0.12831722648E+02  0.30659681235E+02 -0.10170596922E+02  0.34757879701E+02  0.00000000000E+00 0.  1.
<scales pt_clust_4="550.00000" pt_clust_5="550.00000" pt_clust_6="33.23658"></scales>
<mgrwt>
<rscale>  0 0.30000000E+03</rscale>
<asrwt>  1 0.33236580E+02</asrwt>
<pdfrwt beam="1">  1        1 0.84324368E+00 0.30000000E+03</pdfrwt>
<pdfrwt beam="2">0</pdfrwt>
<totfact> 0.47238943E-04</totfact>
</mgrwt>
<clustering>
<clus scale="   33.237">  1  6  2 -1</clus>
<clus scale="  469.810">  4  5 -1 -1</clus>
<clus scale="  300.000">  1  4  2 -1</clus>
</clustering>
</event>
<event>
 6    1  0.9687246E-012  0.3000000E+03  0.7818608E-02  0.1093470E+00
          1   -1    0    0  502    0  0.00000000000E+00  0.00000000000E+00  0.24425336527E+03  0.24425336527E+03  0.00000000000E+00 0.  1.
         13   -1    0    0    0    0 -0.00000000000E+00 -0.00000000000E+00 -0.27500000000E+03  0.27500000000E+03  0.00000000000E+00 0.  1.
    9000005    2    1    2  501    0  0.16482350289E+02  0.36006536737E+02 -0.57594430961E+02  0.47141046902E+03  0.46620014293E+03 0.  0.
         13    1    3    3    0    0  0.39296194282E+02  0.96105718121E+02 -0.24884924316E+03  0.26964132799E+03  0.00000000000E+00 0.  1.
          3    1    3    3  501    0 -0.22813843993E+02 -0.60099181384E+02  0.19125481220E+03  0.20176914103E+03  0.00000000000E+00 0.  1.
         21    1    1    2  502  501 -0.16482350289E+02 -0.36006536737E+02  0.26847796226E+02  0.47842896244E+02  0.00000000000E+00 0.  1.
<scales pt_clust_4="550.00000" pt_clust_5="550.00000" pt_clust_6="39.59973"></scales>
<mgrwt>
<rscale>  0 0.30000000E+03</rscale>
<asrwt>  1 0.39599729E+02</asrwt>
<pdfrwt beam="1">  1        1 0.88819406E+00 0.30000000E+03</pdfrwt>
<pdfrwt beam="2">0</pdfrwt>
<totfact> 0.14988956E-04</totfact>
</mgrwt>
<clustering>
<clus scale="   39.600">  1  6  2 -1</clus>
<clus scale="  466.200">  4  5 -1 -1</clus>
<clus scale="  300.000">  1  4  2 -1</clus>
</clustering>
</event>
<event>
 6    1  0.9687246E-012  0.3000000E+03  0.7818608E-02  0.1093470E+00
          1   -1    0    0  502    0  0.00000000000E+00  0.00000000000E+00  0.23991438165E+03  0.23991438165E+03  0.00000000000E+00 0.  1.
         13   -1    0    0    0    0 -0.00000000000E+00 -0.00000000000E+00 -0.27500000000E+03  0.27500000000E+03  0.00000000000E+00 0.  1.
    9000005    2    1    2  501    0  0.37449952338E+02 -0.82704935655E+01 -0.56754386307E+02  0.47086400709E+03  0.46585507705E+03 0.  0.
         13    1    3    3    0    0  0.12336842608E+03  0.18091266132E+03  0.67035464571E+02  0.22900417702E+03  0.00000000000E+00 0.  1.
          1    1    3    3  501    0 -0.85918473745E+02 -0.18918315489E+03 -0.12378985088E+03  0.24185983007E+03  0.00000000000E+00 0.  1.
         21    1    1    2  502  501 -0.37449952338E+02  0.82704935655E+01  0.21668767955E+02  0.44050374557E+02  0.00000000000E+00 0. -1.
<scales pt_clust_4="550.00000" pt_clust_5="550.00000" pt_clust_6="38.35231"></scales>
<mgrwt>
<rscale>  0 0.30000000E+03</rscale>
<asrwt>  1 0.38352314E+02</asrwt>
<pdfrwt beam="1">  1        1 0.87241593E+00 0.30000000E+03</pdfrwt>
<pdfrwt beam="2">0</pdfrwt>
<totfact> 0.23523588E-04</totfact>
</mgrwt>
<clustering>
<clus scale="   38.352">  1  6  2 -1</clus>
<clus scale="  465.855">  4  5 -1 -1</clus>
<clus scale="  300.000">  1  4  2 -1</clus>
</clustering>
</event>
<event>
 6    1  0.9687246E-012  0.3000000E+03  0.7818608E-02  0.1093470E+00
          1   -1    0    0  502    0  0.00000000000E+00  0.00000000000E+00  0.24874698869E+03  0.24874698869E+03  0.00000000000E+00 0.  1.
         13   -1    0    0    0    0 -0.00000000000E+00 -0.00000000000E+00 -0.27500000000E+03  0.27500000000E+03  0.00000000000E+00 0.  1.
    9000005    2    1    2  501    0 -0.35852608574E+02  0.18250310477E+01 -0.20095110966E+02  0.48732364430E+03  0.48558395827E+03 0.  0.
         13    1    3    3    0    0 -0.51531744926E+02  0.18173703168E+03 -0.16884036074E+03  0.25335930382E+03  0.00000000000E+00 0.  1.
          1    1    3    3  501    0  0.15679136352E+02 -0.17991200063E+03  0.14874524978E+03  0.23396434048E+03  0.00000000000E+00 0.  1.
         21    1    1    2  502  501  0.35852608574E+02 -0.18250310477E+01 -0.61579003404E+01  0.36423344389E+02  0.00000000000E+00 0.  1.
<scales pt_clust_4="550.00000" pt_clust_5="550.00000" pt_clust_6="35.89905"></scales>
<mgrwt>
<rscale>  0 0.30000000E+03</rscale>
<asrwt>  1 0.35899047E+02</asrwt>
<pdfrwt beam="1">  1        1 0.90453450E+00 0.30000000E+03</pdfrwt>
<pdfrwt beam="2">0</pdfrwt>
<totfact> 0.93879402E-05</totfact>
</mgrwt>
<clustering>
<clus scale="   35.899">  1  6  2 -1</clus>
<clus scale="  485.584">  4  5 -1 -1</clus>
<clus scale="  300.000">  1  4  2 -1</clus>
</clustering>
</event>
<event>
 6    1  0.9687246E-012  0.3000000E+03  0.7818608E-02  0.1093470E+00
          1   -1    0    0  502    0  0.00000000000E+00  0.00000000000E+00  0.23529257214E+03  0.23529257214E+03  0.00000000000E+00 0.  1.
         13   -1    0    0    0    0 -0.00000000000E+00 -0.00000000000E+00 -0.27500000000E+03  0.27500000000E+03  0.00000000000E+00 0.  1.
    9000005    2    1    2  501    0  0.75820306275E+01 -0.33674491096E+02 -0.36814565924E+02  0.47565405038E+03  0.47296934874E+03 0.  0.
         13    1    3    3    0    0  0.28031431819E+02 -0.48418737248E+02 -0.25243715176E+03  0.25856266334E+03  0.00000000000E+00 0.  1.
          1    1    3    3  501    0 -0.20449401191E+02  0.14744246152E+02  0.21562258584E+03  0.21709138704E+03  0.00000000000E+00 0.  1.
         21    1    1    2  502  501 -0.75820306275E+01  0.33674491096E+02 -0.28928619397E+01  0.34638521753E+02  0.00000000000E+00 0.  1.
<scales pt_clust_4="550.00000" pt_clust_5="550.00000" pt_clust_6="34.51753"></scales>
<mgrwt>
<rscale>  0 0.30000000E+03</rscale>
<asrwt>  1 0.34517528E+02</asrwt>
<pdfrwt beam="1">  1        1 0.85560935E+00 0.30000000E+03</pdfrwt>
<pdfrwt beam="2">0</pdfrwt>
<totfact> 0.36020839E-04</totfact>
</mgrwt>
<clustering>
<clus scale="   34.518">  1  6  2 -1</clus>
<clus scale="  472.969">  4  5 -1 -1</clus>
<clus scale="  300.000">  1  4  2 -1</clus>
</clustering>
</event>
<event>
 6    1  0.9687246E-012  0.3000000E+03  0.7818608E-02  0.1093470E+00
          1   -1    0    0  502    0  0.00000000000E+00  0.00000000000E+00  0.24355755664E+03  0.24355755664E+03  0.00000000000E+00 0.  1.
         13   -1    0    0    0    0 -0.00000000000E+00 -0.00000000000E+00 -0.27500000000E+03  0.27500000000E+03  0.00000000000E+00 0.  1.
    9000005    2    1    2  501    0 -0.35187088390E+02  0.30160602834E+01 -0.42521215137E+02  0.48154449147E+03  0.47836159515E+03 0.  0.
         13    1    3    3    0    0  0.46169302221E+02  0.35099369268E+02 -0.24986735541E+03  0.25650977660E+03  0.00000000000E+00 0.  1.
          1    1    3    3  501    0 -0.81356390612E+02 -0.32083308984E+02  0.20734614028E+03  0.22503471487E+03  0.00000000000E+00 0.  1.
         21    1    1    2  502  501  0.35187088390E+02 -0.30160602834E+01  0.11078771773E+02  0.37013065166E+02  0.00000000000E+00 0. -1.
<scales pt_clust_4="550.00000" pt_clust_5="550.00000" pt_clust_6="35.31611"></scales>
<mgrwt>
<rscale>  0 0.30000000E+03</rscale>
<asrwt>  1 0.35316113E+02</asrwt>
<pdfrwt beam="1">  1        1 0.88566384E+00 0.30000000E+03</pdfrwt>
<pdfrwt beam="2">0</pdfrwt>
<totfact> 0.16590261E-04</totfact>
</mgrwt>
<clustering>
<clus scale="   35.316">  1  6  2 -1</clus>
<clus scale="  478.362">  4  5 -1 -1</clus>
<clus scale="  300.000">  1  4  2 -1</clus>
</clustering>
</event>
<event>
 6    1  0.9687246E-012  0.3000000E+03  0.7818608E-02  0.1093470E+00
          1   -1    0    0  502    0  0.00000000000E+00  0.00000000000E+00  0.26920804415E+03  0.26920804415E+03  0.00000000000E+00 0.  1.
         13   -1    0    0    0    0 -0.00000000000E+00 -0.00000000000E+00 -0.27500000000E+03  0.27500000000E+03  0.00000000000E+00 0.  1.
    9000005    2    1    2  501    0 -0.32547551937E+02  0.14100810753E+02 -0.55379872390E+02  0.48323971247E+03  0.47874368240E+03 0.  0.
         13    1    3    3    0    0 -0.13583005709E+03 -0.11438835145E+03  0.14106356731E+03  0.22678939433E+03  0.00000000000E+00 0.  1.
          3    1    3    3  501    0  0.10328250515E+03  0.12848916221E+03 -0.19644343970E+03  0.25645031814E+03  0.00000000000E+00 0.  1.
         21    1    1    2  502  501  0.32547551937E+02 -0.14100810753E+02  0.49587916543E+02  0.60968331681E+02  0.00000000000E+00 0.  1.
<scales pt_clust_4="550.00000" pt_clust_5="550.00000" pt_clust_6="35.47078"></scales>
<mgrwt>
<rscale>  0 0.30000000E+03</rscale>
<asrwt>  1 0.35470777E+02</asrwt>
<pdfrwt beam="1">  1        1 0.97893834E+00 0.30000000E+03</pdfrwt>
<pdfrwt beam="2">0</pdfrwt>
<totfact> 0.31347247E-06</totfact>
</mgrwt>
<clustering>
<clus scale="   35.471">  1  6  2 -1</clus>
<clus scale="  478.744">  4  5 -1 -1</clus>
<clus scale="  300.000">  1  4  2 -1</clus>
</clustering>
</event>
<event>
 6    1  0.9687246E-012  0.3000000E+03  0.7818608E-02  0.1093470E+00
          1   -1    0    0  502    0  0.00000000000E+00  0.00000000000E+00  0.24784985090E+03  0.24784985090E+03  0.00000000000E+00 0.  1.
         13   -1    0    0    0    0 -0.00000000000E+00 -0.00000000000E+00 -0.27500000000E+03  0.27500000000E+03  0.00000000000E+00 0.  1.
    9000005    2    1    2  501    0  0.26909179289E+02 -0.19247134129E+02 -0.34403339469E+02  0.48898002845E+03  0.48664496540E+03 0.  0.
         13    1    3    3    0    0  0.24160429933E+03  0.53126395844E+02  0.39832179146E+02  0.25056267456E+03  0.00000000000E+00 0.  1.
          1    1    3    3  501    0 -0.21469512004E+03 -0.72373529973E+02 -0.74235518615E+02  0.23841735388E+03  0.00000000000E+00 0.  1.
         21    1    1    2  502  501 -0.26909179289E+02  0.19247134129E+02  0.72531903647E+01  0.33869822448E+02  0.00000000000E+00 0.  1.
<scales pt_clust_4="550.00000" pt_clust_5="550.00000" pt_clust_6="33.08408"></scales>
<mgrwt>
<rscale>  0 0.30000000E+03</rscale>
<asrwt>  1 0.33084076E+02</asrwt>
<pdfrwt beam="1">  1        1 0.90127219E+00 0.30000000E+03</pdfrwt>
<pdfrwt beam="2">0</pdfrwt>
<totfact> 0.10741446E-04</totfact>
</mgrwt>
<clustering>
<clus scale="   33.084">  1  6  2 -1</clus>
<clus scale="  486.645">  4  5 -1 -1</clus>
<clus scale="  300.000">  1  4  2 -1</clus>
</clustering>
</event>
<event>
 6    1  0.9687246E-012  0.3000000E+03  0.7818608E-02  0.1093470E+00
          1   -1    0    0  502    0  0.00000000000E+00  0.00000000000E+00  0.22817484218E+03  0.22817484218E+03  0.00000000000E+00 0.  1.
         13   -1    0    0    0    0 -0.00000000000E+00 -0.00000000000E+00 -0.27500000000E+03  0.27500000000E+03  0.00000000000E+00 0.  1.
    9000005    2    1    2  501    0 -0.26784698908E+02 -0.23826398481E+02 -0.52193259544E+02  0.46692661634E+03  0.46261345781E+03 0.  0.
         13    1    3    3    0    0  0.12849369676E+03 -0.16550004456E+03 -0.12559185849E+03  0.24428305258E+03  0.00000000000E+00 0.  1.
          3    1    3    3  501    0 -0.15527839567E+03  0.14167364608E+03  0.73398598948E+02  0.22264356376E+03  0.00000000000E+00 0.  1.
         21    1    1    2  502  501  0.26784698908E+02  0.23826398481E+02  0.53681017232E+01  0.36248225837E+02  0.00000000000E+00 0. -1.
<scales pt_clust_4="550.00000" pt_clust_5="550.00000" pt_clust_6="35.84853"></scales>
<mgrwt>
<rscale>  0 0.30000000E+03</rscale>
<asrwt>  1 0.35848534E+02</asrwt>
<pdfrwt beam="1">  1        1 0.82972670E+00 0.30000000E+03</pdfrwt>
<pdfrwt beam="2">0</pdfrwt>
<totfact> 0.59145276E-04</totfact>
</mgrwt>
<clustering>
<clus scale="   35.849">  1  6  2 -1</clus>
<clus scale="  462.613">  4  5 -1 -1</clus>
<clus scale="  300.000">  1  4  2 -1</clus>
</clustering>
</event>
<event>
 6    1  0.9687246E-012  0.3000000E+03  0.7818608E-02  0.1093470E+00
          1   -1    0    0  502    0  0.00000000000E+00  0.00000000000E+00  0.23317379510E+03  0.23317379510E+03  0.00000000000E+00 0.  1.
         13   -1    0    0    0    0 -0.00000000000E+00 -0.00000000000E+00 -0.27500000000E+03  0.27500000000E+03  0.00000000000E+00 0.  1.
    9000005    2    1    2  501    0 -0.13073831764E+02  0.32816136443E+02 -0.33111850768E+02  0.47179022936E+03  0.46929926696E+03 0.  0.
         13    1    3    3    0    0  0.22471287204E+03  0.51362186212E+01 -0.54989438606E+02  0.23140028946E+03  0.00000000000E+00 0.  1.
          3    1    3    3  501    0 -0.23778670380E+03  0.27679917821E+02  0.21877587838E+02  0.24038993990E+03  0.00000000000E+00 0.  1.
         21    1    1    2  502  501  0.13073831764E+02 -0.32816136443E+02 -0.87143541323E+01  0.36383565740E+02  0.00000000000E+00 0.  1.
<scales pt_clust_4="550.00000" pt_clust_5="550.00000" pt_clust_6="35.32457"></scales>
<mgrwt>
<rscale>  0 0.30000000E+03</rscale>
<asrwt>  1 0.35324568E+02</asrwt>
<pdfrwt beam="1">  1        1 0.84790471E+00 0.30000000E+03</pdfrwt>
<pdfrwt beam="2">0</pdfrwt>
<totfact> 0.42485667E-04</totfact>
</mgrwt>
<clustering>
<clus scale="   35.325">  1  6  2 -1</clus>
<clus scale="  469.299">  4  5 -1 -1</clus>
<clus scale="  300.000">  1  4  2 -1</clus>
</clustering>
</event>
<event>
 6    1  0.9687246E-012  0.3000000E+03  0.7818608E-02  0.1093470E+00
          1   -1    0    0  502    0  0.00000000000E+00  0.00000000000E+00  0.23234749853E+03  0.23234749853E+03  0.00000000000E+00 0.  1.
         13   -1    0    0    0    0 -0.00000000000E+00 -0.00000000000E+00 -0.27500000000E+03  0.27500000000E+03  0.00000000000E+00 0.  1.
    9000005    2    1    2  501    0  0.42061737841E+02 -0.13874677105E+02 -0.51286148112E+02  0.46222282336E+03  0.45722857849E+03 0.  0.
         13    1    3    3    0    0  0.47782418804E+02 -0.18911523357E+03  0.11004487775E+03  0.22395893872E+03  0.00000000000E+00 0.  1.
          3    1    3    3  501    0 -0.57206809635E+01  0.17524055646E+03 -0.16133102586E+03  0.23826388464E+03  0.00000000000E+00 0.  1.
         21    1    1    2  502  501 -0.42061737841E+02  0.13874677105E+02  0.86336466448E+01  0.45124675172E+02  0.00000000000E+00 0.  1.
<scales pt_clust_4="550.00000" pt_clust_5="550.00000" pt_clust_6="44.29104"></scales>
<mgrwt>
<rscale>  0 0.30000000E+03</rscale>
<asrwt>  1 0.44291043E+02</asrwt>
<pdfrwt beam="1">  1        1 0.84489999E+00 0.30000000E+03</pdfrwt>
<pdfrwt beam="2">0</pdfrwt>
<totfact> 0.43363813E-04</totfact>
</mgrwt>
<clustering>
<clus scale="   44.291">  1  6  2 -1</clus>
<clus scale="  457.229">  4  5 -1 -1</clus>
<clus scale="  300.000">  1  4  2 -1</clus>
</clustering>
</event>
<event>
 6    1  0.9687246E-012  0.3000000E+03  0.7818608E-02  0.1093470E+00
          1   -1    0    0  502    0  0.00000000000E+00  0.00000000000E+00  0.23197250123E+03  0.23197250123E+03  0.00000000000E+00 0.  1.
         13   -1    0    0    0    0 -0.00000000000E+00 -0.00000000000E+00 -0.27500000000E+03  0.27500000000E+03  0.00000000000E+00 0.  1.
    9000005    2    1    2  501    0  0.15691874740E+02  0.25780299897E+02 -0.76281988516E+01  0.46045401855E+03  0.45940053873E+03 0.  0.
         13    1    3    3    0    0 -0.11040755152E+03  0.20281711676E+03 -0.56368272076E+02  0.23770147745E+03  0.00000000000E+00 0.  1.
          3    1    3    3  501    0  0.12609942626E+03 -0.17703681687E+03  0.48740073225E+02  0.22275254110E+03  0.00000000000E+00 0.  1.
         21    1    1    2  502  501 -0.15691874740E+02 -0.25780299897E+02 -0.35399299922E+02  0.46518482677E+02  0.00000000000E+00 0. -1.
<scales pt_clust_4="550.00000" pt_clust_5="550.00000" pt_clust_6="30.18045"></scales>
<mgrwt>
<rscale>  0 0.30000000E+03</rscale>
<asrwt>  1 0.30180452E+02</asrwt>
<pdfrwt beam="1">  1        1 0.84353637E+00 0.30000000E+03</pdfrwt>
<pdfrwt beam="2">0</pdfrwt>
<totfact> 0.47840959E-04</totfact>
</mgrwt>
<clustering>
<clus scale="   30.180">  1  6  2 -1</clus>
<clus scale="  459.401">  4  5 -1 -1</clus>
<clus scale="  300.000">  1  4  2 -1</clus>
</clustering>
</event>
<event>
 6    1  0.9687246E-012  0.3000000E+03  0.7818608E-02  0.1093470E+00
          1   -1    0    0  502    0  0.00000000000E+00  0.00000000000E+00  0.22971692800E+03  0.22971692800E+03  0.00000000000E+00 0.  1.
         13   -1    0    0    0    0 -0.00000000000E+00 -0.00000000000E+00 -0.27500000000E+03  0.27500000000E+03  0.00000000000E+00 0.  1.
    9000005    2    1    2  501    0  0.25467299904E+02  0.29989265618E+02 -0.48640671043E+02  0.46523005819E+03  0.46100450404E+03 0.  0.
         13    1    3    3    0    0  0.14538068016E+03  0.11627594786E+02  0.16458749968E+03  0.21990859050E+03  0.00000000000E+00 0.  1.
          3    1    3    3  501    0 -0.11991338025E+03  0.18361670832E+02 -0.21322817072E+03  0.24532146769E+03  0.00000000000E+00 0.  1.
         21    1    1    2  502  501 -0.25467299904E+02 -0.29989265618E+02  0.33575990477E+01  0.39486869819E+02  0.00000000000E+00 0. -1.
<scales pt_clust_4="550.00000" pt_clust_5="550.00000" pt_clust_6="39.34386"></scales>
<mgrwt>
<rscale>  0 0.30000000E+03</rscale>
<asrwt>  1 0.39343861E+02</asrwt>
<pdfrwt beam="1">  1        1 0.83533428E+00 0.30000000E+03</pdfrwt>
<pdfrwt beam="2">0</pdfrwt>
<totfact> 0.52644232E-04</totfact>
</mgrwt>
<clustering>
<clus scale="   39.344">  1  6  2 -1</clus>
<clus scale="  461.005">  4  5 -1 -1</clus>
<clus scale="  300.000">  1  4  2 -1</clus>
</clustering>
</event>
<event>
 6    1  0.9687246E-012  0.3000000E+03  0.7818608E-02  0.1093470E+00
          1   -1    0    0  502    0  0.00000000000E+00  0.00000000000E+00  0.25605769726E+03  0.25605769726E+03  0.00000000000E+00 0.  1.
         13   -1    0    0    0    0 -0.00000000000E+00 -0.00000000000E+00 -0.27500000000E+03  0.27500000000E+03  0.00000000000E+00 0.  1.
    9000005    2    1    2  501    0  0.23126740668E+02  0.52520741629E+02 -0.35547382843E+02  0.47131656302E+03  0.46645729892E+03 0.  0.
         13    1    3    3    0    0 -0.17835533020E+03  0.11879128804E+03  0.81253917046E+02  0.22918157204E+03  0.00000000000E+00 0.  1.
          1    1    3    3  501    0  0.20148207087E+03 -0.66270546415E+02 -0.11680129989E+03  0.24213499098E+03  0.00000000000E+00 0.  1.
         21    1    1    2  502  501 -0.23126740668E+02 -0.52520741629E+02  0.16605080104E+02  0.59741134242E+02  0.00000000000E+00 0.  1.
<scales pt_clust_4="550.00000" pt_clust_5="550.00000" pt_clust_6="57.38706"></scales>
<mgrwt>
<rscale>  0 0.30000000E+03</rscale>
<asrwt>  1 0.57387058E+02</asrwt>
<pdfrwt beam="1">  1        1 0.93111890E+00 0.30000000E+03</pdfrwt>
<pdfrwt beam="2">0</pdfrwt>
<totfact> 0.23143004E-05</totfact>
</mgrwt>
<clustering>
<clus scale="   57.387">  1  6  2 -1</clus>
<clus scale="  466.457">  4  5 -1 -1</clus>
<clus scale="  300.000">  1  4  2 -1</clus>
</clustering>
</event>
<event>
 6    1  0.9687246E-012  0.3000000E+03  0.7818608E-02  0.1093470E+00
          1   -1    0    0  502    0  0.00000000000E+00  0.00000000000E+00  0.23311536667E+03  0.23311536667E+03  0.00000000000E+00 0.  1.
         13   -1    0    0    0    0 -0.00000000000E+00 -0.00000000000E+00 -0.27500000000E+03  0.27500000000E+03  0.00000000000E+00 0.  1.
    9000005    2    1    2  501    0 -0.43154218414E+01 -0.36978300324E+02 -0.55022428106E+02  0.46863601495E+03  0.46390325431E+03 0.  0.
         13    1    3    3    0    0  0.65570036374E+02  0.97882954576E+01 -0.24875654318E+03  0.25743942622E+03  0.00000000000E+00 0.  1.
          3    1    3    3  501    0 -0.69885458216E+02 -0.46766595781E+02  0.19373411507E+03  0.21119658874E+03  0.00000000000E+00 0.  1.
         21    1    1    2  502  501  0.43154218414E+01  0.36978300324E+02  0.13137794780E+02  0.39479351719E+02  0.00000000000E+00 0. -1.
<scales pt_clust_4="550.00000" pt_clust_5="550.00000" pt_clust_6="37.22926"></scales>
<mgrwt>
<rscale>  0 0.30000000E+03</rscale>
<asrwt>  1 0.37229257E+02</asrwt>
<pdfrwt beam="1">  1        1 0.84769224E+00 0.30000000E+03</pdfrwt>
<pdfrwt beam="2">0</pdfrwt>
<totfact> 0.42261204E-04</totfact>
</mgrwt>
<clustering>
<clus scale="   37.229">  1  6  2 -1</clus>
<clus scale="  463.903">  4  5 -1 -1</clus>
<clus scale="  300.000">  1  4  2 -1</clus>
</clustering>
</event>
<event>
 6    1  0.9687246E-012  0.3000000E+03  0.7818608E-02  0.1093470E+00
          1   -1    0    0  502    0  0.00000000000E+00  0.00000000000E+00  0.25694547070E+03  0.25694547070E+03  0.00000000000E+00 0.  1.
         13   -1    0    0    0    0 -0.00000000000E+00 -0.00000000000E+00 -0.27500000000E+03  0.27500000000E+03  0.00000000000E+00 0.  1.
    9000005    2    1    2  501    0 -0.36148415142E+02  0.49948021212E+01 -0.35418013103E+02  0.49153326295E+03  0.48889554811E+03 0.  0.
         13    1    3    3    0    0  0.86469887232E+02  0.13067770754E+03  0.16332301814E+03  0.22633628278E+03  0.00000000000E+00 0.  1.
          3    1    3    3  501    0 -0.12261830237E+03 -0.12568290542E+03 -0.19874103124E+03  0.26519698017E+03  0.00000000000E+00 0.  1.
         21    1    1    2  502  501  0.36148415142E+02 -0.49948021212E+01  0.17363483800E+02  0.40412207750E+02  0.00000000000E+00 0.  1.
<scales pt_clust_4="550.00000" pt_clust_5="550.00000" pt_clust_6="36.49186"></scales>
<mgrwt>
<rscale>  0 0.30000000E+03</rscale>
<asrwt>  1 0.36491862E+02</asrwt>
<pdfrwt beam="1">  1        1 0.93434717E+00 0.30000000E+03</pdfrwt>
<pdfrwt beam="2">0</pdfrwt>
<totfact> 0.22763165E-05</totfact>
</mgrwt>
<clustering>
<clus scale="   36.492">  1  6  2 -1</clus>
<clus scale="  488.896">  4  5 -1 -1</clus>
<clus scale="  300.000">  1  4  2 -1</clus>
</clustering>
</event>
<event>
 6    1  0.9687246E-012  0.3000000E+03  0.7818608E-02  0.1093470E+00
          1   -1    0    0  502    0  0.00000000000E+00  0.00000000000E+00  0.22666732776E+03  0.22666732776E+03  0.00000000000E+00 0.  1.
         13   -1    0    0    0    0 -0.00000000000E+00 -0.00000000000E+00 -0.27500000000E+03  0.27500000000E+03  0.00000000000E+00 0.  1.
    9000005    2    1    2  501    0 -0.14076739836E+02 -0.27589338489E+02 -0.41475120327E+02  0.46994427272E+03  0.46708469002E+03 0.  0.
         13    1    3    3    0    0 -0.21960308786E+03  0.73961033411E+02 -0.61732249047E+02  0.23980538199E+03  0.00000000000E+00 0.  1.
          3    1    3    3  501    0  0.20552634802E+03 -0.10155037190E+03  0.20257128721E+02  0.23013889073E+03  0.00000000000E+00 0.  1.
         21    1    1    2  502  501  0.14076739836E+02  0.27589338489E+02 -0.68575519140E+01  0.31723055038E+02  0.00000000000E+00 0. -1.
<scales pt_clust_4="550.00000" pt_clust_5="550.00000" pt_clust_6="30.97301"></scales>
<mgrwt>
<rscale>  0 0.30000000E+03</rscale>
<asrwt>  1 0.30973007E+02</asrwt>
<pdfrwt beam="1">  1        1 0.82424483E+00 0.30000000E+03</pdfrwt>
<pdfrwt beam="2">0</pdfrwt>
<totfact> 0.67891698E-04</totfact>
</mgrwt>
<clustering>
<clus scale="   30.973">  1  6  2 -1</clus>
<clus scale="  467.085">  4  5 -1 -1</clus>
<clus scale="  300.000">  1  4  2 -1</clus>
</clustering>
</event>
<event>
 6    1  0.9687246E-012  0.3000000E+03  0.7818608E-02  0.1093470E+00
          1   -1    0    0  502    0  0.00000000000E+00  0.00000000000E+00  0.23622540380E+03  0.23622540380E+03  0.00000000000E+00 0.  1.
         13   -1    0    0    0    0 -0.00000000000E+00 -0.00000000000E+00 -0.27500000000E+03  0.27500000000E+03  0.00000000000E+00 0.  1.
    9000005    2    1    2  501    0  0.87016494462E+01 -0.29817773183E+02 -0.63946767037E+02  0.47124470239E+03  0.46585143792E+03 0.  0.
         13    1    3    3    0    0 -0.18881806735E+02 -0.21694993490E+03  0.81619791082E+02  0.23256308214E+03  0.00000000000E+00 0.  1.
          1    1    3    3  501    0  0.27583456181E+02  0.18713216171E+03 -0.14556655812E+03  0.23868162025E+03  0.00000000000E+00 0.  1.
         21    1    1    2  502  501 -0.87016494462E+01  0.29817773183E+02  0.25172170838E+02  0.39980701412E+02  0.00000000000E+00 0. -1.
<scales pt_clust_4="550.00000" pt_clust_5="550.00000" pt_clust_6="31.06152"></scales>
<mgrwt>
<rscale>  0 0.30000000E+03</rscale>
<asrwt>  1 0.31061524E+02</asrwt>
<pdfrwt beam="1">  1        1 0.85900147E+00 0.30000000E+03</pdfrwt>
<pdfrwt beam="2">0</pdfrwt>
<totfact> 0.33902577E-04</totfact>
</mgrwt>
<clustering>
<clus scale="   31.062">  1  6  2 -1</clus>
<clus scale="  465.851">  4  5 -1 -1</clus>
<clus scale="  300.000">  1  4  2 -1</clus>
</clustering>
</event>
<event>
 6    1  0.9687246E-012  0.3000000E+03  0.7818608E-02  0.1093470E+00
          1   -1    0    0  502    0  0.00000000000E+00  0.00000000000E+00  0.24076341130E+03  0.24076341130E+03  0.00000000000E+00 0.  1.
         13   -1    0    0    0    0 -0.00000000000E+00 -0.00000000000E+00 -0.27500000000E+03  0.27500000000E+03  0.00000000000E+00 0.  1.
    9000005    2    1    2  501    0 -0.19354194064E+02  0.30852366931E+02 -0.35579969060E+02  0.47931813665E+03  0.47660621959E+03 0.  0.
         13    1    3    3    0    0 -0.70848200430E+02 -0.26643023067E+02  0.20929783665E+03  0.22256437857E+03  0.00000000000E+00 0.  1.
          3    1    3    3  501    0  0.51494006366E+02  0.57495389999E+02 -0.24487780571E+03  0.25675375809E+03  0.00000000000E+00 0.  1.
         21    1    1    2  502  501  0.19354194064E+02 -0.30852366931E+02  0.13433803581E+01  0.36445274644E+02  0.00000000000E+00 0.  1.
<scales pt_clust_4="550.00000" pt_clust_5="550.00000" pt_clust_6="36.42051"></scales>
<mgrwt>
<rscale>  0 0.30000000E+03</rscale>
<asrwt>  1 0.36420508E+02</asrwt>
<pdfrwt beam="1">  1        1 0.87550331E+00 0.30000000E+03</pdfrwt>
<pdfrwt beam="2">0</pdfrwt>
<totfact> 0.22053128E-04</totfact>
</mgrwt>
<clustering>
<clus scale="   36.421">  1  6  2 -1</clus>
<clus scale="  476.606">  4  5 -1 -1</clus>
<clus scale="  300.000">  1  4  2 -1</clus>
</clustering>
</event>
<event>
 6    1  0.9687246E-012  0.3000000E+03  0.7818608E-02  0.1093470E+00
          1   -1    0    0  502    0  0.00000000000E+00  0.00000000000E+00  0.23824354446E+03  0.23824354446E+03  0.00000000000E+00 0.  1.
         13   -1    0    0    0    0 -0.00000000000E+00 -0.00000000000E+00 -0.27500000000E+03  0.27500000000E+03  0.00000000000E+00 0.  1.
    9000005    2    1    2  501    0 -0.24542517440E+02  0.24817924617E+02 -0.29650811385E+02  0.47762396104E+03  0.47542319358E+03 0.  0.
         13    1    3    3    0    0  0.18557474367E+03  0.12103977533E+03  0.60324504135E+02  0.22962503892E+03  0.00000000000E+00 0.  1.
          3    1    3    3  501    0 -0.21011726111E+03 -0.96221850709E+02 -0.89975315520E+02  0.24799892212E+03  0.00000000000E+00 0.  1.
         21    1    1    2  502  501  0.24542517440E+02 -0.24817924617E+02 -0.71056441533E+01  0.35619583426E+02  0.00000000000E+00 0.  1.
<scales pt_clust_4="550.00000" pt_clust_5="550.00000" pt_clust_6="34.90366"></scales>
<mgrwt>
<rscale>  0 0.30000000E+03</rscale>
<asrwt>  1 0.34903664E+02</asrwt>
<pdfrwt beam="1">  1        1 0.86634016E+00 0.30000000E+03</pdfrwt>
<pdfrwt beam="2">0</pdfrwt>
<totfact> 0.27656414E-04</totfact>
</mgrwt>
<clustering>
<clus scale="   34.904">  1  6  2 -1</clus>
<clus scale="  475.423">  4  5 -1 -1</clus>
<clus scale="  300.000">  1  4  2 -1</clus>
</clustering>
</event>
<event>
 6    1  0.9687246E-012  0.3000000E+03  0.7818608E-02  0.1093470E+00
          1   -1    0    0  502    0  0.00000000000E+00  0.00000000000E+00  0.22741317421E+03  0.22741317421E+03  0.00000000000E+00 0.  1.
         13   -1    0    0    0    0 -0.00000000000E+00 -0.00000000000E+00 -0.27500000000E+03  0.27500000000E+03  0.00000000000E+00 0.  1.
    9000005    2    1    2  501    0  0.25297543270E+02  0.22869329068E+02 -0.42802454098E+02  0.46797682540E+03  0.46476584117E+03 0.  0.
         13    1    3    3    0    0  0.16111104497E+03 -0.15879232602E+03 -0.76226738947E+02  0.23870962977E+03  0.00000000000E+00 0.  1.
          3    1    3    3  501    0 -0.13581350170E+03  0.18166165509E+03  0.33424284849E+02  0.22926719563E+03  0.00000000000E+00 0.  1.
         21    1    1    2  502  501 -0.25297543270E+02 -0.22869329068E+02 -0.47843716874E+01  0.34436348819E+02  0.00000000000E+00 0.  1.
<scales pt_clust_4="550.00000" pt_clust_5="550.00000" pt_clust_6="34.10239"></scales>
<mgrwt>
<rscale>  0 0.30000000E+03</rscale>
<asrwt>  1 0.34102391E+02</asrwt>
<pdfrwt beam="1">  1        1 0.82695700E+00 0.30000000E+03</pdfrwt>
<pdfrwt beam="2">0</pdfrwt>
<totfact> 0.63063471E-04</totfact>
</mgrwt>
<clustering>
<clus scale="   34.102">  1  6  2 -1</clus>
<clus scale="  464.766">  4  5 -1 -1</clus>
<clus scale="  300.000">  1  4  2 -1</clus>
</clustering>
</event>
<event>
 6    1  0.9687246E-012  0.3000000E+03  0.7818608E-02  0.1093470E+00
          1   -1    0    0  502    0  0.00000000000E+00  0.00000000000E+00  0.22692727945E+03  0.22692727945E+03  0.00000000000E+00 0.  1.
         13   -1    0    0    0    0 -0.00000000000E+00 -0.00000000000E+00 -0.27500000000E+03  0.27500000000E+03  0.00000000000E+00 0.  1.
    9000005    2    1    2  501    0 -0.27064846835E+02 -0.13894532088E+02 -0.44588197342E+02  0.47130529620E+03  0.46820402703E+03 0.  0.
         13    1    3    3    0    0  0.17500602235E+03  0.53778785189E+02 -0.14707395940E+03  0.23484040353E+03  0.00000000000E+00 0.  1.
          1    1    3    3  501    0 -0.20207086918E+03 -0.67673317278E+02  0.10248576206E+03  0.23646489267E+03  0.00000000000E+00 0.  1.
         21    1    1    2  502  501  0.27064846835E+02  0.13894532088E+02 -0.34845232090E+01  0.30621983250E+02  0.00000000000E+00 0.  1.
<scales pt_clust_4="550.00000" pt_clust_5="550.00000" pt_clust_6="30.42310"></scales>
<mgrwt>
<rscale>  0 0.30000000E+03</rscale>
<asrwt>  1 0.30423098E+02</asrwt>
<pdfrwt beam="1">  1        1 0.82519011E+00 0.30000000E+03</pdfrwt>
<pdfrwt beam="2">0</pdfrwt>
<totfact> 0.66813814E-04</totfact>
</mgrwt>
<clustering>
<clus scale="   30.423">  1  6  2 -1</clus>
<clus scale="  468.204">  4  5 -1 -1</clus>
<clus scale="  300.000">  1  4  2 -1</clus>
</clustering>
</event>
<event>
 6    1  0.9687246E-012  0.3000000E+03  0.7818608E-02  0.1093470E+00
          1   -1    0    0  502    0  0.00000000000E+00  0.00000000000E+00  0.22891534851E+03  0.22891534851E+03  0.00000000000E+00 0.  1.
         13   -1    0    0    0    0 -0.00000000000E+00 -0.00000000000E+00 -0.27500000000E+03  0.27500000000E+03  0.00000000000E+00 0.  1.
    9000005    2    1    2  501    0  0.94814004529E+01 -0.38772568727E+02 -0.53674688046E+02  0.46328509260E+03  0.45843090630E+03 0.  0.
         13    1    3    3    0    0  0.12358874845E+03  0.78620463557E+02  0.14482477584E+03  0.20598439681E+03  0.00000000000E+00 0.  1.
          3    1    3    3  501    0 -0.11410734799E+03 -0.11739303228E+03 -0.19849946388E+03  0.25730069580E+03  0.00000000000E+00 0.  1.
         21    1    1    2  502  501 -0.94814004529E+01  0.38772568727E+02  0.75900365603E+01  0.40630255909E+02  0.00000000000E+00 0.  1.
<scales pt_clust_4="550.00000" pt_clust_5="550.00000" pt_clust_6="39.91502"></scales>
<mgrwt>
<rscale>  0 0.30000000E+03</rscale>
<asrwt>  1 0.39915023E+02</asrwt>
<pdfrwt beam="1">  1        1 0.83241945E+00 0.30000000E+03</pdfrwt>
<pdfrwt beam="2">0</pdfrwt>
<totfact> 0.55190251E-04</totfact>
</mgrwt>
<clustering>
<clus scale="   39.915">  1  6  2 -1</clus>
<clus scale="  458.431">  4  5 -1 -1</clus>
<clus scale="  300.000">  1  4  2 -1</clus>
</clustering>
</event>
<event>
 6    1  0.9687246E-012  0.3000000E+03  0.7818608E-02  0.1093470E+00
          1   -1    0    0  502    0  0.00000000000E+00  0.00000000000E+00  0.21780105793E+03  0.21780105793E+03  0.00000000000E+00 0.  1.
         13   -1    0    0    0    0 -0.00000000000E+00 -0.00000000000E+00 -0.27500000000E+03  0.27500000000E+03  0.00000000000E+00 0.  1.
    9000005    2    1    2  501    0  0.25687757244E+02 -0.16817929458E+02 -0.46252749558E+02  0.46020469688E+03  0.45684389299E+03 0.  0.
         13    1    3    3    0    0  0.22281768619E+03 -0.23483635521E+02  0.65595613032E+02  0.23345660596E+03  0.00000000000E+00 0.  1.
          1    1    3    3  501    0 -0.19712992894E+03  0.66657060633E+01 -0.11184836259E+03  0.22674809092E+03  0.00000000000E+00 0.  1.
         21    1    1    2  502  501 -0.25687757244E+02  0.16817929458E+02 -0.10946192511E+02  0.32596361054E+02  0.00000000000E+00 0. -1.
<scales pt_clust_4="550.00000" pt_clust_5="550.00000" pt_clust_6="30.70349"></scales>
<mgrwt>
<rscale>  0 0.30000000E+03</rscale>
<asrwt>  1 0.30703494E+02</asrwt>
<pdfrwt beam="1">  1        1 0.79200385E+00 0.30000000E+03</pdfrwt>
<pdfrwt beam="2">0</pdfrwt>
<totfact> 0.12190106E-03</totfact>
</mgrwt>
<clustering>
<clus scale="   30.703">  1  6  2 -1</clus>
<clus scale="  456.844">  4  5 -1 -1</clus>
<clus scale="  300.000">  1  4  2 -1</clus>
</clustering>
</event>
<event>
 6    1  0.9687246E-012  0.3000000E+03  0.7818608E-02  0.1093470E+00
          1   -1    0    0  502    0  0.00000000000E+00  0.00000000000E+00  0.23282882393E+03  0.23282882393E+03  0.00000000000E+00 0.  1.
         13   -1    0    0    0    0 -0.00000000000E+00 -0.00000000000E+00 -0.27500000000E+03  0.27500000000E+03  0.00000000000E+00 0.  1.
    9000005    2    1    2  501    0 -0.70002058729E+00 -0.33192950262E+02 -0.57767799533E+02  0.47114753934E+03  0.46641250325E+03 0.  0.
         13    1    3    3    0    0 -0.19137656598E+03 -0.37090711894E+02 -0.16230473368E+03  0.25366027969E+03  0.00000000000E+00 0.  1.
          3    1    3    3  501    0  0.19067654540E+03  0.38977616324E+01  0.10453693414E+03  0.21748725965E+03  0.00000000000E+00 0.  1.
         21    1    1    2  502  501  0.70002058729E+00  0.33192950262E+02  0.15596623460E+02  0.36681284591E+02  0.00000000000E+00 0. -1.
<scales pt_clust_4="550.00000" pt_clust_5="550.00000" pt_clust_6="33.20033"></scales>
<mgrwt>
<rscale>  0 0.30000000E+03</rscale>
<asrwt>  1 0.33200331E+02</asrwt>
<pdfrwt beam="1">  1        1 0.84665027E+00 0.30000000E+03</pdfrwt>
<pdfrwt beam="2">0</pdfrwt>
<totfact> 0.44122624E-04</totfact>
</mgrwt>
<clustering>
<clus scale="   33.200">  1  6  2 -1</clus>
<clus scale="  466.413">  4  5 -1 -1</clus>
<clus scale="  300.000">  1  4  2 -1</clus>
</clustering>
</event>
<event>
 6    1  0.9687246E-012  0.3000000E+03  0.7818608E-02  0.1093470E+00
          1   -1    0    0  502    0  0.00000000000E+00  0.00000000000E+00  0.22533997107E+03  0.22533997107E+03  0.00000000000E+00 0.  1.
         13   -1    0    0    0    0 -0.00000000000E+00 -0.00000000000E+00 -0.27500000000E+03  0.27500000000E+03  0.00000000000E+00 0.  1.
    9000005    2    1    2  501    0 -0.88235170703E-01 -0.38503052816E+02 -0.50956438501E+02  0.46181499814E+03  0.45737735080E+03 0.  0.
         13    1    3    3    0    0 -0.51643810628E+02  0.10915285239E+03  0.15922146273E+03  0.19983218598E+03  0.00000000000E+00 0.  1.
          3    1    3    3  501    0  0.51555575457E+02 -0.14765590521E+03 -0.21017790123E+03  0.26198281216E+03  0.00000000000E+00 0.  1.
         21    1    1    2  502  501  0.88235170703E-01  0.38503052816E+02  0.12964095737E+01  0.38524972932E+02  0.00000000000E+00 0.  1.
<scales pt_clust_4="550.00000" pt_clust_5="550.00000" pt_clust_6="38.50315"></scales>
<mgrwt>
<rscale>  0 0.30000000E+03</rscale>
<asrwt>  1 0.38503154E+02</asrwt>
<pdfrwt beam="1">  1        1 0.81941808E+00 0.30000000E+03</pdfrwt>
<pdfrwt beam="2">0</pdfrwt>
<totfact> 0.71886525E-04</totfact>
</mgrwt>
<clustering>
<clus scale="   38.503">  1  6  2 -1</clus>
<clus scale="  457.377">  4  5 -1 -1</clus>
<clus scale="  300.000">  1  4  2 -1</clus>
</clustering>
</event>
<event>
 6    1  0.9687246E-012  0.3000000E+03  0.7818608E-02  0.1093470E+00
          1   -1    0    0  502    0  0.00000000000E+00  0.00000000000E+00  0.22906495512E+03  0.22906495512E+03  0.00000000000E+00 0.  1.
         13   -1    0    0    0    0 -0.00000000000E+00 -0.00000000000E+00 -0.27500000000E+03  0.27500000000E+03  0.00000000000E+00 0.  1.
    9000005    2    1    2  501    0  0.24146084715E+02  0.22725382596E+02 -0.66430777719E+02  0.46508353024E+03  0.45911890121E+03 0.  0.
         13    1    3    3    0    0 -0.48374294164E+02 -0.70208368449E+02  0.17597133398E+03  0.19553822572E+03  0.00000000000E+00 0.  1.
          3    1    3    3  501    0  0.72520378879E+02  0.92933751045E+02 -0.24240211169E+03  0.26954530452E+03  0.00000000000E+00 0.  1.
         21    1    1    2  502  501 -0.24146084715E+02 -0.22725382596E+02  0.20495732842E+02  0.38981424883E+02  0.00000000000E+00 0.  1.
<scales pt_clust_4="550.00000" pt_clust_5="550.00000" pt_clust_6="33.15835"></scales>
<mgrwt>
<rscale>  0 0.30000000E+03</rscale>
<asrwt>  1 0.33158354E+02</asrwt>
<pdfrwt beam="1">  1        1 0.83296347E+00 0.30000000E+03</pdfrwt>
<pdfrwt beam="2">0</pdfrwt>
<totfact> 0.56583122E-04</totfact>
</mgrwt>
<clustering>
<clus scale="   33.158">  1  6  2 -1</clus>
<clus scale="  459.119">  4  5 -1 -1</clus>
<clus scale="  300.000">  1  4  2 -1</clus>
</clustering>
</event>
<event>
 6    1  0.9687246E-012  0.3000000E+03  0.7818608E-02  0.1093470E+00
          1   -1    0    0  502    0  0.00000000000E+00  0.00000000000E+00  0.23334892475E+03  0.23334892475E+03  0.00000000000E+00 0.  1.
         13   -1    0    0    0    0 -0.00000000000E+00 -0.00000000000E+00 -0.27500000000E+03  0.27500000000E+03  0.00000000000E+00 0.  1.
    9000005    2    1    2  501    0  0.15583008927E+01  0.42423565232E+02 -0.49032407715E+02  0.46525981641E+03  0.46071719370E+03 0.  0.
         13    1    3    3    0    0  0.22229505562E+03  0.84703887487E+02 -0.27998405892E+02  0.23952818423E+03  0.00000000000E+00 0.  1.
          3    1    3    3  501    0 -0.22073675472E+03 -0.42280322255E+02 -0.21034001823E+02  0.22573163218E+03  0.00000000000E+00 0.  1.
         21    1    1    2  502  501 -0.15583008927E+01 -0.42423565232E+02  0.73813324682E+01  0.43089108342E+02  0.00000000000E+00 0. -1.
<scales pt_clust_4="550.00000" pt_clust_5="550.00000" pt_clust_6="42.45218"></scales>
<mgrwt>
<rscale>  0 0.30000000E+03</rscale>
<asrwt>  1 0.42452175E+02</asrwt>
<pdfrwt beam="1">  1        1 0.84854154E+00 0.30000000E+03</pdfrwt>
<pdfrwt beam="2">0</pdfrwt>
<totfact> 0.40526891E-04</totfact>
</mgrwt>
<clustering>
<clus scale="   42.452">  1  6  2 -1</clus>
<clus scale="  460.717">  4  5 -1 -1</clus>
<clus scale="  300.000">  1  4  2 -1</clus>
</clustering>
</event>
<event>
 6    1  0.9687246E-012  0.3000000E+03  0.7818608E-02  0.1093470E+00
          1   -1    0    0  502    0  0.00000000000E+00  0.00000000000E+00  0.23917170646E+03  0.23917170646E+03  0.00000000000E+00 0.  1.
         13   -1    0    0    0    0 -0.00000000000E+00 -0.00000000000E+00 -0.27500000000E+03  0.27500000000E+03  0.00000000000E+00 0.  1.
    9000005    2    1    2  501    0  0.43292058117E+02  0.12100472566E+02 -0.21789802569E+02  0.46707921278E+03  0.46440022801E+03 0.  0.
         13    1    3    3    0    0  0.92239552591E+02  0.20669512785E+02 -0.23229340600E+03  0.25078993259E+03  0.00000000000E+00 0.  1.
          1    1    3    3  501    0 -0.48947494475E+02 -0.85690402192E+01  0.21050360343E+03  0.21628928018E+03  0.00000000000E+00 0.  1.
         21    1    1    2  502  501 -0.43292058117E+02 -0.12100472566E+02 -0.14038490974E+02  0.47092493681E+02  0.00000000000E+00 0.  1.
<scales pt_clust_4="550.00000" pt_clust_5="550.00000" pt_clust_6="44.95137"></scales>
<mgrwt>
<rscale>  0 0.30000000E+03</rscale>
<asrwt>  1 0.44951371E+02</asrwt>
<pdfrwt beam="1">  1        1 0.86971530E+00 0.30000000E+03</pdfrwt>
<pdfrwt beam="2">0</pdfrwt>
<totfact> 0.24355622E-04</totfact>
</mgrwt>
<clustering>
<clus scale="   44.951">  1  6  2 -1</clus>
<clus scale="  464.400">  4  5 -1 -1</clus>
<clus scale="  300.000">  1  4  2 -1</clus>
</clustering>
</event>
<event>
 6    1  0.9687246E-012  0.3000000E+03  0.7818608E-02  0.1093470E+00
          1   -1    0    0  502    0  0.00000000000E+00  0.00000000000E+00  0.21804314539E+03  0.21804314539E+03  0.00000000000E+00 0.  1.
         13   -1    0    0    0    0 -0.00000000000E+00 -0.00000000000E+00 -0.27500000000E+03  0.27500000000E+03  0.00000000000E+00 0.  1.
    9000005    2    1    2  501    0 -0.30785070120E+02 -0.49214998280E+01 -0.53762755703E+02  0.46170396910E+03  0.45750210871E+03 0.  0.
         13    1    3    3    0    0 -0.24196402716E+03 -0.35675094610E+02 -0.17158633601E+02  0.24518099747E+03  0.00000000000E+00 0.  1.
          1    1    3    3  501    0  0.21117895704E+03  0.30753594782E+02 -0.36604122102E+02  0.21652297163E+03  0.00000000000E+00 0.  1.
         21    1    1    2  502  501  0.30785070120E+02  0.49214998280E+01 -0.31940989055E+01  0.31339176292E+02  0.00000000000E+00 0.  1.
<scales pt_clust_4="550.00000" pt_clust_5="550.00000" pt_clust_6="31.17598"></scales>
<mgrwt>
<rscale>  0 0.30000000E+03</rscale>
<asrwt>  1 0.31175980E+02</asrwt>
<pdfrwt beam="1">  1        1 0.79288417E+00 0.30000000E+03</pdfrwt>
<pdfrwt beam="2">0</pdfrwt>
<totfact> 0.11964774E-03</totfact>
</mgrwt>
<clustering>
<clus scale="   31.176">  1  6  2 -1</clus>
<clus scale="  457.502">  4  5 -1 -1</clus>
<clus scale="  300.000">  1  4  2 -1</clus>
</clustering>
</event>
<event>
 6    1  0.9687246E-012  0.3000000E+03  0.7818608E-02  0.1093470E+00
          1   -1    0    0  502    0  0.00000000000E+00  0.00000000000E+00  0.23723770327E+03  0.23723770327E+03  0.00000000000E+00 0.  1.
         13   -1    0    0    0    0 -0.00000000000E+00 -0.00000000000E+00 -0.27500000000E+03  0.27500000000E+03  0.00000000000E+00 0.  1.
    9000005    2    1    2  501    0 -0.29515585170E+02  0.90339829505E+01 -0.56456672025E+02  0.47615083192E+03  0.47178329380E+03 0.  0.
         13    1    3    3    0    0  0.20883212225E+03 -0.50868315201E+01 -0.10297465886E+03  0.23289592419E+03  0.00000000000E+00 0.  1.
          3    1    3    3  501    0 -0.23834770742E+03  0.14120814471E+02  0.46517986836E+02  0.24325490773E+03  0.00000000000E+00 0.  1.
         21    1    1    2  502  501  0.29515585170E+02 -0.90339829505E+01  0.18694375294E+02  0.36086871346E+02  0.00000000000E+00 0.  1.
<scales pt_clust_4="550.00000" pt_clust_5="550.00000" pt_clust_6="30.86718"></scales>
<mgrwt>
<rscale>  0 0.30000000E+03</rscale>
<asrwt>  1 0.30867177E+02</asrwt>
<pdfrwt beam="1">  1        1 0.86268256E+00 0.30000000E+03</pdfrwt>
<pdfrwt beam="2">0</pdfrwt>
<totfact> 0.30994399E-04</totfact>
</mgrwt>
<clustering>
<clus scale="   30.867">  1  6  2 -1</clus>
<clus scale="  471.783">  4  5 -1 -1</clus>
<clus scale="  300.000">  1  4  2 -1</clus>
</clustering>
</event>
<event>
 6    1  0.9687246E-012  0.3000000E+03  0.7818608E-02  0.1093470E+00
          1   -1    0    0  502    0  0.00000000000E+00  0.00000000000E+00  0.24122060343E+03  0.24122060343E+03  0.00000000000E+00 0.  1.
         13   -1    0    0    0    0 -0.00000000000E+00 -0.00000000000E+00 -0.27500000000E+03  0.27500000000E+03  0.00000000000E+00 0.  1.
    9000005    2    1    2  501    0 -0.18890975422E+02 -0.41469513235E+02 -0.46737676169E+02  0.46884438059E+03  0.46427799147E+03 0.  0.
         13    1    3    3    0    0 -0.20460771551E+02 -0.25340261705E+03 -0.16538027971E+02  0.25476466763E+03  0.00000000000E+00 0.  1.
          1    1    3    3  501    0  0.15697961293E+01  0.21193310382E+03 -0.30199648199E+02  0.21407971297E+03  0.00000000000E+00 0.  1.
         21    1    1    2  502  501  0.18890975422E+02  0.41469513235E+02  0.12958279604E+02  0.47376222840E+02  0.00000000000E+00 0. -1.
<scales pt_clust_4="550.00000" pt_clust_5="550.00000" pt_clust_6="45.56961"></scales>
<mgrwt>
<rscale>  0 0.30000000E+03</rscale>
<asrwt>  1 0.45569611E+02</asrwt>
<pdfrwt beam="1">  1        1 0.87716583E+00 0.30000000E+03</pdfrwt>
<pdfrwt beam="2">0</pdfrwt>
<totfact> 0.20305987E-04</totfact>
</mgrwt>
<clustering>
<clus scale="   45.570">  1  6  2 -1</clus>
<clus scale="  464.278">  4  5 -1 -1</clus>
<clus scale="  300.000">  1  4  2 -1</clus>
</clustering>
</event>
<event>
 6    1  0.9687246E-012  0.3000000E+03  0.7818608E-02  0.1093470E+00
          1   -1    0    0  502    0  0.00000000000E+00  0.00000000000E+00  0.22239347635E+03  0.22239347635E+03  0.00000000000E+00 0.  1.
         13   -1    0    0    0    0 -0.00000000000E+00 -0.00000000000E+00 -0.27500000000E+03  0.27500000000E+03  0.00000000000E+00 0.  1.
    9000005    2    1    2  501    0  0.22391996726E+02  0.24287708433E+02 -0.59563778335E+02  0.46363406743E+03  0.45860376197E+03 0.  0.
         13    1    3    3    0    0  0.12004829830E+03 -0.73863159466E+02  0.15422126244E+03  0.20892955281E+03  0.00000000000E+00 0.  1.
          1    1    3    3  501    0 -0.97656301571E+02  0.98150867898E+02 -0.21378504078E+03  0.25470451461E+03  0.00000000000E+00 0.  1.
         21    1    1    2  502  501 -0.22391996726E+02 -0.24287708433E+02  0.69572546895E+01  0.33759408927E+02  0.00000000000E+00 0. -1.
<scales pt_clust_4="550.00000" pt_clust_5="550.00000" pt_clust_6="33.03474"></scales>
<mgrwt>
<rscale>  0 0.30000000E+03</rscale>
<asrwt>  1 0.33034744E+02</asrwt>
<pdfrwt beam="1">  1        1 0.80870355E+00 0.30000000E+03</pdfrwt>
<pdfrwt beam="2">0</pdfrwt>
<totfact> 0.90236024E-04</totfact>
</mgrwt>
<clustering>
<clus scale="   33.035">  1  6  2 -1</clus>
<clus scale="  458.604">  4  5 -1 -1</clus>
<clus scale="  300.000">  1  4  2 -1</clus>
</clustering>
</event>
<event>
 6    1  0.9687246E-012  0.3000000E+03  0.7818608E-02  0.1093470E+00
          1   -1    0    0  502    0  0.00000000000E+00  0.00000000000E+00  0.24066527960E+03  0.24066527960E+03  0.00000000000E+00 0.  1.
         13   -1    0    0    0    0 -0.00000000000E+00 -0.00000000000E+00 -0.27500000000E+03  0.27500000000E+03  0.00000000000E+00 0.  1.
    9000005    2    1    2  501    0 -0.24487717728E+02 -0.19422594600E+02 -0.66161689170E+02  0.47105764077E+03  0.46533971066E+03 0.  0.
         13    1    3    3    0    0 -0.11221470403E+03 -0.17427237347E+03 -0.16728720482E+03  0.26636067437E+03  0.00000000000E+00 0.  1.
          1    1    3    3  501    0  0.87726986299E+02  0.15484977887E+03  0.10112551565E+03  0.20469696641E+03  0.00000000000E+00 0.  1.
         21    1    1    2  502  501  0.24487717728E+02  0.19422594600E+02  0.31826968766E+02  0.44607638823E+02  0.00000000000E+00 0. -1.
<scales pt_clust_4="550.00000" pt_clust_5="550.00000" pt_clust_6="31.25517"></scales>
<mgrwt>
<rscale>  0 0.30000000E+03</rscale>
<asrwt>  1 0.31255168E+02</asrwt>
<pdfrwt beam="1">  1        1 0.87514647E+00 0.30000000E+03</pdfrwt>
<pdfrwt beam="2">0</pdfrwt>
<totfact> 0.22897055E-04</totfact>
</mgrwt>
<clustering>
<clus scale="   31.255">  1  6  2 -1</clus>
<clus scale="  465.340">  4  5 -1 -1</clus>
<clus scale="  300.000">  1  4  2 -1</clus>
</clustering>
</event>
<event>
 6    1  0.9687246E-012  0.3000000E+03  0.7818608E-02  0.1093470E+00
          1   -1    0    0  502    0  0.00000000000E+00  0.00000000000E+00  0.23953111923E+03  0.23953111923E+03  0.00000000000E+00 0.  1.
         13   -1    0    0    0    0 -0.00000000000E+00 -0.00000000000E+00 -0.27500000000E+03  0.27500000000E+03  0.00000000000E+00 0.  1.
    9000005    2    1    2  501    0  0.28930093552E+02 -0.93198791861E+01 -0.68310543051E+02  0.46978309981E+03  0.46379523511E+03 0.  0.
         13    1    3    3    0    0 -0.53100504105E+02 -0.16694788768E+03  0.11885389017E+03  0.21170145948E+03  0.00000000000E+00 0.  1.
          1    1    3    3  501    0  0.82030597657E+02  0.15762800849E+03 -0.18716443322E+03  0.25808164033E+03  0.00000000000E+00 0.  1.
         21    1    1    2  502  501 -0.28930093552E+02  0.93198791861E+01  0.32841662278E+02  0.44748019421E+02  0.00000000000E+00 0.  1.
<scales pt_clust_4="550.00000" pt_clust_5="550.00000" pt_clust_6="30.39425"></scales>
<mgrwt>
<rscale>  0 0.30000000E+03</rscale>
<asrwt>  1 0.30394250E+02</asrwt>
<pdfrwt beam="1">  1        1 0.87102225E+00 0.30000000E+03</pdfrwt>
<pdfrwt beam="2">0</pdfrwt>
<totfact> 0.25393705E-04</totfact>
</mgrwt>
<clustering>
<clus scale="   30.394">  1  6  2 -1</clus>
<clus scale="  463.795">  4  5 -1 -1</clus>
<clus scale="  300.000">  1  4  2 -1</clus>
</clustering>
</event>
<event>
 6    1  0.9687246E-012  0.3000000E+03  0.7818608E-02  0.1093470E+00
          1   -1    0    0  502    0  0.00000000000E+00  0.00000000000E+00  0.23173737844E+03  0.23173737844E+03  0.00000000000E+00 0.  1.
         13   -1    0    0    0    0 -0.00000000000E+00 -0.00000000000E+00 -0.27500000000E+03  0.27500000000E+03  0.00000000000E+00 0.  1.
    9000005    2    1    2  501    0  0.52614263265E+01  0.29709756894E+02 -0.57591065069E+02  0.47333593304E+03  0.46884946675E+03 0.  0.
         13    1    3    3    0    0 -0.46868581898E+01  0.17650228388E+03 -0.20123494557E+03  0.26771351512E+03  0.00000000000E+00 0.  1.
          1    1    3    3  501    0  0.99482845163E+01 -0.14679252699E+03  0.14364388050E+03  0.20562241792E+03  0.00000000000E+00 0.  1.
         21    1    1    2  502  501 -0.52614263265E+01 -0.29709756894E+02  0.14328443513E+02  0.33401445406E+02  0.00000000000E+00 0. -1.
<scales pt_clust_4="550.00000" pt_clust_5="550.00000" pt_clust_6="30.17204"></scales>
<mgrwt>
<rscale>  0 0.30000000E+03</rscale>
<asrwt>  1 0.30172044E+02</asrwt>
<pdfrwt beam="1">  1        1 0.84268138E+00 0.30000000E+03</pdfrwt>
<pdfrwt beam="2">0</pdfrwt>
<totfact> 0.48645608E-04</totfact>
</mgrwt>
<clustering>
<clus scale="   30.172">  1  6  2 -1</clus>
<clus scale="  468.849">  4  5 -1 -1</clus>
<clus scale="  300.000">  1  4  2 -1</clus>
</clustering>
</event>
<event>
 6    1  0.9687246E-012  0.3000000E+03  0.7818608E-02  0.1093470E+00
          1   -1    0    0  502    0  0.00000000000E+00  0.00000000000E+00  0.23163470702E+03  0.23163470702E+03  0.00000000000E+00 0.  1.
         13   -1    0    0    0    0 -0.00000000000E+00 -0.00000000000E+00 -0.27500000000E+03  0.27500000000E+03  0.00000000000E+00 0.  1.
    9000005    2    1    2  501    0  0.16916455891E+02  0.41505564178E+02 -0.47191706085E+02  0.46165115697E+03  0.45704032128E+03 0.  0.
         13    1    3    3    0    0 -0.65586444767E+02 -0.13284010076E+03  0.13196576426E+03  0.19840120222E+03  0.00000000000E+00 0.  1.
          3    1    3    3  501    0  0.82502900657E+02  0.17434566494E+03 -0.17915747034E+03  0.26324995475E+03  0.00000000000E+00 0.  1.
         21    1    1    2  502  501 -0.16916455891E+02 -0.41505564178E+02  0.38264131064E+01  0.44983550048E+02  0.00000000000E+00 0.  1.
<scales pt_clust_4="550.00000" pt_clust_5="550.00000" pt_clust_6="44.82051"></scales>
<mgrwt>
<rscale>  0 0.30000000E+03</rscale>
<asrwt>  1 0.44820512E+02</asrwt>
<pdfrwt beam="1">  1        1 0.84230803E+00 0.30000000E+03</pdfrwt>
<pdfrwt beam="2">0</pdfrwt>
<totfact> 0.45529509E-04</totfact>
</mgrwt>
<clustering>
<clus scale="   44.821">  1  6  2 -1</clus>
<clus scale="  457.040">  4  5 -1 -1</clus>
<clus scale="  300.000">  1  4  2 -1</clus>
</clustering>
</event>
<event>
 6    1  0.9687246E-012  0.3000000E+03  0.7818608E-02  0.1093470E+00
          1   -1    0    0  502    0  0.00000000000E+00  0.00000000000E+00  0.26045124316E+03  0.26045124316E+03  0.00000000000E+00 0.  1.
         13   -1    0    0    0    0 -0.00000000000E+00 -0.00000000000E+00 -0.27500000000E+03  0.27500000000E+03  0.00000000000E+00 0.  1.
    9000005    2    1    2  501    0  0.26319409905E+02 -0.33771036810E+02 -0.57751060746E+02  0.47462663196E+03  0.46915036021E+03 0.  0.
         13    1    3    3    0    0  0.11564538431E+03 -0.99380435017E+02  0.16571063244E+03  0.22518956343E+03  0.00000000000E+00 0.  1.
          3    1    3    3  501    0 -0.89325974402E+02  0.65609398207E+02 -0.22346169318E+03  0.24943706853E+03  0.00000000000E+00 0.  1.
         21    1    1    2  502  501 -0.26319409905E+02  0.33771036810E+02  0.43202303909E+02  0.60824611203E+02  0.00000000000E+00 0.  1.
<scales pt_clust_4="550.00000" pt_clust_5="550.00000" pt_clust_6="42.81582"></scales>
<mgrwt>
<rscale>  0 0.30000000E+03</rscale>
<asrwt>  1 0.42815818E+02</asrwt>
<pdfrwt beam="1">  1        1 0.94709543E+00 0.30000000E+03</pdfrwt>
<pdfrwt beam="2">0</pdfrwt>
<totfact> 0.13624736E-05</totfact>
</mgrwt>
<clustering>
<clus scale="   42.816">  1  6  2 -1</clus>
<clus scale="  469.150">  4  5 -1 -1</clus>
<clus scale="  300.000">  1  4  2 -1</clus>
</clustering>
</event>
<event>
 6    1  0.9687246E-012  0.3000000E+03  0.7818608E-02  0.1093470E+00
          1   -1    0    0  502    0  0.00000000000E+00  0.00000000000E+00  0.22817305396E+03  0.22817305396E+03  0.00000000000E+00 0.  1.
         13   -1    0    0    0    0 -0.00000000000E+00 -0.00000000000E+00 -0.27500000000E+03  0.27500000000E+03  0.00000000000E+00 0.  1.
    9000005    2    1    2  501    0  0.23430695298E+02  0.24564750306E+02 -0.34510260465E+02  0.46706038052E+03  0.46454495641E+03 0.  0.
         13    1    3    3    0    0  0.22726031510E+03 -0.34996106217E+02 -0.91048603314E+02  0.24730917176E+03  0.00000000000E+00 0.  1.
          3    1    3    3  501    0 -0.20382961980E+03  0.59560856523E+02  0.56538342849E+02  0.21975120876E+03  0.00000000000E+00 0.  1.
         21    1    1    2  502  501 -0.23430695298E+02 -0.24564750306E+02 -0.12316685575E+02  0.36112673444E+02  0.00000000000E+00 0. -1.
<scales pt_clust_4="550.00000" pt_clust_5="550.00000" pt_clust_6="33.94739"></scales>
<mgrwt>
<rscale>  0 0.30000000E+03</rscale>
<asrwt>  1 0.33947394E+02</asrwt>
<pdfrwt beam="1">  1        1 0.82972020E+00 0.30000000E+03</pdfrwt>
<pdfrwt beam="2">0</pdfrwt>
<totfact> 0.59758953E-04</totfact>
</mgrwt>
<clustering>
<clus scale="   33.947">  1  6  2 -1</clus>
<clus scale="  464.545">  4  5 -1 -1</clus>
<clus scale="  300.000">  1  4  2 -1</clus>
</clustering>
</event>
<event>
 6    1  0.9687246E-012  0.3000000E+03  0.7818608E-02  0.1093470E+00
          1   -1    0    0  502    0  0.00000000000E+00  0.00000000000E+00  0.24423503431E+03  0.24423503431E+03  0.00000000000E+00 0.  1.
         13   -1    0    0    0    0 -0.00000000000E+00 -0.00000000000E+00 -0.27500000000E+03  0.27500000000E+03  0.00000000000E+00 0.  1.
    9000005    2    1    2  501    0  0.42909824300E+02  0.20991468186E+01 -0.55453775352E+02  0.46968509222E+03  0.46441716722E+03 0.  0.
         13    1    3    3    0    0  0.33757515632E+02 -0.22873063087E+03  0.36344104820E+01  0.23123684893E+03  0.00000000000E+00 0.  1.
          1    1    3    3  501    0  0.91523086689E+01  0.23082977769E+03 -0.59088185834E+02  0.23844824329E+03  0.00000000000E+00 0.  1.
         21    1    1    2  502  501 -0.42909824300E+02 -0.20991468186E+01  0.24688809664E+02  0.49549942094E+02  0.00000000000E+00 0.  1.
<scales pt_clust_4="550.00000" pt_clust_5="550.00000" pt_clust_6="42.96114"></scales>
<mgrwt>
<rscale>  0 0.30000000E+03</rscale>
<asrwt>  1 0.42961139E+02</asrwt>
<pdfrwt beam="1">  1        1 0.88812740E+00 0.30000000E+03</pdfrwt>
<pdfrwt beam="2">0</pdfrwt>
<totfact> 0.14800168E-04</totfact>
</mgrwt>
<clustering>
<clus scale="   42.961">  1  6  2 -1</clus>
<clus scale="  464.417">  4  5 -1 -1</clus>
<clus scale="  300.000">  1  4  2 -1</clus>
</clustering>
</event>
<event>
 6    1  0.9687246E-012  0.3000000E+03  0.7818608E-02  0.1093470E+00
          1   -1    0    0  502    0  0.00000000000E+00  0.00000000000E+00  0.24540790791E+03  0.24540790791E+03  0.00000000000E+00 0.  1.
         13   -1    0    0    0    0 -0.00000000000E+00 -0.00000000000E+00 -0.27500000000E+03  0.27500000000E+03  0.00000000000E+00 0.  1.
    9000005    2    1    2  501    0 -0.20577566963E+02 -0.25260810613E+02 -0.66421318155E+02  0.47123538807E+03  0.46539172172E+03 0.  0.
         13    1    3    3    0    0 -0.16901283425E+03  0.80926996597E+02 -0.17706315343E+03  0.25780976944E+03  0.00000000000E+00 0.  1.
          1    1    3    3  501    0  0.14843526728E+03 -0.10618780721E+03  0.11064183527E+03  0.21342561863E+03  0.00000000000E+00 0.  1.
         21    1    1    2  502  501  0.20577566963E+02  0.25260810613E+02  0.36829226063E+02  0.49172519839E+02  0.00000000000E+00 0.  1.
<scales pt_clust_4="550.00000" pt_clust_5="550.00000" pt_clust_6="32.58136"></scales>
<mgrwt>
<rscale>  0 0.30000000E+03</rscale>
<asrwt>  1 0.32581357E+02</asrwt>
<pdfrwt beam="1">  1        1 0.89239239E+00 0.30000000E+03</pdfrwt>
<pdfrwt beam="2">0</pdfrwt>
<totfact> 0.13699515E-04</totfact>
</mgrwt>
<clustering>
<clus scale="   32.581">  1  6  2 -1</clus>
<clus scale="  465.392">  4  5 -1 -1</clus>
<clus scale="  300.000">  1  4  2 -1</clus>
</clustering>
</event>
<event>
 6    1  0.9687246E-012  0.3000000E+03  0.7818608E-02  0.1093470E+00
          1   -1    0    0  502    0  0.00000000000E+00  0.00000000000E+00  0.23493136845E+03  0.23493136845E+03  0.00000000000E+00 0.  1.
         13   -1    0    0    0    0 -0.00000000000E+00 -0.00000000000E+00 -0.27500000000E+03  0.27500000000E+03  0.00000000000E+00 0.  1.
    9000005    2    1    2  501    0 -0.25009590180E+02  0.22865698011E+02 -0.33872539596E+02  0.47548269210E+03  0.47306249249E+03 0.  0.
         13    1    3    3    0    0  0.17345526380E+02 -0.45950853923E+02 -0.24476233600E+03  0.24964164193E+03  0.00000000000E+00 0.  1.
          3    1    3    3  501    0 -0.42355116560E+02  0.68816551934E+02  0.21088979640E+03  0.22584105018E+03  0.00000000000E+00 0.  1.
         21    1    1    2  502  501  0.25009590180E+02 -0.22865698011E+02 -0.61960919539E+01  0.34448676346E+02  0.00000000000E+00 0.  1.
<scales pt_clust_4="550.00000" pt_clust_5="550.00000" pt_clust_6="33.88688"></scales>
<mgrwt>
<rscale>  0 0.30000000E+03</rscale>
<asrwt>  1 0.33886884E+02</asrwt>
<pdfrwt beam="1">  1        1 0.85429589E+00 0.30000000E+03</pdfrwt>
<pdfrwt beam="2">0</pdfrwt>
<totfact> 0.37244938E-04</totfact>
</mgrwt>
<clustering>
<clus scale="   33.887">  1  6  2 -1</clus>
<clus scale="  473.062">  4  5 -1 -1</clus>
<clus scale="  300.000">  1  4  2 -1</clus>
</clustering>
</event>
<event>
 6    1  0.9687246E-012  0.3000000E+03  0.7818608E-02  0.1093470E+00
          1   -1    0    0  502    0  0.00000000000E+00  0.00000000000E+00  0.24066240393E+03  0.24066240393E+03  0.00000000000E+00 0.  1.
         13   -1    0    0    0    0 -0.00000000000E+00 -0.00000000000E+00 -0.27500000000E+03  0.27500000000E+03  0.00000000000E+00 0.  1.
    9000005    2    1    2  501    0  0.17997409811E+02  0.26201436325E+02 -0.39229578428E+02  0.48350103709E+03  0.48085743315E+03 0.  0.
         13    1    3    3    0    0  0.85323767974E+02  0.19685140736E+03 -0.15668524091E+03  0.26567063571E+03  0.00000000000E+00 0.  1.
          3    1    3    3  501    0 -0.67326358163E+02 -0.17064997103E+03  0.11745566248E+03  0.21783040138E+03  0.00000000000E+00 0.  1.
         21    1    1    2  502  501 -0.17997409811E+02 -0.26201436325E+02  0.48919823528E+01  0.32161366835E+02  0.00000000000E+00 0.  1.
<scales pt_clust_4="550.00000" pt_clust_5="550.00000" pt_clust_6="31.78714"></scales>
<mgrwt>
<rscale>  0 0.30000000E+03</rscale>
<asrwt>  1 0.31787136E+02</asrwt>
<pdfrwt beam="1">  1        1 0.87513601E+00 0.30000000E+03</pdfrwt>
<pdfrwt beam="2">0</pdfrwt>
<totfact> 0.22829283E-04</totfact>
</mgrwt>
<clustering>
<clus scale="   31.787">  1  6  2 -1</clus>
<clus scale="  480.857">  4  5 -1 -1</clus>
<clus scale="  300.000">  1  4  2 -1</clus>
</clustering>
</event>
<event>
 6    1  0.9687246E-012  0.3000000E+03  0.7818608E-02  0.1093470E+00
          1   -1    0    0  502    0  0.00000000000E+00  0.00000000000E+00  0.23417484152E+03  0.23417484152E+03  0.00000000000E+00 0.  1.
         13   -1    0    0    0    0 -0.00000000000E+00 -0.00000000000E+00 -0.27500000000E+03  0.27500000000E+03  0.00000000000E+00 0.  1.
    9000005    2    1    2  501    0  0.97424439262E+01  0.33105179127E+02 -0.46500977799E+02  0.47420223762E+03  0.47065332585E+03 0.  0.
         13    1    3    3    0    0  0.23047072590E+03  0.83651260790E+02 -0.32517767585E+02  0.24732912109E+03  0.00000000000E+00 0.  1.
          3    1    3    3  501    0 -0.22072828198E+03 -0.50546081662E+02 -0.13983210214E+02  0.22687311653E+03  0.00000000000E+00 0.  1.
         21    1    1    2  502  501 -0.97424439262E+01 -0.33105179127E+02  0.56758193211E+01  0.34972603902E+02  0.00000000000E+00 0. -1.
<scales pt_clust_4="550.00000" pt_clust_5="550.00000" pt_clust_6="34.50896"></scales>
<mgrwt>
<rscale>  0 0.30000000E+03</rscale>
<asrwt>  1 0.34508957E+02</asrwt>
<pdfrwt beam="1">  1        1 0.85154488E+00 0.30000000E+03</pdfrwt>
<pdfrwt beam="2">0</pdfrwt>
<totfact> 0.39456058E-04</totfact>
</mgrwt>
<clustering>
<clus scale="   34.509">  1  6  2 -1</clus>
<clus scale="  470.653">  4  5 -1 -1</clus>
<clus scale="  300.000">  1  4  2 -1</clus>
</clustering>
</event>
<event>
 6    1  0.9687246E-012  0.3000000E+03  0.7818608E-02  0.1093470E+00
          1   -1    0    0  502    0  0.00000000000E+00  0.00000000000E+00  0.23564968741E+03  0.23564968741E+03  0.00000000000E+00 0.  1.
         13   -1    0    0    0    0 -0.00000000000E+00 -0.00000000000E+00 -0.27500000000E+03  0.27500000000E+03  0.00000000000E+00 0.  1.
    9000005    2    1    2  501    0  0.16625976824E+02 -0.26927832741E+02 -0.57148370666E+02  0.47434125654E+03  0.46982141299E+03 0.  0.
         13    1    3    3    0    0 -0.14837142986E+03  0.41887304148E+02  0.13996900046E+03  0.20823051779E+03  0.00000000000E+00 0.  1.
          3    1    3    3  501    0  0.16499740668E+03 -0.68815136889E+02 -0.19711737113E+03  0.26611073875E+03  0.00000000000E+00 0.  1.
         21    1    1    2  502  501 -0.16625976824E+02  0.26927832741E+02  0.17798058080E+02  0.36308430879E+02  0.00000000000E+00 0.  1.
<scales pt_clust_4="550.00000" pt_clust_5="550.00000" pt_clust_6="31.64698"></scales>
<mgrwt>
<rscale>  0 0.30000000E+03</rscale>
<asrwt>  1 0.31646979E+02</asrwt>
<pdfrwt beam="1">  1        1 0.85690795E+00 0.30000000E+03</pdfrwt>
<pdfrwt beam="2">0</pdfrwt>
<totfact> 0.35522160E-04</totfact>
</mgrwt>
<clustering>
<clus scale="   31.647">  1  6  2 -1</clus>
<clus scale="  469.821">  4  5 -1 -1</clus>
<clus scale="  300.000">  1  4  2 -1</clus>
</clustering>
</event>
<event>
 6    1  0.9687246E-012  0.3000000E+03  0.7818608E-02  0.1093470E+00
          1   -1    0    0  502    0  0.00000000000E+00  0.00000000000E+00  0.22514256093E+03  0.22514256093E+03  0.00000000000E+00 0.  1.
         13   -1    0    0    0    0 -0.00000000000E+00 -0.00000000000E+00 -0.27500000000E+03  0.27500000000E+03  0.00000000000E+00 0.  1.
    9000005    2    1    2  501    0  0.31100502290E+02  0.62048741664E+01 -0.66120510061E+02  0.46450228618E+03  0.45867713079E+03 0.  0.
         13    1    3    3    0    0  0.27428956267E+02 -0.21302472484E+03  0.43843133407E+02  0.21921245718E+03  0.00000000000E+00 0.  1.
          3    1    3    3  501    0  0.36715460234E+01  0.21922959900E+03 -0.10996364347E+03  0.24528982901E+03  0.00000000000E+00 0.  1.
         21    1    1    2  502  501 -0.31100502290E+02 -0.62048741664E+01  0.16263070996E+02  0.35640274751E+02  0.00000000000E+00 0. -1.
<scales pt_clust_4="550.00000" pt_clust_5="550.00000" pt_clust_6="31.71343"></scales>
<mgrwt>
<rscale>  0 0.30000000E+03</rscale>
<asrwt>  1 0.31713431E+02</asrwt>
<pdfrwt beam="1">  1        1 0.81870022E+00 0.30000000E+03</pdfrwt>
<pdfrwt beam="2">0</pdfrwt>
<totfact> 0.75602171E-04</totfact>
</mgrwt>
<clustering>
<clus scale="   31.713">  1  6  2 -1</clus>
<clus scale="  458.677">  4  5 -1 -1</clus>
<clus scale="  300.000">  1  4  2 -1</clus>
</clustering>
</event>
<event>
 6    1  0.9687246E-012  0.3000000E+03  0.7818608E-02  0.1093470E+00
          1   -1    0    0  502    0  0.00000000000E+00  0.00000000000E+00  0.23640580420E+03  0.23640580420E+03  0.00000000000E+00 0.  1.
         13   -1    0    0    0    0 -0.00000000000E+00 -0.00000000000E+00 -0.27500000000E+03  0.27500000000E+03  0.00000000000E+00 0.  1.
    9000005    2    1    2  501    0  0.45147918083E+02  0.61152071849E+01 -0.41587404111E+02  0.46574740342E+03  0.46164423677E+03 0.  0.
         13    1    3    3    0    0  0.51365842490E+02 -0.22593869457E+03 -0.24046207897E+02  0.23294841401E+03  0.00000000000E+00 0.  1.
          3    1    3    3  501    0 -0.62179244072E+01  0.23205390175E+03 -0.17541196213E+02  0.23279898940E+03  0.00000000000E+00 0.  1.
         21    1    1    2  502  501 -0.45147918083E+02 -0.61152071849E+01  0.29932083133E+01  0.45658400784E+02  0.00000000000E+00 0.  1.
<scales pt_clust_4="550.00000" pt_clust_5="550.00000" pt_clust_6="45.56018"></scales>
<mgrwt>
<rscale>  0 0.30000000E+03</rscale>
<asrwt>  1 0.45560183E+02</asrwt>
<pdfrwt beam="1">  1        1 0.85965747E+00 0.30000000E+03</pdfrwt>
<pdfrwt beam="2">0</pdfrwt>
<totfact> 0.31086022E-04</totfact>
</mgrwt>
<clustering>
<clus scale="   45.560">  1  6  2 -1</clus>
<clus scale="  461.644">  4  5 -1 -1</clus>
<clus scale="  300.000">  1  4  2 -1</clus>
</clustering>
</event>
<event>
 6    1  0.9687246E-012  0.3000000E+03  0.7818608E-02  0.1093470E+00
          1   -1    0    0  502    0  0.00000000000E+00  0.00000000000E+00  0.23365566621E+03  0.23365566621E+03  0.00000000000E+00 0.  1.
         13   -1    0    0    0    0 -0.00000000000E+00 -0.00000000000E+00 -0.27500000000E+03  0.27500000000E+03  0.00000000000E+00 0.  1.
    9000005    2    1    2  501    0 -0.20786876809E+02 -0.29050202420E+02 -0.68376722948E+02  0.46385880726E+03  0.45739874106E+03 0.  0.
         13    1    3    3    0    0  0.15574266552E+03 -0.13676256559E+03 -0.13410518273E+03  0.24686833991E+03  0.00000000000E+00 0.  1.
          3    1    3    3  501    0 -0.17652954233E+03  0.10771236317E+03  0.65728459785E+02  0.21699046735E+03  0.00000000000E+00 0.  1.
         21    1    1    2  502  501  0.20786876809E+02  0.29050202420E+02  0.27032389159E+02  0.44796858950E+02  0.00000000000E+00 0. -1.
<scales pt_clust_4="550.00000" pt_clust_5="550.00000" pt_clust_6="35.72126"></scales>
<mgrwt>
<rscale>  0 0.30000000E+03</rscale>
<asrwt>  1 0.35721261E+02</asrwt>
<pdfrwt beam="1">  1        1 0.84965697E+00 0.30000000E+03</pdfrwt>
<pdfrwt beam="2">0</pdfrwt>
<totfact> 0.40845012E-04</totfact>
</mgrwt>
<clustering>
<clus scale="   35.721">  1  6  2 -1</clus>
<clus scale="  457.399">  4  5 -1 -1</clus>
<clus scale="  300.000">  1  4  2 -1</clus>
</clustering>
</event>
<event>
 6    1  0.9687246E-012  0.3000000E+03  0.7818608E-02  0.1093470E+00
          1   -1    0    0  502    0  0.00000000000E+00  0.00000000000E+00  0.24190044733E+03  0.24190044733E+03  0.00000000000E+00 0.  1.
         13   -1    0    0    0    0 -0.00000000000E+00 -0.00000000000E+00 -0.27500000000E+03  0.27500000000E+03  0.00000000000E+00 0.  1.
    9000005    2    1    2  501    0 -0.13239182504E+02  0.27147266448E+02 -0.67837444087E+02  0.47086816378E+03  0.46497597659E+03 0.  0.
         13    1    3    3    0    0 -0.13399523027E+03  0.19562910166E+03  0.34634666356E+02  0.23963519622E+03  0.00000000000E+00 0.  1.
          1    1    3    3  501    0  0.12075604776E+03 -0.16848183521E+03 -0.10247211044E+03  0.23123296756E+03  0.00000000000E+00 0.  1.
         21    1    1    2  502  501  0.13239182504E+02 -0.27147266448E+02  0.34737891416E+02  0.46032283552E+02  0.00000000000E+00 0.  1.
<scales pt_clust_4="550.00000" pt_clust_5="550.00000" pt_clust_6="30.20348"></scales>
<mgrwt>
<rscale>  0 0.30000000E+03</rscale>
<asrwt>  1 0.30203477E+02</asrwt>
<pdfrwt beam="1">  1        1 0.87963799E+00 0.30000000E+03</pdfrwt>
<pdfrwt beam="2">0</pdfrwt>
<totfact> 0.20505560E-04</totfact>
</mgrwt>
<clustering>
<clus scale="   30.203">  1  6  2 -1</clus>
<clus scale="  464.976">  4  5 -1 -1</clus>
<clus scale="  300.000">  1  4  2 -1</clus>
</clustering>
</event>
<event>
 6    1  0.9687246E-012  0.3000000E+03  0.7818608E-02  0.1093470E+00
          1   -1    0    0  502    0  0.00000000000E+00  0.00000000000E+00  0.23057309906E+03  0.23057309906E+03  0.00000000000E+00 0.  1.
         13   -1    0    0    0    0 -0.00000000000E+00 -0.00000000000E+00 -0.27500000000E+03  0.27500000000E+03  0.00000000000E+00 0.  1.
    9000005    2    1    2  501    0  0.13681688901E+01 -0.36103027874E+02 -0.27110336065E+02  0.46550860197E+03  0.46331197662E+03 0.  0.
         13    1    3    3    0    0  0.12347780907E+03 -0.15581439958E+03 -0.15490293478E+03  0.25203137830E+03  0.00000000000E+00 0.  1.
          1    1    3    3  501    0 -0.12210964018E+03  0.11971137170E+03  0.12779259871E+03  0.21347722367E+03  0.00000000000E+00 0.  1.
         21    1    1    2  502  501 -0.13681688901E+01  0.36103027874E+02 -0.17316564876E+02  0.40064497087E+02  0.00000000000E+00 0.  1.
<scales pt_clust_4="550.00000" pt_clust_5="550.00000" pt_clust_6="36.12896"></scales>
<mgrwt>
<rscale>  0 0.30000000E+03</rscale>
<asrwt>  1 0.36128961E+02</asrwt>
<pdfrwt beam="1">  1        1 0.83844763E+00 0.30000000E+03</pdfrwt>
<pdfrwt beam="2">0</pdfrwt>
<totfact> 0.50756700E-04</totfact>
</mgrwt>
<clustering>
<clus scale="   36.129">  1  6  2 -1</clus>
<clus scale="  463.312">  4  5 -1 -1</clus>
<clus scale="  300.000">  1  4  2 -1</clus>
</clustering>
</event>
<event>
 6    1  0.9687246E-012  0.3000000E+03  0.7818608E-02  0.1093470E+00
          1   -1    0    0  502    0  0.00000000000E+00  0.00000000000E+00  0.23356869698E+03  0.23356869698E+03  0.00000000000E+00 0.  1.
         13   -1    0    0    0    0 -0.00000000000E+00 -0.00000000000E+00 -0.27500000000E+03  0.27500000000E+03  0.00000000000E+00 0.  1.
    9000005    2    1    2  501    0  0.16645463470E+02 -0.25882520072E+02 -0.62529738080E+02  0.47125756913E+03  0.46607590800E+03 0.  0.
         13    1    3    3    0    0 -0.45233950918E+02  0.18137792072E+03  0.89121312654E+02  0.20709096747E+03  0.00000000000E+00 0.  1.
          1    1    3    3  501    0  0.61879414388E+02 -0.20726044079E+03 -0.15165105073E+03  0.26416660166E+03  0.00000000000E+00 0.  1.
         21    1    1    2  502  501 -0.16645463470E+02  0.25882520072E+02  0.21098435063E+02  0.37311127851E+02  0.00000000000E+00 0.  1.
<scales pt_clust_4="550.00000" pt_clust_5="550.00000" pt_clust_6="30.77298"></scales>
<mgrwt>
<rscale>  0 0.30000000E+03</rscale>
<asrwt>  1 0.30772980E+02</asrwt>
<pdfrwt beam="1">  1        1 0.84934072E+00 0.30000000E+03</pdfrwt>
<pdfrwt beam="2">0</pdfrwt>
<totfact> 0.42298448E-04</totfact>
</mgrwt>
<clustering>
<clus scale="   30.773">  1  6  2 -1</clus>
<clus scale="  466.076">  4  5 -1 -1</clus>
<clus scale="  300.000">  1  4  2 -1</clus>
</clustering>
</event>
<event>
 6    1  0.9687246E-012  0.3000000E+03  0.7818608E-02  0.1093470E+00
          1   -1    0    0  502    0  0.00000000000E+00  0.00000000000E+00  0.22486497788E+03  0.22486497788E+03  0.00000000000E+00 0.  1.
         13   -1    0    0    0    0 -0.00000000000E+00 -0.00000000000E+00 -0.27500000000E+03  0.27500000000E+03  0.00000000000E+00 0.  1.
    9000005    2    1    2  501    0 -0.36079599377E+02 -0.15339325962E+02 -0.47461393613E+02  0.46056891317E+03  0.45643631263E+03 0.  0.
         13    1    3    3    0    0  0.23997594289E+02 -0.13117511871E+03  0.16443850524E+03  0.21171400120E+03  0.00000000000E+00 0.  1.
          1    1    3    3  501    0 -0.60077193666E+02  0.11583579274E+03 -0.21189989885E+03  0.24885491197E+03  0.00000000000E+00 0.  1.
         21    1    1    2  502  501  0.36079599377E+02  0.15339325962E+02 -0.26736285065E+01  0.39296064708E+02  0.00000000000E+00 0.  1.
<scales pt_clust_4="550.00000" pt_clust_5="550.00000" pt_clust_6="39.20500"></scales>
<mgrwt>
<rscale>  0 0.30000000E+03</rscale>
<asrwt>  1 0.39205005E+02</asrwt>
<pdfrwt beam="1">  1        1 0.81769083E+00 0.30000000E+03</pdfrwt>
<pdfrwt beam="2">0</pdfrwt>
<totfact> 0.74096481E-04</totfact>
</mgrwt>
<clustering>
<clus scale="   39.205">  1  6  2 -1</clus>
<clus scale="  456.436">  4  5 -1 -1</clus>
<clus scale="  300.000">  1  4  2 -1</clus>
</clustering>
</event>
<event>
 6    1  0.9687246E-012  0.3000000E+03  0.7818608E-02  0.1093470E+00
          1   -1    0    0  502    0  0.00000000000E+00  0.00000000000E+00  0.24110210441E+03  0.24110210441E+03  0.00000000000E+00 0.  1.
         13   -1    0    0    0    0 -0.00000000000E+00 -0.00000000000E+00 -0.27500000000E+03  0.27500000000E+03  0.00000000000E+00 0.  1.
    9000005    2    1    2  501    0  0.31461969143E+02 -0.10618487824E+02 -0.30425669816E+02  0.48271551821E+03  0.48060996905E+03 0.  0.
         13    1    3    3    0    0 -0.76614210023E+02 -0.12791881201E+03  0.17028962692E+03  0.22634380194E+03  0.00000000000E+00 0.  1.
          1    1    3    3  501    0  0.10807617917E+03  0.11730032419E+03 -0.20071529673E+03  0.25637171626E+03  0.00000000000E+00 0.  1.
         21    1    1    2  502  501 -0.31461969143E+02  0.10618487824E+02 -0.34722257783E+01  0.33386586197E+02  0.00000000000E+00 0.  1.
<scales pt_clust_4="550.00000" pt_clust_5="550.00000" pt_clust_6="33.20556"></scales>
<mgrwt>
<rscale>  0 0.30000000E+03</rscale>
<asrwt>  1 0.33205555E+02</asrwt>
<pdfrwt beam="1">  1        1 0.87673493E+00 0.30000000E+03</pdfrwt>
<pdfrwt beam="2">0</pdfrwt>
<totfact> 0.21758305E-04</totfact>
</mgrwt>
<clustering>
<clus scale="   33.206">  1  6  2 -1</clus>
<clus scale="  480.610">  4  5 -1 -1</clus>
<clus scale="  300.000">  1  4  2 -1</clus>
</clustering>
</event>
<event>
 6    1  0.9687246E-012  0.3000000E+03  0.7818608E-02  0.1093470E+00
          1   -1    0    0  502    0  0.00000000000E+00  0.00000000000E+00  0.23260404897E+03  0.23260404897E+03  0.00000000000E+00 0.  1.
         13   -1    0    0    0    0 -0.00000000000E+00 -0.00000000000E+00 -0.27500000000E+03  0.27500000000E+03  0.00000000000E+00 0.  1.
    9000005    2    1    2  501    0  0.30820212070E+02  0.20048620905E+02 -0.53870567627E+02  0.46908782514E+03  0.46453150266E+03 0.  0.
         13    1    3    3    0    0 -0.13843442121E+03  0.17230173710E+03 -0.89877552510E+02  0.23859998329E+03  0.00000000000E+00 0.  1.
          1    1    3    3  501    0  0.16925463328E+03 -0.15225311619E+03  0.36006984884E+02  0.23048784184E+03  0.00000000000E+00 0.  1.
         21    1    1    2  502  501 -0.30820212070E+02 -0.20048620905E+02  0.11474616595E+02  0.38516223831E+02  0.00000000000E+00 0.  1.
<scales pt_clust_4="550.00000" pt_clust_5="550.00000" pt_clust_6="36.76728"></scales>
<mgrwt>
<rscale>  0 0.30000000E+03</rscale>
<asrwt>  1 0.36767277E+02</asrwt>
<pdfrwt beam="1">  1        1 0.84583291E+00 0.30000000E+03</pdfrwt>
<pdfrwt beam="2">0</pdfrwt>
<totfact> 0.44020717E-04</totfact>
</mgrwt>
<clustering>
<clus scale="   36.767">  1  6  2 -1</clus>
<clus scale="  464.532">  4  5 -1 -1</clus>
<clus scale="  300.000">  1  4  2 -1</clus>
</clustering>
</event>
<event>
 6    1  0.9687246E-012  0.3000000E+03  0.7818608E-02  0.1093470E+00
          1   -1    0    0  502    0  0.00000000000E+00  0.00000000000E+00  0.23359362860E+03  0.23359362860E+03  0.00000000000E+00 0.  1.
         13   -1    0    0    0    0 -0.00000000000E+00 -0.00000000000E+00 -0.27500000000E+03  0.27500000000E+03  0.00000000000E+00 0.  1.
    9000005    2    1    2  501    0 -0.97767070099E+01  0.29498034294E+02 -0.61956832573E+02  0.47133722671E+03  0.46621284212E+03 0.  0.
         13    1    3    3    0    0  0.13571035336E+03 -0.15332856840E+03  0.52173313301E+02  0.21130311052E+03  0.00000000000E+00 0.  1.
          3    1    3    3  501    0 -0.14548706037E+03  0.18282660269E+03 -0.11413014587E+03  0.26003411619E+03  0.00000000000E+00 0.  1.
         21    1    1    2  502  501  0.97767070099E+01 -0.29498034294E+02  0.20550461176E+02  0.37256401889E+02  0.00000000000E+00 0.  1.
<scales pt_clust_4="550.00000" pt_clust_5="550.00000" pt_clust_6="31.07600"></scales>
<mgrwt>
<rscale>  0 0.30000000E+03</rscale>
<asrwt>  1 0.31076004E+02</asrwt>
<pdfrwt beam="1">  1        1 0.84943138E+00 0.30000000E+03</pdfrwt>
<pdfrwt beam="2">0</pdfrwt>
<totfact> 0.42137122E-04</totfact>
</mgrwt>
<clustering>
<clus scale="   31.076">  1  6  2 -1</clus>
<clus scale="  466.213">  4  5 -1 -1</clus>
<clus scale="  300.000">  1  4  2 -1</clus>
</clustering>
</event>
<event>
 6    1  0.9687246E-012  0.3000000E+03  0.7818608E-02  0.1093470E+00
          1   -1    0    0  502    0  0.00000000000E+00  0.00000000000E+00  0.22244791768E+03  0.22244791768E+03  0.00000000000E+00 0.  1.
         13   -1    0    0    0    0 -0.00000000000E+00 -0.00000000000E+00 -0.27500000000E+03  0.27500000000E+03  0.00000000000E+00 0.  1.
    9000005    2    1    2  501    0 -0.24501616766E+02  0.18048291967E+02 -0.41398933702E+02  0.46503707396E+03  0.46218993755E+03 0.  0.
         13    1    3    3    0    0  0.10243711081E+03 -0.15339895914E+03  0.99303240839E+02  0.20948922640E+03  0.00000000000E+00 0.  1.
          3    1    3    3  501    0 -0.12693872758E+03  0.17144725111E+03 -0.14070217454E+03  0.25554784756E+03  0.00000000000E+00 0.  1.
         21    1    1    2  502  501  0.24501616766E+02 -0.18048291967E+02 -0.11153148614E+02  0.32410843727E+02  0.00000000000E+00 0.  1.
<scales pt_clust_4="550.00000" pt_clust_5="550.00000" pt_clust_6="30.43141"></scales>
<mgrwt>
<rscale>  0 0.30000000E+03</rscale>
<asrwt>  1 0.30431415E+02</asrwt>
<pdfrwt beam="1">  1        1 0.80890152E+00 0.30000000E+03</pdfrwt>
<pdfrwt beam="2">0</pdfrwt>
<totfact> 0.91335568E-04</totfact>
</mgrwt>
<clustering>
<clus scale="   30.431">  1  6  2 -1</clus>
<clus scale="  462.190">  4  5 -1 -1</clus>
<clus scale="  300.000">  1  4  2 -1</clus>
</clustering>
</event>
<event>
 6    1  0.9687246E-012  0.3000000E+03  0.7818608E-02  0.1093470E+00
          1   -1    0    0  502    0  0.00000000000E+00  0.00000000000E+00  0.22857753757E+03  0.22857753757E+03  0.00000000000E+00 0.  1.
         13   -1    0    0    0    0 -0.00000000000E+00 -0.00000000000E+00 -0.27500000000E+03  0.27500000000E+03  0.00000000000E+00 0.  1.
    9000005    2    1    2  501    0 -0.17695148242E+02  0.26881615711E+02 -0.31500909528E+02  0.46810371236E+03  0.46593244005E+03 0.  0.
         13    1    3    3    0    0 -0.36025086970E+02  0.98879456813E+02  0.19944234245E+03  0.22550432775E+03  0.00000000000E+00 0.  1.
          1    1    3    3  501    0  0.18329938728E+02 -0.71997841102E+02 -0.23094325198E+03  0.24259938461E+03  0.00000000000E+00 0.  1.
         21    1    1    2  502  501  0.17695148242E+02 -0.26881615711E+02 -0.14921552899E+02  0.35473825216E+02  0.00000000000E+00 0.  1.
<scales pt_clust_4="550.00000" pt_clust_5="550.00000" pt_clust_6="32.18292"></scales>
<mgrwt>
<rscale>  0 0.30000000E+03</rscale>
<asrwt>  1 0.32182924E+02</asrwt>
<pdfrwt beam="1">  1        1 0.83119105E+00 0.30000000E+03</pdfrwt>
<pdfrwt beam="2">0</pdfrwt>
<totfact> 0.58726836E-04</totfact>
</mgrwt>
<clustering>
<clus scale="   32.183">  1  6  2 -1</clus>
<clus scale="  465.932">  4  5 -1 -1</clus>
<clus scale="  300.000">  1  4  2 -1</clus>
</clustering>
</event>
<event>
 6    1  0.9687246E-012  0.3000000E+03  0.7818608E-02  0.1093470E+00
          1   -1    0    0  502    0  0.00000000000E+00  0.00000000000E+00  0.23879284803E+03  0.23879284803E+03  0.00000000000E+00 0.  1.
         13   -1    0    0    0    0 -0.00000000000E+00 -0.00000000000E+00 -0.27500000000E+03  0.27500000000E+03  0.00000000000E+00 0.  1.
    9000005    2    1    2  501    0  0.31688113054E+01  0.42728333008E+02 -0.41579359383E+02  0.47061168988E+03  0.46680913414E+03 0.  0.
         13    1    3    3    0    0  0.23296658938E+03  0.76083164634E+01  0.66920190015E+01  0.23318683789E+03  0.00000000000E+00 0.  1.
          3    1    3    3  501    0 -0.22979777808E+03  0.35120016544E+02 -0.48271378384E+02  0.23742485199E+03  0.00000000000E+00 0.  1.
         21    1    1    2  502  501 -0.31688113054E+01 -0.42728333008E+02  0.53722074148E+01  0.43181158151E+02  0.00000000000E+00 0.  1.
<scales pt_clust_4="550.00000" pt_clust_5="550.00000" pt_clust_6="42.84567"></scales>
<mgrwt>
<rscale>  0 0.30000000E+03</rscale>
<asrwt>  1 0.42845674E+02</asrwt>
<pdfrwt beam="1">  1        1 0.86833763E+00 0.30000000E+03</pdfrwt>
<pdfrwt beam="2">0</pdfrwt>
<totfact> 0.25381467E-04</totfact>
</mgrwt>
<clustering>
<clus scale="   42.846">  1  6  2 -1</clus>
<clus scale="  466.809">  4  5 -1 -1</clus>
<clus scale="  300.000">  1  4  2 -1</clus>
</clustering>
</event>
<event>
 6    1  0.9687246E-012  0.3000000E+03  0.7818608E-02  0.1093470E+00
          1   -1    0    0  502    0  0.00000000000E+00  0.00000000000E+00  0.22706827566E+03  0.22706827566E+03  0.00000000000E+00 0.  1.
         13   -1    0    0    0    0 -0.00000000000E+00 -0.00000000000E+00 -0.27500000000E+03  0.27500000000E+03  0.00000000000E+00 0.  1.
    9000005    2    1    2  501    0  0.29021252570E+02 -0.15837529980E+02 -0.41273558478E+02  0.46834303839E+03  0.46534786399E+03 0.  0.
         13    1    3    3    0    0  0.13511896515E+03 -0.19857742352E+03 -0.80714169267E+02  0.25338686824E+03  0.00000000000E+00 0.  1.
          3    1    3    3  501    0 -0.10609771258E+03  0.18273989354E+03  0.39440610789E+02  0.21495617015E+03  0.00000000000E+00 0.  1.
         21    1    1    2  502  501 -0.29021252570E+02  0.15837529980E+02 -0.66581658614E+01  0.33725237274E+02  0.00000000000E+00 0.  1.
<scales pt_clust_4="550.00000" pt_clust_5="550.00000" pt_clust_6="33.06148"></scales>
<mgrwt>
<rscale>  0 0.30000000E+03</rscale>
<asrwt>  1 0.33061481E+02</asrwt>
<pdfrwt beam="1">  1        1 0.82570282E+00 0.30000000E+03</pdfrwt>
<pdfrwt beam="2">0</pdfrwt>
<totfact> 0.65075276E-04</totfact>
</mgrwt>
<clustering>
<clus scale="   33.061">  1  6  2 -1</clus>
<clus scale="  465.348">  4  5 -1 -1</clus>
<clus scale="  300.000">  1  4  2 -1</clus>
</clustering>
</event>
<event>
 6    1  0.9687246E-012  0.3000000E+03  0.7818608E-02  0.1093470E+00
          1   -1    0    0  502    0  0.00000000000E+00  0.00000000000E+00  0.22995194283E+03  0.22995194283E+03  0.00000000000E+00 0.  1.
         13   -1    0    0    0    0 -0.00000000000E+00 -0.00000000000E+00 -0.27500000000E+03  0.27500000000E+03  0.00000000000E+00 0.  1.
    9000005    2    1    2  501    0  0.29158944027E+01  0.39021204791E+02 -0.48621912956E+02  0.46565907695E+03  0.46145761308E+03 0.  0.
         13    1    3    3    0    0  0.31700066569E+02  0.28679869740E+02  0.20540058821E+03  0.20980188461E+03  0.00000000000E+00 0.  1.
          3    1    3    3  501    0 -0.28784172166E+02  0.10341335051E+02 -0.25402250116E+03  0.25585719235E+03  0.00000000000E+00 0.  1.
         21    1    1    2  502  501 -0.29158944027E+01 -0.39021204791E+02  0.35738557840E+01  0.39292865875E+02  0.00000000000E+00 0.  1.
<scales pt_clust_4="550.00000" pt_clust_5="550.00000" pt_clust_6="39.13000"></scales>
<mgrwt>
<rscale>  0 0.30000000E+03</rscale>
<asrwt>  1 0.39130000E+02</asrwt>
<pdfrwt beam="1">  1        1 0.83618888E+00 0.30000000E+03</pdfrwt>
<pdfrwt beam="2">0</pdfrwt>
<totfact> 0.51949011E-04</totfact>
</mgrwt>
<clustering>
<clus scale="   39.130">  1  6  2 -1</clus>
<clus scale="  461.458">  4  5 -1 -1</clus>
<clus scale="  300.000">  1  4  2 -1</clus>
</clustering>
</event>
<event>
 6    1  0.9687246E-012  0.3000000E+03  0.7818608E-02  0.1093470E+00
          1   -1    0    0  502    0  0.00000000000E+00  0.00000000000E+00  0.23980169274E+03  0.23980169274E+03  0.00000000000E+00 0.  1.
         13   -1    0    0    0    0 -0.00000000000E+00 -0.00000000000E+00 -0.27500000000E+03  0.27500000000E+03  0.00000000000E+00 0.  1.
    9000005    2    1    2  501    0 -0.87584000744E+00 -0.42539021790E+02 -0.37153609435E+02  0.47220875110E+03  0.46881806541E+03 0.  0.
         13    1    3    3    0    0  0.96803729724E+02 -0.23247301867E+03  0.15284425820E+02  0.25228610776E+03  0.00000000000E+00 0.  1.
          1    1    3    3  501    0 -0.97679569732E+02  0.18993399688E+03 -0.52438035256E+02  0.21992264334E+03  0.00000000000E+00 0.  1.
         21    1    1    2  502  501  0.87584000744E+00  0.42539021790E+02  0.19553021702E+01  0.42592941635E+02  0.00000000000E+00 0. -1.
<scales pt_clust_4="550.00000" pt_clust_5="550.00000" pt_clust_6="42.54804"></scales>
<mgrwt>
<rscale>  0 0.30000000E+03</rscale>
<asrwt>  1 0.42548037E+02</asrwt>
<pdfrwt beam="1">  1        1 0.87200616E+00 0.30000000E+03</pdfrwt>
<pdfrwt beam="2">0</pdfrwt>
<totfact> 0.23306978E-04</totfact>
</mgrwt>
<clustering>
<clus scale="   42.548">  1  6  2 -1</clus>
<clus scale="  468.818">  4  5 -1 -1</clus>
<clus scale="  300.000">  1  4  2 -1</clus>
</clustering>
</event>
<event>
 6    1  0.9687246E-012  0.3000000E+03  0.7818608E-02  0.1093470E+00
          1   -1    0    0  502    0  0.00000000000E+00  0.00000000000E+00  0.22967789965E+03  0.22967789965E+03  0.00000000000E+00 0.  1.
         13   -1    0    0    0    0 -0.00000000000E+00 -0.00000000000E+00 -0.27500000000E+03  0.27500000000E+03  0.00000000000E+00 0.  1.
    9000005    2    1    2  501    0  0.35423983386E+02 -0.27037792676E+01 -0.53722638876E+02  0.46817121439E+03  0.46371973759E+03 0.  0.
         13    1    3    3    0    0  0.10678030133E+03 -0.15640637407E+02  0.18746910558E+03  0.21631303206E+03  0.00000000000E+00 0.  1.
          3    1    3    3  501    0 -0.71356317945E+02  0.12936858140E+02 -0.24119174446E+03  0.25185818233E+03  0.00000000000E+00 0.  1.
         21    1    1    2  502  501 -0.35423983386E+02  0.27037792676E+01  0.84005385231E+01  0.36506685261E+02  0.00000000000E+00 0. -1.
<scales pt_clust_4="550.00000" pt_clust_5="550.00000" pt_clust_6="35.52702"></scales>
<mgrwt>
<rscale>  0 0.30000000E+03</rscale>
<asrwt>  1 0.35527018E+02</asrwt>
<pdfrwt beam="1">  1        1 0.83519236E+00 0.30000000E+03</pdfrwt>
<pdfrwt beam="2">0</pdfrwt>
<totfact> 0.53774254E-04</totfact>
</mgrwt>
<clustering>
<clus scale="   35.527">  1  6  2 -1</clus>
<clus scale="  463.720">  4  5 -1 -1</clus>
<clus scale="  300.000">  1  4  2 -1</clus>
</clustering>
</event>
<event>
 6    1  0.9687246E-012  0.3000000E+03  0.7818608E-02  0.1093470E+00
          1   -1    0    0  502    0  0.00000000000E+00  0.00000000000E+00  0.24440501148E+03  0.24440501148E+03  0.00000000000E+00 0.  1.
         13   -1    0    0    0    0 -0.00000000000E+00 -0.00000000000E+00 -0.27500000000E+03  0.27500000000E+03  0.00000000000E+00 0.  1.
    9000005    2    1    2  501    0 -0.14687242666E+02  0.41581307669E+02 -0.33449766641E+02  0.47521372272E+03  0.47197931642E+03 0.  0.
         13    1    3    3    0    0 -0.67254320403E+02 -0.13902558966E+03 -0.17970043883E+03  0.23694620890E+03  0.00000000000E+00 0.  1.
          3    1    3    3  501    0  0.52567077738E+02  0.18060689733E+03  0.14625067219E+03  0.23826751382E+03  0.00000000000E+00 0.  1.
         21    1    1    2  502  501  0.14687242666E+02 -0.41581307669E+02  0.28547781249E+01  0.44191288765E+02  0.00000000000E+00 0.  1.
<scales pt_clust_4="550.00000" pt_clust_5="550.00000" pt_clust_6="44.09898"></scales>
<mgrwt>
<rscale>  0 0.30000000E+03</rscale>
<asrwt>  1 0.44098982E+02</asrwt>
<pdfrwt beam="1">  1        1 0.88874550E+00 0.30000000E+03</pdfrwt>
<pdfrwt beam="2">0</pdfrwt>
<totfact> 0.14446737E-04</totfact>
</mgrwt>
<clustering>
<clus scale="   44.099">  1  6  2 -1</clus>
<clus scale="  471.979">  4  5 -1 -1</clus>
<clus scale="  300.000">  1  4  2 -1</clus>
</clustering>
</event>
<event>
 6    1  0.9687246E-012  0.3000000E+03  0.7818608E-02  0.1093470E+00
          1   -1    0    0  502    0  0.00000000000E+00  0.00000000000E+00  0.24124074464E+03  0.24124074464E+03  0.00000000000E+00 0.  1.
         13   -1    0    0    0    0 -0.00000000000E+00 -0.00000000000E+00 -0.27500000000E+03  0.27500000000E+03  0.00000000000E+00 0.  1.
    9000005    2    1    2  501    0  0.47142738390E+02 -0.19707461687E+02 -0.15861122692E+02  0.46210051023E+03  0.45899290247E+03 0.  0.
         13    1    3    3    0    0  0.16754676932E+03 -0.17413666408E+03 -0.82353894900E+02  0.25529916117E+03  0.00000000000E+00 0.  1.
          3    1    3    3  501    0 -0.12040403093E+03  0.15442920240E+03  0.66492772208E+02  0.20680134906E+03  0.00000000000E+00 0.  1.
         21    1    1    2  502  501 -0.47142738390E+02  0.19707461687E+02 -0.17898132666E+02  0.54140234410E+02  0.00000000000E+00 0. -1.
<scales pt_clust_4="550.00000" pt_clust_5="550.00000" pt_clust_6="51.09623"></scales>
<mgrwt>
<rscale>  0 0.30000000E+03</rscale>
<asrwt>  1 0.51096227E+02</asrwt>
<pdfrwt beam="1">  1        1 0.87723907E+00 0.30000000E+03</pdfrwt>
<pdfrwt beam="2">0</pdfrwt>
<totfact> 0.19862540E-04</totfact>
</mgrwt>
<clustering>
<clus scale="   51.096">  1  6  2 -1</clus>
<clus scale="  458.993">  4  5 -1 -1</clus>
<clus scale="  300.000">  1  4  2 -1</clus>
</clustering>
</event>
<event>
 6    1  0.9687246E-012  0.3000000E+03  0.7818608E-02  0.1093470E+00
          1   -1    0    0  502    0  0.00000000000E+00  0.00000000000E+00  0.21992992616E+03  0.21992992616E+03  0.00000000000E+00 0.  1.
         13   -1    0    0    0    0 -0.00000000000E+00 -0.00000000000E+00 -0.27500000000E+03  0.27500000000E+03  0.00000000000E+00 0.  1.
    9000005    2    1    2  501    0 -0.19757031739E+02  0.26456561799E+02 -0.52322504636E+02  0.46179627103E+03  0.45763288942E+03 0.  0.
         13    1    3    3    0    0  0.20004495646E+03 -0.46599222266E+02  0.45469980026E+02  0.21037345652E+03  0.00000000000E+00 0.  1.
          3    1    3    3  501    0 -0.21980198820E+03  0.73055784065E+02 -0.97792484662E+02  0.25142281452E+03  0.00000000000E+00 0.  1.
         21    1    1    2  502  501  0.19757031739E+02 -0.26456561799E+02 -0.27475692060E+01  0.33133655125E+02  0.00000000000E+00 0.  1.
<scales pt_clust_4="550.00000" pt_clust_5="550.00000" pt_clust_6="33.01954"></scales>
<mgrwt>
<rscale>  0 0.30000000E+03</rscale>
<asrwt>  1 0.33019539E+02</asrwt>
<pdfrwt beam="1">  1        1 0.79974519E+00 0.30000000E+03</pdfrwt>
<pdfrwt beam="2">0</pdfrwt>
<totfact> 0.10529039E-03</totfact>
</mgrwt>
<clustering>
<clus scale="   33.020">  1  6  2 -1</clus>
<clus scale="  457.633">  4  5 -1 -1</clus>
<clus scale="  300.000">  1  4  2 -1</clus>
</clustering>
</event>
<event>
 6    1  0.9687246E-012  0.3000000E+03  0.7818608E-02  0.1093470E+00
          1   -1    0    0  502    0  0.00000000000E+00  0.00000000000E+00  0.23739970500E+03  0.23739970500E+03  0.00000000000E+00 0.  1.
         13   -1    0    0    0    0 -0.00000000000E+00 -0.00000000000E+00 -0.27500000000E+03  0.27500000000E+03  0.00000000000E+00 0.  1.
    9000005    2    1    2  501    0  0.32812685153E+02 -0.37101390626E+02 -0.49544293447E+02  0.46145027329E+03  0.45610144947E+03 0.  0.
         13    1    3    3    0    0  0.19031368373E+03 -0.10505611059E+03 -0.14864432480E+03  0.26334619778E+03  0.00000000000E+00 0.  1.
          3    1    3    3  501    0 -0.15750099858E+03  0.67954719967E+02  0.99100031350E+02  0.19810407551E+03  0.00000000000E+00 0.  1.
         21    1    1    2  502  501 -0.32812685153E+02  0.37101390626E+02  0.11943998451E+02  0.50949431718E+02  0.00000000000E+00 0.  1.
<scales pt_clust_4="550.00000" pt_clust_5="550.00000" pt_clust_6="49.52964"></scales>
<mgrwt>
<rscale>  0 0.30000000E+03</rscale>
<asrwt>  1 0.49529643E+02</asrwt>
<pdfrwt beam="1">  1        1 0.86327165E+00 0.30000000E+03</pdfrwt>
<pdfrwt beam="2">0</pdfrwt>
<totfact> 0.28006109E-04</totfact>
</mgrwt>
<clustering>
<clus scale="   49.530">  1  6  2 -1</clus>
<clus scale="  456.101">  4  5 -1 -1</clus>
<clus scale="  300.000">  1  4  2 -1</clus>
</clustering>
</event>
<event>
 6    1  0.9687246E-012  0.3000000E+03  0.7818608E-02  0.1093470E+00
          1   -1    0    0  502    0  0.00000000000E+00  0.00000000000E+00  0.23136131876E+03  0.23136131876E+03  0.00000000000E+00 0.  1.
         13   -1    0    0    0    0 -0.00000000000E+00 -0.00000000000E+00 -0.27500000000E+03  0.27500000000E+03  0.00000000000E+00 0.  1.
    9000005    2    1    2  501    0 -0.36416856061E+02  0.14377972587E+02 -0.39040867094E+02  0.46693983482E+03  0.46365472772E+03 0.  0.
         13    1    3    3    0    0  0.42213019562E+02 -0.14425333725E+03  0.14691537429E+03  0.21017871332E+03  0.00000000000E+00 0.  1.
          3    1    3    3  501    0 -0.78629875623E+02  0.15863130984E+03 -0.18595624139E+03  0.25676112150E+03  0.00000000000E+00 0.  1.
         21    1    1    2  502  501  0.36416856061E+02 -0.14377972587E+02 -0.45978141471E+01  0.39421483940E+02  0.00000000000E+00 0. -1.
<scales pt_clust_4="550.00000" pt_clust_5="550.00000" pt_clust_6="39.15246"></scales>
<mgrwt>
<rscale>  0 0.30000000E+03</rscale>
<asrwt>  1 0.39152459E+02</asrwt>
<pdfrwt beam="1">  1        1 0.84131389E+00 0.30000000E+03</pdfrwt>
<pdfrwt beam="2">0</pdfrwt>
<totfact> 0.47541146E-04</totfact>
</mgrwt>
<clustering>
<clus scale="   39.152">  1  6  2 -1</clus>
<clus scale="  463.655">  4  5 -1 -1</clus>
<clus scale="  300.000">  1  4  2 -1</clus>
</clustering>
</event>
<event>
 6    1  0.9687246E-012  0.3000000E+03  0.7818608E-02  0.1093470E+00
          1   -1    0    0  502    0  0.00000000000E+00  0.00000000000E+00  0.24564143003E+03  0.24564143003E+03  0.00000000000E+00 0.  1.
         13   -1    0    0    0    0 -0.00000000000E+00 -0.00000000000E+00 -0.27500000000E+03  0.27500000000E+03  0.00000000000E+00 0.  1.
    9000005    2    1    2  501    0 -0.12679706669E+00  0.41912754630E+02 -0.14591106935E+02  0.47620301148E+03  0.47413048063E+03 0.  0.
         13    1    3    3    0    0 -0.50163051228E+02  0.20679464203E+03 -0.14722703392E+03  0.25875887463E+03  0.00000000000E+00 0.  1.
          3    1    3    3  501    0  0.50036254161E+02 -0.16488188740E+03  0.13263592699E+03  0.21744413685E+03  0.00000000000E+00 0.  1.
         21    1    1    2  502  501  0.12679706669E+00 -0.41912754630E+02 -0.14767463037E+02  0.44438418544E+02  0.00000000000E+00 0.  1.
<scales pt_clust_4="550.00000" pt_clust_5="550.00000" pt_clust_6="41.91297"></scales>
<mgrwt>
<rscale>  0 0.30000000E+03</rscale>
<asrwt>  1 0.41912967E+02</asrwt>
<pdfrwt beam="1">  1        1 0.89324156E+00 0.30000000E+03</pdfrwt>
<pdfrwt beam="2">0</pdfrwt>
<totfact> 0.12775355E-04</totfact>
</mgrwt>
<clustering>
<clus scale="   41.913">  1  6  2 -1</clus>
<clus scale="  474.130">  4  5 -1 -1</clus>
<clus scale="  300.000">  1  4  2 -1</clus>
</clustering>
</event>
<event>
 6    1  0.9687246E-012  0.3000000E+03  0.7818608E-02  0.1093470E+00
          1   -1    0    0  502    0  0.00000000000E+00  0.00000000000E+00  0.24863530676E+03  0.24863530676E+03  0.00000000000E+00 0.  1.
         13   -1    0    0    0    0 -0.00000000000E+00 -0.00000000000E+00 -0.27500000000E+03  0.27500000000E+03  0.00000000000E+00 0.  1.
    9000005    2    1    2  501    0  0.31696295050E+02  0.45423214441E+01 -0.62456971658E+02  0.47538657242E+03  0.47017680943E+03 0.  0.
         13    1    3    3    0    0 -0.46069730159E+02  0.22805885386E+03 -0.94098304284E+01  0.23285576173E+03  0.00000000000E+00 0.  1.
          1    1    3    3  501    0  0.77766025208E+02 -0.22351653242E+03 -0.53047141230E+02  0.24253081069E+03  0.00000000000E+00 0.  1.
         21    1    1    2  502  501 -0.31696295050E+02 -0.45423214441E+01  0.36092278418E+02  0.48248734340E+02  0.00000000000E+00 0.  1.
<scales pt_clust_4="550.00000" pt_clust_5="550.00000" pt_clust_6="32.02012"></scales>
<mgrwt>
<rscale>  0 0.30000000E+03</rscale>
<asrwt>  1 0.32020116E+02</asrwt>
<pdfrwt beam="1">  1        1 0.90412839E+00 0.30000000E+03</pdfrwt>
<pdfrwt beam="2">0</pdfrwt>
<totfact> 0.97545760E-05</totfact>
</mgrwt>
<clustering>
<clus scale="   32.020">  1  6  2 -1</clus>
<clus scale="  470.177">  4  5 -1 -1</clus>
<clus scale="  300.000">  1  4  2 -1</clus>
</clustering>
</event>
<event>
 6    1  0.9687246E-012  0.3000000E+03  0.7818608E-02  0.1093470E+00
          1   -1    0    0  502    0  0.00000000000E+00  0.00000000000E+00  0.23061776761E+03  0.23061776761E+03  0.00000000000E+00 0.  1.
         13   -1    0    0    0    0 -0.00000000000E+00 -0.00000000000E+00 -0.27500000000E+03  0.27500000000E+03  0.00000000000E+00 0.  1.
    9000005    2    1    2  501    0 -0.17709964108E+02 -0.35454123200E+02 -0.35956555384E+02  0.46510073769E+03  0.46201210443E+03 0.  0.
         13    1    3    3    0    0 -0.10050497651E+03 -0.73108660194E+02  0.18687037812E+03  0.22442518735E+03  0.00000000000E+00 0.  1.
          3    1    3    3  501    0  0.82795012406E+02  0.37654536993E+02 -0.22282693350E+03  0.24067555034E+03  0.00000000000E+00 0.  1.
         21    1    1    2  502  501  0.17709964108E+02  0.35454123200E+02 -0.84256770049E+01  0.40517029921E+02  0.00000000000E+00 0.  1.
<scales pt_clust_4="550.00000" pt_clust_5="550.00000" pt_clust_6="39.63129"></scales>
<mgrwt>
<rscale>  0 0.30000000E+03</rscale>
<asrwt>  1 0.39631291E+02</asrwt>
<pdfrwt beam="1">  1        1 0.83861006E+00 0.30000000E+03</pdfrwt>
<pdfrwt beam="2">0</pdfrwt>
<totfact> 0.49760207E-04</totfact>
</mgrwt>
<clustering>
<clus scale="   39.631">  1  6  2 -1</clus>
<clus scale="  462.012">  4  5 -1 -1</clus>
<clus scale="  300.000">  1  4  2 -1</clus>
</clustering>
</event>
<event>
 6    1  0.9687246E-012  0.3000000E+03  0.7818608E-02  0.1093470E+00
          1   -1    0    0  502    0  0.00000000000E+00  0.00000000000E+00  0.25943063212E+03  0.25943063212E+03  0.00000000000E+00 0.  1.
         13   -1    0    0    0    0 -0.00000000000E+00 -0.00000000000E+00 -0.27500000000E+03  0.27500000000E+03  0.00000000000E+00 0.  1.
    9000005    2    1    2  501    0  0.23285298172E+02 -0.33281162442E+02 -0.26273908483E+02  0.49242553631E+03  0.49004362016E+03 0.  0.
         13    1    3    3    0    0  0.18602053441E+03  0.83454956347E+02  0.12702329722E+03  0.24021508486E+03  0.00000000000E+00 0.  1.
          3    1    3    3  501    0 -0.16273523623E+03 -0.11673611879E+03 -0.15329720570E+03  0.25221045145E+03  0.00000000000E+00 0.  1.
         21    1    1    2  502  501 -0.23285298172E+02  0.33281162442E+02  0.10704540602E+02  0.42005095809E+02  0.00000000000E+00 0.  1.
<scales pt_clust_4="550.00000" pt_clust_5="550.00000" pt_clust_6="40.61823"></scales>
<mgrwt>
<rscale>  0 0.30000000E+03</rscale>
<asrwt>  1 0.40618233E+02</asrwt>
<pdfrwt beam="1">  1        1 0.94338412E+00 0.30000000E+03</pdfrwt>
<pdfrwt beam="2">0</pdfrwt>
<totfact> 0.16231638E-05</totfact>
</mgrwt>
<clustering>
<clus scale="   40.618">  1  6  2 -1</clus>
<clus scale="  490.044">  4  5 -1 -1</clus>
<clus scale="  300.000">  1  4  2 -1</clus>
</clustering>
</event>
<event>
 6    1  0.9687246E-012  0.3000000E+03  0.7818608E-02  0.1093470E+00
          1   -1    0    0  502    0  0.00000000000E+00  0.00000000000E+00  0.22833974392E+03  0.22833974392E+03  0.00000000000E+00 0.  1.
         13   -1    0    0    0    0 -0.00000000000E+00 -0.00000000000E+00 -0.27500000000E+03  0.27500000000E+03  0.00000000000E+00 0.  1.
    9000005    2    1    2  501    0  0.29720191039E+02  0.98774086008E+01 -0.64830971496E+02  0.46713162529E+03  0.46154961545E+03 0.  0.
         13    1    3    3    0    0  0.13102497507E+03  0.48507756050E+02  0.16308045121E+03  0.21474584991E+03  0.00000000000E+00 0.  1.
          1    1    3    3  501    0 -0.10130478403E+03 -0.38630347449E+02 -0.22791142270E+03  0.25238577537E+03  0.00000000000E+00 0.  1.
         21    1    1    2  502  501 -0.29720191039E+02 -0.98774086008E+01  0.18170715411E+02  0.36208118629E+02  0.00000000000E+00 0. -1.
<scales pt_clust_4="550.00000" pt_clust_5="550.00000" pt_clust_6="31.31857"></scales>
<mgrwt>
<rscale>  0 0.30000000E+03</rscale>
<asrwt>  1 0.31318572E+02</asrwt>
<pdfrwt beam="1">  1        1 0.83032634E+00 0.30000000E+03</pdfrwt>
<pdfrwt beam="2">0</pdfrwt>
<totfact> 0.59984562E-04</totfact>
</mgrwt>
<clustering>
<clus scale="   31.319">  1  6  2 -1</clus>
<clus scale="  461.550">  4  5 -1 -1</clus>
<clus scale="  300.000">  1  4  2 -1</clus>
</clustering>
</event>
<event>
 6    1  0.9687246E-012  0.3000000E+03  0.7818608E-02  0.1093470E+00
          1   -1    0    0  502    0  0.00000000000E+00  0.00000000000E+00  0.24886220212E+03  0.24886220212E+03  0.00000000000E+00 0.  1.
         13   -1    0    0    0    0 -0.00000000000E+00 -0.00000000000E+00 -0.27500000000E+03  0.27500000000E+03  0.00000000000E+00 0.  1.
    9000005    2    1    2  501    0  0.44770630794E+02  0.90543901859E+01 -0.57844162494E+02  0.46825928025E+03  0.46242233407E+03 0.  0.
         13    1    3    3    0    0  0.25145112090E+03  0.41115575961E+02 -0.18703592042E+02  0.25547598937E+03  0.00000000000E+00 0.  1.
          3    1    3    3  501    0 -0.20668049011E+03 -0.32061185775E+02 -0.39140570452E+02  0.21278329088E+03  0.00000000000E+00 0.  1.
         21    1    1    2  502  501 -0.44770630794E+02 -0.90543901859E+01  0.31706364618E+02  0.55602921871E+02  0.00000000000E+00 0.  1.
<scales pt_clust_4="550.00000" pt_clust_5="550.00000" pt_clust_6="45.67703"></scales>
<mgrwt>
<rscale>  0 0.30000000E+03</rscale>
<asrwt>  1 0.45677033E+02</asrwt>
<pdfrwt beam="1">  1        1 0.90495346E+00 0.30000000E+03</pdfrwt>
<pdfrwt beam="2">0</pdfrwt>
<totfact> 0.88256732E-05</totfact>
</mgrwt>
<clustering>
<clus scale="   45.677">  1  6  2 -1</clus>
<clus scale="  462.422">  4  5 -1 -1</clus>
<clus scale="  300.000">  1  4  2 -1</clus>
</clustering>
</event>
<event>
 6    1  0.9687246E-012  0.3000000E+03  0.7818608E-02  0.1093470E+00
          1   -1    0    0  502    0  0.00000000000E+00  0.00000000000E+00  0.24001872726E+03  0.24001872726E+03  0.00000000000E+00 0.  1.
         13   -1    0    0    0    0 -0.00000000000E+00 -0.00000000000E+00 -0.27500000000E+03  0.27500000000E+03  0.00000000000E+00 0.  1.
    9000005    2    1    2  501    0 -0.28174791832E+02 -0.36955296456E+02 -0.41370012678E+02  0.46811106446E+03  0.46395794841E+03 0.  0.
         13    1    3    3    0    0  0.17764513523E+03 -0.60127548591E+02 -0.14448078852E+03  0.23674419618E+03  0.00000000000E+00 0.  1.
          3    1    3    3  501    0 -0.20581992706E+03  0.23172252135E+02  0.10311077584E+03  0.23136686829E+03  0.00000000000E+00 0.  1.
         21    1    1    2  502  501  0.28174791832E+02  0.36955296456E+02  0.63887399354E+01  0.46907662795E+02  0.00000000000E+00 0. -1.
<scales pt_clust_4="550.00000" pt_clust_5="550.00000" pt_clust_6="46.47056"></scales>
<mgrwt>
<rscale>  0 0.30000000E+03</rscale>
<asrwt>  1 0.46470559E+02</asrwt>
<pdfrwt beam="1">  1        1 0.87279537E+00 0.30000000E+03</pdfrwt>
<pdfrwt beam="2">0</pdfrwt>
<totfact> 0.22518604E-04</totfact>
</mgrwt>
<clustering>
<clus scale="   46.471">  1  6  2 -1</clus>
<clus scale="  463.958">  4  5 -1 -1</clus>
<clus scale="  300.000">  1  4  2 -1</clus>
</clustering>
</event>
<event>
 6    1  0.9687246E-012  0.3000000E+03  0.7818608E-02  0.1093470E+00
          1   -1    0    0  502    0  0.00000000000E+00  0.00000000000E+00  0.21999903650E+03  0.21999903650E+03  0.00000000000E+00 0.  1.
         13   -1    0    0    0    0 -0.00000000000E+00 -0.00000000000E+00 -0.27500000000E+03  0.27500000000E+03  0.00000000000E+00 0.  1.
    9000005    2    1    2  501    0 -0.11920714031E+02  0.31220282517E+02 -0.54211271368E+02  0.46157100819E+03  0.45715656420E+03 0.  0.
         13    1    3    3    0    0 -0.11473311801E+03  0.79427997230E+02 -0.22005933477E+03  0.26057360943E+03  0.00000000000E+00 0.  1.
          3    1    3    3  501    0  0.10281240398E+03 -0.48207714713E+02  0.16584806341E+03  0.20099739875E+03  0.00000000000E+00 0.  1.
         21    1    1    2  502  501  0.11920714031E+02 -0.31220282517E+02 -0.78969213071E+00  0.33428028316E+02  0.00000000000E+00 0.  1.
<scales pt_clust_4="550.00000" pt_clust_5="550.00000" pt_clust_6="33.41870"></scales>
<mgrwt>
<rscale>  0 0.30000000E+03</rscale>
<asrwt>  1 0.33418699E+02</asrwt>
<pdfrwt beam="1">  1        1 0.79999650E+00 0.30000000E+03</pdfrwt>
<pdfrwt beam="2">0</pdfrwt>
<totfact> 0.10461310E-03</totfact>
</mgrwt>
<clustering>
<clus scale="   33.419">  1  6  2 -1</clus>
<clus scale="  457.157">  4  5 -1 -1</clus>
<clus scale="  300.000">  1  4  2 -1</clus>
</clustering>
</event>
<event>
 6    1  0.9687246E-012  0.3000000E+03  0.7818608E-02  0.1093470E+00
          1   -1    0    0  502    0  0.00000000000E+00  0.00000000000E+00  0.23704281816E+03  0.23704281816E+03  0.00000000000E+00 0.  1.
         13   -1    0    0    0    0 -0.00000000000E+00 -0.00000000000E+00 -0.27500000000E+03  0.27500000000E+03  0.00000000000E+00 0.  1.
    9000005    2    1    2  501    0 -0.29421641392E+02  0.12420945720E+02 -0.56663422780E+02  0.47503151820E+03  0.47055742150E+03 0.  0.
         13    1    3    3    0    0 -0.13385504415E+03  0.12229331539E+02 -0.23363679737E+03  0.26954198649E+03  0.00000000000E+00 0.  1.
          1    1    3    3  501    0  0.10443340276E+03  0.19161418092E+00  0.17697337459E+03  0.20548953171E+03  0.00000000000E+00 0.  1.
         21    1    1    2  502  501  0.29421641392E+02 -0.12420945720E+02  0.18706240941E+02  0.37011299962E+02  0.00000000000E+00 0.  1.
<scales pt_clust_4="550.00000" pt_clust_5="550.00000" pt_clust_6="31.93607"></scales>
<mgrwt>
<rscale>  0 0.30000000E+03</rscale>
<asrwt>  1 0.31936075E+02</asrwt>
<pdfrwt beam="1">  1        1 0.86197388E+00 0.30000000E+03</pdfrwt>
<pdfrwt beam="2">0</pdfrwt>
<totfact> 0.31341694E-04</totfact>
</mgrwt>
<clustering>
<clus scale="   31.936">  1  6  2 -1</clus>
<clus scale="  470.557">  4  5 -1 -1</clus>
<clus scale="  300.000">  1  4  2 -1</clus>
</clustering>
</event>
<event>
 6    1  0.9687246E-012  0.3000000E+03  0.7818608E-02  0.1093470E+00
          1   -1    0    0  502    0  0.00000000000E+00  0.00000000000E+00  0.23316167545E+03  0.23316167545E+03  0.00000000000E+00 0.  1.
         13   -1    0    0    0    0 -0.00000000000E+00 -0.00000000000E+00 -0.27500000000E+03  0.27500000000E+03  0.00000000000E+00 0.  1.
    9000005    2    1    2  501    0  0.93115239701E+01 -0.32168568609E+02 -0.64870247059E+02  0.46751698650E+03  0.46178183424E+03 0.  0.
         13    1    3    3    0    0 -0.20118502167E+02  0.84057259575E+02  0.17732663582E+03  0.19726913795E+03  0.00000000000E+00 0.  1.
          1    1    3    3  501    0  0.29430026137E+02 -0.11622582818E+03 -0.24219688287E+03  0.27024784856E+03  0.00000000000E+00 0.  1.
         21    1    1    2  502  501 -0.93115239701E+01  0.32168568609E+02  0.23031922506E+02  0.40644688943E+02  0.00000000000E+00 0.  1.
<scales pt_clust_4="550.00000" pt_clust_5="550.00000" pt_clust_6="33.48912"></scales>
<mgrwt>
<rscale>  0 0.30000000E+03</rscale>
<asrwt>  1 0.33489122E+02</asrwt>
<pdfrwt beam="1">  1        1 0.84786064E+00 0.30000000E+03</pdfrwt>
<pdfrwt beam="2">0</pdfrwt>
<totfact> 0.42952927E-04</totfact>
</mgrwt>
<clustering>
<clus scale="   33.489">  1  6  2 -1</clus>
<clus scale="  461.782">  4  5 -1 -1</clus>
<clus scale="  300.000">  1  4  2 -1</clus>
</clustering>
</event>
<event>
 6    1  0.9687246E-012  0.3000000E+03  0.7818608E-02  0.1093470E+00
          1   -1    0    0  502    0  0.00000000000E+00  0.00000000000E+00  0.22632568388E+03  0.22632568388E+03  0.00000000000E+00 0.  1.
         13   -1    0    0    0    0 -0.00000000000E+00 -0.00000000000E+00 -0.27500000000E+03  0.27500000000E+03  0.00000000000E+00 0.  1.
    9000005    2    1    2  501    0  0.13570275849E+02  0.32608765862E+02 -0.49938326552E+02  0.46598333365E+03  0.46195145501E+03 0.  0.
         13    1    3    3    0    0 -0.18335918070E+03 -0.10390688916E+03 -0.78002204615E+02  0.22472555414E+03  0.00000000000E+00 0.  1.
          1    1    3    3  501    0  0.19692945654E+03  0.13651565502E+03  0.28063878063E+02  0.24125777951E+03  0.00000000000E+00 0.  1.
         21    1    1    2  502  501 -0.13570275849E+02 -0.32608765862E+02  0.12640104352E+01  0.35342350234E+02  0.00000000000E+00 0.  1.
<scales pt_clust_4="550.00000" pt_clust_5="550.00000" pt_clust_6="35.31974"></scales>
<mgrwt>
<rscale>  0 0.30000000E+03</rscale>
<asrwt>  1 0.35319739E+02</asrwt>
<pdfrwt beam="1">  1        1 0.82300249E+00 0.30000000E+03</pdfrwt>
<pdfrwt beam="2">0</pdfrwt>
<totfact> 0.67940703E-04</totfact>
</mgrwt>
<clustering>
<clus scale="   35.320">  1  6  2 -1</clus>
<clus scale="  461.951">  4  5 -1 -1</clus>
<clus scale="  300.000">  1  4  2 -1</clus>
</clustering>
</event>
<event>
 6    1  0.9687246E-012  0.3000000E+03  0.7818608E-02  0.1093470E+00
          1   -1    0    0  502    0  0.00000000000E+00  0.00000000000E+00  0.24344196431E+03  0.24344196431E+03  0.00000000000E+00 0.  1.
         13   -1    0    0    0    0 -0.00000000000E+00 -0.00000000000E+00 -0.27500000000E+03  0.27500000000E+03  0.00000000000E+00 0.  1.
    9000005    2    1    2  501    0  0.32348193710E+02 -0.86873572175E+01 -0.65693937098E+02  0.47061795803E+03  0.46480500561E+03 0.  0.
         13    1    3    3    0    0  0.22180969341E+03  0.52638270404E+02 -0.12864822569E+03  0.26176457662E+03  0.00000000000E+00 0.  1.
          1    1    3    3  501    0 -0.18946149970E+03 -0.61325627622E+02  0.62954288587E+02  0.20885338141E+03  0.00000000000E+00 0.  1.
         21    1    1    2  502  501 -0.32348193710E+02  0.86873572175E+01  0.34135901408E+02  0.47824006280E+02  0.00000000000E+00 0. -1.
<scales pt_clust_4="550.00000" pt_clust_5="550.00000" pt_clust_6="33.49441"></scales>
<mgrwt>
<rscale>  0 0.30000000E+03</rscale>
<asrwt>  1 0.33494415E+02</asrwt>
<pdfrwt beam="1">  1        1 0.88524351E+00 0.30000000E+03</pdfrwt>
<pdfrwt beam="2">0</pdfrwt>
<totfact> 0.16980430E-04</totfact>
</mgrwt>
<clustering>
<clus scale="   33.494">  1  6  2 -1</clus>
<clus scale="  464.805">  4  5 -1 -1</clus>
<clus scale="  300.000">  1  4  2 -1</clus>
</clustering>
</event>
<event>
 6    1  0.9687246E-012  0.3000000E+03  0.7818608E-02  0.1093470E+00
          1   -1    0    0  502    0  0.00000000000E+00  0.00000000000E+00  0.25887047736E+03  0.25887047736E+03  0.00000000000E+00 0.  1.
         13   -1    0    0    0    0 -0.00000000000E+00 -0.00000000000E+00 -0.27500000000E+03  0.27500000000E+03  0.00000000000E+00 0.  1.
    9000005    2    1    2  501    0  0.19061173807E+02  0.37986300404E+02 -0.39758702775E+02  0.48524306205E+03  0.48174037350E+03 0.  0.
         13    1    3    3    0    0 -0.63651096034E+02 -0.82585234798E+02  0.18777379147E+03  0.21478077148E+03  0.00000000000E+00 0.  1.
          1    1    3    3  501    0  0.82712269841E+02  0.12057153520E+03 -0.22753249425E+03  0.27046229057E+03  0.00000000000E+00 0.  1.
         21    1    1    2  502  501 -0.19061173807E+02 -0.37986300404E+02  0.23629180133E+02  0.48627415303E+02  0.00000000000E+00 0.  1.
<scales pt_clust_4="550.00000" pt_clust_5="550.00000" pt_clust_6="42.50044"></scales>
<mgrwt>
<rscale>  0 0.30000000E+03</rscale>
<asrwt>  1 0.42500440E+02</asrwt>
<pdfrwt beam="1">  1        1 0.94134719E+00 0.30000000E+03</pdfrwt>
<pdfrwt beam="2">0</pdfrwt>
<totfact> 0.17524449E-05</totfact>
</mgrwt>
<clustering>
<clus scale="   42.500">  1  6  2 -1</clus>
<clus scale="  481.740">  4  5 -1 -1</clus>
<clus scale="  300.000">  1  4  2 -1</clus>
</clustering>
</event>
<event>
 6    1  0.9687246E-012  0.3000000E+03  0.7818608E-02  0.1093470E+00
          1   -1    0    0  502    0  0.00000000000E+00  0.00000000000E+00  0.24417039483E+03  0.24417039483E+03  0.00000000000E+00 0.  1.
         13   -1    0    0    0    0 -0.00000000000E+00 -0.00000000000E+00 -0.27500000000E+03  0.27500000000E+03  0.00000000000E+00 0.  1.
    9000005    2    1    2  501    0 -0.29289990268E+02  0.15159758296E+02 -0.34548233333E+02  0.48598078807E+03  0.48362798115E+03 0.  0.
         13    1    3    3    0    0 -0.29612188205E+02  0.20588773463E+03 -0.15587785098E+03  0.25993180911E+03  0.00000000000E+00 0.  1.
          1    1    3    3  501    0  0.32219793756E+00 -0.19072797634E+03  0.12132961765E+03  0.22604897896E+03  0.00000000000E+00 0.  1.
         21    1    1    2  502  501  0.29289990268E+02 -0.15159758296E+02  0.37186281653E+01  0.33189606760E+02  0.00000000000E+00 0.  1.
<scales pt_clust_4="550.00000" pt_clust_5="550.00000" pt_clust_6="32.98063"></scales>
<mgrwt>
<rscale>  0 0.30000000E+03</rscale>
<asrwt>  1 0.32980628E+02</asrwt>
<pdfrwt beam="1">  1        1 0.88789234E+00 0.30000000E+03</pdfrwt>
<pdfrwt beam="2">0</pdfrwt>
<totfact> 0.15656207E-04</totfact>
</mgrwt>
<clustering>
<clus scale="   32.981">  1  6  2 -1</clus>
<clus scale="  483.628">  4  5 -1 -1</clus>
<clus scale="  300.000">  1  4  2 -1</clus>
</clustering>
</event>
<event>
 6    1  0.9687246E-012  0.3000000E+03  0.7818608E-02  0.1093470E+00
          1   -1    0    0  502    0  0.00000000000E+00  0.00000000000E+00  0.23005066879E+03  0.23005066879E+03  0.00000000000E+00 0.  1.
         13   -1    0    0    0    0 -0.00000000000E+00 -0.00000000000E+00 -0.27500000000E+03  0.27500000000E+03  0.00000000000E+00 0.  1.
    9000005    2    1    2  501    0  0.35526779358E+02 -0.29377282385E+01 -0.64422046964E+02  0.46443085888E+03  0.45855756481E+03 0.  0.
         13    1    3    3    0    0  0.12647680634E+03  0.20039583144E+03 -0.25972870480E+02  0.23838930723E+03  0.00000000000E+00 0.  1.
          3    1    3    3  501    0 -0.90950026985E+02 -0.20333355967E+03 -0.38449176485E+02  0.22604155165E+03  0.00000000000E+00 0.  1.
         21    1    1    2  502  501 -0.35526779358E+02  0.29377282385E+01  0.19472715757E+02  0.40619809917E+02  0.00000000000E+00 0. -1.
<scales pt_clust_4="550.00000" pt_clust_5="550.00000" pt_clust_6="35.64803"></scales>
<mgrwt>
<rscale>  0 0.30000000E+03</rscale>
<asrwt>  1 0.35648034E+02</asrwt>
<pdfrwt beam="1">  1        1 0.83654789E+00 0.30000000E+03</pdfrwt>
<pdfrwt beam="2">0</pdfrwt>
<totfact> 0.52535679E-04</totfact>
</mgrwt>
<clustering>
<clus scale="   35.648">  1  6  2 -1</clus>
<clus scale="  458.558">  4  5 -1 -1</clus>
<clus scale="  300.000">  1  4  2 -1</clus>
</clustering>
</event>
<event>
 6    1  0.9687246E-012  0.3000000E+03  0.7818608E-02  0.1093470E+00
          1   -1    0    0  502    0  0.00000000000E+00  0.00000000000E+00  0.23216730644E+03  0.23216730644E+03  0.00000000000E+00 0.  1.
         13   -1    0    0    0    0 -0.00000000000E+00 -0.00000000000E+00 -0.27500000000E+03  0.27500000000E+03  0.00000000000E+00 0.  1.
    9000005    2    1    2  501    0 -0.13856309258E+02  0.40064452595E+02 -0.38165592935E+02  0.46451827953E+03  0.46100267013E+03 0.  0.
         13    1    3    3    0    0 -0.12667413710E+03 -0.60857752721E+02  0.16141954884E+03  0.21402400291E+03  0.00000000000E+00 0.  1.
          1    1    3    3  501    0  0.11281782784E+03  0.10092220532E+03 -0.19958514177E+03  0.25049427662E+03  0.00000000000E+00 0.  1.
         21    1    1    2  502  501  0.13856309258E+02 -0.40064452595E+02 -0.46671006261E+01  0.42649026909E+02  0.00000000000E+00 0.  1.
<scales pt_clust_4="550.00000" pt_clust_5="550.00000" pt_clust_6="42.39292"></scales>
<mgrwt>
<rscale>  0 0.30000000E+03</rscale>
<asrwt>  1 0.42392918E+02</asrwt>
<pdfrwt beam="1">  1        1 0.84424475E+00 0.30000000E+03</pdfrwt>
<pdfrwt beam="2">0</pdfrwt>
<totfact> 0.44282539E-04</totfact>
</mgrwt>
<clustering>
<clus scale="   42.393">  1  6  2 -1</clus>
<clus scale="  461.003">  4  5 -1 -1</clus>
<clus scale="  300.000">  1  4  2 -1</clus>
</clustering>
</event>
<event>
 6    1  0.9687246E-012  0.3000000E+03  0.7818608E-02  0.1093470E+00
          1   -1    0    0  502    0  0.00000000000E+00  0.00000000000E+00  0.22094415075E+03  0.22094415075E+03  0.00000000000E+00 0.  1.
         13   -1    0    0    0    0 -0.00000000000E+00 -0.00000000000E+00 -0.27500000000E+03  0.27500000000E+03  0.00000000000E+00 0.  1.
    9000005    2    1    2  501    0  0.20512956394E+02 -0.25882518804E+02 -0.56979495134E+02  0.46278945478E+03  0.45807939315E+03 0.  0.
         13    1    3    3    0    0 -0.13123226624E+03  0.92972113573E+02 -0.17428275241E+03  0.23715016211E+03  0.00000000000E+00 0.  1.
          1    1    3    3  501    0  0.15174522263E+03 -0.11885463238E+03  0.11730325727E+03  0.22563929267E+03  0.00000000000E+00 0.  1.
         21    1    1    2  502  501 -0.20512956394E+02  0.25882518804E+02  0.29236458876E+01  0.33154695971E+02  0.00000000000E+00 0. -1.
<scales pt_clust_4="550.00000" pt_clust_5="550.00000" pt_clust_6="33.02554"></scales>
<mgrwt>
<rscale>  0 0.30000000E+03</rscale>
<asrwt>  1 0.33025538E+02</asrwt>
<pdfrwt beam="1">  1        1 0.80343328E+00 0.30000000E+03</pdfrwt>
<pdfrwt beam="2">0</pdfrwt>
<totfact> 0.98973181E-04</totfact>
</mgrwt>
<clustering>
<clus scale="   33.026">  1  6  2 -1</clus>
<clus scale="  458.079">  4  5 -1 -1</clus>
<clus scale="  300.000">  1  4  2 -1</clus>
</clustering>
</event>
<event>
 6    1  0.9687246E-012  0.3000000E+03  0.7818608E-02  0.1093470E+00
          1   -1    0    0  502    0  0.00000000000E+00  0.00000000000E+00  0.21992294902E+03  0.21992294902E+03  0.00000000000E+00 0.  1.
         13   -1    0    0    0    0 -0.00000000000E+00 -0.00000000000E+00 -0.27500000000E+03  0.27500000000E+03  0.00000000000E+00 0.  1.
    9000005    2    1    2  501    0  0.18537995230E+02  0.23897769258E+02 -0.65956953609E+02  0.46278056386E+03  0.45705663753E+03 0.  0.
         13    1    3    3    0    0 -0.90857999406E+02 -0.72112096502E+02 -0.22132788010E+03  0.24988269453E+03  0.00000000000E+00 0.  1.
          3    1    3    3  501    0  0.10939599464E+03  0.96009865760E+02  0.15537092649E+03  0.21289786933E+03  0.00000000000E+00 0.  1.
         21    1    1    2  502  501 -0.18537995230E+02 -0.23897769258E+02  0.10879902627E+02  0.32142385161E+02  0.00000000000E+00 0. -1.
<scales pt_clust_4="550.00000" pt_clust_5="550.00000" pt_clust_6="30.24501"></scales>
<mgrwt>
<rscale>  0 0.30000000E+03</rscale>
<asrwt>  1 0.30245010E+02</asrwt>
<pdfrwt beam="1">  1        1 0.79971981E+00 0.30000000E+03</pdfrwt>
<pdfrwt beam="2">0</pdfrwt>
<totfact> 0.10711265E-03</totfact>
</mgrwt>
<clustering>
<clus scale="   30.245">  1  6  2 -1</clus>
<clus scale="  457.057">  4  5 -1 -1</clus>
<clus scale="  300.000">  1  4  2 -1</clus>
</clustering>
</event>
<event>
 6    1  0.9687246E-012  0.3000000E+03  0.7818608E-02  0.1093470E+00
          1   -1    0    0  502    0  0.00000000000E+00  0.00000000000E+00  0.23652650682E+03  0.23652650682E+03  0.00000000000E+00 0.  1.
         13   -1    0    0    0    0 -0.00000000000E+00 -0.00000000000E+00 -0.27500000000E+03  0.27500000000E+03  0.00000000000E+00 0.  1.
    9000005    2    1    2  501    0 -0.47859768818E+01  0.31367387914E+02 -0.74866812854E+02  0.46324304882E+03  0.45605072527E+03 0.  0.
         13    1    3    3    0    0  0.96826612249E+02  0.13538964595E+03  0.13056767376E+03  0.21155062397E+03  0.00000000000E+00 0.  1.
          3    1    3    3  501    0 -0.10161258913E+03 -0.10402225804E+03 -0.20543448662E+03  0.25169242485E+03  0.00000000000E+00 0.  1.
         21    1    1    2  502  501  0.47859768818E+01 -0.31367387914E+02  0.36393319671E+02  0.48283457994E+02  0.00000000000E+00 0. -1.
<scales pt_clust_4="550.00000" pt_clust_5="550.00000" pt_clust_6="31.73040"></scales>
<mgrwt>
<rscale>  0 0.30000000E+03</rscale>
<asrwt>  1 0.31730405E+02</asrwt>
<pdfrwt beam="1">  1        1 0.86009639E+00 0.30000000E+03</pdfrwt>
<pdfrwt beam="2">0</pdfrwt>
<totfact> 0.32872712E-04</totfact>
</mgrwt>
<clustering>
<clus scale="   31.730">  1  6  2 -1</clus>
<clus scale="  456.051">  4  5 -1 -1</clus>
<clus scale="  300.000">  1  4  2 -1</clus>
</clustering>
</event>
<event>
 6    1  0.9687246E-012  0.3000000E+03  0.7818608E-02  0.1093470E+00
          1   -1    0    0  502    0  0.00000000000E+00  0.00000000000E+00  0.23490478651E+03  0.23490478651E+03  0.00000000000E+00 0.  1.
         13   -1    0    0    0    0 -0.00000000000E+00 -0.00000000000E+00 -0.27500000000E+03  0.27500000000E+03  0.00000000000E+00 0.  1.
    9000005    2    1    2  501    0 -0.30235346154E+02  0.38382183045E+01 -0.46097450030E+02  0.47884138489E+03  0.47564187043E+03 0.  0.
         13    1    3    3    0    0  0.12819844037E+03  0.15592518372E+03 -0.13399750473E+03  0.24228667794E+03  0.00000000000E+00 0.  1.
          1    1    3    3  501    0 -0.15843378653E+03 -0.15208696542E+03  0.87900054702E+02  0.23655470695E+03  0.00000000000E+00 0.  1.
         21    1    1    2  502  501  0.30235346154E+02 -0.38382183045E+01  0.60022365415E+01  0.31063401621E+02  0.00000000000E+00 0.  1.
<scales pt_clust_4="550.00000" pt_clust_5="550.00000" pt_clust_6="30.47799"></scales>
<mgrwt>
<rscale>  0 0.30000000E+03</rscale>
<asrwt>  1 0.30477993E+02</asrwt>
<pdfrwt beam="1">  1        1 0.85419922E+00 0.30000000E+03</pdfrwt>
<pdfrwt beam="2">0</pdfrwt>
<totfact> 0.38085718E-04</totfact>
</mgrwt>
<clustering>
<clus scale="   30.478">  1  6  2 -1</clus>
<clus scale="  475.642">  4  5 -1 -1</clus>
<clus scale="  300.000">  1  4  2 -1</clus>
</clustering>
</event>
<event>
 6    1  0.9687246E-012  0.3000000E+03  0.7818608E-02  0.1093470E+00
          1   -1    0    0  502    0  0.00000000000E+00  0.00000000000E+00  0.23531399059E+03  0.23531399059E+03  0.00000000000E+00 0.  1.
         13   -1    0    0    0    0 -0.00000000000E+00 -0.00000000000E+00 -0.27500000000E+03  0.27500000000E+03  0.00000000000E+00 0.  1.
    9000005    2    1    2  501    0 -0.39899517421E+02 -0.24451122680E+02 -0.27444569876E+02  0.46194373390E+03  0.45874718526E+03 0.  0.
         13    1    3    3    0    0 -0.23240626281E+03 -0.52534998588E+02 -0.94271549641E+02  0.25624153087E+03  0.00000000000E+00 0.  1.
          1    1    3    3  501    0  0.19250674539E+03  0.28083875907E+02  0.66826979766E+02  0.20570220303E+03  0.00000000000E+00 0.  1.
         21    1    1    2  502  501  0.39899517421E+02  0.24451122680E+02 -0.12241439534E+02  0.48370256694E+02  0.00000000000E+00 0.  1.
<scales pt_clust_4="550.00000" pt_clust_5="550.00000" pt_clust_6="46.79563"></scales>
<mgrwt>
<rscale>  0 0.30000000E+03</rscale>
<asrwt>  1 0.46795631E+02</asrwt>
<pdfrwt beam="1">  1        1 0.85568724E+00 0.30000000E+03</pdfrwt>
<pdfrwt beam="2">0</pdfrwt>
<totfact> 0.34014731E-04</totfact>
</mgrwt>
<clustering>
<clus scale="   46.796">  1  6  2 -1</clus>
<clus scale="  458.747">  4  5 -1 -1</clus>
<clus scale="  300.000">  1  4  2 -1</clus>
</clustering>
</event>
<event>
 6    1  0.9687246E-012  0.3000000E+03  0.7818608E-02  0.1093470E+00
          1   -1    0    0  502    0  0.00000000000E+00  0.00000000000E+00  0.23387734196E+03  0.23387734196E+03  0.00000000000E+00 0.  1.
         13   -1    0    0    0    0 -0.00000000000E+00 -0.00000000000E+00 -0.27500000000E+03  0.27500000000E+03  0.00000000000E+00 0.  1.
    9000005    2    1    2  501    0  0.94671027401E+01 -0.33642524297E+02 -0.61475357306E+02  0.46843382774E+03  0.46306542296E+03 0.  0.
         13    1    3    3    0    0  0.17603489124E+03  0.84010231714E+02 -0.15005817314E+03  0.24609643901E+03  0.00000000000E+00 0.  1.
          1    1    3    3  501    0 -0.16656778850E+03 -0.11765275601E+03  0.88582815836E+02  0.22233738873E+03  0.00000000000E+00 0.  1.
         21    1    1    2  502  501 -0.94671027401E+01  0.33642524297E+02  0.20352699268E+02  0.40443514225E+02  0.00000000000E+00 0.  1.
<scales pt_clust_4="550.00000" pt_clust_5="550.00000" pt_clust_6="34.94918"></scales>
<mgrwt>
<rscale>  0 0.30000000E+03</rscale>
<asrwt>  1 0.34949184E+02</asrwt>
<pdfrwt beam="1">  1        1 0.85046306E+00 0.30000000E+03</pdfrwt>
<pdfrwt beam="2">0</pdfrwt>
<totfact> 0.40303478E-04</totfact>
</mgrwt>
<clustering>
<clus scale="   34.949">  1  6  2 -1</clus>
<clus scale="  463.065">  4  5 -1 -1</clus>
<clus scale="  300.000">  1  4  2 -1</clus>
</clustering>
</event>
<event>
 6    1  0.9687246E-012  0.3000000E+03  0.7818608E-02  0.1093470E+00
          1   -1    0    0  502    0  0.00000000000E+00  0.00000000000E+00  0.25399953858E+03  0.25399953858E+03  0.00000000000E+00 0.  1.
         13   -1    0    0    0    0 -0.00000000000E+00 -0.00000000000E+00 -0.27500000000E+03  0.27500000000E+03  0.00000000000E+00 0.  1.
    9000005    2    1    2  501    0  0.13706545222E+02  0.43711683046E+02 -0.14444058770E+02  0.48272247047E+03  0.48032673468E+03 0.  0.
         13    1    3    3    0    0 -0.60223512605E+02  0.92096475123E+02  0.21243652846E+03  0.23924445829E+03  0.00000000000E+00 0.  1.
          1    1    3    3  501    0  0.73930057827E+02 -0.48384792077E+02 -0.22688058723E+03  0.24347801218E+03  0.00000000000E+00 0.  1.
         21    1    1    2  502  501 -0.13706545222E+02 -0.43711683046E+02 -0.65564026523E+01  0.46277068105E+02  0.00000000000E+00 0. -1.
<scales pt_clust_4="550.00000" pt_clust_5="550.00000" pt_clust_6="45.81029"></scales>
<mgrwt>
<rscale>  0 0.30000000E+03</rscale>
<asrwt>  1 0.45810290E+02</asrwt>
<pdfrwt beam="1">  1        1 0.92363469E+00 0.30000000E+03</pdfrwt>
<pdfrwt beam="2">0</pdfrwt>
<totfact> 0.33322326E-05</totfact>
</mgrwt>
<clustering>
<clus scale="   45.810">  1  6  2 -1</clus>
<clus scale="  480.327">  4  5 -1 -1</clus>
<clus scale="  300.000">  1  4  2 -1</clus>
</clustering>
</event>
<event>
 6    1  0.9687246E-012  0.3000000E+03  0.7818608E-02  0.1093470E+00
          1   -1    0    0  502    0  0.00000000000E+00  0.00000000000E+00  0.23149221058E+03  0.23149221058E+03  0.00000000000E+00 0.  1.
         13   -1    0    0    0    0 -0.00000000000E+00 -0.00000000000E+00 -0.27500000000E+03  0.27500000000E+03  0.00000000000E+00 0.  1.
    9000005    2    1    2  501    0 -0.23258677267E+02 -0.22748485903E+02 -0.65140165712E+02  0.46742279309E+03  0.46171676018E+03 0.  0.
         13    1    3    3    0    0 -0.20606836373E+03 -0.12634066678E+03  0.15849065497E+02  0.24223403454E+03  0.00000000000E+00 0.  1.
          1    1    3    3  501    0  0.18280968646E+03  0.10359218088E+03 -0.80989231209E+02  0.22518875855E+03  0.00000000000E+00 0.  1.
         21    1    1    2  502  501  0.23258677267E+02  0.22748485903E+02  0.21632376296E+02  0.39069417494E+02  0.00000000000E+00 0.  1.
<scales pt_clust_4="550.00000" pt_clust_5="550.00000" pt_clust_6="32.53398"></scales>
<mgrwt>
<rscale>  0 0.30000000E+03</rscale>
<asrwt>  1 0.32533977E+02</asrwt>
<pdfrwt beam="1">  1        1 0.84178986E+00 0.30000000E+03</pdfrwt>
<pdfrwt beam="2">0</pdfrwt>
<totfact> 0.48774419E-04</totfact>
</mgrwt>
<clustering>
<clus scale="   32.534">  1  6  2 -1</clus>
<clus scale="  461.717">  4  5 -1 -1</clus>
<clus scale="  300.000">  1  4  2 -1</clus>
</clustering>
</event>
<event>
 6    1  0.9687246E-012  0.3000000E+03  0.7818608E-02  0.1093470E+00
          1   -1    0    0  502    0  0.00000000000E+00  0.00000000000E+00  0.21909541712E+03  0.21909541712E+03  0.00000000000E+00 0.  1.
         13   -1    0    0    0    0 -0.00000000000E+00 -0.00000000000E+00 -0.27500000000E+03  0.27500000000E+03  0.00000000000E+00 0.  1.
    9000005    2    1    2  501    0  0.53732377121E+01  0.29552574323E+02 -0.62834708841E+02  0.46326924353E+03  0.45800432862E+03 0.  0.
         13    1    3    3    0    0  0.13840642101E+03  0.40532061130E+02  0.15251460524E+03  0.20990447868E+03  0.00000000000E+00 0.  1.
          3    1    3    3  501    0 -0.13303318330E+03 -0.10979486808E+02 -0.21534931408E+03  0.25336476485E+03  0.00000000000E+00 0.  1.
         21    1    1    2  502  501 -0.53732377121E+01 -0.29552574323E+02  0.69301259640E+01  0.30826173595E+02  0.00000000000E+00 0. -1.
<scales pt_clust_4="550.00000" pt_clust_5="550.00000" pt_clust_6="30.03708"></scales>
<mgrwt>
<rscale>  0 0.30000000E+03</rscale>
<asrwt>  1 0.30037083E+02</asrwt>
<pdfrwt beam="1">  1        1 0.79671061E+00 0.30000000E+03</pdfrwt>
<pdfrwt beam="2">0</pdfrwt>
<totfact> 0.11279467E-03</totfact>
</mgrwt>
<clustering>
<clus scale="   30.037">  1  6  2 -1</clus>
<clus scale="  458.004">  4  5 -1 -1</clus>
<clus scale="  300.000">  1  4  2 -1</clus>
</clustering>
</event>
<event>
 6    1  0.9687246E-012  0.3000000E+03  0.7818608E-02  0.1093470E+00
          1   -1    0    0  502    0  0.00000000000E+00  0.00000000000E+00  0.21909065879E+03  0.21909065879E+03  0.00000000000E+00 0.  1.
         13   -1    0    0    0    0 -0.00000000000E+00 -0.00000000000E+00 -0.27500000000E+03  0.27500000000E+03  0.00000000000E+00 0.  1.
    9000005    2    1    2  501    0  0.32137906884E+02  0.28226994262E+01 -0.44302033361E+02  0.45980447664E+03  0.45652675046E+03 0.  0.
         13    1    3    3    0    0 -0.15055933018E+03 -0.14254349054E+03  0.40793040732E+02  0.21130743189E+03  0.00000000000E+00 0.  1.
          1    1    3    3  501    0  0.18269723707E+03  0.14536618996E+03 -0.85095074094E+02  0.24849704475E+03  0.00000000000E+00 0.  1.
         21    1    1    2  502  501 -0.32137906884E+02 -0.28226994262E+01 -0.11607307847E+02  0.34286182150E+02  0.00000000000E+00 0. -1.
<scales pt_clust_4="550.00000" pt_clust_5="550.00000" pt_clust_6="32.26164"></scales>
<mgrwt>
<rscale>  0 0.30000000E+03</rscale>
<asrwt>  1 0.32261645E+02</asrwt>
<pdfrwt beam="1">  1        1 0.79669330E+00 0.30000000E+03</pdfrwt>
<pdfrwt beam="2">0</pdfrwt>
<totfact> 0.11129633E-03</totfact>
</mgrwt>
<clustering>
<clus scale="   32.262">  1  6  2 -1</clus>
<clus scale="  456.527">  4  5 -1 -1</clus>
<clus scale="  300.000">  1  4  2 -1</clus>
</clustering>
</event>
<event>
 6    1  0.9687246E-012  0.3000000E+03  0.7818608E-02  0.1093470E+00
          1   -1    0    0  502    0  0.00000000000E+00  0.00000000000E+00  0.25144752673E+03  0.25144752673E+03  0.00000000000E+00 0.  1.
         13   -1    0    0    0    0 -0.00000000000E+00 -0.00000000000E+00 -0.27500000000E+03  0.27500000000E+03  0.00000000000E+00 0.  1.
    9000005    2    1    2  501    0  0.12112371416E+02 -0.29165623735E+02 -0.52404507226E+02  0.48367156371E+03  0.47978600023E+03 0.  0.
         13    1    3    3    0    0 -0.16571569931E+02  0.18545510883E+03  0.10704195038E+03  0.21477009443E+03  0.00000000000E+00 0.  1.
          3    1    3    3  501    0  0.28683941347E+02 -0.21462073256E+03 -0.15944645761E+03  0.26890146928E+03  0.00000000000E+00 0.  1.
         21    1    1    2  502  501 -0.12112371416E+02  0.29165623735E+02  0.28852033961E+02  0.42775963026E+02  0.00000000000E+00 0.  1.
<scales pt_clust_4="550.00000" pt_clust_5="550.00000" pt_clust_6="31.58074"></scales>
<mgrwt>
<rscale>  0 0.30000000E+03</rscale>
<asrwt>  1 0.31580740E+02</asrwt>
<pdfrwt beam="1">  1        1 0.91435464E+00 0.30000000E+03</pdfrwt>
<pdfrwt beam="2">0</pdfrwt>
<totfact> 0.57172033E-05</totfact>
</mgrwt>
<clustering>
<clus scale="   31.581">  1  6  2 -1</clus>
<clus scale="  479.786">  4  5 -1 -1</clus>
<clus scale="  300.000">  1  4  2 -1</clus>
</clustering>
</event>
<event>
 6    1  0.9687246E-012  0.3000000E+03  0.7818608E-02  0.1093470E+00
          1   -1    0    0  502    0  0.00000000000E+00  0.00000000000E+00  0.23589755889E+03  0.23589755889E+03  0.00000000000E+00 0.  1.
         13   -1    0    0    0    0 -0.00000000000E+00 -0.00000000000E+00 -0.27500000000E+03  0.27500000000E+03  0.00000000000E+00 0.  1.
    9000005    2    1    2  501    0 -0.67389513843E+01  0.38184295364E+02 -0.59746962856E+02  0.46696977547E+03  0.46150581551E+03 0.  0.
         13    1    3    3    0    0  0.15307470137E+03 -0.14370700300E+03  0.22717284461E+02  0.21118627305E+03  0.00000000000E+00 0.  1.
          3    1    3    3  501    0 -0.15981365275E+03  0.18189129836E+03 -0.82464247317E+02  0.25578350242E+03  0.00000000000E+00 0.  1.
         21    1    1    2  502  501  0.67389513843E+01 -0.38184295364E+02  0.20644521745E+02  0.43927783421E+02  0.00000000000E+00 0. -1.
<scales pt_clust_4="550.00000" pt_clust_5="550.00000" pt_clust_6="38.77440"></scales>
<mgrwt>
<rscale>  0 0.30000000E+03</rscale>
<asrwt>  1 0.38774397E+02</asrwt>
<pdfrwt beam="1">  1        1 0.85780931E+00 0.30000000E+03</pdfrwt>
<pdfrwt beam="2">0</pdfrwt>
<totfact> 0.33472309E-04</totfact>
</mgrwt>
<clustering>
<clus scale="   38.774">  1  6  2 -1</clus>
<clus scale="  461.506">  4  5 -1 -1</clus>
<clus scale="  300.000">  1  4  2 -1</clus>
</clustering>
</event>
<event>
 6    1  0.9687246E-012  0.3000000E+03  0.7818608E-02  0.1093470E+00
          1   -1    0    0  502    0  0.00000000000E+00  0.00000000000E+00  0.22388991747E+03  0.22388991747E+03  0.00000000000E+00 0.  1.
         13   -1    0    0    0    0 -0.00000000000E+00 -0.00000000000E+00 -0.27500000000E+03  0.27500000000E+03  0.00000000000E+00 0.  1.
    9000005    2    1    2  501    0 -0.31562001040E+02 -0.59950731981E+01 -0.68588921632E+02  0.46231655792E+03  0.45607023444E+03 0.  0.
         13    1    3    3    0    0  0.13941080376E+03 -0.16611290960E+03  0.45888058841E+01  0.21690995385E+03  0.00000000000E+00 0.  1.
          1    1    3    3  501    0 -0.17097280480E+03  0.16011783641E+03 -0.73177727516E+02  0.24540660407E+03  0.00000000000E+00 0.  1.
         21    1    1    2  502  501  0.31562001040E+02  0.59950731981E+01  0.17478839100E+02  0.36573359547E+02  0.00000000000E+00 0.  1.
<scales pt_clust_4="550.00000" pt_clust_5="550.00000" pt_clust_6="32.12633"></scales>
<mgrwt>
<rscale>  0 0.30000000E+03</rscale>
<asrwt>  1 0.32126326E+02</asrwt>
<pdfrwt beam="1">  1        1 0.81414515E+00 0.30000000E+03</pdfrwt>
<pdfrwt beam="2">0</pdfrwt>
<totfact> 0.82193055E-04</totfact>
</mgrwt>
<clustering>
<clus scale="   32.126">  1  6  2 -1</clus>
<clus scale="  456.070">  4  5 -1 -1</clus>
<clus scale="  300.000">  1  4  2 -1</clus>
</clustering>
</event>
<event>
 6    1  0.9687246E-012  0.3000000E+03  0.7818608E-02  0.1093470E+00
          1   -1    0    0  502    0  0.00000000000E+00  0.00000000000E+00  0.24129977405E+03  0.24129977405E+03  0.00000000000E+00 0.  1.
         13   -1    0    0    0    0 -0.00000000000E+00 -0.00000000000E+00 -0.27500000000E+03  0.27500000000E+03  0.00000000000E+00 0.  1.
    9000005    2    1    2  501    0 -0.22276786069E+02 -0.22914725154E+02 -0.58294700558E+02  0.47597325662E+03  0.47130767985E+03 0.  0.
         13    1    3    3    0    0  0.16651713019E+03 -0.12371514830E+03  0.78691522330E+02  0.22186876358E+03  0.00000000000E+00 0.  1.
          3    1    3    3  501    0 -0.18879391626E+03  0.10080042314E+03 -0.13698622289E+03  0.25410449304E+03  0.00000000000E+00 0.  1.
         21    1    1    2  502  501  0.22276786069E+02  0.22914725154E+02  0.24594474606E+02  0.40326517424E+02  0.00000000000E+00 0. -1.
<scales pt_clust_4="550.00000" pt_clust_5="550.00000" pt_clust_6="31.95841"></scales>
<mgrwt>
<rscale>  0 0.30000000E+03</rscale>
<asrwt>  1 0.31958408E+02</asrwt>
<pdfrwt beam="1">  1        1 0.87745372E+00 0.30000000E+03</pdfrwt>
<pdfrwt beam="2">0</pdfrwt>
<totfact> 0.21516268E-04</totfact>
</mgrwt>
<clustering>
<clus scale="   31.958">  1  6  2 -1</clus>
<clus scale="  471.308">  4  5 -1 -1</clus>
<clus scale="  300.000">  1  4  2 -1</clus>
</clustering>
</event>
<event>
 6    1  0.9687246E-012  0.3000000E+03  0.7818608E-02  0.1093470E+00
          1   -1    0    0  502    0  0.00000000000E+00  0.00000000000E+00  0.22255025223E+03  0.22255025223E+03  0.00000000000E+00 0.  1.
         13   -1    0    0    0    0 -0.00000000000E+00 -0.00000000000E+00 -0.27500000000E+03  0.27500000000E+03  0.00000000000E+00 0.  1.
    9000005    2    1    2  501    0  0.16550433223E+02  0.30674420018E+02 -0.61268213288E+02  0.46159747463E+03  0.45618373244E+03 0.  0.
         13    1    3    3    0    0  0.63094249300E+02 -0.15918485934E+03 -0.16714363292E+03  0.23928580769E+03  0.00000000000E+00 0.  1.
          3    1    3    3  501    0 -0.46543816078E+02  0.18985927935E+03  0.10587541964E+03  0.22231166693E+03  0.00000000000E+00 0.  1.
         21    1    1    2  502  501 -0.16550433223E+02 -0.30674420018E+02  0.88184655188E+01  0.35952777603E+02  0.00000000000E+00 0. -1.
<scales pt_clust_4="550.00000" pt_clust_5="550.00000" pt_clust_6="34.85451"></scales>
<mgrwt>
<rscale>  0 0.30000000E+03</rscale>
<asrwt>  1 0.34854510E+02</asrwt>
<pdfrwt beam="1">  1        1 0.80927364E+00 0.30000000E+03</pdfrwt>
<pdfrwt beam="2">0</pdfrwt>
<totfact> 0.88425998E-04</totfact>
</mgrwt>
<clustering>
<clus scale="   34.855">  1  6  2 -1</clus>
<clus scale="  456.184">  4  5 -1 -1</clus>
<clus scale="  300.000">  1  4  2 -1</clus>
</clustering>
</event>
<event>
 6    1  0.9687246E-012  0.3000000E+03  0.7818608E-02  0.1093470E+00
          1   -1    0    0  502    0  0.00000000000E+00  0.00000000000E+00  0.23583663119E+03  0.23583663119E+03  0.00000000000E+00 0.  1.
         13   -1    0    0    0    0 -0.00000000000E+00 -0.00000000000E+00 -0.27500000000E+03  0.27500000000E+03  0.00000000000E+00 0.  1.
    9000005    2    1    2  501    0 -0.31858753774E+02 -0.29629916718E+02 -0.40825740631E+02  0.46729727386E+03  0.46347285670E+03 0.  0.
         13    1    3    3    0    0 -0.18958312648E+03 -0.48174736021E+02 -0.17264982016E+03  0.26090329135E+03  0.00000000000E+00 0.  1.
          1    1    3    3  501    0  0.15772437271E+03  0.18544819303E+02  0.13182407953E+03  0.20639398250E+03  0.00000000000E+00 0.  1.
         21    1    1    2  502  501  0.31858753774E+02  0.29629916718E+02  0.16623718196E+01  0.43539357331E+02  0.00000000000E+00 0.  1.
<scales pt_clust_4="550.00000" pt_clust_5="550.00000" pt_clust_6="43.50761"></scales>
<mgrwt>
<rscale>  0 0.30000000E+03</rscale>
<asrwt>  1 0.43507610E+02</asrwt>
<pdfrwt beam="1">  1        1 0.85758775E+00 0.30000000E+03</pdfrwt>
<pdfrwt beam="2">0</pdfrwt>
<totfact> 0.32953728E-04</totfact>
</mgrwt>
<clustering>
<clus scale="   43.508">  1  6  2 -1</clus>
<clus scale="  463.473">  4  5 -1 -1</clus>
<clus scale="  300.000">  1  4  2 -1</clus>
</clustering>
</event>
<event>
 6    1  0.9687246E-012  0.3000000E+03  0.7818608E-02  0.1093470E+00
          1   -1    0    0  502    0  0.00000000000E+00  0.00000000000E+00  0.25960120354E+03  0.25960120354E+03  0.00000000000E+00 0.  1.
         13   -1    0    0    0    0 -0.00000000000E+00 -0.00000000000E+00 -0.27500000000E+03  0.27500000000E+03  0.00000000000E+00 0.  1.
    9000005    2    1    2  501    0 -0.30005041035E+01 -0.36791884190E+02 -0.39396071216E+02  0.49057263369E+03  0.48759287601E+03 0.  0.
         13    1    3    3    0    0  0.20329290331E+03 -0.14079581301E+03  0.30599620943E+02  0.24917424084E+03  0.00000000000E+00 0.  1.
          1    1    3    3  501    0 -0.20629340741E+03  0.10400392882E+03 -0.69995692159E+02  0.24139839285E+03  0.00000000000E+00 0.  1.
         21    1    1    2  502  501  0.30005041035E+01  0.36791884190E+02  0.23997274757E+02  0.44028569849E+02  0.00000000000E+00 0.  1.
<scales pt_clust_4="550.00000" pt_clust_5="550.00000" pt_clust_6="36.91403"></scales>
<mgrwt>
<rscale>  0 0.30000000E+03</rscale>
<asrwt>  1 0.36914032E+02</asrwt>
<pdfrwt beam="1">  1        1 0.94400438E+00 0.30000000E+03</pdfrwt>
<pdfrwt beam="2">0</pdfrwt>
<totfact> 0.16083082E-05</totfact>
</mgrwt>
<clustering>
<clus scale="   36.914">  1  6  2 -1</clus>
<clus scale="  487.593">  4  5 -1 -1</clus>
<clus scale="  300.000">  1  4  2 -1</clus>
</clustering>
</event>
<event>
 6    1  0.9687246E-012  0.3000000E+03  0.7818608E-02  0.1093470E+00
          1   -1    0    0  502    0  0.00000000000E+00  0.00000000000E+00  0.25127248741E+03  0.25127248741E+03  0.00000000000E+00 0.  1.
         13   -1    0    0    0    0 -0.00000000000E+00 -0.00000000000E+00 -0.27500000000E+03  0.27500000000E+03  0.00000000000E+00 0.  1.
    9000005    2    1    2  501    0 -0.26619417073E+02  0.16024008478E+02 -0.34474381688E+02  0.49339609149E+03  0.49120856863E+03 0.  0.
         13    1    3    3    0    0 -0.19333572005E+03 -0.15767718167E+03  0.43765446363E+01  0.24951943493E+03  0.00000000000E+00 0.  1.
          3    1    3    3  501    0  0.16671630298E+03  0.17370119015E+03 -0.38850926324E+02  0.24387665656E+03  0.00000000000E+00 0.  1.
         21    1    1    2  502  501  0.26619417073E+02 -0.16024008478E+02  0.10746869096E+02  0.32876395915E+02  0.00000000000E+00 0. -1.
<scales pt_clust_4="550.00000" pt_clust_5="550.00000" pt_clust_6="31.07028"></scales>
<mgrwt>
<rscale>  0 0.30000000E+03</rscale>
<asrwt>  1 0.31070279E+02</asrwt>
<pdfrwt beam="1">  1        1 0.91371814E+00 0.30000000E+03</pdfrwt>
<pdfrwt beam="2">0</pdfrwt>
<totfact> 0.59422287E-05</totfact>
</mgrwt>
<clustering>
<clus scale="   31.070">  1  6  2 -1</clus>
<clus scale="  491.209">  4  5 -1 -1</clus>
<clus scale="  300.000">  1  4  2 -1</clus>
</clustering>
</event>
<event>
 6    1  0.9687246E-012  0.3000000E+03  0.7818608E-02  0.1093470E+00
          1   -1    0    0  502    0  0.00000000000E+00  0.00000000000E+00  0.24501603596E+03  0.24501603596E+03  0.00000000000E+00 0.  1.
         13   -1    0    0    0    0 -0.00000000000E+00 -0.00000000000E+00 -0.27500000000E+03  0.27500000000E+03  0.00000000000E+00 0.  1.
    9000005    2    1    2  501    0  0.45582626577E+02 -0.21325337443E+02 -0.14193603186E+02  0.46727249268E+03  0.46433778457E+03 0.  0.
         13    1    3    3    0    0  0.12150522744E+03  0.19934179537E+03  0.39425483798E+00  0.23345412208E+03  0.00000000000E+00 0.  1.
          3    1    3    3  501    0 -0.75922600862E+02 -0.22066713282E+03 -0.14587858024E+02  0.23381837060E+03  0.00000000000E+00 0.  1.
         21    1    1    2  502  501 -0.45582626577E+02  0.21325337443E+02 -0.15790360852E+02  0.52743543287E+02  0.00000000000E+00 0.  1.
<scales pt_clust_4="550.00000" pt_clust_5="550.00000" pt_clust_6="50.32443"></scales>
<mgrwt>
<rscale>  0 0.30000000E+03</rscale>
<asrwt>  1 0.50324431E+02</asrwt>
<pdfrwt beam="1">  1        1 0.89096740E+00 0.30000000E+03</pdfrwt>
<pdfrwt beam="2">0</pdfrwt>
<totfact> 0.13183248E-04</totfact>
</mgrwt>
<clustering>
<clus scale="   50.324">  1  6  2 -1</clus>
<clus scale="  464.338">  4  5 -1 -1</clus>
<clus scale="  300.000">  1  4  2 -1</clus>
</clustering>
</event>
<event>
 6    1  0.9687246E-012  0.3000000E+03  0.7818608E-02  0.1093470E+00
          1   -1    0    0  502    0  0.00000000000E+00  0.00000000000E+00  0.24037041604E+03  0.24037041604E+03  0.00000000000E+00 0.  1.
         13   -1    0    0    0    0 -0.00000000000E+00 -0.00000000000E+00 -0.27500000000E+03  0.27500000000E+03  0.00000000000E+00 0.  1.
    9000005    2    1    2  501    0  0.29029020585E+02 -0.32644564808E+02 -0.50824969776E+02  0.46878026505E+03  0.46396487765E+03 0.  0.
         13    1    3    3    0    0  0.11299906475E+03  0.51013163393E+02 -0.22570567046E+03  0.25751539983E+03  0.00000000000E+00 0.  1.
          1    1    3    3  501    0 -0.83970044162E+02 -0.83657728201E+02  0.17488070068E+03  0.21126486522E+03  0.00000000000E+00 0.  1.
         21    1    1    2  502  501 -0.29029020585E+02  0.32644564808E+02  0.16195385813E+02  0.46590150990E+02  0.00000000000E+00 0. -1.
<scales pt_clust_4="550.00000" pt_clust_5="550.00000" pt_clust_6="43.68468"></scales>
<mgrwt>
<rscale>  0 0.30000000E+03</rscale>
<asrwt>  1 0.43684684E+02</asrwt>
<pdfrwt beam="1">  1        1 0.87407424E+00 0.30000000E+03</pdfrwt>
<pdfrwt beam="2">0</pdfrwt>
<totfact> 0.22085995E-04</totfact>
</mgrwt>
<clustering>
<clus scale="   43.685">  1  6  2 -1</clus>
<clus scale="  463.965">  4  5 -1 -1</clus>
<clus scale="  300.000">  1  4  2 -1</clus>
</clustering>
</event>
<event>
 6    1  0.9687246E-012  0.3000000E+03  0.7818608E-02  0.1093470E+00
          1   -1    0    0  502    0  0.00000000000E+00  0.00000000000E+00  0.25524816593E+03  0.25524816593E+03  0.00000000000E+00 0.  1.
         13   -1    0    0    0    0 -0.00000000000E+00 -0.00000000000E+00 -0.27500000000E+03  0.27500000000E+03  0.00000000000E+00 0.  1.
    9000005    2    1    2  501    0 -0.59722261343E+02  0.11084977606E+02 -0.44039738441E+02  0.46483006807E+03  0.45873507430E+03 0.  0.
         13    1    3    3    0    0 -0.71128666946E+02  0.20553715223E+03 -0.12838992876E+03  0.25256441162E+03  0.00000000000E+00 0.  1.
          1    1    3    3  501    0  0.11406405603E+02 -0.19445217462E+03  0.84350190317E+02  0.21226565646E+03  0.00000000000E+00 0.  1.
         21    1    1    2  502  501  0.59722261343E+02 -0.11084977606E+02  0.24287904369E+02  0.65418097856E+02  0.00000000000E+00 0. -1.
<scales pt_clust_4="550.00000" pt_clust_5="550.00000" pt_clust_6="60.74229"></scales>
<mgrwt>
<rscale>  0 0.30000000E+03</rscale>
<asrwt>  1 0.60742285E+02</asrwt>
<pdfrwt beam="1">  1        1 0.92817515E+00 0.30000000E+03</pdfrwt>
<pdfrwt beam="2">0</pdfrwt>
<totfact> 0.25631087E-05</totfact>
</mgrwt>
<clustering>
<clus scale="   60.742">  1  6  2 -1</clus>
<clus scale="  458.735">  4  5 -1 -1</clus>
<clus scale="  300.000">  1  4  2 -1</clus>
</clustering>
</event>
<event>
 6    1  0.9687246E-012  0.3000000E+03  0.7818608E-02  0.1093470E+00
          1   -1    0    0  502    0  0.00000000000E+00  0.00000000000E+00  0.23595242323E+03  0.23595242323E+03  0.00000000000E+00 0.  1.
         13   -1    0    0    0    0 -0.00000000000E+00 -0.00000000000E+00 -0.27500000000E+03  0.27500000000E+03  0.00000000000E+00 0.  1.
    9000005    2    1    2  501    0  0.32544389184E+02 -0.14398962610E+02 -0.62596871209E+02  0.46827881710E+03  0.46270964423E+03 0.  0.
         13    1    3    3    0    0  0.17467414288E+03 -0.57914085092E+02  0.12976748138E+03  0.22517703406E+03  0.00000000000E+00 0.  1.
          3    1    3    3  501    0 -0.14212975369E+03  0.43515122482E+02 -0.19236435259E+03  0.24310178304E+03  0.00000000000E+00 0.  1.
         21    1    1    2  502  501 -0.32544389184E+02  0.14398962610E+02  0.23549294435E+02  0.42673606128E+02  0.00000000000E+00 0.  1.
<scales pt_clust_4="550.00000" pt_clust_5="550.00000" pt_clust_6="35.58746"></scales>
<mgrwt>
<rscale>  0 0.30000000E+03</rscale>
<asrwt>  1 0.35587461E+02</asrwt>
<pdfrwt beam="1">  1        1 0.85800881E+00 0.30000000E+03</pdfrwt>
<pdfrwt beam="2">0</pdfrwt>
<totfact> 0.33845369E-04</totfact>
</mgrwt>
<clustering>
<clus scale="   35.587">  1  6  2 -1</clus>
<clus scale="  462.710">  4  5 -1 -1</clus>
<clus scale="  300.000">  1  4  2 -1</clus>
</clustering>
</event>
<event>
 6    1  0.9687246E-012  0.3000000E+03  0.7818608E-02  0.1093470E+00
          1   -1    0    0  502    0  0.00000000000E+00  0.00000000000E+00  0.22757389367E+03  0.22757389367E+03  0.00000000000E+00 0.  1.
         13   -1    0    0    0    0 -0.00000000000E+00 -0.00000000000E+00 -0.27500000000E+03  0.27500000000E+03  0.00000000000E+00 0.  1.
    9000005    2    1    2  501    0  0.34564131054E+02 -0.19278642647E+02 -0.42174974583E+02  0.46264997099E+03  0.45902061169E+03 0.  0.
         13    1    3    3    0    0  0.22057801710E+02 -0.23469597423E+03 -0.67969446328E+02  0.24533363522E+03  0.00000000000E+00 0.  1.
          1    1    3    3  501    0  0.12506329344E+02  0.21541733158E+03  0.25794471745E+02  0.21731633577E+03  0.00000000000E+00 0.  1.
         21    1    1    2  502  501 -0.34564131054E+02  0.19278642647E+02 -0.52511317477E+01  0.39923922684E+02  0.00000000000E+00 0.  1.
<scales pt_clust_4="550.00000" pt_clust_5="550.00000" pt_clust_6="39.57710"></scales>
<mgrwt>
<rscale>  0 0.30000000E+03</rscale>
<asrwt>  1 0.39577099E+02</asrwt>
<pdfrwt beam="1">  1        1 0.82754143E+00 0.30000000E+03</pdfrwt>
<pdfrwt beam="2">0</pdfrwt>
<totfact> 0.60627520E-04</totfact>
</mgrwt>
<clustering>
<clus scale="   39.577">  1  6  2 -1</clus>
<clus scale="  459.021">  4  5 -1 -1</clus>
<clus scale="  300.000">  1  4  2 -1</clus>
</clustering>
</event>
<event>
 6    1  0.9687246E-012  0.3000000E+03  0.7818608E-02  0.1093470E+00
          1   -1    0    0  502    0  0.00000000000E+00  0.00000000000E+00  0.24106368747E+03  0.24106368747E+03  0.00000000000E+00 0.  1.
         13   -1    0    0    0    0 -0.00000000000E+00 -0.00000000000E+00 -0.27500000000E+03  0.27500000000E+03  0.00000000000E+00 0.  1.
    9000005    2    1    2  501    0 -0.15068948444E+02 -0.32438366978E+02 -0.64074776507E+02  0.46929138936E+03  0.46351861914E+03 0.  0.
         13    1    3    3    0    0 -0.23622305355E+03 -0.19456042389E+02 -0.71684829207E+02  0.24762589394E+03  0.00000000000E+00 0.  1.
          1    1    3    3  501    0  0.22115410511E+03 -0.12982324589E+02  0.76100527004E+01  0.22166549542E+03  0.00000000000E+00 0.  1.
         21    1    1    2  502  501  0.15068948444E+02  0.32438366978E+02  0.30138463978E+02  0.46772298108E+02  0.00000000000E+00 0.  1.
<scales pt_clust_4="550.00000" pt_clust_5="550.00000" pt_clust_6="35.76760"></scales>
<mgrwt>
<rscale>  0 0.30000000E+03</rscale>
<asrwt>  1 0.35767595E+02</asrwt>
<pdfrwt beam="1">  1        1 0.87659523E+00 0.30000000E+03</pdfrwt>
<pdfrwt beam="2">0</pdfrwt>
<totfact> 0.21533168E-04</totfact>
</mgrwt>
<clustering>
<clus scale="   35.768">  1  6  2 -1</clus>
<clus scale="  463.519">  4  5 -1 -1</clus>
<clus scale="  300.000">  1  4  2 -1</clus>
</clustering>
</event>
<event>
 6    1  0.9687246E-012  0.3000000E+03  0.7818608E-02  0.1093470E+00
          1   -1    0    0  502    0  0.00000000000E+00  0.00000000000E+00  0.25718771520E+03  0.25718771520E+03  0.00000000000E+00 0.  1.
         13   -1    0    0    0    0 -0.00000000000E+00 -0.00000000000E+00 -0.27500000000E+03  0.27500000000E+03  0.00000000000E+00 0.  1.
    9000005    2    1    2  501    0  0.16813616886E+02  0.31454408994E+02 -0.60524832348E+02  0.47654205700E+03  0.47133533626E+03 0.  0.
         13    1    3    3    0    0  0.29533695501E+02  0.17842172961E+02 -0.26700389866E+03  0.26922418948E+03  0.00000000000E+00 0.  1.
          1    1    3    3  501    0 -0.12720078615E+02  0.13612236033E+02  0.20647906631E+03  0.20731786752E+03  0.00000000000E+00 0.  1.
         21    1    1    2  502  501 -0.16813616886E+02 -0.31454408994E+02  0.42712547546E+02  0.55645658194E+02  0.00000000000E+00 0.  1.
<scales pt_clust_4="550.00000" pt_clust_5="550.00000" pt_clust_6="35.66620"></scales>
<mgrwt>
<rscale>  0 0.30000000E+03</rscale>
<asrwt>  1 0.35666196E+02</asrwt>
<pdfrwt beam="1">  1        1 0.93522806E+00 0.30000000E+03</pdfrwt>
<pdfrwt beam="2">0</pdfrwt>
<totfact> 0.22303205E-05</totfact>
</mgrwt>
<clustering>
<clus scale="   35.666">  1  6  2 -1</clus>
<clus scale="  471.335">  4  5 -1 -1</clus>
<clus scale="  300.000">  1  4  2 -1</clus>
</clustering>
</event>
<event>
 6    1  0.9687246E-012  0.3000000E+03  0.7818608E-02  0.1093470E+00
          1   -1    0    0  502    0  0.00000000000E+00  0.00000000000E+00  0.23982547038E+03  0.23982547038E+03  0.00000000000E+00 0.  1.
         13   -1    0    0    0    0 -0.00000000000E+00 -0.00000000000E+00 -0.27500000000E+03  0.27500000000E+03  0.00000000000E+00 0.  1.
    9000005    2    1    2  501    0  0.75516205634E+00  0.37185360565E+02 -0.63273889991E+02  0.46821114465E+03  0.46242271734E+03 0.  0.
         13    1    3    3    0    0  0.22484107004E+03  0.57319589354E+02 -0.72317406946E+02  0.24304083905E+03  0.00000000000E+00 0.  1.
          3    1    3    3  501    0 -0.22408590798E+03 -0.20134228789E+02  0.90435169551E+01  0.22517030560E+03  0.00000000000E+00 0.  1.
         21    1    1    2  502  501 -0.75516205634E+00 -0.37185360565E+02  0.28099360371E+02  0.46614325731E+02  0.00000000000E+00 0. -1.
<scales pt_clust_4="550.00000" pt_clust_5="550.00000" pt_clust_6="37.19303"></scales>
<mgrwt>
<rscale>  0 0.30000000E+03</rscale>
<asrwt>  1 0.37193028E+02</asrwt>
<pdfrwt beam="1">  1        1 0.87209262E+00 0.30000000E+03</pdfrwt>
<pdfrwt beam="2">0</pdfrwt>
<totfact> 0.23838105E-04</totfact>
</mgrwt>
<clustering>
<clus scale="   37.193">  1  6  2 -1</clus>
<clus scale="  462.423">  4  5 -1 -1</clus>
<clus scale="  300.000">  1  4  2 -1</clus>
</clustering>
</event>
<event>
 6    1  0.9687246E-012  0.3000000E+03  0.7818608E-02  0.1093470E+00
          1   -1    0    0  502    0  0.00000000000E+00  0.00000000000E+00  0.26255863291E+03  0.26255863291E+03  0.00000000000E+00 0.  1.
         13   -1    0    0    0    0 -0.00000000000E+00 -0.00000000000E+00 -0.27500000000E+03  0.27500000000E+03  0.00000000000E+00 0.  1.
    9000005    2    1    2  501    0 -0.32737586946E+02 -0.13138170223E+02 -0.32464059398E+02  0.49699671329E+03  0.49467914526E+03 0.  0.
         13    1    3    3    0    0  0.54021566127E+02 -0.16709846484E+03  0.15867378649E+03  0.23668036902E+03  0.00000000000E+00 0.  1.
          1    1    3    3  501    0 -0.86759153073E+02  0.15396029462E+03 -0.19113784589E+03  0.26031634427E+03  0.00000000000E+00 0.  1.
         21    1    1    2  502  501  0.32737586946E+02  0.13138170223E+02  0.20022692304E+02  0.40561919616E+02  0.00000000000E+00 0. -1.
<scales pt_clust_4="550.00000" pt_clust_5="550.00000" pt_clust_6="35.27550"></scales>
<mgrwt>
<rscale>  0 0.30000000E+03</rscale>
<asrwt>  1 0.35275503E+02</asrwt>
<pdfrwt beam="1">  1        1 0.95475867E+00 0.30000000E+03</pdfrwt>
<pdfrwt beam="2">0</pdfrwt>
<totfact> 0.98079674E-06</totfact>
</mgrwt>
<clustering>
<clus scale="   35.276">  1  6  2 -1</clus>
<clus scale="  494.679">  4  5 -1 -1</clus>
<clus scale="  300.000">  1  4  2 -1</clus>
</clustering>
</event>
<event>
 6    1  0.9687246E-012  0.3000000E+03  0.7818608E-02  0.1093470E+00
          1   -1    0    0  502    0  0.00000000000E+00  0.00000000000E+00  0.22999432145E+03  0.22999432145E+03  0.00000000000E+00 0.  1.
         13   -1    0    0    0    0 -0.00000000000E+00 -0.00000000000E+00 -0.27500000000E+03  0.27500000000E+03  0.00000000000E+00 0.  1.
    9000005    2    1    2  501    0 -0.34367388021E+02  0.60086226470E+00 -0.68295184803E+02  0.46347469361E+03  0.45712479801E+03 0.  0.
         13    1    3    3    0    0  0.15508879230E+03 -0.14868403198E+03 -0.55655583332E+02  0.22193922326E+03  0.00000000000E+00 0.  1.
          3    1    3    3  501    0 -0.18945618032E+03  0.14928489425E+03 -0.12639601470E+02  0.24153547035E+03  0.00000000000E+00 0.  1.
         21    1    1    2  502  501  0.34367388021E+02 -0.60086226470E+00  0.23289506254E+02  0.41519627845E+02  0.00000000000E+00 0.  1.
<scales pt_clust_4="550.00000" pt_clust_5="550.00000" pt_clust_6="34.37264"></scales>
<mgrwt>
<rscale>  0 0.30000000E+03</rscale>
<asrwt>  1 0.34372640E+02</asrwt>
<pdfrwt beam="1">  1        1 0.83634299E+00 0.30000000E+03</pdfrwt>
<pdfrwt beam="2">0</pdfrwt>
<totfact> 0.53076218E-04</totfact>
</mgrwt>
<clustering>
<clus scale="   34.373">  1  6  2 -1</clus>
<clus scale="  457.125">  4  5 -1 -1</clus>
<clus scale="  300.000">  1  4  2 -1</clus>
</clustering>
</event>
<event>
 6    1  0.9687246E-012  0.3000000E+03  0.7818608E-02  0.1093470E+00
          1   -1    0    0  502    0  0.00000000000E+00  0.00000000000E+00  0.24080051367E+03  0.24080051367E+03  0.00000000000E+00 0.  1.
         13   -1    0    0    0    0 -0.00000000000E+00 -0.00000000000E+00 -0.27500000000E+03  0.27500000000E+03  0.00000000000E+00 0.  1.
    9000005    2    1    2  501    0 -0.37002911842E+02 -0.15136734683E+02 -0.60689800618E+02  0.46784143765E+03  0.46216233367E+03 0.  0.
         13    1    3    3    0    0  0.15426385201E+03  0.14248424961E+03 -0.65416548568E+02  0.21995095419E+03  0.00000000000E+00 0.  1.
          1    1    3    3  501    0 -0.19126676385E+03 -0.15762098430E+03  0.47267479500E+01  0.24789048346E+03  0.00000000000E+00 0.  1.
         21    1    1    2  502  501  0.37002911842E+02  0.15136734683E+02  0.26490314290E+02  0.47959076022E+02  0.00000000000E+00 0. -1.
<scales pt_clust_4="550.00000" pt_clust_5="550.00000" pt_clust_6="39.97920"></scales>
<mgrwt>
<rscale>  0 0.30000000E+03</rscale>
<asrwt>  1 0.39979197E+02</asrwt>
<pdfrwt beam="1">  1        1 0.87563823E+00 0.30000000E+03</pdfrwt>
<pdfrwt beam="2">0</pdfrwt>
<totfact> 0.21605917E-04</totfact>
</mgrwt>
<clustering>
<clus scale="   39.979">  1  6  2 -1</clus>
<clus scale="  462.162">  4  5 -1 -1</clus>
<clus scale="  300.000">  1  4  2 -1</clus>
</clustering>
</event>
<event>
 6    1  0.9687246E-012  0.3000000E+03  0.7818608E-02  0.1093470E+00
          1   -1    0    0  502    0  0.00000000000E+00  0.00000000000E+00  0.25131042361E+03  0.25131042361E+03  0.00000000000E+00 0.  1.
         13   -1    0    0    0    0 -0.00000000000E+00 -0.00000000000E+00 -0.27500000000E+03  0.27500000000E+03  0.00000000000E+00 0.  1.
    9000005    2    1    2  501    0 -0.27269654262E+02  0.41935490017E+02 -0.35132508283E+01  0.47237246407E+03  0.46970329200E+03 0.  0.
         13    1    3    3    0    0  0.14409159399E+03  0.19294677703E+03  0.25380267091E+02  0.24214665842E+03  0.00000000000E+00 0.  1.
          1    1    3    3  501    0 -0.17136124825E+03 -0.15101128702E+03 -0.28893517919E+02  0.23022580565E+03  0.00000000000E+00 0.  1.
         21    1    1    2  502  501  0.27269654262E+02 -0.41935490017E+02 -0.20176325558E+02  0.53937959542E+02  0.00000000000E+00 0. -1.
<scales pt_clust_4="550.00000" pt_clust_5="550.00000" pt_clust_6="50.02221"></scales>
<mgrwt>
<rscale>  0 0.30000000E+03</rscale>
<asrwt>  1 0.50022214E+02</asrwt>
<pdfrwt beam="1">  1        1 0.91385609E+00 0.30000000E+03</pdfrwt>
<pdfrwt beam="2">0</pdfrwt>
<totfact> 0.54039948E-05</totfact>
</mgrwt>
<clustering>
<clus scale="   50.022">  1  6  2 -1</clus>
<clus scale="  469.703">  4  5 -1 -1</clus>
<clus scale="  300.000">  1  4  2 -1</clus>
</clustering>
</event>
<event>
 6    1  0.9687246E-012  0.3000000E+03  0.7818608E-02  0.1093470E+00
          1   -1    0    0  502    0  0.00000000000E+00  0.00000000000E+00  0.24462460853E+03  0.24462460853E+03  0.00000000000E+00 0.  1.
         13   -1    0    0    0    0 -0.00000000000E+00 -0.00000000000E+00 -0.27500000000E+03  0.27500000000E+03  0.00000000000E+00 0.  1.
    9000005    2    1    2  501    0  0.22121483860E+02 -0.23953357261E+02 -0.60616470149E+02  0.47515387420E+03  0.47014223841E+03 0.  0.
         13    1    3    3    0    0 -0.18238287648E+03 -0.13201001848E+03  0.29199954758E+02  0.22703038556E+03  0.00000000000E+00 0.  1.
          3    1    3    3  501    0  0.20450436034E+03  0.10805666121E+03 -0.89816424907E+02  0.24812348864E+03  0.00000000000E+00 0.  1.
         21    1    1    2  502  501 -0.22121483860E+02  0.23953357261E+02  0.30241078679E+02  0.44470734331E+02  0.00000000000E+00 0.  1.
<scales pt_clust_4="550.00000" pt_clust_5="550.00000" pt_clust_6="32.60557"></scales>
<mgrwt>
<rscale>  0 0.30000000E+03</rscale>
<asrwt>  1 0.32605573E+02</asrwt>
<pdfrwt beam="1">  1        1 0.88954403E+00 0.30000000E+03</pdfrwt>
<pdfrwt beam="2">0</pdfrwt>
<totfact> 0.14897996E-04</totfact>
</mgrwt>
<clustering>
<clus scale="   32.606">  1  6  2 -1</clus>
<clus scale="  470.142">  4  5 -1 -1</clus>
<clus scale="  300.000">  1  4  2 -1</clus>
</clustering>
</event>
<event>
 6    1  0.9687246E-012  0.3000000E+03  0.7818608E-02  0.1093470E+00
          1   -1    0    0  502    0  0.00000000000E+00  0.00000000000E+00  0.22929561625E+03  0.22929561625E+03  0.00000000000E+00 0.  1.
         13   -1    0    0    0    0 -0.00000000000E+00 -0.00000000000E+00 -0.27500000000E+03  0.27500000000E+03  0.00000000000E+00 0.  1.
    9000005    2    1    2  501    0  0.25617815023E+02  0.27879095513E+02 -0.50956585280E+02  0.46607125185E+03  0.46172754066E+03 0.  0.
         13    1    3    3    0    0  0.12117756756E+03 -0.18649193443E+03  0.13077628634E+02  0.22278749708E+03  0.00000000000E+00 0.  1.
          3    1    3    3  501    0 -0.95559752535E+02  0.21437102994E+03 -0.64034213915E+02  0.24328375477E+03  0.00000000000E+00 0.  1.
         21    1    1    2  502  501 -0.25617815023E+02 -0.27879095513E+02  0.52522015314E+01  0.38224364404E+02  0.00000000000E+00 0. -1.
<scales pt_clust_4="550.00000" pt_clust_5="550.00000" pt_clust_6="37.86181"></scales>
<mgrwt>
<rscale>  0 0.30000000E+03</rscale>
<asrwt>  1 0.37861807E+02</asrwt>
<pdfrwt beam="1">  1        1 0.83380224E+00 0.30000000E+03</pdfrwt>
<pdfrwt beam="2">0</pdfrwt>
<totfact> 0.54407532E-04</totfact>
</mgrwt>
<clustering>
<clus scale="   37.862">  1  6  2 -1</clus>
<clus scale="  461.728">  4  5 -1 -1</clus>
<clus scale="  300.000">  1  4  2 -1</clus>
</clustering>
</event>
<event>
 6    1  0.9687246E-012  0.3000000E+03  0.7818608E-02  0.1093470E+00
          1   -1    0    0  502    0  0.00000000000E+00  0.00000000000E+00  0.25405612134E+03  0.25405612134E+03  0.00000000000E+00 0.  1.
         13   -1    0    0    0    0 -0.00000000000E+00 -0.00000000000E+00 -0.27500000000E+03  0.27500000000E+03  0.00000000000E+00 0.  1.
    9000005    2    1    2  501    0 -0.10232960392E+02 -0.38640336090E+02 -0.45840018172E+02  0.48196464850E+03  0.47811172971E+03 0.  0.
         13    1    3    3    0    0 -0.16064151238E+03 -0.20175725930E+03 -0.25507614346E+02  0.25915695161E+03  0.00000000000E+00 0.  1.
          1    1    3    3  501    0  0.15040855199E+03  0.16311692321E+03 -0.20332403826E+02  0.22280769689E+03  0.00000000000E+00 0.  1.
         21    1    1    2  502  501  0.10232960392E+02  0.38640336090E+02  0.24896139512E+02  0.47091472839E+02  0.00000000000E+00 0. -1.
<scales pt_clust_4="550.00000" pt_clust_5="550.00000" pt_clust_6="39.97235"></scales>
<mgrwt>
<rscale>  0 0.30000000E+03</rscale>
<asrwt>  1 0.39972354E+02</asrwt>
<pdfrwt beam="1">  1        1 0.92384044E+00 0.30000000E+03</pdfrwt>
<pdfrwt beam="2">0</pdfrwt>
<totfact> 0.33816735E-05</totfact>
</mgrwt>
<clustering>
<clus scale="   39.972">  1  6  2 -1</clus>
<clus scale="  478.112">  4  5 -1 -1</clus>
<clus scale="  300.000">  1  4  2 -1</clus>
</clustering>
</event>
<event>
 6    1  0.9687246E-012  0.3000000E+03  0.7818608E-02  0.1093470E+00
          1   -1    0    0  502    0  0.00000000000E+00  0.00000000000E+00  0.23763245185E+03  0.23763245185E+03  0.00000000000E+00 0.  1.
         13   -1    0    0    0    0 -0.00000000000E+00 -0.00000000000E+00 -0.27500000000E+03  0.27500000000E+03  0.00000000000E+00 0.  1.
    9000005    2    1    2  501    0 -0.15077530504E+02  0.31848575442E+02 -0.39935962158E+02  0.47730172253E+03  0.47432097737E+03 0.  0.
         13    1    3    3    0    0 -0.46257192419E+02  0.24627900840E+03  0.23061256162E+02  0.25164439069E+03  0.00000000000E+00 0.  1.
          1    1    3    3  501    0  0.31179661915E+02 -0.21443043296E+03 -0.62997218320E+02  0.22565733184E+03  0.00000000000E+00 0.  1.
         21    1    1    2  502  501  0.15077530504E+02 -0.31848575442E+02  0.25684140103E+01  0.35330729321E+02  0.00000000000E+00 0.  1.
<scales pt_clust_4="550.00000" pt_clust_5="550.00000" pt_clust_6="35.23725"></scales>
<mgrwt>
<rscale>  0 0.30000000E+03</rscale>
<asrwt>  1 0.35237249E+02</asrwt>
<pdfrwt beam="1">  1        1 0.86411801E+00 0.30000000E+03</pdfrwt>
<pdfrwt beam="2">0</pdfrwt>
<totfact> 0.29166039E-04</totfact>
</mgrwt>
<clustering>
<clus scale="   35.237">  1  6  2 -1</clus>
<clus scale="  474.321">  4  5 -1 -1</clus>
<clus scale="  300.000">  1  4  2 -1</clus>
</clustering>
</event>
<event>
 6    1  0.9687246E-012  0.3000000E+03  0.7818608E-02  0.1093470E+00
          1   -1    0    0  502    0  0.00000000000E+00  0.00000000000E+00  0.24245665320E+03  0.24245665320E+03  0.00000000000E+00 0.  1.
         13   -1    0    0    0    0 -0.00000000000E+00 -0.00000000000E+00 -0.27500000000E+03  0.27500000000E+03  0.00000000000E+00 0.  1.
    9000005    2    1    2  501    0 -0.22068086554E+02  0.28419414196E+02 -0.12912338814E+02  0.47646836192E+03  0.47493231925E+03 0.  0.
         13    1    3    3    0    0 -0.90785001171E+02 -0.13632664867E+03  0.15926752466E+03  0.22845790857E+03  0.00000000000E+00 0.  1.
          3    1    3    3  501    0  0.68716914617E+02  0.16474606287E+03 -0.17217986348E+03  0.24801045335E+03  0.00000000000E+00 0.  1.
         21    1    1    2  502  501  0.22068086554E+02 -0.28419414196E+02 -0.19631007988E+02  0.40988291280E+02  0.00000000000E+00 0.  1.
<scales pt_clust_4="550.00000" pt_clust_5="550.00000" pt_clust_6="35.98145"></scales>
<mgrwt>
<rscale>  0 0.30000000E+03</rscale>
<asrwt>  1 0.35981451E+02</asrwt>
<pdfrwt beam="1">  1        1 0.88166056E+00 0.30000000E+03</pdfrwt>
<pdfrwt beam="2">0</pdfrwt>
<totfact> 0.18710397E-04</totfact>
</mgrwt>
<clustering>
<clus scale="   35.981">  1  6  2 -1</clus>
<clus scale="  474.932">  4  5 -1 -1</clus>
<clus scale="  300.000">  1  4  2 -1</clus>
</clustering>
</event>
<event>
 6    1  0.9687246E-012  0.3000000E+03  0.7818608E-02  0.1093470E+00
          1   -1    0    0  502    0  0.00000000000E+00  0.00000000000E+00  0.23309827984E+03  0.23309827984E+03  0.00000000000E+00 0.  1.
         13   -1    0    0    0    0 -0.00000000000E+00 -0.00000000000E+00 -0.27500000000E+03  0.27500000000E+03  0.00000000000E+00 0.  1.
    9000005    2    1    2  501    0 -0.26500190590E+02 -0.34390864386E+02 -0.54224146384E+02  0.46296698424E+03  0.45772609581E+03 0.  0.
         13    1    3    3    0    0 -0.23176359980E+03  0.18236416806E+02 -0.87630649718E+02  0.24844730600E+03  0.00000000000E+00 0.  1.
          3    1    3    3  501    0  0.20526340921E+03 -0.52627281193E+02  0.33406503334E+02  0.21451967824E+03  0.00000000000E+00 0.  1.
         21    1    1    2  502  501  0.26500190590E+02  0.34390864386E+02  0.12322426223E+02  0.45131295601E+02  0.00000000000E+00 0. -1.
<scales pt_clust_4="550.00000" pt_clust_5="550.00000" pt_clust_6="43.41649"></scales>
<mgrwt>
<rscale>  0 0.30000000E+03</rscale>
<asrwt>  1 0.43416491E+02</asrwt>
<pdfrwt beam="1">  1        1 0.84763011E+00 0.30000000E+03</pdfrwt>
<pdfrwt beam="2">0</pdfrwt>
<totfact> 0.41146741E-04</totfact>
</mgrwt>
<clustering>
<clus scale="   43.416">  1  6  2 -1</clus>
<clus scale="  457.726">  4  5 -1 -1</clus>
<clus scale="  300.000">  1  4  2 -1</clus>
</clustering>
</event>
<event>
 6    1  0.9687246E-012  0.3000000E+03  0.7818608E-02  0.1093470E+00
          1   -1    0    0  502    0  0.00000000000E+00  0.00000000000E+00  0.22579162111E+03  0.22579162111E+03  0.00000000000E+00 0.  1.
         13   -1    0    0    0    0 -0.00000000000E+00 -0.00000000000E+00 -0.27500000000E+03  0.27500000000E+03  0.00000000000E+00 0.  1.
    9000005    2    1    2  501    0 -0.13447183347E+02 -0.29113433199E+02 -0.33992975099E+02  0.46529616725E+03  0.46294338981E+03 0.  0.
         13    1    3    3    0    0 -0.18020284243E+03 -0.16093103988E+03 -0.65710379192E+02  0.25037914840E+03  0.00000000000E+00 0.  1.
          1    1    3    3  501    0  0.16675565909E+03  0.13181760668E+03  0.31717404093E+02  0.21491701885E+03  0.00000000000E+00 0.  1.
         21    1    1    2  502  501  0.13447183347E+02  0.29113433199E+02 -0.15215403790E+02  0.35495453865E+02  0.00000000000E+00 0.  1.
<scales pt_clust_4="550.00000" pt_clust_5="550.00000" pt_clust_6="32.06898"></scales>
<mgrwt>
<rscale>  0 0.30000000E+03</rscale>
<asrwt>  1 0.32068984E+02</asrwt>
<pdfrwt beam="1">  1        1 0.82106044E+00 0.30000000E+03</pdfrwt>
<pdfrwt beam="2">0</pdfrwt>
<totfact> 0.71982439E-04</totfact>
</mgrwt>
<clustering>
<clus scale="   32.069">  1  6  2 -1</clus>
<clus scale="  462.943">  4  5 -1 -1</clus>
<clus scale="  300.000">  1  4  2 -1</clus>
</clustering>
</event>
<event>
 6    1  0.9687246E-012  0.3000000E+03  0.7818608E-02  0.1093470E+00
          1   -1    0    0  502    0  0.00000000000E+00  0.00000000000E+00  0.23812151081E+03  0.23812151081E+03  0.00000000000E+00 0.  1.
         13   -1    0    0    0    0 -0.00000000000E+00 -0.00000000000E+00 -0.27500000000E+03  0.27500000000E+03  0.00000000000E+00 0.  1.
    9000005    2    1    2  501    0 -0.32049189952E+02 -0.38168119176E+01 -0.74013860490E+02  0.46392034790E+03  0.45683948935E+03 0.  0.
         13    1    3    3    0    0 -0.46801432459E+02  0.17628928604E+03 -0.17847631430E+03  0.25519028434E+03  0.00000000000E+00 0.  1.
          1    1    3    3  501    0  0.14752242507E+02 -0.18010609796E+03  0.10446245381E+03  0.20873006357E+03  0.00000000000E+00 0.  1.
         21    1    1    2  502  501  0.32049189952E+02  0.38168119176E+01  0.37135371302E+02  0.49201162908E+02  0.00000000000E+00 0.  1.
<scales pt_clust_4="550.00000" pt_clust_5="550.00000" pt_clust_6="32.27567"></scales>
<mgrwt>
<rscale>  0 0.30000000E+03</rscale>
<asrwt>  1 0.32275666E+02</asrwt>
<pdfrwt beam="1">  1        1 0.86589640E+00 0.30000000E+03</pdfrwt>
<pdfrwt beam="2">0</pdfrwt>
<totfact> 0.28374718E-04</totfact>
</mgrwt>
<clustering>
<clus scale="   32.276">  1  6  2 -1</clus>
<clus scale="  456.839">  4  5 -1 -1</clus>
<clus scale="  300.000">  1  4  2 -1</clus>
</clustering>
</event>
<event>
 6    1  0.9687246E-012  0.3000000E+03  0.7818608E-02  0.1093470E+00
          1   -1    0    0  502    0  0.00000000000E+00  0.00000000000E+00  0.23032472543E+03  0.23032472543E+03  0.00000000000E+00 0.  1.
         13   -1    0    0    0    0 -0.00000000000E+00 -0.00000000000E+00 -0.27500000000E+03  0.27500000000E+03  0.00000000000E+00 0.  1.
    9000005    2    1    2  501    0  0.41754580211E+02 -0.19028038314E+01 -0.55355986903E+02  0.46218375596E+03  0.45694909274E+03 0.  0.
         13    1    3    3    0    0  0.11970828222E+03  0.11382878034E+03  0.14379951451E+03  0.21900996425E+03  0.00000000000E+00 0.  1.
          3    1    3    3  501    0 -0.77953702013E+02 -0.11573158417E+03 -0.19915550141E+03  0.24317379171E+03  0.00000000000E+00 0.  1.
         21    1    1    2  502  501 -0.41754580211E+02  0.19028038314E+01  0.10680712334E+02  0.43140969472E+02  0.00000000000E+00 0. -1.
<scales pt_clust_4="550.00000" pt_clust_5="550.00000" pt_clust_6="41.79791"></scales>
<mgrwt>
<rscale>  0 0.30000000E+03</rscale>
<asrwt>  1 0.41797914E+02</asrwt>
<pdfrwt beam="1">  1        1 0.83754446E+00 0.30000000E+03</pdfrwt>
<pdfrwt beam="2">0</pdfrwt>
<totfact> 0.50177682E-04</totfact>
</mgrwt>
<clustering>
<clus scale="   41.798">  1  6  2 -1</clus>
<clus scale="  456.949">  4  5 -1 -1</clus>
<clus scale="  300.000">  1  4  2 -1</clus>
</clustering>
</event>
<event>
 6    1  0.9687246E-012  0.3000000E+03  0.7818608E-02  0.1093470E+00
          1   -1    0    0  502    0  0.00000000000E+00  0.00000000000E+00  0.24286701516E+03  0.24286701516E+03  0.00000000000E+00 0.  1.
         13   -1    0    0    0    0 -0.00000000000E+00 -0.00000000000E+00 -0.27500000000E+03  0.27500000000E+03  0.00000000000E+00 0.  1.
    9000005    2    1    2  501    0 -0.39361805551E+02 -0.30851991841E+02 -0.15354745730E+02  0.46511565078E+03  0.46216404366E+03 0.  0.
         13    1    3    3    0    0 -0.91730395909E+02  0.19688583392E+03 -0.63971254409E+02  0.22643060421E+03  0.00000000000E+00 0.  1.
          1    1    3    3  501    0  0.52368590358E+02 -0.22773782576E+03  0.48616508679E+02  0.23868504657E+03  0.00000000000E+00 0.  1.
         21    1    1    2  502  501  0.39361805551E+02  0.30851991841E+02 -0.16778239105E+02  0.52751364383E+02  0.00000000000E+00 0. -1.
<scales pt_clust_4="550.00000" pt_clust_5="550.00000" pt_clust_6="50.01199"></scales>
<mgrwt>
<rscale>  0 0.30000000E+03</rscale>
<asrwt>  1 0.50011995E+02</asrwt>
<pdfrwt beam="1">  1        1 0.88315278E+00 0.30000000E+03</pdfrwt>
<pdfrwt beam="2">0</pdfrwt>
<totfact> 0.16851850E-04</totfact>
</mgrwt>
<clustering>
<clus scale="   50.012">  1  6  2 -1</clus>
<clus scale="  462.164">  4  5 -1 -1</clus>
<clus scale="  300.000">  1  4  2 -1</clus>
</clustering>
</event>
<event>
 6    1  0.9687246E-012  0.3000000E+03  0.7818608E-02  0.1093470E+00
          1   -1    0    0  502    0  0.00000000000E+00  0.00000000000E+00  0.24242837263E+03  0.24242837263E+03  0.00000000000E+00 0.  1.
         13   -1    0    0    0    0 -0.00000000000E+00 -0.00000000000E+00 -0.27500000000E+03  0.27500000000E+03  0.00000000000E+00 0.  1.
    9000005    2    1    2  501    0  0.24921945906E+02  0.16929018205E+02 -0.49038607657E+02  0.48309389309E+03  0.47965323877E+03 0.  0.
         13    1    3    3    0    0 -0.17749288500E+03 -0.11690306096E+03 -0.10041013669E+03  0.23505796187E+03  0.00000000000E+00 0.  1.
          1    1    3    3  501    0  0.20241483091E+03  0.13383207916E+03  0.51371529029E+02  0.24803593123E+03  0.00000000000E+00 0.  1.
         21    1    1    2  502  501 -0.24921945906E+02 -0.16929018205E+02  0.16466980284E+02  0.34334479533E+02  0.00000000000E+00 0. -1.
<scales pt_clust_4="550.00000" pt_clust_5="550.00000" pt_clust_6="30.12798"></scales>
<mgrwt>
<rscale>  0 0.30000000E+03</rscale>
<asrwt>  1 0.30127978E+02</asrwt>
<pdfrwt beam="1">  1        1 0.88155772E+00 0.30000000E+03</pdfrwt>
<pdfrwt beam="2">0</pdfrwt>
<totfact> 0.19408845E-04</totfact>
</mgrwt>
<clustering>
<clus scale="   30.128">  1  6  2 -1</clus>
<clus scale="  479.653">  4  5 -1 -1</clus>
<clus scale="  300.000">  1  4  2 -1</clus>
</clustering>
</event>
<event>
 6    1  0.9687246E-012  0.3000000E+03  0.7818608E-02  0.1093470E+00
          1   -1    0    0  502    0  0.00000000000E+00  0.00000000000E+00  0.24209946846E+03  0.24209946846E+03  0.00000000000E+00 0.  1.
         13   -1    0    0    0    0 -0.00000000000E+00 -0.00000000000E+00 -0.27500000000E+03  0.27500000000E+03  0.00000000000E+00 0.  1.
    9000005    2    1    2  501    0  0.34163552297E+02 -0.26498467188E+02 -0.39988217120E+02  0.47328677218E+03  0.46960834122E+03 0.  0.
         13    1    3    3    0    0  0.16861044480E+03  0.14586395760E+03 -0.10328431063E+03  0.24571004262E+03  0.00000000000E+00 0.  1.
          3    1    3    3  501    0 -0.13444689251E+03 -0.17236242479E+03  0.63296093506E+02  0.22757672956E+03  0.00000000000E+00 0.  1.
         21    1    1    2  502  501 -0.34163552297E+02  0.26498467188E+02  0.70876855830E+01  0.43812696285E+02  0.00000000000E+00 0. -1.
<scales pt_clust_4="550.00000" pt_clust_5="550.00000" pt_clust_6="43.23560"></scales>
<mgrwt>
<rscale>  0 0.30000000E+03</rscale>
<asrwt>  1 0.43235600E+02</asrwt>
<pdfrwt beam="1">  1        1 0.88036170E+00 0.30000000E+03</pdfrwt>
<pdfrwt beam="2">0</pdfrwt>
<totfact> 0.18792307E-04</totfact>
</mgrwt>
<clustering>
<clus scale="   43.236">  1  6  2 -1</clus>
<clus scale="  469.608">  4  5 -1 -1</clus>
<clus scale="  300.000">  1  4  2 -1</clus>
</clustering>
</event>
<event>
 6    1  0.9687246E-012  0.3000000E+03  0.7818608E-02  0.1093470E+00
          1   -1    0    0  502    0  0.00000000000E+00  0.00000000000E+00  0.23839613231E+03  0.23839613231E+03  0.00000000000E+00 0.  1.
         13   -1    0    0    0    0 -0.00000000000E+00 -0.00000000000E+00 -0.27500000000E+03  0.27500000000E+03  0.00000000000E+00 0.  1.
    9000005    2    1    2  501    0 -0.52594815039E+01 -0.29857677421E+02 -0.45616145446E+02  0.48176759777E+03  0.47864396214E+03 0.  0.
         13    1    3    3    0    0 -0.99903167627E+02 -0.15364752139E+02 -0.24256283256E+03  0.26278022423E+03  0.00000000000E+00 0.  1.
          1    1    3    3  501    0  0.94643686123E+02 -0.14492925282E+02  0.19694668711E+03  0.21898737354E+03  0.00000000000E+00 0.  1.
         21    1    1    2  502  501  0.52594815039E+01  0.29857677421E+02  0.90122777598E+01  0.31628534539E+02  0.00000000000E+00 0. -1.
<scales pt_clust_4="550.00000" pt_clust_5="550.00000" pt_clust_6="30.31737"></scales>
<mgrwt>
<rscale>  0 0.30000000E+03</rscale>
<asrwt>  1 0.30317372E+02</asrwt>
<pdfrwt beam="1">  1        1 0.86689503E+00 0.30000000E+03</pdfrwt>
<pdfrwt beam="2">0</pdfrwt>
<totfact> 0.28023796E-04</totfact>
</mgrwt>
<clustering>
<clus scale="   30.317">  1  6  2 -1</clus>
<clus scale="  478.644">  4  5 -1 -1</clus>
<clus scale="  300.000">  1  4  2 -1</clus>
</clustering>
</event>
<event>
 6    1  0.9687246E-012  0.3000000E+03  0.7818608E-02  0.1093470E+00
          1   -1    0    0  502    0  0.00000000000E+00  0.00000000000E+00  0.24103868183E+03  0.24103868183E+03  0.00000000000E+00 0.  1.
         13   -1    0    0    0    0 -0.00000000000E+00 -0.00000000000E+00 -0.27500000000E+03  0.27500000000E+03  0.00000000000E+00 0.  1.
    9000005    2    1    2  501    0  0.26662838373E+02 -0.17967854848E+02 -0.63451774542E+02  0.47241027623E+03  0.46702418635E+03 0.  0.
         13    1    3    3    0    0 -0.44900044612E+01  0.22355532152E+03 -0.14921684689E+02  0.22409774340E+03  0.00000000000E+00 0.  1.
          3    1    3    3  501    0  0.31152842834E+02 -0.24152317637E+03 -0.48530089853E+02  0.24831253283E+03  0.00000000000E+00 0.  1.
         21    1    1    2  502  501 -0.26662838373E+02  0.17967854848E+02  0.29490456367E+02  0.43628405594E+02  0.00000000000E+00 0.  1.
<scales pt_clust_4="550.00000" pt_clust_5="550.00000" pt_clust_6="32.15199"></scales>
<mgrwt>
<rscale>  0 0.30000000E+03</rscale>
<asrwt>  1 0.32151995E+02</asrwt>
<pdfrwt beam="1">  1        1 0.87650430E+00 0.30000000E+03</pdfrwt>
<pdfrwt beam="2">0</pdfrwt>
<totfact> 0.22019722E-04</totfact>
</mgrwt>
<clustering>
<clus scale="   32.152">  1  6  2 -1</clus>
<clus scale="  467.024">  4  5 -1 -1</clus>
<clus scale="  300.000">  1  4  2 -1</clus>
</clustering>
</event>
<event>
 6    1  0.9687246E-012  0.3000000E+03  0.7818608E-02  0.1093470E+00
          1   -1    0    0  502    0  0.00000000000E+00  0.00000000000E+00  0.24702746404E+03  0.24702746404E+03  0.00000000000E+00 0.  1.
         13   -1    0    0    0    0 -0.00000000000E+00 -0.00000000000E+00 -0.27500000000E+03  0.27500000000E+03  0.00000000000E+00 0.  1.
    9000005    2    1    2  501    0  0.30954727493E+02  0.17349724428E+02 -0.15086038677E+02  0.48427471707E+03  0.48273720070E+03 0.  0.
         13    1    3    3    0    0 -0.21867034310E+03  0.67418469646E+02 -0.19331286369E+02  0.22964247785E+03  0.00000000000E+00 0.  1.
          3    1    3    3  501    0  0.24962507060E+03 -0.50068745218E+02  0.42452476919E+01  0.25463223921E+03  0.00000000000E+00 0.  1.
         21    1    1    2  502  501 -0.30954727493E+02 -0.17349724428E+02 -0.12886497281E+02  0.37752746974E+02  0.00000000000E+00 0. -1.
<scales pt_clust_4="550.00000" pt_clust_5="550.00000" pt_clust_6="35.48534"></scales>
<mgrwt>
<rscale>  0 0.30000000E+03</rscale>
<asrwt>  1 0.35485340E+02</asrwt>
<pdfrwt beam="1">  1        1 0.89828169E+00 0.30000000E+03</pdfrwt>
<pdfrwt beam="2">0</pdfrwt>
<totfact> 0.11552125E-04</totfact>
</mgrwt>
<clustering>
<clus scale="   35.485">  1  6  2 -1</clus>
<clus scale="  482.737">  4  5 -1 -1</clus>
<clus scale="  300.000">  1  4  2 -1</clus>
</clustering>
</event>
<event>
 6    1  0.9687246E-012  0.3000000E+03  0.7818608E-02  0.1093470E+00
          1   -1    0    0  502    0  0.00000000000E+00  0.00000000000E+00  0.25169625990E+03  0.25169625990E+03  0.00000000000E+00 0.  1.
         13   -1    0    0    0    0 -0.00000000000E+00 -0.00000000000E+00 -0.27500000000E+03  0.27500000000E+03  0.00000000000E+00 0.  1.
    9000005    2    1    2  501    0 -0.26607744092E+02 -0.38362521398E+02 -0.10757551189E+00  0.47456453112E+03  0.47226245619E+03 0.  0.
         13    1    3    3    0    0  0.12594741752E+03  0.15690157115E+03 -0.76519062634E+02  0.21525803575E+03  0.00000000000E+00 0.  1.
          3    1    3    3  501    0 -0.15255516161E+03 -0.19526409255E+03  0.76411487122E+02  0.25930649536E+03  0.00000000000E+00 0.  1.
         21    1    1    2  502  501  0.26607744092E+02  0.38362521398E+02 -0.23196164591E+02  0.52131728779E+02  0.00000000000E+00 0.  1.
<scales pt_clust_4="550.00000" pt_clust_5="550.00000" pt_clust_6="46.68680"></scales>
<mgrwt>
<rscale>  0 0.30000000E+03</rscale>
<asrwt>  1 0.46686800E+02</asrwt>
<pdfrwt beam="1">  1        1 0.91525913E+00 0.30000000E+03</pdfrwt>
<pdfrwt beam="2">0</pdfrwt>
<totfact> 0.50671369E-05</totfact>
</mgrwt>
<clustering>
<clus scale="   46.687">  1  6  2 -1</clus>
<clus scale="  472.262">  4  5 -1 -1</clus>
<clus scale="  300.000">  1  4  2 -1</clus>
</clustering>
</event>
<event>
 6    1  0.9687246E-012  0.3000000E+03  0.7818608E-02  0.1093470E+00
          1   -1    0    0  502    0  0.00000000000E+00  0.00000000000E+00  0.24196864609E+03  0.24196864609E+03  0.00000000000E+00 0.  1.
         13   -1    0    0    0    0 -0.00000000000E+00 -0.00000000000E+00 -0.27500000000E+03  0.27500000000E+03  0.00000000000E+00 0.  1.
    9000005    2    1    2  501    0 -0.68062810538E+01  0.29958199809E+02 -0.65766229339E+02  0.47207553674E+03  0.46646146279E+03 0.  0.
         13    1    3    3    0    0  0.16469175184E+03 -0.13277855513E+03 -0.98574606246E+02  0.23338909748E+03  0.00000000000E+00 0.  1.
          1    1    3    3  501    0 -0.17149803289E+03  0.16273675494E+03  0.32808376907E+02  0.23868643926E+03  0.00000000000E+00 0.  1.
         21    1    1    2  502  501  0.68062810538E+01 -0.29958199809E+02  0.32734875431E+02  0.44893109349E+02  0.00000000000E+00 0.  1.
<scales pt_clust_4="550.00000" pt_clust_5="550.00000" pt_clust_6="30.72164"></scales>
<mgrwt>
<rscale>  0 0.30000000E+03</rscale>
<asrwt>  1 0.30721641E+02</asrwt>
<pdfrwt beam="1">  1        1 0.87988599E+00 0.30000000E+03</pdfrwt>
<pdfrwt beam="2">0</pdfrwt>
<totfact> 0.20296447E-04</totfact>
</mgrwt>
<clustering>
<clus scale="   30.722">  1  6  2 -1</clus>
<clus scale="  466.461">  4  5 -1 -1</clus>
<clus scale="  300.000">  1  4  2 -1</clus>
</clustering>
</event>
<event>
 6    1  0.9687246E-012  0.3000000E+03  0.7818608E-02  0.1093470E+00
          1   -1    0    0  502    0  0.00000000000E+00  0.00000000000E+00  0.23890593582E+03  0.23890593582E+03  0.00000000000E+00 0.  1.
         13   -1    0    0    0    0 -0.00000000000E+00 -0.00000000000E+00 -0.27500000000E+03  0.27500000000E+03  0.00000000000E+00 0.  1.
    9000005    2    1    2  501    0  0.66687424999E+00 -0.40388696218E+02 -0.31061678950E+02  0.47319946945E+03  0.47044789136E+03 0.  0.
         13    1    3    3    0    0 -0.21093630428E+03 -0.12126250683E+03  0.74291596978E+01  0.24342126538E+03  0.00000000000E+00 0.  1.
          3    1    3    3  501    0  0.21160317853E+03  0.80873810608E+02 -0.38490838648E+02  0.22977820407E+03  0.00000000000E+00 0.  1.
         21    1    1    2  502  501 -0.66687424999E+00  0.40388696218E+02 -0.50323852268E+01  0.40706466372E+02  0.00000000000E+00 0.  1.
<scales pt_clust_4="550.00000" pt_clust_5="550.00000" pt_clust_6="40.39422"></scales>
<mgrwt>
<rscale>  0 0.30000000E+03</rscale>
<asrwt>  1 0.40394222E+02</asrwt>
<pdfrwt beam="1">  1        1 0.86874886E+00 0.30000000E+03</pdfrwt>
<pdfrwt beam="2">0</pdfrwt>
<totfact> 0.25404064E-04</totfact>
</mgrwt>
<clustering>
<clus scale="   40.394">  1  6  2 -1</clus>
<clus scale="  470.448">  4  5 -1 -1</clus>
<clus scale="  300.000">  1  4  2 -1</clus>
</clustering>
</event>
<event>
 6    1  0.9687246E-012  0.3000000E+03  0.7818608E-02  0.1093470E+00
          1   -1    0    0  502    0  0.00000000000E+00  0.00000000000E+00  0.23693047148E+03  0.23693047148E+03  0.00000000000E+00 0.  1.
         13   -1    0    0    0    0 -0.00000000000E+00 -0.00000000000E+00 -0.27500000000E+03  0.27500000000E+03  0.00000000000E+00 0.  1.
    9000005    2    1    2  501    0 -0.11874728886E+02  0.27795288968E+02 -0.67795615546E+02  0.46953675113E+03  0.46363231973E+03 0.  0.
         13    1    3    3    0    0 -0.19463028375E+03 -0.36301446739E+02  0.92128390381E+02  0.21837211980E+03  0.00000000000E+00 0.  1.
          1    1    3    3  501    0  0.18275555487E+03  0.64096735707E+02 -0.15992400593E+03  0.25116463134E+03  0.00000000000E+00 0.  1.
         21    1    1    2  502  501  0.11874728886E+02 -0.27795288968E+02  0.29726087024E+02  0.42393720345E+02  0.00000000000E+00 0.  1.
<scales pt_clust_4="550.00000" pt_clust_5="550.00000" pt_clust_6="30.22561"></scales>
<mgrwt>
<rscale>  0 0.30000000E+03</rscale>
<asrwt>  1 0.30225606E+02</asrwt>
<pdfrwt beam="1">  1        1 0.86156535E+00 0.30000000E+03</pdfrwt>
<pdfrwt beam="2">0</pdfrwt>
<totfact> 0.31996737E-04</totfact>
</mgrwt>
<clustering>
<clus scale="   30.226">  1  6  2 -1</clus>
<clus scale="  463.632">  4  5 -1 -1</clus>
<clus scale="  300.000">  1  4  2 -1</clus>
</clustering>
</event>
<event>
 6    1  0.9687246E-012  0.3000000E+03  0.7818608E-02  0.1093470E+00
          1   -1    0    0  502    0  0.00000000000E+00  0.00000000000E+00  0.23568794202E+03  0.23568794202E+03  0.00000000000E+00 0.  1.
         13   -1    0    0    0    0 -0.00000000000E+00 -0.00000000000E+00 -0.27500000000E+03  0.27500000000E+03  0.00000000000E+00 0.  1.
    9000005    2    1    2  501    0 -0.38171470671E+02  0.16483490862E+02 -0.30817402007E+02  0.46825062560E+03  0.46538174595E+03 0.  0.
         13    1    3    3    0    0 -0.22224945463E+03 -0.43406236828E+02 -0.11868518373E+03  0.25566598193E+03  0.00000000000E+00 0.  1.
          1    1    3    3  501    0  0.18407798396E+03  0.59889727690E+02  0.87867781727E+02  0.21258464367E+03  0.00000000000E+00 0.  1.
         21    1    1    2  502  501  0.38171470671E+02 -0.16483490862E+02 -0.84946559763E+01  0.42437316413E+02  0.00000000000E+00 0. -1.
<scales pt_clust_4="550.00000" pt_clust_5="550.00000" pt_clust_6="41.57846"></scales>
<mgrwt>
<rscale>  0 0.30000000E+03</rscale>
<asrwt>  1 0.41578460E+02</asrwt>
<pdfrwt beam="1">  1        1 0.85704706E+00 0.30000000E+03</pdfrwt>
<pdfrwt beam="2">0</pdfrwt>
<totfact> 0.33654516E-04</totfact>
</mgrwt>
<clustering>
<clus scale="   41.578">  1  6  2 -1</clus>
<clus scale="  465.382">  4  5 -1 -1</clus>
<clus scale="  300.000">  1  4  2 -1</clus>
</clustering>
</event>
<event>
 6    1  0.9687246E-012  0.3000000E+03  0.7818608E-02  0.1093470E+00
          1   -1    0    0  502    0  0.00000000000E+00  0.00000000000E+00  0.25419728625E+03  0.25419728625E+03  0.00000000000E+00 0.  1.
         13   -1    0    0    0    0 -0.00000000000E+00 -0.00000000000E+00 -0.27500000000E+03  0.27500000000E+03  0.00000000000E+00 0.  1.
    9000005    2    1    2  501    0  0.14644065346E+02  0.33897318528E+02 -0.43916418942E+02  0.48563445552E+03  0.48223303048E+03 0.  0.
         13    1    3    3    0    0  0.15199330341E+03  0.20926890286E+03 -0.46898028741E+02  0.26285901751E+03  0.00000000000E+00 0.  1.
          3    1    3    3  501    0 -0.13734923806E+03 -0.17537158433E+03  0.29816097986E+01  0.22277543802E+03  0.00000000000E+00 0.  1.
         21    1    1    2  502  501 -0.14644065346E+02 -0.33897318528E+02  0.23113705191E+02  0.43562830727E+02  0.00000000000E+00 0.  1.
<scales pt_clust_4="550.00000" pt_clust_5="550.00000" pt_clust_6="36.92529"></scales>
<mgrwt>
<rscale>  0 0.30000000E+03</rscale>
<asrwt>  1 0.36925287E+02</asrwt>
<pdfrwt beam="1">  1        1 0.92435377E+00 0.30000000E+03</pdfrwt>
<pdfrwt beam="2">0</pdfrwt>
<totfact> 0.33482715E-05</totfact>
</mgrwt>
<clustering>
<clus scale="   36.925">  1  6  2 -1</clus>
<clus scale="  482.233">  4  5 -1 -1</clus>
<clus scale="  300.000">  1  4  2 -1</clus>
</clustering>
</event>
<event>
 6    1  0.9687246E-012  0.3000000E+03  0.7818608E-02  0.1093470E+00
          1   -1    0    0  502    0  0.00000000000E+00  0.00000000000E+00  0.23503168485E+03  0.23503168485E+03  0.00000000000E+00 0.  1.
         13   -1    0    0    0    0 -0.00000000000E+00 -0.00000000000E+00 -0.27500000000E+03  0.27500000000E+03  0.00000000000E+00 0.  1.
    9000005    2    1    2  501    0 -0.16778501239E+02  0.36025816911E+02 -0.34593395556E+02  0.46992847614E+03  0.46696540781E+03 0.  0.
         13    1    3    3    0    0  0.19790474368E+03  0.11932278607E+03 -0.58589660278E+02  0.23840504009E+03  0.00000000000E+00 0.  1.
          1    1    3    3  501    0 -0.21468324492E+03 -0.83296969162E+02  0.23996264722E+02  0.23152343605E+03  0.00000000000E+00 0.  1.
         21    1    1    2  502  501  0.16778501239E+02 -0.36025816911E+02 -0.53749195941E+01  0.40103208706E+02  0.00000000000E+00 0.  1.
<scales pt_clust_4="550.00000" pt_clust_5="550.00000" pt_clust_6="39.74140"></scales>
<mgrwt>
<rscale>  0 0.30000000E+03</rscale>
<asrwt>  1 0.39741404E+02</asrwt>
<pdfrwt beam="1">  1        1 0.85466067E+00 0.30000000E+03</pdfrwt>
<pdfrwt beam="2">0</pdfrwt>
<totfact> 0.35863742E-04</totfact>
</mgrwt>
<clustering>
<clus scale="   39.741">  1  6  2 -1</clus>
<clus scale="  466.965">  4  5 -1 -1</clus>
<clus scale="  300.000">  1  4  2 -1</clus>
</clustering>
</event>
<event>
 6    1  0.9687246E-012  0.3000000E+03  0.7818608E-02  0.1093470E+00
          1   -1    0    0  502    0  0.00000000000E+00  0.00000000000E+00  0.23148062595E+03  0.23148062595E+03  0.00000000000E+00 0.  1.
         13   -1    0    0    0    0 -0.00000000000E+00 -0.00000000000E+00 -0.27500000000E+03  0.27500000000E+03  0.00000000000E+00 0.  1.
    9000005    2    1    2  501    0 -0.29729997322E+02 -0.56280381376E+01 -0.52979147349E+02  0.47477834110E+03  0.47084194330E+03 0.  0.
         13    1    3    3    0    0 -0.10054387059E+03  0.18220397480E+03  0.91623366678E+02  0.22738117703E+03  0.00000000000E+00 0.  1.
          3    1    3    3  501    0  0.70813873266E+02 -0.18783201293E+03 -0.14460251403E+03  0.24739716407E+03  0.00000000000E+00 0.  1.
         21    1    1    2  502  501  0.29729997322E+02  0.56280381376E+01  0.94597733030E+01  0.31702284854E+02  0.00000000000E+00 0.  1.
<scales pt_clust_4="550.00000" pt_clust_5="550.00000" pt_clust_6="30.25802"></scales>
<mgrwt>
<rscale>  0 0.30000000E+03</rscale>
<asrwt>  1 0.30258016E+02</asrwt>
<pdfrwt beam="1">  1        1 0.84174773E+00 0.30000000E+03</pdfrwt>
<pdfrwt beam="2">0</pdfrwt>
<totfact> 0.49493954E-04</totfact>
</mgrwt>
<clustering>
<clus scale="   30.258">  1  6  2 -1</clus>
<clus scale="  470.842">  4  5 -1 -1</clus>
<clus scale="  300.000">  1  4  2 -1</clus>
</clustering>
</event>
<event>
 6    1  0.9687246E-012  0.3000000E+03  0.7818608E-02  0.1093470E+00
          1   -1    0    0  502    0  0.00000000000E+00  0.00000000000E+00  0.22521655833E+03  0.22521655833E+03  0.00000000000E+00 0.  1.
         13   -1    0    0    0    0 -0.00000000000E+00 -0.00000000000E+00 -0.27500000000E+03  0.27500000000E+03  0.00000000000E+00 0.  1.
    9000005    2    1    2  501    0  0.33167292205E+02 -0.12721219897E+02 -0.33043453122E+02  0.46094664714E+03  0.45838634688E+03 0.  0.
         13    1    3    3    0    0 -0.13858471537E+03  0.16194105079E+03 -0.34877089847E+02  0.21597925516E+03  0.00000000000E+00 0.  1.
          3    1    3    3  501    0  0.17175200758E+03 -0.17466227069E+03  0.18336367258E+01  0.24496739198E+03  0.00000000000E+00 0.  1.
         21    1    1    2  502  501 -0.33167292205E+02  0.12721219897E+02 -0.16739988552E+02  0.39269911187E+02  0.00000000000E+00 0. -1.
<scales pt_clust_4="550.00000" pt_clust_5="550.00000" pt_clust_6="35.52323"></scales>
<mgrwt>
<rscale>  0 0.30000000E+03</rscale>
<asrwt>  1 0.35523231E+02</asrwt>
<pdfrwt beam="1">  1        1 0.81896930E+00 0.30000000E+03</pdfrwt>
<pdfrwt beam="2">0</pdfrwt>
<totfact> 0.73614296E-04</totfact>
</mgrwt>
<clustering>
<clus scale="   35.523">  1  6  2 -1</clus>
<clus scale="  458.386">  4  5 -1 -1</clus>
<clus scale="  300.000">  1  4  2 -1</clus>
</clustering>
</event>
<event>
 6    1  0.9687246E-012  0.3000000E+03  0.7818608E-02  0.1093470E+00
          1   -1    0    0  502    0  0.00000000000E+00  0.00000000000E+00  0.22870635617E+03  0.22870635617E+03  0.00000000000E+00 0.  1.
         13   -1    0    0    0    0 -0.00000000000E+00 -0.00000000000E+00 -0.27500000000E+03  0.27500000000E+03  0.00000000000E+00 0.  1.
    9000005    2    1    2  501    0 -0.35183520114E+02  0.74552171711E+01 -0.66601710079E+02  0.46240408135E+03  0.45616695004E+03 0.  0.
         13    1    3    3    0    0  0.97934413780E+02  0.49379964856E+01  0.16692095076E+03  0.19359270910E+03  0.00000000000E+00 0.  1.
          3    1    3    3  501    0 -0.13311793389E+03  0.25172206855E+01 -0.23352266084E+03  0.26881137225E+03  0.00000000000E+00 0.  1.
         21    1    1    2  502  501  0.35183520114E+02 -0.74552171711E+01  0.20308066245E+02  0.41302274819E+02  0.00000000000E+00 0.  1.
<scales pt_clust_4="550.00000" pt_clust_5="550.00000" pt_clust_6="35.96471"></scales>
<mgrwt>
<rscale>  0 0.30000000E+03</rscale>
<asrwt>  1 0.35964710E+02</asrwt>
<pdfrwt beam="1">  1        1 0.83165948E+00 0.30000000E+03</pdfrwt>
<pdfrwt beam="2">0</pdfrwt>
<totfact> 0.57026824E-04</totfact>
</mgrwt>
<clustering>
<clus scale="   35.965">  1  6  2 -1</clus>
<clus scale="  456.167">  4  5 -1 -1</clus>
<clus scale="  300.000">  1  4  2 -1</clus>
</clustering>
</event>
<event>
 6    1  0.9687246E-012  0.3000000E+03  0.7818608E-02  0.1093470E+00
          1   -1    0    0  502    0  0.00000000000E+00  0.00000000000E+00  0.23985364679E+03  0.23985364679E+03  0.00000000000E+00 0.  1.
         13   -1    0    0    0    0 -0.00000000000E+00 -0.00000000000E+00 -0.27500000000E+03  0.27500000000E+03  0.00000000000E+00 0.  1.
    9000005    2    1    2  501    0  0.30783735589E+02  0.46991744682E+01 -0.69389991968E+02  0.46856814784E+03  0.46235421223E+03 0.  0.
         13    1    3    3    0    0  0.22596720199E+02 -0.58833788344E+02  0.19062774286E+03  0.20077590185E+03  0.00000000000E+00 0.  1.
          3    1    3    3  501    0  0.81870153906E+01  0.63532962812E+02 -0.26001773483E+03  0.26779224599E+03  0.00000000000E+00 0.  1.
         21    1    1    2  502  501 -0.30783735589E+02 -0.46991744682E+01  0.34243638755E+02  0.46285498946E+02  0.00000000000E+00 0.  1.
<scales pt_clust_4="550.00000" pt_clust_5="550.00000" pt_clust_6="31.14034"></scales>
<mgrwt>
<rscale>  0 0.30000000E+03</rscale>
<asrwt>  1 0.31140337E+02</asrwt>
<pdfrwt beam="1">  1        1 0.87219508E+00 0.30000000E+03</pdfrwt>
<pdfrwt beam="2">0</pdfrwt>
<totfact> 0.24588296E-04</totfact>
</mgrwt>
<clustering>
<clus scale="   31.140">  1  6  2 -1</clus>
<clus scale="  462.354">  4  5 -1 -1</clus>
<clus scale="  300.000">  1  4  2 -1</clus>
</clustering>
</event>
<event>
 6    1  0.9687246E-012  0.3000000E+03  0.7818608E-02  0.1093470E+00
          1   -1    0    0  502    0  0.00000000000E+00  0.00000000000E+00  0.23002812537E+03  0.23002812537E+03  0.00000000000E+00 0.  1.
         13   -1    0    0    0    0 -0.00000000000E+00 -0.00000000000E+00 -0.27500000000E+03  0.27500000000E+03  0.00000000000E+00 0.  1.
    9000005    2    1    2  501    0 -0.10206035672E+02  0.29466138055E+02 -0.65937058407E+02  0.46745213055E+03  0.46172652320E+03 0.  0.
         13    1    3    3    0    0  0.83414269315E+02 -0.36675191562E+02 -0.24130977826E+03  0.25794072786E+03  0.00000000000E+00 0.  1.
          1    1    3    3  501    0 -0.93620304987E+02  0.66141329618E+02  0.17537271986E+03  0.20951140269E+03  0.00000000000E+00 0.  1.
         21    1    1    2  502  501  0.10206035672E+02 -0.29466138055E+02  0.20965183781E+02  0.37575994824E+02  0.00000000000E+00 0.  1.
<scales pt_clust_4="550.00000" pt_clust_5="550.00000" pt_clust_6="31.18359"></scales>
<mgrwt>
<rscale>  0 0.30000000E+03</rscale>
<asrwt>  1 0.31183593E+02</asrwt>
<pdfrwt beam="1">  1        1 0.83646591E+00 0.30000000E+03</pdfrwt>
<pdfrwt beam="2">0</pdfrwt>
<totfact> 0.53953076E-04</totfact>
</mgrwt>
<clustering>
<clus scale="   31.184">  1  6  2 -1</clus>
<clus scale="  461.727">  4  5 -1 -1</clus>
<clus scale="  300.000">  1  4  2 -1</clus>
</clustering>
</event>
<event>
 6    1  0.9687246E-012  0.3000000E+03  0.7818608E-02  0.1093470E+00
          1   -1    0    0  502    0  0.00000000000E+00  0.00000000000E+00  0.26034433751E+03  0.26034433751E+03  0.00000000000E+00 0.  1.
         13   -1    0    0    0    0 -0.00000000000E+00 -0.00000000000E+00 -0.27500000000E+03  0.27500000000E+03  0.00000000000E+00 0.  1.
    9000005    2    1    2  501    0 -0.58022015431E+00  0.33581161745E+02 -0.21980755999E+02  0.50096864734E+03  0.49935798873E+03 0.  0.
         13    1    3    3    0    0  0.10076614912E+03 -0.15292436222E+03 -0.16378765427E+03  0.24569508147E+03  0.00000000000E+00 0.  1.
          1    1    3    3  501    0 -0.10134636928E+03  0.18650552397E+03  0.14180689827E+03  0.25527356587E+03  0.00000000000E+00 0.  1.
         21    1    1    2  502  501  0.58022015431E+00 -0.33581161745E+02  0.73250935085E+01  0.34375690167E+02  0.00000000000E+00 0. -1.
<scales pt_clust_4="550.00000" pt_clust_5="550.00000" pt_clust_6="33.58617"></scales>
<mgrwt>
<rscale>  0 0.30000000E+03</rscale>
<asrwt>  1 0.33586174E+02</asrwt>
<pdfrwt beam="1">  1        1 0.94670668E+00 0.30000000E+03</pdfrwt>
<pdfrwt beam="2">0</pdfrwt>
<totfact> 0.14505537E-05</totfact>
</mgrwt>
<clustering>
<clus scale="   33.586">  1  6  2 -1</clus>
<clus scale="  499.358">  4  5 -1 -1</clus>
<clus scale="  300.000">  1  4  2 -1</clus>
</clustering>
</event>
<event>
 6    1  0.9687246E-012  0.3000000E+03  0.7818608E-02  0.1093470E+00
          1   -1    0    0  502    0  0.00000000000E+00  0.00000000000E+00  0.24381379475E+03  0.24381379475E+03  0.00000000000E+00 0.  1.
         13   -1    0    0    0    0 -0.00000000000E+00 -0.00000000000E+00 -0.27500000000E+03  0.27500000000E+03  0.00000000000E+00 0.  1.
    9000005    2    1    2  501    0  0.31323046254E+02  0.88912910038E+01 -0.41648464682E+02  0.48461369015E+03  0.48172154383E+03 0.  0.
         13    1    3    3    0    0 -0.21773192062E+03  0.54879233697E+02  0.15169467866E+02  0.22505339878E+03  0.00000000000E+00 0.  1.
          3    1    3    3  501    0  0.24905496687E+03 -0.45987942693E+02 -0.56817932548E+02  0.25956029137E+03  0.00000000000E+00 0.  1.
         21    1    1    2  502  501 -0.31323046254E+02 -0.88912910038E+01  0.10462259431E+02  0.34200104601E+02  0.00000000000E+00 0. -1.
<scales pt_clust_4="550.00000" pt_clust_5="550.00000" pt_clust_6="32.56053"></scales>
<mgrwt>
<rscale>  0 0.30000000E+03</rscale>
<asrwt>  1 0.32560533E+02</asrwt>
<pdfrwt beam="1">  1        1 0.88659562E+00 0.30000000E+03</pdfrwt>
<pdfrwt beam="2">0</pdfrwt>
<totfact> 0.16354325E-04</totfact>
</mgrwt>
<clustering>
<clus scale="   32.561">  1  6  2 -1</clus>
<clus scale="  481.722">  4  5 -1 -1</clus>
<clus scale="  300.000">  1  4  2 -1</clus>
</clustering>
</event>
<event>
 6    1  0.9687246E-012  0.3000000E+03  0.7818608E-02  0.1093470E+00
          1   -1    0    0  502    0  0.00000000000E+00  0.00000000000E+00  0.22692180975E+03  0.22692180975E+03  0.00000000000E+00 0.  1.
         13   -1    0    0    0    0 -0.00000000000E+00 -0.00000000000E+00 -0.27500000000E+03  0.27500000000E+03  0.00000000000E+00 0.  1.
    9000005    2    1    2  501    0  0.29473444491E+01 -0.33468998410E+02 -0.62956245334E+02  0.46517650778E+03  0.45967035348E+03 0.  0.
         13    1    3    3    0    0  0.19193280932E+03 -0.72582660325E+02 -0.14928571546E+03  0.25375710968E+03  0.00000000000E+00 0.  1.
          1    1    3    3  501    0 -0.18898546487E+03  0.39113661915E+02  0.86329470129E+02  0.21141939810E+03  0.00000000000E+00 0.  1.
         21    1    1    2  502  501 -0.29473444491E+01  0.33468998410E+02  0.14878055080E+02  0.36745301970E+02  0.00000000000E+00 0. -1.
<scales pt_clust_4="550.00000" pt_clust_5="550.00000" pt_clust_6="33.59852"></scales>
<mgrwt>
<rscale>  0 0.30000000E+03</rscale>
<asrwt>  1 0.33598522E+02</asrwt>
<pdfrwt beam="1">  1        1 0.82517022E+00 0.30000000E+03</pdfrwt>
<pdfrwt beam="2">0</pdfrwt>
<totfact> 0.65590455E-04</totfact>
</mgrwt>
<clustering>
<clus scale="   33.599">  1  6  2 -1</clus>
<clus scale="  459.670">  4  5 -1 -1</clus>
<clus scale="  300.000">  1  4  2 -1</clus>
</clustering>
</event>
<event>
 6    1  0.9687246E-012  0.3000000E+03  0.7818608E-02  0.1093470E+00
          1   -1    0    0  502    0  0.00000000000E+00  0.00000000000E+00  0.23679894776E+03  0.23679894776E+03  0.00000000000E+00 0.  1.
         13   -1    0    0    0    0 -0.00000000000E+00 -0.00000000000E+00 -0.27500000000E+03  0.27500000000E+03  0.00000000000E+00 0.  1.
    9000005    2    1    2  501    0  0.33511943130E+02 -0.12202388935E+02 -0.65639807401E+02  0.46680079321E+03  0.46078460000E+03 0.  0.
         13    1    3    3    0    0 -0.17415825131E+03  0.11132634497E+03 -0.86923414739E+02  0.22423276213E+03  0.00000000000E+00 0.  1.
          1    1    3    3  501    0  0.20767019444E+03 -0.12352873390E+03  0.21283607337E+02  0.24256803108E+03  0.00000000000E+00 0.  1.
         21    1    1    2  502  501 -0.33511943130E+02  0.12202388935E+02  0.27438755160E+02  0.44998154549E+02  0.00000000000E+00 0. -1.
<scales pt_clust_4="550.00000" pt_clust_5="550.00000" pt_clust_6="35.66439"></scales>
<mgrwt>
<rscale>  0 0.30000000E+03</rscale>
<asrwt>  1 0.35664389E+02</asrwt>
<pdfrwt beam="1">  1        1 0.86108708E+00 0.30000000E+03</pdfrwt>
<pdfrwt beam="2">0</pdfrwt>
<totfact> 0.31380010E-04</totfact>
</mgrwt>
<clustering>
<clus scale="   35.664">  1  6  2 -1</clus>
<clus scale="  460.785">  4  5 -1 -1</clus>
<clus scale="  300.000">  1  4  2 -1</clus>
</clustering>
</event>
<event>
 6    1  0.9687246E-012  0.3000000E+03  0.7818608E-02  0.1093470E+00
          1   -1    0    0  502    0  0.00000000000E+00  0.00000000000E+00  0.22904303557E+03  0.22904303557E+03  0.00000000000E+00 0.  1.
         13   -1    0    0    0    0 -0.00000000000E+00 -0.00000000000E+00 -0.27500000000E+03  0.27500000000E+03  0.00000000000E+00 0.  1.
    9000005    2    1    2  501    0 -0.39401236738E+02  0.38853099258E+01 -0.57710930462E+02  0.46274280788E+03  0.45741972155E+03 0.  0.
         13    1    3    3    0    0 -0.10573486710E+03  0.19863713873E+03  0.50000883979E+02  0.23051391151E+03  0.00000000000E+00 0.  1.
          1    1    3    3  501    0  0.66333630358E+02 -0.19475182880E+03 -0.10771181444E+03  0.23222889637E+03  0.00000000000E+00 0.  1.
         21    1    1    2  502  501  0.39401236738E+02 -0.38853099258E+01  0.11753966034E+02  0.41300227690E+02  0.00000000000E+00 0.  1.
<scales pt_clust_4="550.00000" pt_clust_5="550.00000" pt_clust_6="39.59234"></scales>
<mgrwt>
<rscale>  0 0.30000000E+03</rscale>
<asrwt>  1 0.39592336E+02</asrwt>
<pdfrwt beam="1">  1        1 0.83288377E+00 0.30000000E+03</pdfrwt>
<pdfrwt beam="2">0</pdfrwt>
<totfact> 0.54824509E-04</totfact>
</mgrwt>
<clustering>
<clus scale="   39.592">  1  6  2 -1</clus>
<clus scale="  457.420">  4  5 -1 -1</clus>
<clus scale="  300.000">  1  4  2 -1</clus>
</clustering>
</event>
<event>
 6    1  0.9687246E-012  0.3000000E+03  0.7818608E-02  0.1093470E+00
          1   -1    0    0  502    0  0.00000000000E+00  0.00000000000E+00  0.24007792684E+03  0.24007792684E+03  0.00000000000E+00 0.  1.
         13   -1    0    0    0    0 -0.00000000000E+00 -0.00000000000E+00 -0.27500000000E+03  0.27500000000E+03  0.00000000000E+00 0.  1.
    9000005    2    1    2  501    0  0.24753363993E+02  0.25954323174E+02 -0.37368823503E+02  0.47912876123E+03  0.47632088444E+03 0.  0.
         13    1    3    3    0    0  0.20317914350E+02 -0.19394485299E+03 -0.13634172949E+03  0.23794220064E+03  0.00000000000E+00 0.  1.
          3    1    3    3  501    0  0.44354496425E+01  0.21989917616E+03  0.98972905987E+02  0.24118656059E+03  0.00000000000E+00 0.  1.
         21    1    1    2  502  501 -0.24753363993E+02 -0.25954323174E+02  0.24467503393E+01  0.35949165604E+02  0.00000000000E+00 0.  1.
<scales pt_clust_4="550.00000" pt_clust_5="550.00000" pt_clust_6="35.86580"></scales>
<mgrwt>
<rscale>  0 0.30000000E+03</rscale>
<asrwt>  1 0.35865804E+02</asrwt>
<pdfrwt beam="1">  1        1 0.87301064E+00 0.30000000E+03</pdfrwt>
<pdfrwt beam="2">0</pdfrwt>
<totfact> 0.23484750E-04</totfact>
</mgrwt>
<clustering>
<clus scale="   35.866">  1  6  2 -1</clus>
<clus scale="  476.321">  4  5 -1 -1</clus>
<clus scale="  300.000">  1  4  2 -1</clus>
</clustering>
</event>
<event>
 6    1  0.9687246E-012  0.3000000E+03  0.7818608E-02  0.1093470E+00
          1   -1    0    0  502    0  0.00000000000E+00  0.00000000000E+00  0.24782344012E+03  0.24782344012E+03  0.00000000000E+00 0.  1.
         13   -1    0    0    0    0 -0.00000000000E+00 -0.00000000000E+00 -0.27500000000E+03  0.27500000000E+03  0.00000000000E+00 0.  1.
    9000005    2    1    2  501    0  0.19012348109E+02 -0.32215012393E+02 -0.50517057586E+02  0.47873199835E+03  0.47458726988E+03 0.  0.
         13    1    3    3    0    0  0.22188213236E+03 -0.54076314005E+02  0.73551428656E+02  0.23992861658E+03  0.00000000000E+00 0.  1.
          3    1    3    3  501    0 -0.20286978425E+03  0.21861301612E+02 -0.12406848624E+03  0.23880338178E+03  0.00000000000E+00 0.  1.
         21    1    1    2  502  501 -0.19012348109E+02  0.32215012393E+02  0.23340497709E+02  0.44091441771E+02  0.00000000000E+00 0.  1.
<scales pt_clust_4="550.00000" pt_clust_5="550.00000" pt_clust_6="37.40690"></scales>
<mgrwt>
<rscale>  0 0.30000000E+03</rscale>
<asrwt>  1 0.37406903E+02</asrwt>
<pdfrwt beam="1">  1        1 0.90117615E+00 0.30000000E+03</pdfrwt>
<pdfrwt beam="2">0</pdfrwt>
<totfact> 0.10529514E-04</totfact>
</mgrwt>
<clustering>
<clus scale="   37.407">  1  6  2 -1</clus>
<clus scale="  474.587">  4  5 -1 -1</clus>
<clus scale="  300.000">  1  4  2 -1</clus>
</clustering>
</event>
<event>
 6    1  0.9687246E-012  0.3000000E+03  0.7818608E-02  0.1093470E+00
          1   -1    0    0  502    0  0.00000000000E+00  0.00000000000E+00  0.24709268318E+03  0.24709268318E+03  0.00000000000E+00 0.  1.
         13   -1    0    0    0    0 -0.00000000000E+00 -0.00000000000E+00 -0.27500000000E+03  0.27500000000E+03  0.00000000000E+00 0.  1.
    9000005    2    1    2  501    0  0.27870313127E+02 -0.22882292485E+02 -0.23000370551E+02  0.48569993961E+03  0.48381304305E+03 0.  0.
         13    1    3    3    0    0 -0.15483407806E+03  0.10897153804E+03 -0.13650244728E+03  0.23341230890E+03  0.00000000000E+00 0.  1.
          1    1    3    3  501    0  0.18270439119E+03 -0.13185383053E+03  0.11350207673E+03  0.25228763070E+03  0.00000000000E+00 0.  1.
         21    1    1    2  502  501 -0.27870313127E+02  0.22882292485E+02 -0.49069462690E+01  0.36392743574E+02  0.00000000000E+00 0. -1.
<scales pt_clust_4="550.00000" pt_clust_5="550.00000" pt_clust_6="36.06043"></scales>
<mgrwt>
<rscale>  0 0.30000000E+03</rscale>
<asrwt>  1 0.36060435E+02</asrwt>
<pdfrwt beam="1">  1        1 0.89851885E+00 0.30000000E+03</pdfrwt>
<pdfrwt beam="2">0</pdfrwt>
<totfact> 0.11444700E-04</totfact>
</mgrwt>
<clustering>
<clus scale="   36.060">  1  6  2 -1</clus>
<clus scale="  483.813">  4  5 -1 -1</clus>
<clus scale="  300.000">  1  4  2 -1</clus>
</clustering>
</event>
<event>
 6    1  0.9687246E-012  0.3000000E+03  0.7818608E-02  0.1093470E+00
          1   -1    0    0  502    0  0.00000000000E+00  0.00000000000E+00  0.25513053383E+03  0.25513053383E+03  0.00000000000E+00 0.  1.
         13   -1    0    0    0    0 -0.00000000000E+00 -0.00000000000E+00 -0.27500000000E+03  0.27500000000E+03  0.00000000000E+00 0.  1.
    9000005    2    1    2  501    0 -0.15275591813E+02 -0.42622973944E+02 -0.66566594786E+01  0.48296444565E+03  0.48079130924E+03 0.  0.
         13    1    3    3    0    0 -0.34208333677E+02 -0.25938915746E+03 -0.33308557844E+02  0.26374685804E+03  0.00000000000E+00 0.  1.
          3    1    3    3  501    0  0.18932741864E+02  0.21676618352E+03  0.26651898365E+02  0.21921758761E+03  0.00000000000E+00 0.  1.
         21    1    1    2  502  501  0.15275591813E+02  0.42622973944E+02 -0.13212806692E+02  0.47166088175E+02  0.00000000000E+00 0. -1.
<scales pt_clust_4="550.00000" pt_clust_5="550.00000" pt_clust_6="45.27763"></scales>
<mgrwt>
<rscale>  0 0.30000000E+03</rscale>
<asrwt>  1 0.45277629E+02</asrwt>
<pdfrwt beam="1">  1        1 0.92774740E+00 0.30000000E+03</pdfrwt>
<pdfrwt beam="2">0</pdfrwt>
<totfact> 0.27486952E-05</totfact>
</mgrwt>
<clustering>
<clus scale="   45.278">  1  6  2 -1</clus>
<clus scale="  480.791">  4  5 -1 -1</clus>
<clus scale="  300.000">  1  4  2 -1</clus>
</clustering>
</event>
<event>
 6    1  0.9687246E-012  0.3000000E+03  0.7818608E-02  0.1093470E+00
          1   -1    0    0  502    0  0.00000000000E+00  0.00000000000E+00  0.22717214385E+03  0.22717214385E+03  0.00000000000E+00 0.  1.
         13   -1    0    0    0    0 -0.00000000000E+00 -0.00000000000E+00 -0.27500000000E+03  0.27500000000E+03  0.00000000000E+00 0.  1.
    9000005    2    1    2  501    0  0.26268089647E+02 -0.18267415838E+02 -0.68129101621E+02  0.46427951155E+03  0.45813772966E+03 0.  0.
         13    1    3    3    0    0  0.27113783359E+02  0.60274833211E+02 -0.25401878739E+03  0.26247620295E+03  0.00000000000E+00 0.  1.
          3    1    3    3  501    0 -0.84569371186E+00 -0.78542249048E+02  0.18588968577E+03  0.20180330860E+03  0.00000000000E+00 0.  1.
         21    1    1    2  502  501 -0.26268089647E+02  0.18267415838E+02  0.20301245473E+02  0.37892632303E+02  0.00000000000E+00 0.  1.
<scales pt_clust_4="550.00000" pt_clust_5="550.00000" pt_clust_6="31.99548"></scales>
<mgrwt>
<rscale>  0 0.30000000E+03</rscale>
<asrwt>  1 0.31995484E+02</asrwt>
<pdfrwt beam="1">  1        1 0.82608052E+00 0.30000000E+03</pdfrwt>
<pdfrwt beam="2">0</pdfrwt>
<totfact> 0.64976862E-04</totfact>
</mgrwt>
<clustering>
<clus scale="   31.995">  1  6  2 -1</clus>
<clus scale="  458.138">  4  5 -1 -1</clus>
<clus scale="  300.000">  1  4  2 -1</clus>
</clustering>
</event>
<event>
 6    1  0.9687246E-012  0.3000000E+03  0.7818608E-02  0.1093470E+00
          1   -1    0    0  502    0  0.00000000000E+00  0.00000000000E+00  0.23967675459E+03  0.23967675459E+03  0.00000000000E+00 0.  1.
         13   -1    0    0    0    0 -0.00000000000E+00 -0.00000000000E+00 -0.27500000000E+03  0.27500000000E+03  0.00000000000E+00 0.  1.
    9000005    2    1    2  501    0 -0.42783978998E+02  0.36783023566E+00 -0.46680537231E+02  0.47040947282E+03  0.46612808905E+03 0.  0.
         13    1    3    3    0    0 -0.41020515033E+02  0.59674040639E+02  0.20208445275E+03  0.21466671801E+03  0.00000000000E+00 0.  1.
          1    1    3    3  501    0 -0.17634639647E+01 -0.59306210403E+02 -0.24876498998E+03  0.25574275481E+03  0.00000000000E+00 0.  1.
         21    1    1    2  502  501  0.42783978998E+02 -0.36783023566E+00  0.11357291821E+02  0.44267281772E+02  0.00000000000E+00 0.  1.
<scales pt_clust_4="550.00000" pt_clust_5="550.00000" pt_clust_6="42.78556"></scales>
<mgrwt>
<rscale>  0 0.30000000E+03</rscale>
<asrwt>  1 0.42785560E+02</asrwt>
<pdfrwt beam="1">  1        1 0.87155183E+00 0.30000000E+03</pdfrwt>
<pdfrwt beam="2">0</pdfrwt>
<totfact> 0.23533758E-04</totfact>
</mgrwt>
<clustering>
<clus scale="   42.786">  1  6  2 -1</clus>
<clus scale="  466.128">  4  5 -1 -1</clus>
<clus scale="  300.000">  1  4  2 -1</clus>
</clustering>
</event>
<event>
 6    1  0.9687246E-012  0.3000000E+03  0.7818608E-02  0.1093470E+00
          1   -1    0    0  502    0  0.00000000000E+00  0.00000000000E+00  0.22250019829E+03  0.22250019829E+03  0.00000000000E+00 0.  1.
         13   -1    0    0    0    0 -0.00000000000E+00 -0.00000000000E+00 -0.27500000000E+03  0.27500000000E+03  0.00000000000E+00 0.  1.
    9000005    2    1    2  501    0 -0.11217172951E+02  0.29710242803E+02 -0.44902382675E+02  0.46484680225E+03  0.46158184767E+03 0.  0.
         13    1    3    3    0    0  0.16246669862E+03 -0.14083760120E+03  0.10253446867E+02  0.21525749986E+03  0.00000000000E+00 0.  1.
          3    1    3    3  501    0 -0.17368387157E+03  0.17054784400E+03 -0.55155829543E+02  0.24958930240E+03  0.00000000000E+00 0.  1.
         21    1    1    2  502  501  0.11217172951E+02 -0.29710242803E+02 -0.75974190373E+01  0.32653396032E+02  0.00000000000E+00 0.  1.
<scales pt_clust_4="550.00000" pt_clust_5="550.00000" pt_clust_6="31.75727"></scales>
<mgrwt>
<rscale>  0 0.30000000E+03</rscale>
<asrwt>  1 0.31757275E+02</asrwt>
<pdfrwt beam="1">  1        1 0.80909163E+00 0.30000000E+03</pdfrwt>
<pdfrwt beam="2">0</pdfrwt>
<totfact> 0.90286470E-04</totfact>
</mgrwt>
<clustering>
<clus scale="   31.757">  1  6  2 -1</clus>
<clus scale="  461.582">  4  5 -1 -1</clus>
<clus scale="  300.000">  1  4  2 -1</clus>
</clustering>
</event>
<event>
 6    1  0.9687246E-012  0.3000000E+03  0.7818608E-02  0.1093470E+00
          1   -1    0    0  502    0  0.00000000000E+00  0.00000000000E+00  0.22605844977E+03  0.22605844977E+03  0.00000000000E+00 0.  1.
         13   -1    0    0    0    0 -0.00000000000E+00 -0.00000000000E+00 -0.27500000000E+03  0.27500000000E+03  0.00000000000E+00 0.  1.
    9000005    2    1    2  501    0 -0.28900411849E+01 -0.31280577516E+02 -0.68979401409E+02  0.46379798349E+03  0.45756265669E+03 0.  0.
         13    1    3    3    0    0 -0.11103348495E+02  0.14591370788E+02 -0.26331519475E+03  0.26395280683E+03  0.00000000000E+00 0.  1.
          3    1    3    3  501    0  0.82133073103E+01 -0.45871948304E+02  0.19433579334E+03  0.19984517665E+03  0.00000000000E+00 0.  1.
         21    1    1    2  502  501  0.28900411849E+01  0.31280577516E+02  0.20037851184E+02  0.37260466286E+02  0.00000000000E+00 0. -1.
<scales pt_clust_4="550.00000" pt_clust_5="550.00000" pt_clust_6="31.41380"></scales>
<mgrwt>
<rscale>  0 0.30000000E+03</rscale>
<asrwt>  1 0.31413801E+02</asrwt>
<pdfrwt beam="1">  1        1 0.82203073E+00 0.30000000E+03</pdfrwt>
<pdfrwt beam="2">0</pdfrwt>
<totfact> 0.70855781E-04</totfact>
</mgrwt>
<clustering>
<clus scale="   31.414">  1  6  2 -1</clus>
<clus scale="  457.563">  4  5 -1 -1</clus>
<clus scale="  300.000">  1  4  2 -1</clus>
</clustering>
</event>
<event>
 6    1  0.9687246E-012  0.3000000E+03  0.7818608E-02  0.1093470E+00
          1   -1    0    0  502    0  0.00000000000E+00  0.00000000000E+00  0.23064917620E+03  0.23064917620E+03  0.00000000000E+00 0.  1.
         13   -1    0    0    0    0 -0.00000000000E+00 -0.00000000000E+00 -0.27500000000E+03  0.27500000000E+03  0.00000000000E+00 0.  1.
    9000005    2    1    2  501    0  0.16093194103E+01 -0.40930683456E+02 -0.54866984649E+02  0.46335851061E+03  0.45827154897E+03 0.  0.
         13    1    3    3    0    0  0.58091247382E+01 -0.21673921288E+03 -0.14977999350E+03  0.26352168560E+03  0.00000000000E+00 0.  1.
          3    1    3    3  501    0 -0.41998053279E+01  0.17580852942E+03  0.94913008847E+02  0.19983682501E+03  0.00000000000E+00 0.  1.
         21    1    1    2  502  501 -0.16093194103E+01  0.40930683456E+02  0.10516160852E+02  0.42290665592E+02  0.00000000000E+00 0. -1.
<scales pt_clust_4="550.00000" pt_clust_5="550.00000" pt_clust_6="40.96231"></scales>
<mgrwt>
<rscale>  0 0.30000000E+03</rscale>
<asrwt>  1 0.40962309E+02</asrwt>
<pdfrwt beam="1">  1        1 0.83872428E+00 0.30000000E+03</pdfrwt>
<pdfrwt beam="2">0</pdfrwt>
<totfact> 0.49365202E-04</totfact>
</mgrwt>
<clustering>
<clus scale="   40.962">  1  6  2 -1</clus>
<clus scale="  458.272">  4  5 -1 -1</clus>
<clus scale="  300.000">  1  4  2 -1</clus>
</clustering>
</event>
<event>
 6    1  0.9687246E-012  0.3000000E+03  0.7818608E-02  0.1093470E+00
          1   -1    0    0  502    0  0.00000000000E+00  0.00000000000E+00  0.23063065840E+03  0.23063065840E+03  0.00000000000E+00 0.  1.
         13   -1    0    0    0    0 -0.00000000000E+00 -0.00000000000E+00 -0.27500000000E+03  0.27500000000E+03  0.00000000000E+00 0.  1.
    9000005    2    1    2  501    0 -0.36650678888E+02 -0.93813238259E+01 -0.48964721237E+02  0.46752030530E+03  0.46340739144E+03 0.  0.
         13    1    3    3    0    0  0.12739489003E+03  0.16359052502E+03  0.43443323708E+02  0.21184579358E+03  0.00000000000E+00 0.  1.
          1    1    3    3  501    0 -0.16404556892E+03 -0.17297184884E+03 -0.92408044945E+02  0.25567451172E+03  0.00000000000E+00 0.  1.
         21    1    1    2  502  501  0.36650678888E+02  0.93813238259E+01  0.45953796414E+01  0.38110353105E+02  0.00000000000E+00 0. -1.
<scales pt_clust_4="550.00000" pt_clust_5="550.00000" pt_clust_6="37.83228"></scales>
<mgrwt>
<rscale>  0 0.30000000E+03</rscale>
<asrwt>  1 0.37832281E+02</asrwt>
<pdfrwt beam="1">  1        1 0.83865694E+00 0.30000000E+03</pdfrwt>
<pdfrwt beam="2">0</pdfrwt>
<totfact> 0.50146179E-04</totfact>
</mgrwt>
<clustering>
<clus scale="   37.832">  1  6  2 -1</clus>
<clus scale="  463.407">  4  5 -1 -1</clus>
<clus scale="  300.000">  1  4  2 -1</clus>
</clustering>
</event>
<event>
 6    1  0.9687246E-012  0.3000000E+03  0.7818608E-02  0.1093470E+00
          1   -1    0    0  502    0  0.00000000000E+00  0.00000000000E+00  0.21824664429E+03  0.21824664429E+03  0.00000000000E+00 0.  1.
         13   -1    0    0    0    0 -0.00000000000E+00 -0.00000000000E+00 -0.27500000000E+03  0.27500000000E+03  0.00000000000E+00 0.  1.
    9000005    2    1    2  501    0 -0.31340721091E+02  0.57471649925E+01 -0.51041762827E+02  0.46087546889E+03  0.45693070105E+03 0.  0.
         13    1    3    3    0    0 -0.58437886827E+02  0.20255924998E+03 -0.12934032249E+03  0.24733409670E+03  0.00000000000E+00 0.  1.
          3    1    3    3  501    0  0.27097165736E+02 -0.19681208499E+03  0.78298559664E+02  0.21354137218E+03  0.00000000000E+00 0.  1.
         21    1    1    2  502  501  0.31340721091E+02 -0.57471649925E+01 -0.57115928796E+01  0.32371175406E+02  0.00000000000E+00 0.  1.
<scales pt_clust_4="550.00000" pt_clust_5="550.00000" pt_clust_6="31.86333"></scales>
<mgrwt>
<rscale>  0 0.30000000E+03</rscale>
<asrwt>  1 0.31863329E+02</asrwt>
<pdfrwt beam="1">  1        1 0.79362416E+00 0.30000000E+03</pdfrwt>
<pdfrwt beam="2">0</pdfrwt>
<totfact> 0.11760426E-03</totfact>
</mgrwt>
<clustering>
<clus scale="   31.863">  1  6  2 -1</clus>
<clus scale="  456.931">  4  5 -1 -1</clus>
<clus scale="  300.000">  1  4  2 -1</clus>
</clustering>
</event>
<event>
 6    1  0.9687246E-012  0.3000000E+03  0.7818608E-02  0.1093470E+00
          1   -1    0    0  502    0  0.00000000000E+00  0.00000000000E+00  0.25315468369E+03  0.25315468369E+03  0.00000000000E+00 0.  1.
         13   -1    0    0    0    0 -0.00000000000E+00 -0.00000000000E+00 -0.27500000000E+03  0.27500000000E+03  0.00000000000E+00 0.  1.
    9000005    2    1    2  501    0 -0.88849624597E+01 -0.40841764778E+02 -0.59796579247E+02  0.47169858866E+03  0.46602246227E+03 0.  0.
         13    1    3    3    0    0  0.15855408006E+03 -0.18213418788E+03  0.10218274965E+02  0.24169541130E+03  0.00000000000E+00 0.  1.
          3    1    3    3  501    0 -0.16743904252E+03  0.14129242310E+03 -0.70014854212E+02  0.23000317736E+03  0.00000000000E+00 0.  1.
         21    1    1    2  502  501  0.88849624597E+01  0.40841764778E+02  0.37951262940E+02  0.56456095036E+02  0.00000000000E+00 0.  1.
<scales pt_clust_4="550.00000" pt_clust_5="550.00000" pt_clust_6="41.79704"></scales>
<mgrwt>
<rscale>  0 0.30000000E+03</rscale>
<asrwt>  1 0.41797037E+02</asrwt>
<pdfrwt beam="1">  1        1 0.92056249E+00 0.30000000E+03</pdfrwt>
<pdfrwt beam="2">0</pdfrwt>
<totfact> 0.39339899E-05</totfact>
</mgrwt>
<clustering>
<clus scale="   41.797">  1  6  2 -1</clus>
<clus scale="  466.022">  4  5 -1 -1</clus>
<clus scale="  300.000">  1  4  2 -1</clus>
</clustering>
</event>
<event>
 6    1  0.9687246E-012  0.3000000E+03  0.7818608E-02  0.1093470E+00
          1   -1    0    0  502    0  0.00000000000E+00  0.00000000000E+00  0.23505889315E+03  0.23505889315E+03  0.00000000000E+00 0.  1.
         13   -1    0    0    0    0 -0.00000000000E+00 -0.00000000000E+00 -0.27500000000E+03  0.27500000000E+03  0.00000000000E+00 0.  1.
    9000005    2    1    2  501    0  0.37584779902E+02 -0.14141685482E+02 -0.61507149284E+02  0.46447712997E+03  0.45863195692E+03 0.  0.
         13    1    3    3    0    0 -0.29627495592E+02 -0.34324474992E+02  0.19414416680E+03  0.19936879290E+03  0.00000000000E+00 0.  1.
          1    1    3    3  501    0  0.67212275494E+02  0.20182789510E+02 -0.25565131608E+03  0.26510833707E+03  0.00000000000E+00 0.  1.
         21    1    1    2  502  501 -0.37584779902E+02  0.14141685482E+02  0.21566042438E+02  0.45581763184E+02  0.00000000000E+00 0.  1.
<scales pt_clust_4="550.00000" pt_clust_5="550.00000" pt_clust_6="40.15723"></scales>
<mgrwt>
<rscale>  0 0.30000000E+03</rscale>
<asrwt>  1 0.40157228E+02</asrwt>
<pdfrwt beam="1">  1        1 0.85475961E+00 0.30000000E+03</pdfrwt>
<pdfrwt beam="2">0</pdfrwt>
<totfact> 0.35715399E-04</totfact>
</mgrwt>
<clustering>
<clus scale="   40.157">  1  6  2 -1</clus>
<clus scale="  458.632">  4  5 -1 -1</clus>
<clus scale="  300.000">  1  4  2 -1</clus>
</clustering>
</event>
<event>
 6    1  0.9687246E-012  0.3000000E+03  0.7818608E-02  0.1093470E+00
          1   -1    0    0  502    0  0.00000000000E+00  0.00000000000E+00  0.24115452064E+03  0.24115452064E+03  0.00000000000E+00 0.  1.
         13   -1    0    0    0    0 -0.00000000000E+00 -0.00000000000E+00 -0.27500000000E+03  0.27500000000E+03  0.00000000000E+00 0.  1.
    9000005    2    1    2  501    0  0.27393357074E+02 -0.33177093783E+02 -0.59930355632E+02  0.46584014562E+03  0.45996117030E+03 0.  0.
         13    1    3    3    0    0  0.16136942999E+02 -0.17214419222E+02  0.20190410965E+03  0.20327815095E+03  0.00000000000E+00 0.  1.
          3    1    3    3  501    0  0.11256414075E+02 -0.15962674560E+02 -0.26183446528E+03  0.26256199467E+03  0.00000000000E+00 0.  1.
         21    1    1    2  502  501 -0.27393357074E+02  0.33177093783E+02  0.26084876272E+02  0.50314375021E+02  0.00000000000E+00 0.  1.
<scales pt_clust_4="550.00000" pt_clust_5="550.00000" pt_clust_6="43.02459"></scales>
<mgrwt>
<rscale>  0 0.30000000E+03</rscale>
<asrwt>  1 0.43024593E+02</asrwt>
<pdfrwt beam="1">  1        1 0.87692553E+00 0.30000000E+03</pdfrwt>
<pdfrwt beam="2">0</pdfrwt>
<totfact> 0.20642892E-04</totfact>
</mgrwt>
<clustering>
<clus scale="   43.025">  1  6  2 -1</clus>
<clus scale="  459.961">  4  5 -1 -1</clus>
<clus scale="  300.000">  1  4  2 -1</clus>
</clustering>
</event>
<event>
 6    1  0.9687246E-012  0.3000000E+03  0.7818608E-02  0.1093470E+00
          1   -1    0    0  502    0  0.00000000000E+00  0.00000000000E+00  0.24058548920E+03  0.24058548920E+03  0.00000000000E+00 0.  1.
         13   -1    0    0    0    0 -0.00000000000E+00 -0.00000000000E+00 -0.27500000000E+03  0.27500000000E+03  0.00000000000E+00 0.  1.
    9000005    2    1    2  501    0 -0.19321848806E+02 -0.26216421184E+02 -0.54923269917E+02  0.47709855919E+03  0.47280633987E+03 0.  0.
         13    1    3    3    0    0 -0.18912262552E+03 -0.11662340543E+03  0.86400492286E+02  0.23839763264E+03  0.00000000000E+00 0.  1.
          1    1    3    3  501    0  0.16980077672E+03  0.90406984247E+02 -0.14132376220E+03  0.23870092655E+03  0.00000000000E+00 0.  1.
         21    1    1    2  502  501  0.19321848806E+02  0.26216421184E+02  0.20508759118E+02  0.38486930009E+02  0.00000000000E+00 0.  1.
<scales pt_clust_4="550.00000" pt_clust_5="550.00000" pt_clust_6="32.56739"></scales>
<mgrwt>
<rscale>  0 0.30000000E+03</rscale>
<asrwt>  1 0.32567385E+02</asrwt>
<pdfrwt beam="1">  1        1 0.87485632E+00 0.30000000E+03</pdfrwt>
<pdfrwt beam="2">0</pdfrwt>
<totfact> 0.22879699E-04</totfact>
</mgrwt>
<clustering>
<clus scale="   32.567">  1  6  2 -1</clus>
<clus scale="  472.806">  4  5 -1 -1</clus>
<clus scale="  300.000">  1  4  2 -1</clus>
</clustering>
</event>
<event>
 6    1  0.9687246E-012  0.3000000E+03  0.7818608E-02  0.1093470E+00
          1   -1    0    0  502    0  0.00000000000E+00  0.00000000000E+00  0.24816656770E+03  0.24816656770E+03  0.00000000000E+00 0.  1.
         13   -1    0    0    0    0 -0.00000000000E+00 -0.00000000000E+00 -0.27500000000E+03  0.27500000000E+03  0.00000000000E+00 0.  1.
    9000005    2    1    2  501    0 -0.45472631300E+02  0.21976233122E+01 -0.56508523421E+02  0.46882320768E+03  0.46317318262E+03 0.  0.
         13    1    3    3    0    0 -0.14708873663E+03 -0.19047571032E+03 -0.69843895132E+02  0.25058783361E+03  0.00000000000E+00 0.  1.
          3    1    3    3  501    0  0.10161610533E+03  0.19267333363E+03  0.13335371711E+02  0.21823537407E+03  0.00000000000E+00 0.  1.
         21    1    1    2  502  501  0.45472631300E+02 -0.21976233122E+01  0.29675091124E+02  0.54343360025E+02  0.00000000000E+00 0.  1.
<scales pt_clust_4="550.00000" pt_clust_5="550.00000" pt_clust_6="45.52570"></scales>
<mgrwt>
<rscale>  0 0.30000000E+03</rscale>
<asrwt>  1 0.45525704E+02</asrwt>
<pdfrwt beam="1">  1        1 0.90242388E+00 0.30000000E+03</pdfrwt>
<pdfrwt beam="2">0</pdfrwt>
<totfact> 0.97507612E-05</totfact>
</mgrwt>
<clustering>
<clus scale="   45.526">  1  6  2 -1</clus>
<clus scale="  463.173">  4  5 -1 -1</clus>
<clus scale="  300.000">  1  4  2 -1</clus>
</clustering>
</event>
<event>
 6    1  0.9687246E-012  0.3000000E+03  0.7818608E-02  0.1093470E+00
          1   -1    0    0  502    0  0.00000000000E+00  0.00000000000E+00  0.23824388106E+03  0.23824388106E+03  0.00000000000E+00 0.  1.
         13   -1    0    0    0    0 -0.00000000000E+00 -0.00000000000E+00 -0.27500000000E+03  0.27500000000E+03  0.00000000000E+00 0.  1.
    9000005    2    1    2  501    0  0.36142088491E+02 -0.12216176869E+02 -0.41731074205E+02  0.47477004947E+03  0.47139116642E+03 0.  0.
         13    1    3    3    0    0  0.23721681023E+03  0.36715992116E+02 -0.99605401849E+02  0.25988673535E+03  0.00000000000E+00 0.  1.
          1    1    3    3  501    0 -0.20107472174E+03 -0.48932168984E+02  0.57874327644E+02  0.21488331412E+03  0.00000000000E+00 0.  1.
         21    1    1    2  502  501 -0.36142088491E+02  0.12216176869E+02  0.49749552690E+01  0.38473831596E+02  0.00000000000E+00 0. -1.
<scales pt_clust_4="550.00000" pt_clust_5="550.00000" pt_clust_6="38.15083"></scales>
<mgrwt>
<rscale>  0 0.30000000E+03</rscale>
<asrwt>  1 0.38150826E+02</asrwt>
<pdfrwt beam="1">  1        1 0.86634139E+00 0.30000000E+03</pdfrwt>
<pdfrwt beam="2">0</pdfrwt>
<totfact> 0.27202633E-04</totfact>
</mgrwt>
<clustering>
<clus scale="   38.151">  1  6  2 -1</clus>
<clus scale="  471.391">  4  5 -1 -1</clus>
<clus scale="  300.000">  1  4  2 -1</clus>
</clustering>
</event>
<event>
 6    1  0.9687246E-012  0.3000000E+03  0.7818608E-02  0.1093470E+00
          1   -1    0    0  502    0  0.00000000000E+00  0.00000000000E+00  0.24368332574E+03  0.24368332574E+03  0.00000000000E+00 0.  1.
         13   -1    0    0    0    0 -0.00000000000E+00 -0.00000000000E+00 -0.27500000000E+03  0.27500000000E+03  0.00000000000E+00 0.  1.
    9000005    2    1    2  501    0  0.26788346377E+02 -0.22401322565E+02 -0.59533741620E+02  0.47378747243E+03  0.46873325877E+03 0.  0.
         13    1    3    3    0    0  0.21825921061E+03 -0.12571373783E+03 -0.43792794006E+02  0.25565374181E+03  0.00000000000E+00 0.  1.
          3    1    3    3  501    0 -0.19147086423E+03  0.10331241527E+03 -0.15740947614E+02  0.21813373061E+03  0.00000000000E+00 0.  1.
         21    1    1    2  502  501 -0.26788346377E+02  0.22401322565E+02  0.28217067355E+02  0.44895853310E+02  0.00000000000E+00 0.  1.
<scales pt_clust_4="550.00000" pt_clust_5="550.00000" pt_clust_6="34.92041"></scales>
<mgrwt>
<rscale>  0 0.30000000E+03</rscale>
<asrwt>  1 0.34920406E+02</asrwt>
<pdfrwt beam="1">  1        1 0.88612118E+00 0.30000000E+03</pdfrwt>
<pdfrwt beam="2">0</pdfrwt>
<totfact> 0.16385599E-04</totfact>
</mgrwt>
<clustering>
<clus scale="   34.920">  1  6  2 -1</clus>
<clus scale="  468.733">  4  5 -1 -1</clus>
<clus scale="  300.000">  1  4  2 -1</clus>
</clustering>
</event>
<event>
 6    1  0.9687246E-012  0.3000000E+03  0.7818608E-02  0.1093470E+00
          1   -1    0    0  502    0  0.00000000000E+00  0.00000000000E+00  0.23984874967E+03  0.23984874967E+03  0.00000000000E+00 0.  1.
         13   -1    0    0    0    0 -0.00000000000E+00 -0.00000000000E+00 -0.27500000000E+03  0.27500000000E+03  0.00000000000E+00 0.  1.
    9000005    2    1    2  501    0 -0.24557697288E+02  0.32023394560E+02 -0.49444468247E+02  0.47203666757E+03  0.46770212934E+03 0.  0.
         13    1    3    3    0    0 -0.67687803065E+02  0.73118015273E+02 -0.24665751485E+03  0.26602220297E+03  0.00000000000E+00 0.  1.
          1    1    3    3  501    0  0.43130105777E+02 -0.41094620712E+02  0.19721304660E+03  0.20601446460E+03  0.00000000000E+00 0.  1.
         21    1    1    2  502  501  0.24557697288E+02 -0.32023394560E+02  0.14293217913E+02  0.42812082098E+02  0.00000000000E+00 0. -1.
<scales pt_clust_4="550.00000" pt_clust_5="550.00000" pt_clust_6="40.35565"></scales>
<mgrwt>
<rscale>  0 0.30000000E+03</rscale>
<asrwt>  1 0.40355648E+02</asrwt>
<pdfrwt beam="1">  1        1 0.87217727E+00 0.30000000E+03</pdfrwt>
<pdfrwt beam="2">0</pdfrwt>
<totfact> 0.23436918E-04</totfact>
</mgrwt>
<clustering>
<clus scale="   40.356">  1  6  2 -1</clus>
<clus scale="  467.702">  4  5 -1 -1</clus>
<clus scale="  300.000">  1  4  2 -1</clus>
</clustering>
</event>
<event>
 6    1  0.9687246E-012  0.3000000E+03  0.7818608E-02  0.1093470E+00
          1   -1    0    0  502    0  0.00000000000E+00  0.00000000000E+00  0.25605959174E+03  0.25605959174E+03  0.00000000000E+00 0.  1.
         13   -1    0    0    0    0 -0.00000000000E+00 -0.00000000000E+00 -0.27500000000E+03  0.27500000000E+03  0.00000000000E+00 0.  1.
    9000005    2    1    2  501    0  0.11295090008E+02 -0.43771693578E+02 -0.35992369274E+02  0.48274489841E+03  0.47927408242E+03 0.  0.
         13    1    3    3    0    0 -0.21078414212E+03 -0.75670388190E+02 -0.10592237836E+03  0.24774081710E+03  0.00000000000E+00 0.  1.
          1    1    3    3  501    0  0.22207923213E+03  0.31898694611E+02  0.69930009084E+02  0.23500408131E+03  0.00000000000E+00 0.  1.
         21    1    1    2  502  501 -0.11295090008E+02  0.43771693578E+02  0.17051961009E+02  0.48314693327E+02  0.00000000000E+00 0. -1.
<scales pt_clust_4="550.00000" pt_clust_5="550.00000" pt_clust_6="45.20553"></scales>
<mgrwt>
<rscale>  0 0.30000000E+03</rscale>
<asrwt>  1 0.45205533E+02</asrwt>
<pdfrwt beam="1">  1        1 0.93112579E+00 0.30000000E+03</pdfrwt>
<pdfrwt beam="2">0</pdfrwt>
<totfact> 0.24123130E-05</totfact>
</mgrwt>
<clustering>
<clus scale="   45.206">  1  6  2 -1</clus>
<clus scale="  479.274">  4  5 -1 -1</clus>
<clus scale="  300.000">  1  4  2 -1</clus>
</clustering>
</event>
<event>
 6    1  0.9687246E-012  0.3000000E+03  0.7818608E-02  0.1093470E+00
          1   -1    0    0  502    0  0.00000000000E+00  0.00000000000E+00  0.23776864663E+03  0.23776864663E+03  0.00000000000E+00 0.  1.
         13   -1    0    0    0    0 -0.00000000000E+00 -0.00000000000E+00 -0.27500000000E+03  0.27500000000E+03  0.00000000000E+00 0.  1.
    9000005    2    1    2  501    0  0.31089886839E+02  0.39625689836E+00 -0.59445734118E+02  0.47455586349E+03  0.46979009588E+03 0.  0.
         13    1    3    3    0    0 -0.14059047695E+03 -0.16915850386E+03  0.19141361746E+02  0.22078648819E+03  0.00000000000E+00 0.  1.
          1    1    3    3  501    0  0.17168036379E+03  0.16955476076E+03 -0.78587095864E+02  0.25376937530E+03  0.00000000000E+00 0.  1.
         21    1    1    2  502  501 -0.31089886839E+02 -0.39625689836E+00  0.22214380745E+02  0.38212783137E+02  0.00000000000E+00 0.  1.
<scales pt_clust_4="550.00000" pt_clust_5="550.00000" pt_clust_6="31.09241"></scales>
<mgrwt>
<rscale>  0 0.30000000E+03</rscale>
<asrwt>  1 0.31092412E+02</asrwt>
<pdfrwt beam="1">  1        1 0.86461326E+00 0.30000000E+03</pdfrwt>
<pdfrwt beam="2">0</pdfrwt>
<totfact> 0.29498623E-04</totfact>
</mgrwt>
<clustering>
<clus scale="   31.092">  1  6  2 -1</clus>
<clus scale="  469.790">  4  5 -1 -1</clus>
<clus scale="  300.000">  1  4  2 -1</clus>
</clustering>
</event>
<event>
 6    1  0.9687246E-012  0.3000000E+03  0.7818608E-02  0.1093470E+00
          1   -1    0    0  502    0  0.00000000000E+00  0.00000000000E+00  0.21772384330E+03  0.21772384330E+03  0.00000000000E+00 0.  1.
         13   -1    0    0    0    0 -0.00000000000E+00 -0.00000000000E+00 -0.27500000000E+03  0.27500000000E+03  0.00000000000E+00 0.  1.
    9000005    2    1    2  501    0 -0.23149400539E+02 -0.19877318438E+02 -0.62688559735E+02  0.46173518989E+03  0.45644115450E+03 0.  0.
         13    1    3    3    0    0 -0.57282622170E+01  0.21418387426E+03  0.14260732831E+02  0.21473451861E+03  0.00000000000E+00 0.  1.
          1    1    3    3  501    0 -0.17421138322E+02 -0.23406119270E+03 -0.76949292566E+02  0.24700067128E+03  0.00000000000E+00 0.  1.
         21    1    1    2  502  501  0.23149400539E+02  0.19877318438E+02  0.54124030321E+01  0.30988653410E+02  0.00000000000E+00 0.  1.
<scales pt_clust_4="550.00000" pt_clust_5="550.00000" pt_clust_6="30.51233"></scales>
<mgrwt>
<rscale>  0 0.30000000E+03</rscale>
<asrwt>  1 0.30512334E+02</asrwt>
<pdfrwt beam="1">  1        1 0.79172307E+00 0.30000000E+03</pdfrwt>
<pdfrwt beam="2">0</pdfrwt>
<totfact> 0.12266576E-03</totfact>
</mgrwt>
<clustering>
<clus scale="   30.512">  1  6  2 -1</clus>
<clus scale="  456.441">  4  5 -1 -1</clus>
<clus scale="  300.000">  1  4  2 -1</clus>
</clustering>
</event>
<event>
 6    1  0.9687246E-012  0.3000000E+03  0.7818608E-02  0.1093470E+00
          1   -1    0    0  502    0  0.00000000000E+00  0.00000000000E+00  0.23433281946E+03  0.23433281946E+03  0.00000000000E+00 0.  1.
         13   -1    0    0    0    0 -0.00000000000E+00 -0.00000000000E+00 -0.27500000000E+03  0.27500000000E+03  0.00000000000E+00 0.  1.
    9000005    2    1    2  501    0  0.26736361864E+02 -0.14086894600E+02 -0.49838779118E+02  0.47775130800E+03  0.47418259642E+03 0.  0.
         13    1    3    3    0    0  0.16616583873E+02  0.25679586381E+02 -0.26092603816E+03  0.26271267462E+03  0.00000000000E+00 0.  1.
          1    1    3    3  501    0  0.10119777991E+02 -0.39766480981E+02  0.21108725904E+03  0.21503863338E+03  0.00000000000E+00 0.  1.
         21    1    1    2  502  501 -0.26736361864E+02  0.14086894600E+02  0.91715985748E+01  0.31581511452E+02  0.00000000000E+00 0.  1.
<scales pt_clust_4="550.00000" pt_clust_5="550.00000" pt_clust_6="30.22042"></scales>
<mgrwt>
<rscale>  0 0.30000000E+03</rscale>
<asrwt>  1 0.30220418E+02</asrwt>
<pdfrwt beam="1">  1        1 0.85211934E+00 0.30000000E+03</pdfrwt>
<pdfrwt beam="2">0</pdfrwt>
<totfact> 0.39954506E-04</totfact>
</mgrwt>
<clustering>
<clus scale="   30.220">  1  6  2 -1</clus>
<clus scale="  474.183">  4  5 -1 -1</clus>
<clus scale="  300.000">  1  4  2 -1</clus>
</clustering>
</event>
<event>
 6    1  0.9687246E-012  0.3000000E+03  0.7818608E-02  0.1093470E+00
          1   -1    0    0  502    0  0.00000000000E+00  0.00000000000E+00  0.25274893401E+03  0.25274893401E+03  0.00000000000E+00 0.  1.
         13   -1    0    0    0    0 -0.00000000000E+00 -0.00000000000E+00 -0.27500000000E+03  0.27500000000E+03  0.00000000000E+00 0.  1.
    9000005    2    1    2  501    0 -0.26157261914E+01  0.38876711962E+02 -0.31187821316E+02  0.48777261162E+03  0.48521253043E+03 0.  0.
         13    1    3    3    0    0 -0.23023014496E+03 -0.44412650203E+02  0.33646069275E+02  0.23687646807E+03  0.00000000000E+00 0.  1.
          1    1    3    3  501    0  0.22761441877E+03  0.83289362165E+02 -0.64833890591E+02  0.25089614355E+03  0.00000000000E+00 0.  1.
         21    1    1    2  502  501  0.26157261914E+01 -0.38876711962E+02  0.89367553288E+01  0.39976322396E+02  0.00000000000E+00 0. -1.
<scales pt_clust_4="550.00000" pt_clust_5="550.00000" pt_clust_6="38.96461"></scales>
<mgrwt>
<rscale>  0 0.30000000E+03</rscale>
<asrwt>  1 0.38964609E+02</asrwt>
<pdfrwt beam="1">  1        1 0.91908703E+00 0.30000000E+03</pdfrwt>
<pdfrwt beam="2">0</pdfrwt>
<totfact> 0.42903318E-05</totfact>
</mgrwt>
<clustering>
<clus scale="   38.965">  1  6  2 -1</clus>
<clus scale="  485.213">  4  5 -1 -1</clus>
<clus scale="  300.000">  1  4  2 -1</clus>
</clustering>
</event>
<event>
 6    1  0.9687246E-012  0.3000000E+03  0.7818608E-02  0.1093470E+00
          1   -1    0    0  502    0  0.00000000000E+00  0.00000000000E+00  0.24244883544E+03  0.24244883544E+03  0.00000000000E+00 0.  1.
         13   -1    0    0    0    0 -0.00000000000E+00 -0.00000000000E+00 -0.27500000000E+03  0.27500000000E+03  0.00000000000E+00 0.  1.
    9000005    2    1    2  501    0  0.38047658697E+02  0.11272448628E+02 -0.49427076764E+02  0.47432704462E+03  0.47007277832E+03 0.  0.
         13    1    3    3    0    0 -0.19556495060E+03 -0.48845085937E+02  0.58746898049E+02  0.20995878251E+03  0.00000000000E+00 0.  1.
          3    1    3    3  501    0  0.23361260930E+03  0.60117534565E+02 -0.10817397481E+03  0.26436826211E+03  0.00000000000E+00 0.  1.
         21    1    1    2  502  501 -0.38047658697E+02 -0.11272448628E+02  0.16875912203E+02  0.43121790815E+02  0.00000000000E+00 0. -1.
<scales pt_clust_4="550.00000" pt_clust_5="550.00000" pt_clust_6="39.68239"></scales>
<mgrwt>
<rscale>  0 0.30000000E+03</rscale>
<asrwt>  1 0.39682394E+02</asrwt>
<pdfrwt beam="1">  1        1 0.88163213E+00 0.30000000E+03</pdfrwt>
<pdfrwt beam="2">0</pdfrwt>
<totfact> 0.18391126E-04</totfact>
</mgrwt>
<clustering>
<clus scale="   39.682">  1  6  2 -1</clus>
<clus scale="  470.073">  4  5 -1 -1</clus>
<clus scale="  300.000">  1  4  2 -1</clus>
</clustering>
</event>
<event>
 6    1  0.9687246E-012  0.3000000E+03  0.7818608E-02  0.1093470E+00
          1   -1    0    0  502    0  0.00000000000E+00  0.00000000000E+00  0.22768943184E+03  0.22768943184E+03  0.00000000000E+00 0.  1.
         13   -1    0    0    0    0 -0.00000000000E+00 -0.00000000000E+00 -0.27500000000E+03  0.27500000000E+03  0.00000000000E+00 0.  1.
    9000005    2    1    2  501    0 -0.13610939528E+01  0.35609686352E+02 -0.48242379340E+02  0.46704156219E+03  0.46317447178E+03 0.  0.
         13    1    3    3    0    0 -0.72978722046E+02 -0.92926874431E+02  0.16805778550E+03  0.20543786684E+03  0.00000000000E+00 0.  1.
          3    1    3    3  501    0  0.71617628093E+02  0.12853656078E+03 -0.21630016484E+03  0.26160369535E+03  0.00000000000E+00 0.  1.
         21    1    1    2  502  501  0.13610939528E+01 -0.35609686352E+02  0.93181118414E+00  0.35647869655E+02  0.00000000000E+00 0.  1.
<scales pt_clust_4="550.00000" pt_clust_5="550.00000" pt_clust_6="35.63569"></scales>
<mgrwt>
<rscale>  0 0.30000000E+03</rscale>
<asrwt>  1 0.35635689E+02</asrwt>
<pdfrwt beam="1">  1        1 0.82796157E+00 0.30000000E+03</pdfrwt>
<pdfrwt beam="2">0</pdfrwt>
<totfact> 0.61295362E-04</totfact>
</mgrwt>
<clustering>
<clus scale="   35.636">  1  6  2 -1</clus>
<clus scale="  463.174">  4  5 -1 -1</clus>
<clus scale="  300.000">  1  4  2 -1</clus>
</clustering>
</event>
<event>
 6    1  0.9687246E-012  0.3000000E+03  0.7818608E-02  0.1093470E+00
          1   -1    0    0  502    0  0.00000000000E+00  0.00000000000E+00  0.23673007557E+03  0.23673007557E+03  0.00000000000E+00 0.  1.
         13   -1    0    0    0    0 -0.00000000000E+00 -0.00000000000E+00 -0.27500000000E+03  0.27500000000E+03  0.00000000000E+00 0.  1.
    9000005    2    1    2  501    0 -0.59806347001E+01  0.39301303820E+02 -0.56043489821E+02  0.46818400686E+03  0.46311449022E+03 0.  0.
         13    1    3    3    0    0 -0.84174145449E+02 -0.19709372988E+03 -0.71354923691E+01  0.21443446638E+03  0.00000000000E+00 0.  1.
          1    1    3    3  501    0  0.78193510749E+02  0.23639503370E+03 -0.48907997452E+02  0.25374954048E+03  0.00000000000E+00 0.  1.
         21    1    1    2  502  501  0.59806347001E+01 -0.39301303820E+02  0.17773565388E+02  0.43546068709E+02  0.00000000000E+00 0.  1.
<scales pt_clust_4="550.00000" pt_clust_5="550.00000" pt_clust_6="39.75375"></scales>
<mgrwt>
<rscale>  0 0.30000000E+03</rscale>
<asrwt>  1 0.39753748E+02</asrwt>
<pdfrwt beam="1">  1        1 0.86083664E+00 0.30000000E+03</pdfrwt>
<pdfrwt beam="2">0</pdfrwt>
<totfact> 0.30948831E-04</totfact>
</mgrwt>
<clustering>
<clus scale="   39.754">  1  6  2 -1</clus>
<clus scale="  463.114">  4  5 -1 -1</clus>
<clus scale="  300.000">  1  4  2 -1</clus>
</clustering>
</event>
<event>
 6    1  0.9687246E-012  0.3000000E+03  0.7818608E-02  0.1093470E+00
          1   -1    0    0  502    0  0.00000000000E+00  0.00000000000E+00  0.24588766009E+03  0.24588766009E+03  0.00000000000E+00 0.  1.
         13   -1    0    0    0    0 -0.00000000000E+00 -0.00000000000E+00 -0.27500000000E+03  0.27500000000E+03  0.00000000000E+00 0.  1.
    9000005    2    1    2  501    0  0.36707511498E+02 -0.24866337412E+02 -0.37303849509E+02  0.47580022319E+03  0.47225893222E+03 0.  0.
         13    1    3    3    0    0  0.11650716639E+02  0.21313769136E+03 -0.88484883031E+02  0.23106923032E+03  0.00000000000E+00 0.  1.
          1    1    3    3  501    0  0.25056794860E+02 -0.23800402877E+03  0.51181033522E+02  0.24473099287E+03  0.00000000000E+00 0.  1.
         21    1    1    2  502  501 -0.36707511498E+02  0.24866337412E+02  0.81915096003E+01  0.45087436900E+02  0.00000000000E+00 0.  1.
<scales pt_clust_4="550.00000" pt_clust_5="550.00000" pt_clust_6="44.33707"></scales>
<mgrwt>
<rscale>  0 0.30000000E+03</rscale>
<asrwt>  1 0.44337074E+02</asrwt>
<pdfrwt beam="1">  1        1 0.89413695E+00 0.30000000E+03</pdfrwt>
<pdfrwt beam="2">0</pdfrwt>
<totfact> 0.12349401E-04</totfact>
</mgrwt>
<clustering>
<clus scale="   44.337">  1  6  2 -1</clus>
<clus scale="  472.259">  4  5 -1 -1</clus>
<clus scale="  300.000">  1  4  2 -1</clus>
</clustering>
</event>
<event>
 6    1  0.9687246E-012  0.3000000E+03  0.7818608E-02  0.1093470E+00
          1   -1    0    0  502    0  0.00000000000E+00  0.00000000000E+00  0.24518886407E+03  0.24518886407E+03  0.00000000000E+00 0.  1.
         13   -1    0    0    0    0 -0.00000000000E+00 -0.00000000000E+00 -0.27500000000E+03  0.27500000000E+03  0.00000000000E+00 0.  1.
    9000005    2    1    2  501    0 -0.32398080986E+02 -0.11299070129E+02 -0.60185294391E+02  0.47436426217E+03  0.46927804010E+03 0.  0.
         13    1    3    3    0    0  0.17435339278E+03 -0.60308345426E+02  0.98528531705E+02  0.20915083950E+03  0.00000000000E+00 0.  1.
          1    1    3    3  501    0 -0.20675147377E+03  0.49009275297E+02 -0.15871382610E+03  0.26521342267E+03  0.00000000000E+00 0.  1.
         21    1    1    2  502  501  0.32398080986E+02  0.11299070129E+02  0.30374158456E+02  0.45824601900E+02  0.00000000000E+00 0.  1.
<scales pt_clust_4="550.00000" pt_clust_5="550.00000" pt_clust_6="34.31187"></scales>
<mgrwt>
<rscale>  0 0.30000000E+03</rscale>
<asrwt>  1 0.34311873E+02</asrwt>
<pdfrwt beam="1">  1        1 0.89159587E+00 0.30000000E+03</pdfrwt>
<pdfrwt beam="2">0</pdfrwt>
<totfact> 0.13874875E-04</totfact>
</mgrwt>
<clustering>
<clus scale="   34.312">  1  6  2 -1</clus>
<clus scale="  469.278">  4  5 -1 -1</clus>
<clus scale="  300.000">  1  4  2 -1</clus>
</clustering>
</event>
<event>
 6    1  0.9687246E-012  0.3000000E+03  0.7818608E-02  0.1093470E+00
          1   -1    0    0  502    0  0.00000000000E+00  0.00000000000E+00  0.22748263978E+03  0.22748263978E+03  0.00000000000E+00 0.  1.
         13   -1    0    0    0    0 -0.00000000000E+00 -0.00000000000E+00 -0.27500000000E+03  0.27500000000E+03  0.00000000000E+00 0.  1.
    9000005    2    1    2  501    0  0.21934786727E+02  0.27588668119E+02 -0.35871432297E+02  0.46536260322E+03  0.46263735619E+03 0.  0.
         13    1    3    3    0    0  0.29627851666E+02 -0.19746653223E+03  0.76333074133E+02  0.21376992106E+03  0.00000000000E+00 0.  1.
          3    1    3    3  501    0 -0.76930649394E+01  0.22505520035E+03 -0.11220450643E+03  0.25159268216E+03  0.00000000000E+00 0.  1.
         21    1    1    2  502  501 -0.21934786727E+02 -0.27588668119E+02 -0.11645927922E+02  0.37120036564E+02  0.00000000000E+00 0. -1.
<scales pt_clust_4="550.00000" pt_clust_5="550.00000" pt_clust_6="35.24586"></scales>
<mgrwt>
<rscale>  0 0.30000000E+03</rscale>
<asrwt>  1 0.35245861E+02</asrwt>
<pdfrwt beam="1">  1        1 0.82720960E+00 0.30000000E+03</pdfrwt>
<pdfrwt beam="2">0</pdfrwt>
<totfact> 0.62355695E-04</totfact>
</mgrwt>
<clustering>
<clus scale="   35.246">  1  6  2 -1</clus>
<clus scale="  462.637">  4  5 -1 -1</clus>
<clus scale="  300.000">  1  4  2 -1</clus>
</clustering>
</event>
<event>
 6    1  0.9687246E-012  0.3000000E+03  0.7818608E-02  0.1093470E+00
          1   -1    0    0  502    0  0.00000000000E+00  0.00000000000E+00  0.23021006504E+03  0.23021006504E+03  0.00000000000E+00 0.  1.
         13   -1    0    0    0    0 -0.00000000000E+00 -0.00000000000E+00 -0.27500000000E+03  0.27500000000E+03  0.00000000000E+00 0.  1.
    9000005    2    1    2  501    0 -0.38557394499E+02  0.23804056195E+01 -0.18811554082E+02  0.45865670561E+03  0.45663963914E+03 0.  0.
         13    1    3    3    0    0  0.77168103623E+00  0.22747543630E+03 -0.32277106169E+02  0.22975526369E+03  0.00000000000E+00 0.  1.
          1    1    3    3  501    0 -0.39329075535E+02 -0.22509503068E+03  0.13465552088E+02  0.22890144192E+03  0.00000000000E+00 0.  1.
         21    1    1    2  502  501  0.38557394499E+02 -0.23804056195E+01 -0.25978380874E+02  0.46553359430E+02  0.00000000000E+00 0.  1.
<scales pt_clust_4="550.00000" pt_clust_5="550.00000" pt_clust_6="38.63082"></scales>
<mgrwt>
<rscale>  0 0.30000000E+03</rscale>
<asrwt>  1 0.38630823E+02</asrwt>
<pdfrwt beam="1">  1        1 0.83712751E+00 0.30000000E+03</pdfrwt>
<pdfrwt beam="2">0</pdfrwt>
<totfact> 0.51260891E-04</totfact>
</mgrwt>
<clustering>
<clus scale="   38.631">  1  6  2 -1</clus>
<clus scale="  456.640">  4  5 -1 -1</clus>
<clus scale="  300.000">  1  4  2 -1</clus>
</clustering>
</event>
<event>
 6    1  0.9687246E-012  0.3000000E+03  0.7818608E-02  0.1093470E+00
          1   -1    0    0  502    0  0.00000000000E+00  0.00000000000E+00  0.24146769116E+03  0.24146769116E+03  0.00000000000E+00 0.  1.
         13   -1    0    0    0    0 -0.00000000000E+00 -0.00000000000E+00 -0.27500000000E+03  0.27500000000E+03  0.00000000000E+00 0.  1.
    9000005    2    1    2  501    0  0.11865879606E+01  0.38440586365E+02 -0.61436131509E+02  0.46895232532E+03  0.46331716836E+03 0.  0.
         13    1    3    3    0    0 -0.74636542212E+02 -0.18424450566E+03  0.55305244275E+02  0.20633788151E+03  0.00000000000E+00 0.  1.
          1    1    3    3  501    0  0.75823130173E+02  0.22268509203E+03 -0.11674137578E+03  0.26261444382E+03  0.00000000000E+00 0.  1.
         21    1    1    2  502  501 -0.11865879606E+01 -0.38440586365E+02  0.27903822671E+02  0.47515365838E+02  0.00000000000E+00 0. -1.
<scales pt_clust_4="550.00000" pt_clust_5="550.00000" pt_clust_6="38.45890"></scales>
<mgrwt>
<rscale>  0 0.30000000E+03</rscale>
<asrwt>  1 0.38458896E+02</asrwt>
<pdfrwt beam="1">  1        1 0.87806433E+00 0.30000000E+03</pdfrwt>
<pdfrwt beam="2">0</pdfrwt>
<totfact> 0.20454045E-04</totfact>
</mgrwt>
<clustering>
<clus scale="   38.459">  1  6  2 -1</clus>
<clus scale="  463.317">  4  5 -1 -1</clus>
<clus scale="  300.000">  1  4  2 -1</clus>
</clustering>
</event>
<event>
 6    1  0.9687246E-012  0.3000000E+03  0.7818608E-02  0.1093470E+00
          1   -1    0    0  502    0  0.00000000000E+00  0.00000000000E+00  0.22276061689E+03  0.22276061689E+03  0.00000000000E+00 0.  1.
         13   -1    0    0    0    0 -0.00000000000E+00 -0.00000000000E+00 -0.27500000000E+03  0.27500000000E+03  0.00000000000E+00 0.  1.
    9000005    2    1    2  501    0 -0.35314976438E+01 -0.35700731040E+02 -0.52951962658E+02  0.46187856787E+03  0.45742855992E+03 0.  0.
         13    1    3    3    0    0 -0.21410605472E+03 -0.43540934458E+02 -0.10851991010E+03  0.24395447635E+03  0.00000000000E+00 0.  1.
          3    1    3    3  501    0  0.21057455708E+03  0.78402034172E+01  0.55567947444E+02  0.21792409151E+03  0.00000000000E+00 0.  1.
         21    1    1    2  502  501  0.35314976438E+01  0.35700731040E+02  0.71257954688E+00  0.35882049022E+02  0.00000000000E+00 0.  1.
<scales pt_clust_4="550.00000" pt_clust_5="550.00000" pt_clust_6="35.87497"></scales>
<mgrwt>
<rscale>  0 0.30000000E+03</rscale>
<asrwt>  1 0.35874973E+02</asrwt>
<pdfrwt beam="1">  1        1 0.81003861E+00 0.30000000E+03</pdfrwt>
<pdfrwt beam="2">0</pdfrwt>
<totfact> 0.86753560E-04</totfact>
</mgrwt>
<clustering>
<clus scale="   35.875">  1  6  2 -1</clus>
<clus scale="  457.429">  4  5 -1 -1</clus>
<clus scale="  300.000">  1  4  2 -1</clus>
</clustering>
</event>
<event>
 6    1  0.9687246E-012  0.3000000E+03  0.7818608E-02  0.1093470E+00
          1   -1    0    0  502    0  0.00000000000E+00  0.00000000000E+00  0.22413225334E+03  0.22413225334E+03  0.00000000000E+00 0.  1.
         13   -1    0    0    0    0 -0.00000000000E+00 -0.00000000000E+00 -0.27500000000E+03  0.27500000000E+03  0.00000000000E+00 0.  1.
    9000005    2    1    2  501    0  0.15668247329E+02 -0.26962917917E+02 -0.57594604055E+02  0.46723016050E+03  0.46261689501E+03 0.  0.
         13    1    3    3    0    0  0.95912299022E+01 -0.18481967418E+03 -0.18694438391E+03  0.26305608970E+03  0.00000000000E+00 0.  1.
          1    1    3    3  501    0  0.60770174268E+01  0.15785675626E+03  0.12934977985E+03  0.20417407080E+03  0.00000000000E+00 0.  1.
         21    1    1    2  502  501 -0.15668247329E+02  0.26962917917E+02  0.67268573929E+01  0.31902092837E+02  0.00000000000E+00 0. -1.
<scales pt_clust_4="550.00000" pt_clust_5="550.00000" pt_clust_6="31.18482"></scales>
<mgrwt>
<rscale>  0 0.30000000E+03</rscale>
<asrwt>  1 0.31184819E+02</asrwt>
<pdfrwt beam="1">  1        1 0.81502638E+00 0.30000000E+03</pdfrwt>
<pdfrwt beam="2">0</pdfrwt>
<totfact> 0.81320373E-04</totfact>
</mgrwt>
<clustering>
<clus scale="   31.185">  1  6  2 -1</clus>
<clus scale="  462.617">  4  5 -1 -1</clus>
<clus scale="  300.000">  1  4  2 -1</clus>
</clustering>
</event>
<event>
 6    1  0.9687246E-012  0.3000000E+03  0.7818608E-02  0.1093470E+00
          1   -1    0    0  502    0  0.00000000000E+00  0.00000000000E+00  0.24233791254E+03  0.24233791254E+03  0.00000000000E+00 0.  1.
         13   -1    0    0    0    0 -0.00000000000E+00 -0.00000000000E+00 -0.27500000000E+03  0.27500000000E+03  0.00000000000E+00 0.  1.
    9000005    2    1    2  501    0 -0.15298158303E+02 -0.29528177538E+02 -0.12151463344E+02  0.47826576622E+03  0.47695339202E+03 0.  0.
         13    1    3    3    0    0  0.91851821553E+02  0.80637128731E+02 -0.20071989011E+03  0.23500548491E+03  0.00000000000E+00 0.  1.
          3    1    3    3  501    0 -0.10714997986E+03 -0.11016530627E+03  0.18856842676E+03  0.24326028131E+03  0.00000000000E+00 0.  1.
         21    1    1    2  502  501  0.15298158303E+02  0.29528177538E+02 -0.20510624121E+02  0.39072146319E+02  0.00000000000E+00 0.  1.
<scales pt_clust_4="550.00000" pt_clust_5="550.00000" pt_clust_6="33.25580"></scales>
<mgrwt>
<rscale>  0 0.30000000E+03</rscale>
<asrwt>  1 0.33255797E+02</asrwt>
<pdfrwt beam="1">  1        1 0.88122877E+00 0.30000000E+03</pdfrwt>
<pdfrwt beam="2">0</pdfrwt>
<totfact> 0.19232808E-04</totfact>
</mgrwt>
<clustering>
<clus scale="   33.256">  1  6  2 -1</clus>
<clus scale="  476.953">  4  5 -1 -1</clus>
<clus scale="  300.000">  1  4  2 -1</clus>
</clustering>
</event>
<event>
 6    1  0.9687246E-012  0.3000000E+03  0.7818608E-02  0.1093470E+00
          1   -1    0    0  502    0  0.00000000000E+00  0.00000000000E+00  0.22435019785E+03  0.22435019785E+03  0.00000000000E+00 0.  1.
         13   -1    0    0    0    0 -0.00000000000E+00 -0.00000000000E+00 -0.27500000000E+03  0.27500000000E+03  0.00000000000E+00 0.  1.
    9000005    2    1    2  501    0  0.56773703410E+01  0.34031549661E+02 -0.49354767123E+02  0.46482403354E+03  0.46090683463E+03 0.  0.
         13    1    3    3    0    0 -0.19470636435E+03 -0.20872937751E+02  0.89109174204E+02  0.21514342373E+03  0.00000000000E+00 0.  1.
          3    1    3    3  501    0  0.20038373469E+03  0.54904487411E+02 -0.13846394133E+03  0.24968060981E+03  0.00000000000E+00 0.  1.
         21    1    1    2  502  501 -0.56773703410E+01 -0.34031549661E+02 -0.12950350268E+01  0.34526164311E+02  0.00000000000E+00 0. -1.
<scales pt_clust_4="550.00000" pt_clust_5="550.00000" pt_clust_6="34.50187"></scales>
<mgrwt>
<rscale>  0 0.30000000E+03</rscale>
<asrwt>  1 0.34501868E+02</asrwt>
<pdfrwt beam="1">  1        1 0.81581890E+00 0.30000000E+03</pdfrwt>
<pdfrwt beam="2">0</pdfrwt>
<totfact> 0.78606710E-04</totfact>
</mgrwt>
<clustering>
<clus scale="   34.502">  1  6  2 -1</clus>
<clus scale="  460.907">  4  5 -1 -1</clus>
<clus scale="  300.000">  1  4  2 -1</clus>
</clustering>
</event>
<event>
 6    1  0.9687246E-012  0.3000000E+03  0.7818608E-02  0.1093470E+00
          1   -1    0    0  502    0  0.00000000000E+00  0.00000000000E+00  0.24040032774E+03  0.24040032774E+03  0.00000000000E+00 0.  1.
         13   -1    0    0    0    0 -0.00000000000E+00 -0.00000000000E+00 -0.27500000000E+03  0.27500000000E+03  0.00000000000E+00 0.  1.
    9000005    2    1    2  501    0  0.40819096587E+02 -0.24300785871E+02 -0.49471904594E+02  0.46562171652E+03  0.46054249176E+03 0.  0.
         13    1    3    3    0    0  0.24177331186E+03 -0.78563770919E+02 -0.15239123137E+02  0.25467397060E+03  0.00000000000E+00 0.  1.
          1    1    3    3  501    0 -0.20095421527E+03  0.54262985047E+02 -0.34232781457E+02  0.21094774592E+03  0.00000000000E+00 0.  1.
         21    1    1    2  502  501 -0.40819096587E+02  0.24300785871E+02  0.14872232336E+02  0.49778611218E+02  0.00000000000E+00 0.  1.
<scales pt_clust_4="550.00000" pt_clust_5="550.00000" pt_clust_6="47.50502"></scales>
<mgrwt>
<rscale>  0 0.30000000E+03</rscale>
<asrwt>  1 0.47505019E+02</asrwt>
<pdfrwt beam="1">  1        1 0.87418301E+00 0.30000000E+03</pdfrwt>
<pdfrwt beam="2">0</pdfrwt>
<totfact> 0.21701554E-04</totfact>
</mgrwt>
<clustering>
<clus scale="   47.505">  1  6  2 -1</clus>
<clus scale="  460.542">  4  5 -1 -1</clus>
<clus scale="  300.000">  1  4  2 -1</clus>
</clustering>
</event>
<event>
 6    1  0.9687246E-012  0.3000000E+03  0.7818608E-02  0.1093470E+00
          1   -1    0    0  502    0  0.00000000000E+00  0.00000000000E+00  0.22696326378E+03  0.22696326378E+03  0.00000000000E+00 0.  1.
         13   -1    0    0    0    0 -0.00000000000E+00 -0.00000000000E+00 -0.27500000000E+03  0.27500000000E+03  0.00000000000E+00 0.  1.
    9000005    2    1    2  501    0 -0.16045699518E+02  0.27222132236E+02 -0.33206504006E+02  0.46705703591E+03  0.46480220947E+03 0.  0.
         13    1    3    3    0    0 -0.13150390960E+03 -0.18239811790E+03  0.38336293221E+01  0.22489341557E+03  0.00000000000E+00 0.  1.
          1    1    3    3  501    0  0.11545821008E+03  0.20962025013E+03 -0.37040133328E+02  0.24216362034E+03  0.00000000000E+00 0.  1.
         21    1    1    2  502  501  0.16045699518E+02 -0.27222132236E+02 -0.14830232212E+02  0.34906227868E+02  0.00000000000E+00 0. -1.
<scales pt_clust_4="550.00000" pt_clust_5="550.00000" pt_clust_6="31.59921"></scales>
<mgrwt>
<rscale>  0 0.30000000E+03</rscale>
<asrwt>  1 0.31599208E+02</asrwt>
<pdfrwt beam="1">  1        1 0.82532096E+00 0.30000000E+03</pdfrwt>
<pdfrwt beam="2">0</pdfrwt>
<totfact> 0.66152506E-04</totfact>
</mgrwt>
<clustering>
<clus scale="   31.599">  1  6  2 -1</clus>
<clus scale="  464.802">  4  5 -1 -1</clus>
<clus scale="  300.000">  1  4  2 -1</clus>
</clustering>
</event>
<event>
 6    1  0.9687246E-012  0.3000000E+03  0.7818608E-02  0.1093470E+00
          1   -1    0    0  502    0  0.00000000000E+00  0.00000000000E+00  0.22233029756E+03  0.22233029756E+03  0.00000000000E+00 0.  1.
         13   -1    0    0    0    0 -0.00000000000E+00 -0.00000000000E+00 -0.27500000000E+03  0.27500000000E+03  0.00000000000E+00 0.  1.
    9000005    2    1    2  501    0  0.29891825750E+02 -0.87461137056E+01 -0.50020277718E+02  0.46607273523E+03  0.46233294344E+03 0.  0.
         13    1    3    3    0    0 -0.11880780248E+03 -0.16775358142E+03  0.70398509182E+02  0.21728439453E+03  0.00000000000E+00 0.  1.
          1    1    3    3  501    0  0.14869962823E+03  0.15900746772E+03 -0.12041878690E+03  0.24878834069E+03  0.00000000000E+00 0.  1.
         21    1    1    2  502  501 -0.29891825750E+02  0.87461137056E+01 -0.26494247235E+01  0.31257562333E+02  0.00000000000E+00 0. -1.
<scales pt_clust_4="550.00000" pt_clust_5="550.00000" pt_clust_6="31.14508"></scales>
<mgrwt>
<rscale>  0 0.30000000E+03</rscale>
<asrwt>  1 0.31145076E+02</asrwt>
<pdfrwt beam="1">  1        1 0.80847381E+00 0.30000000E+03</pdfrwt>
<pdfrwt beam="2">0</pdfrwt>
<totfact> 0.91626430E-04</totfact>
</mgrwt>
<clustering>
<clus scale="   31.145">  1  6  2 -1</clus>
<clus scale="  462.333">  4  5 -1 -1</clus>
<clus scale="  300.000">  1  4  2 -1</clus>
</clustering>
</event>
<event>
 6    1  0.9687246E-012  0.3000000E+03  0.7818608E-02  0.1093470E+00
          1   -1    0    0  502    0  0.00000000000E+00  0.00000000000E+00  0.24844150103E+03  0.24844150103E+03  0.00000000000E+00 0.  1.
         13   -1    0    0    0    0 -0.00000000000E+00 -0.00000000000E+00 -0.27500000000E+03  0.27500000000E+03  0.00000000000E+00 0.  1.
    9000005    2    1    2  501    0  0.10819776940E+02 -0.34773835338E+02 -0.42003792885E+02  0.48388338806E+03  0.48067923549E+03 0.  0.
         13    1    3    3    0    0 -0.34129501333E+02 -0.24599194294E+03 -0.87282448178E+02  0.26323959545E+03  0.00000000000E+00 0.  1.
          3    1    3    3  501    0  0.44949278273E+02  0.21121810760E+03  0.45278655292E+02  0.22064379262E+03  0.00000000000E+00 0.  1.
         21    1    1    2  502  501 -0.10819776940E+02  0.34773835338E+02  0.15445293912E+02  0.39558112962E+02  0.00000000000E+00 0. -1.
<scales pt_clust_4="550.00000" pt_clust_5="550.00000" pt_clust_6="36.41823"></scales>
<mgrwt>
<rscale>  0 0.30000000E+03</rscale>
<asrwt>  1 0.36418226E+02</asrwt>
<pdfrwt beam="1">  1        1 0.90342364E+00 0.30000000E+03</pdfrwt>
<pdfrwt beam="2">0</pdfrwt>
<totfact> 0.97903287E-05</totfact>
</mgrwt>
<clustering>
<clus scale="   36.418">  1  6  2 -1</clus>
<clus scale="  480.679">  4  5 -1 -1</clus>
<clus scale="  300.000">  1  4  2 -1</clus>
</clustering>
</event>
<event>
 6    1  0.9687246E-012  0.3000000E+03  0.7818608E-02  0.1093470E+00
          1   -1    0    0  502    0  0.00000000000E+00  0.00000000000E+00  0.23074190134E+03  0.23074190134E+03  0.00000000000E+00 0.  1.
         13   -1    0    0    0    0 -0.00000000000E+00 -0.00000000000E+00 -0.27500000000E+03  0.27500000000E+03  0.00000000000E+00 0.  1.
    9000005    2    1    2  501    0  0.27531249688E+02 -0.13914901629E+02 -0.62613941086E+02  0.46984578528E+03  0.46463207179E+03 0.  0.
         13    1    3    3    0    0  0.82416445994E+01  0.22475838501E+03 -0.12838946739E+02  0.22527559764E+03  0.00000000000E+00 0.  1.
          3    1    3    3  501    0  0.19289605089E+02 -0.23867328664E+03 -0.49774994346E+02  0.24457018764E+03  0.00000000000E+00 0.  1.
         21    1    1    2  502  501 -0.27531249688E+02  0.13914901629E+02  0.18355842427E+02  0.35896116057E+02  0.00000000000E+00 0.  1.
<scales pt_clust_4="550.00000" pt_clust_5="550.00000" pt_clust_6="30.84792"></scales>
<mgrwt>
<rscale>  0 0.30000000E+03</rscale>
<asrwt>  1 0.30847920E+02</asrwt>
<pdfrwt beam="1">  1        1 0.83906146E+00 0.30000000E+03</pdfrwt>
<pdfrwt beam="2">0</pdfrwt>
<totfact> 0.51746405E-04</totfact>
</mgrwt>
<clustering>
<clus scale="   30.848">  1  6  2 -1</clus>
<clus scale="  464.632">  4  5 -1 -1</clus>
<clus scale="  300.000">  1  4  2 -1</clus>
</clustering>
</event>
<event>
 6    1  0.9687246E-012  0.3000000E+03  0.7818608E-02  0.1093470E+00
          1   -1    0    0  502    0  0.00000000000E+00  0.00000000000E+00  0.23313548218E+03  0.23313548218E+03  0.00000000000E+00 0.  1.
         13   -1    0    0    0    0 -0.00000000000E+00 -0.00000000000E+00 -0.27500000000E+03  0.27500000000E+03  0.00000000000E+00 0.  1.
    9000005    2    1    2  501    0 -0.28618840915E+02  0.99835523247E+01 -0.29063534209E+02  0.47523298146E+03  0.47337404689E+03 0.  0.
         13    1    3    3    0    0  0.82395985544E+02  0.16573911280E+03  0.13023285415E+03  0.22631647807E+03  0.00000000000E+00 0.  1.
          1    1    3    3  501    0 -0.11101482646E+03 -0.15575556048E+03 -0.15929638836E+03  0.24891650339E+03  0.00000000000E+00 0.  1.
         21    1    1    2  502  501  0.28618840915E+02 -0.99835523247E+01 -0.12800983612E+02  0.32902500722E+02  0.00000000000E+00 0. -1.
<scales pt_clust_4="550.00000" pt_clust_5="550.00000" pt_clust_6="30.31023"></scales>
<mgrwt>
<rscale>  0 0.30000000E+03</rscale>
<asrwt>  1 0.30310234E+02</asrwt>
<pdfrwt beam="1">  1        1 0.84776539E+00 0.30000000E+03</pdfrwt>
<pdfrwt beam="2">0</pdfrwt>
<totfact> 0.43864022E-04</totfact>
</mgrwt>
<clustering>
<clus scale="   30.310">  1  6  2 -1</clus>
<clus scale="  473.374">  4  5 -1 -1</clus>
<clus scale="  300.000">  1  4  2 -1</clus>
</clustering>
</event>
<event>
 6    1  0.9687246E-012  0.3000000E+03  0.7818608E-02  0.1093470E+00
          1   -1    0    0  502    0  0.00000000000E+00  0.00000000000E+00  0.23839829729E+03  0.23839829729E+03  0.00000000000E+00 0.  1.
         13   -1    0    0    0    0 -0.00000000000E+00 -0.00000000000E+00 -0.27500000000E+03  0.27500000000E+03  0.00000000000E+00 0.  1.
    9000005    2    1    2  501    0  0.71692118516E+01  0.31809338250E+02 -0.73336538185E+02  0.46427926090E+03  0.45728957201E+03 0.  0.
         13    1    3    3    0    0  0.12391696470E+03 -0.17527661060E+03 -0.72438778147E+02  0.22654951102E+03  0.00000000000E+00 0.  1.
          3    1    3    3  501    0 -0.11674775285E+03  0.20708594885E+03 -0.89776003790E+00  0.23772974988E+03  0.00000000000E+00 0.  1.
         21    1    1    2  502  501 -0.71692118516E+01 -0.31809338250E+02  0.36734835477E+02  0.49119036391E+02  0.00000000000E+00 0.  1.
<scales pt_clust_4="550.00000" pt_clust_5="550.00000" pt_clust_6="32.60723"></scales>
<mgrwt>
<rscale>  0 0.30000000E+03</rscale>
<asrwt>  1 0.32607232E+02</asrwt>
<pdfrwt beam="1">  1        1 0.86690290E+00 0.30000000E+03</pdfrwt>
<pdfrwt beam="2">0</pdfrwt>
<totfact> 0.27631723E-04</totfact>
</mgrwt>
<clustering>
<clus scale="   32.607">  1  6  2 -1</clus>
<clus scale="  457.290">  4  5 -1 -1</clus>
<clus scale="  300.000">  1  4  2 -1</clus>
</clustering>
</event>
<event>
 6    1  0.9687246E-012  0.3000000E+03  0.7818608E-02  0.1093470E+00
          1   -1    0    0  502    0  0.00000000000E+00  0.00000000000E+00  0.24651170517E+03  0.24651170517E+03  0.00000000000E+00 0.  1.
         13   -1    0    0    0    0 -0.00000000000E+00 -0.00000000000E+00 -0.27500000000E+03  0.27500000000E+03  0.00000000000E+00 0.  1.
    9000005    2    1    2  501    0  0.25687717075E+02  0.19471581094E+02 -0.60088738477E+02  0.47637204060E+03  0.47146650283E+03 0.  0.
         13    1    3    3    0    0  0.15308263881E+03  0.19983961152E+03 -0.30360013434E+02  0.25355846476E+03  0.00000000000E+00 0.  1.
          3    1    3    3  501    0 -0.12739492174E+03 -0.18036803042E+03 -0.29728725042E+02  0.22281357584E+03  0.00000000000E+00 0.  1.
         21    1    1    2  502  501 -0.25687717075E+02 -0.19471581094E+02  0.31600443646E+02  0.45139664570E+02  0.00000000000E+00 0.  1.
<scales pt_clust_4="550.00000" pt_clust_5="550.00000" pt_clust_6="32.23354"></scales>
<mgrwt>
<rscale>  0 0.30000000E+03</rscale>
<asrwt>  1 0.32233543E+02</asrwt>
<pdfrwt beam="1">  1        1 0.89640620E+00 0.30000000E+03</pdfrwt>
<pdfrwt beam="2">0</pdfrwt>
<totfact> 0.12351896E-04</totfact>
</mgrwt>
<clustering>
<clus scale="   32.234">  1  6  2 -1</clus>
<clus scale="  471.467">  4  5 -1 -1</clus>
<clus scale="  300.000">  1  4  2 -1</clus>
</clustering>
</event>
<event>
 6    1  0.9687246E-012  0.3000000E+03  0.7818608E-02  0.1093470E+00
          1   -1    0    0  502    0  0.00000000000E+00  0.00000000000E+00  0.22855212282E+03  0.22855212282E+03  0.00000000000E+00 0.  1.
         13   -1    0    0    0    0 -0.00000000000E+00 -0.00000000000E+00 -0.27500000000E+03  0.27500000000E+03  0.00000000000E+00 0.  1.
    9000005    2    1    2  501    0  0.29405633411E+02 -0.24092198210E+02 -0.56029920482E+02  0.46434828571E+03  0.45938529924E+03 0.  0.
         13    1    3    3    0    0 -0.13533578856E+03 -0.38664933642E+02 -0.20034952393E+03  0.24484828874E+03  0.00000000000E+00 0.  1.
          3    1    3    3  501    0  0.16474142197E+03  0.14572735432E+02  0.14431960344E+03  0.21949999697E+03  0.00000000000E+00 0.  1.
         21    1    1    2  502  501 -0.29405633411E+02  0.24092198210E+02  0.95820433066E+01  0.39203837118E+02  0.00000000000E+00 0.  1.
<scales pt_clust_4="550.00000" pt_clust_5="550.00000" pt_clust_6="38.01480"></scales>
<mgrwt>
<rscale>  0 0.30000000E+03</rscale>
<asrwt>  1 0.38014804E+02</asrwt>
<pdfrwt beam="1">  1        1 0.83109863E+00 0.30000000E+03</pdfrwt>
<pdfrwt beam="2">0</pdfrwt>
<totfact> 0.57021572E-04</totfact>
</mgrwt>
<clustering>
<clus scale="   38.015">  1  6  2 -1</clus>
<clus scale="  459.385">  4  5 -1 -1</clus>
<clus scale="  300.000">  1  4  2 -1</clus>
</clustering>
</event>
<event>
 6    1  0.9687246E-012  0.3000000E+03  0.7818608E-02  0.1093470E+00
          1   -1    0    0  502    0  0.00000000000E+00  0.00000000000E+00  0.24876970068E+03  0.24876970068E+03  0.00000000000E+00 0.  1.
         13   -1    0    0    0    0 -0.00000000000E+00 -0.00000000000E+00 -0.27500000000E+03  0.27500000000E+03  0.00000000000E+00 0.  1.
    9000005    2    1    2  501    0  0.26278658720E+01 -0.30024762756E+02 -0.34442420691E+02  0.49253140695E+03  0.49040036137E+03 0.  0.
         13    1    3    3    0    0  0.56346767769E+02  0.20547009652E+03  0.76966924706E+02  0.22653217498E+03  0.00000000000E+00 0.  1.
          3    1    3    3  501    0 -0.53718901898E+02 -0.23549485928E+03 -0.11140934540E+03  0.26599923197E+03  0.00000000000E+00 0.  1.
         21    1    1    2  502  501 -0.26278658720E+01  0.30024762756E+02  0.82121213708E+01  0.31238293728E+02  0.00000000000E+00 0. -1.
<scales pt_clust_4="550.00000" pt_clust_5="550.00000" pt_clust_6="30.13954"></scales>
<mgrwt>
<rscale>  0 0.30000000E+03</rscale>
<asrwt>  1 0.30139543E+02</asrwt>
<pdfrwt beam="1">  1        1 0.90461709E+00 0.30000000E+03</pdfrwt>
<pdfrwt beam="2">0</pdfrwt>
<totfact> 0.96700873E-05</totfact>
</mgrwt>
<clustering>
<clus scale="   30.140">  1  6  2 -1</clus>
<clus scale="  490.400">  4  5 -1 -1</clus>
<clus scale="  300.000">  1  4  2 -1</clus>
</clustering>
</event>
<event>
 6    1  0.9687246E-012  0.3000000E+03  0.7818608E-02  0.1093470E+00
          1   -1    0    0  502    0  0.00000000000E+00  0.00000000000E+00  0.25748365890E+03  0.25748365890E+03  0.00000000000E+00 0.  1.
         13   -1    0    0    0    0 -0.00000000000E+00 -0.00000000000E+00 -0.27500000000E+03  0.27500000000E+03  0.00000000000E+00 0.  1.
    9000005    2    1    2  501    0 -0.22273249380E+02 -0.20555580272E+02 -0.30648429313E+02  0.49945213973E+03  0.49758866963E+03 0.  0.
         13    1    3    3    0    0 -0.18942608991E+03  0.99196026665E+02 -0.15047140959E+03  0.26146460630E+03  0.00000000000E+00 0.  1.
          3    1    3    3  501    0  0.16715284053E+03 -0.11975160694E+03  0.11982298027E+03  0.23798753342E+03  0.00000000000E+00 0.  1.
         21    1    1    2  502  501  0.22273249380E+02  0.20555580272E+02  0.13132088218E+02  0.33031519178E+02  0.00000000000E+00 0. -1.
<scales pt_clust_4="550.00000" pt_clust_5="550.00000" pt_clust_6="30.30890"></scales>
<mgrwt>
<rscale>  0 0.30000000E+03</rscale>
<asrwt>  1 0.30308902E+02</asrwt>
<pdfrwt beam="1">  1        1 0.93630421E+00 0.30000000E+03</pdfrwt>
<pdfrwt beam="2">0</pdfrwt>
<totfact> 0.22308208E-05</totfact>
</mgrwt>
<clustering>
<clus scale="   30.309">  1  6  2 -1</clus>
<clus scale="  497.589">  4  5 -1 -1</clus>
<clus scale="  300.000">  1  4  2 -1</clus>
</clustering>
</event>
<event>
 6    1  0.9687246E-012  0.3000000E+03  0.7818608E-02  0.1093470E+00
          1   -1    0    0  502    0  0.00000000000E+00  0.00000000000E+00  0.22462166203E+03  0.22462166203E+03  0.00000000000E+00 0.  1.
         13   -1    0    0    0    0 -0.00000000000E+00 -0.00000000000E+00 -0.27500000000E+03  0.27500000000E+03  0.00000000000E+00 0.  1.
    9000005    2    1    2  501    0  0.38378096117E+02 -0.14999427266E+01 -0.40221588261E+02  0.45989399341E+03  0.45651898199E+03 0.  0.
         13    1    3    3    0    0  0.16383260094E+03  0.88456727475E+02  0.13228737514E+03  0.22839803718E+03  0.00000000000E+00 0.  1.
          1    1    3    3  501    0 -0.12545450483E+03 -0.89956670202E+02 -0.17250896340E+03  0.23149595623E+03  0.00000000000E+00 0.  1.
         21    1    1    2  502  501 -0.38378096117E+02  0.14999427266E+01 -0.10156749706E+02  0.39727668625E+02  0.00000000000E+00 0. -1.
<scales pt_clust_4="550.00000" pt_clust_5="550.00000" pt_clust_6="38.40742"></scales>
<mgrwt>
<rscale>  0 0.30000000E+03</rscale>
<asrwt>  1 0.38407415E+02</asrwt>
<pdfrwt beam="1">  1        1 0.81680604E+00 0.30000000E+03</pdfrwt>
<pdfrwt beam="2">0</pdfrwt>
<totfact> 0.75637515E-04</totfact>
</mgrwt>
<clustering>
<clus scale="   38.407">  1  6  2 -1</clus>
<clus scale="  456.519">  4  5 -1 -1</clus>
<clus scale="  300.000">  1  4  2 -1</clus>
</clustering>
</event>
<event>
 6    1  0.9687246E-012  0.3000000E+03  0.7818608E-02  0.1093470E+00
          1   -1    0    0  502    0  0.00000000000E+00  0.00000000000E+00  0.24978776983E+03  0.24978776983E+03  0.00000000000E+00 0.  1.
         13   -1    0    0    0    0 -0.00000000000E+00 -0.00000000000E+00 -0.27500000000E+03  0.27500000000E+03  0.00000000000E+00 0.  1.
    9000005    2    1    2  501    0  0.17597393731E+02  0.39992524940E+02 -0.43967233301E+02  0.47723968407E+03  0.47319713453E+03 0.  0.
         13    1    3    3    0    0  0.15671152948E+03 -0.69122398101E+02 -0.18423597258E+03  0.25155377752E+03  0.00000000000E+00 0.  1.
          3    1    3    3  501    0 -0.13911413575E+03  0.10911492304E+03  0.14026873928E+03  0.22568590655E+03  0.00000000000E+00 0.  1.
         21    1    1    2  502  501 -0.17597393731E+02 -0.39992524940E+02  0.18755003128E+02  0.47548085761E+02  0.00000000000E+00 0. -1.
<scales pt_clust_4="550.00000" pt_clust_5="550.00000" pt_clust_6="43.69291"></scales>
<mgrwt>
<rscale>  0 0.30000000E+03</rscale>
<asrwt>  1 0.43692909E+02</asrwt>
<pdfrwt beam="1">  1        1 0.90831916E+00 0.30000000E+03</pdfrwt>
<pdfrwt beam="2">0</pdfrwt>
<totfact> 0.75610601E-05</totfact>
</mgrwt>
<clustering>
<clus scale="   43.693">  1  6  2 -1</clus>
<clus scale="  473.197">  4  5 -1 -1</clus>
<clus scale="  300.000">  1  4  2 -1</clus>
</clustering>
</event>
<event>
 6    1  0.9687246E-012  0.3000000E+03  0.7818608E-02  0.1093470E+00
          1   -1    0    0  502    0  0.00000000000E+00  0.00000000000E+00  0.22448966456E+03  0.22448966456E+03  0.00000000000E+00 0.  1.
         13   -1    0    0    0    0 -0.00000000000E+00 -0.00000000000E+00 -0.27500000000E+03  0.27500000000E+03  0.00000000000E+00 0.  1.
    9000005    2    1    2  501    0  0.24450320190E+02 -0.24767872826E+02 -0.61954828248E+02  0.46285304221E+03  0.45736557835E+03 0.  0.
         13    1    3    3    0    0  0.89677188529E+02 -0.19394390289E+03  0.84502906217E+02  0.22977592731E+03  0.00000000000E+00 0.  1.
          1    1    3    3  501    0 -0.65226868339E+02  0.16917603007E+03 -0.14645773447E+03  0.23307711490E+03  0.00000000000E+00 0.  1.
         21    1    1    2  502  501 -0.24450320190E+02  0.24767872826E+02  0.11444492805E+02  0.36636622351E+02  0.00000000000E+00 0.  1.
<scales pt_clust_4="550.00000" pt_clust_5="550.00000" pt_clust_6="34.80324"></scales>
<mgrwt>
<rscale>  0 0.30000000E+03</rscale>
<asrwt>  1 0.34803242E+02</asrwt>
<pdfrwt beam="1">  1        1 0.81632605E+00 0.30000000E+03</pdfrwt>
<pdfrwt beam="2">0</pdfrwt>
<totfact> 0.77734467E-04</totfact>
</mgrwt>
<clustering>
<clus scale="   34.803">  1  6  2 -1</clus>
<clus scale="  457.366">  4  5 -1 -1</clus>
<clus scale="  300.000">  1  4  2 -1</clus>
</clustering>
</event>
<event>
 6    1  0.9687246E-012  0.3000000E+03  0.7818608E-02  0.1093470E+00
          1   -1    0    0  502    0  0.00000000000E+00  0.00000000000E+00  0.24057803552E+03  0.24057803552E+03  0.00000000000E+00 0.  1.
         13   -1    0    0    0    0 -0.00000000000E+00 -0.00000000000E+00 -0.27500000000E+03  0.27500000000E+03  0.00000000000E+00 0.  1.
    9000005    2    1    2  501    0  0.24914119322E+02 -0.47029717612E+02 -0.31529056810E+02  0.46227816127E+03  0.45812062744E+03 0.  0.
         13    1    3    3    0    0 -0.14787397897E+03 -0.10917217509E+03  0.12393083262E+03  0.22168475081E+03  0.00000000000E+00 0.  1.
          3    1    3    3  501    0  0.17278809829E+03  0.62142457481E+02 -0.15545988943E+03  0.24059341045E+03  0.00000000000E+00 0.  1.
         21    1    1    2  502  501 -0.24914119322E+02  0.47029717612E+02 -0.28929076731E+01  0.53299874250E+02  0.00000000000E+00 0.  1.
<scales pt_clust_4="550.00000" pt_clust_5="550.00000" pt_clust_6="53.22131"></scales>
<mgrwt>
<rscale>  0 0.30000000E+03</rscale>
<asrwt>  1 0.53221309E+02</asrwt>
<pdfrwt beam="1">  1        1 0.87482922E+00 0.30000000E+03</pdfrwt>
<pdfrwt beam="2">0</pdfrwt>
<totfact> 0.20944530E-04</totfact>
</mgrwt>
<clustering>
<clus scale="   53.221">  1  6  2 -1</clus>
<clus scale="  458.121">  4  5 -1 -1</clus>
<clus scale="  300.000">  1  4  2 -1</clus>
</clustering>
</event>
<event>
 6    1  0.9687246E-012  0.3000000E+03  0.7818608E-02  0.1093470E+00
          1   -1    0    0  502    0  0.00000000000E+00  0.00000000000E+00  0.25385408365E+03  0.25385408365E+03  0.00000000000E+00 0.  1.
         13   -1    0    0    0    0 -0.00000000000E+00 -0.00000000000E+00 -0.27500000000E+03  0.27500000000E+03  0.00000000000E+00 0.  1.
    9000005    2    1    2  501    0  0.97806257289E+01 -0.29911442152E+02 -0.15753594161E+02  0.49692553608E+03  0.49567777605E+03 0.  0.
         13    1    3    3    0    0  0.46831057970E+02 -0.17846669116E+03 -0.19008453206E+03  0.26490684622E+03  0.00000000000E+00 0.  1.
          3    1    3    3  501    0 -0.37050432242E+02  0.14855524901E+03  0.17433093790E+03  0.23201868986E+03  0.00000000000E+00 0.  1.
         21    1    1    2  502  501 -0.97806257289E+01  0.29911442152E+02 -0.53923221885E+01  0.31928547569E+02  0.00000000000E+00 0.  1.
<scales pt_clust_4="550.00000" pt_clust_5="550.00000" pt_clust_6="31.46992"></scales>
<mgrwt>
<rscale>  0 0.30000000E+03</rscale>
<asrwt>  1 0.31469922E+02</asrwt>
<pdfrwt beam="1">  1        1 0.92310576E+00 0.30000000E+03</pdfrwt>
<pdfrwt beam="2">0</pdfrwt>
<totfact> 0.36628356E-05</totfact>
</mgrwt>
<clustering>
<clus scale="   31.470">  1  6  2 -1</clus>
<clus scale="  495.678">  4  5 -1 -1</clus>
<clus scale="  300.000">  1  4  2 -1</clus>
</clustering>
</event>
<event>
 6    1  0.9687246E-012  0.3000000E+03  0.7818608E-02  0.1093470E+00
          1   -1    0    0  502    0  0.00000000000E+00  0.00000000000E+00  0.22383382274E+03  0.22383382274E+03  0.00000000000E+00 0.  1.
         13   -1    0    0    0    0 -0.00000000000E+00 -0.00000000000E+00 -0.27500000000E+03  0.27500000000E+03  0.00000000000E+00 0.  1.
    9000005    2    1    2  501    0 -0.26131040383E+02 -0.16407629082E+02 -0.69563545301E+02  0.46291022723E+03  0.45661225353E+03 0.  0.
         13    1    3    3    0    0  0.83259111995E+02 -0.11790471513E+03 -0.21209735276E+03  0.25655192189E+03  0.00000000000E+00 0.  1.
          3    1    3    3  501    0 -0.10939015238E+03  0.10149708605E+03  0.14253380746E+03  0.20635830534E+03  0.00000000000E+00 0.  1.
         21    1    1    2  502  501  0.26131040383E+02  0.16407629082E+02  0.18397368046E+02  0.35923595513E+02  0.00000000000E+00 0.  1.
<scales pt_clust_4="550.00000" pt_clust_5="550.00000" pt_clust_6="30.85517"></scales>
<mgrwt>
<rscale>  0 0.30000000E+03</rscale>
<asrwt>  1 0.30855171E+02</asrwt>
<pdfrwt beam="1">  1        1 0.81394117E+00 0.30000000E+03</pdfrwt>
<pdfrwt beam="2">0</pdfrwt>
<totfact> 0.83141246E-04</totfact>
</mgrwt>
<clustering>
<clus scale="   30.855">  1  6  2 -1</clus>
<clus scale="  456.612">  4  5 -1 -1</clus>
<clus scale="  300.000">  1  4  2 -1</clus>
</clustering>
</event>
<event>
 6    1  0.9687246E-012  0.3000000E+03  0.7818608E-02  0.1093470E+00
          1   -1    0    0  502    0  0.00000000000E+00  0.00000000000E+00  0.23120445905E+03  0.23120445905E+03  0.00000000000E+00 0.  1.
         13   -1    0    0    0    0 -0.00000000000E+00 -0.00000000000E+00 -0.27500000000E+03  0.27500000000E+03  0.00000000000E+00 0.  1.
    9000005    2    1    2  501    0  0.16470647655E+02  0.27112136252E+02 -0.29105086908E+02  0.47124505965E+03  0.46927438668E+03 0.  0.
         13    1    3    3    0    0 -0.17622567227E+03  0.15352100730E+03 -0.52687259090E+02  0.23958325175E+03  0.00000000000E+00 0.  1.
          3    1    3    3  501    0  0.19269631993E+03 -0.12640887105E+03  0.23582172181E+02  0.23166180790E+03  0.00000000000E+00 0.  1.
         21    1    1    2  502  501 -0.16470647655E+02 -0.27112136252E+02 -0.14690454041E+02  0.34959399398E+02  0.00000000000E+00 0.  1.
<scales pt_clust_4="550.00000" pt_clust_5="550.00000" pt_clust_6="31.72304"></scales>
<mgrwt>
<rscale>  0 0.30000000E+03</rscale>
<asrwt>  1 0.31723039E+02</asrwt>
<pdfrwt beam="1">  1        1 0.84074349E+00 0.30000000E+03</pdfrwt>
<pdfrwt beam="2">0</pdfrwt>
<totfact> 0.49966374E-04</totfact>
</mgrwt>
<clustering>
<clus scale="   31.723">  1  6  2 -1</clus>
<clus scale="  469.274">  4  5 -1 -1</clus>
<clus scale="  300.000">  1  4  2 -1</clus>
</clustering>
</event>
<event>
 6    1  0.9687246E-012  0.3000000E+03  0.7818608E-02  0.1093470E+00
          1   -1    0    0  502    0  0.00000000000E+00  0.00000000000E+00  0.23096217662E+03  0.23096217662E+03  0.00000000000E+00 0.  1.
         13   -1    0    0    0    0 -0.00000000000E+00 -0.00000000000E+00 -0.27500000000E+03  0.27500000000E+03  0.00000000000E+00 0.  1.
    9000005    2    1    2  501    0  0.23928561900E+02  0.24766030572E+02 -0.66562133356E+02  0.46481273088E+03  0.45873132098E+03 0.  0.
         13    1    3    3    0    0 -0.20035473455E+03  0.69951817920E+02  0.33957524701E+02  0.21491484353E+03  0.00000000000E+00 0.  1.
          1    1    3    3  501    0  0.22428329645E+03 -0.45185787348E+02 -0.10051965806E+03  0.24989788735E+03  0.00000000000E+00 0.  1.
         21    1    1    2  502  501 -0.23928561900E+02 -0.24766030572E+02  0.22524309981E+02  0.41149445743E+02  0.00000000000E+00 0.  1.
<scales pt_clust_4="550.00000" pt_clust_5="550.00000" pt_clust_6="34.43737"></scales>
<mgrwt>
<rscale>  0 0.30000000E+03</rscale>
<asrwt>  1 0.34437368E+02</asrwt>
<pdfrwt beam="1">  1        1 0.83986246E+00 0.30000000E+03</pdfrwt>
<pdfrwt beam="2">0</pdfrwt>
<totfact> 0.49976427E-04</totfact>
</mgrwt>
<clustering>
<clus scale="   34.437">  1  6  2 -1</clus>
<clus scale="  458.731">  4  5 -1 -1</clus>
<clus scale="  300.000">  1  4  2 -1</clus>
</clustering>
</event>
<event>
 6    1  0.9687246E-012  0.3000000E+03  0.7818608E-02  0.1093470E+00
          1   -1    0    0  502    0  0.00000000000E+00  0.00000000000E+00  0.24189578331E+03  0.24189578331E+03  0.00000000000E+00 0.  1.
         13   -1    0    0    0    0 -0.00000000000E+00 -0.00000000000E+00 -0.27500000000E+03  0.27500000000E+03  0.00000000000E+00 0.  1.
    9000005    2    1    2  501    0 -0.39809374165E+01 -0.30272687942E+02 -0.42599130687E+02  0.48492021623E+03  0.48207950245E+03 0.  0.
         13    1    3    3    0    0 -0.21691562807E+03  0.23926412044E+02  0.81047164983E+02  0.23279498673E+03  0.00000000000E+00 0.  1.
          3    1    3    3  501    0  0.21293469065E+03 -0.54199099986E+02 -0.12364629567E+03  0.25212522951E+03  0.00000000000E+00 0.  1.
         21    1    1    2  502  501  0.39809374165E+01  0.30272687942E+02  0.94949139946E+01  0.31975567074E+02  0.00000000000E+00 0.  1.
<scales pt_clust_4="550.00000" pt_clust_5="550.00000" pt_clust_6="30.53332"></scales>
<mgrwt>
<rscale>  0 0.30000000E+03</rscale>
<asrwt>  1 0.30533318E+02</asrwt>
<pdfrwt beam="1">  1        1 0.87962103E+00 0.30000000E+03</pdfrwt>
<pdfrwt beam="2">0</pdfrwt>
<totfact> 0.20472521E-04</totfact>
</mgrwt>
<clustering>
<clus scale="   30.533">  1  6  2 -1</clus>
<clus scale="  482.080">  4  5 -1 -1</clus>
<clus scale="  300.000">  1  4  2 -1</clus>
</clustering>
</event>
<event>
 6    1  0.9687246E-012  0.3000000E+03  0.7818608E-02  0.1093470E+00
          1   -1    0    0  502    0  0.00000000000E+00  0.00000000000E+00  0.24324987928E+03  0.24324987928E+03  0.00000000000E+00 0.  1.
         13   -1    0    0    0    0 -0.00000000000E+00 -0.00000000000E+00 -0.27500000000E+03  0.27500000000E+03  0.00000000000E+00 0.  1.
    9000005    2    1    2  501    0  0.11945468108E+02  0.30084790160E+02 -0.42102738920E+02  0.48426509576E+03  0.48134421523E+03 0.  0.
         13    1    3    3    0    0 -0.18743210716E+03  0.63695263230E+02  0.11434923480E+03  0.22861239873E+03  0.00000000000E+00 0.  1.
          3    1    3    3  501    0  0.19937757527E+03 -0.33610473070E+02 -0.15645197372E+03  0.25565269703E+03  0.00000000000E+00 0.  1.
         21    1    1    2  502  501 -0.11945468108E+02 -0.30084790160E+02  0.10352618200E+02  0.33984783520E+02  0.00000000000E+00 0.  1.
<scales pt_clust_4="550.00000" pt_clust_5="550.00000" pt_clust_6="32.36957"></scales>
<mgrwt>
<rscale>  0 0.30000000E+03</rscale>
<asrwt>  1 0.32369566E+02</asrwt>
<pdfrwt beam="1">  1        1 0.88454502E+00 0.30000000E+03</pdfrwt>
<pdfrwt beam="2">0</pdfrwt>
<totfact> 0.17470787E-04</totfact>
</mgrwt>
<clustering>
<clus scale="   32.370">  1  6  2 -1</clus>
<clus scale="  481.344">  4  5 -1 -1</clus>
<clus scale="  300.000">  1  4  2 -1</clus>
</clustering>
</event>
<event>
 6    1  0.9687246E-012  0.3000000E+03  0.7818608E-02  0.1093470E+00
          1   -1    0    0  502    0  0.00000000000E+00  0.00000000000E+00  0.23570647449E+03  0.23570647449E+03  0.00000000000E+00 0.  1.
         13   -1    0    0    0    0 -0.00000000000E+00 -0.00000000000E+00 -0.27500000000E+03  0.27500000000E+03  0.00000000000E+00 0.  1.
    9000005    2    1    2  501    0 -0.34343709355E+02  0.17922617324E+00 -0.55562997838E+02  0.47270360323E+03  0.46816869533E+03 0.  0.
         13    1    3    3    0    0 -0.15263357376E+02  0.72876090966E+02  0.19625715548E+03  0.20990656443E+03  0.00000000000E+00 0.  1.
          3    1    3    3  501    0 -0.19080351979E+02 -0.72696864792E+02 -0.25182015332E+03  0.26279703880E+03  0.00000000000E+00 0.  1.
         21    1    1    2  502  501  0.34343709355E+02 -0.17922617324E+00  0.16269472333E+02  0.38002871263E+02  0.00000000000E+00 0. -1.
<scales pt_clust_4="550.00000" pt_clust_5="550.00000" pt_clust_6="34.34418"></scales>
<mgrwt>
<rscale>  0 0.30000000E+03</rscale>
<asrwt>  1 0.34344177E+02</asrwt>
<pdfrwt beam="1">  1        1 0.85711445E+00 0.30000000E+03</pdfrwt>
<pdfrwt beam="2">0</pdfrwt>
<totfact> 0.34806399E-04</totfact>
</mgrwt>
<clustering>
<clus scale="   34.344">  1  6  2 -1</clus>
<clus scale="  468.169">  4  5 -1 -1</clus>
<clus scale="  300.000">  1  4  2 -1</clus>
</clustering>
</event>
<event>
 6    1  0.9687246E-012  0.3000000E+03  0.7818608E-02  0.1093470E+00
          1   -1    0    0  502    0  0.00000000000E+00  0.00000000000E+00  0.23748388210E+03  0.23748388210E+03  0.00000000000E+00 0.  1.
         13   -1    0    0    0    0 -0.00000000000E+00 -0.00000000000E+00 -0.27500000000E+03  0.27500000000E+03  0.00000000000E+00 0.  1.
    9000005    2    1    2  501    0  0.16210074818E+02 -0.31143167518E+02 -0.60068580933E+02  0.47075527084E+03  0.46558525234E+03 0.  0.
         13    1    3    3    0    0  0.21831508176E+03  0.84381612936E+02 -0.26356375890E+02  0.23553426519E+03  0.00000000000E+00 0.  1.
          3    1    3    3  501    0 -0.20210500695E+03 -0.11552478045E+03 -0.33712205044E+02  0.23522100565E+03  0.00000000000E+00 0.  1.
         21    1    1    2  502  501 -0.16210074818E+02  0.31143167518E+02  0.22552463030E+02  0.41728611256E+02  0.00000000000E+00 0. -1.
<scales pt_clust_4="550.00000" pt_clust_5="550.00000" pt_clust_6="35.10931"></scales>
<mgrwt>
<rscale>  0 0.30000000E+03</rscale>
<asrwt>  1 0.35109307E+02</asrwt>
<pdfrwt beam="1">  1        1 0.86357775E+00 0.30000000E+03</pdfrwt>
<pdfrwt beam="2">0</pdfrwt>
<totfact> 0.29581142E-04</totfact>
</mgrwt>
<clustering>
<clus scale="   35.109">  1  6  2 -1</clus>
<clus scale="  465.585">  4  5 -1 -1</clus>
<clus scale="  300.000">  1  4  2 -1</clus>
</clustering>
</event>
<event>
 6    1  0.9687246E-012  0.3000000E+03  0.7818608E-02  0.1093470E+00
          1   -1    0    0  502    0  0.00000000000E+00  0.00000000000E+00  0.23405200685E+03  0.23405200685E+03  0.00000000000E+00 0.  1.
         13   -1    0    0    0    0 -0.00000000000E+00 -0.00000000000E+00 -0.27500000000E+03  0.27500000000E+03  0.00000000000E+00 0.  1.
    9000005    2    1    2  501    0  0.37865207934E+01  0.46752445064E+02 -0.26477086238E+02  0.45996498203E+03  0.45680041565E+03 0.  0.
         13    1    3    3    0    0  0.22437683500E+03  0.15517712717E+02 -0.64442056699E+02  0.23396269396E+03  0.00000000000E+00 0.  1.
          3    1    3    3  501    0 -0.22059031421E+03  0.31234732347E+02  0.37964970461E+02  0.22600228807E+03  0.00000000000E+00 0.  1.
         21    1    1    2  502  501 -0.37865207934E+01 -0.46752445064E+02 -0.14470906911E+02  0.49087024823E+02  0.00000000000E+00 0. -1.
<scales pt_clust_4="550.00000" pt_clust_5="550.00000" pt_clust_6="46.90555"></scales>
<mgrwt>
<rscale>  0 0.30000000E+03</rscale>
<asrwt>  1 0.46905555E+02</asrwt>
<pdfrwt beam="1">  1        1 0.85109821E+00 0.30000000E+03</pdfrwt>
<pdfrwt beam="2">0</pdfrwt>
<totfact> 0.37675387E-04</totfact>
</mgrwt>
<clustering>
<clus scale="   46.906">  1  6  2 -1</clus>
<clus scale="  456.800">  4  5 -1 -1</clus>
<clus scale="  300.000">  1  4  2 -1</clus>
</clustering>
</event>
<event>
 6    1  0.9687246E-012  0.3000000E+03  0.7818608E-02  0.1093470E+00
          1   -1    0    0  502    0  0.00000000000E+00  0.00000000000E+00  0.23477645769E+03  0.23477645769E+03  0.00000000000E+00 0.  1.
         13   -1    0    0    0    0 -0.00000000000E+00 -0.00000000000E+00 -0.27500000000E+03  0.27500000000E+03  0.00000000000E+00 0.  1.
    9000005    2    1    2  501    0  0.29314805358E+02  0.26433649257E+02 -0.65867106072E+02  0.46270536265E+03  0.45628903267E+03 0.  0.
         13    1    3    3    0    0 -0.14879940733E+03 -0.83512419728E+02  0.98092473386E+02  0.19681900621E+03  0.00000000000E+00 0.  1.
          3    1    3    3  501    0  0.17811421268E+03  0.10994606898E+03 -0.16395957946E+03  0.26588635644E+03  0.00000000000E+00 0.  1.
         21    1    1    2  502  501 -0.29314805358E+02 -0.26433649257E+02  0.25643563765E+02  0.47071095045E+02  0.00000000000E+00 0.  1.
<scales pt_clust_4="550.00000" pt_clust_5="550.00000" pt_clust_6="39.47272"></scales>
<mgrwt>
<rscale>  0 0.30000000E+03</rscale>
<asrwt>  1 0.39472720E+02</asrwt>
<pdfrwt beam="1">  1        1 0.85373257E+00 0.30000000E+03</pdfrwt>
<pdfrwt beam="2">0</pdfrwt>
<totfact> 0.36664921E-04</totfact>
</mgrwt>
<clustering>
<clus scale="   39.473">  1  6  2 -1</clus>
<clus scale="  456.289">  4  5 -1 -1</clus>
<clus scale="  300.000">  1  4  2 -1</clus>
</clustering>
</event>
<event>
 6    1  0.9687246E-012  0.3000000E+03  0.7818608E-02  0.1093470E+00
          1   -1    0    0  502    0  0.00000000000E+00  0.00000000000E+00  0.22949271979E+03  0.22949271979E+03  0.00000000000E+00 0.  1.
         13   -1    0    0    0    0 -0.00000000000E+00 -0.00000000000E+00 -0.27500000000E+03  0.27500000000E+03  0.00000000000E+00 0.  1.
    9000005    2    1    2  501    0 -0.16362066360E+02  0.34377554823E+02 -0.50096330599E+02  0.46614440985E+03  0.46187816035E+03 0.  0.
         13    1    3    3    0    0  0.17546372094E+03  0.48038225504E+02  0.11285192250E+03  0.21408116425E+03  0.00000000000E+00 0.  1.
          1    1    3    3  501    0 -0.19182578730E+03 -0.13660670681E+02 -0.16294825309E+03  0.25206324560E+03  0.00000000000E+00 0.  1.
         21    1    1    2  502  501  0.16362066360E+02 -0.34377554823E+02  0.45890503850E+01  0.38348309932E+02  0.00000000000E+00 0. -1.
<scales pt_clust_4="550.00000" pt_clust_5="550.00000" pt_clust_6="38.07274"></scales>
<mgrwt>
<rscale>  0 0.30000000E+03</rscale>
<asrwt>  1 0.38072739E+02</asrwt>
<pdfrwt beam="1">  1        1 0.83451898E+00 0.30000000E+03</pdfrwt>
<pdfrwt beam="2">0</pdfrwt>
<totfact> 0.53694025E-04</totfact>
</mgrwt>
<clustering>
<clus scale="   38.073">  1  6  2 -1</clus>
<clus scale="  461.878">  4  5 -1 -1</clus>
<clus scale="  300.000">  1  4  2 -1</clus>
</clustering>
</event>
<event>
 6    1  0.9687246E-012  0.3000000E+03  0.7818608E-02  0.1093470E+00
          1   -1    0    0  502    0  0.00000000000E+00  0.00000000000E+00  0.22382123816E+03  0.22382123816E+03  0.00000000000E+00 0.  1.
         13   -1    0    0    0    0 -0.00000000000E+00 -0.00000000000E+00 -0.27500000000E+03  0.27500000000E+03  0.00000000000E+00 0.  1.
    9000005    2    1    2  501    0  0.30684718880E+02 -0.45073263249E+01 -0.60923159607E+02  0.46631245087E+03  0.46127410777E+03 0.  0.
         13    1    3    3    0    0  0.10840838190E+03 -0.19477788657E+03 -0.11905715997E+03  0.25271606539E+03  0.00000000000E+00 0.  1.
          1    1    3    3  501    0 -0.77723663024E+02  0.19027056025E+03  0.58134000366E+02  0.21359638548E+03  0.00000000000E+00 0.  1.
         21    1    1    2  502  501 -0.30684718880E+02  0.45073263249E+01  0.97443977709E+01  0.32508787293E+02  0.00000000000E+00 0.  1.
<scales pt_clust_4="550.00000" pt_clust_5="550.00000" pt_clust_6="31.01400"></scales>
<mgrwt>
<rscale>  0 0.30000000E+03</rscale>
<asrwt>  1 0.31013996E+02</asrwt>
<pdfrwt beam="1">  1        1 0.81389541E+00 0.30000000E+03</pdfrwt>
<pdfrwt beam="2">0</pdfrwt>
<totfact> 0.83129685E-04</totfact>
</mgrwt>
<clustering>
<clus scale="   31.014">  1  6  2 -1</clus>
<clus scale="  461.274">  4  5 -1 -1</clus>
<clus scale="  300.000">  1  4  2 -1</clus>
</clustering>
</event>
<event>
 6    1  0.9687246E-012  0.3000000E+03  0.7818608E-02  0.1093470E+00
          1   -1    0    0  502    0  0.00000000000E+00  0.00000000000E+00  0.25920154106E+03  0.25920154106E+03  0.00000000000E+00 0.  1.
         13   -1    0    0    0    0 -0.00000000000E+00 -0.00000000000E+00 -0.27500000000E+03  0.27500000000E+03  0.00000000000E+00 0.  1.
    9000005    2    1    2  501    0  0.32250115426E+02 -0.19208032601E+02 -0.33466211989E+02  0.49271457974E+03  0.49014146048E+03 0.  0.
         13    1    3    3    0    0  0.29004596637E+02  0.29286813940E+02 -0.25886959857E+03  0.26213060325E+03  0.00000000000E+00 0.  1.
          1    1    3    3  501    0  0.32455187883E+01 -0.48494846541E+02  0.22540338658E+03  0.23058397649E+03  0.00000000000E+00 0.  1.
         21    1    1    2  502  501 -0.32250115426E+02  0.19208032601E+02  0.17667753049E+02  0.41486961316E+02  0.00000000000E+00 0. -1.
<scales pt_clust_4="550.00000" pt_clust_5="550.00000" pt_clust_6="37.53689"></scales>
<mgrwt>
<rscale>  0 0.30000000E+03</rscale>
<asrwt>  1 0.37536895E+02</asrwt>
<pdfrwt beam="1">  1        1 0.94255106E+00 0.30000000E+03</pdfrwt>
<pdfrwt beam="2">0</pdfrwt>
<totfact> 0.17059193E-05</totfact>
</mgrwt>
<clustering>
<clus scale="   37.537">  1  6  2 -1</clus>
<clus scale="  490.141">  4  5 -1 -1</clus>
<clus scale="  300.000">  1  4  2 -1</clus>
</clustering>
</event>
<event>
 6    1  0.9687246E-012  0.3000000E+03  0.7818608E-02  0.1093470E+00
          1   -1    0    0  502    0  0.00000000000E+00  0.00000000000E+00  0.23375524008E+03  0.23375524008E+03  0.00000000000E+00 0.  1.
         13   -1    0    0    0    0 -0.00000000000E+00 -0.00000000000E+00 -0.27500000000E+03  0.27500000000E+03  0.00000000000E+00 0.  1.
    9000005    2    1    2  501    0  0.16850152478E+02 -0.39976831598E+02 -0.47964678527E+02  0.46485498941E+03  0.46033409182E+03 0.  0.
         13    1    3    3    0    0  0.22786049319E+03  0.42319864890E+02  0.67255269023E+01  0.23185471320E+03  0.00000000000E+00 0.  1.
          3    1    3    3  501    0 -0.21101034072E+03 -0.82296696488E+02 -0.54690205430E+02  0.23300027620E+03  0.00000000000E+00 0.  1.
         21    1    1    2  502  501 -0.16850152478E+02  0.39976831598E+02  0.67199186092E+01  0.43900250674E+02  0.00000000000E+00 0. -1.
<scales pt_clust_4="550.00000" pt_clust_5="550.00000" pt_clust_6="43.38288"></scales>
<mgrwt>
<rscale>  0 0.30000000E+03</rscale>
<asrwt>  1 0.43382885E+02</asrwt>
<pdfrwt beam="1">  1        1 0.85001905E+00 0.30000000E+03</pdfrwt>
<pdfrwt beam="2">0</pdfrwt>
<totfact> 0.39111232E-04</totfact>
</mgrwt>
<clustering>
<clus scale="   43.383">  1  6  2 -1</clus>
<clus scale="  460.334">  4  5 -1 -1</clus>
<clus scale="  300.000">  1  4  2 -1</clus>
</clustering>
</event>
<event>
 6    1  0.9687246E-012  0.3000000E+03  0.7818608E-02  0.1093470E+00
          1   -1    0    0  502    0  0.00000000000E+00  0.00000000000E+00  0.22644243082E+03  0.22644243082E+03  0.00000000000E+00 0.  1.
         13   -1    0    0    0    0 -0.00000000000E+00 -0.00000000000E+00 -0.27500000000E+03  0.27500000000E+03  0.00000000000E+00 0.  1.
    9000005    2    1    2  501    0 -0.38314317197E+01 -0.39738619785E+02 -0.49165351869E+02  0.46151490684E+03  0.45714870626E+03 0.  0.
         13    1    3    3    0    0  0.78784541054E+02  0.15902752146E+02  0.18790332544E+03  0.20437113579E+03  0.00000000000E+00 0.  1.
          3    1    3    3  501    0 -0.82615972773E+02 -0.55641371931E+02 -0.23706867731E+03  0.25714377104E+03  0.00000000000E+00 0.  1.
         21    1    1    2  502  501  0.38314317197E+01  0.39738619785E+02  0.60778268577E+00  0.39927523981E+02  0.00000000000E+00 0.  1.
<scales pt_clust_4="550.00000" pt_clust_5="550.00000" pt_clust_6="39.92290"></scales>
<mgrwt>
<rscale>  0 0.30000000E+03</rscale>
<asrwt>  1 0.39922898E+02</asrwt>
<pdfrwt beam="1">  1        1 0.82342702E+00 0.30000000E+03</pdfrwt>
<pdfrwt beam="2">0</pdfrwt>
<totfact> 0.65844422E-04</totfact>
</mgrwt>
<clustering>
<clus scale="   39.923">  1  6  2 -1</clus>
<clus scale="  457.149">  4  5 -1 -1</clus>
<clus scale="  300.000">  1  4  2 -1</clus>
</clustering>
</event>
<event>
 6    1  0.9687246E-012  0.3000000E+03  0.7818608E-02  0.1093470E+00
          1   -1    0    0  502    0  0.00000000000E+00  0.00000000000E+00  0.23105183820E+03  0.23105183820E+03  0.00000000000E+00 0.  1.
         13   -1    0    0    0    0 -0.00000000000E+00 -0.00000000000E+00 -0.27500000000E+03  0.27500000000E+03  0.00000000000E+00 0.  1.
    9000005    2    1    2  501    0  0.39076482977E+02 -0.47088692045E+01 -0.29973937278E+02  0.46428553693E+03  0.46164215353E+03 0.  0.
         13    1    3    3    0    0 -0.15529060560E+03 -0.15167350563E+03  0.10251275112E+02  0.21731339843E+03  0.00000000000E+00 0.  1.
          3    1    3    3  501    0  0.19436708858E+03  0.14696463642E+03 -0.40225212390E+02  0.24697213850E+03  0.00000000000E+00 0.  1.
         21    1    1    2  502  501 -0.39076482977E+02  0.47088692045E+01 -0.13974224521E+02  0.41766301273E+02  0.00000000000E+00 0.  1.
<scales pt_clust_4="550.00000" pt_clust_5="550.00000" pt_clust_6="39.35920"></scales>
<mgrwt>
<rscale>  0 0.30000000E+03</rscale>
<asrwt>  1 0.39359199E+02</asrwt>
<pdfrwt beam="1">  1        1 0.84018850E+00 0.30000000E+03</pdfrwt>
<pdfrwt beam="2">0</pdfrwt>
<totfact> 0.48474137E-04</totfact>
</mgrwt>
<clustering>
<clus scale="   39.359">  1  6  2 -1</clus>
<clus scale="  461.642">  4  5 -1 -1</clus>
<clus scale="  300.000">  1  4  2 -1</clus>
</clustering>
</event>
<event>
 6    1  0.9687246E-012  0.3000000E+03  0.7818608E-02  0.1093470E+00
          1   -1    0    0  502    0  0.00000000000E+00  0.00000000000E+00  0.23639878727E+03  0.23639878727E+03  0.00000000000E+00 0.  1.
         13   -1    0    0    0    0 -0.00000000000E+00 -0.00000000000E+00 -0.27500000000E+03  0.27500000000E+03  0.00000000000E+00 0.  1.
    9000005    2    1    2  501    0 -0.18219868661E+02 -0.33261755092E+02 -0.47997894478E+02  0.47232698677E+03  0.46834888341E+03 0.  0.
         13    1    3    3    0    0 -0.22075095926E+03  0.78647765582E+02 -0.55452963358E+02  0.24081421925E+03  0.00000000000E+00 0.  1.
          3    1    3    3  501    0  0.20253109060E+03 -0.11190952067E+03  0.74550688798E+01  0.23151276753E+03  0.00000000000E+00 0.  1.
         21    1    1    2  502  501  0.18219868661E+02  0.33261755092E+02  0.93966817437E+01  0.39071800491E+02  0.00000000000E+00 0.  1.
<scales pt_clust_4="550.00000" pt_clust_5="550.00000" pt_clust_6="37.92503"></scales>
<mgrwt>
<rscale>  0 0.30000000E+03</rscale>
<asrwt>  1 0.37925031E+02</asrwt>
<pdfrwt beam="1">  1        1 0.85963195E+00 0.30000000E+03</pdfrwt>
<pdfrwt beam="2">0</pdfrwt>
<totfact> 0.32156781E-04</totfact>
</mgrwt>
<clustering>
<clus scale="   37.925">  1  6  2 -1</clus>
<clus scale="  468.349">  4  5 -1 -1</clus>
<clus scale="  300.000">  1  4  2 -1</clus>
</clustering>
</event>
<event>
 6    1  0.9687246E-012  0.3000000E+03  0.7818608E-02  0.1093470E+00
          1   -1    0    0  502    0  0.00000000000E+00  0.00000000000E+00  0.23337589821E+03  0.23337589821E+03  0.00000000000E+00 0.  1.
         13   -1    0    0    0    0 -0.00000000000E+00 -0.00000000000E+00 -0.27500000000E+03  0.27500000000E+03  0.00000000000E+00 0.  1.
    9000005    2    1    2  501    0 -0.12070234069E+02 -0.37747631016E+02 -0.26010778304E+02  0.46578070989E+03  0.46336220705E+03 0.  0.
         13    1    3    3    0    0 -0.73790572364E+02 -0.17393033287E+03  0.14533864143E+03  0.23836973372E+03  0.00000000000E+00 0.  1.
          1    1    3    3  501    0  0.61720338295E+02  0.13618270185E+03 -0.17134941973E+03  0.22741097617E+03  0.00000000000E+00 0.  1.
         21    1    1    2  502  501  0.12070234069E+02  0.37747631016E+02 -0.15613323483E+02  0.42595188320E+02  0.00000000000E+00 0. -1.
<scales pt_clust_4="550.00000" pt_clust_5="550.00000" pt_clust_6="39.63049"></scales>
<mgrwt>
<rscale>  0 0.30000000E+03</rscale>
<asrwt>  1 0.39630490E+02</asrwt>
<pdfrwt beam="1">  1        1 0.84863963E+00 0.30000000E+03</pdfrwt>
<pdfrwt beam="2">0</pdfrwt>
<totfact> 0.40950878E-04</totfact>
</mgrwt>
<clustering>
<clus scale="   39.630">  1  6  2 -1</clus>
<clus scale="  463.362">  4  5 -1 -1</clus>
<clus scale="  300.000">  1  4  2 -1</clus>
</clustering>
</event>
<event>
 6    1  0.9687246E-012  0.3000000E+03  0.7818608E-02  0.1093470E+00
          1   -1    0    0  502    0  0.00000000000E+00  0.00000000000E+00  0.22636933294E+03  0.22636933294E+03  0.00000000000E+00 0.  1.
         13   -1    0    0    0    0 -0.00000000000E+00 -0.00000000000E+00 -0.27500000000E+03  0.27500000000E+03  0.00000000000E+00 0.  1.
    9000005    2    1    2  501    0  0.13054155866E+02  0.29600317797E+02 -0.40412179899E+02  0.46799069710E+03  0.46511886490E+03 0.  0.
         13    1    3    3    0    0  0.16055875278E+03  0.14349375521E+03  0.97273028823E+02  0.23628714103E+03  0.00000000000E+00 0.  1.
          3    1    3    3  501    0 -0.14750459691E+03 -0.11389343742E+03 -0.13768520872E+03  0.23170355607E+03  0.00000000000E+00 0.  1.
         21    1    1    2  502  501 -0.13054155866E+02 -0.29600317797E+02 -0.82184871644E+01  0.33378635837E+02  0.00000000000E+00 0. -1.
<scales pt_clust_4="550.00000" pt_clust_5="550.00000" pt_clust_6="32.35106"></scales>
<mgrwt>
<rscale>  0 0.30000000E+03</rscale>
<asrwt>  1 0.32351056E+02</asrwt>
<pdfrwt beam="1">  1        1 0.82316121E+00 0.30000000E+03</pdfrwt>
<pdfrwt beam="2">0</pdfrwt>
<totfact> 0.68848056E-04</totfact>
</mgrwt>
<clustering>
<clus scale="   32.351">  1  6  2 -1</clus>
<clus scale="  465.119">  4  5 -1 -1</clus>
<clus scale="  300.000">  1  4  2 -1</clus>
</clustering>
</event>
<event>
 6    1  0.9687246E-012  0.3000000E+03  0.7818608E-02  0.1093470E+00
          1   -1    0    0  502    0  0.00000000000E+00  0.00000000000E+00  0.22296793652E+03  0.22296793652E+03  0.00000000000E+00 0.  1.
         13   -1    0    0    0    0 -0.00000000000E+00 -0.00000000000E+00 -0.27500000000E+03  0.27500000000E+03  0.00000000000E+00 0.  1.
    9000005    2    1    2  501    0 -0.11243859483E+02  0.28843608435E+02 -0.56594694520E+02  0.46667583327E+03  0.46219584138E+03 0.  0.
         13    1    3    3    0    0  0.10086149283E+03 -0.11165160137E+03  0.13629989631E+03  0.20301916796E+03  0.00000000000E+00 0.  1.
          3    1    3    3  501    0 -0.11210535231E+03  0.14049520980E+03 -0.19289459083E+03  0.26365666532E+03  0.00000000000E+00 0.  1.
         21    1    1    2  502  501  0.11243859483E+02 -0.28843608435E+02  0.45626310418E+01  0.31292103247E+02  0.00000000000E+00 0.  1.
<scales pt_clust_4="550.00000" pt_clust_5="550.00000" pt_clust_6="30.95768"></scales>
<mgrwt>
<rscale>  0 0.30000000E+03</rscale>
<asrwt>  1 0.30957683E+02</asrwt>
<pdfrwt beam="1">  1        1 0.81079250E+00 0.30000000E+03</pdfrwt>
<pdfrwt beam="2">0</pdfrwt>
<totfact> 0.87999231E-04</totfact>
</mgrwt>
<clustering>
<clus scale="   30.958">  1  6  2 -1</clus>
<clus scale="  462.196">  4  5 -1 -1</clus>
<clus scale="  300.000">  1  4  2 -1</clus>
</clustering>
</event>
<event>
 6    1  0.9687246E-012  0.3000000E+03  0.7818608E-02  0.1093470E+00
          1   -1    0    0  502    0  0.00000000000E+00  0.00000000000E+00  0.23748361427E+03  0.23748361427E+03  0.00000000000E+00 0.  1.
         13   -1    0    0    0    0 -0.00000000000E+00 -0.00000000000E+00 -0.27500000000E+03  0.27500000000E+03  0.00000000000E+00 0.  1.
    9000005    2    1    2  501    0  0.32690476259E+02 -0.16690238369E+02 -0.36256997951E+02  0.47575736545E+03  0.47295165671E+03 0.  0.
         13    1    3    3    0    0  0.65222974571E+02 -0.17866468754E+03  0.13849142572E+03  0.23527639487E+03  0.00000000000E+00 0.  1.
          3    1    3    3  501    0 -0.32532498312E+02  0.16197444917E+03 -0.17474842368E+03  0.24048097057E+03  0.00000000000E+00 0.  1.
         21    1    1    2  502  501 -0.32690476259E+02  0.16690238369E+02 -0.12593877803E+01  0.36726248821E+02  0.00000000000E+00 0.  1.
<scales pt_clust_4="550.00000" pt_clust_5="550.00000" pt_clust_6="36.70465"></scales>
<mgrwt>
<rscale>  0 0.30000000E+03</rscale>
<asrwt>  1 0.36704649E+02</asrwt>
<pdfrwt beam="1">  1        1 0.86357678E+00 0.30000000E+03</pdfrwt>
<pdfrwt beam="2">0</pdfrwt>
<totfact> 0.29338089E-04</totfact>
</mgrwt>
<clustering>
<clus scale="   36.705">  1  6  2 -1</clus>
<clus scale="  472.952">  4  5 -1 -1</clus>
<clus scale="  300.000">  1  4  2 -1</clus>
</clustering>
</event>
<event>
 6    1  0.9687246E-012  0.3000000E+03  0.7818608E-02  0.1093470E+00
          1   -1    0    0  502    0  0.00000000000E+00  0.00000000000E+00  0.23033552961E+03  0.23033552961E+03  0.00000000000E+00 0.  1.
         13   -1    0    0    0    0 -0.00000000000E+00 -0.00000000000E+00 -0.27500000000E+03  0.27500000000E+03  0.00000000000E+00 0.  1.
    9000005    2    1    2  501    0  0.22689202436E+02 -0.21232147228E+02 -0.47005228474E+02  0.47417332283E+03  0.47081338617E+03 0.  0.
         13    1    3    3    0    0  0.23532416182E+03 -0.48719223509E+01 -0.97897240703E+02  0.25492168699E+03  0.00000000000E+00 0.  1.
          1    1    3    3  501    0 -0.21263495938E+03 -0.16360224877E+02  0.50892012229E+02  0.21925163584E+03  0.00000000000E+00 0.  1.
         21    1    1    2  502  501 -0.22689202436E+02  0.21232147228E+02  0.23407580878E+01  0.31162206783E+02  0.00000000000E+00 0. -1.
<scales pt_clust_4="550.00000" pt_clust_5="550.00000" pt_clust_6="31.07417"></scales>
<mgrwt>
<rscale>  0 0.30000000E+03</rscale>
<asrwt>  1 0.31074169E+02</asrwt>
<pdfrwt beam="1">  1        1 0.83758374E+00 0.30000000E+03</pdfrwt>
<pdfrwt beam="2">0</pdfrwt>
<totfact> 0.52988227E-04</totfact>
</mgrwt>
<clustering>
<clus scale="   31.074">  1  6  2 -1</clus>
<clus scale="  470.813">  4  5 -1 -1</clus>
<clus scale="  300.000">  1  4  2 -1</clus>
</clustering>
</event>
<event>
 6    1  0.9687246E-012  0.3000000E+03  0.7818608E-02  0.1093470E+00
          1   -1    0    0  502    0  0.00000000000E+00  0.00000000000E+00  0.26965417644E+03  0.26965417644E+03  0.00000000000E+00 0.  1.
         13   -1    0    0    0    0 -0.00000000000E+00 -0.00000000000E+00 -0.27500000000E+03  0.27500000000E+03  0.00000000000E+00 0.  1.
    9000005    2    1    2  501    0  0.29995320064E+02  0.13727582855E+02 -0.57558210817E+02  0.48289416397E+03  0.47831544007E+03 0.  0.
         13    1    3    3    0    0  0.69075894804E+02 -0.13599706531E+03  0.15664675142E+03  0.21864328425E+03  0.00000000000E+00 0.  1.
          1    1    3    3  501    0 -0.39080574740E+02  0.14972464817E+03 -0.21420496223E+03  0.26425087973E+03  0.00000000000E+00 0.  1.
         21    1    1    2  502  501 -0.29995320064E+02 -0.13727582855E+02  0.52212387258E+02  0.61760012467E+02  0.00000000000E+00 0.  1.
<scales pt_clust_4="550.00000" pt_clust_5="550.00000" pt_clust_6="32.98736"></scales>
<mgrwt>
<rscale>  0 0.30000000E+03</rscale>
<asrwt>  1 0.32987358E+02</asrwt>
<pdfrwt beam="1">  1        1 0.98056064E+00 0.30000000E+03</pdfrwt>
<pdfrwt beam="2">0</pdfrwt>
<totfact> 0.27450585E-06</totfact>
</mgrwt>
<clustering>
<clus scale="   32.987">  1  6  2 -1</clus>
<clus scale="  478.315">  4  5 -1 -1</clus>
<clus scale="  300.000">  1  4  2 -1</clus>
</clustering>
</event>
<event>
 6    1  0.9687246E-012  0.3000000E+03  0.7818608E-02  0.1093470E+00
          1   -1    0    0  502    0  0.00000000000E+00  0.00000000000E+00  0.23276425277E+03  0.23276425277E+03  0.00000000000E+00 0.  1.
         13   -1    0    0    0    0 -0.00000000000E+00 -0.00000000000E+00 -0.27500000000E+03  0.27500000000E+03  0.00000000000E+00 0.  1.
    9000005    2    1    2  501    0 -0.33425646493E+02 -0.13727723152E+02 -0.67838719412E+02  0.46347840389E+03  0.45706062486E+03 0.  0.
         13    1    3    3    0    0 -0.19308276291E+03 -0.13049201390E+03  0.42648264719E+02  0.23691347262E+03  0.00000000000E+00 0.  1.
          1    1    3    3  501    0  0.15965711642E+03  0.11676429075E+03 -0.11048698413E+03  0.22656493127E+03  0.00000000000E+00 0.  1.
         21    1    1    2  502  501  0.33425646493E+02  0.13727723152E+02  0.25602972186E+02  0.44285848881E+02  0.00000000000E+00 0.  1.
<scales pt_clust_4="550.00000" pt_clust_5="550.00000" pt_clust_6="36.13481"></scales>
<mgrwt>
<rscale>  0 0.30000000E+03</rscale>
<asrwt>  1 0.36134806E+02</asrwt>
<pdfrwt beam="1">  1        1 0.84641546E+00 0.30000000E+03</pdfrwt>
<pdfrwt beam="2">0</pdfrwt>
<totfact> 0.43638688E-04</totfact>
</mgrwt>
<clustering>
<clus scale="   36.135">  1  6  2 -1</clus>
<clus scale="  457.061">  4  5 -1 -1</clus>
<clus scale="  300.000">  1  4  2 -1</clus>
</clustering>
</event>
<event>
 6    1  0.9687246E-012  0.3000000E+03  0.7818608E-02  0.1093470E+00
          1   -1    0    0  502    0  0.00000000000E+00  0.00000000000E+00  0.22333574929E+03  0.22333574929E+03  0.00000000000E+00 0.  1.
         13   -1    0    0    0    0 -0.00000000000E+00 -0.00000000000E+00 -0.27500000000E+03  0.27500000000E+03  0.00000000000E+00 0.  1.
    9000005    2    1    2  501    0 -0.28059144772E+02 -0.10859368779E+02 -0.49149261000E+02  0.46814358692E+03  0.46458317514E+03 0.  0.
         13    1    3    3    0    0  0.20286312270E+03  0.39132886134E+02 -0.95108690448E+02  0.22744338268E+03  0.00000000000E+00 0.  1.
          3    1    3    3  501    0 -0.23092226747E+03 -0.49992254913E+02  0.45959429448E+02  0.24070020424E+03  0.00000000000E+00 0.  1.
         21    1    1    2  502  501  0.28059144772E+02  0.10859368779E+02 -0.25149897063E+01  0.30192162374E+02  0.00000000000E+00 0. -1.
<scales pt_clust_4="550.00000" pt_clust_5="550.00000" pt_clust_6="30.08723"></scales>
<mgrwt>
<rscale>  0 0.30000000E+03</rscale>
<asrwt>  1 0.30087231E+02</asrwt>
<pdfrwt beam="1">  1        1 0.81213000E+00 0.30000000E+03</pdfrwt>
<pdfrwt beam="2">0</pdfrwt>
<totfact> 0.86363823E-04</totfact>
</mgrwt>
<clustering>
<clus scale="   30.087">  1  6  2 -1</clus>
<clus scale="  464.583">  4  5 -1 -1</clus>
<clus scale="  300.000">  1  4  2 -1</clus>
</clustering>
</event>
<event>
 6    1  0.9687246E-012  0.3000000E+03  0.7818608E-02  0.1093470E+00
          1   -1    0    0  502    0  0.00000000000E+00  0.00000000000E+00  0.23765447865E+03  0.23765447865E+03  0.00000000000E+00 0.  1.
         13   -1    0    0    0    0 -0.00000000000E+00 -0.00000000000E+00 -0.27500000000E+03  0.27500000000E+03  0.00000000000E+00 0.  1.
    9000005    2    1    2  501    0  0.89636048165E+01  0.33199871473E+02 -0.35533279860E+02  0.47821813308E+03  0.47565469739E+03 0.  0.
         13    1    3    3    0    0 -0.12678571678E+03 -0.26518076259E+02  0.17683052304E+03  0.21919594026E+03  0.00000000000E+00 0.  1.
          1    1    3    3  501    0  0.13574932159E+03  0.59717947733E+02 -0.21236380290E+03  0.25902219282E+03  0.00000000000E+00 0.  1.
         21    1    1    2  502  501 -0.89636048165E+01 -0.33199871473E+02 -0.18122414876E+01  0.34436345572E+02  0.00000000000E+00 0.  1.
<scales pt_clust_4="550.00000" pt_clust_5="550.00000" pt_clust_6="34.38863"></scales>
<mgrwt>
<rscale>  0 0.30000000E+03</rscale>
<asrwt>  1 0.34388627E+02</asrwt>
<pdfrwt beam="1">  1        1 0.86419810E+00 0.30000000E+03</pdfrwt>
<pdfrwt beam="2">0</pdfrwt>
<totfact> 0.29241122E-04</totfact>
</mgrwt>
<clustering>
<clus scale="   34.389">  1  6  2 -1</clus>
<clus scale="  475.655">  4  5 -1 -1</clus>
<clus scale="  300.000">  1  4  2 -1</clus>
</clustering>
</event>
<event>
 6    1  0.9687246E-012  0.3000000E+03  0.7818608E-02  0.1093470E+00
          1   -1    0    0  502    0  0.00000000000E+00  0.00000000000E+00  0.22184816309E+03  0.22184816309E+03  0.00000000000E+00 0.  1.
         13   -1    0    0    0    0 -0.00000000000E+00 -0.00000000000E+00 -0.27500000000E+03  0.27500000000E+03  0.00000000000E+00 0.  1.
    9000005    2    1    2  501    0 -0.98160965741E+01 -0.29468653173E+02 -0.60985785278E+02  0.46481493005E+03  0.45974873129E+03 0.  0.
         13    1    3    3    0    0 -0.21981882545E+03 -0.52251514712E+02 -0.10482958919E+03  0.24907785847E+03  0.00000000000E+00 0.  1.
          3    1    3    3  501    0  0.21000272887E+03  0.22782861538E+02  0.43843803910E+02  0.21573707158E+03  0.00000000000E+00 0.  1.
         21    1    1    2  502  501  0.98160965741E+01  0.29468653173E+02  0.78339483710E+01  0.32033233038E+02  0.00000000000E+00 0. -1.
<scales pt_clust_4="550.00000" pt_clust_5="550.00000" pt_clust_6="31.06054"></scales>
<mgrwt>
<rscale>  0 0.30000000E+03</rscale>
<asrwt>  1 0.31060542E+02</asrwt>
<pdfrwt beam="1">  1        1 0.80672059E+00 0.30000000E+03</pdfrwt>
<pdfrwt beam="2">0</pdfrwt>
<totfact> 0.94567769E-04</totfact>
</mgrwt>
<clustering>
<clus scale="   31.061">  1  6  2 -1</clus>
<clus scale="  459.749">  4  5 -1 -1</clus>
<clus scale="  300.000">  1  4  2 -1</clus>
</clustering>
</event>
<event>
 6    1  0.9687246E-012  0.3000000E+03  0.7818608E-02  0.1093470E+00
          1   -1    0    0  502    0  0.00000000000E+00  0.00000000000E+00  0.22871366777E+03  0.22871366777E+03  0.00000000000E+00 0.  1.
         13   -1    0    0    0    0 -0.00000000000E+00 -0.00000000000E+00 -0.27500000000E+03  0.27500000000E+03  0.00000000000E+00 0.  1.
    9000005    2    1    2  501    0 -0.27460328890E+02 -0.18226758603E+02 -0.49904788775E+02  0.47055680393E+03  0.46674075608E+03 0.  0.
         13    1    3    3    0    0  0.13915546187E+03  0.51774622929E+02  0.14305682691E+03  0.20617979987E+03  0.00000000000E+00 0.  1.
          3    1    3    3  501    0 -0.16661579076E+03 -0.70001381532E+02 -0.19296161569E+03  0.26437700406E+03  0.00000000000E+00 0.  1.
         21    1    1    2  502  501  0.27460328890E+02  0.18226758603E+02  0.36184565450E+01  0.33156863840E+02  0.00000000000E+00 0.  1.
<scales pt_clust_4="550.00000" pt_clust_5="550.00000" pt_clust_6="32.95883"></scales>
<mgrwt>
<rscale>  0 0.30000000E+03</rscale>
<asrwt>  1 0.32958829E+02</asrwt>
<pdfrwt beam="1">  1        1 0.83168606E+00 0.30000000E+03</pdfrwt>
<pdfrwt beam="2">0</pdfrwt>
<totfact> 0.57940509E-04</totfact>
</mgrwt>
<clustering>
<clus scale="   32.959">  1  6  2 -1</clus>
<clus scale="  466.741">  4  5 -1 -1</clus>
<clus scale="  300.000">  1  4  2 -1</clus>
</clustering>
</event>
<event>
 6    1  0.9687246E-012  0.3000000E+03  0.7818608E-02  0.1093470E+00
          1   -1    0    0  502    0  0.00000000000E+00  0.00000000000E+00  0.23015022947E+03  0.23015022947E+03  0.00000000000E+00 0.  1.
         13   -1    0    0    0    0 -0.00000000000E+00 -0.00000000000E+00 -0.27500000000E+03  0.27500000000E+03  0.00000000000E+00 0.  1.
    9000005    2    1    2  501    0  0.29354654945E+02 -0.16724418387E+02 -0.49473357877E+02  0.47105067673E+03  0.46722556112E+03 0.  0.
         13    1    3    3    0    0  0.15622483669E+03 -0.18307332899E+03  0.39172185283E+02  0.24383704290E+03  0.00000000000E+00 0.  1.
          1    1    3    3  501    0 -0.12687018175E+03  0.16634891061E+03 -0.88645543161E+02  0.22721363383E+03  0.00000000000E+00 0.  1.
         21    1    1    2  502  501 -0.29354654945E+02  0.16724418387E+02  0.46235873459E+01  0.34099552743E+02  0.00000000000E+00 0.  1.
<scales pt_clust_4="550.00000" pt_clust_5="550.00000" pt_clust_6="33.78464"></scales>
<mgrwt>
<rscale>  0 0.30000000E+03</rscale>
<asrwt>  1 0.33784641E+02</asrwt>
<pdfrwt beam="1">  1        1 0.83690993E+00 0.30000000E+03</pdfrwt>
<pdfrwt beam="2">0</pdfrwt>
<totfact> 0.52746517E-04</totfact>
</mgrwt>
<clustering>
<clus scale="   33.785">  1  6  2 -1</clus>
<clus scale="  467.226">  4  5 -1 -1</clus>
<clus scale="  300.000">  1  4  2 -1</clus>
</clustering>
</event>
<event>
 6    1  0.9687246E-012  0.3000000E+03  0.7818608E-02  0.1093470E+00
          1   -1    0    0  502    0  0.00000000000E+00  0.00000000000E+00  0.22750343016E+03  0.22750343016E+03  0.00000000000E+00 0.  1.
         13   -1    0    0    0    0 -0.00000000000E+00 -0.00000000000E+00 -0.27500000000E+03  0.27500000000E+03  0.00000000000E+00 0.  1.
    9000005    2    1    2  501    0 -0.31738249533E+02  0.87214863911E+00 -0.67315442064E+02  0.46507530139E+03  0.45908124564E+03 0.  0.
         13    1    3    3    0    0  0.70227758615E+01 -0.14673936592E+03  0.14313743625E+03  0.20510993771E+03  0.00000000000E+00 0.  1.
          1    1    3    3  501    0 -0.38761025394E+02  0.14761151456E+03 -0.21045287832E+03  0.25996536368E+03  0.00000000000E+00 0.  1.
         21    1    1    2  502  501  0.31738249533E+02 -0.87214863911E+00  0.19818872223E+02  0.37428128765E+02  0.00000000000E+00 0.  1.
<scales pt_clust_4="550.00000" pt_clust_5="550.00000" pt_clust_6="31.75023"></scales>
<mgrwt>
<rscale>  0 0.30000000E+03</rscale>
<asrwt>  1 0.31750230E+02</asrwt>
<pdfrwt beam="1">  1        1 0.82728520E+00 0.30000000E+03</pdfrwt>
<pdfrwt beam="2">0</pdfrwt>
<totfact> 0.63499269E-04</totfact>
</mgrwt>
<clustering>
<clus scale="   31.750">  1  6  2 -1</clus>
<clus scale="  459.081">  4  5 -1 -1</clus>
<clus scale="  300.000">  1  4  2 -1</clus>
</clustering>
</event>
<event>
 6    1  0.9687246E-012  0.3000000E+03  0.7818608E-02  0.1093470E+00
          1   -1    0    0  502    0  0.00000000000E+00  0.00000000000E+00  0.23412618084E+03  0.23412618084E+03  0.00000000000E+00 0.  1.
         13   -1    0    0    0    0 -0.00000000000E+00 -0.00000000000E+00 -0.27500000000E+03  0.27500000000E+03  0.00000000000E+00 0.  1.
    9000005    2    1    2  501    0 -0.20201193606E+01  0.30913180443E+02 -0.73953889421E+02  0.46380514096E+03  0.45682198438E+03 0.  0.
         13    1    3    3    0    0  0.52984920855E+02  0.13089570828E+03  0.15396366275E+03  0.20891600641E+03  0.00000000000E+00 0.  1.
          1    1    3    3  501    0 -0.55005040216E+02 -0.99982527842E+02 -0.22791755218E+03  0.25488913455E+03  0.00000000000E+00 0.  1.
         21    1    1    2  502  501  0.20201193606E+01 -0.30913180443E+02  0.33080070264E+02  0.45321039882E+02  0.00000000000E+00 0.  1.
<scales pt_clust_4="550.00000" pt_clust_5="550.00000" pt_clust_6="30.97912"></scales>
<mgrwt>
<rscale>  0 0.30000000E+03</rscale>
<asrwt>  1 0.30979116E+02</asrwt>
<pdfrwt beam="1">  1        1 0.85136793E+00 0.30000000E+03</pdfrwt>
<pdfrwt beam="2">0</pdfrwt>
<totfact> 0.40427448E-04</totfact>
</mgrwt>
<clustering>
<clus scale="   30.979">  1  6  2 -1</clus>
<clus scale="  456.822">  4  5 -1 -1</clus>
<clus scale="  300.000">  1  4  2 -1</clus>
</clustering>
</event>
<event>
 6    1  0.9687246E-012  0.3000000E+03  0.7818608E-02  0.1093470E+00
          1   -1    0    0  502    0  0.00000000000E+00  0.00000000000E+00  0.22425505066E+03  0.22425505066E+03  0.00000000000E+00 0.  1.
         13   -1    0    0    0    0 -0.00000000000E+00 -0.00000000000E+00 -0.27500000000E+03  0.27500000000E+03  0.00000000000E+00 0.  1.
    9000005    2    1    2  501    0 -0.11755739432E+02  0.31908882146E+02 -0.57130569101E+02  0.46465519071E+03  0.45987408076E+03 0.  0.
         13    1    3    3    0    0 -0.10451501965E+03  0.18995408985E+03  0.84863660101E+02  0.23282565663E+03  0.00000000000E+00 0.  1.
          3    1    3    3  501    0  0.92759280214E+02 -0.15804520770E+03 -0.14199422920E+03  0.23182953407E+03  0.00000000000E+00 0.  1.
         21    1    1    2  502  501  0.11755739432E+02 -0.31908882146E+02  0.63856197653E+01  0.34599859959E+02  0.00000000000E+00 0.  1.
<scales pt_clust_4="550.00000" pt_clust_5="550.00000" pt_clust_6="34.00550"></scales>
<mgrwt>
<rscale>  0 0.30000000E+03</rscale>
<asrwt>  1 0.34005502E+02</asrwt>
<pdfrwt beam="1">  1        1 0.81547291E+00 0.30000000E+03</pdfrwt>
<pdfrwt beam="2">0</pdfrwt>
<totfact> 0.79332952E-04</totfact>
</mgrwt>
<clustering>
<clus scale="   34.006">  1  6  2 -1</clus>
<clus scale="  459.874">  4  5 -1 -1</clus>
<clus scale="  300.000">  1  4  2 -1</clus>
</clustering>
</event>
<event>
 6    1  0.9687246E-012  0.3000000E+03  0.7818608E-02  0.1093470E+00
          1   -1    0    0  502    0  0.00000000000E+00  0.00000000000E+00  0.22976432974E+03  0.22976432974E+03  0.00000000000E+00 0.  1.
         13   -1    0    0    0    0 -0.00000000000E+00 -0.00000000000E+00 -0.27500000000E+03  0.27500000000E+03  0.00000000000E+00 0.  1.
    9000005    2    1    2  501    0  0.17580567192E+02 -0.34208540533E+02 -0.42458273394E+02  0.46620250248E+03  0.46266917744E+03 0.  0.
         13    1    3    3    0    0 -0.11221859637E+03 -0.81933414827E+02  0.16572827708E+03  0.21626825856E+03  0.00000000000E+00 0.  1.
          1    1    3    3  501    0  0.12979916356E+03  0.47724874294E+02 -0.20818655047E+03  0.24993424392E+03  0.00000000000E+00 0.  1.
         21    1    1    2  502  501 -0.17580567192E+02  0.34208540533E+02 -0.27773968652E+01  0.38561827259E+02  0.00000000000E+00 0.  1.
<scales pt_clust_4="550.00000" pt_clust_5="550.00000" pt_clust_6="38.46168"></scales>
<mgrwt>
<rscale>  0 0.30000000E+03</rscale>
<asrwt>  1 0.38461677E+02</asrwt>
<pdfrwt beam="1">  1        1 0.83550665E+00 0.30000000E+03</pdfrwt>
<pdfrwt beam="2">0</pdfrwt>
<totfact> 0.52711213E-04</totfact>
</mgrwt>
<clustering>
<clus scale="   38.462">  1  6  2 -1</clus>
<clus scale="  462.669">  4  5 -1 -1</clus>
<clus scale="  300.000">  1  4  2 -1</clus>
</clustering>
</event>
<event>
 6    1  0.9687246E-012  0.3000000E+03  0.7818608E-02  0.1093470E+00
          1   -1    0    0  502    0  0.00000000000E+00  0.00000000000E+00  0.23229970935E+03  0.23229970935E+03  0.00000000000E+00 0.  1.
         13   -1    0    0    0    0 -0.00000000000E+00 -0.00000000000E+00 -0.27500000000E+03  0.27500000000E+03  0.00000000000E+00 0.  1.
    9000005    2    1    2  501    0  0.19377315344E+02 -0.25867070356E+02 -0.51820715433E+02  0.47371745471E+03  0.46976404148E+03 0.  0.
         13    1    3    3    0    0 -0.12016118528E+03 -0.84178867329E+02 -0.20915761738E+03  0.25548326963E+03  0.00000000000E+00 0.  1.
          1    1    3    3  501    0  0.13953850062E+03  0.58311796973E+02  0.15733690195E+03  0.21823418508E+03  0.00000000000E+00 0.  1.
         21    1    1    2  502  501 -0.19377315344E+02  0.25867070356E+02  0.91204247857E+01  0.33582254644E+02  0.00000000000E+00 0.  1.
<scales pt_clust_4="550.00000" pt_clust_5="550.00000" pt_clust_6="32.32005"></scales>
<mgrwt>
<rscale>  0 0.30000000E+03</rscale>
<asrwt>  1 0.32320051E+02</asrwt>
<pdfrwt beam="1">  1        1 0.84472622E+00 0.30000000E+03</pdfrwt>
<pdfrwt beam="2">0</pdfrwt>
<totfact> 0.46118436E-04</totfact>
</mgrwt>
<clustering>
<clus scale="   32.320">  1  6  2 -1</clus>
<clus scale="  469.764">  4  5 -1 -1</clus>
<clus scale="  300.000">  1  4  2 -1</clus>
</clustering>
</event>
<event>
 6    1  0.9687246E-012  0.3000000E+03  0.7818608E-02  0.1093470E+00
          1   -1    0    0  502    0  0.00000000000E+00  0.00000000000E+00  0.23456707631E+03  0.23456707631E+03  0.00000000000E+00 0.  1.
         13   -1    0    0    0    0 -0.00000000000E+00 -0.00000000000E+00 -0.27500000000E+03  0.27500000000E+03  0.00000000000E+00 0.  1.
    9000005    2    1    2  501    0 -0.98678790427E+01 -0.32238164026E+02 -0.45602160890E+02  0.47545849572E+03  0.47206413740E+03 0.  0.
         13    1    3    3    0    0  0.31129512621E+02 -0.21456374858E+03 -0.14786291045E+03  0.26243111296E+03  0.00000000000E+00 0.  1.
          1    1    3    3  501    0 -0.40997391663E+02  0.18232558456E+03  0.10226074956E+03  0.21302738277E+03  0.00000000000E+00 0.  1.
         21    1    1    2  502  501  0.98678790427E+01  0.32238164026E+02  0.51692372030E+01  0.34108580589E+02  0.00000000000E+00 0. -1.
<scales pt_clust_4="550.00000" pt_clust_5="550.00000" pt_clust_6="33.71460"></scales>
<mgrwt>
<rscale>  0 0.30000000E+03</rscale>
<asrwt>  1 0.33714600E+02</asrwt>
<pdfrwt beam="1">  1        1 0.85297119E+00 0.30000000E+03</pdfrwt>
<pdfrwt beam="2">0</pdfrwt>
<totfact> 0.38399849E-04</totfact>
</mgrwt>
<clustering>
<clus scale="   33.715">  1  6  2 -1</clus>
<clus scale="  472.064">  4  5 -1 -1</clus>
<clus scale="  300.000">  1  4  2 -1</clus>
</clustering>
</event>
<event>
 6    1  0.9687246E-012  0.3000000E+03  0.7818608E-02  0.1093470E+00
          1   -1    0    0  502    0  0.00000000000E+00  0.00000000000E+00  0.22284414665E+03  0.22284414665E+03  0.00000000000E+00 0.  1.
         13   -1    0    0    0    0 -0.00000000000E+00 -0.00000000000E+00 -0.27500000000E+03  0.27500000000E+03  0.00000000000E+00 0.  1.
    9000005    2    1    2  501    0  0.26383433278E+02 -0.19302375716E+02 -0.57048949264E+02  0.46478950027E+03  0.46011523523E+03 0.  0.
         13    1    3    3    0    0  0.26920480763E+02 -0.62663361436E+02  0.19627196335E+03  0.20778376440E+03  0.00000000000E+00 0.  1.
          1    1    3    3  501    0 -0.53704748505E+00  0.43360985720E+02 -0.25332091261E+03  0.25700573587E+03  0.00000000000E+00 0.  1.
         21    1    1    2  502  501 -0.26383433278E+02  0.19302375716E+02  0.48930959138E+01  0.33054646382E+02  0.00000000000E+00 0. -1.
<scales pt_clust_4="550.00000" pt_clust_5="550.00000" pt_clust_6="32.69048"></scales>
<mgrwt>
<rscale>  0 0.30000000E+03</rscale>
<asrwt>  1 0.32690477E+02</asrwt>
<pdfrwt beam="1">  1        1 0.81034235E+00 0.30000000E+03</pdfrwt>
<pdfrwt beam="2">0</pdfrwt>
<totfact> 0.87800474E-04</totfact>
</mgrwt>
<clustering>
<clus scale="   32.690">  1  6  2 -1</clus>
<clus scale="  460.115">  4  5 -1 -1</clus>
<clus scale="  300.000">  1  4  2 -1</clus>
</clustering>
</event>
<event>
 6    1  0.9687246E-012  0.3000000E+03  0.7818608E-02  0.1093470E+00
          1   -1    0    0  502    0  0.00000000000E+00  0.00000000000E+00  0.23254992934E+03  0.23254992934E+03  0.00000000000E+00 0.  1.
         13   -1    0    0    0    0 -0.00000000000E+00 -0.00000000000E+00 -0.27500000000E+03  0.27500000000E+03  0.00000000000E+00 0.  1.
    9000005    2    1    2  501    0  0.30871756996E+02  0.26248236431E+02 -0.59703015492E+02  0.46350791075E+03  0.45785707156E+03 0.  0.
         13    1    3    3    0    0 -0.10745640024E+03 -0.16951674628E+03 -0.93528071696E+02  0.22142787859E+03  0.00000000000E+00 0.  1.
          3    1    3    3  501    0  0.13832815724E+03  0.19576498271E+03  0.33825056204E+02  0.24208003216E+03  0.00000000000E+00 0.  1.
         21    1    1    2  502  501 -0.30871756996E+02 -0.26248236431E+02  0.17252944829E+02  0.44042018585E+02  0.00000000000E+00 0.  1.
<scales pt_clust_4="550.00000" pt_clust_5="550.00000" pt_clust_6="40.52203"></scales>
<mgrwt>
<rscale>  0 0.30000000E+03</rscale>
<asrwt>  1 0.40522035E+02</asrwt>
<pdfrwt beam="1">  1        1 0.84563611E+00 0.30000000E+03</pdfrwt>
<pdfrwt beam="2">0</pdfrwt>
<totfact> 0.43415136E-04</totfact>
</mgrwt>
<clustering>
<clus scale="   40.522">  1  6  2 -1</clus>
<clus scale="  457.857">  4  5 -1 -1</clus>
<clus scale="  300.000">  1  4  2 -1</clus>
</clustering>
</event>
<event>
 6    1  0.9687246E-012  0.3000000E+03  0.7818608E-02  0.1093470E+00
          1   -1    0    0  502    0  0.00000000000E+00  0.00000000000E+00  0.23585704257E+03  0.23585704257E+03  0.00000000000E+00 0.  1.
         13   -1    0    0    0    0 -0.00000000000E+00 -0.00000000000E+00 -0.27500000000E+03  0.27500000000E+03  0.00000000000E+00 0.  1.
    9000005    2    1    2  501    0 -0.32515591763E+02  0.65913029364E+01 -0.59823978545E+02  0.47176211174E+03  0.46677604125E+03 0.  0.
         13    1    3    3    0    0  0.59748825641E+02  0.27842464845E+02  0.19185499766E+03  0.20286316852E+03  0.00000000000E+00 0.  1.
          3    1    3    3  501    0 -0.92264417405E+02 -0.21251161909E+02 -0.25167897621E+03  0.26889894322E+03  0.00000000000E+00 0.  1.
         21    1    1    2  502  501  0.32515591763E+02 -0.65913029364E+01  0.20681021112E+02  0.39094930827E+02  0.00000000000E+00 0. -1.
<scales pt_clust_4="550.00000" pt_clust_5="550.00000" pt_clust_6="33.17693"></scales>
<mgrwt>
<rscale>  0 0.30000000E+03</rscale>
<asrwt>  1 0.33176934E+02</asrwt>
<pdfrwt beam="1">  1        1 0.85766197E+00 0.30000000E+03</pdfrwt>
<pdfrwt beam="2">0</pdfrwt>
<totfact> 0.34580000E-04</totfact>
</mgrwt>
<clustering>
<clus scale="   33.177">  1  6  2 -1</clus>
<clus scale="  466.776">  4  5 -1 -1</clus>
<clus scale="  300.000">  1  4  2 -1</clus>
</clustering>
</event>
<event>
 6    1  0.9687246E-012  0.3000000E+03  0.7818608E-02  0.1093470E+00
          1   -1    0    0  502    0  0.00000000000E+00  0.00000000000E+00  0.24320175064E+03  0.24320175064E+03  0.00000000000E+00 0.  1.
         13   -1    0    0    0    0 -0.00000000000E+00 -0.00000000000E+00 -0.27500000000E+03  0.27500000000E+03  0.00000000000E+00 0.  1.
    9000005    2    1    2  501    0 -0.25813718763E+02 -0.22044528147E+02 -0.29681965199E+02  0.48419016502E+03  0.48208587155E+03 0.  0.
         13    1    3    3    0    0 -0.77148108952E+02 -0.15267287324E+02  0.21768830924E+03  0.23145868046E+03  0.00000000000E+00 0.  1.
          3    1    3    3  501    0  0.51334390189E+02 -0.67772408234E+01 -0.24737027444E+03  0.25273148456E+03  0.00000000000E+00 0.  1.
         21    1    1    2  502  501  0.25813718763E+02  0.22044528147E+02 -0.21162841659E+01  0.34011585618E+02  0.00000000000E+00 0.  1.
<scales pt_clust_4="550.00000" pt_clust_5="550.00000" pt_clust_6="33.94570"></scales>
<mgrwt>
<rscale>  0 0.30000000E+03</rscale>
<asrwt>  1 0.33945699E+02</asrwt>
<pdfrwt beam="1">  1        1 0.88437000E+00 0.30000000E+03</pdfrwt>
<pdfrwt beam="2">0</pdfrwt>
<totfact> 0.17409856E-04</totfact>
</mgrwt>
<clustering>
<clus scale="   33.946">  1  6  2 -1</clus>
<clus scale="  482.086">  4  5 -1 -1</clus>
<clus scale="  300.000">  1  4  2 -1</clus>
</clustering>
</event>
<event>
 6    1  0.9687246E-012  0.3000000E+03  0.7818608E-02  0.1093470E+00
          1   -1    0    0  502    0  0.00000000000E+00  0.00000000000E+00  0.22015524131E+03  0.22015524131E+03  0.00000000000E+00 0.  1.
         13   -1    0    0    0    0 -0.00000000000E+00 -0.00000000000E+00 -0.27500000000E+03  0.27500000000E+03  0.00000000000E+00 0.  1.
    9000005    2    1    2  501    0 -0.33669359746E+02  0.10458225958E+01 -0.51625486916E+02  0.46131616269E+03  0.45717905850E+03 0.  0.
         13    1    3    3    0    0 -0.24972369992E+02  0.20686615706E+03  0.72720078683E+02  0.22069308110E+03  0.00000000000E+00 0.  1.
          1    1    3    3  501    0 -0.86969897534E+01 -0.20582033447E+03 -0.12434556560E+03  0.24062308159E+03  0.00000000000E+00 0.  1.
         21    1    1    2  502  501  0.33669359746E+02 -0.10458225958E+01 -0.32192717779E+01  0.33839078613E+02  0.00000000000E+00 0. -1.
<scales pt_clust_4="550.00000" pt_clust_5="550.00000" pt_clust_6="33.68560"></scales>
<mgrwt>
<rscale>  0 0.30000000E+03</rscale>
<asrwt>  1 0.33685598E+02</asrwt>
<pdfrwt beam="1">  1        1 0.80056451E+00 0.30000000E+03</pdfrwt>
<pdfrwt beam="2">0</pdfrwt>
<totfact> 0.10347275E-03</totfact>
</mgrwt>
<clustering>
<clus scale="   33.686">  1  6  2 -1</clus>
<clus scale="  457.179">  4  5 -1 -1</clus>
<clus scale="  300.000">  1  4  2 -1</clus>
</clustering>
</event>
<event>
 6    1  0.9687246E-012  0.3000000E+03  0.7818608E-02  0.1093470E+00
          1   -1    0    0  502    0  0.00000000000E+00  0.00000000000E+00  0.22568398670E+03  0.22568398670E+03  0.00000000000E+00 0.  1.
         13   -1    0    0    0    0 -0.00000000000E+00 -0.00000000000E+00 -0.27500000000E+03  0.27500000000E+03  0.00000000000E+00 0.  1.
    9000005    2    1    2  501    0  0.38639080039E+02 -0.45322202700E+01 -0.37538102593E+02  0.46003624743E+03  0.45684868423E+03 0.  0.
         13    1    3    3    0    0 -0.17258025258E+03  0.46325746043E+02 -0.13297912341E+03  0.22274080360E+03  0.00000000000E+00 0.  1.
          1    1    3    3  501    0  0.21121933262E+03 -0.50857966313E+02  0.95441020817E+02  0.23729544383E+03  0.00000000000E+00 0.  1.
         21    1    1    2  502  501 -0.38639080039E+02  0.45322202700E+01 -0.11777910707E+02  0.40647739266E+02  0.00000000000E+00 0.  1.
<scales pt_clust_4="550.00000" pt_clust_5="550.00000" pt_clust_6="38.90400"></scales>
<mgrwt>
<rscale>  0 0.30000000E+03</rscale>
<asrwt>  1 0.38903998E+02</asrwt>
<pdfrwt beam="1">  1        1 0.82066904E+00 0.30000000E+03</pdfrwt>
<pdfrwt beam="2">0</pdfrwt>
<totfact> 0.69981835E-04</totfact>
</mgrwt>
<clustering>
<clus scale="   38.904">  1  6  2 -1</clus>
<clus scale="  456.849">  4  5 -1 -1</clus>
<clus scale="  300.000">  1  4  2 -1</clus>
</clustering>
</event>
<event>
 6    1  0.9687246E-012  0.3000000E+03  0.7818608E-02  0.1093470E+00
          1   -1    0    0  502    0  0.00000000000E+00  0.00000000000E+00  0.22871222062E+03  0.22871222062E+03  0.00000000000E+00 0.  1.
         13   -1    0    0    0    0 -0.00000000000E+00 -0.00000000000E+00 -0.27500000000E+03  0.27500000000E+03  0.00000000000E+00 0.  1.
    9000005    2    1    2  501    0  0.33577419877E+02  0.59650850379E+01 -0.25353493510E+02  0.46369635265E+03  0.46174504054E+03 0.  0.
         13    1    3    3    0    0  0.17122089309E+03 -0.72438004057E+02 -0.16796478533E+03  0.25055144736E+03  0.00000000000E+00 0.  1.
          3    1    3    3  501    0 -0.13764347321E+03  0.78403089094E+02  0.14261129182E+03  0.21314490529E+03  0.00000000000E+00 0.  1.
         21    1    1    2  502  501 -0.33577419877E+02 -0.59650850379E+01 -0.20934285865E+02  0.40015867975E+02  0.00000000000E+00 0. -1.
<scales pt_clust_4="550.00000" pt_clust_5="550.00000" pt_clust_6="34.10317"></scales>
<mgrwt>
<rscale>  0 0.30000000E+03</rscale>
<asrwt>  1 0.34103175E+02</asrwt>
<pdfrwt beam="1">  1        1 0.83168080E+00 0.30000000E+03</pdfrwt>
<pdfrwt beam="2">0</pdfrwt>
<totfact> 0.57574374E-04</totfact>
</mgrwt>
<clustering>
<clus scale="   34.103">  1  6  2 -1</clus>
<clus scale="  461.745">  4  5 -1 -1</clus>
<clus scale="  300.000">  1  4  2 -1</clus>
</clustering>
</event>
<event>
 6    1  0.9687246E-012  0.3000000E+03  0.7818608E-02  0.1093470E+00
          1   -1    0    0  502    0  0.00000000000E+00  0.00000000000E+00  0.23880670552E+03  0.23880670552E+03  0.00000000000E+00 0.  1.
         13   -1    0    0    0    0 -0.00000000000E+00 -0.00000000000E+00 -0.27500000000E+03  0.27500000000E+03  0.00000000000E+00 0.  1.
    9000005    2    1    2  501    0 -0.30632206942E+02 -0.15604447654E+02 -0.28643507561E+02  0.47860968617E+03  0.47651332645E+03 0.  0.
         13    1    3    3    0    0 -0.22918604103E+03  0.66789789789E+02  0.59896544548E+02  0.24611930740E+03  0.00000000000E+00 0.  1.
          1    1    3    3  501    0  0.19855383409E+03 -0.82394237443E+02 -0.88540052109E+02  0.23249037878E+03  0.00000000000E+00 0.  1.
         21    1    1    2  502  501  0.30632206942E+02  0.15604447654E+02 -0.75497869169E+01  0.35197019351E+02  0.00000000000E+00 0.  1.
<scales pt_clust_4="550.00000" pt_clust_5="550.00000" pt_clust_6="34.37778"></scales>
<mgrwt>
<rscale>  0 0.30000000E+03</rscale>
<asrwt>  1 0.34377785E+02</asrwt>
<pdfrwt beam="1">  1        1 0.86838802E+00 0.30000000E+03</pdfrwt>
<pdfrwt beam="2">0</pdfrwt>
<totfact> 0.26398583E-04</totfact>
</mgrwt>
<clustering>
<clus scale="   34.378">  1  6  2 -1</clus>
<clus scale="  476.513">  4  5 -1 -1</clus>
<clus scale="  300.000">  1  4  2 -1</clus>
</clustering>
</event>
<event>
 6    1  0.9687246E-012  0.3000000E+03  0.7818608E-02  0.1093470E+00
          1   -1    0    0  502    0  0.00000000000E+00  0.00000000000E+00  0.25321385097E+03  0.25321385097E+03  0.00000000000E+00 0.  1.
         13   -1    0    0    0    0 -0.00000000000E+00 -0.00000000000E+00 -0.27500000000E+03  0.27500000000E+03  0.00000000000E+00 0.  1.
    9000005    2    1    2  501    0  0.17467767649E+02  0.25719934018E+02 -0.51911547268E+02  0.48492207887E+03  0.48113197350E+03 0.  0.
         13    1    3    3    0    0  0.18526893584E+02  0.18384924086E+03 -0.19715378757E+03  0.27020992784E+03  0.00000000000E+00 0.  1.
          1    1    3    3  501    0 -0.10591259347E+01 -0.15812930684E+03  0.14524224030E+03  0.21471215103E+03  0.00000000000E+00 0.  1.
         21    1    1    2  502  501 -0.17467767649E+02 -0.25719934018E+02  0.30125398237E+02  0.43291772099E+02  0.00000000000E+00 0.  1.
<scales pt_clust_4="550.00000" pt_clust_5="550.00000" pt_clust_6="31.09080"></scales>
<mgrwt>
<rscale>  0 0.30000000E+03</rscale>
<asrwt>  1 0.31090801E+02</asrwt>
<pdfrwt beam="1">  1        1 0.92077764E+00 0.30000000E+03</pdfrwt>
<pdfrwt beam="2">0</pdfrwt>
<totfact> 0.41125862E-05</totfact>
</mgrwt>
<clustering>
<clus scale="   31.091">  1  6  2 -1</clus>
<clus scale="  481.132">  4  5 -1 -1</clus>
<clus scale="  300.000">  1  4  2 -1</clus>
</clustering>
</event>
<event>
 6    1  0.9687246E-012  0.3000000E+03  0.7818608E-02  0.1093470E+00
          1   -1    0    0  502    0  0.00000000000E+00  0.00000000000E+00  0.23213615128E+03  0.23213615128E+03  0.00000000000E+00 0.  1.
         13   -1    0    0    0    0 -0.00000000000E+00 -0.00000000000E+00 -0.27500000000E+03  0.27500000000E+03  0.00000000000E+00 0.  1.
    9000005    2    1    2  501    0 -0.30554593029E+02  0.39828468015E+01 -0.63963180474E+02  0.46979143245E+03  0.46439558065E+03 0.  0.
         13    1    3    3    0    0 -0.16067460209E+03  0.18179605921E+03 -0.57574063786E+02  0.24936099880E+03  0.00000000000E+00 0.  1.
          1    1    3    3  501    0  0.13012000907E+03 -0.17781321241E+03 -0.63891166879E+01  0.22043043365E+03  0.00000000000E+00 0.  1.
         21    1    1    2  502  501  0.30554593029E+02 -0.39828468015E+01  0.21099331756E+02  0.37344718828E+02  0.00000000000E+00 0. -1.
<scales pt_clust_4="550.00000" pt_clust_5="550.00000" pt_clust_6="30.81309"></scales>
<mgrwt>
<rscale>  0 0.30000000E+03</rscale>
<asrwt>  1 0.30813085E+02</asrwt>
<pdfrwt beam="1">  1        1 0.84413146E+00 0.30000000E+03</pdfrwt>
<pdfrwt beam="2">0</pdfrwt>
<totfact> 0.47095072E-04</totfact>
</mgrwt>
<clustering>
<clus scale="   30.813">  1  6  2 -1</clus>
<clus scale="  464.396">  4  5 -1 -1</clus>
<clus scale="  300.000">  1  4  2 -1</clus>
</clustering>
</event>
<event>
 6    1  0.9687246E-012  0.3000000E+03  0.7818608E-02  0.1093470E+00
          1   -1    0    0  502    0  0.00000000000E+00  0.00000000000E+00  0.23070494186E+03  0.23070494186E+03  0.00000000000E+00 0.  1.
         13   -1    0    0    0    0 -0.00000000000E+00 -0.00000000000E+00 -0.27500000000E+03  0.27500000000E+03  0.00000000000E+00 0.  1.
    9000005    2    1    2  501    0 -0.31160394753E+02 -0.20600979136E+02 -0.43634298626E+02  0.46834443938E+03  0.46480876857E+03 0.  0.
         13    1    3    3    0    0  0.17444860669E+03 -0.10551803452E+03  0.73764429640E+02  0.21681227609E+03  0.00000000000E+00 0.  1.
          1    1    3    3  501    0 -0.20560900144E+03  0.84917055388E+02 -0.11739872827E+03  0.25153216329E+03  0.00000000000E+00 0.  1.
         21    1    1    2  502  501  0.31160394753E+02  0.20600979136E+02 -0.66075951386E+00  0.37360502482E+02  0.00000000000E+00 0.  1.
<scales pt_clust_4="550.00000" pt_clust_5="550.00000" pt_clust_6="37.35466"></scales>
<mgrwt>
<rscale>  0 0.30000000E+03</rscale>
<asrwt>  1 0.37354659E+02</asrwt>
<pdfrwt beam="1">  1        1 0.83892706E+00 0.30000000E+03</pdfrwt>
<pdfrwt beam="2">0</pdfrwt>
<totfact> 0.50031884E-04</totfact>
</mgrwt>
<clustering>
<clus scale="   37.355">  1  6  2 -1</clus>
<clus scale="  464.809">  4  5 -1 -1</clus>
<clus scale="  300.000">  1  4  2 -1</clus>
</clustering>
</event>
<event>
 6    1  0.9687246E-012  0.3000000E+03  0.7818608E-02  0.1093470E+00
          1   -1    0    0  502    0  0.00000000000E+00  0.00000000000E+00  0.23574733664E+03  0.23574733664E+03  0.00000000000E+00 0.  1.
         13   -1    0    0    0    0 -0.00000000000E+00 -0.00000000000E+00 -0.27500000000E+03  0.27500000000E+03  0.00000000000E+00 0.  1.
    9000005    2    1    2  501    0 -0.57242954291E+01  0.38524251533E+02 -0.35953467564E+02  0.47166063548E+03  0.46867282588E+03 0.  0.
         13    1    3    3    0    0  0.80103031769E+01  0.24460187148E+03 -0.85549185812E+02  0.25925451526E+03  0.00000000000E+00 0.  1.
          3    1    3    3  501    0 -0.13734598606E+02 -0.20607761995E+03  0.49595718249E+02  0.21240612023E+03  0.00000000000E+00 0.  1.
         21    1    1    2  502  501  0.57242954291E+01 -0.38524251533E+02 -0.32991957961E+01  0.39086701156E+02  0.00000000000E+00 0.  1.
<scales pt_clust_4="550.00000" pt_clust_5="550.00000" pt_clust_6="38.94723"></scales>
<mgrwt>
<rscale>  0 0.30000000E+03</rscale>
<asrwt>  1 0.38947234E+02</asrwt>
<pdfrwt beam="1">  1        1 0.85726304E+00 0.30000000E+03</pdfrwt>
<pdfrwt beam="2">0</pdfrwt>
<totfact> 0.33883790E-04</totfact>
</mgrwt>
<clustering>
<clus scale="   38.947">  1  6  2 -1</clus>
<clus scale="  468.673">  4  5 -1 -1</clus>
<clus scale="  300.000">  1  4  2 -1</clus>
</clustering>
</event>
<event>
 6    1  0.9687246E-012  0.3000000E+03  0.7818608E-02  0.1093470E+00
          1   -1    0    0  502    0  0.00000000000E+00  0.00000000000E+00  0.23757269886E+03  0.23757269886E+03  0.00000000000E+00 0.  1.
         13   -1    0    0    0    0 -0.00000000000E+00 -0.00000000000E+00 -0.27500000000E+03  0.27500000000E+03  0.00000000000E+00 0.  1.
    9000005    2    1    2  501    0  0.27933063552E+02  0.12127846809E+02 -0.50752435454E+02  0.47933266408E+03  0.47566443260E+03 0.  0.
         13    1    3    3    0    0 -0.17936715004E+03 -0.12371574460E+03  0.27040394328E+02  0.21956626085E+03  0.00000000000E+00 0.  1.
          1    1    3    3  501    0  0.20730021360E+03  0.13584359141E+03 -0.77792829782E+02  0.25976640324E+03  0.00000000000E+00 0.  1.
         21    1    1    2  502  501 -0.27933063552E+02 -0.12127846809E+02  0.13325134318E+02  0.33240034781E+02  0.00000000000E+00 0. -1.
<scales pt_clust_4="550.00000" pt_clust_5="550.00000" pt_clust_6="30.45227"></scales>
<mgrwt>
<rscale>  0 0.30000000E+03</rscale>
<asrwt>  1 0.30452269E+02</asrwt>
<pdfrwt beam="1">  1        1 0.86390072E+00 0.30000000E+03</pdfrwt>
<pdfrwt beam="2">0</pdfrwt>
<totfact> 0.30145972E-04</totfact>
</mgrwt>
<clustering>
<clus scale="   30.452">  1  6  2 -1</clus>
<clus scale="  475.664">  4  5 -1 -1</clus>
<clus scale="  300.000">  1  4  2 -1</clus>
</clustering>
</event>
<event>
 6    1  0.9687246E-012  0.3000000E+03  0.7818608E-02  0.1093470E+00
          1   -1    0    0  502    0  0.00000000000E+00  0.00000000000E+00  0.23575840998E+03  0.23575840998E+03  0.00000000000E+00 0.  1.
         13   -1    0    0    0    0 -0.00000000000E+00 -0.00000000000E+00 -0.27500000000E+03  0.27500000000E+03  0.00000000000E+00 0.  1.
    9000005    2    1    2  501    0 -0.23833609535E+02 -0.21730047293E+02 -0.18308447439E+02  0.47230802172E+03  0.47084969176E+03 0.  0.
         13    1    3    3    0    0 -0.16846915316E+03 -0.32313233798E+02  0.16537570053E+03  0.23827530919E+03  0.00000000000E+00 0.  1.
          3    1    3    3  501    0  0.14463554363E+03  0.10583186505E+02 -0.18368414796E+03  0.23403271252E+03  0.00000000000E+00 0.  1.
         21    1    1    2  502  501  0.23833609535E+02  0.21730047293E+02 -0.20933142586E+02  0.38450388259E+02  0.00000000000E+00 0. -1.
<scales pt_clust_4="550.00000" pt_clust_5="550.00000" pt_clust_6="32.25270"></scales>
<mgrwt>
<rscale>  0 0.30000000E+03</rscale>
<asrwt>  1 0.32252704E+02</asrwt>
<pdfrwt beam="1">  1        1 0.85730331E+00 0.30000000E+03</pdfrwt>
<pdfrwt beam="2">0</pdfrwt>
<totfact> 0.35064085E-04</totfact>
</mgrwt>
<clustering>
<clus scale="   32.253">  1  6  2 -1</clus>
<clus scale="  470.850">  4  5 -1 -1</clus>
<clus scale="  300.000">  1  4  2 -1</clus>
</clustering>
</event>
<event>
 6    1  0.9687246E-012  0.3000000E+03  0.7818608E-02  0.1093470E+00
          1   -1    0    0  502    0  0.00000000000E+00  0.00000000000E+00  0.22141793276E+03  0.22141793276E+03  0.00000000000E+00 0.  1.
         13   -1    0    0    0    0 -0.00000000000E+00 -0.00000000000E+00 -0.27500000000E+03  0.27500000000E+03  0.00000000000E+00 0.  1.
    9000005    2    1    2  501    0  0.23675412748E+02  0.19369736404E+02 -0.63409424700E+02  0.46428868111E+03  0.45891994117E+03 0.  0.
         13    1    3    3    0    0 -0.13657647753E+03 -0.41988819441E+02 -0.19942082690E+03  0.24532603077E+03  0.00000000000E+00 0.  1.
          3    1    3    3  501    0  0.16025189028E+03  0.61358555845E+02  0.13601140220E+03  0.21896265034E+03  0.00000000000E+00 0.  1.
         21    1    1    2  502  501 -0.23675412748E+02 -0.19369736404E+02  0.98273574614E+01  0.32129251654E+02  0.00000000000E+00 0.  1.
<scales pt_clust_4="550.00000" pt_clust_5="550.00000" pt_clust_6="30.58941"></scales>
<mgrwt>
<rscale>  0 0.30000000E+03</rscale>
<asrwt>  1 0.30589408E+02</asrwt>
<pdfrwt beam="1">  1        1 0.80515612E+00 0.30000000E+03</pdfrwt>
<pdfrwt beam="2">0</pdfrwt>
<totfact> 0.97491353E-04</totfact>
</mgrwt>
<clustering>
<clus scale="   30.589">  1  6  2 -1</clus>
<clus scale="  458.920">  4  5 -1 -1</clus>
<clus scale="  300.000">  1  4  2 -1</clus>
</clustering>
</event>
<event>
 6    1  0.9687246E-012  0.3000000E+03  0.7818608E-02  0.1093470E+00
          1   -1    0    0  502    0  0.00000000000E+00  0.00000000000E+00  0.22650130653E+03  0.22650130653E+03  0.00000000000E+00 0.  1.
         13   -1    0    0    0    0 -0.00000000000E+00 -0.00000000000E+00 -0.27500000000E+03  0.27500000000E+03  0.00000000000E+00 0.  1.
    9000005    2    1    2  501    0  0.29902816056E+02  0.66826550800E+01 -0.70764949876E+02  0.46362489617E+03  0.45716685131E+03 0.  0.
         13    1    3    3    0    0  0.10590025658E+02 -0.14832491595E+03  0.13801260308E+03  0.20287904757E+03  0.00000000000E+00 0.  1.
          1    1    3    3  501    0  0.19312790398E+02  0.15500757103E+03 -0.20877755295E+03  0.26074584861E+03  0.00000000000E+00 0.  1.
         21    1    1    2  502  501 -0.29902816056E+02 -0.66826550800E+01  0.22266256404E+02  0.37876410353E+02  0.00000000000E+00 0.  1.
<scales pt_clust_4="550.00000" pt_clust_5="550.00000" pt_clust_6="30.64044"></scales>
<mgrwt>
<rscale>  0 0.30000000E+03</rscale>
<asrwt>  1 0.30640435E+02</asrwt>
<pdfrwt beam="1">  1        1 0.82364111E+00 0.30000000E+03</pdfrwt>
<pdfrwt beam="2">0</pdfrwt>
<totfact> 0.68882677E-04</totfact>
</mgrwt>
<clustering>
<clus scale="   30.640">  1  6  2 -1</clus>
<clus scale="  457.167">  4  5 -1 -1</clus>
<clus scale="  300.000">  1  4  2 -1</clus>
</clustering>
</event>
<event>
 6    1  0.9687246E-012  0.3000000E+03  0.7818608E-02  0.1093470E+00
          1   -1    0    0  502    0  0.00000000000E+00  0.00000000000E+00  0.24064315218E+03  0.24064315218E+03  0.00000000000E+00 0.  1.
         13   -1    0    0    0    0 -0.00000000000E+00 -0.00000000000E+00 -0.27500000000E+03  0.27500000000E+03  0.00000000000E+00 0.  1.
    9000005    2    1    2  501    0 -0.24933625192E+02  0.41823493772E+02 -0.56306631527E+02  0.46223263541E+03  0.45619916943E+03 0.  0.
         13    1    3    3    0    0  0.33009183519E+02 -0.19651842437E+03 -0.82253685294E+02  0.21558006879E+03  0.00000000000E+00 0.  1.
          3    1    3    3  501    0 -0.57942808710E+02  0.23834191814E+03  0.25947053767E+02  0.24665256663E+03  0.00000000000E+00 0.  1.
         21    1    1    2  502  501  0.24933625192E+02 -0.41823493772E+02  0.21949783710E+02  0.53410516768E+02  0.00000000000E+00 0. -1.
<scales pt_clust_4="550.00000" pt_clust_5="550.00000" pt_clust_6="48.69179"></scales>
<mgrwt>
<rscale>  0 0.30000000E+03</rscale>
<asrwt>  1 0.48691789E+02</asrwt>
<pdfrwt beam="1">  1        1 0.87506601E+00 0.30000000E+03</pdfrwt>
<pdfrwt beam="2">0</pdfrwt>
<totfact> 0.21150402E-04</totfact>
</mgrwt>
<clustering>
<clus scale="   48.692">  1  6  2 -1</clus>
<clus scale="  456.199">  4  5 -1 -1</clus>
<clus scale="  300.000">  1  4  2 -1</clus>
</clustering>
</event>
<event>
 6    1  0.9687246E-012  0.3000000E+03  0.7818608E-02  0.1093470E+00
          1   -1    0    0  502    0  0.00000000000E+00  0.00000000000E+00  0.23139106405E+03  0.23139106405E+03  0.00000000000E+00 0.  1.
         13   -1    0    0    0    0 -0.00000000000E+00 -0.00000000000E+00 -0.27500000000E+03  0.27500000000E+03  0.00000000000E+00 0.  1.
    9000005    2    1    2  501    0  0.16739401514E+02 -0.33614185759E+02 -0.49436406712E+02  0.46839000534E+03  0.46425759848E+03 0.  0.
         13    1    3    3    0    0 -0.18503948038E+03 -0.21988044092E-01  0.10438518191E+03  0.21245205573E+03  0.00000000000E+00 0.  1.
          1    1    3    3  501    0  0.20177888189E+03 -0.33592197715E+02 -0.15382158862E+03  0.25593794961E+03  0.00000000000E+00 0.  1.
         21    1    1    2  502  501 -0.16739401514E+02  0.33614185759E+02  0.58274707628E+01  0.38001058706E+02  0.00000000000E+00 0.  1.
<scales pt_clust_4="550.00000" pt_clust_5="550.00000" pt_clust_6="37.55158"></scales>
<mgrwt>
<rscale>  0 0.30000000E+03</rscale>
<asrwt>  1 0.37551578E+02</asrwt>
<pdfrwt beam="1">  1        1 0.84142205E+00 0.30000000E+03</pdfrwt>
<pdfrwt beam="2">0</pdfrwt>
<totfact> 0.47811469E-04</totfact>
</mgrwt>
<clustering>
<clus scale="   37.552">  1  6  2 -1</clus>
<clus scale="  464.258">  4  5 -1 -1</clus>
<clus scale="  300.000">  1  4  2 -1</clus>
</clustering>
</event>
<event>
 6    1  0.9687246E-012  0.3000000E+03  0.7818608E-02  0.1093470E+00
          1   -1    0    0  502    0  0.00000000000E+00  0.00000000000E+00  0.22449653328E+03  0.22449653328E+03  0.00000000000E+00 0.  1.
         13   -1    0    0    0    0 -0.00000000000E+00 -0.00000000000E+00 -0.27500000000E+03  0.27500000000E+03  0.00000000000E+00 0.  1.
    9000005    2    1    2  501    0 -0.26728429102E+02  0.20760821610E+02 -0.64301074143E+02  0.46294800928E+03  0.45720981018E+03 0.  0.
         13    1    3    3    0    0 -0.21125077613E+03  0.43517786245E+02  0.77432121221E+02  0.22916461667E+03  0.00000000000E+00 0.  1.
          1    1    3    3  501    0  0.18452234703E+03 -0.22756964635E+02 -0.14173319536E+03  0.23378339261E+03  0.00000000000E+00 0.  1.
         21    1    1    2  502  501  0.26728429102E+02 -0.20760821610E+02  0.13797607426E+02  0.36548524004E+02  0.00000000000E+00 0. -1.
<scales pt_clust_4="550.00000" pt_clust_5="550.00000" pt_clust_6="33.84406"></scales>
<mgrwt>
<rscale>  0 0.30000000E+03</rscale>
<asrwt>  1 0.33844064E+02</asrwt>
<pdfrwt beam="1">  1        1 0.81635103E+00 0.30000000E+03</pdfrwt>
<pdfrwt beam="2">0</pdfrwt>
<totfact> 0.78106525E-04</totfact>
</mgrwt>
<clustering>
<clus scale="   33.844">  1  6  2 -1</clus>
<clus scale="  457.210">  4  5 -1 -1</clus>
<clus scale="  300.000">  1  4  2 -1</clus>
</clustering>
</event>
<event>
 6    1  0.9687246E-012  0.3000000E+03  0.7818608E-02  0.1093470E+00
          1   -1    0    0  502    0  0.00000000000E+00  0.00000000000E+00  0.25161459187E+03  0.25161459187E+03  0.00000000000E+00 0.  1.
         13   -1    0    0    0    0 -0.00000000000E+00 -0.00000000000E+00 -0.27500000000E+03  0.27500000000E+03  0.00000000000E+00 0.  1.
    9000005    2    1    2  501    0  0.53756441886E+02  0.28764508638E+02 -0.40402351090E+02  0.46331586874E+03  0.45750638493E+03 0.  0.
         13    1    3    3    0    0  0.59513124751E+02 -0.68662734565E+02 -0.23152441972E+03  0.24871658582E+03  0.00000000000E+00 0.  1.
          3    1    3    3  501    0 -0.57566828643E+01  0.97427243203E+02  0.19112206863E+03  0.21459928293E+03  0.00000000000E+00 0.  1.
         21    1    1    2  502  501 -0.53756441886E+02 -0.28764508638E+02  0.17016942957E+02  0.63298723123E+02  0.00000000000E+00 0. -1.
<scales pt_clust_4="550.00000" pt_clust_5="550.00000" pt_clust_6="60.96845"></scales>
<mgrwt>
<rscale>  0 0.30000000E+03</rscale>
<asrwt>  1 0.60968451E+02</asrwt>
<pdfrwt beam="1">  1        1 0.91496215E+00 0.30000000E+03</pdfrwt>
<pdfrwt beam="2">0</pdfrwt>
<totfact> 0.49153489E-05</totfact>
</mgrwt>
<clustering>
<clus scale="   60.968">  1  6  2 -1</clus>
<clus scale="  457.506">  4  5 -1 -1</clus>
<clus scale="  300.000">  1  4  2 -1</clus>
</clustering>
</event>
<event>
 6    1  0.9687246E-012  0.3000000E+03  0.7818608E-02  0.1093470E+00
          1   -1    0    0  502    0  0.00000000000E+00  0.00000000000E+00  0.24451639130E+03  0.24451639130E+03  0.00000000000E+00 0.  1.
         13   -1    0    0    0    0 -0.00000000000E+00 -0.00000000000E+00 -0.27500000000E+03  0.27500000000E+03  0.00000000000E+00 0.  1.
    9000005    2    1    2  501    0 -0.42211861972E+02  0.93865683739E+01 -0.60568267558E+02  0.46683778411E+03  0.46086771712E+03 0.  0.
         13    1    3    3    0    0  0.36917295542E+02 -0.74496847626E+02 -0.23974918548E+03  0.25375645598E+03  0.00000000000E+00 0.  1.
          1    1    3    3  501    0 -0.79129157515E+02  0.83883416000E+02  0.17918091792E+03  0.21308132813E+03  0.00000000000E+00 0.  1.
         21    1    1    2  502  501  0.42211861972E+02 -0.93865683739E+01  0.30084658862E+02  0.52678607194E+02  0.00000000000E+00 0.  1.
<scales pt_clust_4="550.00000" pt_clust_5="550.00000" pt_clust_6="43.24291"></scales>
<mgrwt>
<rscale>  0 0.30000000E+03</rscale>
<asrwt>  1 0.43242906E+02</asrwt>
<pdfrwt beam="1">  1        1 0.88915051E+00 0.30000000E+03</pdfrwt>
<pdfrwt beam="2">0</pdfrwt>
<totfact> 0.14315163E-04</totfact>
</mgrwt>
<clustering>
<clus scale="   43.243">  1  6  2 -1</clus>
<clus scale="  460.868">  4  5 -1 -1</clus>
<clus scale="  300.000">  1  4  2 -1</clus>
</clustering>
</event>
<event>
 6    1  0.9687246E-012  0.3000000E+03  0.7818608E-02  0.1093470E+00
          1   -1    0    0  502    0  0.00000000000E+00  0.00000000000E+00  0.23840586590E+03  0.23840586590E+03  0.00000000000E+00 0.  1.
         13   -1    0    0    0    0 -0.00000000000E+00 -0.00000000000E+00 -0.27500000000E+03  0.27500000000E+03  0.00000000000E+00 0.  1.
    9000005    2    1    2  501    0 -0.38475702509E+02  0.28925538827E+02 -0.19844054127E+02  0.46243889955E+03  0.45949851235E+03 0.  0.
         13    1    3    3    0    0 -0.68045107637E+01  0.21065164922E+02 -0.23942513479E+03  0.24044633020E+03  0.00000000000E+00 0.  1.
          3    1    3    3  501    0 -0.31671191746E+02  0.78603739047E+01  0.21958108066E+03  0.22199256935E+03  0.00000000000E+00 0.  1.
         21    1    1    2  502  501  0.38475702509E+02 -0.28925538827E+02 -0.16750079970E+02  0.50966966351E+02  0.00000000000E+00 0. -1.
<scales pt_clust_4="550.00000" pt_clust_5="550.00000" pt_clust_6="48.13594"></scales>
<mgrwt>
<rscale>  0 0.30000000E+03</rscale>
<asrwt>  1 0.48135941E+02</asrwt>
<pdfrwt beam="1">  1        1 0.86693042E+00 0.30000000E+03</pdfrwt>
<pdfrwt beam="2">0</pdfrwt>
<totfact> 0.25714789E-04</totfact>
</mgrwt>
<clustering>
<clus scale="   48.136">  1  6  2 -1</clus>
<clus scale="  459.499">  4  5 -1 -1</clus>
<clus scale="  300.000">  1  4  2 -1</clus>
</clustering>
</event>
<event>
 6    1  0.9687246E-012  0.3000000E+03  0.7818608E-02  0.1093470E+00
          1   -1    0    0  502    0  0.00000000000E+00  0.00000000000E+00  0.25517727142E+03  0.25517727142E+03  0.00000000000E+00 0.  1.
         13   -1    0    0    0    0 -0.00000000000E+00 -0.00000000000E+00 -0.27500000000E+03  0.27500000000E+03  0.00000000000E+00 0.  1.
    9000005    2    1    2  501    0 -0.82984931218E+01 -0.39374373523E+02 -0.25232390573E+02  0.48957590788E+03  0.48726654899E+03 0.  0.
         13    1    3    3    0    0 -0.12998975322E+03 -0.14618041061E+03 -0.17982451543E+03  0.26571207112E+03  0.00000000000E+00 0.  1.
          1    1    3    3  501    0  0.12169126009E+03  0.10680603709E+03  0.15459212486E+03  0.22386383676E+03  0.00000000000E+00 0.  1.
         21    1    1    2  502  501  0.82984931218E+01  0.39374373523E+02  0.54096619953E+01  0.40601363540E+02  0.00000000000E+00 0.  1.
<scales pt_clust_4="550.00000" pt_clust_5="550.00000" pt_clust_6="40.23936"></scales>
<mgrwt>
<rscale>  0 0.30000000E+03</rscale>
<asrwt>  1 0.40239362E+02</asrwt>
<pdfrwt beam="1">  1        1 0.92791735E+00 0.30000000E+03</pdfrwt>
<pdfrwt beam="2">0</pdfrwt>
<totfact> 0.27866712E-05</totfact>
</mgrwt>
<clustering>
<clus scale="   40.239">  1  6  2 -1</clus>
<clus scale="  487.267">  4  5 -1 -1</clus>
<clus scale="  300.000">  1  4  2 -1</clus>
</clustering>
</event>
<event>
 6    1  0.9687246E-012  0.3000000E+03  0.7818608E-02  0.1093470E+00
          1   -1    0    0  502    0  0.00000000000E+00  0.00000000000E+00  0.22169705495E+03  0.22169705495E+03  0.00000000000E+00 0.  1.
         13   -1    0    0    0    0 -0.00000000000E+00 -0.00000000000E+00 -0.27500000000E+03  0.27500000000E+03  0.00000000000E+00 0.  1.
    9000005    2    1    2  501    0 -0.32595880924E+02  0.24979120176E+00 -0.54573000940E+02  0.46407548401E+03  0.45970130365E+03 0.  0.
         13    1    3    3    0    0 -0.54238282103E+02  0.16264247261E+03 -0.18679371987E+03  0.25354735046E+03  0.00000000000E+00 0.  1.
          1    1    3    3  501    0  0.21642401179E+02 -0.16239268140E+03  0.13222071893E+03  0.21052813355E+03  0.00000000000E+00 0.  1.
         21    1    1    2  502  501  0.32595880924E+02 -0.24979120176E+00  0.12700558939E+01  0.32621570944E+02  0.00000000000E+00 0.  1.
<scales pt_clust_4="550.00000" pt_clust_5="550.00000" pt_clust_6="32.59684"></scales>
<mgrwt>
<rscale>  0 0.30000000E+03</rscale>
<asrwt>  1 0.32596838E+02</asrwt>
<pdfrwt beam="1">  1        1 0.80617111E+00 0.30000000E+03</pdfrwt>
<pdfrwt beam="2">0</pdfrwt>
<totfact> 0.94614645E-04</totfact>
</mgrwt>
<clustering>
<clus scale="   32.597">  1  6  2 -1</clus>
<clus scale="  459.701">  4  5 -1 -1</clus>
<clus scale="  300.000">  1  4  2 -1</clus>
</clustering>
</event>
<event>
 6    1  0.9687246E-012  0.3000000E+03  0.7818608E-02  0.1093470E+00
          1   -1    0    0  502    0  0.00000000000E+00  0.00000000000E+00  0.25334700866E+03  0.25334700866E+03  0.00000000000E+00 0.  1.
         13   -1    0    0    0    0 -0.00000000000E+00 -0.00000000000E+00 -0.27500000000E+03  0.27500000000E+03  0.00000000000E+00 0.  1.
    9000005    2    1    2  501    0 -0.11178513883E+02  0.61127605624E+02 -0.24515404160E+02  0.46613980048E+03  0.46132826188E+03 0.  0.
         13    1    3    3    0    0 -0.11893202376E+03 -0.66548738369E+01 -0.20984780024E+03  0.24129901137E+03  0.00000000000E+00 0.  1.
          1    1    3    3  501    0  0.10775350988E+03  0.67782479461E+02  0.18533239608E+03  0.22484078911E+03  0.00000000000E+00 0.  1.
         21    1    1    2  502  501  0.11178513883E+02 -0.61127605624E+02  0.28624128194E+01  0.62207208176E+02  0.00000000000E+00 0. -1.
<scales pt_clust_4="550.00000" pt_clust_5="550.00000" pt_clust_6="62.14132"></scales>
<mgrwt>
<rscale>  0 0.30000000E+03</rscale>
<asrwt>  1 0.62141318E+02</asrwt>
<pdfrwt beam="1">  1        1 0.92126185E+00 0.30000000E+03</pdfrwt>
<pdfrwt beam="2">0</pdfrwt>
<totfact> 0.35459041E-05</totfact>
</mgrwt>
<clustering>
<clus scale="   62.141">  1  6  2 -1</clus>
<clus scale="  461.328">  4  5 -1 -1</clus>
<clus scale="  300.000">  1  4  2 -1</clus>
</clustering>
</event>
<event>
 6    1  0.9687246E-012  0.3000000E+03  0.7818608E-02  0.1093470E+00
          1   -1    0    0  502    0  0.00000000000E+00  0.00000000000E+00  0.26663648440E+03  0.26663648440E+03  0.00000000000E+00 0.  1.
         13   -1    0    0    0    0 -0.00000000000E+00 -0.00000000000E+00 -0.27500000000E+03  0.27500000000E+03  0.00000000000E+00 0.  1.
    9000005    2    1    2  501    0 -0.30711511793E+02  0.60106062659E+01 -0.39497908765E+02  0.49749268776E+03  0.49493389986E+03 0.  0.
         13    1    3    3    0    0  0.74315159067E+02 -0.93107152426E+02  0.19122777638E+03  0.22529923915E+03  0.00000000000E+00 0.  1.
          3    1    3    3  501    0 -0.10502667086E+03  0.99117758692E+02 -0.23072568515E+03  0.27219344861E+03  0.00000000000E+00 0.  1.
         21    1    1    2  502  501  0.30711511793E+02 -0.60106062659E+01  0.31134393160E+02  0.44143796640E+02  0.00000000000E+00 0.  1.
<scales pt_clust_4="550.00000" pt_clust_5="550.00000" pt_clust_6="31.29416"></scales>
<mgrwt>
<rscale>  0 0.30000000E+03</rscale>
<asrwt>  1 0.31294158E+02</asrwt>
<pdfrwt beam="1">  1        1 0.96958722E+00 0.30000000E+03</pdfrwt>
<pdfrwt beam="2">0</pdfrwt>
<totfact> 0.51287750E-06</totfact>
</mgrwt>
<clustering>
<clus scale="   31.294">  1  6  2 -1</clus>
<clus scale="  494.934">  4  5 -1 -1</clus>
<clus scale="  300.000">  1  4  2 -1</clus>
</clustering>
</event>
<event>
 6    1  0.9687246E-012  0.3000000E+03  0.7818608E-02  0.1093470E+00
          1   -1    0    0  502    0  0.00000000000E+00  0.00000000000E+00  0.25471306774E+03  0.25471306774E+03  0.00000000000E+00 0.  1.
         13   -1    0    0    0    0 -0.00000000000E+00 -0.00000000000E+00 -0.27500000000E+03  0.27500000000E+03  0.00000000000E+00 0.  1.
    9000005    2    1    2  501    0 -0.46855396190E+02 -0.26889154677E+01 -0.66576395649E+02  0.46379362570E+03  0.45658455116E+03 0.  0.
         13    1    3    3    0    0 -0.22617756183E+03  0.10437517246E+03 -0.20666094827E+02  0.24995510312E+03  0.00000000000E+00 0.  1.
          3    1    3    3  501    0  0.17932216564E+03 -0.10706408793E+03 -0.45910300822E+02  0.21383852257E+03  0.00000000000E+00 0.  1.
         21    1    1    2  502  501  0.46855396190E+02  0.26889154677E+01  0.46289463386E+02  0.65919442042E+02  0.00000000000E+00 0.  1.
<scales pt_clust_4="550.00000" pt_clust_5="550.00000" pt_clust_6="46.93249"></scales>
<mgrwt>
<rscale>  0 0.30000000E+03</rscale>
<asrwt>  1 0.46932488E+02</asrwt>
<pdfrwt beam="1">  1        1 0.92622934E+00 0.30000000E+03</pdfrwt>
<pdfrwt beam="2">0</pdfrwt>
<totfact> 0.29326678E-05</totfact>
</mgrwt>
<clustering>
<clus scale="   46.932">  1  6  2 -1</clus>
<clus scale="  456.585">  4  5 -1 -1</clus>
<clus scale="  300.000">  1  4  2 -1</clus>
</clustering>
</event>
<event>
 6    1  0.9687246E-012  0.3000000E+03  0.7818608E-02  0.1093470E+00
          1   -1    0    0  502    0  0.00000000000E+00  0.00000000000E+00  0.22527907557E+03  0.22527907557E+03  0.00000000000E+00 0.  1.
         13   -1    0    0    0    0 -0.00000000000E+00 -0.00000000000E+00 -0.27500000000E+03  0.27500000000E+03  0.00000000000E+00 0.  1.
    9000005    2    1    2  501    0 -0.85184433321E+01 -0.29059644945E+02 -0.70464560960E+02  0.46357314557E+03  0.45718462364E+03 0.  0.
         13    1    3    3    0    0 -0.23443292312E+02 -0.23733729373E+03 -0.87571886574E+02  0.25406183158E+03  0.00000000000E+00 0.  1.
          3    1    3    3  501    0  0.14924848979E+02  0.20827764878E+03  0.17107325614E+02  0.20951131399E+03  0.00000000000E+00 0.  1.
         21    1    1    2  502  501  0.85184433321E+01  0.29059644945E+02  0.20743636533E+02  0.36705930008E+02  0.00000000000E+00 0.  1.
<scales pt_clust_4="550.00000" pt_clust_5="550.00000" pt_clust_6="30.28245"></scales>
<mgrwt>
<rscale>  0 0.30000000E+03</rscale>
<asrwt>  1 0.30282451E+02</asrwt>
<pdfrwt beam="1">  1        1 0.81919664E+00 0.30000000E+03</pdfrwt>
<pdfrwt beam="2">0</pdfrwt>
<totfact> 0.75534928E-04</totfact>
</mgrwt>
<clustering>
<clus scale="   30.282">  1  6  2 -1</clus>
<clus scale="  457.185">  4  5 -1 -1</clus>
<clus scale="  300.000">  1  4  2 -1</clus>
</clustering>
</event>
<event>
 6    1  0.9687246E-012  0.3000000E+03  0.7818608E-02  0.1093470E+00
          1   -1    0    0  502    0  0.00000000000E+00  0.00000000000E+00  0.22706437537E+03  0.22706437537E+03  0.00000000000E+00 0.  1.
         13   -1    0    0    0    0 -0.00000000000E+00 -0.00000000000E+00 -0.27500000000E+03  0.27500000000E+03  0.00000000000E+00 0.  1.
    9000005    2    1    2  501    0  0.30572920816E+02 -0.70267746606E+01 -0.66997520152E+02  0.46535695227E+03  0.45943916493E+03 0.  0.
         13    1    3    3    0    0  0.16312428096E+03  0.12143522737E+03 -0.15991174246E+03  0.25870409904E+03  0.00000000000E+00 0.  1.
          3    1    3    3  501    0 -0.13255136014E+03 -0.12846200203E+03  0.92914222311E+02  0.20665285323E+03  0.00000000000E+00 0.  1.
         21    1    1    2  502  501 -0.30572920816E+02  0.70267746606E+01  0.19061895519E+02  0.36707423093E+02  0.00000000000E+00 0.  1.
<scales pt_clust_4="550.00000" pt_clust_5="550.00000" pt_clust_6="31.37003"></scales>
<mgrwt>
<rscale>  0 0.30000000E+03</rscale>
<asrwt>  1 0.31370034E+02</asrwt>
<pdfrwt beam="1">  1        1 0.82568864E+00 0.30000000E+03</pdfrwt>
<pdfrwt beam="2">0</pdfrwt>
<totfact> 0.65746826E-04</totfact>
</mgrwt>
<clustering>
<clus scale="   31.370">  1  6  2 -1</clus>
<clus scale="  459.439">  4  5 -1 -1</clus>
<clus scale="  300.000">  1  4  2 -1</clus>
</clustering>
</event>
<event>
 6    1  0.9687246E-012  0.3000000E+03  0.7818608E-02  0.1093470E+00
          1   -1    0    0  502    0  0.00000000000E+00  0.00000000000E+00  0.22521837627E+03  0.22521837627E+03  0.00000000000E+00 0.  1.
         13   -1    0    0    0    0 -0.00000000000E+00 -0.00000000000E+00 -0.27500000000E+03  0.27500000000E+03  0.00000000000E+00 0.  1.
    9000005    2    1    2  501    0 -0.93074795312E+01 -0.29593172143E+02 -0.57464583953E+02  0.46825882542E+03  0.46368282711E+03 0.  0.
         13    1    3    3    0    0  0.52996963302E+02  0.64103680040E+02  0.18396621089E+03  0.20189484061E+03  0.00000000000E+00 0.  1.
          1    1    3    3  501    0 -0.62304442833E+02 -0.93696852183E+02 -0.24143079484E+03  0.26636398481E+03  0.00000000000E+00 0.  1.
         21    1    1    2  502  501  0.93074795312E+01  0.29593172143E+02  0.76829602186E+01  0.31959550848E+02  0.00000000000E+00 0.  1.
<scales pt_clust_4="550.00000" pt_clust_5="550.00000" pt_clust_6="31.02233"></scales>
<mgrwt>
<rscale>  0 0.30000000E+03</rscale>
<asrwt>  1 0.31022331E+02</asrwt>
<pdfrwt beam="1">  1        1 0.81897591E+00 0.30000000E+03</pdfrwt>
<pdfrwt beam="2">0</pdfrwt>
<totfact> 0.75512649E-04</totfact>
</mgrwt>
<clustering>
<clus scale="   31.022">  1  6  2 -1</clus>
<clus scale="  463.683">  4  5 -1 -1</clus>
<clus scale="  300.000">  1  4  2 -1</clus>
</clustering>
</event>
<event>
 6    1  0.9687246E-012  0.3000000E+03  0.7818608E-02  0.1093470E+00
          1   -1    0    0  502    0  0.00000000000E+00  0.00000000000E+00  0.25326344952E+03  0.25326344952E+03  0.00000000000E+00 0.  1.
         13   -1    0    0    0    0 -0.00000000000E+00 -0.00000000000E+00 -0.27500000000E+03  0.27500000000E+03  0.00000000000E+00 0.  1.
    9000005    2    1    2  501    0 -0.26206318783E+02  0.17068293414E+02 -0.64816181817E+01  0.49346674359E+03  0.49243204391E+03 0.  0.
         13    1    3    3    0    0 -0.17026546449E+03 -0.16576923543E+03  0.71206922903E+02  0.24807296040E+03  0.00000000000E+00 0.  1.
          3    1    3    3  501    0  0.14405914570E+03  0.18283752884E+03 -0.77688541085E+02  0.24539378319E+03  0.00000000000E+00 0.  1.
         21    1    1    2  502  501  0.26206318783E+02 -0.17068293414E+02 -0.15254932296E+02  0.34796705931E+02  0.00000000000E+00 0. -1.
<scales pt_clust_4="550.00000" pt_clust_5="550.00000" pt_clust_6="31.27457"></scales>
<mgrwt>
<rscale>  0 0.30000000E+03</rscale>
<asrwt>  1 0.31274571E+02</asrwt>
<pdfrwt beam="1">  1        1 0.92095800E+00 0.30000000E+03</pdfrwt>
<pdfrwt beam="2">0</pdfrwt>
<totfact> 0.40715198E-05</totfact>
</mgrwt>
<clustering>
<clus scale="   31.275">  1  6  2 -1</clus>
<clus scale="  492.432">  4  5 -1 -1</clus>
<clus scale="  300.000">  1  4  2 -1</clus>
</clustering>
</event>
<event>
 6    1  0.9687246E-012  0.3000000E+03  0.7818608E-02  0.1093470E+00
          1   -1    0    0  502    0  0.00000000000E+00  0.00000000000E+00  0.24917792891E+03  0.24917792891E+03  0.00000000000E+00 0.  1.
         13   -1    0    0    0    0 -0.00000000000E+00 -0.00000000000E+00 -0.27500000000E+03  0.27500000000E+03  0.00000000000E+00 0.  1.
    9000005    2    1    2  501    0  0.31864338615E+02  0.40968464546E+02 -0.53937934290E+02  0.46515036818E+03  0.45908802326E+03 0.  0.
         13    1    3    3    0    0  0.23474582078E+03  0.81534206619E+02 -0.68412664657E+02  0.25774739555E+03  0.00000000000E+00 0.  1.
          3    1    3    3  501    0 -0.20288148217E+03 -0.40565742074E+02  0.14474730367E+02  0.20740297263E+03  0.00000000000E+00 0.  1.
         21    1    1    2  502  501 -0.31864338615E+02 -0.40968464546E+02  0.28115863201E+02  0.59027560734E+02  0.00000000000E+00 0. -1.
<scales pt_clust_4="550.00000" pt_clust_5="550.00000" pt_clust_6="51.90136"></scales>
<mgrwt>
<rscale>  0 0.30000000E+03</rscale>
<asrwt>  1 0.51901360E+02</asrwt>
<pdfrwt beam="1">  1        1 0.90610156E+00 0.30000000E+03</pdfrwt>
<pdfrwt beam="2">0</pdfrwt>
<totfact> 0.81932842E-05</totfact>
</mgrwt>
<clustering>
<clus scale="   51.901">  1  6  2 -1</clus>
<clus scale="  459.088">  4  5 -1 -1</clus>
<clus scale="  300.000">  1  4  2 -1</clus>
</clustering>
</event>
<event>
 6    1  0.9687246E-012  0.3000000E+03  0.7818608E-02  0.1093470E+00
          1   -1    0    0  502    0  0.00000000000E+00  0.00000000000E+00  0.24033804620E+03  0.24033804620E+03  0.00000000000E+00 0.  1.
         13   -1    0    0    0    0 -0.00000000000E+00 -0.00000000000E+00 -0.27500000000E+03  0.27500000000E+03  0.00000000000E+00 0.  1.
    9000005    2    1    2  501    0 -0.16602680532E+02  0.29285951125E+02 -0.67044281592E+02  0.46862690099E+03  0.46258287982E+03 0.  0.
         13    1    3    3    0    0  0.69219695703E+02 -0.15835073544E+03 -0.16614465685E+03  0.23972978265E+03  0.00000000000E+00 0.  1.
          3    1    3    3  501    0 -0.85822376235E+02  0.18763668656E+03  0.99100375262E+02  0.22889711834E+03  0.00000000000E+00 0.  1.
         21    1    1    2  502  501  0.16602680532E+02 -0.29285951125E+02  0.32382327795E+02  0.46711145218E+02  0.00000000000E+00 0.  1.
<scales pt_clust_4="550.00000" pt_clust_5="550.00000" pt_clust_6="33.66476"></scales>
<mgrwt>
<rscale>  0 0.30000000E+03</rscale>
<asrwt>  1 0.33664758E+02</asrwt>
<pdfrwt beam="1">  1        1 0.87395653E+00 0.30000000E+03</pdfrwt>
<pdfrwt beam="2">0</pdfrwt>
<totfact> 0.23235616E-04</totfact>
</mgrwt>
<clustering>
<clus scale="   33.665">  1  6  2 -1</clus>
<clus scale="  462.583">  4  5 -1 -1</clus>
<clus scale="  300.000">  1  4  2 -1</clus>
</clustering>
</event>
<event>
 6    1  0.9687246E-012  0.3000000E+03  0.7818608E-02  0.1093470E+00
          1   -1    0    0  502    0  0.00000000000E+00  0.00000000000E+00  0.24066760329E+03  0.24066760329E+03  0.00000000000E+00 0.  1.
         13   -1    0    0    0    0 -0.00000000000E+00 -0.00000000000E+00 -0.27500000000E+03  0.27500000000E+03  0.00000000000E+00 0.  1.
    9000005    2    1    2  501    0 -0.25046285875E+02  0.21760815082E+02 -0.48636327309E+02  0.47953656484E+03  0.47590857859E+03 0.  0.
         13    1    3    3    0    0 -0.17089111914E+02 -0.46881512874E+02 -0.25607478896E+03  0.26089118716E+03  0.00000000000E+00 0.  1.
          3    1    3    3  501    0 -0.79571739619E+01  0.68642327956E+02  0.20743846166E+03  0.21864537767E+03  0.00000000000E+00 0.  1.
         21    1    1    2  502  501  0.25046285875E+02 -0.21760815082E+02  0.14303930600E+02  0.36131038454E+02  0.00000000000E+00 0. -1.
<scales pt_clust_4="550.00000" pt_clust_5="550.00000" pt_clust_6="33.17905"></scales>
<mgrwt>
<rscale>  0 0.30000000E+03</rscale>
<asrwt>  1 0.33179052E+02</asrwt>
<pdfrwt beam="1">  1        1 0.87515492E+00 0.30000000E+03</pdfrwt>
<pdfrwt beam="2">0</pdfrwt>
<totfact> 0.22634023E-04</totfact>
</mgrwt>
<clustering>
<clus scale="   33.179">  1  6  2 -1</clus>
<clus scale="  475.909">  4  5 -1 -1</clus>
<clus scale="  300.000">  1  4  2 -1</clus>
</clustering>
</event>
<event>
 6    1  0.9687246E-012  0.3000000E+03  0.7818608E-02  0.1093470E+00
          1   -1    0    0  502    0  0.00000000000E+00  0.00000000000E+00  0.23665934457E+03  0.23665934457E+03  0.00000000000E+00 0.  1.
         13   -1    0    0    0    0 -0.00000000000E+00 -0.00000000000E+00 -0.27500000000E+03  0.27500000000E+03  0.00000000000E+00 0.  1.
    9000005    2    1    2  501    0 -0.36995753550E+02  0.91711791284E+01 -0.44899930981E+02  0.47298350711E+03  0.46930224578E+03 0.  0.
         13    1    3    3    0    0 -0.17748238437E+03  0.10627669988E+03 -0.16465679857E+03  0.26439855335E+03  0.00000000000E+00 0.  1.
          1    1    3    3  501    0  0.14048663082E+03 -0.97105520748E+02  0.11975686759E+03  0.20858495376E+03  0.00000000000E+00 0.  1.
         21    1    1    2  502  501  0.36995753550E+02 -0.91711791284E+01  0.65592755500E+01  0.38675837458E+02  0.00000000000E+00 0. -1.
<scales pt_clust_4="550.00000" pt_clust_5="550.00000" pt_clust_6="38.11557"></scales>
<mgrwt>
<rscale>  0 0.30000000E+03</rscale>
<asrwt>  1 0.38115565E+02</asrwt>
<pdfrwt beam="1">  1        1 0.86057943E+00 0.30000000E+03</pdfrwt>
<pdfrwt beam="2">0</pdfrwt>
<totfact> 0.31387368E-04</totfact>
</mgrwt>
<clustering>
<clus scale="   38.116">  1  6  2 -1</clus>
<clus scale="  469.302">  4  5 -1 -1</clus>
<clus scale="  300.000">  1  4  2 -1</clus>
</clustering>
</event>
<event>
 6    1  0.9687246E-012  0.3000000E+03  0.7818608E-02  0.1093470E+00
          1   -1    0    0  502    0  0.00000000000E+00  0.00000000000E+00  0.24964244989E+03  0.24964244989E+03  0.00000000000E+00 0.  1.
         13   -1    0    0    0    0 -0.00000000000E+00 -0.00000000000E+00 -0.27500000000E+03  0.27500000000E+03  0.00000000000E+00 0.  1.
    9000005    2    1    2  501    0  0.57086707863E+02 -0.15437259656E+01 -0.48857528951E+02  0.46288871065E+03  0.45674678435E+03 0.  0.
         13    1    3    3    0    0 -0.59592178739E+02 -0.28726925562E+02 -0.23355231828E+03  0.24274091002E+03  0.00000000000E+00 0.  1.
          3    1    3    3  501    0  0.11667888660E+03  0.27183199597E+02  0.18469478933E+03  0.22014780064E+03  0.00000000000E+00 0.  1.
         21    1    1    2  502  501 -0.57086707863E+02  0.15437259656E+01  0.23499978845E+02  0.61753739241E+02  0.00000000000E+00 0. -1.
<scales pt_clust_4="550.00000" pt_clust_5="550.00000" pt_clust_6="57.10758"></scales>
<mgrwt>
<rscale>  0 0.30000000E+03</rscale>
<asrwt>  1 0.57107577E+02</asrwt>
<pdfrwt beam="1">  1        1 0.90779073E+00 0.30000000E+03</pdfrwt>
<pdfrwt beam="2">0</pdfrwt>
<totfact> 0.74156217E-05</totfact>
</mgrwt>
<clustering>
<clus scale="   57.108">  1  6  2 -1</clus>
<clus scale="  456.747">  4  5 -1 -1</clus>
<clus scale="  300.000">  1  4  2 -1</clus>
</clustering>
</event>
<event>
 6    1  0.9687246E-012  0.3000000E+03  0.7818608E-02  0.1093470E+00
          1   -1    0    0  502    0  0.00000000000E+00  0.00000000000E+00  0.22713926854E+03  0.22713926854E+03  0.00000000000E+00 0.  1.
         13   -1    0    0    0    0 -0.00000000000E+00 -0.00000000000E+00 -0.27500000000E+03  0.27500000000E+03  0.00000000000E+00 0.  1.
    9000005    2    1    2  501    0  0.31432510747E+02  0.91245595225E+00 -0.70757735995E+02  0.46324057802E+03  0.45672348375E+03 0.  0.
         13    1    3    3    0    0 -0.16077033684E+02  0.73989696347E+02  0.18133316338E+03  0.19650613812E+03  0.00000000000E+00 0.  1.
          3    1    3    3  501    0  0.47509544431E+02 -0.73077240395E+02 -0.25209089938E+03  0.26673443989E+03  0.00000000000E+00 0.  1.
         21    1    1    2  502  501 -0.31432510747E+02 -0.91245595225E+00  0.22897004531E+02  0.38898690521E+02  0.00000000000E+00 0. -1.
<scales pt_clust_4="550.00000" pt_clust_5="550.00000" pt_clust_6="31.44575"></scales>
<mgrwt>
<rscale>  0 0.30000000E+03</rscale>
<asrwt>  1 0.31445752E+02</asrwt>
<pdfrwt beam="1">  1        1 0.82596098E+00 0.30000000E+03</pdfrwt>
<pdfrwt beam="2">0</pdfrwt>
<totfact> 0.65351267E-04</totfact>
</mgrwt>
<clustering>
<clus scale="   31.446">  1  6  2 -1</clus>
<clus scale="  456.723">  4  5 -1 -1</clus>
<clus scale="  300.000">  1  4  2 -1</clus>
</clustering>
</event>
<event>
 6    1  0.9687246E-012  0.3000000E+03  0.7818608E-02  0.1093470E+00
          1   -1    0    0  502    0  0.00000000000E+00  0.00000000000E+00  0.22299699657E+03  0.22299699657E+03  0.00000000000E+00 0.  1.
         13   -1    0    0    0    0 -0.00000000000E+00 -0.00000000000E+00 -0.27500000000E+03  0.27500000000E+03  0.00000000000E+00 0.  1.
    9000005    2    1    2  501    0  0.24461827829E+02  0.24401962556E+02 -0.58650696741E+02  0.46281136564E+03  0.45777791465E+03 0.  0.
         13    1    3    3    0    0 -0.10982406108E+02  0.21557035916E+03  0.73165581067E+02  0.22791313092E+03  0.00000000000E+00 0.  1.
          1    1    3    3  501    0  0.35444233938E+02 -0.19116839661E+03 -0.13181627781E+03  0.23489823472E+03  0.00000000000E+00 0.  1.
         21    1    1    2  502  501 -0.24461827829E+02 -0.24401962556E+02  0.66476933118E+01  0.35185630927E+02  0.00000000000E+00 0.  1.
<scales pt_clust_4="550.00000" pt_clust_5="550.00000" pt_clust_6="34.55194"></scales>
<mgrwt>
<rscale>  0 0.30000000E+03</rscale>
<asrwt>  1 0.34551943E+02</asrwt>
<pdfrwt beam="1">  1        1 0.81089817E+00 0.30000000E+03</pdfrwt>
<pdfrwt beam="2">0</pdfrwt>
<totfact> 0.86023041E-04</totfact>
</mgrwt>
<clustering>
<clus scale="   34.552">  1  6  2 -1</clus>
<clus scale="  457.778">  4  5 -1 -1</clus>
<clus scale="  300.000">  1  4  2 -1</clus>
</clustering>
</event>
<event>
 6    1  0.9687246E-012  0.3000000E+03  0.7818608E-02  0.1093470E+00
          1   -1    0    0  502    0  0.00000000000E+00  0.00000000000E+00  0.25018035892E+03  0.25018035892E+03  0.00000000000E+00 0.  1.
         13   -1    0    0    0    0 -0.00000000000E+00 -0.00000000000E+00 -0.27500000000E+03  0.27500000000E+03  0.00000000000E+00 0.  1.
    9000005    2    1    2  501    0  0.30503607463E+02  0.62222753276E+00 -0.38315334490E+02  0.49181883953E+03  0.48937393558E+03 0.  0.
         13    1    3    3    0    0  0.17593923207E+03 -0.64128343648E+02 -0.19365719881E+03  0.26938850846E+03  0.00000000000E+00 0.  1.
          3    1    3    3  501    0 -0.14543562460E+03  0.64750571181E+02  0.15534186432E+03  0.22243033107E+03  0.00000000000E+00 0.  1.
         21    1    1    2  502  501 -0.30503607463E+02 -0.62222753276E+00  0.13495693407E+02  0.33361519388E+02  0.00000000000E+00 0. -1.
<scales pt_clust_4="550.00000" pt_clust_5="550.00000" pt_clust_6="30.50995"></scales>
<mgrwt>
<rscale>  0 0.30000000E+03</rscale>
<asrwt>  1 0.30509953E+02</asrwt>
<pdfrwt beam="1">  1        1 0.90974676E+00 0.30000000E+03</pdfrwt>
<pdfrwt beam="2">0</pdfrwt>
<totfact> 0.74801263E-05</totfact>
</mgrwt>
<clustering>
<clus scale="   30.510">  1  6  2 -1</clus>
<clus scale="  489.374">  4  5 -1 -1</clus>
<clus scale="  300.000">  1  4  2 -1</clus>
</clustering>
</event>
<event>
 6    1  0.9687246E-012  0.3000000E+03  0.7818608E-02  0.1093470E+00
          1   -1    0    0  502    0  0.00000000000E+00  0.00000000000E+00  0.22947942890E+03  0.22947942890E+03  0.00000000000E+00 0.  1.
         13   -1    0    0    0    0 -0.00000000000E+00 -0.00000000000E+00 -0.27500000000E+03  0.27500000000E+03  0.00000000000E+00 0.  1.
    9000005    2    1    2  501    0  0.20873766521E+02 -0.24717666936E+02 -0.50095261973E+02  0.47180520383E+03  0.46802130069E+03 0.  0.
         13    1    3    3    0    0 -0.89299603565E+02 -0.13519836587E+03 -0.19866376141E+03  0.25635972271E+03  0.00000000000E+00 0.  1.
          3    1    3    3  501    0  0.11017337009E+03  0.11048069893E+03  0.14856849943E+03  0.21544548112E+03  0.00000000000E+00 0.  1.
         21    1    1    2  502  501 -0.20873766521E+02  0.24717666936E+02  0.45746908772E+01  0.32674225074E+02  0.00000000000E+00 0. -1.
<scales pt_clust_4="550.00000" pt_clust_5="550.00000" pt_clust_6="32.35239"></scales>
<mgrwt>
<rscale>  0 0.30000000E+03</rscale>
<asrwt>  1 0.32352391E+02</asrwt>
<pdfrwt beam="1">  1        1 0.83447065E+00 0.30000000E+03</pdfrwt>
<pdfrwt beam="2">0</pdfrwt>
<totfact> 0.55398806E-04</totfact>
</mgrwt>
<clustering>
<clus scale="   32.352">  1  6  2 -1</clus>
<clus scale="  468.021">  4  5 -1 -1</clus>
<clus scale="  300.000">  1  4  2 -1</clus>
</clustering>
</event>
<event>
 6    1  0.9687246E-012  0.3000000E+03  0.7818608E-02  0.1093470E+00
          1   -1    0    0  502    0  0.00000000000E+00  0.00000000000E+00  0.24162274979E+03  0.24162274979E+03  0.00000000000E+00 0.  1.
         13   -1    0    0    0    0 -0.00000000000E+00 -0.00000000000E+00 -0.27500000000E+03  0.27500000000E+03  0.00000000000E+00 0.  1.
    9000005    2    1    2  501    0 -0.31806259218E+02  0.31766903885E+02 -0.47558040743E+02  0.46948604299E+03  0.46490278878E+03 0.  0.
         13    1    3    3    0    0 -0.13810484697E+03  0.19278101557E+03  0.65292047683E+02  0.24596853500E+03  0.00000000000E+00 0.  1.
          1    1    3    3  501    0  0.10629858775E+03 -0.16101411169E+03 -0.11285008843E+03  0.22351750799E+03  0.00000000000E+00 0.  1.
         21    1    1    2  502  501  0.31806259218E+02 -0.31766903885E+02  0.14180790532E+02  0.47136706800E+02  0.00000000000E+00 0. -1.
<scales pt_clust_4="550.00000" pt_clust_5="550.00000" pt_clust_6="44.95302"></scales>
<mgrwt>
<rscale>  0 0.30000000E+03</rscale>
<asrwt>  1 0.44953023E+02</asrwt>
<pdfrwt beam="1">  1        1 0.87862818E+00 0.30000000E+03</pdfrwt>
<pdfrwt beam="2">0</pdfrwt>
<totfact> 0.19586025E-04</totfact>
</mgrwt>
<clustering>
<clus scale="   44.953">  1  6  2 -1</clus>
<clus scale="  464.903">  4  5 -1 -1</clus>
<clus scale="  300.000">  1  4  2 -1</clus>
</clustering>
</event>
<event>
 6    1  0.9687246E-012  0.3000000E+03  0.7818608E-02  0.1093470E+00
          1   -1    0    0  502    0  0.00000000000E+00  0.00000000000E+00  0.23053931304E+03  0.23053931304E+03  0.00000000000E+00 0.  1.
         13   -1    0    0    0    0 -0.00000000000E+00 -0.00000000000E+00 -0.27500000000E+03  0.27500000000E+03  0.00000000000E+00 0.  1.
    9000005    2    1    2  501    0 -0.21771265933E+02 -0.23181159574E+02 -0.58898489584E+02  0.47061361585E+03  0.46582914161E+03 0.  0.
         13    1    3    3    0    0  0.16826068714E+03  0.83369854170E+02 -0.14408003113E+03  0.23668807911E+03  0.00000000000E+00 0.  1.
          3    1    3    3  501    0 -0.19003195308E+03 -0.10655101374E+03  0.85181541543E+02  0.23392553674E+03  0.00000000000E+00 0.  1.
         21    1    1    2  502  501  0.21771265933E+02  0.23181159574E+02  0.14437802625E+02  0.34925697189E+02  0.00000000000E+00 0.  1.
<scales pt_clust_4="550.00000" pt_clust_5="550.00000" pt_clust_6="31.80180"></scales>
<mgrwt>
<rscale>  0 0.30000000E+03</rscale>
<asrwt>  1 0.31801795E+02</asrwt>
<pdfrwt beam="1">  1        1 0.83832477E+00 0.30000000E+03</pdfrwt>
<pdfrwt beam="2">0</pdfrwt>
<totfact> 0.52098428E-04</totfact>
</mgrwt>
<clustering>
<clus scale="   31.802">  1  6  2 -1</clus>
<clus scale="  465.829">  4  5 -1 -1</clus>
<clus scale="  300.000">  1  4  2 -1</clus>
</clustering>
</event>
<event>
 6    1  0.9687246E-012  0.3000000E+03  0.7818608E-02  0.1093470E+00
          1   -1    0    0  502    0  0.00000000000E+00  0.00000000000E+00  0.25136338116E+03  0.25136338116E+03  0.00000000000E+00 0.  1.
         13   -1    0    0    0    0 -0.00000000000E+00 -0.00000000000E+00 -0.27500000000E+03  0.27500000000E+03  0.00000000000E+00 0.  1.
    9000005    2    1    2  501    0  0.23028368935E+02 -0.45588944860E+02 -0.41388704661E+02  0.47229126062E+03  0.46769365221E+03 0.  0.
         13    1    3    3    0    0  0.35612863243E+02 -0.88648860210E+02  0.20271538203E+03  0.22409913555E+03  0.00000000000E+00 0.  1.
          3    1    3    3  501    0 -0.12584494308E+02  0.43059915351E+02 -0.24410408669E+03  0.24819212507E+03  0.00000000000E+00 0.  1.
         21    1    1    2  502  501 -0.23028368935E+02  0.45588944860E+02  0.17752085823E+02  0.54072120546E+02  0.00000000000E+00 0. -1.
<scales pt_clust_4="550.00000" pt_clust_5="550.00000" pt_clust_6="51.07502"></scales>
<mgrwt>
<rscale>  0 0.30000000E+03</rscale>
<asrwt>  1 0.51075020E+02</asrwt>
<pdfrwt beam="1">  1        1 0.91404866E+00 0.30000000E+03</pdfrwt>
<pdfrwt beam="2">0</pdfrwt>
<totfact> 0.53266344E-05</totfact>
</mgrwt>
<clustering>
<clus scale="   51.075">  1  6  2 -1</clus>
<clus scale="  467.694">  4  5 -1 -1</clus>
<clus scale="  300.000">  1  4  2 -1</clus>
</clustering>
</event>
<event>
 6    1  0.9687246E-012  0.3000000E+03  0.7818608E-02  0.1093470E+00
          1   -1    0    0  502    0  0.00000000000E+00  0.00000000000E+00  0.22193290637E+03  0.22193290637E+03  0.00000000000E+00 0.  1.
         13   -1    0    0    0    0 -0.00000000000E+00 -0.00000000000E+00 -0.27500000000E+03  0.27500000000E+03  0.00000000000E+00 0.  1.
    9000005    2    1    2  501    0 -0.23943182994E+02  0.20583625098E+02 -0.50333363141E+02  0.46524008516E+03  0.46143030650E+03 0.  0.
         13    1    3    3    0    0 -0.23805911102E+03  0.45759595194E+02  0.57081719068E+01  0.24248435850E+03  0.00000000000E+00 0.  1.
          3    1    3    3  501    0  0.21411592803E+03 -0.25175970096E+02 -0.56041535048E+02  0.22275572665E+03  0.00000000000E+00 0.  1.
         21    1    1    2  502  501  0.23943182994E+02 -0.20583625098E+02 -0.27337304904E+01  0.31692821213E+02  0.00000000000E+00 0. -1.
<scales pt_clust_4="550.00000" pt_clust_5="550.00000" pt_clust_6="31.57470"></scales>
<mgrwt>
<rscale>  0 0.30000000E+03</rscale>
<asrwt>  1 0.31574699E+02</asrwt>
<pdfrwt beam="1">  1        1 0.80702875E+00 0.30000000E+03</pdfrwt>
<pdfrwt beam="2">0</pdfrwt>
<totfact> 0.93759867E-04</totfact>
</mgrwt>
<clustering>
<clus scale="   31.575">  1  6  2 -1</clus>
<clus scale="  461.430">  4  5 -1 -1</clus>
<clus scale="  300.000">  1  4  2 -1</clus>
</clustering>
</event>
<event>
 6    1  0.9687246E-012  0.3000000E+03  0.7818608E-02  0.1093470E+00
          1   -1    0    0  502    0  0.00000000000E+00  0.00000000000E+00  0.23282350273E+03  0.23282350273E+03  0.00000000000E+00 0.  1.
         13   -1    0    0    0    0 -0.00000000000E+00 -0.00000000000E+00 -0.27500000000E+03  0.27500000000E+03  0.00000000000E+00 0.  1.
    9000005    2    1    2  501    0  0.45737701083E+01 -0.30105064647E+02 -0.42790698115E+02  0.47736678700E+03  0.47446893597E+03 0.  0.
         13    1    3    3    0    0  0.24354415024E+02  0.15573386541E+03 -0.18461852241E+03  0.24275537725E+03  0.00000000000E+00 0.  1.
          1    1    3    3  501    0 -0.19780644916E+02 -0.18583893006E+03  0.14182782430E+03  0.23461140975E+03  0.00000000000E+00 0.  1.
         21    1    1    2  502  501 -0.45737701083E+01  0.30105064647E+02  0.61420084763E+00  0.30456715731E+02  0.00000000000E+00 0.  1.
<scales pt_clust_4="550.00000" pt_clust_5="550.00000" pt_clust_6="30.45052"></scales>
<mgrwt>
<rscale>  0 0.30000000E+03</rscale>
<asrwt>  1 0.30450522E+02</asrwt>
<pdfrwt beam="1">  1        1 0.84663092E+00 0.30000000E+03</pdfrwt>
<pdfrwt beam="2">0</pdfrwt>
<totfact> 0.44873103E-04</totfact>
</mgrwt>
<clustering>
<clus scale="   30.451">  1  6  2 -1</clus>
<clus scale="  474.469">  4  5 -1 -1</clus>
<clus scale="  300.000">  1  4  2 -1</clus>
</clustering>
</event>
<event>
 6    1  0.9687246E-012  0.3000000E+03  0.7818608E-02  0.1093470E+00
          1   -1    0    0  502    0  0.00000000000E+00  0.00000000000E+00  0.23335795819E+03  0.23335795819E+03  0.00000000000E+00 0.  1.
         13   -1    0    0    0    0 -0.00000000000E+00 -0.00000000000E+00 -0.27500000000E+03  0.27500000000E+03  0.00000000000E+00 0.  1.
    9000005    2    1    2  501    0  0.13511823102E+02 -0.32922350113E+02 -0.57145213791E+02  0.46954045129E+03  0.46468936876E+03 0.  0.
         13    1    3    3    0    0  0.18906114102E+03 -0.12570899354E+03  0.65320721158E+02  0.23624915389E+03  0.00000000000E+00 0.  1.
          3    1    3    3  501    0 -0.17554931792E+03  0.92786643429E+02 -0.12246593495E+03  0.23329129740E+03  0.00000000000E+00 0.  1.
         21    1    1    2  502  501 -0.13511823102E+02  0.32922350113E+02  0.15503171979E+02  0.38817506900E+02  0.00000000000E+00 0.  1.
<scales pt_clust_4="550.00000" pt_clust_5="550.00000" pt_clust_6="35.58722"></scales>
<mgrwt>
<rscale>  0 0.30000000E+03</rscale>
<asrwt>  1 0.35587224E+02</asrwt>
<pdfrwt beam="1">  1        1 0.84857439E+00 0.30000000E+03</pdfrwt>
<pdfrwt beam="2">0</pdfrwt>
<totfact> 0.41830626E-04</totfact>
</mgrwt>
<clustering>
<clus scale="   35.587">  1  6  2 -1</clus>
<clus scale="  464.689">  4  5 -1 -1</clus>
<clus scale="  300.000">  1  4  2 -1</clus>
</clustering>
</event>
<event>
 6    1  0.9687246E-012  0.3000000E+03  0.7818608E-02  0.1093470E+00
          1   -1    0    0  502    0  0.00000000000E+00  0.00000000000E+00  0.25541355258E+03  0.25541355258E+03  0.00000000000E+00 0.  1.
         13   -1    0    0    0    0 -0.00000000000E+00 -0.00000000000E+00 -0.27500000000E+03  0.27500000000E+03  0.00000000000E+00 0.  1.
    9000005    2    1    2  501    0 -0.50626971697E+01 -0.32153160929E+02 -0.62132789386E+02  0.47684445818E+03  0.47165739379E+03 0.  0.
         13    1    3    3    0    0  0.37922695116E+02 -0.94945064944E+02  0.18875782052E+03  0.21466767565E+03  0.00000000000E+00 0.  1.
          1    1    3    3  501    0 -0.42985392285E+02  0.62791904014E+02 -0.25089060990E+03  0.26217678253E+03  0.00000000000E+00 0.  1.
         21    1    1    2  502  501  0.50626971697E+01  0.32153160929E+02  0.42546341964E+02  0.53569094400E+02  0.00000000000E+00 0. -1.
<scales pt_clust_4="550.00000" pt_clust_5="550.00000" pt_clust_6="32.54930"></scales>
<mgrwt>
<rscale>  0 0.30000000E+03</rscale>
<asrwt>  1 0.32549296E+02</asrwt>
<pdfrwt beam="1">  1        1 0.92877655E+00 0.30000000E+03</pdfrwt>
<pdfrwt beam="2">0</pdfrwt>
<totfact> 0.27948053E-05</totfact>
</mgrwt>
<clustering>
<clus scale="   32.549">  1  6  2 -1</clus>
<clus scale="  471.657">  4  5 -1 -1</clus>
<clus scale="  300.000">  1  4  2 -1</clus>
</clustering>
</event>
<event>
 6    1  0.9687246E-012  0.3000000E+03  0.7818608E-02  0.1093470E+00
          1   -1    0    0  502    0  0.00000000000E+00  0.00000000000E+00  0.22057928885E+03  0.22057928885E+03  0.00000000000E+00 0.  1.
         13   -1    0    0    0    0 -0.00000000000E+00 -0.00000000000E+00 -0.27500000000E+03  0.27500000000E+03  0.00000000000E+00 0.  1.
    9000005    2    1    2  501    0 -0.28859231439E+02  0.85620484433E+01 -0.67049805068E+02  0.46293487239E+03  0.45706329518E+03 0.  0.
         13    1    3    3    0    0 -0.19231775265E+03  0.11508336067E+02  0.11007867548E+03  0.22189158294E+03  0.00000000000E+00 0.  1.
          3    1    3    3  501    0  0.16345852121E+03 -0.29462876239E+01 -0.17712848055E+03  0.24104328945E+03  0.00000000000E+00 0.  1.
         21    1    1    2  502  501  0.28859231439E+02 -0.85620484433E+01  0.12629093920E+02  0.32644416460E+02  0.00000000000E+00 0.  1.
<scales pt_clust_4="550.00000" pt_clust_5="550.00000" pt_clust_6="30.10256"></scales>
<mgrwt>
<rscale>  0 0.30000000E+03</rscale>
<asrwt>  1 0.30102557E+02</asrwt>
<pdfrwt beam="1">  1        1 0.80210650E+00 0.30000000E+03</pdfrwt>
<pdfrwt beam="2">0</pdfrwt>
<totfact> 0.10302212E-03</totfact>
</mgrwt>
<clustering>
<clus scale="   30.103">  1  6  2 -1</clus>
<clus scale="  457.063">  4  5 -1 -1</clus>
<clus scale="  300.000">  1  4  2 -1</clus>
</clustering>
</event>
<event>
 6    1  0.9687246E-012  0.3000000E+03  0.7818608E-02  0.1093470E+00
          1   -1    0    0  502    0  0.00000000000E+00  0.00000000000E+00  0.22253898086E+03  0.22253898086E+03  0.00000000000E+00 0.  1.
         13   -1    0    0    0    0 -0.00000000000E+00 -0.00000000000E+00 -0.27500000000E+03  0.27500000000E+03  0.00000000000E+00 0.  1.
    9000005    2    1    2  501    0 -0.23385806589E+02  0.27215060694E+02 -0.51206933066E+02  0.46163454923E+03  0.45738031393E+03 0.  0.
         13    1    3    3    0    0  0.97853429156E+02 -0.16258042248E+03 -0.12195770218E+03  0.22556898832E+03  0.00000000000E+00 0.  1.
          1    1    3    3  501    0 -0.12123923574E+03  0.18979548318E+03  0.70750769111E+02  0.23606556091E+03  0.00000000000E+00 0.  1.
         21    1    1    2  502  501  0.23385806589E+02 -0.27215060694E+02 -0.12540860789E+01  0.35904431625E+02  0.00000000000E+00 0. -1.
<scales pt_clust_4="550.00000" pt_clust_5="550.00000" pt_clust_6="35.88252"></scales>
<mgrwt>
<rscale>  0 0.30000000E+03</rscale>
<asrwt>  1 0.35882523E+02</asrwt>
<pdfrwt beam="1">  1        1 0.80923266E+00 0.30000000E+03</pdfrwt>
<pdfrwt beam="2">0</pdfrwt>
<totfact> 0.88011908E-04</totfact>
</mgrwt>
<clustering>
<clus scale="   35.883">  1  6  2 -1</clus>
<clus scale="  457.380">  4  5 -1 -1</clus>
<clus scale="  300.000">  1  4  2 -1</clus>
</clustering>
</event>
<event>
 6    1  0.9687246E-012  0.3000000E+03  0.7818608E-02  0.1093470E+00
          1   -1    0    0  502    0  0.00000000000E+00  0.00000000000E+00  0.23984703668E+03  0.23984703668E+03  0.00000000000E+00 0.  1.
         13   -1    0    0    0    0 -0.00000000000E+00 -0.00000000000E+00 -0.27500000000E+03  0.27500000000E+03  0.00000000000E+00 0.  1.
    9000005    2    1    2  501    0 -0.41476197343E+02 -0.67624010181E+01 -0.52530967724E+02  0.46937176812E+03  0.46452594020E+03 0.  0.
         13    1    3    3    0    0  0.19122661357E+03 -0.81162731048E+02 -0.81912826386E+02  0.22330409260E+03  0.00000000000E+00 0.  1.
          3    1    3    3  501    0 -0.23270281091E+03  0.74400330030E+02  0.29381858662E+02  0.24606767551E+03  0.00000000000E+00 0.  1.
         21    1    1    2  502  501  0.41476197343E+02  0.67624010181E+01  0.17378004400E+02  0.45475268559E+02  0.00000000000E+00 0.  1.
<scales pt_clust_4="550.00000" pt_clust_5="550.00000" pt_clust_6="42.02386"></scales>
<mgrwt>
<rscale>  0 0.30000000E+03</rscale>
<asrwt>  1 0.42023862E+02</asrwt>
<pdfrwt beam="1">  1        1 0.87217104E+00 0.30000000E+03</pdfrwt>
<pdfrwt beam="2">0</pdfrwt>
<totfact> 0.23268690E-04</totfact>
</mgrwt>
<clustering>
<clus scale="   42.024">  1  6  2 -1</clus>
<clus scale="  464.526">  4  5 -1 -1</clus>
<clus scale="  300.000">  1  4  2 -1</clus>
</clustering>
</event>
<event>
 6    1  0.9687246E-012  0.3000000E+03  0.7818608E-02  0.1093470E+00
          1   -1    0    0  502    0  0.00000000000E+00  0.00000000000E+00  0.24840912720E+03  0.24840912720E+03  0.00000000000E+00 0.  1.
         13   -1    0    0    0    0 -0.00000000000E+00 -0.00000000000E+00 -0.27500000000E+03  0.27500000000E+03  0.00000000000E+00 0.  1.
    9000005    2    1    2  501    0  0.45178946492E+02 -0.55085560988E+01 -0.55209106533E+02  0.46964589908E+03  0.46416348809E+03 0.  0.
         13    1    3    3    0    0 -0.93892357719E+02  0.15816578897E+03  0.95515475210E+02  0.20725683980E+03  0.00000000000E+00 0.  1.
          3    1    3    3  501    0  0.13907130421E+03 -0.16367434507E+03 -0.15072458174E+03  0.26238905928E+03  0.00000000000E+00 0.  1.
         21    1    1    2  502  501 -0.45178946492E+02  0.55085560988E+01  0.28618233735E+02  0.53763228126E+02  0.00000000000E+00 0. -1.
<scales pt_clust_4="550.00000" pt_clust_5="550.00000" pt_clust_6="45.51353"></scales>
<mgrwt>
<rscale>  0 0.30000000E+03</rscale>
<asrwt>  1 0.45513530E+02</asrwt>
<pdfrwt beam="1">  1        1 0.90330592E+00 0.30000000E+03</pdfrwt>
<pdfrwt beam="2">0</pdfrwt>
<totfact> 0.94434501E-05</totfact>
</mgrwt>
<clustering>
<clus scale="   45.514">  1  6  2 -1</clus>
<clus scale="  464.163">  4  5 -1 -1</clus>
<clus scale="  300.000">  1  4  2 -1</clus>
</clustering>
</event>
<event>
 6    1  0.9687246E-012  0.3000000E+03  0.7818608E-02  0.1093470E+00
          1   -1    0    0  502    0  0.00000000000E+00  0.00000000000E+00  0.24867100987E+03  0.24867100987E+03  0.00000000000E+00 0.  1.
         13   -1    0    0    0    0 -0.00000000000E+00 -0.00000000000E+00 -0.27500000000E+03  0.27500000000E+03  0.00000000000E+00 0.  1.
    9000005    2    1    2  501    0 -0.23798610842E+02 -0.29258796906E+02 -0.56201919869E+02  0.47555819447E+03  0.47071699508E+03 0.  0.
         13    1    3    3    0    0 -0.77110361390E+02 -0.20444636530E+03 -0.15460880519E+03  0.26767182661E+03  0.00000000000E+00 0.  1.
          1    1    3    3  501    0  0.53311750548E+02  0.17518756839E+03  0.98406885318E+02  0.20788636786E+03  0.00000000000E+00 0.  1.
         21    1    1    2  502  501  0.23798610842E+02  0.29258796906E+02  0.29872929739E+02  0.48112815399E+02  0.00000000000E+00 0. -1.
<scales pt_clust_4="550.00000" pt_clust_5="550.00000" pt_clust_6="37.71540"></scales>
<mgrwt>
<rscale>  0 0.30000000E+03</rscale>
<asrwt>  1 0.37715396E+02</asrwt>
<pdfrwt beam="1">  1        1 0.90425822E+00 0.30000000E+03</pdfrwt>
<pdfrwt beam="2">0</pdfrwt>
<totfact> 0.94099078E-05</totfact>
</mgrwt>
<clustering>
<clus scale="   37.715">  1  6  2 -1</clus>
<clus scale="  470.717">  4  5 -1 -1</clus>
<clus scale="  300.000">  1  4  2 -1</clus>
</clustering>
</event>
<event>
 6    1  0.9687246E-012  0.3000000E+03  0.7818608E-02  0.1093470E+00
          1   -1    0    0  502    0  0.00000000000E+00  0.00000000000E+00  0.24700190359E+03  0.24700190359E+03  0.00000000000E+00 0.  1.
         13   -1    0    0    0    0 -0.00000000000E+00 -0.00000000000E+00 -0.27500000000E+03  0.27500000000E+03  0.00000000000E+00 0.  1.
    9000005    2    1    2  501    0  0.84569327386E+01  0.40134727330E+02 -0.41799860482E+02  0.47872598949E+03  0.47513053852E+03 0.  0.
         13    1    3    3    0    0 -0.20184399568E+03 -0.50469578352E+02 -0.11575537014E+03  0.23809133257E+03  0.00000000000E+00 0.  1.
          1    1    3    3  501    0  0.21030092842E+03  0.90604305682E+02  0.73955509661E+02  0.24063465692E+03  0.00000000000E+00 0.  1.
         21    1    1    2  502  501 -0.84569327386E+01 -0.40134727330E+02  0.13801764068E+02  0.43275914093E+02  0.00000000000E+00 0.  1.
<scales pt_clust_4="550.00000" pt_clust_5="550.00000" pt_clust_6="41.01605"></scales>
<mgrwt>
<rscale>  0 0.30000000E+03</rscale>
<asrwt>  1 0.41016046E+02</asrwt>
<pdfrwt beam="1">  1        1 0.89818874E+00 0.30000000E+03</pdfrwt>
<pdfrwt beam="2">0</pdfrwt>
<totfact> 0.11276018E-04</totfact>
</mgrwt>
<clustering>
<clus scale="   41.016">  1  6  2 -1</clus>
<clus scale="  475.131">  4  5 -1 -1</clus>
<clus scale="  300.000">  1  4  2 -1</clus>
</clustering>
</event>
<event>
 6    1  0.9687246E-012  0.3000000E+03  0.7818608E-02  0.1093470E+00
          1   -1    0    0  502    0  0.00000000000E+00  0.00000000000E+00  0.23830948945E+03  0.23830948945E+03  0.00000000000E+00 0.  1.
         13   -1    0    0    0    0 -0.00000000000E+00 -0.00000000000E+00 -0.27500000000E+03  0.27500000000E+03  0.00000000000E+00 0.  1.
    9000005    2    1    2  501    0 -0.97882767630E+01  0.39009159000E+02 -0.63382628050E+02  0.46503947822E+03  0.45894099176E+03 0.  0.
         13    1    3    3    0    0  0.88729409356E+02 -0.17770914104E+03 -0.10293448792E+03  0.22371623924E+03  0.00000000000E+00 0.  1.
          1    1    3    3  501    0 -0.98517686119E+02  0.21671830004E+03  0.39551859875E+02  0.24132323898E+03  0.00000000000E+00 0.  1.
         21    1    1    2  502  501  0.97882767630E+01 -0.39009159000E+02  0.26692117502E+02  0.48270011235E+02  0.00000000000E+00 0.  1.
<scales pt_clust_4="550.00000" pt_clust_5="550.00000" pt_clust_6="40.21846"></scales>
<mgrwt>
<rscale>  0 0.30000000E+03</rscale>
<asrwt>  1 0.40218464E+02</asrwt>
<pdfrwt beam="1">  1        1 0.86657996E+00 0.30000000E+03</pdfrwt>
<pdfrwt beam="2">0</pdfrwt>
<totfact> 0.26784460E-04</totfact>
</mgrwt>
<clustering>
<clus scale="   40.218">  1  6  2 -1</clus>
<clus scale="  458.941">  4  5 -1 -1</clus>
<clus scale="  300.000">  1  4  2 -1</clus>
</clustering>
</event>
<event>
 6    1  0.9687246E-012  0.3000000E+03  0.7818608E-02  0.1093470E+00
          1   -1    0    0  502    0  0.00000000000E+00  0.00000000000E+00  0.23290634935E+03  0.23290634935E+03  0.00000000000E+00 0.  1.
         13   -1    0    0    0    0 -0.00000000000E+00 -0.00000000000E+00 -0.27500000000E+03  0.27500000000E+03  0.00000000000E+00 0.  1.
    9000005    2    1    2  501    0 -0.50698066940E+01 -0.34585896166E+02 -0.59666405062E+02  0.46878233050E+03  0.46365386479E+03 0.  0.
         13    1    3    3    0    0  0.25083893721E+02  0.61483989105E+02 -0.24718006581E+03  0.25594426654E+03  0.00000000000E+00 0.  1.
          1    1    3    3  501    0 -0.30153700415E+02 -0.96069885272E+02  0.18751366074E+03  0.21283806396E+03  0.00000000000E+00 0.  1.
         21    1    1    2  502  501  0.50698066940E+01  0.34585896166E+02  0.17572754409E+02  0.39124018851E+02  0.00000000000E+00 0.  1.
<scales pt_clust_4="550.00000" pt_clust_5="550.00000" pt_clust_6="34.95550"></scales>
<mgrwt>
<rscale>  0 0.30000000E+03</rscale>
<asrwt>  1 0.34955502E+02</asrwt>
<pdfrwt beam="1">  1        1 0.84693218E+00 0.30000000E+03</pdfrwt>
<pdfrwt beam="2">0</pdfrwt>
<totfact> 0.43443148E-04</totfact>
</mgrwt>
<clustering>
<clus scale="   34.956">  1  6  2 -1</clus>
<clus scale="  463.654">  4  5 -1 -1</clus>
<clus scale="  300.000">  1  4  2 -1</clus>
</clustering>
</event>
<event>
 6    1  0.9687246E-012  0.3000000E+03  0.7818608E-02  0.1093470E+00
          1   -1    0    0  502    0  0.00000000000E+00  0.00000000000E+00  0.23483952418E+03  0.23483952418E+03  0.00000000000E+00 0.  1.
         13   -1    0    0    0    0 -0.00000000000E+00 -0.00000000000E+00 -0.27500000000E+03  0.27500000000E+03  0.00000000000E+00 0.  1.
    9000005    2    1    2  501    0  0.29347236148E+02  0.19501796837E+02 -0.55704698629E+02  0.47132714679E+03  0.46669549548E+03 0.  0.
         13    1    3    3    0    0  0.11699392932E+02 -0.22019329562E+03 -0.67762487747E+02  0.23068098746E+03  0.00000000000E+00 0.  1.
          1    1    3    3  501    0  0.17647843216E+02  0.23969509246E+03  0.12057789118E+02  0.24064615932E+03  0.00000000000E+00 0.  1.
         21    1    1    2  502  501 -0.29347236148E+02 -0.19501796837E+02  0.15544222805E+02  0.38512377387E+02  0.00000000000E+00 0.  1.
<scales pt_clust_4="550.00000" pt_clust_5="550.00000" pt_clust_6="35.23607"></scales>
<mgrwt>
<rscale>  0 0.30000000E+03</rscale>
<asrwt>  1 0.35236066E+02</asrwt>
<pdfrwt beam="1">  1        1 0.85396191E+00 0.30000000E+03</pdfrwt>
<pdfrwt beam="2">0</pdfrwt>
<totfact> 0.37251257E-04</totfact>
</mgrwt>
<clustering>
<clus scale="   35.236">  1  6  2 -1</clus>
<clus scale="  466.695">  4  5 -1 -1</clus>
<clus scale="  300.000">  1  4  2 -1</clus>
</clustering>
</event>
<event>
 6    1  0.9687246E-012  0.3000000E+03  0.7818608E-02  0.1093470E+00
          1   -1    0    0  502    0  0.00000000000E+00  0.00000000000E+00  0.23902477654E+03  0.23902477654E+03  0.00000000000E+00 0.  1.
         13   -1    0    0    0    0 -0.00000000000E+00 -0.00000000000E+00 -0.27500000000E+03  0.27500000000E+03  0.00000000000E+00 0.  1.
    9000005    2    1    2  501    0 -0.29517041057E+02  0.75404156369E+01 -0.53342659200E+02  0.47895710760E+03  0.47500142953E+03 0.  0.
         13    1    3    3    0    0 -0.11653283367E+03  0.70769046666E+02 -0.23276997383E+03  0.26975918892E+03  0.00000000000E+00 0.  1.
          1    1    3    3  501    0  0.87015792618E+02 -0.63228631029E+02  0.17942731463E+03  0.20919791868E+03  0.00000000000E+00 0.  1.
         21    1    1    2  502  501  0.29517041057E+02 -0.75404156369E+01  0.17367435744E+02  0.35067668942E+02  0.00000000000E+00 0. -1.
<scales pt_clust_4="550.00000" pt_clust_5="550.00000" pt_clust_6="30.46496"></scales>
<mgrwt>
<rscale>  0 0.30000000E+03</rscale>
<asrwt>  1 0.30464957E+02</asrwt>
<pdfrwt beam="1">  1        1 0.86918101E+00 0.30000000E+03</pdfrwt>
<pdfrwt beam="2">0</pdfrwt>
<totfact> 0.26507325E-04</totfact>
</mgrwt>
<clustering>
<clus scale="   30.465">  1  6  2 -1</clus>
<clus scale="  475.001">  4  5 -1 -1</clus>
<clus scale="  300.000">  1  4  2 -1</clus>
</clustering>
</event>
<event>
 6    1  0.9687246E-012  0.3000000E+03  0.7818608E-02  0.1093470E+00
          1   -1    0    0  502    0  0.00000000000E+00  0.00000000000E+00  0.22020503924E+03  0.22020503924E+03  0.00000000000E+00 0.  1.
         13   -1    0    0    0    0 -0.00000000000E+00 -0.00000000000E+00 -0.27500000000E+03  0.27500000000E+03  0.00000000000E+00 0.  1.
    9000005    2    1    2  501    0  0.69200304590E+01  0.31631169785E+02 -0.60467598420E+02  0.46233261095E+03  0.45721624530E+03 0.  0.
         13    1    3    3    0    0  0.10355211142E+03  0.20651921789E+03 -0.11088787251E+03  0.25626031180E+03  0.00000000000E+00 0.  1.
          1    1    3    3  501    0 -0.96632080957E+02 -0.17488804810E+03  0.50420274085E+02  0.20607229915E+03  0.00000000000E+00 0.  1.
         21    1    1    2  502  501 -0.69200304590E+01 -0.31631169785E+02  0.56726376630E+01  0.32872428289E+02  0.00000000000E+00 0.  1.
<scales pt_clust_4="550.00000" pt_clust_5="550.00000" pt_clust_6="32.37928"></scales>
<mgrwt>
<rscale>  0 0.30000000E+03</rscale>
<asrwt>  1 0.32379279E+02</asrwt>
<pdfrwt beam="1">  1        1 0.80074560E+00 0.30000000E+03</pdfrwt>
<pdfrwt beam="2">0</pdfrwt>
<totfact> 0.10393510E-03</totfact>
</mgrwt>
<clustering>
<clus scale="   32.379">  1  6  2 -1</clus>
<clus scale="  457.216">  4  5 -1 -1</clus>
<clus scale="  300.000">  1  4  2 -1</clus>
</clustering>
</event>
<event>
 6    1  0.9687246E-012  0.3000000E+03  0.7818608E-02  0.1093470E+00
          1   -1    0    0  502    0  0.00000000000E+00  0.00000000000E+00  0.24768373847E+03  0.24768373847E+03  0.00000000000E+00 0.  1.
         13   -1    0    0    0    0 -0.00000000000E+00 -0.00000000000E+00 -0.27500000000E+03  0.27500000000E+03  0.00000000000E+00 0.  1.
    9000005    2    1    2  501    0 -0.27147304646E+02 -0.38988880571E+02 -0.55802035224E+02  0.46728925986E+03  0.46150652898E+03 0.  0.
         13    1    3    3    0    0  0.99902319871E+02 -0.21896870019E+02  0.17533440375E+03  0.20298300315E+03  0.00000000000E+00 0.  1.
          3    1    3    3  501    0 -0.12704962452E+03 -0.17092010551E+02 -0.23113643897E+03  0.26430625671E+03  0.00000000000E+00 0.  1.
         21    1    1    2  502  501  0.27147304646E+02  0.38988880571E+02  0.28485773697E+02  0.55394478613E+02  0.00000000000E+00 0.  1.
<scales pt_clust_4="550.00000" pt_clust_5="550.00000" pt_clust_6="47.50904"></scales>
<mgrwt>
<rscale>  0 0.30000000E+03</rscale>
<asrwt>  1 0.47509041E+02</asrwt>
<pdfrwt beam="1">  1        1 0.90066814E+00 0.30000000E+03</pdfrwt>
<pdfrwt beam="2">0</pdfrwt>
<totfact> 0.10242959E-04</totfact>
</mgrwt>
<clustering>
<clus scale="   47.509">  1  6  2 -1</clus>
<clus scale="  461.507">  4  5 -1 -1</clus>
<clus scale="  300.000">  1  4  2 -1</clus>
</clustering>
</event>
<event>
 6    1  0.9687246E-012  0.3000000E+03  0.7818608E-02  0.1093470E+00
          1   -1    0    0  502    0  0.00000000000E+00  0.00000000000E+00  0.23687489463E+03  0.23687489463E+03  0.00000000000E+00 0.  1.
         13   -1    0    0    0    0 -0.00000000000E+00 -0.00000000000E+00 -0.27500000000E+03  0.27500000000E+03  0.00000000000E+00 0.  1.
    9000005    2    1    2  501    0 -0.36117253383E+02  0.47992787573E+01 -0.41297067378E+02  0.47530235833E+03  0.47210104320E+03 0.  0.
         13    1    3    3    0    0 -0.12174688913E+03  0.49296525268E+02  0.18638315159E+03  0.22801563896E+03  0.00000000000E+00 0.  1.
          3    1    3    3  501    0  0.85629635747E+02 -0.44497246510E+02 -0.22768021896E+03  0.24728671936E+03  0.00000000000E+00 0.  1.
         21    1    1    2  502  501  0.36117253383E+02 -0.47992787573E+01  0.31719620048E+01  0.36572536301E+02  0.00000000000E+00 0. -1.
<scales pt_clust_4="550.00000" pt_clust_5="550.00000" pt_clust_6="36.43472"></scales>
<mgrwt>
<rscale>  0 0.30000000E+03</rscale>
<asrwt>  1 0.36434723E+02</asrwt>
<pdfrwt beam="1">  1        1 0.86136325E+00 0.30000000E+03</pdfrwt>
<pdfrwt beam="2">0</pdfrwt>
<totfact> 0.31042271E-04</totfact>
</mgrwt>
<clustering>
<clus scale="   36.435">  1  6  2 -1</clus>
<clus scale="  472.101">  4  5 -1 -1</clus>
<clus scale="  300.000">  1  4  2 -1</clus>
</clustering>
</event>
<event>
 6    1  0.9687246E-012  0.3000000E+03  0.7818608E-02  0.1093470E+00
          1   -1    0    0  502    0  0.00000000000E+00  0.00000000000E+00  0.23914343015E+03  0.23914343015E+03  0.00000000000E+00 0.  1.
         13   -1    0    0    0    0 -0.00000000000E+00 -0.00000000000E+00 -0.27500000000E+03  0.27500000000E+03  0.00000000000E+00 0.  1.
    9000005    2    1    2  501    0 -0.28777212891E+02  0.34338769721E+02 -0.44103903700E+02  0.46858799575E+03  0.46435145779E+03 0.  0.
         13    1    3    3    0    0 -0.12597654001E+03  0.22072488654E+03 -0.46512538630E+02  0.25836598155E+03  0.00000000000E+00 0.  1.
          3    1    3    3  501    0  0.97199327116E+02 -0.18638611682E+03  0.24086349302E+01  0.21022201421E+03  0.00000000000E+00 0.  1.
         21    1    1    2  502  501  0.28777212891E+02 -0.34338769721E+02  0.82473338516E+01  0.45555434400E+02  0.00000000000E+00 0.  1.
<scales pt_clust_4="550.00000" pt_clust_5="550.00000" pt_clust_6="44.80267"></scales>
<mgrwt>
<rscale>  0 0.30000000E+03</rscale>
<asrwt>  1 0.44802668E+02</asrwt>
<pdfrwt beam="1">  1        1 0.86961247E+00 0.30000000E+03</pdfrwt>
<pdfrwt beam="2">0</pdfrwt>
<totfact> 0.24429238E-04</totfact>
</mgrwt>
<clustering>
<clus scale="   44.803">  1  6  2 -1</clus>
<clus scale="  464.351">  4  5 -1 -1</clus>
<clus scale="  300.000">  1  4  2 -1</clus>
</clustering>
</event>
<event>
 6    1  0.9687246E-012  0.3000000E+03  0.7818608E-02  0.1093470E+00
          1   -1    0    0  502    0  0.00000000000E+00  0.00000000000E+00  0.25020344325E+03  0.25020344325E+03  0.00000000000E+00 0.  1.
         13   -1    0    0    0    0 -0.00000000000E+00 -0.00000000000E+00 -0.27500000000E+03  0.27500000000E+03  0.00000000000E+00 0.  1.
    9000005    2    1    2  501    0  0.98779959627E+01  0.34602198631E+02 -0.59858863723E+02  0.47496150535E+03  0.46979831954E+03 0.  0.
         13    1    3    3    0    0  0.19599256981E+03  0.13196774032E+03 -0.10749380532E+03  0.25958330086E+03  0.00000000000E+00 0.  1.
          1    1    3    3  501    0 -0.18611457384E+03 -0.97365541687E+02  0.47634941599E+02  0.21537820448E+03  0.00000000000E+00 0.  1.
         21    1    1    2  502  501 -0.98779959627E+01 -0.34602198631E+02  0.35062306977E+02  0.50241937909E+02  0.00000000000E+00 0. -1.
<scales pt_clust_4="550.00000" pt_clust_5="550.00000" pt_clust_6="35.98454"></scales>
<mgrwt>
<rscale>  0 0.30000000E+03</rscale>
<asrwt>  1 0.35984538E+02</asrwt>
<pdfrwt beam="1">  1        1 0.90983070E+00 0.30000000E+03</pdfrwt>
<pdfrwt beam="2">0</pdfrwt>
<totfact> 0.72166521E-05</totfact>
</mgrwt>
<clustering>
<clus scale="   35.985">  1  6  2 -1</clus>
<clus scale="  469.798">  4  5 -1 -1</clus>
<clus scale="  300.000">  1  4  2 -1</clus>
</clustering>
</event>
<event>
 6    1  0.9687246E-012  0.3000000E+03  0.7818608E-02  0.1093470E+00
          1   -1    0    0  502    0  0.00000000000E+00  0.00000000000E+00  0.23154744415E+03  0.23154744415E+03  0.00000000000E+00 0.  1.
         13   -1    0    0    0    0 -0.00000000000E+00 -0.00000000000E+00 -0.27500000000E+03  0.27500000000E+03  0.00000000000E+00 0.  1.
    9000005    2    1    2  501    0  0.28157021760E+02  0.20342983572E+02 -0.33054061099E+02  0.47028750002E+03  0.46783662412E+03 0.  0.
         13    1    3    3    0    0  0.40316028795E+02  0.99310878439E+02  0.19836172430E+03  0.22546708501E+03  0.00000000000E+00 0.  1.
          3    1    3    3  501    0 -0.12159007034E+02 -0.78967894867E+02 -0.23141578540E+03  0.24482041501E+03  0.00000000000E+00 0.  1.
         21    1    1    2  502  501 -0.28157021760E+02 -0.20342983572E+02 -0.10398494753E+02  0.36259944128E+02  0.00000000000E+00 0.  1.
<scales pt_clust_4="550.00000" pt_clust_5="550.00000" pt_clust_6="34.73696"></scales>
<mgrwt>
<rscale>  0 0.30000000E+03</rscale>
<asrwt>  1 0.34736955E+02</asrwt>
<pdfrwt beam="1">  1        1 0.84199071E+00 0.30000000E+03</pdfrwt>
<pdfrwt beam="2">0</pdfrwt>
<totfact> 0.47992782E-04</totfact>
</mgrwt>
<clustering>
<clus scale="   34.737">  1  6  2 -1</clus>
<clus scale="  467.837">  4  5 -1 -1</clus>
<clus scale="  300.000">  1  4  2 -1</clus>
</clustering>
</event>
<event>
 6    1  0.9687246E-012  0.3000000E+03  0.7818608E-02  0.1093470E+00
          1   -1    0    0  502    0  0.00000000000E+00  0.00000000000E+00  0.23619828911E+03  0.23619828911E+03  0.00000000000E+00 0.  1.
         13   -1    0    0    0    0 -0.00000000000E+00 -0.00000000000E+00 -0.27500000000E+03  0.27500000000E+03  0.00000000000E+00 0.  1.
    9000005    2    1    2  501    0  0.30801741268E+02 -0.25889887622E+00 -0.73149441186E+02  0.46506174318E+03  0.45823876956E+03 0.  0.
         13    1    3    3    0    0  0.11222715123E+03 -0.17010605285E+03 -0.15859442980E+03  0.25823089640E+03  0.00000000000E+00 0.  1.
          3    1    3    3  501    0 -0.81425409961E+02  0.16984715398E+03  0.85444988618E+02  0.20683084678E+03  0.00000000000E+00 0.  1.
         21    1    1    2  502  501 -0.30801741268E+02  0.25889887622E+00  0.34347730295E+02  0.46136545929E+02  0.00000000000E+00 0.  1.
<scales pt_clust_4="550.00000" pt_clust_5="550.00000" pt_clust_6="30.80283"></scales>
<mgrwt>
<rscale>  0 0.30000000E+03</rscale>
<asrwt>  1 0.30802829E+02</asrwt>
<pdfrwt beam="1">  1        1 0.85890287E+00 0.30000000E+03</pdfrwt>
<pdfrwt beam="2">0</pdfrwt>
<totfact> 0.34038396E-04</totfact>
</mgrwt>
<clustering>
<clus scale="   30.803">  1  6  2 -1</clus>
<clus scale="  458.239">  4  5 -1 -1</clus>
<clus scale="  300.000">  1  4  2 -1</clus>
</clustering>
</event>
<event>
 6    1  0.9687246E-012  0.3000000E+03  0.7818608E-02  0.1093470E+00
          1   -1    0    0  502    0  0.00000000000E+00  0.00000000000E+00  0.23915917952E+03  0.23915917952E+03  0.00000000000E+00 0.  1.
         13   -1    0    0    0    0 -0.00000000000E+00 -0.00000000000E+00 -0.27500000000E+03  0.27500000000E+03  0.00000000000E+00 0.  1.
    9000005    2    1    2  501    0 -0.18819278838E+02  0.30541641002E+02 -0.15029475094E+02  0.47268546269E+03  0.47108248155E+03 0.  0.
         13    1    3    3    0    0 -0.16984166417E+03 -0.15600835764E+03  0.13299058639E+02  0.23100143615E+03  0.00000000000E+00 0.  1.
          3    1    3    3  501    0  0.15102238533E+03  0.18654999864E+03 -0.28328533732E+02  0.24168402655E+03  0.00000000000E+00 0.  1.
         21    1    1    2  502  501  0.18819278838E+02 -0.30541641002E+02 -0.20811345384E+02  0.41473716831E+02  0.00000000000E+00 0. -1.
<scales pt_clust_4="550.00000" pt_clust_5="550.00000" pt_clust_6="35.87420"></scales>
<mgrwt>
<rscale>  0 0.30000000E+03</rscale>
<asrwt>  1 0.35874202E+02</asrwt>
<pdfrwt beam="1">  1        1 0.86966974E+00 0.30000000E+03</pdfrwt>
<pdfrwt beam="2">0</pdfrwt>
<totfact> 0.25405771E-04</totfact>
</mgrwt>
<clustering>
<clus scale="   35.874">  1  6  2 -1</clus>
<clus scale="  471.082">  4  5 -1 -1</clus>
<clus scale="  300.000">  1  4  2 -1</clus>
</clustering>
</event>
<event>
 6    1  0.9687246E-012  0.3000000E+03  0.7818608E-02  0.1093470E+00
          1   -1    0    0  502    0  0.00000000000E+00  0.00000000000E+00  0.24280157285E+03  0.24280157285E+03  0.00000000000E+00 0.  1.
         13   -1    0    0    0    0 -0.00000000000E+00 -0.00000000000E+00 -0.27500000000E+03  0.27500000000E+03  0.00000000000E+00 0.  1.
    9000005    2    1    2  501    0  0.49235228750E+02  0.14707143807E+02 -0.11616738120E+02  0.46244803861E+03  0.45943751695E+03 0.  0.
         13    1    3    3    0    0 -0.85373623077E+02  0.20447740575E+03  0.37289091970E+02  0.22470011428E+03  0.00000000000E+00 0.  1.
          3    1    3    3  501    0  0.13460885183E+03 -0.18977026194E+03 -0.48905830090E+02  0.23774792433E+03  0.00000000000E+00 0.  1.
         21    1    1    2  502  501 -0.49235228750E+02 -0.14707143807E+02 -0.20581689031E+02  0.55353534235E+02  0.00000000000E+00 0. -1.
<scales pt_clust_4="550.00000" pt_clust_5="550.00000" pt_clust_6="51.38492"></scales>
<mgrwt>
<rscale>  0 0.30000000E+03</rscale>
<asrwt>  1 0.51384925E+02</asrwt>
<pdfrwt beam="1">  1        1 0.88291481E+00 0.30000000E+03</pdfrwt>
<pdfrwt beam="2">0</pdfrwt>
<totfact> 0.16895054E-04</totfact>
</mgrwt>
<clustering>
<clus scale="   51.385">  1  6  2 -1</clus>
<clus scale="  459.438">  4  5 -1 -1</clus>
<clus scale="  300.000">  1  4  2 -1</clus>
</clustering>
</event>
<event>
 6    1  0.9687246E-012  0.3000000E+03  0.7818608E-02  0.1093470E+00
          1   -1    0    0  502    0  0.00000000000E+00  0.00000000000E+00  0.22344309447E+03  0.22344309447E+03  0.00000000000E+00 0.  1.
         13   -1    0    0    0    0 -0.00000000000E+00 -0.00000000000E+00 -0.27500000000E+03  0.27500000000E+03  0.00000000000E+00 0.  1.
    9000005    2    1    2  501    0  0.27714839263E+02 -0.23431364545E+02 -0.55024378217E+02  0.46198538572E+03  0.45725886898E+03 0.  0.
         13    1    3    3    0    0  0.26922551848E+02  0.15104261292E+03 -0.18796761125E+03  0.24263247432E+03  0.00000000000E+00 0.  1.
          1    1    3    3  501    0  0.79228741584E+00 -0.17447397746E+03  0.13294323303E+03  0.21935291140E+03  0.00000000000E+00 0.  1.
         21    1    1    2  502  501 -0.27714839263E+02  0.23431364545E+02  0.34674726822E+01  0.36457708741E+02  0.00000000000E+00 0.  1.
<scales pt_clust_4="550.00000" pt_clust_5="550.00000" pt_clust_6="36.29244"></scales>
<mgrwt>
<rscale>  0 0.30000000E+03</rscale>
<asrwt>  1 0.36292439E+02</asrwt>
<pdfrwt beam="1">  1        1 0.81252034E+00 0.30000000E+03</pdfrwt>
<pdfrwt beam="2">0</pdfrwt>
<totfact> 0.82764413E-04</totfact>
</mgrwt>
<clustering>
<clus scale="   36.292">  1  6  2 -1</clus>
<clus scale="  457.259">  4  5 -1 -1</clus>
<clus scale="  300.000">  1  4  2 -1</clus>
</clustering>
</event>
<event>
 6    1  0.9687246E-012  0.3000000E+03  0.7818608E-02  0.1093470E+00
          1   -1    0    0  502    0  0.00000000000E+00  0.00000000000E+00  0.22737875730E+03  0.22737875730E+03  0.00000000000E+00 0.  1.
         13   -1    0    0    0    0 -0.00000000000E+00 -0.00000000000E+00 -0.27500000000E+03  0.27500000000E+03  0.00000000000E+00 0.  1.
    9000005    2    1    2  501    0 -0.40132658768E+02  0.16212248372E+01 -0.34939782802E+02  0.46025895085E+03  0.45716983140E+03 0.  0.
         13    1    3    3    0    0  0.19847320001E+02  0.22399233913E+03 -0.46592302078E+02  0.22964609013E+03  0.00000000000E+00 0.  1.
          1    1    3    3  501    0 -0.59979978769E+02 -0.22237111429E+03  0.11652519277E+02  0.23061286072E+03  0.00000000000E+00 0.  1.
         21    1    1    2  502  501  0.40132658768E+02 -0.16212248372E+01 -0.12681459901E+02  0.42119806446E+02  0.00000000000E+00 0.  1.
<scales pt_clust_4="550.00000" pt_clust_5="550.00000" pt_clust_6="40.16541"></scales>
<mgrwt>
<rscale>  0 0.30000000E+03</rscale>
<asrwt>  1 0.40165412E+02</asrwt>
<pdfrwt beam="1">  1        1 0.82683184E+00 0.30000000E+03</pdfrwt>
<pdfrwt beam="2">0</pdfrwt>
<totfact> 0.61337027E-04</totfact>
</mgrwt>
<clustering>
<clus scale="   40.165">  1  6  2 -1</clus>
<clus scale="  457.170">  4  5 -1 -1</clus>
<clus scale="  300.000">  1  4  2 -1</clus>
</clustering>
</event>
<event>
 6    1  0.9687246E-012  0.3000000E+03  0.7818608E-02  0.1093470E+00
          1   -1    0    0  502    0  0.00000000000E+00  0.00000000000E+00  0.22211380574E+03  0.22211380574E+03  0.00000000000E+00 0.  1.
         13   -1    0    0    0    0 -0.00000000000E+00 -0.00000000000E+00 -0.27500000000E+03  0.27500000000E+03  0.00000000000E+00 0.  1.
    9000005    2    1    2  501    0 -0.32577918735E+02  0.19349065421E+01 -0.65743023877E+02  0.46203727912E+03  0.45617018475E+03 0.  0.
         13    1    3    3    0    0 -0.56785311202E+02 -0.17388534863E+03  0.10902915537E+03  0.21295079891E+03  0.00000000000E+00 0.  1.
          3    1    3    3  501    0  0.24207392467E+02  0.17582025517E+03 -0.17477217925E+03  0.24908648020E+03  0.00000000000E+00 0.  1.
         21    1    1    2  502  501  0.32577918735E+02 -0.19349065421E+01  0.12856829622E+02  0.35076526629E+02  0.00000000000E+00 0. -1.
<scales pt_clust_4="550.00000" pt_clust_5="550.00000" pt_clust_6="32.63533"></scales>
<mgrwt>
<rscale>  0 0.30000000E+03</rscale>
<asrwt>  1 0.32635328E+02</asrwt>
<pdfrwt beam="1">  1        1 0.80768657E+00 0.30000000E+03</pdfrwt>
<pdfrwt beam="2">0</pdfrwt>
<totfact> 0.92094051E-04</totfact>
</mgrwt>
<clustering>
<clus scale="   32.635">  1  6  2 -1</clus>
<clus scale="  456.170">  4  5 -1 -1</clus>
<clus scale="  300.000">  1  4  2 -1</clus>
</clustering>
</event>
<event>
 6    1  0.9687246E-012  0.3000000E+03  0.7818608E-02  0.1093470E+00
          1   -1    0    0  502    0  0.00000000000E+00  0.00000000000E+00  0.24560408186E+03  0.24560408186E+03  0.00000000000E+00 0.  1.
         13   -1    0    0    0    0 -0.00000000000E+00 -0.00000000000E+00 -0.27500000000E+03  0.27500000000E+03  0.00000000000E+00 0.  1.
    9000005    2    1    2  501    0  0.30645828445E+02 -0.22530548496E+02 -0.50871806802E+02  0.47692335144E+03  0.47267446515E+03 0.  0.
         13    1    3    3    0    0 -0.19346813215E+03 -0.85801693757E+02  0.58597174981E+02  0.21960300026E+03  0.00000000000E+00 0.  1.
          3    1    3    3  501    0  0.22411396059E+03  0.63271145261E+02 -0.10946898178E+03  0.25732035117E+03  0.00000000000E+00 0.  1.
         21    1    1    2  502  501 -0.30645828445E+02  0.22530548496E+02  0.21475888667E+02  0.43680730427E+02  0.00000000000E+00 0. -1.
<scales pt_clust_4="550.00000" pt_clust_5="550.00000" pt_clust_6="38.03672"></scales>
<mgrwt>
<rscale>  0 0.30000000E+03</rscale>
<asrwt>  1 0.38036725E+02</asrwt>
<pdfrwt beam="1">  1        1 0.89310575E+00 0.30000000E+03</pdfrwt>
<pdfrwt beam="2">0</pdfrwt>
<totfact> 0.13051374E-04</totfact>
</mgrwt>
<clustering>
<clus scale="   38.037">  1  6  2 -1</clus>
<clus scale="  472.674">  4  5 -1 -1</clus>
<clus scale="  300.000">  1  4  2 -1</clus>
</clustering>
</event>
<event>
 6    1  0.9687246E-012  0.3000000E+03  0.7818608E-02  0.1093470E+00
          1   -1    0    0  502    0  0.00000000000E+00  0.00000000000E+00  0.24982375637E+03  0.24982375637E+03  0.00000000000E+00 0.  1.
         13   -1    0    0    0    0 -0.00000000000E+00 -0.00000000000E+00 -0.27500000000E+03  0.27500000000E+03  0.00000000000E+00 0.  1.
    9000005    2    1    2  501    0 -0.40099815412E+02  0.53465067594E+00 -0.57476796870E+02  0.47333000153E+03  0.46811262227E+03 0.  0.
         13    1    3    3    0    0 -0.55417564520E+02 -0.22004555149E+03 -0.10032471356E+03  0.24810521828E+03  0.00000000000E+00 0.  1.
          3    1    3    3  501    0  0.15317749109E+02  0.22058020217E+03  0.42847916687E+02  0.22522478325E+03  0.00000000000E+00 0.  1.
         21    1    1    2  502  501  0.40099815412E+02 -0.53465067594E+00  0.32300553239E+02  0.51493754835E+02  0.00000000000E+00 0.  1.
<scales pt_clust_4="550.00000" pt_clust_5="550.00000" pt_clust_6="40.10338"></scales>
<mgrwt>
<rscale>  0 0.30000000E+03</rscale>
<asrwt>  1 0.40103380E+02</asrwt>
<pdfrwt beam="1">  1        1 0.90845002E+00 0.30000000E+03</pdfrwt>
<pdfrwt beam="2">0</pdfrwt>
<totfact> 0.76262929E-05</totfact>
</mgrwt>
<clustering>
<clus scale="   40.103">  1  6  2 -1</clus>
<clus scale="  468.113">  4  5 -1 -1</clus>
<clus scale="  300.000">  1  4  2 -1</clus>
</clustering>
</event>
<event>
 6    1  0.9687246E-012  0.3000000E+03  0.7818608E-02  0.1093470E+00
          1   -1    0    0  502    0  0.00000000000E+00  0.00000000000E+00  0.22360005545E+03  0.22360005545E+03  0.00000000000E+00 0.  1.
         13   -1    0    0    0    0 -0.00000000000E+00 -0.00000000000E+00 -0.27500000000E+03  0.27500000000E+03  0.00000000000E+00 0.  1.
    9000005    2    1    2  501    0  0.23916606544E+02 -0.20571461986E+02 -0.46313872792E+02  0.46664606912E+03  0.46326924125E+03 0.  0.
         13    1    3    3    0    0  0.10392179833E+03 -0.97537570968E+02  0.17100574553E+03  0.22261240514E+03  0.00000000000E+00 0.  1.
          3    1    3    3  501    0 -0.80005191787E+02  0.76966108982E+02 -0.21731961832E+03  0.24403366397E+03  0.00000000000E+00 0.  1.
         21    1    1    2  502  501 -0.23916606544E+02  0.20571461986E+02 -0.50860717552E+01  0.31953986335E+02  0.00000000000E+00 0.  1.
<scales pt_clust_4="550.00000" pt_clust_5="550.00000" pt_clust_6="31.54663"></scales>
<mgrwt>
<rscale>  0 0.30000000E+03</rscale>
<asrwt>  1 0.31546634E+02</asrwt>
<pdfrwt beam="1">  1        1 0.81309111E+00 0.30000000E+03</pdfrwt>
<pdfrwt beam="2">0</pdfrwt>
<totfact> 0.84094045E-04</totfact>
</mgrwt>
<clustering>
<clus scale="   31.547">  1  6  2 -1</clus>
<clus scale="  463.269">  4  5 -1 -1</clus>
<clus scale="  300.000">  1  4  2 -1</clus>
</clustering>
</event>
<event>
 6    1  0.9687246E-012  0.3000000E+03  0.7818608E-02  0.1093470E+00
          1   -1    0    0  502    0  0.00000000000E+00  0.00000000000E+00  0.22535411563E+03  0.22535411563E+03  0.00000000000E+00 0.  1.
         13   -1    0    0    0    0 -0.00000000000E+00 -0.00000000000E+00 -0.27500000000E+03  0.27500000000E+03  0.00000000000E+00 0.  1.
    9000005    2    1    2  501    0 -0.30218463567E+02 -0.11751873229E+02 -0.47127808493E+02  0.46783331043E+03  0.46432285529E+03 0.  0.
         13    1    3    3    0    0  0.11005318579E+03 -0.15977769819E+03 -0.14443935717E+03  0.24187464613E+03  0.00000000000E+00 0.  1.
          3    1    3    3  501    0 -0.14027164936E+03  0.14802582496E+03  0.97311548674E+02  0.22595866430E+03  0.00000000000E+00 0.  1.
         21    1    1    2  502  501  0.30218463567E+02  0.11751873229E+02 -0.25180758781E+01  0.32520805200E+02  0.00000000000E+00 0. -1.
<scales pt_clust_4="550.00000" pt_clust_5="550.00000" pt_clust_6="32.42317"></scales>
<mgrwt>
<rscale>  0 0.30000000E+03</rscale>
<asrwt>  1 0.32423172E+02</asrwt>
<pdfrwt beam="1">  1        1 0.81946951E+00 0.30000000E+03</pdfrwt>
<pdfrwt beam="2">0</pdfrwt>
<totfact> 0.74155528E-04</totfact>
</mgrwt>
<clustering>
<clus scale="   32.423">  1  6  2 -1</clus>
<clus scale="  464.323">  4  5 -1 -1</clus>
<clus scale="  300.000">  1  4  2 -1</clus>
</clustering>
</event>
<event>
 6    1  0.9687246E-012  0.3000000E+03  0.7818608E-02  0.1093470E+00
          1   -1    0    0  502    0  0.00000000000E+00  0.00000000000E+00  0.23589986056E+03  0.23589986056E+03  0.00000000000E+00 0.  1.
         13   -1    0    0    0    0 -0.00000000000E+00 -0.00000000000E+00 -0.27500000000E+03  0.27500000000E+03  0.00000000000E+00 0.  1.
    9000005    2    1    2  501    0 -0.17585543380E+02 -0.27701288471E+02 -0.53759207932E+02  0.47496240089E+03  0.47076811394E+03 0.  0.
         13    1    3    3    0    0 -0.12422497966E+02  0.22171818685E+03 -0.34723389047E+02  0.22476429116E+03  0.00000000000E+00 0.  1.
          3    1    3    3  501    0 -0.51630454137E+01 -0.24941947532E+03 -0.19035818886E+02  0.25019810972E+03  0.00000000000E+00 0.  1.
         21    1    1    2  502  501  0.17585543380E+02  0.27701288471E+02  0.14659068495E+02  0.35937459677E+02  0.00000000000E+00 0. -1.
<scales pt_clust_4="550.00000" pt_clust_5="550.00000" pt_clust_6="32.81178"></scales>
<mgrwt>
<rscale>  0 0.30000000E+03</rscale>
<asrwt>  1 0.32811777E+02</asrwt>
<pdfrwt beam="1">  1        1 0.85781767E+00 0.30000000E+03</pdfrwt>
<pdfrwt beam="2">0</pdfrwt>
<totfact> 0.34523556E-04</totfact>
</mgrwt>
<clustering>
<clus scale="   32.812">  1  6  2 -1</clus>
<clus scale="  470.768">  4  5 -1 -1</clus>
<clus scale="  300.000">  1  4  2 -1</clus>
</clustering>
</event>
<event>
 6    1  0.9687246E-012  0.3000000E+03  0.7818608E-02  0.1093470E+00
          1   -1    0    0  502    0  0.00000000000E+00  0.00000000000E+00  0.25148913284E+03  0.25148913284E+03  0.00000000000E+00 0.  1.
         13   -1    0    0    0    0 -0.00000000000E+00 -0.00000000000E+00 -0.27500000000E+03  0.27500000000E+03  0.00000000000E+00 0.  1.
    9000005    2    1    2  501    0 -0.17401298583E+02  0.26788740918E+02 -0.70569332512E+02  0.46961259116E+03  0.46317978502E+03 0.  0.
         13    1    3    3    0    0 -0.86861064851E+00 -0.11533752999E+03 -0.22883255085E+03  0.25625736406E+03  0.00000000000E+00 0.  1.
          3    1    3    3  501    0 -0.16532687935E+02  0.14212627091E+03  0.15826321833E+03  0.21335522710E+03  0.00000000000E+00 0.  1.
         21    1    1    2  502  501  0.17401298583E+02 -0.26788740918E+02  0.47058465354E+02  0.56876541683E+02  0.00000000000E+00 0. -1.
<scales pt_clust_4="550.00000" pt_clust_5="550.00000" pt_clust_6="31.94436"></scales>
<mgrwt>
<rscale>  0 0.30000000E+03</rscale>
<asrwt>  1 0.31944355E+02</asrwt>
<pdfrwt beam="1">  1        1 0.91450594E+00 0.30000000E+03</pdfrwt>
<pdfrwt beam="2">0</pdfrwt>
<totfact> 0.56576029E-05</totfact>
</mgrwt>
<clustering>
<clus scale="   31.944">  1  6  2 -1</clus>
<clus scale="  463.180">  4  5 -1 -1</clus>
<clus scale="  300.000">  1  4  2 -1</clus>
</clustering>
</event>
<event>
 6    1  0.9687246E-012  0.3000000E+03  0.7818608E-02  0.1093470E+00
          1   -1    0    0  502    0  0.00000000000E+00  0.00000000000E+00  0.22408074245E+03  0.22408074245E+03  0.00000000000E+00 0.  1.
         13   -1    0    0    0    0 -0.00000000000E+00 -0.00000000000E+00 -0.27500000000E+03  0.27500000000E+03  0.00000000000E+00 0.  1.
    9000005    2    1    2  501    0 -0.33906695370E+02 -0.98605494781E+01 -0.59587224581E+02  0.46272103839E+03  0.45750762574E+03 0.  0.
         13    1    3    3    0    0  0.16720549763E+03  0.13177053647E+03 -0.28332939061E+02  0.21476477401E+03  0.00000000000E+00 0.  1.
          1    1    3    3  501    0 -0.20111219300E+03 -0.14163108595E+03 -0.31254285519E+02  0.24795626438E+03  0.00000000000E+00 0.  1.
         21    1    1    2  502  501  0.33906695370E+02  0.98605494781E+01  0.86679670277E+01  0.36359704060E+02  0.00000000000E+00 0.  1.
<scales pt_clust_4="550.00000" pt_clust_5="550.00000" pt_clust_6="35.31139"></scales>
<mgrwt>
<rscale>  0 0.30000000E+03</rscale>
<asrwt>  1 0.35311392E+02</asrwt>
<pdfrwt beam="1">  1        1 0.81483906E+00 0.30000000E+03</pdfrwt>
<pdfrwt beam="2">0</pdfrwt>
<totfact> 0.79710858E-04</totfact>
</mgrwt>
<clustering>
<clus scale="   35.311">  1  6  2 -1</clus>
<clus scale="  457.508">  4  5 -1 -1</clus>
<clus scale="  300.000">  1  4  2 -1</clus>
</clustering>
</event>
<event>
 6    1  0.9687246E-012  0.3000000E+03  0.7818608E-02  0.1093470E+00
          1   -1    0    0  502    0  0.00000000000E+00  0.00000000000E+00  0.23155089296E+03  0.23155089296E+03  0.00000000000E+00 0.  1.
         13   -1    0    0    0    0 -0.00000000000E+00 -0.00000000000E+00 -0.27500000000E+03  0.27500000000E+03  0.00000000000E+00 0.  1.
    9000005    2    1    2  501    0 -0.26920258076E+02 -0.25261737208E+02 -0.48455253383E+02  0.46929613269E+03  0.46532579223E+03 0.  0.
         13    1    3    3    0    0 -0.35636540316E+02  0.20884262231E+03  0.45840679996E+02  0.21676386193E+03  0.00000000000E+00 0.  1.
          3    1    3    3  501    0  0.87162822406E+01 -0.23410435952E+03 -0.94295933378E+02  0.25253227075E+03  0.00000000000E+00 0.  1.
         21    1    1    2  502  501  0.26920258076E+02  0.25261737208E+02  0.50061463418E+01  0.37254760270E+02  0.00000000000E+00 0.  1.
<scales pt_clust_4="550.00000" pt_clust_5="550.00000" pt_clust_6="36.91688"></scales>
<mgrwt>
<rscale>  0 0.30000000E+03</rscale>
<asrwt>  1 0.36916875E+02</asrwt>
<pdfrwt beam="1">  1        1 0.84200325E+00 0.30000000E+03</pdfrwt>
<pdfrwt beam="2">0</pdfrwt>
<totfact> 0.47440374E-04</totfact>
</mgrwt>
<clustering>
<clus scale="   36.917">  1  6  2 -1</clus>
<clus scale="  465.326">  4  5 -1 -1</clus>
<clus scale="  300.000">  1  4  2 -1</clus>
</clustering>
</event>
<event>
 6    1  0.9687246E-012  0.3000000E+03  0.7818608E-02  0.1093470E+00
          1   -1    0    0  502    0  0.00000000000E+00  0.00000000000E+00  0.22828436907E+03  0.22828436907E+03  0.00000000000E+00 0.  1.
         13   -1    0    0    0    0 -0.00000000000E+00 -0.00000000000E+00 -0.27500000000E+03  0.27500000000E+03  0.00000000000E+00 0.  1.
    9000005    2    1    2  501    0  0.27498978075E+01 -0.34962685443E+02 -0.67253020385E+02  0.46264281796E+03  0.45638301562E+03 0.  0.
         13    1    3    3    0    0  0.13035287150E+03 -0.11059760197E+03 -0.20033531756E+03  0.26335895681E+03  0.00000000000E+00 0.  1.
          3    1    3    3  501    0 -0.12760297369E+03  0.75634916523E+02  0.13308229718E+03  0.19928386115E+03  0.00000000000E+00 0.  1.
         21    1    1    2  502  501 -0.27498978075E+01  0.34962685443E+02  0.20537389454E+02  0.40641551114E+02  0.00000000000E+00 0. -1.
<scales pt_clust_4="550.00000" pt_clust_5="550.00000" pt_clust_6="35.07066"></scales>
<mgrwt>
<rscale>  0 0.30000000E+03</rscale>
<asrwt>  1 0.35070662E+02</asrwt>
<pdfrwt beam="1">  1        1 0.83012498E+00 0.30000000E+03</pdfrwt>
<pdfrwt beam="2">0</pdfrwt>
<totfact> 0.58939021E-04</totfact>
</mgrwt>
<clustering>
<clus scale="   35.071">  1  6  2 -1</clus>
<clus scale="  456.383">  4  5 -1 -1</clus>
<clus scale="  300.000">  1  4  2 -1</clus>
</clustering>
</event>
<event>
 6    1  0.9687246E-012  0.3000000E+03  0.7818608E-02  0.1093470E+00
          1   -1    0    0  502    0  0.00000000000E+00  0.00000000000E+00  0.24298517064E+03  0.24298517064E+03  0.00000000000E+00 0.  1.
         13   -1    0    0    0    0 -0.00000000000E+00 -0.00000000000E+00 -0.27500000000E+03  0.27500000000E+03  0.00000000000E+00 0.  1.
    9000005    2    1    2  501    0  0.37233832771E+02  0.24477927202E+02 -0.47834068850E+02  0.47070118222E+03  0.46613944006E+03 0.  0.
         13    1    3    3    0    0 -0.10162752487E+03 -0.11243992444E+03  0.13531007253E+03  0.20317407843E+03  0.00000000000E+00 0.  1.
          3    1    3    3  501    0  0.13886135764E+03  0.13691785164E+03 -0.18314414138E+03  0.26752710379E+03  0.00000000000E+00 0.  1.
         21    1    1    2  502  501 -0.37233832771E+02 -0.24477927202E+02  0.15819239489E+02  0.47283988420E+02  0.00000000000E+00 0.  1.
<scales pt_clust_4="550.00000" pt_clust_5="550.00000" pt_clust_6="44.55926"></scales>
<mgrwt>
<rscale>  0 0.30000000E+03</rscale>
<asrwt>  1 0.44559255E+02</asrwt>
<pdfrwt beam="1">  1        1 0.88358244E+00 0.30000000E+03</pdfrwt>
<pdfrwt beam="2">0</pdfrwt>
<totfact> 0.16973544E-04</totfact>
</mgrwt>
<clustering>
<clus scale="   44.559">  1  6  2 -1</clus>
<clus scale="  466.139">  4  5 -1 -1</clus>
<clus scale="  300.000">  1  4  2 -1</clus>
</clustering>
</event>
<event>
 6    1  0.9687246E-012  0.3000000E+03  0.7818608E-02  0.1093470E+00
          1   -1    0    0  502    0  0.00000000000E+00  0.00000000000E+00  0.22970011765E+03  0.22970011765E+03  0.00000000000E+00 0.  1.
         13   -1    0    0    0    0 -0.00000000000E+00 -0.00000000000E+00 -0.27500000000E+03  0.27500000000E+03  0.00000000000E+00 0.  1.
    9000005    2    1    2  501    0 -0.28686011083E+02 -0.12556857670E+02 -0.43876059251E+02  0.47335383910E+03  0.47027458629E+03 0.  0.
         13    1    3    3    0    0  0.96792608708E+02 -0.21258483566E+03 -0.23016013985E+01  0.23359456077E+03  0.00000000000E+00 0.  1.
          3    1    3    3  501    0 -0.12547861979E+03  0.20002797799E+03 -0.41574457853E+02  0.23975927833E+03  0.00000000000E+00 0.  1.
         21    1    1    2  502  501  0.28686011083E+02  0.12556857670E+02 -0.14238231011E+01  0.31346278545E+02  0.00000000000E+00 0. -1.
<scales pt_clust_4="550.00000" pt_clust_5="550.00000" pt_clust_6="31.31393"></scales>
<mgrwt>
<rscale>  0 0.30000000E+03</rscale>
<asrwt>  1 0.31313925E+02</asrwt>
<pdfrwt beam="1">  1        1 0.83527316E+00 0.30000000E+03</pdfrwt>
<pdfrwt beam="2">0</pdfrwt>
<totfact> 0.54996041E-04</totfact>
</mgrwt>
<clustering>
<clus scale="   31.314">  1  6  2 -1</clus>
<clus scale="  470.275">  4  5 -1 -1</clus>
<clus scale="  300.000">  1  4  2 -1</clus>
</clustering>
</event>
<event>
 6    1  0.9687246E-012  0.3000000E+03  0.7818608E-02  0.1093470E+00
          1   -1    0    0  502    0  0.00000000000E+00  0.00000000000E+00  0.23315279509E+03  0.23315279509E+03  0.00000000000E+00 0.  1.
         13   -1    0    0    0    0 -0.00000000000E+00 -0.00000000000E+00 -0.27500000000E+03  0.27500000000E+03  0.00000000000E+00 0.  1.
    9000005    2    1    2  501    0 -0.25771558010E+02  0.19840425891E+02 -0.42915476171E+02  0.47561117704E+03  0.47255310594E+03 0.  0.
         13    1    3    3    0    0  0.17449927576E+03  0.29407839146E+02 -0.16409764804E+03  0.24133556791E+03  0.00000000000E+00 0.  1.
          3    1    3    3  501    0 -0.20027083377E+03 -0.95674132548E+01  0.12118217187E+03  0.23427560913E+03  0.00000000000E+00 0.  1.
         21    1    1    2  502  501  0.25771558010E+02 -0.19840425891E+02  0.10682712607E+01  0.32541618050E+02  0.00000000000E+00 0. -1.
<scales pt_clust_4="550.00000" pt_clust_5="550.00000" pt_clust_6="32.52408"></scales>
<mgrwt>
<rscale>  0 0.30000000E+03</rscale>
<asrwt>  1 0.32524079E+02</asrwt>
<pdfrwt beam="1">  1        1 0.84782835E+00 0.30000000E+03</pdfrwt>
<pdfrwt beam="2">0</pdfrwt>
<totfact> 0.43220369E-04</totfact>
</mgrwt>
<clustering>
<clus scale="   32.524">  1  6  2 -1</clus>
<clus scale="  472.553">  4  5 -1 -1</clus>
<clus scale="  300.000">  1  4  2 -1</clus>
</clustering>
</event>
<event>
 6    1  0.9687246E-012  0.3000000E+03  0.7818608E-02  0.1093470E+00
          1   -1    0    0  502    0  0.00000000000E+00  0.00000000000E+00  0.22771390018E+03  0.22771390018E+03  0.00000000000E+00 0.  1.
         13   -1    0    0    0    0 -0.00000000000E+00 -0.00000000000E+00 -0.27500000000E+03  0.27500000000E+03  0.00000000000E+00 0.  1.
    9000005    2    1    2  501    0 -0.14900505347E+02 -0.29609319831E+02 -0.34829532874E+02  0.46730340823E+03  0.46482323748E+03 0.  0.
         13    1    3    3    0    0 -0.19532101382E+03 -0.15113462989E+03  0.22432900587E+00  0.24696563549E+03  0.00000000000E+00 0.  1.
          3    1    3    3  501    0  0.18042050847E+03  0.12152531006E+03 -0.35053861880E+02  0.22033777274E+03  0.00000000000E+00 0.  1.
         21    1    1    2  502  501  0.14900505347E+02  0.29609319831E+02 -0.12456566944E+02  0.35410491955E+02  0.00000000000E+00 0. -1.
<scales pt_clust_4="550.00000" pt_clust_5="550.00000" pt_clust_6="33.14722"></scales>
<mgrwt>
<rscale>  0 0.30000000E+03</rscale>
<asrwt>  1 0.33147217E+02</asrwt>
<pdfrwt beam="1">  1        1 0.82805055E+00 0.30000000E+03</pdfrwt>
<pdfrwt beam="2">0</pdfrwt>
<totfact> 0.62023506E-04</totfact>
</mgrwt>
<clustering>
<clus scale="   33.147">  1  6  2 -1</clus>
<clus scale="  464.823">  4  5 -1 -1</clus>
<clus scale="  300.000">  1  4  2 -1</clus>
</clustering>
</event>
<event>
 6    1  0.9687246E-012  0.3000000E+03  0.7818608E-02  0.1093470E+00
          1   -1    0    0  502    0  0.00000000000E+00  0.00000000000E+00  0.24274524447E+03  0.24274524447E+03  0.00000000000E+00 0.  1.
         13   -1    0    0    0    0 -0.00000000000E+00 -0.00000000000E+00 -0.27500000000E+03  0.27500000000E+03  0.00000000000E+00 0.  1.
    9000005    2    1    2  501    0  0.32689939841E+02 -0.59368517743E+01  0.85693314380E+01  0.46510985284E+03  0.46384249847E+03 0.  0.
         13    1    3    3    0    0 -0.14605270185E+03  0.15200315212E+03 -0.55786042927E+02  0.21805603077E+03  0.00000000000E+00 0.  1.
          3    1    3    3  501    0  0.17874264169E+03 -0.15794000389E+03  0.64355374365E+02  0.24705382206E+03  0.00000000000E+00 0.  1.
         21    1    1    2  502  501 -0.32689939841E+02  0.59368517743E+01 -0.40824086967E+02  0.52635391634E+02  0.00000000000E+00 0. -1.
<scales pt_clust_4="550.00000" pt_clust_5="550.00000" pt_clust_6="33.22468"></scales>
<mgrwt>
<rscale>  0 0.30000000E+03</rscale>
<asrwt>  1 0.33224682E+02</asrwt>
<pdfrwt beam="1">  1        1 0.88270998E+00 0.30000000E+03</pdfrwt>
<pdfrwt beam="2">0</pdfrwt>
<totfact> 0.18401210E-04</totfact>
</mgrwt>
<clustering>
<clus scale="   33.225">  1  6  2 -1</clus>
<clus scale="  463.842">  4  5 -1 -1</clus>
<clus scale="  300.000">  1  4  2 -1</clus>
</clustering>
</event>
<event>
 6    1  0.9687246E-012  0.3000000E+03  0.7818608E-02  0.1093470E+00
          1   -1    0    0  502    0  0.00000000000E+00  0.00000000000E+00  0.23312048081E+03  0.23312048081E+03  0.00000000000E+00 0.  1.
         13   -1    0    0    0    0 -0.00000000000E+00 -0.00000000000E+00 -0.27500000000E+03  0.27500000000E+03  0.00000000000E+00 0.  1.
    9000005    2    1    2  501    0 -0.63643287854E+01 -0.45064036540E+02 -0.51170246544E+02  0.46167061875E+03  0.45656335159E+03 0.  0.
         13    1    3    3    0    0  0.84153408834E+02  0.16004622971E+03  0.84530950325E+02  0.19960479309E+03  0.00000000000E+00 0.  1.
          3    1    3    3  501    0 -0.90517737620E+02 -0.20511026625E+03 -0.13570119687E+03  0.26206582566E+03  0.00000000000E+00 0.  1.
         21    1    1    2  502  501  0.63643287854E+01  0.45064036540E+02  0.92907273509E+01  0.46449862054E+02  0.00000000000E+00 0.  1.
<scales pt_clust_4="550.00000" pt_clust_5="550.00000" pt_clust_6="45.51123"></scales>
<mgrwt>
<rscale>  0 0.30000000E+03</rscale>
<asrwt>  1 0.45511230E+02</asrwt>
<pdfrwt beam="1">  1        1 0.84771084E+00 0.30000000E+03</pdfrwt>
<pdfrwt beam="2">0</pdfrwt>
<totfact> 0.40731920E-04</totfact>
</mgrwt>
<clustering>
<clus scale="   45.511">  1  6  2 -1</clus>
<clus scale="  456.563">  4  5 -1 -1</clus>
<clus scale="  300.000">  1  4  2 -1</clus>
</clustering>
</event>
<event>
 6    1  0.9687246E-012  0.3000000E+03  0.7818608E-02  0.1093470E+00
          1   -1    0    0  502    0  0.00000000000E+00  0.00000000000E+00  0.23679510998E+03  0.23679510998E+03  0.00000000000E+00 0.  1.
         13   -1    0    0    0    0 -0.00000000000E+00 -0.00000000000E+00 -0.27500000000E+03  0.27500000000E+03  0.00000000000E+00 0.  1.
    9000005    2    1    2  501    0  0.32618182218E+02 -0.68285049754E+01 -0.59178247717E+02  0.47241927952E+03  0.46751185693E+03 0.  0.
         13    1    3    3    0    0  0.17258511809E+03  0.15256010767E+03 -0.10852625454E+03  0.25463337833E+03  0.00000000000E+00 0.  1.
          1    1    3    3  501    0 -0.13996693587E+03 -0.15938861265E+03  0.49348006823E+02  0.21778590118E+03  0.00000000000E+00 0.  1.
         21    1    1    2  502  501 -0.32618182218E+02  0.68285049754E+01  0.20973357696E+02  0.39375830460E+02  0.00000000000E+00 0.  1.
<scales pt_clust_4="550.00000" pt_clust_5="550.00000" pt_clust_6="33.32528"></scales>
<mgrwt>
<rscale>  0 0.30000000E+03</rscale>
<asrwt>  1 0.33325280E+02</asrwt>
<pdfrwt beam="1">  1        1 0.86107313E+00 0.30000000E+03</pdfrwt>
<pdfrwt beam="2">0</pdfrwt>
<totfact> 0.31792770E-04</totfact>
</mgrwt>
<clustering>
<clus scale="   33.325">  1  6  2 -1</clus>
<clus scale="  467.512">  4  5 -1 -1</clus>
<clus scale="  300.000">  1  4  2 -1</clus>
</clustering>
</event>
<event>
 6    1  0.9687246E-012  0.3000000E+03  0.7818608E-02  0.1093470E+00
          1   -1    0    0  502    0  0.00000000000E+00  0.00000000000E+00  0.23866543229E+03  0.23866543229E+03  0.00000000000E+00 0.  1.
         13   -1    0    0    0    0 -0.00000000000E+00 -0.00000000000E+00 -0.27500000000E+03  0.27500000000E+03  0.00000000000E+00 0.  1.
    9000005    2    1    2  501    0 -0.34735658442E+02 -0.19460022955E+01 -0.44062612611E+02  0.47802731267E+03  0.47471912215E+03 0.  0.
         13    1    3    3    0    0  0.90351407106E+02 -0.17350457574E+03 -0.14444977134E+03  0.24317267735E+03  0.00000000000E+00 0.  1.
          3    1    3    3  501    0 -0.12508706555E+03  0.17155857345E+03  0.10038715873E+03  0.23485463531E+03  0.00000000000E+00 0.  1.
         21    1    1    2  502  501  0.34735658442E+02  0.19460022955E+01  0.77280449010E+01  0.35638119624E+02  0.00000000000E+00 0.  1.
<scales pt_clust_4="550.00000" pt_clust_5="550.00000" pt_clust_6="34.79013"></scales>
<mgrwt>
<rscale>  0 0.30000000E+03</rscale>
<asrwt>  1 0.34790126E+02</asrwt>
<pdfrwt beam="1">  1        1 0.86787430E+00 0.30000000E+03</pdfrwt>
<pdfrwt beam="2">0</pdfrwt>
<totfact> 0.26664886E-04</totfact>
</mgrwt>
<clustering>
<clus scale="   34.790">  1  6  2 -1</clus>
<clus scale="  474.719">  4  5 -1 -1</clus>
<clus scale="  300.000">  1  4  2 -1</clus>
</clustering>
</event>
<event>
 6    1  0.9687246E-012  0.3000000E+03  0.7818608E-02  0.1093470E+00
          1   -1    0    0  502    0  0.00000000000E+00  0.00000000000E+00  0.23910624766E+03  0.23910624766E+03  0.00000000000E+00 0.  1.
         13   -1    0    0    0    0 -0.00000000000E+00 -0.00000000000E+00 -0.27500000000E+03  0.27500000000E+03  0.00000000000E+00 0.  1.
    9000005    2    1    2  501    0 -0.11763082476E+02 -0.35037779027E+02 -0.39848285808E+02  0.47693563556E+03  0.47382876498E+03 0.  0.
         13    1    3    3    0    0  0.11996463075E+03  0.18291685150E+03  0.25484933258E+01  0.21876147287E+03  0.00000000000E+00 0.  1.
          3    1    3    3  501    0 -0.13172771322E+03 -0.21795463053E+03 -0.42396779134E+02  0.25817416269E+03  0.00000000000E+00 0.  1.
         21    1    1    2  502  501  0.11763082476E+02  0.35037779027E+02  0.39545334648E+01  0.37170612094E+02  0.00000000000E+00 0.  1.
<scales pt_clust_4="550.00000" pt_clust_5="550.00000" pt_clust_6="36.95965"></scales>
<mgrwt>
<rscale>  0 0.30000000E+03</rscale>
<asrwt>  1 0.36959655E+02</asrwt>
<pdfrwt beam="1">  1        1 0.86947726E+00 0.30000000E+03</pdfrwt>
<pdfrwt beam="2">0</pdfrwt>
<totfact> 0.25380522E-04</totfact>
</mgrwt>
<clustering>
<clus scale="   36.960">  1  6  2 -1</clus>
<clus scale="  473.829">  4  5 -1 -1</clus>
<clus scale="  300.000">  1  4  2 -1</clus>
</clustering>
</event>
<event>
 6    1  0.9687246E-012  0.3000000E+03  0.7818608E-02  0.1093470E+00
          1   -1    0    0  502    0  0.00000000000E+00  0.00000000000E+00  0.22193405175E+03  0.22193405175E+03  0.00000000000E+00 0.  1.
         13   -1    0    0    0    0 -0.00000000000E+00 -0.00000000000E+00 -0.27500000000E+03  0.27500000000E+03  0.00000000000E+00 0.  1.
    9000005    2    1    2  501    0 -0.64213986730E+01 -0.31147152286E+02 -0.46352188891E+02  0.46443091312E+03  0.46101645110E+03 0.  0.
         13    1    3    3    0    0 -0.71610158723E+02  0.18850646221E+03  0.62018929428E+02  0.21097167757E+03  0.00000000000E+00 0.  1.
          1    1    3    3  501    0  0.65188760050E+02 -0.21965361450E+03 -0.10837111832E+03  0.25345923555E+03  0.00000000000E+00 0.  1.
         21    1    1    2  502  501  0.64213986730E+01  0.31147152286E+02 -0.67137593573E+01  0.32503138636E+02  0.00000000000E+00 0. -1.
<scales pt_clust_4="550.00000" pt_clust_5="550.00000" pt_clust_6="31.80221"></scales>
<mgrwt>
<rscale>  0 0.30000000E+03</rscale>
<asrwt>  1 0.31802209E+02</asrwt>
<pdfrwt beam="1">  1        1 0.80703292E+00 0.30000000E+03</pdfrwt>
<pdfrwt beam="2">0</pdfrwt>
<totfact> 0.93624778E-04</totfact>
</mgrwt>
<clustering>
<clus scale="   31.802">  1  6  2 -1</clus>
<clus scale="  461.016">  4  5 -1 -1</clus>
<clus scale="  300.000">  1  4  2 -1</clus>
</clustering>
</event>
<event>
 6    1  0.9687246E-012  0.3000000E+03  0.7818608E-02  0.1093470E+00
          1   -1    0    0  502    0  0.00000000000E+00  0.00000000000E+00  0.23416615565E+03  0.23416615565E+03  0.00000000000E+00 0.  1.
         13   -1    0    0    0    0 -0.00000000000E+00 -0.00000000000E+00 -0.27500000000E+03  0.27500000000E+03  0.00000000000E+00 0.  1.
    9000005    2    1    2  501    0 -0.28835053707E+02 -0.97003733959E+01 -0.56933687331E+02  0.47474577636E+03  0.47033663461E+03 0.  0.
         13    1    3    3    0    0 -0.23436111178E+03 -0.47980318632E+02  0.42954125156E+02  0.24304793469E+03  0.00000000000E+00 0.  1.
          1    1    3    3  501    0  0.20552605807E+03  0.38279945237E+02 -0.99887812486E+02  0.23169784167E+03  0.00000000000E+00 0.  1.
         21    1    1    2  502  501  0.28835053707E+02  0.97003733959E+01  0.16099842979E+02  0.34420379287E+02  0.00000000000E+00 0.  1.
<scales pt_clust_4="550.00000" pt_clust_5="550.00000" pt_clust_6="30.42298"></scales>
<mgrwt>
<rscale>  0 0.30000000E+03</rscale>
<asrwt>  1 0.30422978E+02</asrwt>
<pdfrwt beam="1">  1        1 0.85151329E+00 0.30000000E+03</pdfrwt>
<pdfrwt beam="2">0</pdfrwt>
<totfact> 0.40439025E-04</totfact>
</mgrwt>
<clustering>
<clus scale="   30.423">  1  6  2 -1</clus>
<clus scale="  470.337">  4  5 -1 -1</clus>
<clus scale="  300.000">  1  4  2 -1</clus>
</clustering>
</event>
<event>
 6    1  0.9687246E-012  0.3000000E+03  0.7818608E-02  0.1093470E+00
          1   -1    0    0  502    0  0.00000000000E+00  0.00000000000E+00  0.23570833956E+03  0.23570833956E+03  0.00000000000E+00 0.  1.
         13   -1    0    0    0    0 -0.00000000000E+00 -0.00000000000E+00 -0.27500000000E+03  0.27500000000E+03  0.00000000000E+00 0.  1.
    9000005    2    1    2  501    0  0.25994802926E+02  0.17809077038E+02 -0.73962448453E+02  0.46385797621E+03  0.45683792018E+03 0.  0.
         13    1    3    3    0    0 -0.15060238896E+03 -0.14631465757E+03  0.54016654546E+01  0.21004341592E+03  0.00000000000E+00 0.  1.
          3    1    3    3  501    0  0.17659719189E+03  0.16412373461E+03 -0.79364113908E+02  0.25381456030E+03  0.00000000000E+00 0.  1.
         21    1    1    2  502  501 -0.25994802926E+02 -0.17809077038E+02  0.34670788013E+02  0.46850363345E+02  0.00000000000E+00 0.  1.
<scales pt_clust_4="550.00000" pt_clust_5="550.00000" pt_clust_6="31.51020"></scales>
<mgrwt>
<rscale>  0 0.30000000E+03</rscale>
<asrwt>  1 0.31510205E+02</asrwt>
<pdfrwt beam="1">  1        1 0.85712123E+00 0.30000000E+03</pdfrwt>
<pdfrwt beam="2">0</pdfrwt>
<totfact> 0.35372473E-04</totfact>
</mgrwt>
<clustering>
<clus scale="   31.510">  1  6  2 -1</clus>
<clus scale="  456.838">  4  5 -1 -1</clus>
<clus scale="  300.000">  1  4  2 -1</clus>
</clustering>
</event>
<event>
 6    1  0.9687246E-012  0.3000000E+03  0.7818608E-02  0.1093470E+00
          1   -1    0    0  502    0  0.00000000000E+00  0.00000000000E+00  0.22798238782E+03  0.22798238782E+03  0.00000000000E+00 0.  1.
         13   -1    0    0    0    0 -0.00000000000E+00 -0.00000000000E+00 -0.27500000000E+03  0.27500000000E+03  0.00000000000E+00 0.  1.
    9000005    2    1    2  501    0 -0.70737139751E+01 -0.36587272849E+02 -0.39889673936E+02  0.46504199421E+03  0.46182702858E+03 0.  0.
         13    1    3    3    0    0 -0.15759039885E+02  0.20643175875E+03 -0.73210526034E+02  0.21959553612E+03  0.00000000000E+00 0.  1.
          3    1    3    3  501    0  0.86853259100E+01 -0.24301903160E+03  0.33320852097E+02  0.24544645809E+03  0.00000000000E+00 0.  1.
         21    1    1    2  502  501  0.70737139751E+01  0.36587272849E+02 -0.71279382413E+01  0.37940393613E+02  0.00000000000E+00 0. -1.
<scales pt_clust_4="550.00000" pt_clust_5="550.00000" pt_clust_6="37.26483"></scales>
<mgrwt>
<rscale>  0 0.30000000E+03</rscale>
<asrwt>  1 0.37264827E+02</asrwt>
<pdfrwt beam="1">  1        1 0.82902686E+00 0.30000000E+03</pdfrwt>
<pdfrwt beam="2">0</pdfrwt>
<totfact> 0.59522631E-04</totfact>
</mgrwt>
<clustering>
<clus scale="   37.265">  1  6  2 -1</clus>
<clus scale="  461.827">  4  5 -1 -1</clus>
<clus scale="  300.000">  1  4  2 -1</clus>
</clustering>
</event>
<event>
 6    1  0.9687246E-012  0.3000000E+03  0.7818608E-02  0.1093470E+00
          1   -1    0    0  502    0  0.00000000000E+00  0.00000000000E+00  0.24210278634E+03  0.24210278634E+03  0.00000000000E+00 0.  1.
         13   -1    0    0    0    0 -0.00000000000E+00 -0.00000000000E+00 -0.27500000000E+03  0.27500000000E+03  0.00000000000E+00 0.  1.
    9000005    2    1    2  501    0 -0.57537301920E+01  0.41131827593E+02 -0.45433098497E+02  0.47371982815E+03  0.46970349849E+03 0.  0.
         13    1    3    3    0    0  0.18567469306E+03 -0.13972969215E+02  0.11421437549E+03  0.21843822715E+03  0.00000000000E+00 0.  1.
          3    1    3    3  501    0 -0.19142842325E+03  0.55104796809E+02 -0.15964747399E+03  0.25528160100E+03  0.00000000000E+00 0.  1.
         21    1    1    2  502  501  0.57537301920E+01 -0.41131827593E+02  0.12535884838E+02  0.43382958186E+02  0.00000000000E+00 0. -1.
<scales pt_clust_4="550.00000" pt_clust_5="550.00000" pt_clust_6="41.53231"></scales>
<mgrwt>
<rscale>  0 0.30000000E+03</rscale>
<asrwt>  1 0.41532309E+02</asrwt>
<pdfrwt beam="1">  1        1 0.88037377E+00 0.30000000E+03</pdfrwt>
<pdfrwt beam="2">0</pdfrwt>
<totfact> 0.18922627E-04</totfact>
</mgrwt>
<clustering>
<clus scale="   41.532">  1  6  2 -1</clus>
<clus scale="  469.703">  4  5 -1 -1</clus>
<clus scale="  300.000">  1  4  2 -1</clus>
</clustering>
</event>
<event>
 6    1  0.9687246E-012  0.3000000E+03  0.7818608E-02  0.1093470E+00
          1   -1    0    0  502    0  0.00000000000E+00  0.00000000000E+00  0.23742678368E+03  0.23742678368E+03  0.00000000000E+00 0.  1.
         13   -1    0    0    0    0 -0.00000000000E+00 -0.00000000000E+00 -0.27500000000E+03  0.27500000000E+03  0.00000000000E+00 0.  1.
    9000005    2    1    2  501    0 -0.83341442110E+01 -0.34884574090E+02 -0.66886497132E+02  0.46610551533E+03  0.45988493828E+03 0.  0.
         13    1    3    3    0    0 -0.65649797557E+02  0.11487026482E+03  0.14765682272E+03  0.19826147118E+03  0.00000000000E+00 0.  1.
          1    1    3    3  501    0  0.57315653347E+02 -0.14975483891E+03 -0.21454331985E+03  0.26784404415E+03  0.00000000000E+00 0.  1.
         21    1    1    2  502  501  0.83341442110E+01  0.34884574090E+02  0.29313280812E+02  0.46321268345E+02  0.00000000000E+00 0. -1.
<scales pt_clust_4="550.00000" pt_clust_5="550.00000" pt_clust_6="35.86630"></scales>
<mgrwt>
<rscale>  0 0.30000000E+03</rscale>
<asrwt>  1 0.35866300E+02</asrwt>
<pdfrwt beam="1">  1        1 0.86337012E+00 0.30000000E+03</pdfrwt>
<pdfrwt beam="2">0</pdfrwt>
<totfact> 0.29616467E-04</totfact>
</mgrwt>
<clustering>
<clus scale="   35.866">  1  6  2 -1</clus>
<clus scale="  459.885">  4  5 -1 -1</clus>
<clus scale="  300.000">  1  4  2 -1</clus>
</clustering>
</event>
<event>
 6    1  0.9687246E-012  0.3000000E+03  0.7818608E-02  0.1093470E+00
          1   -1    0    0  502    0  0.00000000000E+00  0.00000000000E+00  0.23289455074E+03  0.23289455074E+03  0.00000000000E+00 0.  1.
         13   -1    0    0    0    0 -0.00000000000E+00 -0.00000000000E+00 -0.27500000000E+03  0.27500000000E+03  0.00000000000E+00 0.  1.
    9000005    2    1    2  501    0  0.15152096812E+02  0.35576217405E+02 -0.27796281332E+02  0.46666342695E+03  0.46422717231E+03 0.  0.
         13    1    3    3    0    0 -0.95557928587E+02  0.16433102410E+03 -0.16236714381E+03  0.24999818516E+03  0.00000000000E+00 0.  1.
          3    1    3    3  501    0  0.11071002540E+03 -0.12875480669E+03  0.13457086248E+03  0.21666524179E+03  0.00000000000E+00 0.  1.
         21    1    1    2  502  501 -0.15152096812E+02 -0.35576217405E+02 -0.14309167924E+02  0.41231123794E+02  0.00000000000E+00 0.  1.
<scales pt_clust_4="550.00000" pt_clust_5="550.00000" pt_clust_6="38.66852"></scales>
<mgrwt>
<rscale>  0 0.30000000E+03</rscale>
<asrwt>  1 0.38668524E+02</asrwt>
<pdfrwt beam="1">  1        1 0.84688928E+00 0.30000000E+03</pdfrwt>
<pdfrwt beam="2">0</pdfrwt>
<totfact> 0.42675671E-04</totfact>
</mgrwt>
<clustering>
<clus scale="   38.669">  1  6  2 -1</clus>
<clus scale="  464.227">  4  5 -1 -1</clus>
<clus scale="  300.000">  1  4  2 -1</clus>
</clustering>
</event>
<event>
 6    1  0.9687246E-012  0.3000000E+03  0.7818608E-02  0.1093470E+00
          1   -1    0    0  502    0  0.00000000000E+00  0.00000000000E+00  0.22889063615E+03  0.22889063615E+03  0.00000000000E+00 0.  1.
         13   -1    0    0    0    0 -0.00000000000E+00 -0.00000000000E+00 -0.27500000000E+03  0.27500000000E+03  0.00000000000E+00 0.  1.
    9000005    2    1    2  501    0 -0.33386999002E+02 -0.73829173758E+01 -0.65851831636E+02  0.46440691538E+03  0.45844096693E+03 0.  0.
         13    1    3    3    0    0 -0.11584862976E+03 -0.23498967996E+02 -0.24195489137E+03  0.26928660563E+03  0.00000000000E+00 0.  1.
          1    1    3    3  501    0  0.82461630756E+02  0.16116050620E+02  0.17610305973E+03  0.19512030976E+03  0.00000000000E+00 0.  1.
         21    1    1    2  502  501  0.33386999002E+02  0.73829173758E+01  0.19742467789E+02  0.39483720769E+02  0.00000000000E+00 0.  1.
<scales pt_clust_4="550.00000" pt_clust_5="550.00000" pt_clust_6="34.19355"></scales>
<mgrwt>
<rscale>  0 0.30000000E+03</rscale>
<asrwt>  1 0.34193555E+02</asrwt>
<pdfrwt beam="1">  1        1 0.83232959E+00 0.30000000E+03</pdfrwt>
<pdfrwt beam="2">0</pdfrwt>
<totfact> 0.56884537E-04</totfact>
</mgrwt>
<clustering>
<clus scale="   34.194">  1  6  2 -1</clus>
<clus scale="  458.441">  4  5 -1 -1</clus>
<clus scale="  300.000">  1  4  2 -1</clus>
</clustering>
</event>
<event>
 6    1  0.9687246E-012  0.3000000E+03  0.7818608E-02  0.1093470E+00
          1   -1    0    0  502    0  0.00000000000E+00  0.00000000000E+00  0.22398157984E+03  0.22398157984E+03  0.00000000000E+00 0.  1.
         13   -1    0    0    0    0 -0.00000000000E+00 -0.00000000000E+00 -0.27500000000E+03  0.27500000000E+03  0.00000000000E+00 0.  1.
    9000005    2    1    2  501    0  0.24958881116E+01 -0.30777007813E+02 -0.65101339269E+02  0.46504366184E+03  0.45942787179E+03 0.  0.
         13    1    3    3    0    0 -0.20894339443E+03 -0.27775371384E+02 -0.12526092850E+03  0.24519199322E+03  0.00000000000E+00 0.  1.
          1    1    3    3  501    0  0.21143928254E+03 -0.30016364294E+01  0.60159589227E+02  0.21985166862E+03  0.00000000000E+00 0.  1.
         21    1    1    2  502  501 -0.24958881116E+01  0.30777007813E+02  0.14082919107E+02  0.33937917997E+02  0.00000000000E+00 0.  1.
<scales pt_clust_4="550.00000" pt_clust_5="550.00000" pt_clust_6="30.87805"></scales>
<mgrwt>
<rscale>  0 0.30000000E+03</rscale>
<asrwt>  1 0.30878045E+02</asrwt>
<pdfrwt beam="1">  1        1 0.81447847E+00 0.30000000E+03</pdfrwt>
<pdfrwt beam="2">0</pdfrwt>
<totfact> 0.82307686E-04</totfact>
</mgrwt>
<clustering>
<clus scale="   30.878">  1  6  2 -1</clus>
<clus scale="  459.428">  4  5 -1 -1</clus>
<clus scale="  300.000">  1  4  2 -1</clus>
</clustering>
</event>
<event>
 6    1  0.9687246E-012  0.3000000E+03  0.7818608E-02  0.1093470E+00
          1   -1    0    0  502    0  0.00000000000E+00  0.00000000000E+00  0.24551725863E+03  0.24551725863E+03  0.00000000000E+00 0.  1.
         13   -1    0    0    0    0 -0.00000000000E+00 -0.00000000000E+00 -0.27500000000E+03  0.27500000000E+03  0.00000000000E+00 0.  1.
    9000005    2    1    2  501    0 -0.49010221346E+02  0.28256622213E+02 -0.35060048286E+02  0.46367058020E+03  0.45886900251E+03 0.  0.
         13    1    3    3    0    0  0.13785626761E+03  0.14837864822E+03 -0.10841601894E+03  0.22972724464E+03  0.00000000000E+00 0.  1.
          3    1    3    3  501    0 -0.18686648895E+03 -0.12012202600E+03  0.73355970658E+02  0.23394333557E+03  0.00000000000E+00 0.  1.
         21    1    1    2  502  501  0.49010221346E+02 -0.28256622213E+02  0.55773069123E+01  0.56846678422E+02  0.00000000000E+00 0. -1.
<scales pt_clust_4="550.00000" pt_clust_5="550.00000" pt_clust_6="56.57242"></scales>
<mgrwt>
<rscale>  0 0.30000000E+03</rscale>
<asrwt>  1 0.56572418E+02</asrwt>
<pdfrwt beam="1">  1        1 0.89279003E+00 0.30000000E+03</pdfrwt>
<pdfrwt beam="2">0</pdfrwt>
<totfact> 0.12267055E-04</totfact>
</mgrwt>
<clustering>
<clus scale="   56.572">  1  6  2 -1</clus>
<clus scale="  458.869">  4  5 -1 -1</clus>
<clus scale="  300.000">  1  4  2 -1</clus>
</clustering>
</event>
<event>
 6    1  0.9687246E-012  0.3000000E+03  0.7818608E-02  0.1093470E+00
          1   -1    0    0  502    0  0.00000000000E+00  0.00000000000E+00  0.23470429602E+03  0.23470429602E+03  0.00000000000E+00 0.  1.
         13   -1    0    0    0    0 -0.00000000000E+00 -0.00000000000E+00 -0.27500000000E+03  0.27500000000E+03  0.00000000000E+00 0.  1.
    9000005    2    1    2  501    0  0.29253542312E+02 -0.37719899735E+02 -0.48043844808E+02  0.46134528176E+03  0.45634712381E+03 0.  0.
         13    1    3    3    0    0  0.20047505533E+03  0.76728343909E+02  0.67725905587E+02  0.22508728275E+03  0.00000000000E+00 0.  1.
          3    1    3    3  501    0 -0.17122151301E+03 -0.11444824364E+03 -0.11576975039E+03  0.23625799901E+03  0.00000000000E+00 0.  1.
         21    1    1    2  502  501 -0.29253542312E+02  0.37719899735E+02  0.77481408274E+01  0.48359014259E+02  0.00000000000E+00 0.  1.
<scales pt_clust_4="550.00000" pt_clust_5="550.00000" pt_clust_6="47.73427"></scales>
<mgrwt>
<rscale>  0 0.30000000E+03</rscale>
<asrwt>  1 0.47734270E+02</asrwt>
<pdfrwt beam="1">  1        1 0.85347017E+00 0.30000000E+03</pdfrwt>
<pdfrwt beam="2">0</pdfrwt>
<totfact> 0.35641264E-04</totfact>
</mgrwt>
<clustering>
<clus scale="   47.734">  1  6  2 -1</clus>
<clus scale="  456.347">  4  5 -1 -1</clus>
<clus scale="  300.000">  1  4  2 -1</clus>
</clustering>
</event>
<event>
 6    1  0.9687246E-012  0.3000000E+03  0.7818608E-02  0.1093470E+00
          1   -1    0    0  502    0  0.00000000000E+00  0.00000000000E+00  0.23753993910E+03  0.23753993910E+03  0.00000000000E+00 0.  1.
         13   -1    0    0    0    0 -0.00000000000E+00 -0.00000000000E+00 -0.27500000000E+03  0.27500000000E+03  0.00000000000E+00 0.  1.
    9000005    2    1    2  501    0  0.26213169977E+01  0.32170944845E+02 -0.74583093950E+02  0.46334684428E+03  0.45616424587E+03 0.  0.
         13    1    3    3    0    0 -0.22665366287E+03  0.91861377749E+01 -0.40094748190E+02  0.23035593514E+03  0.00000000000E+00 0.  1.
          1    1    3    3  501    0  0.22927497987E+03  0.22984807070E+02 -0.34488345759E+02  0.23299090914E+03  0.00000000000E+00 0.  1.
         21    1    1    2  502  501 -0.26213169977E+01 -0.32170944845E+02  0.37123033053E+02  0.49193094821E+02  0.00000000000E+00 0.  1.
<scales pt_clust_4="550.00000" pt_clust_5="550.00000" pt_clust_6="32.27756"></scales>
<mgrwt>
<rscale>  0 0.30000000E+03</rscale>
<asrwt>  1 0.32277562E+02</asrwt>
<pdfrwt beam="1">  1        1 0.86378160E+00 0.30000000E+03</pdfrwt>
<pdfrwt beam="2">0</pdfrwt>
<totfact> 0.29901246E-04</totfact>
</mgrwt>
<clustering>
<clus scale="   32.278">  1  6  2 -1</clus>
<clus scale="  456.164">  4  5 -1 -1</clus>
<clus scale="  300.000">  1  4  2 -1</clus>
</clustering>
</event>
<event>
 6    1  0.9687246E-012  0.3000000E+03  0.7818608E-02  0.1093470E+00
          1   -1    0    0  502    0  0.00000000000E+00  0.00000000000E+00  0.26415302010E+03  0.26415302010E+03  0.00000000000E+00 0.  1.
         13   -1    0    0    0    0 -0.00000000000E+00 -0.00000000000E+00 -0.27500000000E+03  0.27500000000E+03  0.00000000000E+00 0.  1.
    9000005    2    1    2  501    0 -0.25410973283E+02 -0.28761804141E+02 -0.18554050667E+02  0.50000767708E+03  0.49818717908E+03 0.  0.
         13    1    3    3    0    0  0.56566288685E+02  0.22551080261E+03 -0.98145346822E+01  0.23270408720E+03  0.00000000000E+00 0.  1.
          1    1    3    3  501    0 -0.81977261969E+02 -0.25427260675E+03 -0.87395159847E+01  0.26730358988E+03  0.00000000000E+00 0.  1.
         21    1    1    2  502  501  0.25410973283E+02  0.28761804141E+02  0.77070707671E+01  0.39145343024E+02  0.00000000000E+00 0.  1.
<scales pt_clust_4="550.00000" pt_clust_5="550.00000" pt_clust_6="38.37915"></scales>
<mgrwt>
<rscale>  0 0.30000000E+03</rscale>
<asrwt>  1 0.38379147E+02</asrwt>
<pdfrwt beam="1">  1        1 0.96055644E+00 0.30000000E+03</pdfrwt>
<pdfrwt beam="2">0</pdfrwt>
<totfact> 0.72529863E-06</totfact>
</mgrwt>
<clustering>
<clus scale="   38.379">  1  6  2 -1</clus>
<clus scale="  498.187">  4  5 -1 -1</clus>
<clus scale="  300.000">  1  4  2 -1</clus>
</clustering>
</event>
<event>
 6    1  0.9687246E-012  0.3000000E+03  0.7818608E-02  0.1093470E+00
          1   -1    0    0  502    0  0.00000000000E+00  0.00000000000E+00  0.24166537909E+03  0.24166537909E+03  0.00000000000E+00 0.  1.
         13   -1    0    0    0    0 -0.00000000000E+00 -0.00000000000E+00 -0.27500000000E+03  0.27500000000E+03  0.00000000000E+00 0.  1.
    9000005    2    1    2  501    0 -0.37054279325E+02  0.10181234503E+02 -0.37359789850E+02  0.47802758494E+03  0.47501362181E+03 0.  0.
         13    1    3    3    0    0 -0.14127071294E+03  0.38962217829E+02  0.18188380507E+03  0.23357480023E+03  0.00000000000E+00 0.  1.
          1    1    3    3  501    0  0.10421643362E+03 -0.28780983326E+02 -0.21924359492E+03  0.24445278471E+03  0.00000000000E+00 0.  1.
         21    1    1    2  502  501  0.37054279325E+02 -0.10181234503E+02  0.40251689420E+01  0.38637794157E+02  0.00000000000E+00 0.  1.
<scales pt_clust_4="550.00000" pt_clust_5="550.00000" pt_clust_6="38.42756"></scales>
<mgrwt>
<rscale>  0 0.30000000E+03</rscale>
<asrwt>  1 0.38427557E+02</asrwt>
<pdfrwt beam="1">  1        1 0.87878320E+00 0.30000000E+03</pdfrwt>
<pdfrwt beam="2">0</pdfrwt>
<totfact> 0.20066120E-04</totfact>
</mgrwt>
<clustering>
<clus scale="   38.428">  1  6  2 -1</clus>
<clus scale="  475.014">  4  5 -1 -1</clus>
<clus scale="  300.000">  1  4  2 -1</clus>
</clustering>
</event>
<event>
 6    1  0.9687246E-012  0.3000000E+03  0.7818608E-02  0.1093470E+00
          1   -1    0    0  502    0  0.00000000000E+00  0.00000000000E+00  0.24628900972E+03  0.24628900972E+03  0.00000000000E+00 0.  1.
         13   -1    0    0    0    0 -0.00000000000E+00 -0.00000000000E+00 -0.27500000000E+03  0.27500000000E+03  0.00000000000E+00 0.  1.
    9000005    2    1    2  501    0 -0.35673988060E+01  0.43278290915E+02  0.95962542177E+01  0.46338234534E+03  0.46124329055E+03 0.  0.
         13    1    3    3    0    0 -0.23090852235E+03  0.19945353051E+01 -0.12592496275E+02  0.23126023183E+03  0.00000000000E+00 0.  1.
          1    1    3    3  501    0  0.22734112354E+03  0.41283755610E+02  0.22188750492E+02  0.23212211351E+03  0.00000000000E+00 0.  1.
         21    1    1    2  502  501  0.35673988060E+01 -0.43278290915E+02 -0.38307244497E+02  0.57906664381E+02  0.00000000000E+00 0.  1.
<scales pt_clust_4="550.00000" pt_clust_5="550.00000" pt_clust_6="43.42509"></scales>
<mgrwt>
<rscale>  0 0.30000000E+03</rscale>
<asrwt>  1 0.43425093E+02</asrwt>
<pdfrwt beam="1">  1        1 0.89559640E+00 0.30000000E+03</pdfrwt>
<pdfrwt beam="2">0</pdfrwt>
<totfact> 0.11935589E-04</totfact>
</mgrwt>
<clustering>
<clus scale="   43.425">  1  6  2 -1</clus>
<clus scale="  461.243">  4  5 -1 -1</clus>
<clus scale="  300.000">  1  4  2 -1</clus>
</clustering>
</event>
<event>
 6    1  0.9687246E-012  0.3000000E+03  0.7818608E-02  0.1093470E+00
          1   -1    0    0  502    0  0.00000000000E+00  0.00000000000E+00  0.24610914766E+03  0.24610914766E+03  0.00000000000E+00 0.  1.
         13   -1    0    0    0    0 -0.00000000000E+00 -0.00000000000E+00 -0.27500000000E+03  0.27500000000E+03  0.00000000000E+00 0.  1.
    9000005    2    1    2  501    0  0.20432691503E+02  0.32659260102E+02 -0.14921103578E+02  0.48013017705E+03  0.47834948043E+03 0.  0.
         13    1    3    3    0    0  0.50893518187E+02  0.23305206071E+03  0.86162505275E+02  0.25362844973E+03  0.00000000000E+00 0.  1.
          1    1    3    3  501    0 -0.30460826684E+02 -0.20039280061E+03 -0.10108360885E+03  0.22650172732E+03  0.00000000000E+00 0.  1.
         21    1    1    2  502  501 -0.20432691503E+02 -0.32659260102E+02 -0.13969748758E+02  0.40978970617E+02  0.00000000000E+00 0.  1.
<scales pt_clust_4="550.00000" pt_clust_5="550.00000" pt_clust_6="38.52433"></scales>
<mgrwt>
<rscale>  0 0.30000000E+03</rscale>
<asrwt>  1 0.38524325E+02</asrwt>
<pdfrwt beam="1">  1        1 0.89494236E+00 0.30000000E+03</pdfrwt>
<pdfrwt beam="2">0</pdfrwt>
<totfact> 0.12405374E-04</totfact>
</mgrwt>
<clustering>
<clus scale="   38.524">  1  6  2 -1</clus>
<clus scale="  478.349">  4  5 -1 -1</clus>
<clus scale="  300.000">  1  4  2 -1</clus>
</clustering>
</event>
<event>
 6    1  0.9687246E-012  0.3000000E+03  0.7818608E-02  0.1093470E+00
          1   -1    0    0  502    0  0.00000000000E+00  0.00000000000E+00  0.22267712116E+03  0.22267712116E+03  0.00000000000E+00 0.  1.
         13   -1    0    0    0    0 -0.00000000000E+00 -0.00000000000E+00 -0.27500000000E+03  0.27500000000E+03  0.00000000000E+00 0.  1.
    9000005    2    1    2  501    0  0.32160632426E+02 -0.78536520418E+01 -0.63699657502E+02  0.46267116136E+03  0.45706779701E+03 0.  0.
         13    1    3    3    0    0 -0.73780010022E+02 -0.18651850214E+03  0.73626832085E+02  0.21366691818E+03  0.00000000000E+00 0.  1.
          3    1    3    3  501    0  0.10594064245E+03  0.17866485010E+03 -0.13732648959E+03  0.24900424319E+03  0.00000000000E+00 0.  1.
         21    1    1    2  502  501 -0.32160632426E+02  0.78536520418E+01  0.11376778662E+02  0.35005959795E+02  0.00000000000E+00 0.  1.
<scales pt_clust_4="550.00000" pt_clust_5="550.00000" pt_clust_6="33.10568"></scales>
<mgrwt>
<rscale>  0 0.30000000E+03</rscale>
<asrwt>  1 0.33105681E+02</asrwt>
<pdfrwt beam="1">  1        1 0.80973499E+00 0.30000000E+03</pdfrwt>
<pdfrwt beam="2">0</pdfrwt>
<totfact> 0.88551718E-04</totfact>
</mgrwt>
<clustering>
<clus scale="   33.106">  1  6  2 -1</clus>
<clus scale="  457.068">  4  5 -1 -1</clus>
<clus scale="  300.000">  1  4  2 -1</clus>
</clustering>
</event>
<event>
 6    1  0.9687246E-012  0.3000000E+03  0.7818608E-02  0.1093470E+00
          1   -1    0    0  502    0  0.00000000000E+00  0.00000000000E+00  0.25344721473E+03  0.25344721473E+03  0.00000000000E+00 0.  1.
         13   -1    0    0    0    0 -0.00000000000E+00 -0.00000000000E+00 -0.27500000000E+03  0.27500000000E+03  0.00000000000E+00 0.  1.
    9000005    2    1    2  501    0 -0.27919780375E+02  0.26616275765E+02 -0.63535986289E+02  0.47143380017E+03  0.46553739497E+03 0.  0.
         13    1    3    3    0    0  0.15966828052E+03 -0.14291533431E+03 -0.29802043405E+02  0.21634905679E+03  0.00000000000E+00 0.  1.
          1    1    3    3  501    0 -0.18758806089E+03  0.16953161007E+03 -0.33733942884E+02  0.25508474338E+03  0.00000000000E+00 0.  1.
         21    1    1    2  502  501  0.27919780375E+02 -0.26616275765E+02  0.41983201018E+02  0.57013414558E+02  0.00000000000E+00 0.  1.
<scales pt_clust_4="550.00000" pt_clust_5="550.00000" pt_clust_6="38.57383"></scales>
<mgrwt>
<rscale>  0 0.30000000E+03</rscale>
<asrwt>  1 0.38573829E+02</asrwt>
<pdfrwt beam="1">  1        1 0.92162624E+00 0.30000000E+03</pdfrwt>
<pdfrwt beam="2">0</pdfrwt>
<totfact> 0.37882066E-05</totfact>
</mgrwt>
<clustering>
<clus scale="   38.574">  1  6  2 -1</clus>
<clus scale="  465.537">  4  5 -1 -1</clus>
<clus scale="  300.000">  1  4  2 -1</clus>
</clustering>
</event>
<event>
 6    1  0.9687246E-012  0.3000000E+03  0.7818608E-02  0.1093470E+00
          1   -1    0    0  502    0  0.00000000000E+00  0.00000000000E+00  0.22975939058E+03  0.22975939058E+03  0.00000000000E+00 0.  1.
         13   -1    0    0    0    0 -0.00000000000E+00 -0.00000000000E+00 -0.27500000000E+03  0.27500000000E+03  0.00000000000E+00 0.  1.
    9000005    2    1    2  501    0  0.22987290031E+02  0.23275421832E+02 -0.64315785908E+02  0.46689089282E+03  0.46128128590E+03 0.  0.
         13    1    3    3    0    0 -0.31843591967E+02 -0.21316218964E+03 -0.61622161508E+02  0.22416383345E+03  0.00000000000E+00 0.  1.
          1    1    3    3  501    0  0.54830881998E+02  0.23643761147E+03 -0.26936244004E+01  0.24272705937E+03  0.00000000000E+00 0.  1.
         21    1    1    2  502  501 -0.22987290031E+02 -0.23275421832E+02  0.19075176485E+02  0.37868497757E+02  0.00000000000E+00 0. -1.
<scales pt_clust_4="550.00000" pt_clust_5="550.00000" pt_clust_6="32.71331"></scales>
<mgrwt>
<rscale>  0 0.30000000E+03</rscale>
<asrwt>  1 0.32713312E+02</asrwt>
<pdfrwt beam="1">  1        1 0.83548869E+00 0.30000000E+03</pdfrwt>
<pdfrwt beam="2">0</pdfrwt>
<totfact> 0.54344025E-04</totfact>
</mgrwt>
<clustering>
<clus scale="   32.713">  1  6  2 -1</clus>
<clus scale="  461.281">  4  5 -1 -1</clus>
<clus scale="  300.000">  1  4  2 -1</clus>
</clustering>
</event>
<event>
 6    1  0.9687246E-012  0.3000000E+03  0.7818608E-02  0.1093470E+00
          1   -1    0    0  502    0  0.00000000000E+00  0.00000000000E+00  0.22841124349E+03  0.22841124349E+03  0.00000000000E+00 0.  1.
         13   -1    0    0    0    0 -0.00000000000E+00 -0.00000000000E+00 -0.27500000000E+03  0.27500000000E+03  0.00000000000E+00 0.  1.
    9000005    2    1    2  501    0 -0.28457109226E+02 -0.25573440993E+02 -0.46441257443E+02  0.46515121597E+03  0.46124294615E+03 0.  0.
         13    1    3    3    0    0 -0.80670806513E+02 -0.18952375900E+03 -0.15842393433E+03  0.25985607019E+03  0.00000000000E+00 0.  1.
          3    1    3    3  501    0  0.52213697287E+02  0.16395031800E+03  0.11198267689E+03  0.20529514578E+03  0.00000000000E+00 0.  1.
         21    1    1    2  502  501  0.28457109226E+02  0.25573440993E+02 -0.14749907025E+00  0.38260027518E+02  0.00000000000E+00 0.  1.
<scales pt_clust_4="550.00000" pt_clust_5="550.00000" pt_clust_6="38.25974"></scales>
<mgrwt>
<rscale>  0 0.30000000E+03</rscale>
<asrwt>  1 0.38259743E+02</asrwt>
<pdfrwt beam="1">  1        1 0.83058634E+00 0.30000000E+03</pdfrwt>
<pdfrwt beam="2">0</pdfrwt>
<totfact> 0.57495212E-04</totfact>
</mgrwt>
<clustering>
<clus scale="   38.260">  1  6  2 -1</clus>
<clus scale="  461.243">  4  5 -1 -1</clus>
<clus scale="  300.000">  1  4  2 -1</clus>
</clustering>
</event>
<event>
 6    1  0.9687246E-012  0.3000000E+03  0.7818608E-02  0.1093470E+00
          1   -1    0    0  502    0  0.00000000000E+00  0.00000000000E+00  0.22980935772E+03  0.22980935772E+03  0.00000000000E+00 0.  1.
         13   -1    0    0    0    0 -0.00000000000E+00 -0.00000000000E+00 -0.27500000000E+03  0.27500000000E+03  0.00000000000E+00 0.  1.
    9000005    2    1    2  501    0  0.24045669455E+02  0.26804500442E+02 -0.44968230888E+02  0.46879929065E+03  0.46524612589E+03 0.  0.
         13    1    3    3    0    0  0.13307864044E+03  0.20834487934E+03  0.17986669952E+02  0.24787301907E+03  0.00000000000E+00 0.  1.
          3    1    3    3  501    0 -0.10903297098E+03 -0.18154037890E+03 -0.62954900840E+02  0.22092627158E+03  0.00000000000E+00 0.  1.
         21    1    1    2  502  501 -0.24045669455E+02 -0.26804500442E+02 -0.22241139461E+00  0.36010067069E+02  0.00000000000E+00 0. -1.
<scales pt_clust_4="550.00000" pt_clust_5="550.00000" pt_clust_6="36.00938"></scales>
<mgrwt>
<rscale>  0 0.30000000E+03</rscale>
<asrwt>  1 0.36009380E+02</asrwt>
<pdfrwt beam="1">  1        1 0.83567039E+00 0.30000000E+03</pdfrwt>
<pdfrwt beam="2">0</pdfrwt>
<totfact> 0.53211520E-04</totfact>
</mgrwt>
<clustering>
<clus scale="   36.009">  1  6  2 -1</clus>
<clus scale="  465.246">  4  5 -1 -1</clus>
<clus scale="  300.000">  1  4  2 -1</clus>
</clustering>
</event>
<event>
 6    1  0.9687246E-012  0.3000000E+03  0.7818608E-02  0.1093470E+00
          1   -1    0    0  502    0  0.00000000000E+00  0.00000000000E+00  0.23181432293E+03  0.23181432293E+03  0.00000000000E+00 0.  1.
         13   -1    0    0    0    0 -0.00000000000E+00 -0.00000000000E+00 -0.27500000000E+03  0.27500000000E+03  0.00000000000E+00 0.  1.
    9000005    2    1    2  501    0 -0.37527915152E+02 -0.19337819127E+02 -0.50566652554E+02  0.46395671610E+03  0.45925652135E+03 0.  0.
         13    1    3    3    0    0  0.26798417785E+02 -0.22252875199E+03 -0.99582547534E+02  0.24526288841E+03  0.00000000000E+00 0.  1.
          3    1    3    3  501    0 -0.64326332938E+02  0.20319093286E+03  0.49015894980E+02  0.21869382769E+03  0.00000000000E+00 0.  1.
         21    1    1    2  502  501  0.37527915152E+02  0.19337819127E+02  0.73809754843E+01  0.42857606832E+02  0.00000000000E+00 0.  1.
<scales pt_clust_4="550.00000" pt_clust_5="550.00000" pt_clust_6="42.21724"></scales>
<mgrwt>
<rscale>  0 0.30000000E+03</rscale>
<asrwt>  1 0.42217244E+02</asrwt>
<pdfrwt beam="1">  1        1 0.84296117E+00 0.30000000E+03</pdfrwt>
<pdfrwt beam="2">0</pdfrwt>
<totfact> 0.45446319E-04</totfact>
</mgrwt>
<clustering>
<clus scale="   42.217">  1  6  2 -1</clus>
<clus scale="  459.257">  4  5 -1 -1</clus>
<clus scale="  300.000">  1  4  2 -1</clus>
</clustering>
</event>
<event>
 6    1  0.9687246E-012  0.3000000E+03  0.7818608E-02  0.1093470E+00
          1   -1    0    0  502    0  0.00000000000E+00  0.00000000000E+00  0.24504654169E+03  0.24504654169E+03  0.00000000000E+00 0.  1.
         13   -1    0    0    0    0 -0.00000000000E+00 -0.00000000000E+00 -0.27500000000E+03  0.27500000000E+03  0.00000000000E+00 0.  1.
    9000005    2    1    2  501    0  0.27817418870E+02  0.29955106953E+02 -0.53423251387E+02  0.47290899390E+03  0.46810015541E+03 0.  0.
         13    1    3    3    0    0  0.23334165525E+03  0.97988664883E+02 -0.37332017317E+02  0.25581983120E+03  0.00000000000E+00 0.  1.
          1    1    3    3  501    0 -0.20552423638E+03 -0.68033557930E+02 -0.16091234070E+02  0.21708916269E+03  0.00000000000E+00 0.  1.
         21    1    1    2  502  501 -0.27817418870E+02 -0.29955106953E+02  0.23469793081E+02  0.47137547798E+02  0.00000000000E+00 0.  1.
<scales pt_clust_4="550.00000" pt_clust_5="550.00000" pt_clust_6="40.87930"></scales>
<mgrwt>
<rscale>  0 0.30000000E+03</rscale>
<asrwt>  1 0.40879301E+02</asrwt>
<pdfrwt beam="1">  1        1 0.89107833E+00 0.30000000E+03</pdfrwt>
<pdfrwt beam="2">0</pdfrwt>
<totfact> 0.13636671E-04</totfact>
</mgrwt>
<clustering>
<clus scale="   40.879">  1  6  2 -1</clus>
<clus scale="  468.100">  4  5 -1 -1</clus>
<clus scale="  300.000">  1  4  2 -1</clus>
</clustering>
</event>
<event>
 6    1  0.9687246E-012  0.3000000E+03  0.7818608E-02  0.1093470E+00
          1   -1    0    0  502    0  0.00000000000E+00  0.00000000000E+00  0.24398622326E+03  0.24398622326E+03  0.00000000000E+00 0.  1.
         13   -1    0    0    0    0 -0.00000000000E+00 -0.00000000000E+00 -0.27500000000E+03  0.27500000000E+03  0.00000000000E+00 0.  1.
    9000005    2    1    2  501    0  0.20107900081E+02  0.44416312580E+02 -0.50677694725E+02  0.46641430928E+03  0.46108235999E+03 0.  0.
         13    1    3    3    0    0 -0.16452691500E+03  0.11182387051E+03  0.96270200552E+02  0.22100143730E+03  0.00000000000E+00 0.  1.
          3    1    3    3  501    0  0.18463481508E+03 -0.67407557925E+02 -0.14694789528E+03  0.24541287198E+03  0.00000000000E+00 0.  1.
         21    1    1    2  502  501 -0.20107900081E+02 -0.44416312580E+02  0.19663917987E+02  0.52571913979E+02  0.00000000000E+00 0. -1.
<scales pt_clust_4="550.00000" pt_clust_5="550.00000" pt_clust_6="48.75589"></scales>
<mgrwt>
<rscale>  0 0.30000000E+03</rscale>
<asrwt>  1 0.48755887E+02</asrwt>
<pdfrwt beam="1">  1        1 0.88722263E+00 0.30000000E+03</pdfrwt>
<pdfrwt beam="2">0</pdfrwt>
<totfact> 0.14891514E-04</totfact>
</mgrwt>
<clustering>
<clus scale="   48.756">  1  6  2 -1</clus>
<clus scale="  461.082">  4  5 -1 -1</clus>
<clus scale="  300.000">  1  4  2 -1</clus>
</clustering>
</event>
<event>
 6    1  0.9687246E-012  0.3000000E+03  0.7818608E-02  0.1093470E+00
          1   -1    0    0  502    0  0.00000000000E+00  0.00000000000E+00  0.23065570891E+03  0.23065570891E+03  0.00000000000E+00 0.  1.
         13   -1    0    0    0    0 -0.00000000000E+00 -0.00000000000E+00 -0.27500000000E+03  0.27500000000E+03  0.00000000000E+00 0.  1.
    9000005    2    1    2  501    0 -0.14413491925E+02 -0.26634175623E+02 -0.37733689886E+02  0.47465848147E+03  0.47218610168E+03 0.  0.
         13    1    3    3    0    0  0.11707406671E+03 -0.90907654368E+02  0.16680760575E+03  0.22314864117E+03  0.00000000000E+00 0.  1.
          3    1    3    3  501    0 -0.13148755863E+03  0.64273478745E+02 -0.20454129564E+03  0.25150984030E+03  0.00000000000E+00 0.  1.
         21    1    1    2  502  501  0.14413491925E+02  0.26634175623E+02 -0.66106012042E+01  0.30997227439E+02  0.00000000000E+00 0. -1.
<scales pt_clust_4="550.00000" pt_clust_5="550.00000" pt_clust_6="30.28414"></scales>
<mgrwt>
<rscale>  0 0.30000000E+03</rscale>
<asrwt>  1 0.30284137E+02</asrwt>
<pdfrwt beam="1">  1        1 0.83874803E+00 0.30000000E+03</pdfrwt>
<pdfrwt beam="2">0</pdfrwt>
<totfact> 0.52210204E-04</totfact>
</mgrwt>
<clustering>
<clus scale="   30.284">  1  6  2 -1</clus>
<clus scale="  472.186">  4  5 -1 -1</clus>
<clus scale="  300.000">  1  4  2 -1</clus>
</clustering>
</event>
<event>
 6    1  0.9687246E-012  0.3000000E+03  0.7818608E-02  0.1093470E+00
          1   -1    0    0  502    0  0.00000000000E+00  0.00000000000E+00  0.23897109091E+03  0.23897109091E+03  0.00000000000E+00 0.  1.
         13   -1    0    0    0    0 -0.00000000000E+00 -0.00000000000E+00 -0.27500000000E+03  0.27500000000E+03  0.00000000000E+00 0.  1.
    9000005    2    1    2  501    0 -0.32538000473E+02 -0.25493125955E+02 -0.24630487280E+02  0.47109283342E+03  0.46862903863E+03 0.  0.
         13    1    3    3    0    0 -0.16156046319E+02 -0.16024336512E+02  0.22228837893E+03  0.22345004050E+03  0.00000000000E+00 0.  1.
          3    1    3    3  501    0 -0.16381954154E+02 -0.94687894434E+01 -0.24691886621E+03  0.24764279292E+03  0.00000000000E+00 0.  1.
         21    1    1    2  502  501  0.32538000473E+02  0.25493125955E+02 -0.11398421810E+02  0.42878257492E+02  0.00000000000E+00 0. -1.
<scales pt_clust_4="550.00000" pt_clust_5="550.00000" pt_clust_6="41.33549"></scales>
<mgrwt>
<rscale>  0 0.30000000E+03</rscale>
<asrwt>  1 0.41335489E+02</asrwt>
<pdfrwt beam="1">  1        1 0.86898579E+00 0.30000000E+03</pdfrwt>
<pdfrwt beam="2">0</pdfrwt>
<totfact> 0.25156176E-04</totfact>
</mgrwt>
<clustering>
<clus scale="   41.335">  1  6  2 -1</clus>
<clus scale="  468.629">  4  5 -1 -1</clus>
<clus scale="  300.000">  1  4  2 -1</clus>
</clustering>
</event>
<event>
 6    1  0.9687246E-012  0.3000000E+03  0.7818608E-02  0.1093470E+00
          1   -1    0    0  502    0  0.00000000000E+00  0.00000000000E+00  0.24366714855E+03  0.24366714855E+03  0.00000000000E+00 0.  1.
         13   -1    0    0    0    0 -0.00000000000E+00 -0.00000000000E+00 -0.27500000000E+03  0.27500000000E+03  0.00000000000E+00 0.  1.
    9000005    2    1    2  501    0  0.34916669184E+02  0.23790936869E+02 -0.16105406517E+02  0.47375548477E+03  0.47159271916E+03 0.  0.
         13    1    3    3    0    0 -0.53849065075E+02 -0.46220074990E+02 -0.22516647657E+03  0.23608464438E+03  0.00000000000E+00 0.  1.
          1    1    3    3  501    0  0.88765734259E+02  0.70011011860E+02  0.20906107005E+03  0.23767084039E+03  0.00000000000E+00 0.  1.
         21    1    1    2  502  501 -0.34916669184E+02 -0.23790936869E+02 -0.15227444936E+02  0.44911663778E+02  0.00000000000E+00 0.  1.
<scales pt_clust_4="550.00000" pt_clust_5="550.00000" pt_clust_6="42.25144"></scales>
<mgrwt>
<rscale>  0 0.30000000E+03</rscale>
<asrwt>  1 0.42251441E+02</asrwt>
<pdfrwt beam="1">  1        1 0.88606236E+00 0.30000000E+03</pdfrwt>
<pdfrwt beam="2">0</pdfrwt>
<totfact> 0.15851028E-04</totfact>
</mgrwt>
<clustering>
<clus scale="   42.251">  1  6  2 -1</clus>
<clus scale="  471.593">  4  5 -1 -1</clus>
<clus scale="  300.000">  1  4  2 -1</clus>
</clustering>
</event>
<event>
 6    1  0.9687246E-012  0.3000000E+03  0.7818608E-02  0.1093470E+00
          1   -1    0    0  502    0  0.00000000000E+00  0.00000000000E+00  0.22764161593E+03  0.22764161593E+03  0.00000000000E+00 0.  1.
         13   -1    0    0    0    0 -0.00000000000E+00 -0.00000000000E+00 -0.27500000000E+03  0.27500000000E+03  0.00000000000E+00 0.  1.
    9000005    2    1    2  501    0  0.26843004912E+02  0.16841465103E+02 -0.59981195170E+02  0.46853124772E+03  0.46359422392E+03 0.  0.
         13    1    3    3    0    0 -0.23625721889E+02  0.23703278116E+03 -0.19212444637E+02  0.23898081954E+03  0.00000000000E+00 0.  1.
          3    1    3    3  501    0  0.50468726801E+02 -0.22019131606E+03 -0.40768750533E+02  0.22955042817E+03  0.00000000000E+00 0.  1.
         21    1    1    2  502  501 -0.26843004912E+02 -0.16841465103E+02  0.12622811098E+02  0.34110368212E+02  0.00000000000E+00 0. -1.
<scales pt_clust_4="550.00000" pt_clust_5="550.00000" pt_clust_6="31.68883"></scales>
<mgrwt>
<rscale>  0 0.30000000E+03</rscale>
<asrwt>  1 0.31688829E+02</asrwt>
<pdfrwt beam="1">  1        1 0.82778769E+00 0.30000000E+03</pdfrwt>
<pdfrwt beam="2">0</pdfrwt>
<totfact> 0.62884517E-04</totfact>
</mgrwt>
<clustering>
<clus scale="   31.689">  1  6  2 -1</clus>
<clus scale="  463.594">  4  5 -1 -1</clus>
<clus scale="  300.000">  1  4  2 -1</clus>
</clustering>
</event>
<event>
 6    1  0.9687246E-012  0.3000000E+03  0.7818608E-02  0.1093470E+00
          1   -1    0    0  502    0  0.00000000000E+00  0.00000000000E+00  0.24673334321E+03  0.24673334321E+03  0.00000000000E+00 0.  1.
         13   -1    0    0    0    0 -0.00000000000E+00 -0.00000000000E+00 -0.27500000000E+03  0.27500000000E+03  0.00000000000E+00 0.  1.
    9000005    2    1    2  501    0 -0.99457352643E+01 -0.41121903672E+02 -0.46595770340E+02  0.47562602258E+03  0.47144354798E+03 0.  0.
         13    1    3    3    0    0  0.11146325001E+03 -0.18205905169E+02 -0.22898825358E+03  0.25532553998E+03  0.00000000000E+00 0.  1.
          3    1    3    3  501    0 -0.12140898528E+03 -0.22915998503E+02  0.18239248324E+03  0.22030048261E+03  0.00000000000E+00 0.  1.
         21    1    1    2  502  501  0.99457352643E+01  0.41121903672E+02  0.18329113548E+02  0.46107320623E+02  0.00000000000E+00 0.  1.
<scales pt_clust_4="550.00000" pt_clust_5="550.00000" pt_clust_6="42.30755"></scales>
<mgrwt>
<rscale>  0 0.30000000E+03</rscale>
<asrwt>  1 0.42307548E+02</asrwt>
<pdfrwt beam="1">  1        1 0.89721216E+00 0.30000000E+03</pdfrwt>
<pdfrwt beam="2">0</pdfrwt>
<totfact> 0.11503630E-04</totfact>
</mgrwt>
<clustering>
<clus scale="   42.308">  1  6  2 -1</clus>
<clus scale="  471.444">  4  5 -1 -1</clus>
<clus scale="  300.000">  1  4  2 -1</clus>
</clustering>
</event>
<event>
 6    1  0.9687246E-012  0.3000000E+03  0.7818608E-02  0.1093470E+00
          1   -1    0    0  502    0  0.00000000000E+00  0.00000000000E+00  0.22982753277E+03  0.22982753277E+03  0.00000000000E+00 0.  1.
         13   -1    0    0    0    0 -0.00000000000E+00 -0.00000000000E+00 -0.27500000000E+03  0.27500000000E+03  0.00000000000E+00 0.  1.
    9000005    2    1    2  501    0  0.32188592270E+02 -0.83176075081E+01 -0.42544155504E+02  0.47147792873E+03  0.46837607117E+03 0.  0.
         13    1    3    3    0    0 -0.11436670094E+03  0.10819189148E+03 -0.18005845881E+03  0.23917833567E+03  0.00000000000E+00 0.  1.
          1    1    3    3  501    0  0.14655529321E+03 -0.11650949899E+03  0.13751430331E+03  0.23229959306E+03  0.00000000000E+00 0.  1.
         21    1    1    2  502  501 -0.32188592270E+02  0.83176075081E+01 -0.26283117259E+01  0.33349604039E+02  0.00000000000E+00 0.  1.
<scales pt_clust_4="550.00000" pt_clust_5="550.00000" pt_clust_6="33.24587"></scales>
<mgrwt>
<rscale>  0 0.30000000E+03</rscale>
<asrwt>  1 0.33245873E+02</asrwt>
<pdfrwt beam="1">  1        1 0.83573648E+00 0.30000000E+03</pdfrwt>
<pdfrwt beam="2">0</pdfrwt>
<totfact> 0.53954185E-04</totfact>
</mgrwt>
<clustering>
<clus scale="   33.246">  1  6  2 -1</clus>
<clus scale="  468.376">  4  5 -1 -1</clus>
<clus scale="  300.000">  1  4  2 -1</clus>
</clustering>
</event>
<event>
 6    1  0.9687246E-012  0.3000000E+03  0.7818608E-02  0.1093470E+00
          1   -1    0    0  502    0  0.00000000000E+00  0.00000000000E+00  0.24173225468E+03  0.24173225468E+03  0.00000000000E+00 0.  1.
         13   -1    0    0    0    0 -0.00000000000E+00 -0.00000000000E+00 -0.27500000000E+03  0.27500000000E+03  0.00000000000E+00 0.  1.
    9000005    2    1    2  501    0 -0.16566026281E+02 -0.32789483954E+02 -0.56021487260E+02  0.47351979980E+03  0.46875687758E+03 0.  0.
         13    1    3    3    0    0 -0.83211450847E+02 -0.12454319421E+03  0.16638318866E+03  0.22387165574E+03  0.00000000000E+00 0.  1.
          3    1    3    3  501    0  0.66645424566E+02  0.91753710258E+02 -0.22240467592E+03  0.24964814406E+03  0.00000000000E+00 0.  1.
         21    1    1    2  502  501  0.16566026281E+02  0.32789483954E+02  0.22753741938E+02  0.43212454882E+02  0.00000000000E+00 0.  1.
<scales pt_clust_4="550.00000" pt_clust_5="550.00000" pt_clust_6="36.73668"></scales>
<mgrwt>
<rscale>  0 0.30000000E+03</rscale>
<asrwt>  1 0.36736678E+02</asrwt>
<pdfrwt beam="1">  1        1 0.87902638E+00 0.30000000E+03</pdfrwt>
<pdfrwt beam="2">0</pdfrwt>
<totfact> 0.20099498E-04</totfact>
</mgrwt>
<clustering>
<clus scale="   36.737">  1  6  2 -1</clus>
<clus scale="  468.757">  4  5 -1 -1</clus>
<clus scale="  300.000">  1  4  2 -1</clus>
</clustering>
</event>
<event>
 6    1  0.9687246E-012  0.3000000E+03  0.7818608E-02  0.1093470E+00
          1   -1    0    0  502    0  0.00000000000E+00  0.00000000000E+00  0.24150840818E+03  0.24150840818E+03  0.00000000000E+00 0.  1.
         13   -1    0    0    0    0 -0.00000000000E+00 -0.00000000000E+00 -0.27500000000E+03  0.27500000000E+03  0.00000000000E+00 0.  1.
    9000005    2    1    2  501    0  0.42060421650E+02 -0.19309318403E+02 -0.61057656767E+02  0.46263989434E+03  0.45625180059E+03 0.  0.
         13    1    3    3    0    0  0.15011057963E+03 -0.15354422699E+03 -0.15644960853E+03  0.26567931001E+03  0.00000000000E+00 0.  1.
          1    1    3    3  501    0 -0.10805015798E+03  0.13423490859E+03  0.95391951760E+02  0.19696058434E+03  0.00000000000E+00 0.  1.
         21    1    1    2  502  501 -0.42060421650E+02  0.19309318403E+02  0.27566064952E+02  0.53868513842E+02  0.00000000000E+00 0. -1.
<scales pt_clust_4="550.00000" pt_clust_5="550.00000" pt_clust_6="46.28098"></scales>
<mgrwt>
<rscale>  0 0.30000000E+03</rscale>
<asrwt>  1 0.46280977E+02</asrwt>
<pdfrwt beam="1">  1        1 0.87821239E+00 0.30000000E+03</pdfrwt>
<pdfrwt beam="2">0</pdfrwt>
<totfact> 0.19703293E-04</totfact>
</mgrwt>
<clustering>
<clus scale="   46.281">  1  6  2 -1</clus>
<clus scale="  456.252">  4  5 -1 -1</clus>
<clus scale="  300.000">  1  4  2 -1</clus>
</clustering>
</event>
<event>
 6    1  0.9687246E-012  0.3000000E+03  0.7818608E-02  0.1093470E+00
          1   -1    0    0  502    0  0.00000000000E+00  0.00000000000E+00  0.24207280421E+03  0.24207280421E+03  0.00000000000E+00 0.  1.
         13   -1    0    0    0    0 -0.00000000000E+00 -0.00000000000E+00 -0.27500000000E+03  0.27500000000E+03  0.00000000000E+00 0.  1.
    9000005    2    1    2  501    0  0.31364238159E+02  0.19604541109E+01 -0.35119264042E+02  0.48557099507E+03  0.48327866675E+03 0.  0.
         13    1    3    3    0    0  0.67121838570E+02 -0.21461355346E+03  0.78789950939E+02  0.23826912286E+03  0.00000000000E+00 0.  1.
          3    1    3    3  501    0 -0.35757600411E+02  0.21657400757E+03 -0.11390921498E+03  0.24730187221E+03  0.00000000000E+00 0.  1.
         21    1    1    2  502  501 -0.31364238159E+02 -0.19604541109E+01  0.21920682477E+01  0.31501809136E+02  0.00000000000E+00 0. -1.
<scales pt_clust_4="550.00000" pt_clust_5="550.00000" pt_clust_6="31.42545"></scales>
<mgrwt>
<rscale>  0 0.30000000E+03</rscale>
<asrwt>  1 0.31425449E+02</asrwt>
<pdfrwt beam="1">  1        1 0.88026474E+00 0.30000000E+03</pdfrwt>
<pdfrwt beam="2">0</pdfrwt>
<totfact> 0.19992157E-04</totfact>
</mgrwt>
<clustering>
<clus scale="   31.425">  1  6  2 -1</clus>
<clus scale="  483.279">  4  5 -1 -1</clus>
<clus scale="  300.000">  1  4  2 -1</clus>
</clustering>
</event>
<event>
 6    1  0.9687246E-012  0.3000000E+03  0.7818608E-02  0.1093470E+00
          1   -1    0    0  502    0  0.00000000000E+00  0.00000000000E+00  0.23167832474E+03  0.23167832474E+03  0.00000000000E+00 0.  1.
         13   -1    0    0    0    0 -0.00000000000E+00 -0.00000000000E+00 -0.27500000000E+03  0.27500000000E+03  0.00000000000E+00 0.  1.
    9000005    2    1    2  501    0 -0.32293537921E+02  0.58646329900E+01 -0.22456721291E+02  0.46778600139E+03  0.46609245033E+03 0.  0.
         13    1    3    3    0    0 -0.40863413275E+02  0.50771062904E+02 -0.23835294259E+03  0.24710249820E+03  0.00000000000E+00 0.  1.
          3    1    3    3  501    0  0.85698753538E+01 -0.44906429914E+02  0.21589622130E+03  0.22068350320E+03  0.00000000000E+00 0.  1.
         21    1    1    2  502  501  0.32293537921E+02 -0.58646329900E+01 -0.20864953966E+02  0.38892323350E+02  0.00000000000E+00 0. -1.
<scales pt_clust_4="550.00000" pt_clust_5="550.00000" pt_clust_6="32.82175"></scales>
<mgrwt>
<rscale>  0 0.30000000E+03</rscale>
<asrwt>  1 0.32821755E+02</asrwt>
<pdfrwt beam="1">  1        1 0.84246664E+00 0.30000000E+03</pdfrwt>
<pdfrwt beam="2">0</pdfrwt>
<totfact> 0.48068621E-04</totfact>
</mgrwt>
<clustering>
<clus scale="   32.822">  1  6  2 -1</clus>
<clus scale="  466.092">  4  5 -1 -1</clus>
<clus scale="  300.000">  1  4  2 -1</clus>
</clustering>
</event>
<event>
 6    1  0.9687246E-012  0.3000000E+03  0.7818608E-02  0.1093470E+00
          1   -1    0    0  502    0  0.00000000000E+00  0.00000000000E+00  0.23927996173E+03  0.23927996173E+03  0.00000000000E+00 0.  1.
         13   -1    0    0    0    0 -0.00000000000E+00 -0.00000000000E+00 -0.27500000000E+03  0.27500000000E+03  0.00000000000E+00 0.  1.
    9000005    2    1    2  501    0  0.15938742894E+02  0.30900106379E+02 -0.24941654919E+02  0.47787895011E+03  0.47595939397E+03 0.  0.
         13    1    3    3    0    0 -0.18154920778E+03 -0.89650988288E+02  0.87564665062E+02  0.22060141685E+03  0.00000000000E+00 0.  1.
          3    1    3    3  501    0  0.19748795068E+03  0.12055109467E+03 -0.11250631998E+03  0.25727753327E+03  0.00000000000E+00 0.  1.
         21    1    1    2  502  501 -0.15938742894E+02 -0.30900106379E+02 -0.10778383348E+02  0.36401011619E+02  0.00000000000E+00 0. -1.
<scales pt_clust_4="550.00000" pt_clust_5="550.00000" pt_clust_6="34.76868"></scales>
<mgrwt>
<rscale>  0 0.30000000E+03</rscale>
<asrwt>  1 0.34768683E+02</asrwt>
<pdfrwt beam="1">  1        1 0.87010895E+00 0.30000000E+03</pdfrwt>
<pdfrwt beam="2">0</pdfrwt>
<totfact> 0.25291612E-04</totfact>
</mgrwt>
<clustering>
<clus scale="   34.769">  1  6  2 -1</clus>
<clus scale="  475.959">  4  5 -1 -1</clus>
<clus scale="  300.000">  1  4  2 -1</clus>
</clustering>
</event>
<event>
 6    1  0.9687246E-012  0.3000000E+03  0.7818608E-02  0.1093470E+00
          1   -1    0    0  502    0  0.00000000000E+00  0.00000000000E+00  0.23451675162E+03  0.23451675162E+03  0.00000000000E+00 0.  1.
         13   -1    0    0    0    0 -0.00000000000E+00 -0.00000000000E+00 -0.27500000000E+03  0.27500000000E+03  0.00000000000E+00 0.  1.
    9000005    2    1    2  501    0 -0.77753243528E+01 -0.33389171738E+02 -0.69855655378E+02  0.46437219767E+03  0.45780610844E+03 0.  0.
         13    1    3    3    0    0 -0.20872699457E+03 -0.63889873171E+02 -0.12789583688E+03  0.25299450438E+03  0.00000000000E+00 0.  1.
          3    1    3    3  501    0  0.20095167022E+03  0.30500701432E+02  0.58040181502E+02  0.21137769329E+03  0.00000000000E+00 0.  1.
         21    1    1    2  502  501  0.77753243528E+01  0.33389171738E+02  0.29372406999E+02  0.45144553947E+02  0.00000000000E+00 0.  1.
<scales pt_clust_4="550.00000" pt_clust_5="550.00000" pt_clust_6="34.28254"></scales>
<mgrwt>
<rscale>  0 0.30000000E+03</rscale>
<asrwt>  1 0.34282539E+02</asrwt>
<pdfrwt beam="1">  1        1 0.85278819E+00 0.30000000E+03</pdfrwt>
<pdfrwt beam="2">0</pdfrwt>
<totfact> 0.38435295E-04</totfact>
</mgrwt>
<clustering>
<clus scale="   34.283">  1  6  2 -1</clus>
<clus scale="  457.806">  4  5 -1 -1</clus>
<clus scale="  300.000">  1  4  2 -1</clus>
</clustering>
</event>
<event>
 6    1  0.9687246E-012  0.3000000E+03  0.7818608E-02  0.1093470E+00
          1   -1    0    0  502    0  0.00000000000E+00  0.00000000000E+00  0.23974719383E+03  0.23974719383E+03  0.00000000000E+00 0.  1.
         13   -1    0    0    0    0 -0.00000000000E+00 -0.00000000000E+00 -0.27500000000E+03  0.27500000000E+03  0.00000000000E+00 0.  1.
    9000005    2    1    2  501    0 -0.30816661002E+02  0.53912296025E+01 -0.54725188820E+02  0.47789742262E+03  0.47372182587E+03 0.  0.
         13    1    3    3    0    0 -0.48593071239E+02 -0.48722140251E+02 -0.25788306924E+03  0.26690599641E+03  0.00000000000E+00 0.  1.
          3    1    3    3  501    0  0.17776410237E+02  0.54113369854E+02  0.20315788042E+03  0.21099142621E+03  0.00000000000E+00 0.  1.
         21    1    1    2  502  501  0.30816661002E+02 -0.53912296025E+01  0.19472382650E+02  0.36849771207E+02  0.00000000000E+00 0.  1.
<scales pt_clust_4="550.00000" pt_clust_5="550.00000" pt_clust_6="31.28469"></scales>
<mgrwt>
<rscale>  0 0.30000000E+03</rscale>
<asrwt>  1 0.31284692E+02</asrwt>
<pdfrwt beam="1">  1        1 0.87180798E+00 0.30000000E+03</pdfrwt>
<pdfrwt beam="2">0</pdfrwt>
<totfact> 0.24791471E-04</totfact>
</mgrwt>
<clustering>
<clus scale="   31.285">  1  6  2 -1</clus>
<clus scale="  473.722">  4  5 -1 -1</clus>
<clus scale="  300.000">  1  4  2 -1</clus>
</clustering>
</event>
<event>
 6    1  0.9687246E-012  0.3000000E+03  0.7818608E-02  0.1093470E+00
          1   -1    0    0  502    0  0.00000000000E+00  0.00000000000E+00  0.22609472030E+03  0.22609472030E+03  0.00000000000E+00 0.  1.
         13   -1    0    0    0    0 -0.00000000000E+00 -0.00000000000E+00 -0.27500000000E+03  0.27500000000E+03  0.00000000000E+00 0.  1.
    9000005    2    1    2  501    0 -0.34115583166E+02  0.40756790783E+01 -0.39052607165E+02  0.46535175833E+03  0.46243558327E+03 0.  0.
         13    1    3    3    0    0  0.43333583932E+02 -0.15023536045E+03 -0.18289892353E+03  0.24062518416E+03  0.00000000000E+00 0.  1.
          3    1    3    3  501    0 -0.77449167097E+02  0.15431103953E+03  0.14384631636E+03  0.22472657416E+03  0.00000000000E+00 0.  1.
         21    1    1    2  502  501  0.34115583166E+02 -0.40756790783E+01 -0.98526725324E+01  0.35742961975E+02  0.00000000000E+00 0.  1.
<scales pt_clust_4="550.00000" pt_clust_5="550.00000" pt_clust_6="34.35819"></scales>
<mgrwt>
<rscale>  0 0.30000000E+03</rscale>
<asrwt>  1 0.34358192E+02</asrwt>
<pdfrwt beam="1">  1        1 0.82216262E+00 0.30000000E+03</pdfrwt>
<pdfrwt beam="2">0</pdfrwt>
<totfact> 0.69477274E-04</totfact>
</mgrwt>
<clustering>
<clus scale="   34.358">  1  6  2 -1</clus>
<clus scale="  462.436">  4  5 -1 -1</clus>
<clus scale="  300.000">  1  4  2 -1</clus>
</clustering>
</event>
<event>
 6    1  0.9687246E-012  0.3000000E+03  0.7818608E-02  0.1093470E+00
          1   -1    0    0  502    0  0.00000000000E+00  0.00000000000E+00  0.22379969696E+03  0.22379969696E+03  0.00000000000E+00 0.  1.
         13   -1    0    0    0    0 -0.00000000000E+00 -0.00000000000E+00 -0.27500000000E+03  0.27500000000E+03  0.00000000000E+00 0.  1.
    9000005    2    1    2  501    0  0.33034956961E+02 -0.70357505673E+01 -0.63159183701E+02  0.46296919328E+03  0.45739543206E+03 0.  0.
         13    1    3    3    0    0 -0.11893512127E+03  0.17021550020E+03 -0.93120148517E+02  0.22757469464E+03  0.00000000000E+00 0.  1.
          1    1    3    3  501    0  0.15197007823E+03 -0.17725125077E+03  0.29960964816E+02  0.23539449864E+03  0.00000000000E+00 0.  1.
         21    1    1    2  502  501 -0.33034956961E+02  0.70357505673E+01  0.11958880657E+02  0.35830503681E+02  0.00000000000E+00 0.  1.
<scales pt_clust_4="550.00000" pt_clust_5="550.00000" pt_clust_6="33.77588"></scales>
<mgrwt>
<rscale>  0 0.30000000E+03</rscale>
<asrwt>  1 0.33775881E+02</asrwt>
<pdfrwt beam="1">  1        1 0.81381708E+00 0.30000000E+03</pdfrwt>
<pdfrwt beam="2">0</pdfrwt>
<totfact> 0.81912818E-04</totfact>
</mgrwt>
<clustering>
<clus scale="   33.776">  1  6  2 -1</clus>
<clus scale="  457.395">  4  5 -1 -1</clus>
<clus scale="  300.000">  1  4  2 -1</clus>
</clustering>
</event>
<event>
 6    1  0.9687246E-012  0.3000000E+03  0.7818608E-02  0.1093470E+00
          1   -1    0    0  502    0  0.00000000000E+00  0.00000000000E+00  0.23907689846E+03  0.23907689846E+03  0.00000000000E+00 0.  1.
         13   -1    0    0    0    0 -0.00000000000E+00 -0.00000000000E+00 -0.27500000000E+03  0.27500000000E+03  0.00000000000E+00 0.  1.
    9000005    2    1    2  501    0 -0.29301516372E+02  0.24909218079E+02 -0.55928927297E+02  0.47072622291E+03  0.46580691710E+03 0.  0.
         13    1    3    3    0    0  0.92331365120E+02  0.20109588256E+03 -0.11396844590E+03  0.24890448294E+03  0.00000000000E+00 0.  1.
          1    1    3    3  501    0 -0.12163288149E+03 -0.17618666448E+03  0.58039518605E+02  0.22182173996E+03  0.00000000000E+00 0.  1.
         21    1    1    2  502  501  0.29301516372E+02 -0.24909218079E+02  0.20005825760E+02  0.43350675558E+02  0.00000000000E+00 0.  1.
<scales pt_clust_4="550.00000" pt_clust_5="550.00000" pt_clust_6="38.45839"></scales>
<mgrwt>
<rscale>  0 0.30000000E+03</rscale>
<asrwt>  1 0.38458393E+02</asrwt>
<pdfrwt beam="1">  1        1 0.86937054E+00 0.30000000E+03</pdfrwt>
<pdfrwt beam="2">0</pdfrwt>
<totfact> 0.25258656E-04</totfact>
</mgrwt>
<clustering>
<clus scale="   38.458">  1  6  2 -1</clus>
<clus scale="  465.807">  4  5 -1 -1</clus>
<clus scale="  300.000">  1  4  2 -1</clus>
</clustering>
</event>
<event>
 6    1  0.9687246E-012  0.3000000E+03  0.7818608E-02  0.1093470E+00
          1   -1    0    0  502    0  0.00000000000E+00  0.00000000000E+00  0.22266021927E+03  0.22266021927E+03  0.00000000000E+00 0.  1.
         13   -1    0    0    0    0 -0.00000000000E+00 -0.00000000000E+00 -0.27500000000E+03  0.27500000000E+03  0.00000000000E+00 0.  1.
    9000005    2    1    2  501    0 -0.14920591800E+02  0.26986339524E+02 -0.69098648585E+02  0.46256397684E+03  0.45633312707E+03 0.  0.
         13    1    3    3    0    0  0.39818850724E+02  0.23700452169E+03 -0.34570195592E+02  0.24279988179E+03  0.00000000000E+00 0.  1.
          3    1    3    3  501    0 -0.54739442524E+02 -0.21001818217E+03 -0.34528452992E+02  0.21976409505E+03  0.00000000000E+00 0.  1.
         21    1    1    2  502  501  0.14920591800E+02 -0.26986339524E+02  0.16758867854E+02  0.35096242424E+02  0.00000000000E+00 0. -1.
<scales pt_clust_4="550.00000" pt_clust_5="550.00000" pt_clust_6="30.83645"></scales>
<mgrwt>
<rscale>  0 0.30000000E+03</rscale>
<asrwt>  1 0.30836449E+02</asrwt>
<pdfrwt beam="1">  1        1 0.80967352E+00 0.30000000E+03</pdfrwt>
<pdfrwt beam="2">0</pdfrwt>
<totfact> 0.89855130E-04</totfact>
</mgrwt>
<clustering>
<clus scale="   30.836">  1  6  2 -1</clus>
<clus scale="  456.333">  4  5 -1 -1</clus>
<clus scale="  300.000">  1  4  2 -1</clus>
</clustering>
</event>
<event>
 6    1  0.9687246E-012  0.3000000E+03  0.7818608E-02  0.1093470E+00
          1   -1    0    0  502    0  0.00000000000E+00  0.00000000000E+00  0.23503406115E+03  0.23503406115E+03  0.00000000000E+00 0.  1.
         13   -1    0    0    0    0 -0.00000000000E+00 -0.00000000000E+00 -0.27500000000E+03  0.27500000000E+03  0.00000000000E+00 0.  1.
    9000005    2    1    2  501    0  0.13859854433E+02 -0.42162512938E+02 -0.45601761288E+02  0.46529553684E+03  0.46092368448E+03 0.  0.
         13    1    3    3    0    0  0.23336850719E+03 -0.57425592940E+02  0.12071242633E+01  0.24033313551E+03  0.00000000000E+00 0.  1.
          1    1    3    3  501    0 -0.21950865276E+03  0.15263080002E+02 -0.46808885551E+02  0.22496240134E+03  0.00000000000E+00 0.  1.
         21    1    1    2  502  501 -0.13859854433E+02  0.42162512938E+02  0.56358224337E+01  0.44738524301E+02  0.00000000000E+00 0.  1.
<scales pt_clust_4="550.00000" pt_clust_5="550.00000" pt_clust_6="44.38213"></scales>
<mgrwt>
<rscale>  0 0.30000000E+03</rscale>
<asrwt>  1 0.44382125E+02</asrwt>
<pdfrwt beam="1">  1        1 0.85466931E+00 0.30000000E+03</pdfrwt>
<pdfrwt beam="2">0</pdfrwt>
<totfact> 0.35147595E-04</totfact>
</mgrwt>
<clustering>
<clus scale="   44.382">  1  6  2 -1</clus>
<clus scale="  460.924">  4  5 -1 -1</clus>
<clus scale="  300.000">  1  4  2 -1</clus>
</clustering>
</event>
<event>
 6    1  0.9687246E-012  0.3000000E+03  0.7818608E-02  0.1093470E+00
          1   -1    0    0  502    0  0.00000000000E+00  0.00000000000E+00  0.22784117057E+03  0.22784117057E+03  0.00000000000E+00 0.  1.
         13   -1    0    0    0    0 -0.00000000000E+00 -0.00000000000E+00 -0.27500000000E+03  0.27500000000E+03  0.00000000000E+00 0.  1.
    9000005    2    1    2  501    0 -0.30841971363E+00  0.34732784226E+02 -0.67587425711E+02  0.46254490562E+03  0.45626008830E+03 0.  0.
         13    1    3    3    0    0 -0.18514166060E+03  0.14536399527E+03  0.43751040526E+01  0.23542996229E+03  0.00000000000E+00 0.  1.
          1    1    3    3  501    0  0.18483324089E+03 -0.11063121104E+03 -0.71962529763E+02  0.22711494333E+03  0.00000000000E+00 0.  1.
         21    1    1    2  502  501  0.30841971363E+00 -0.34732784226E+02  0.20428596281E+02  0.40296264949E+02  0.00000000000E+00 0. -1.
<scales pt_clust_4="550.00000" pt_clust_5="550.00000" pt_clust_6="34.73415"></scales>
<mgrwt>
<rscale>  0 0.30000000E+03</rscale>
<asrwt>  1 0.34734154E+02</asrwt>
<pdfrwt beam="1">  1        1 0.82851335E+00 0.30000000E+03</pdfrwt>
<pdfrwt beam="2">0</pdfrwt>
<totfact> 0.60918375E-04</totfact>
</mgrwt>
<clustering>
<clus scale="   34.734">  1  6  2 -1</clus>
<clus scale="  456.260">  4  5 -1 -1</clus>
<clus scale="  300.000">  1  4  2 -1</clus>
</clustering>
</event>
<event>
 6    1  0.9687246E-012  0.3000000E+03  0.7818608E-02  0.1093470E+00
          1   -1    0    0  502    0  0.00000000000E+00  0.00000000000E+00  0.24429987851E+03  0.24429987851E+03  0.00000000000E+00 0.  1.
         13   -1    0    0    0    0 -0.00000000000E+00 -0.00000000000E+00 -0.27500000000E+03  0.27500000000E+03  0.00000000000E+00 0.  1.
    9000005    2    1    2  501    0  0.24844267427E+02  0.36597853161E+02 -0.43820709892E+02  0.47316106275E+03  0.46904636893E+03 0.  0.
         13    1    3    3    0    0  0.20184951994E+03  0.15622284075E+03 -0.46826108769E+02  0.25950238753E+03  0.00000000000E+00 0.  1.
          3    1    3    3  501    0 -0.17700525251E+03 -0.11962498759E+03  0.30053988761E+01  0.21365867522E+03  0.00000000000E+00 0.  1.
         21    1    1    2  502  501 -0.24844267427E+02 -0.36597853161E+02  0.13120588403E+02  0.46138815763E+02  0.00000000000E+00 0.  1.
<scales pt_clust_4="550.00000" pt_clust_5="550.00000" pt_clust_6="44.23393"></scales>
<mgrwt>
<rscale>  0 0.30000000E+03</rscale>
<asrwt>  1 0.44233929E+02</asrwt>
<pdfrwt beam="1">  1        1 0.88836319E+00 0.30000000E+03</pdfrwt>
<pdfrwt beam="2">0</pdfrwt>
<totfact> 0.14613528E-04</totfact>
</mgrwt>
<clustering>
<clus scale="   44.234">  1  6  2 -1</clus>
<clus scale="  469.046">  4  5 -1 -1</clus>
<clus scale="  300.000">  1  4  2 -1</clus>
</clustering>
</event>
<event>
 6    1  0.9687246E-012  0.3000000E+03  0.7818608E-02  0.1093470E+00
          1   -1    0    0  502    0  0.00000000000E+00  0.00000000000E+00  0.23457039665E+03  0.23457039665E+03  0.00000000000E+00 0.  1.
         13   -1    0    0    0    0 -0.00000000000E+00 -0.00000000000E+00 -0.27500000000E+03  0.27500000000E+03  0.00000000000E+00 0.  1.
    9000005    2    1    2  501    0 -0.24205213839E+02 -0.32247628415E+02 -0.34253649466E+02  0.46877892301E+03  0.46578381707E+03 0.  0.
         13    1    3    3    0    0  0.21935033749E+03 -0.41519849248E+01 -0.42505931676E+02  0.22346937992E+03  0.00000000000E+00 0.  1.
          3    1    3    3  501    0 -0.24355555133E+03 -0.28095643490E+02  0.82522822099E+01  0.24530954308E+03  0.00000000000E+00 0.  1.
         21    1    1    2  502  501  0.24205213839E+02  0.32247628415E+02 -0.61759538847E+01  0.40791473641E+02  0.00000000000E+00 0.  1.
<scales pt_clust_4="550.00000" pt_clust_5="550.00000" pt_clust_6="40.32125"></scales>
<mgrwt>
<rscale>  0 0.30000000E+03</rscale>
<asrwt>  1 0.40321254E+02</asrwt>
<pdfrwt beam="1">  1        1 0.85298326E+00 0.30000000E+03</pdfrwt>
<pdfrwt beam="2">0</pdfrwt>
<totfact> 0.37137742E-04</totfact>
</mgrwt>
<clustering>
<clus scale="   40.321">  1  6  2 -1</clus>
<clus scale="  465.784">  4  5 -1 -1</clus>
<clus scale="  300.000">  1  4  2 -1</clus>
</clustering>
</event>
<event>
 6    1  0.9687246E-012  0.3000000E+03  0.7818608E-02  0.1093470E+00
          1   -1    0    0  502    0  0.00000000000E+00  0.00000000000E+00  0.22605375926E+03  0.22605375926E+03  0.00000000000E+00 0.  1.
         13   -1    0    0    0    0 -0.00000000000E+00 -0.00000000000E+00 -0.27500000000E+03  0.27500000000E+03  0.00000000000E+00 0.  1.
    9000005    2    1    2  501    0  0.29657007046E+02 -0.15579093519E+02 -0.46517330259E+02  0.46746587710E+03  0.46393775231E+03 0.  0.
         13    1    3    3    0    0  0.24725624764E+03 -0.10449227675E+02 -0.23297464392E+02  0.24857113710E+03  0.00000000000E+00 0.  1.
          1    1    3    3  501    0 -0.21759924059E+03 -0.51298658441E+01 -0.23219865867E+02  0.21889474000E+03  0.00000000000E+00 0.  1.
         21    1    1    2  502  501 -0.29657007046E+02  0.15579093519E+02 -0.24289104781E+01  0.33587882159E+02  0.00000000000E+00 0.  1.
<scales pt_clust_4="550.00000" pt_clust_5="550.00000" pt_clust_6="33.49994"></scales>
<mgrwt>
<rscale>  0 0.30000000E+03</rscale>
<asrwt>  1 0.33499944E+02</asrwt>
<pdfrwt beam="1">  1        1 0.82201367E+00 0.30000000E+03</pdfrwt>
<pdfrwt beam="2">0</pdfrwt>
<totfact> 0.70021170E-04</totfact>
</mgrwt>
<clustering>
<clus scale="   33.500">  1  6  2 -1</clus>
<clus scale="  463.938">  4  5 -1 -1</clus>
<clus scale="  300.000">  1  4  2 -1</clus>
</clustering>
</event>
<event>
 6    1  0.9687246E-012  0.3000000E+03  0.7818608E-02  0.1093470E+00
          1   -1    0    0  502    0  0.00000000000E+00  0.00000000000E+00  0.24901857419E+03  0.24901857419E+03  0.00000000000E+00 0.  1.
         13   -1    0    0    0    0 -0.00000000000E+00 -0.00000000000E+00 -0.27500000000E+03  0.27500000000E+03  0.00000000000E+00 0.  1.
    9000005    2    1    2  501    0 -0.27508168928E+01 -0.31940319947E+02 -0.33487932332E+02  0.49109292048E+03  0.48889985059E+03 0.  0.
         13    1    3    3    0    0  0.20188035180E+03  0.11752450030E+03  0.10804443755E+02  0.23384700259E+03  0.00000000000E+00 0.  1.
          3    1    3    3  501    0 -0.20463116870E+03 -0.14946482025E+03 -0.44292376087E+02  0.25724591789E+03  0.00000000000E+00 0.  1.
         21    1    1    2  502  501  0.27508168928E+01  0.31940319947E+02  0.75065065205E+01  0.32925653708E+02  0.00000000000E+00 0.  1.
<scales pt_clust_4="550.00000" pt_clust_5="550.00000" pt_clust_6="32.05856"></scales>
<mgrwt>
<rscale>  0 0.30000000E+03</rscale>
<asrwt>  1 0.32058556E+02</asrwt>
<pdfrwt beam="1">  1        1 0.90552209E+00 0.30000000E+03</pdfrwt>
<pdfrwt beam="2">0</pdfrwt>
<totfact> 0.91856646E-05</totfact>
</mgrwt>
<clustering>
<clus scale="   32.059">  1  6  2 -1</clus>
<clus scale="  488.900">  4  5 -1 -1</clus>
<clus scale="  300.000">  1  4  2 -1</clus>
</clustering>
</event>
<event>
 6    1  0.9687246E-012  0.3000000E+03  0.7818608E-02  0.1093470E+00
          1   -1    0    0  502    0  0.00000000000E+00  0.00000000000E+00  0.24761586147E+03  0.24761586147E+03  0.00000000000E+00 0.  1.
         13   -1    0    0    0    0 -0.00000000000E+00 -0.00000000000E+00 -0.27500000000E+03  0.27500000000E+03  0.00000000000E+00 0.  1.
    9000005    2    1    2  501    0  0.36031380639E+02 -0.10375840093E+00 -0.73245252412E+01  0.48137681150E+03  0.47997053537E+03 0.  0.
         13    1    3    3    0    0  0.45847944228E+02 -0.23354861182E+03 -0.51680738465E+02  0.24355263662E+03  0.00000000000E+00 0.  1.
          1    1    3    3  501    0 -0.98165635893E+01  0.23344485342E+03  0.44356213224E+02  0.23782417489E+03  0.00000000000E+00 0.  1.
         21    1    1    2  502  501 -0.36031380639E+02  0.10375840093E+00 -0.20059613291E+02  0.41239049964E+02  0.00000000000E+00 0. -1.
<scales pt_clust_4="550.00000" pt_clust_5="550.00000" pt_clust_6="36.03155"></scales>
<mgrwt>
<rscale>  0 0.30000000E+03</rscale>
<asrwt>  1 0.36031548E+02</asrwt>
<pdfrwt beam="1">  1        1 0.90042131E+00 0.30000000E+03</pdfrwt>
<pdfrwt beam="2">0</pdfrwt>
<totfact> 0.10849804E-04</totfact>
</mgrwt>
<clustering>
<clus scale="   36.032">  1  6  2 -1</clus>
<clus scale="  479.971">  4  5 -1 -1</clus>
<clus scale="  300.000">  1  4  2 -1</clus>
</clustering>
</event>
<event>
 6    1  0.9687246E-012  0.3000000E+03  0.7818608E-02  0.1093470E+00
          1   -1    0    0  502    0  0.00000000000E+00  0.00000000000E+00  0.23778565934E+03  0.23778565934E+03  0.00000000000E+00 0.  1.
         13   -1    0    0    0    0 -0.00000000000E+00 -0.00000000000E+00 -0.27500000000E+03  0.27500000000E+03  0.00000000000E+00 0.  1.
    9000005    2    1    2  501    0  0.16343753030E+02 -0.26676038820E+02 -0.71773672438E+02  0.46616938833E+03  0.45954728728E+03 0.  0.
         13    1    3    3    0    0  0.10436684529E+02  0.17192624437E+03 -0.17218587207E+03  0.24354780317E+03  0.00000000000E+00 0.  1.
          1    1    3    3  501    0  0.59070685009E+01 -0.19860228318E+03  0.10041219964E+03  0.22262158516E+03  0.00000000000E+00 0.  1.
         21    1    1    2  502  501 -0.16343753030E+02  0.26676038820E+02  0.34559331781E+02  0.46616271015E+02  0.00000000000E+00 0.  1.
<scales pt_clust_4="550.00000" pt_clust_5="550.00000" pt_clust_6="31.28465"></scales>
<mgrwt>
<rscale>  0 0.30000000E+03</rscale>
<asrwt>  1 0.31284650E+02</asrwt>
<pdfrwt beam="1">  1        1 0.86467512E+00 0.30000000E+03</pdfrwt>
<pdfrwt beam="2">0</pdfrwt>
<totfact> 0.29418663E-04</totfact>
</mgrwt>
<clustering>
<clus scale="   31.285">  1  6  2 -1</clus>
<clus scale="  459.547">  4  5 -1 -1</clus>
<clus scale="  300.000">  1  4  2 -1</clus>
</clustering>
</event>
<event>
 6    1  0.9687246E-012  0.3000000E+03  0.7818608E-02  0.1093470E+00
          1   -1    0    0  502    0  0.00000000000E+00  0.00000000000E+00  0.24324207366E+03  0.24324207366E+03  0.00000000000E+00 0.  1.
         13   -1    0    0    0    0 -0.00000000000E+00 -0.00000000000E+00 -0.27500000000E+03  0.27500000000E+03  0.00000000000E+00 0.  1.
    9000005    2    1    2  501    0  0.15093008274E+02  0.44049753835E+02 -0.58710727200E+02  0.46444027828E+03  0.45835536747E+03 0.  0.
         13    1    3    3    0    0 -0.25131222605E+02 -0.15412256050E+03 -0.17227753212E+03  0.23251858008E+03  0.00000000000E+00 0.  1.
          3    1    3    3  501    0  0.40224230879E+02  0.19817231434E+03  0.11356680492E+03  0.23192169821E+03  0.00000000000E+00 0.  1.
         21    1    1    2  502  501 -0.15093008274E+02 -0.44049753835E+02  0.26952800864E+02  0.53801795379E+02  0.00000000000E+00 0. -1.
<scales pt_clust_4="550.00000" pt_clust_5="550.00000" pt_clust_6="46.56372"></scales>
<mgrwt>
<rscale>  0 0.30000000E+03</rscale>
<asrwt>  1 0.46563717E+02</asrwt>
<pdfrwt beam="1">  1        1 0.88451663E+00 0.30000000E+03</pdfrwt>
<pdfrwt beam="2">0</pdfrwt>
<totfact> 0.16357417E-04</totfact>
</mgrwt>
<clustering>
<clus scale="   46.564">  1  6  2 -1</clus>
<clus scale="  458.355">  4  5 -1 -1</clus>
<clus scale="  300.000">  1  4  2 -1</clus>
</clustering>
</event>
<event>
 6    1  0.9687246E-012  0.3000000E+03  0.7818608E-02  0.1093470E+00
          1   -1    0    0  502    0  0.00000000000E+00  0.00000000000E+00  0.22391485005E+03  0.22391485005E+03  0.00000000000E+00 0.  1.
         13   -1    0    0    0    0 -0.00000000000E+00 -0.00000000000E+00 -0.27500000000E+03  0.27500000000E+03  0.00000000000E+00 0.  1.
    9000005    2    1    2  501    0  0.27697885942E+02 -0.18233275173E+02 -0.58954489712E+02  0.46483330494E+03  0.45988557741E+03 0.  0.
         13    1    3    3    0    0 -0.60657389501E+02  0.19033059506E+03 -0.11633832669E+03  0.23117019828E+03  0.00000000000E+00 0.  1.
          1    1    3    3  501    0  0.88355275443E+02 -0.20856387023E+03  0.57383836978E+02  0.23366310665E+03  0.00000000000E+00 0.  1.
         21    1    1    2  502  501 -0.27697885942E+02  0.18233275173E+02  0.78693397637E+01  0.34081545116E+02  0.00000000000E+00 0.  1.
<scales pt_clust_4="550.00000" pt_clust_5="550.00000" pt_clust_6="33.16060"></scales>
<mgrwt>
<rscale>  0 0.30000000E+03</rscale>
<asrwt>  1 0.33160597E+02</asrwt>
<pdfrwt beam="1">  1        1 0.81423582E+00 0.30000000E+03</pdfrwt>
<pdfrwt beam="2">0</pdfrwt>
<totfact> 0.81564265E-04</totfact>
</mgrwt>
<clustering>
<clus scale="   33.161">  1  6  2 -1</clus>
<clus scale="  459.886">  4  5 -1 -1</clus>
<clus scale="  300.000">  1  4  2 -1</clus>
</clustering>
</event>
<event>
 6    1  0.9687246E-012  0.3000000E+03  0.7818608E-02  0.1093470E+00
          1   -1    0    0  502    0  0.00000000000E+00  0.00000000000E+00  0.24805792641E+03  0.24805792641E+03  0.00000000000E+00 0.  1.
         13   -1    0    0    0    0 -0.00000000000E+00 -0.00000000000E+00 -0.27500000000E+03  0.27500000000E+03  0.00000000000E+00 0.  1.
    9000005    2    1    2  501    0  0.15929682610E+02 -0.26997859921E+02 -0.73036040498E+02  0.46731482806E+03  0.46050651036E+03 0.  0.
         13    1    3    3    0    0 -0.19822091061E+03  0.88181629064E+02 -0.15900645526E+02  0.21753243353E+03  0.00000000000E+00 0.  1.
          1    1    3    3  501    0  0.21415059322E+03 -0.11517948898E+03 -0.57135394972E+02  0.24978239453E+03  0.00000000000E+00 0.  1.
         21    1    1    2  502  501 -0.15929682610E+02  0.26997859921E+02  0.46093966911E+02  0.55743098352E+02  0.00000000000E+00 0. -1.
<scales pt_clust_4="550.00000" pt_clust_5="550.00000" pt_clust_6="31.34708"></scales>
<mgrwt>
<rscale>  0 0.30000000E+03</rscale>
<asrwt>  1 0.31347077E+02</asrwt>
<pdfrwt beam="1">  1        1 0.90202882E+00 0.30000000E+03</pdfrwt>
<pdfrwt beam="2">0</pdfrwt>
<totfact> 0.10587854E-04</totfact>
</mgrwt>
<clustering>
<clus scale="   31.347">  1  6  2 -1</clus>
<clus scale="  460.507">  4  5 -1 -1</clus>
<clus scale="  300.000">  1  4  2 -1</clus>
</clustering>
</event>
<event>
 6    1  0.9687246E-012  0.3000000E+03  0.7818608E-02  0.1093470E+00
          1   -1    0    0  502    0  0.00000000000E+00  0.00000000000E+00  0.22720420036E+03  0.22720420036E+03  0.00000000000E+00 0.  1.
         13   -1    0    0    0    0 -0.00000000000E+00 -0.00000000000E+00 -0.27500000000E+03  0.27500000000E+03  0.00000000000E+00 0.  1.
    9000005    2    1    2  501    0  0.25915752212E+02  0.20271680944E+02 -0.67443951338E+02  0.46388165966E+03  0.45777171203E+03 0.  0.
         13    1    3    3    0    0 -0.10608925177E+03  0.18995276054E+02 -0.23028228628E+03  0.25425514985E+03  0.00000000000E+00 0.  1.
          1    1    3    3  501    0  0.13200500398E+03  0.12764048899E+01  0.16283833494E+03  0.20962650980E+03  0.00000000000E+00 0.  1.
         21    1    1    2  502  501 -0.25915752212E+02 -0.20271680944E+02  0.19648151701E+02  0.38322540707E+02  0.00000000000E+00 0. -1.
<scales pt_clust_4="550.00000" pt_clust_5="550.00000" pt_clust_6="32.90239"></scales>
<mgrwt>
<rscale>  0 0.30000000E+03</rscale>
<asrwt>  1 0.32902390E+02</asrwt>
<pdfrwt beam="1">  1        1 0.82619709E+00 0.30000000E+03</pdfrwt>
<pdfrwt beam="2">0</pdfrwt>
<totfact> 0.64479610E-04</totfact>
</mgrwt>
<clustering>
<clus scale="   32.902">  1  6  2 -1</clus>
<clus scale="  457.772">  4  5 -1 -1</clus>
<clus scale="  300.000">  1  4  2 -1</clus>
</clustering>
</event>
<event>
 6    1  0.9687246E-012  0.3000000E+03  0.7818608E-02  0.1093470E+00
          1   -1    0    0  502    0  0.00000000000E+00  0.00000000000E+00  0.24573717852E+03  0.24573717852E+03  0.00000000000E+00 0.  1.
         13   -1    0    0    0    0 -0.00000000000E+00 -0.00000000000E+00 -0.27500000000E+03  0.27500000000E+03  0.00000000000E+00 0.  1.
    9000005    2    1    2  501    0  0.65844824223E+01  0.45422949577E+02 -0.49685047135E+02  0.47050106544E+03  0.46561362621E+03 0.  0.
         13    1    3    3    0    0 -0.99795518772E+02  0.36243493090E+02  0.18464310742E+03  0.21299251977E+03  0.00000000000E+00 0.  1.
          3    1    3    3  501    0  0.10638000119E+03  0.91794564872E+01 -0.23432815456E+03  0.25750854567E+03  0.00000000000E+00 0.  1.
         21    1    1    2  502  501 -0.65844824223E+01 -0.45422949577E+02  0.20422225656E+02  0.50236113084E+02  0.00000000000E+00 0.  1.
<scales pt_clust_4="550.00000" pt_clust_5="550.00000" pt_clust_6="45.89771"></scales>
<mgrwt>
<rscale>  0 0.30000000E+03</rscale>
<asrwt>  1 0.45897710E+02</asrwt>
<pdfrwt beam="1">  1        1 0.89358974E+00 0.30000000E+03</pdfrwt>
<pdfrwt beam="2">0</pdfrwt>
<totfact> 0.12452144E-04</totfact>
</mgrwt>
<clustering>
<clus scale="   45.898">  1  6  2 -1</clus>
<clus scale="  465.614">  4  5 -1 -1</clus>
<clus scale="  300.000">  1  4  2 -1</clus>
</clustering>
</event>
<event>
 6    1  0.9687246E-012  0.3000000E+03  0.7818608E-02  0.1093470E+00
          1   -1    0    0  502    0  0.00000000000E+00  0.00000000000E+00  0.23860654995E+03  0.23860654995E+03  0.00000000000E+00 0.  1.
         13   -1    0    0    0    0 -0.00000000000E+00 -0.00000000000E+00 -0.27500000000E+03  0.27500000000E+03  0.00000000000E+00 0.  1.
    9000005    2    1    2  501    0 -0.47044731904E+02 -0.31838076535E+01 -0.53194374597E+02  0.46355043647E+03  0.45806770486E+03 0.  0.
         13    1    3    3    0    0  0.12778326565E+03  0.14627883263E+03 -0.11455607305E+03  0.22549756922E+03  0.00000000000E+00 0.  1.
          3    1    3    3  501    0 -0.17482799755E+03 -0.14946264028E+03  0.61361698450E+02  0.23805286725E+03  0.00000000000E+00 0.  1.
         21    1    1    2  502  501  0.47044731904E+02  0.31838076535E+01  0.16800924548E+02  0.50056113480E+02  0.00000000000E+00 0.  1.
<scales pt_clust_4="550.00000" pt_clust_5="550.00000" pt_clust_6="47.15234"></scales>
<mgrwt>
<rscale>  0 0.30000000E+03</rscale>
<asrwt>  1 0.47152343E+02</asrwt>
<pdfrwt beam="1">  1        1 0.86766018E+00 0.30000000E+03</pdfrwt>
<pdfrwt beam="2">0</pdfrwt>
<totfact> 0.25358343E-04</totfact>
</mgrwt>
<clustering>
<clus scale="   47.152">  1  6  2 -1</clus>
<clus scale="  458.068">  4  5 -1 -1</clus>
<clus scale="  300.000">  1  4  2 -1</clus>
</clustering>
</event>
<event>
 6    1  0.9687246E-012  0.3000000E+03  0.7818608E-02  0.1093470E+00
          1   -1    0    0  502    0  0.00000000000E+00  0.00000000000E+00  0.23832163481E+03  0.23832163481E+03  0.00000000000E+00 0.  1.
         13   -1    0    0    0    0 -0.00000000000E+00 -0.00000000000E+00 -0.27500000000E+03  0.27500000000E+03  0.00000000000E+00 0.  1.
    9000005    2    1    2  501    0 -0.21704174414E+02  0.21928962548E+02 -0.52079096696E+02  0.47883782533E+03  0.47499629479E+03 0.  0.
         13    1    3    3    0    0  0.16510183929E+03  0.76682626074E+01 -0.18579014234E+03  0.24866724066E+03  0.00000000000E+00 0.  1.
          1    1    3    3  501    0 -0.18680601371E+03  0.14260699940E+02  0.13371104564E+03  0.23017058467E+03  0.00000000000E+00 0.  1.
         21    1    1    2  502  501  0.21704174414E+02 -0.21928962548E+02  0.15400731502E+02  0.34483809480E+02  0.00000000000E+00 0. -1.
<scales pt_clust_4="550.00000" pt_clust_5="550.00000" pt_clust_6="30.85370"></scales>
<mgrwt>
<rscale>  0 0.30000000E+03</rscale>
<asrwt>  1 0.30853696E+02</asrwt>
<pdfrwt beam="1">  1        1 0.86662413E+00 0.30000000E+03</pdfrwt>
<pdfrwt beam="2">0</pdfrwt>
<totfact> 0.28114157E-04</totfact>
</mgrwt>
<clustering>
<clus scale="   30.854">  1  6  2 -1</clus>
<clus scale="  474.996">  4  5 -1 -1</clus>
<clus scale="  300.000">  1  4  2 -1</clus>
</clustering>
</event>
<event>
 6    1  0.9687246E-012  0.3000000E+03  0.7818608E-02  0.1093470E+00
          1   -1    0    0  502    0  0.00000000000E+00  0.00000000000E+00  0.25154020043E+03  0.25154020043E+03  0.00000000000E+00 0.  1.
         13   -1    0    0    0    0 -0.00000000000E+00 -0.00000000000E+00 -0.27500000000E+03  0.27500000000E+03  0.00000000000E+00 0.  1.
    9000005    2    1    2  501    0 -0.42650867799E+01  0.38025141606E+02 -0.20522218361E+02  0.48816401324E+03  0.48622920523E+03 0.  0.
         13    1    3    3    0    0 -0.74431103020E+02 -0.19562482065E+03 -0.99483342379E+02  0.23174553925E+03  0.00000000000E+00 0.  1.
          1    1    3    3  501    0  0.70166016240E+02  0.23364996226E+03  0.78961124017E+02  0.25641847399E+03  0.00000000000E+00 0.  1.
         21    1    1    2  502  501  0.42650867799E+01 -0.38025141606E+02 -0.29375812131E+01  0.38376187184E+02  0.00000000000E+00 0.  1.
<scales pt_clust_4="550.00000" pt_clust_5="550.00000" pt_clust_6="38.26361"></scales>
<mgrwt>
<rscale>  0 0.30000000E+03</rscale>
<asrwt>  1 0.38263610E+02</asrwt>
<pdfrwt beam="1">  1        1 0.91469164E+00 0.30000000E+03</pdfrwt>
<pdfrwt beam="2">0</pdfrwt>
<totfact> 0.54147599E-05</totfact>
</mgrwt>
<clustering>
<clus scale="   38.264">  1  6  2 -1</clus>
<clus scale="  486.229">  4  5 -1 -1</clus>
<clus scale="  300.000">  1  4  2 -1</clus>
</clustering>
</event>
<event>
 6    1  0.9687246E-012  0.3000000E+03  0.7818608E-02  0.1093470E+00
          1   -1    0    0  502    0  0.00000000000E+00  0.00000000000E+00  0.26416623148E+03  0.26416623148E+03  0.00000000000E+00 0.  1.
         13   -1    0    0    0    0 -0.00000000000E+00 -0.00000000000E+00 -0.27500000000E+03  0.27500000000E+03  0.00000000000E+00 0.  1.
    9000005    2    1    2  501    0 -0.53043160545E+02 -0.33014218818E+02 -0.92604782038E+01  0.47666830538E+03  0.47246523827E+03 0.  0.
         13    1    3    3    0    0  0.18508110064E+02  0.20783897313E+03  0.57985691727E+02  0.21656853266E+03  0.00000000000E+00 0.  1.
          1    1    3    3  501    0 -0.71551270608E+02 -0.24085319195E+03 -0.67246169931E+02  0.26009977272E+03  0.00000000000E+00 0.  1.
         21    1    1    2  502  501  0.53043160545E+02  0.33014218818E+02 -0.15732903150E+01  0.62497926103E+02  0.00000000000E+00 0. -1.
<scales pt_clust_4="550.00000" pt_clust_5="550.00000" pt_clust_6="62.47815"></scales>
<mgrwt>
<rscale>  0 0.30000000E+03</rscale>
<asrwt>  1 0.62478152E+02</asrwt>
<pdfrwt beam="1">  1        1 0.96060448E+00 0.30000000E+03</pdfrwt>
<pdfrwt beam="2">0</pdfrwt>
<totfact> 0.66407317E-06</totfact>
</mgrwt>
<clustering>
<clus scale="   62.478">  1  6  2 -1</clus>
<clus scale="  472.465">  4  5 -1 -1</clus>
<clus scale="  300.000">  1  4  2 -1</clus>
</clustering>
</event>
<event>
 6    1  0.9687246E-012  0.3000000E+03  0.7818608E-02  0.1093470E+00
          1   -1    0    0  502    0  0.00000000000E+00  0.00000000000E+00  0.22572775880E+03  0.22572775880E+03  0.00000000000E+00 0.  1.
         13   -1    0    0    0    0 -0.00000000000E+00 -0.00000000000E+00 -0.27500000000E+03  0.27500000000E+03  0.00000000000E+00 0.  1.
    9000005    2    1    2  501    0  0.29042291717E+02 -0.82076774534E+01 -0.59359844428E+02  0.46890669005E+03  0.46415414699E+03 0.  0.
         13    1    3    3    0    0  0.20790302374E+03  0.87418109168E+02 -0.12228271615E+03  0.25655146805E+03  0.00000000000E+00 0.  1.
          3    1    3    3  501    0 -0.17886073202E+03 -0.95625786622E+02  0.62922871726E+02  0.21235522200E+03  0.00000000000E+00 0.  1.
         21    1    1    2  502  501 -0.29042291717E+02  0.82076774534E+01  0.10087603228E+02  0.31821068748E+02  0.00000000000E+00 0.  1.
<scales pt_clust_4="550.00000" pt_clust_5="550.00000" pt_clust_6="30.17981"></scales>
<mgrwt>
<rscale>  0 0.30000000E+03</rscale>
<asrwt>  1 0.30179806E+02</asrwt>
<pdfrwt beam="1">  1        1 0.82082821E+00 0.30000000E+03</pdfrwt>
<pdfrwt beam="2">0</pdfrwt>
<totfact> 0.73165500E-04</totfact>
</mgrwt>
<clustering>
<clus scale="   30.180">  1  6  2 -1</clus>
<clus scale="  464.154">  4  5 -1 -1</clus>
<clus scale="  300.000">  1  4  2 -1</clus>
</clustering>
</event>
<event>
 6    1  0.9687246E-012  0.3000000E+03  0.7818608E-02  0.1093470E+00
          1   -1    0    0  502    0  0.00000000000E+00  0.00000000000E+00  0.24250825712E+03  0.24250825712E+03  0.00000000000E+00 0.  1.
         13   -1    0    0    0    0 -0.00000000000E+00 -0.00000000000E+00 -0.27500000000E+03  0.27500000000E+03  0.00000000000E+00 0.  1.
    9000005    2    1    2  501    0  0.28975250518E+02 -0.10455889264E+02 -0.34962870567E+02  0.48660522758E+03  0.48436902711E+03 0.  0.
         13    1    3    3    0    0  0.36399692321E+02  0.23585850263E+03 -0.90797513708E+01  0.23882339239E+03  0.00000000000E+00 0.  1.
          1    1    3    3  501    0 -0.74244418033E+01 -0.24631439190E+03 -0.25883119196E+02  0.24778183519E+03  0.00000000000E+00 0.  1.
         21    1    1    2  502  501 -0.28975250518E+02  0.10455889264E+02  0.24711276872E+01  0.30903029542E+02  0.00000000000E+00 0.  1.
<scales pt_clust_4="550.00000" pt_clust_5="550.00000" pt_clust_6="30.80407"></scales>
<mgrwt>
<rscale>  0 0.30000000E+03</rscale>
<asrwt>  1 0.30804071E+02</asrwt>
<pdfrwt beam="1">  1        1 0.88184821E+00 0.30000000E+03</pdfrwt>
<pdfrwt beam="2">0</pdfrwt>
<totfact> 0.19159822E-04</totfact>
</mgrwt>
<clustering>
<clus scale="   30.804">  1  6  2 -1</clus>
<clus scale="  484.369">  4  5 -1 -1</clus>
<clus scale="  300.000">  1  4  2 -1</clus>
</clustering>
</event>
<event>
 6    1  0.9687246E-012  0.3000000E+03  0.7818608E-02  0.1093470E+00
          1   -1    0    0  502    0  0.00000000000E+00  0.00000000000E+00  0.23506302414E+03  0.23506302414E+03  0.00000000000E+00 0.  1.
         13   -1    0    0    0    0 -0.00000000000E+00 -0.00000000000E+00 -0.27500000000E+03  0.27500000000E+03  0.00000000000E+00 0.  1.
    9000005    2    1    2  501    0  0.29688058619E+02  0.15677774354E+02 -0.40317676282E+02  0.47648746210E+03  0.47359013195E+03 0.  0.
         13    1    3    3    0    0 -0.22960796957E+02  0.14117453530E+03 -0.21303467539E+03  0.25659544137E+03  0.00000000000E+00 0.  1.
          3    1    3    3  501    0  0.52648855575E+02 -0.12549676095E+03  0.17271699911E+03  0.21989202073E+03  0.00000000000E+00 0.  1.
         21    1    1    2  502  501 -0.29688058619E+02 -0.15677774354E+02  0.38070041807E+00  0.33575562036E+02  0.00000000000E+00 0.  1.
<scales pt_clust_4="550.00000" pt_clust_5="550.00000" pt_clust_6="33.57340"></scales>
<mgrwt>
<rscale>  0 0.30000000E+03</rscale>
<asrwt>  1 0.33573404E+02</asrwt>
<pdfrwt beam="1">  1        1 0.85477463E+00 0.30000000E+03</pdfrwt>
<pdfrwt beam="2">0</pdfrwt>
<totfact> 0.36908425E-04</totfact>
</mgrwt>
<clustering>
<clus scale="   33.573">  1  6  2 -1</clus>
<clus scale="  473.590">  4  5 -1 -1</clus>
<clus scale="  300.000">  1  4  2 -1</clus>
</clustering>
</event>
<event>
 6    1  0.9687246E-012  0.3000000E+03  0.7818608E-02  0.1093470E+00
          1   -1    0    0  502    0  0.00000000000E+00  0.00000000000E+00  0.22447598313E+03  0.22447598313E+03  0.00000000000E+00 0.  1.
         13   -1    0    0    0    0 -0.00000000000E+00 -0.00000000000E+00 -0.27500000000E+03  0.27500000000E+03  0.00000000000E+00 0.  1.
    9000005    2    1    2  501    0 -0.36404333091E+02 -0.14146538687E+02 -0.45017399910E+02  0.46003333040E+03  0.45615644110E+03 0.  0.
         13    1    3    3    0    0  0.41758369992E+02 -0.22369229407E+03 -0.61670586988E+02  0.23576527562E+03  0.00000000000E+00 0.  1.
          1    1    3    3  501    0 -0.78162703083E+02  0.20954575538E+03  0.16653187078E+02  0.22426805477E+03  0.00000000000E+00 0.  1.
         21    1    1    2  502  501  0.36404333091E+02  0.14146538687E+02 -0.55066169577E+01  0.39442652737E+02  0.00000000000E+00 0.  1.
<scales pt_clust_4="550.00000" pt_clust_5="550.00000" pt_clust_6="39.05639"></scales>
<mgrwt>
<rscale>  0 0.30000000E+03</rscale>
<asrwt>  1 0.39056389E+02</asrwt>
<pdfrwt beam="1">  1        1 0.81627630E+00 0.30000000E+03</pdfrwt>
<pdfrwt beam="2">0</pdfrwt>
<totfact> 0.76162846E-04</totfact>
</mgrwt>
<clustering>
<clus scale="   39.056">  1  6  2 -1</clus>
<clus scale="  456.156">  4  5 -1 -1</clus>
<clus scale="  300.000">  1  4  2 -1</clus>
</clustering>
</event>
<event>
 6    1  0.9687246E-012  0.3000000E+03  0.7818608E-02  0.1093470E+00
          1   -1    0    0  502    0  0.00000000000E+00  0.00000000000E+00  0.23159774965E+03  0.23159774965E+03  0.00000000000E+00 0.  1.
         13   -1    0    0    0    0 -0.00000000000E+00 -0.00000000000E+00 -0.27500000000E+03  0.27500000000E+03  0.00000000000E+00 0.  1.
    9000005    2    1    2  501    0  0.18065512689E+02  0.33497363694E+02 -0.63173879329E+02  0.46371006569E+03  0.45780743754E+03 0.  0.
         13    1    3    3    0    0 -0.17378100823E+03 -0.66082125341E+02 -0.14167179902E+03  0.23374683901E+03  0.00000000000E+00 0.  1.
          3    1    3    3  501    0  0.19184652092E+03  0.99579489036E+02  0.78497919688E+02  0.22996322667E+03  0.00000000000E+00 0.  1.
         21    1    1    2  502  501 -0.18065512689E+02 -0.33497363694E+02  0.19771628978E+02  0.42887683962E+02  0.00000000000E+00 0.  1.
<scales pt_clust_4="550.00000" pt_clust_5="550.00000" pt_clust_6="38.05833"></scales>
<mgrwt>
<rscale>  0 0.30000000E+03</rscale>
<asrwt>  1 0.38058325E+02</asrwt>
<pdfrwt beam="1">  1        1 0.84217364E+00 0.30000000E+03</pdfrwt>
<pdfrwt beam="2">0</pdfrwt>
<totfact> 0.47021310E-04</totfact>
</mgrwt>
<clustering>
<clus scale="   38.058">  1  6  2 -1</clus>
<clus scale="  457.807">  4  5 -1 -1</clus>
<clus scale="  300.000">  1  4  2 -1</clus>
</clustering>
</event>
<event>
 6    1  0.9687246E-012  0.3000000E+03  0.7818608E-02  0.1093470E+00
          1   -1    0    0  502    0  0.00000000000E+00  0.00000000000E+00  0.25690057509E+03  0.25690057509E+03  0.00000000000E+00 0.  1.
         13   -1    0    0    0    0 -0.00000000000E+00 -0.00000000000E+00 -0.27500000000E+03  0.27500000000E+03  0.00000000000E+00 0.  1.
    9000005    2    1    2  501    0 -0.26059132470E+02  0.18448740780E+02 -0.36100997019E+02  0.49524691197E+03  0.49289632522E+03 0.  0.
         13    1    3    3    0    0 -0.23245666682E+03 -0.23574559358E+02 -0.12688995534E+03  0.26588140695E+03  0.00000000000E+00 0.  1.
          1    1    3    3  501    0  0.20639753435E+03  0.42023300138E+02  0.90788958322E+02  0.22936550502E+03  0.00000000000E+00 0.  1.
         21    1    1    2  502  501  0.26059132470E+02 -0.18448740780E+02  0.18001572108E+02  0.36653663116E+02  0.00000000000E+00 0.  1.
<scales pt_clust_4="550.00000" pt_clust_5="550.00000" pt_clust_6="31.92858"></scales>
<mgrwt>
<rscale>  0 0.30000000E+03</rscale>
<asrwt>  1 0.31928583E+02</asrwt>
<pdfrwt beam="1">  1        1 0.93418391E+00 0.30000000E+03</pdfrwt>
<pdfrwt beam="2">0</pdfrwt>
<totfact> 0.23449229E-05</totfact>
</mgrwt>
<clustering>
<clus scale="   31.929">  1  6  2 -1</clus>
<clus scale="  492.896">  4  5 -1 -1</clus>
<clus scale="  300.000">  1  4  2 -1</clus>
</clustering>
</event>
<event>
 6    1  0.9687246E-012  0.3000000E+03  0.7818608E-02  0.1093470E+00
          1   -1    0    0  502    0  0.00000000000E+00  0.00000000000E+00  0.23110062638E+03  0.23110062638E+03  0.00000000000E+00 0.  1.
         13   -1    0    0    0    0 -0.00000000000E+00 -0.00000000000E+00 -0.27500000000E+03  0.27500000000E+03  0.00000000000E+00 0.  1.
    9000005    2    1    2  501    0  0.24474991396E+02 -0.18407252419E+02 -0.59235557599E+02  0.47185079887E+03  0.46711505324E+03 0.  0.
         13    1    3    3    0    0 -0.17164637100E+03 -0.15304155401E+03 -0.21169908742E+02  0.23093799810E+03  0.00000000000E+00 0.  1.
          3    1    3    3  501    0  0.19612136240E+03  0.13463430159E+03 -0.38065648857E+02  0.24091280077E+03  0.00000000000E+00 0.  1.
         21    1    1    2  502  501 -0.24474991396E+02  0.18407252419E+02  0.15336183983E+02  0.34249827512E+02  0.00000000000E+00 0.  1.
<scales pt_clust_4="550.00000" pt_clust_5="550.00000" pt_clust_6="30.62437"></scales>
<mgrwt>
<rscale>  0 0.30000000E+03</rscale>
<asrwt>  1 0.30624372E+02</asrwt>
<pdfrwt beam="1">  1        1 0.84036591E+00 0.30000000E+03</pdfrwt>
<pdfrwt beam="2">0</pdfrwt>
<totfact> 0.50647143E-04</totfact>
</mgrwt>
<clustering>
<clus scale="   30.624">  1  6  2 -1</clus>
<clus scale="  467.115">  4  5 -1 -1</clus>
<clus scale="  300.000">  1  4  2 -1</clus>
</clustering>
</event>
<event>
 6    1  0.9687246E-012  0.3000000E+03  0.7818608E-02  0.1093470E+00
          1   -1    0    0  502    0  0.00000000000E+00  0.00000000000E+00  0.22372433991E+03  0.22372433991E+03  0.00000000000E+00 0.  1.
         13   -1    0    0    0    0 -0.00000000000E+00 -0.00000000000E+00 -0.27500000000E+03  0.27500000000E+03  0.00000000000E+00 0.  1.
    9000005    2    1    2  501    0  0.27753543503E+02  0.14590066410E+02 -0.45140523494E+02  0.46677486236E+03  0.46352775111E+03 0.  0.
         13    1    3    3    0    0 -0.96548390452E+02  0.21012022388E+03 -0.42204877456E+02  0.23506031537E+03  0.00000000000E+00 0.  1.
          3    1    3    3  501    0  0.12430193395E+03 -0.19553015747E+03 -0.29356460386E+01  0.23171454698E+03  0.00000000000E+00 0.  1.
         21    1    1    2  502  501 -0.27753543503E+02 -0.14590066410E+02 -0.61351365961E+01  0.31949477552E+02  0.00000000000E+00 0. -1.
<scales pt_clust_4="550.00000" pt_clust_5="550.00000" pt_clust_6="31.35491"></scales>
<mgrwt>
<rscale>  0 0.30000000E+03</rscale>
<asrwt>  1 0.31354907E+02</asrwt>
<pdfrwt beam="1">  1        1 0.81354305E+00 0.30000000E+03</pdfrwt>
<pdfrwt beam="2">0</pdfrwt>
<totfact> 0.83496216E-04</totfact>
</mgrwt>
<clustering>
<clus scale="   31.355">  1  6  2 -1</clus>
<clus scale="  463.528">  4  5 -1 -1</clus>
<clus scale="  300.000">  1  4  2 -1</clus>
</clustering>
</event>
<event>
 6    1  0.9687246E-012  0.3000000E+03  0.7818608E-02  0.1093470E+00
          1   -1    0    0  502    0  0.00000000000E+00  0.00000000000E+00  0.22204486945E+03  0.22204486945E+03  0.00000000000E+00 0.  1.
         13   -1    0    0    0    0 -0.00000000000E+00 -0.00000000000E+00 -0.27500000000E+03  0.27500000000E+03  0.00000000000E+00 0.  1.
    9000005    2    1    2  501    0  0.12931002464E+02 -0.28898014016E+02 -0.56776830381E+02  0.46515582073E+03  0.46059094982E+03 0.  0.
         13    1    3    3    0    0 -0.19643563231E+03 -0.67598485599E+02  0.67737973484E+02  0.21850616913E+03  0.00000000000E+00 0.  1.
          1    1    3    3  501    0  0.20936663477E+03  0.38700471583E+02 -0.12451480386E+03  0.24664965161E+03  0.00000000000E+00 0.  1.
         21    1    1    2  502  501 -0.12931002464E+02  0.28898014016E+02  0.38216998340E+01  0.31889048722E+02  0.00000000000E+00 0. -1.
<scales pt_clust_4="550.00000" pt_clust_5="550.00000" pt_clust_6="31.65922"></scales>
<mgrwt>
<rscale>  0 0.30000000E+03</rscale>
<asrwt>  1 0.31659217E+02</asrwt>
<pdfrwt beam="1">  1        1 0.80743589E+00 0.30000000E+03</pdfrwt>
<pdfrwt beam="2">0</pdfrwt>
<totfact> 0.93039422E-04</totfact>
</mgrwt>
<clustering>
<clus scale="   31.659">  1  6  2 -1</clus>
<clus scale="  460.591">  4  5 -1 -1</clus>
<clus scale="  300.000">  1  4  2 -1</clus>
</clustering>
</event>
<event>
 6    1  0.9687246E-012  0.3000000E+03  0.7818608E-02  0.1093470E+00
          1   -1    0    0  502    0  0.00000000000E+00  0.00000000000E+00  0.22285759206E+03  0.22285759206E+03  0.00000000000E+00 0.  1.
         13   -1    0    0    0    0 -0.00000000000E+00 -0.00000000000E+00 -0.27500000000E+03  0.27500000000E+03  0.00000000000E+00 0.  1.
    9000005    2    1    2  501    0 -0.29880516379E+02  0.69508909887E+01 -0.43020774283E+02  0.46585189967E+03  0.46284559549E+03 0.  0.
         13    1    3    3    0    0  0.16822133450E+03 -0.46308464119E+02 -0.15391119665E+03  0.23266187415E+03  0.00000000000E+00 0.  1.
          1    1    3    3  501    0 -0.19810185088E+03  0.53259355108E+02  0.11089042236E+03  0.23319002552E+03  0.00000000000E+00 0.  1.
         21    1    1    2  502  501  0.29880516379E+02 -0.69508909887E+01 -0.91216336591E+01  0.32005692388E+02  0.00000000000E+00 0.  1.
<scales pt_clust_4="550.00000" pt_clust_5="550.00000" pt_clust_6="30.67835"></scales>
<mgrwt>
<rscale>  0 0.30000000E+03</rscale>
<asrwt>  1 0.30678349E+02</asrwt>
<pdfrwt beam="1">  1        1 0.81039124E+00 0.30000000E+03</pdfrwt>
<pdfrwt beam="2">0</pdfrwt>
<totfact> 0.88791894E-04</totfact>
</mgrwt>
<clustering>
<clus scale="   30.678">  1  6  2 -1</clus>
<clus scale="  462.846">  4  5 -1 -1</clus>
<clus scale="  300.000">  1  4  2 -1</clus>
</clustering>
</event>
<event>
 6    1  0.9687246E-012  0.3000000E+03  0.7818608E-02  0.1093470E+00
          1   -1    0    0  502    0  0.00000000000E+00  0.00000000000E+00  0.25189924716E+03  0.25189924716E+03  0.00000000000E+00 0.  1.
         13   -1    0    0    0    0 -0.00000000000E+00 -0.00000000000E+00 -0.27500000000E+03  0.27500000000E+03  0.00000000000E+00 0.  1.
    9000005    2    1    2  501    0  0.66341221176E+01 -0.29923100450E+02 -0.14570691446E+02  0.49508469916E+03  0.49392018665E+03 0.  0.
         13    1    3    3    0    0  0.87333045463E+02 -0.17629037072E+03 -0.17507605202E+03  0.26335713324E+03  0.00000000000E+00 0.  1.
          3    1    3    3  501    0 -0.80698923345E+02  0.14636727027E+03  0.16050536058E+03  0.23172756592E+03  0.00000000000E+00 0.  1.
         21    1    1    2  502  501 -0.66341221176E+01  0.29923100450E+02 -0.85300613936E+01  0.31814547996E+02  0.00000000000E+00 0. -1.
<scales pt_clust_4="550.00000" pt_clust_5="550.00000" pt_clust_6="30.64971"></scales>
<mgrwt>
<rscale>  0 0.30000000E+03</rscale>
<asrwt>  1 0.30649706E+02</asrwt>
<pdfrwt beam="1">  1        1 0.91599726E+00 0.30000000E+03</pdfrwt>
<pdfrwt beam="2">0</pdfrwt>
<totfact> 0.52657463E-05</totfact>
</mgrwt>
<clustering>
<clus scale="   30.650">  1  6  2 -1</clus>
<clus scale="  493.920">  4  5 -1 -1</clus>
<clus scale="  300.000">  1  4  2 -1</clus>
</clustering>
</event>
<event>
 6    1  0.9687246E-012  0.3000000E+03  0.7818608E-02  0.1093470E+00
          1   -1    0    0  502    0  0.00000000000E+00  0.00000000000E+00  0.24484402603E+03  0.24484402603E+03  0.00000000000E+00 0.  1.
         13   -1    0    0    0    0 -0.00000000000E+00 -0.00000000000E+00 -0.27500000000E+03  0.27500000000E+03  0.00000000000E+00 0.  1.
    9000005    2    1    2  501    0 -0.24085004007E+02 -0.24508187638E+02 -0.28286272627E+02  0.48543131817E+03  0.48338671140E+03 0.  0.
         13    1    3    3    0    0 -0.10339428765E+03  0.22376321886E+02  0.20715643161E+03  0.23260452631E+03  0.00000000000E+00 0.  1.
          3    1    3    3  501    0  0.79309283642E+02 -0.46884509523E+02 -0.23544270424E+03  0.25282679186E+03  0.00000000000E+00 0.  1.
         21    1    1    2  502  501  0.24085004007E+02  0.24508187638E+02 -0.18697013400E+01  0.34412707862E+02  0.00000000000E+00 0.  1.
<scales pt_clust_4="550.00000" pt_clust_5="550.00000" pt_clust_6="34.36188"></scales>
<mgrwt>
<rscale>  0 0.30000000E+03</rscale>
<asrwt>  1 0.34361878E+02</asrwt>
<pdfrwt beam="1">  1        1 0.89034191E+00 0.30000000E+03</pdfrwt>
<pdfrwt beam="2">0</pdfrwt>
<totfact> 0.14394810E-04</totfact>
</mgrwt>
<clustering>
<clus scale="   34.362">  1  6  2 -1</clus>
<clus scale="  483.387">  4  5 -1 -1</clus>
<clus scale="  300.000">  1  4  2 -1</clus>
</clustering>
</event>
<event>
 6    1  0.9687246E-012  0.3000000E+03  0.7818608E-02  0.1093470E+00
          1   -1    0    0  502    0  0.00000000000E+00  0.00000000000E+00  0.23746898472E+03  0.23746898472E+03  0.00000000000E+00 0.  1.
         13   -1    0    0    0    0 -0.00000000000E+00 -0.00000000000E+00 -0.27500000000E+03  0.27500000000E+03  0.00000000000E+00 0.  1.
    9000005    2    1    2  501    0 -0.19378423650E+02  0.38962257024E+02 -0.28351429288E+02  0.46799600894E+03  0.46510523548E+03 0.  0.
         13    1    3    3    0    0  0.93957935780E+02  0.20484814589E+03 -0.11043111847E+03  0.25096989560E+03  0.00000000000E+00 0.  1.
          1    1    3    3  501    0 -0.11333635943E+03 -0.16588588887E+03  0.82079689184E+02  0.21702611334E+03  0.00000000000E+00 0.  1.
         21    1    1    2  502  501  0.19378423650E+02 -0.38962257024E+02 -0.91795859903E+01  0.44472975778E+02  0.00000000000E+00 0.  1.
<scales pt_clust_4="550.00000" pt_clust_5="550.00000" pt_clust_6="43.51532"></scales>
<mgrwt>
<rscale>  0 0.30000000E+03</rscale>
<asrwt>  1 0.43515315E+02</asrwt>
<pdfrwt beam="1">  1        1 0.86352358E+00 0.30000000E+03</pdfrwt>
<pdfrwt beam="2">0</pdfrwt>
<totfact> 0.28478428E-04</totfact>
</mgrwt>
<clustering>
<clus scale="   43.515">  1  6  2 -1</clus>
<clus scale="  465.105">  4  5 -1 -1</clus>
<clus scale="  300.000">  1  4  2 -1</clus>
</clustering>
</event>
<event>
 6    1  0.9687246E-012  0.3000000E+03  0.7818608E-02  0.1093470E+00
          1   -1    0    0  502    0  0.00000000000E+00  0.00000000000E+00  0.25940145463E+03  0.25940145463E+03  0.00000000000E+00 0.  1.
         13   -1    0    0    0    0 -0.00000000000E+00 -0.00000000000E+00 -0.27500000000E+03  0.27500000000E+03  0.00000000000E+00 0.  1.
    9000005    2    1    2  501    0  0.34835249542E+02  0.40208729897E+02 -0.49740463607E+02  0.47118826652E+03  0.46552554410E+03 0.  0.
         13    1    3    3    0    0  0.11455510713E+02 -0.20974636310E+03  0.18956510274E+02  0.21091257629E+03  0.00000000000E+00 0.  1.
          1    1    3    3  501    0  0.23379738830E+02  0.24995509299E+03 -0.68696973881E+02  0.26027569022E+03  0.00000000000E+00 0.  1.
         21    1    1    2  502  501 -0.34835249542E+02 -0.40208729897E+02  0.34141918240E+02  0.63213188115E+02  0.00000000000E+00 0.  1.
<scales pt_clust_4="550.00000" pt_clust_5="550.00000" pt_clust_6="53.19997"></scales>
<mgrwt>
<rscale>  0 0.30000000E+03</rscale>
<asrwt>  1 0.53199968E+02</asrwt>
<pdfrwt beam="1">  1        1 0.94327802E+00 0.30000000E+03</pdfrwt>
<pdfrwt beam="2">0</pdfrwt>
<totfact> 0.15542262E-05</totfact>
</mgrwt>
<clustering>
<clus scale="   53.200">  1  6  2 -1</clus>
<clus scale="  465.526">  4  5 -1 -1</clus>
<clus scale="  300.000">  1  4  2 -1</clus>
</clustering>
</event>
<event>
 6    1  0.9687246E-012  0.3000000E+03  0.7818608E-02  0.1093470E+00
          1   -1    0    0  502    0  0.00000000000E+00  0.00000000000E+00  0.24116387574E+03  0.24116387574E+03  0.00000000000E+00 0.  1.
         13   -1    0    0    0    0 -0.00000000000E+00 -0.00000000000E+00 -0.27500000000E+03  0.27500000000E+03  0.00000000000E+00 0.  1.
    9000005    2    1    2  501    0  0.26244730314E+02 -0.27582730752E+02 -0.63591045147E+02  0.46784257379E+03  0.46193425931E+03 0.  0.
         13    1    3    3    0    0  0.23845174958E+03 -0.52771710263E+02 -0.69981809450E+02  0.25405027836E+03  0.00000000000E+00 0.  1.
          1    1    3    3  501    0 -0.21220701927E+03  0.25188979511E+02  0.63907643034E+01  0.21379229543E+03  0.00000000000E+00 0.  1.
         21    1    1    2  502  501 -0.26244730314E+02  0.27582730752E+02  0.29754920889E+02  0.48321301950E+02  0.00000000000E+00 0.  1.
<scales pt_clust_4="550.00000" pt_clust_5="550.00000" pt_clust_6="38.07352"></scales>
<mgrwt>
<rscale>  0 0.30000000E+03</rscale>
<asrwt>  1 0.38073520E+02</asrwt>
<pdfrwt beam="1">  1        1 0.87695955E+00 0.30000000E+03</pdfrwt>
<pdfrwt beam="2">0</pdfrwt>
<totfact> 0.21089176E-04</totfact>
</mgrwt>
<clustering>
<clus scale="   38.074">  1  6  2 -1</clus>
<clus scale="  461.934">  4  5 -1 -1</clus>
<clus scale="  300.000">  1  4  2 -1</clus>
</clustering>
</event>
<event>
 6    1  0.9687246E-012  0.3000000E+03  0.7818608E-02  0.1093470E+00
          1   -1    0    0  502    0  0.00000000000E+00  0.00000000000E+00  0.24402868781E+03  0.24402868781E+03  0.00000000000E+00 0.  1.
         13   -1    0    0    0    0 -0.00000000000E+00 -0.00000000000E+00 -0.27500000000E+03  0.27500000000E+03  0.00000000000E+00 0.  1.
    9000005    2    1    2  501    0  0.10102095440E+02 -0.31522291223E+02 -0.53599215971E+02  0.47893218914E+03  0.47477095390E+03 0.  0.
         13    1    3    3    0    0 -0.33683314471E+02  0.32498602751E+02  0.20431515080E+03  0.20960774247E+03  0.00000000000E+00 0.  1.
          3    1    3    3  501    0  0.43785409911E+02 -0.64020893974E+02 -0.25791436677E+03  0.26932444667E+03  0.00000000000E+00 0.  1.
         21    1    1    2  502  501 -0.10102095440E+02  0.31522291223E+02  0.22627903782E+02  0.40096498672E+02  0.00000000000E+00 0.  1.
<scales pt_clust_4="550.00000" pt_clust_5="550.00000" pt_clust_6="33.10147"></scales>
<mgrwt>
<rscale>  0 0.30000000E+03</rscale>
<asrwt>  1 0.33101468E+02</asrwt>
<pdfrwt beam="1">  1        1 0.88737705E+00 0.30000000E+03</pdfrwt>
<pdfrwt beam="2">0</pdfrwt>
<totfact> 0.15903262E-04</totfact>
</mgrwt>
<clustering>
<clus scale="   33.101">  1  6  2 -1</clus>
<clus scale="  474.771">  4  5 -1 -1</clus>
<clus scale="  300.000">  1  4  2 -1</clus>
</clustering>
</event>
<event>
 6    1  0.9687246E-012  0.3000000E+03  0.7818608E-02  0.1093470E+00
          1   -1    0    0  502    0  0.00000000000E+00  0.00000000000E+00  0.23429923697E+03  0.23429923697E+03  0.00000000000E+00 0.  1.
         13   -1    0    0    0    0 -0.00000000000E+00 -0.00000000000E+00 -0.27500000000E+03  0.27500000000E+03  0.00000000000E+00 0.  1.
    9000005    2    1    2  501    0 -0.33682477412E+02 -0.32379340360E+01 -0.60987444849E+02  0.46984618942E+03  0.46464069966E+03 0.  0.
         13    1    3    3    0    0  0.14528566680E+03  0.33465295227E+02  0.13555899174E+03  0.20150456869E+03  0.00000000000E+00 0.  1.
          1    1    3    3  501    0 -0.17896814422E+03 -0.36703229263E+02 -0.19654643659E+03  0.26834162073E+03  0.00000000000E+00 0.  1.
         21    1    1    2  502  501  0.33682477412E+02  0.32379340360E+01  0.20286681817E+02  0.39453047545E+02  0.00000000000E+00 0. -1.
<scales pt_clust_4="550.00000" pt_clust_5="550.00000" pt_clust_6="33.83775"></scales>
<mgrwt>
<rscale>  0 0.30000000E+03</rscale>
<asrwt>  1 0.33837753E+02</asrwt>
<pdfrwt beam="1">  1        1 0.85199723E+00 0.30000000E+03</pdfrwt>
<pdfrwt beam="2">0</pdfrwt>
<totfact> 0.39209748E-04</totfact>
</mgrwt>
<clustering>
<clus scale="   33.838">  1  6  2 -1</clus>
<clus scale="  464.641">  4  5 -1 -1</clus>
<clus scale="  300.000">  1  4  2 -1</clus>
</clustering>
</event>
<event>
 6    1  0.9687246E-012  0.3000000E+03  0.7818608E-02  0.1093470E+00
          1   -1    0    0  502    0  0.00000000000E+00  0.00000000000E+00  0.23492545064E+03  0.23492545064E+03  0.00000000000E+00 0.  1.
         13   -1    0    0    0    0 -0.00000000000E+00 -0.00000000000E+00 -0.27500000000E+03  0.27500000000E+03  0.00000000000E+00 0.  1.
    9000005    2    1    2  501    0  0.29524978821E+00  0.40938812211E+02 -0.53783966977E+02  0.46675113363E+03  0.46183095622E+03 0.  0.
         13    1    3    3    0    0  0.11367907474E+03 -0.17489032352E+03  0.26058448346E+02  0.21021084659E+03  0.00000000000E+00 0.  1.
          3    1    3    3  501    0 -0.11338382495E+03  0.21582913573E+03 -0.79842415323E+02  0.25654028704E+03  0.00000000000E+00 0.  1.
         21    1    1    2  502  501 -0.29524978821E+00 -0.40938812211E+02  0.13709417614E+02  0.43174317007E+02  0.00000000000E+00 0.  1.
<scales pt_clust_4="550.00000" pt_clust_5="550.00000" pt_clust_6="40.93988"></scales>
<mgrwt>
<rscale>  0 0.30000000E+03</rscale>
<asrwt>  1 0.40939877E+02</asrwt>
<pdfrwt beam="1">  1        1 0.85427437E+00 0.30000000E+03</pdfrwt>
<pdfrwt beam="2">0</pdfrwt>
<totfact> 0.35982700E-04</totfact>
</mgrwt>
<clustering>
<clus scale="   40.940">  1  6  2 -1</clus>
<clus scale="  461.831">  4  5 -1 -1</clus>
<clus scale="  300.000">  1  4  2 -1</clus>
</clustering>
</event>
<event>
 6    1  0.9687246E-012  0.3000000E+03  0.7818608E-02  0.1093470E+00
          1   -1    0    0  502    0  0.00000000000E+00  0.00000000000E+00  0.23100149368E+03  0.23100149368E+03  0.00000000000E+00 0.  1.
         13   -1    0    0    0    0 -0.00000000000E+00 -0.00000000000E+00 -0.27500000000E+03  0.27500000000E+03  0.00000000000E+00 0.  1.
    9000005    2    1    2  501    0  0.17119787589E+02  0.28741392181E+02 -0.43920015734E+02  0.47254763123E+03  0.46931134788E+03 0.  0.
         13    1    3    3    0    0 -0.14568466247E+03  0.13606665611E+03  0.10674503308E+03  0.22612531453E+03  0.00000000000E+00 0.  1.
          3    1    3    3  501    0  0.16280445006E+03 -0.10732526393E+03 -0.15066504882E+03  0.24642231671E+03  0.00000000000E+00 0.  1.
         21    1    1    2  502  501 -0.17119787589E+02 -0.28741392181E+02 -0.78490588411E-01  0.33453862443E+02  0.00000000000E+00 0. -1.
<scales pt_clust_4="550.00000" pt_clust_5="550.00000" pt_clust_6="33.45377"></scales>
<mgrwt>
<rscale>  0 0.30000000E+03</rscale>
<asrwt>  1 0.33453770E+02</asrwt>
<pdfrwt beam="1">  1        1 0.84000543E+00 0.30000000E+03</pdfrwt>
<pdfrwt beam="2">0</pdfrwt>
<totfact> 0.50123026E-04</totfact>
</mgrwt>
<clustering>
<clus scale="   33.454">  1  6  2 -1</clus>
<clus scale="  469.311">  4  5 -1 -1</clus>
<clus scale="  300.000">  1  4  2 -1</clus>
</clustering>
</event>
<event>
 6    1  0.9687246E-012  0.3000000E+03  0.7818608E-02  0.1093470E+00
          1   -1    0    0  502    0  0.00000000000E+00  0.00000000000E+00  0.23669188373E+03  0.23669188373E+03  0.00000000000E+00 0.  1.
         13   -1    0    0    0    0 -0.00000000000E+00 -0.00000000000E+00 -0.27500000000E+03  0.27500000000E+03  0.00000000000E+00 0.  1.
    9000005    2    1    2  501    0  0.14009257506E+02 -0.26948976303E+02 -0.52848356109E+02  0.47801807797E+03  0.47411583764E+03 0.  0.
         13    1    3    3    0    0 -0.12922109246E+03  0.16809101635E+03  0.45441303286E+02  0.21683540430E+03  0.00000000000E+00 0.  1.
          1    1    3    3  501    0  0.14323034996E+03 -0.19503999265E+03 -0.98289659396E+02  0.26118267367E+03  0.00000000000E+00 0.  1.
         21    1    1    2  502  501 -0.14009257506E+02  0.26948976303E+02  0.14540239839E+02  0.33673805758E+02  0.00000000000E+00 0.  1.
<scales pt_clust_4="550.00000" pt_clust_5="550.00000" pt_clust_6="30.37279"></scales>
<mgrwt>
<rscale>  0 0.30000000E+03</rscale>
<asrwt>  1 0.30372794E+02</asrwt>
<pdfrwt beam="1">  1        1 0.86069776E+00 0.30000000E+03</pdfrwt>
<pdfrwt beam="2">0</pdfrwt>
<totfact> 0.32661254E-04</totfact>
</mgrwt>
<clustering>
<clus scale="   30.373">  1  6  2 -1</clus>
<clus scale="  474.116">  4  5 -1 -1</clus>
<clus scale="  300.000">  1  4  2 -1</clus>
</clustering>
</event>
<event>
 6    1  0.9687246E-012  0.3000000E+03  0.7818608E-02  0.1093470E+00
          1   -1    0    0  502    0  0.00000000000E+00  0.00000000000E+00  0.23294106152E+03  0.23294106152E+03  0.00000000000E+00 0.  1.
         13   -1    0    0    0    0 -0.00000000000E+00 -0.00000000000E+00 -0.27500000000E+03  0.27500000000E+03  0.00000000000E+00 0.  1.
    9000005    2    1    2  501    0  0.84630884495E+01 -0.31762175345E+02 -0.66999760761E+02  0.46667964777E+03  0.46067392595E+03 0.  0.
         13    1    3    3    0    0 -0.53773542310E+02  0.20354952917E+03  0.11733955316E+02  0.21085940905E+03  0.00000000000E+00 0.  1.
          1    1    3    3  501    0  0.62236630759E+02 -0.23531170452E+03 -0.78733716076E+02  0.25582023872E+03  0.00000000000E+00 0.  1.
         21    1    1    2  502  501 -0.84630884495E+01  0.31762175345E+02  0.24940822285E+02  0.41261413754E+02  0.00000000000E+00 0.  1.
<scales pt_clust_4="550.00000" pt_clust_5="550.00000" pt_clust_6="32.87035"></scales>
<mgrwt>
<rscale>  0 0.30000000E+03</rscale>
<asrwt>  1 0.32870346E+02</asrwt>
<pdfrwt beam="1">  1        1 0.84705841E+00 0.30000000E+03</pdfrwt>
<pdfrwt beam="2">0</pdfrwt>
<totfact> 0.43833655E-04</totfact>
</mgrwt>
<clustering>
<clus scale="   32.870">  1  6  2 -1</clus>
<clus scale="  460.674">  4  5 -1 -1</clus>
<clus scale="  300.000">  1  4  2 -1</clus>
</clustering>
</event>
<event>
 6    1  0.9687246E-012  0.3000000E+03  0.7818608E-02  0.1093470E+00
          1   -1    0    0  502    0  0.00000000000E+00  0.00000000000E+00  0.23614189833E+03  0.23614189833E+03  0.00000000000E+00 0.  1.
         13   -1    0    0    0    0 -0.00000000000E+00 -0.00000000000E+00 -0.27500000000E+03  0.27500000000E+03  0.00000000000E+00 0.  1.
    9000005    2    1    2  501    0 -0.17978561962E+02 -0.29443768443E+02 -0.52282159914E+02  0.47412339579E+03  0.46996745207E+03 0.  0.
         13    1    3    3    0    0 -0.22404691540E+03  0.13831652421E+02 -0.11792675315E+03  0.25356469395E+03  0.00000000000E+00 0.  1.
          1    1    3    3  501    0  0.20606835344E+03 -0.43275420864E+02  0.65644593234E+02  0.22055870185E+03  0.00000000000E+00 0.  1.
         21    1    1    2  502  501  0.17978561962E+02  0.29443768443E+02  0.13424058246E+02  0.37018502538E+02  0.00000000000E+00 0. -1.
<scales pt_clust_4="550.00000" pt_clust_5="550.00000" pt_clust_6="34.49876"></scales>
<mgrwt>
<rscale>  0 0.30000000E+03</rscale>
<asrwt>  1 0.34498756E+02</asrwt>
<pdfrwt beam="1">  1        1 0.85869781E+00 0.30000000E+03</pdfrwt>
<pdfrwt beam="2">0</pdfrwt>
<totfact> 0.33481296E-04</totfact>
</mgrwt>
<clustering>
<clus scale="   34.499">  1  6  2 -1</clus>
<clus scale="  469.967">  4  5 -1 -1</clus>
<clus scale="  300.000">  1  4  2 -1</clus>
</clustering>
</event>
<event>
 6    1  0.9687246E-012  0.3000000E+03  0.7818608E-02  0.1093470E+00
          1   -1    0    0  502    0  0.00000000000E+00  0.00000000000E+00  0.24406576804E+03  0.24406576804E+03  0.00000000000E+00 0.  1.
         13   -1    0    0    0    0 -0.00000000000E+00 -0.00000000000E+00 -0.27500000000E+03  0.27500000000E+03  0.00000000000E+00 0.  1.
    9000005    2    1    2  501    0  0.44752973407E+02  0.86512713253E+01 -0.48128418870E+02  0.47034910572E+03  0.46565466112E+03 0.  0.
         13    1    3    3    0    0  0.16881008702E+03  0.40969462827E+02 -0.20438572226E+03  0.26823285748E+03  0.00000000000E+00 0.  1.
          1    1    3    3  501    0 -0.12405711361E+03 -0.32318191501E+02  0.15625730339E+03  0.20211624824E+03  0.00000000000E+00 0.  1.
         21    1    1    2  502  501 -0.44752973407E+02 -0.86512713253E+01  0.17194186911E+02  0.48716662323E+02  0.00000000000E+00 0. -1.
<scales pt_clust_4="550.00000" pt_clust_5="550.00000" pt_clust_6="45.58150"></scales>
<mgrwt>
<rscale>  0 0.30000000E+03</rscale>
<asrwt>  1 0.45581500E+02</asrwt>
<pdfrwt beam="1">  1        1 0.88751188E+00 0.30000000E+03</pdfrwt>
<pdfrwt beam="2">0</pdfrwt>
<totfact> 0.14932344E-04</totfact>
</mgrwt>
<clustering>
<clus scale="   45.581">  1  6  2 -1</clus>
<clus scale="  465.655">  4  5 -1 -1</clus>
<clus scale="  300.000">  1  4  2 -1</clus>
</clustering>
</event>
<event>
 6    1  0.9687246E-012  0.3000000E+03  0.7818608E-02  0.1093470E+00
          1   -1    0    0  502    0  0.00000000000E+00  0.00000000000E+00  0.21928997639E+03  0.21928997639E+03  0.00000000000E+00 0.  1.
         13   -1    0    0    0    0 -0.00000000000E+00 -0.00000000000E+00 -0.27500000000E+03  0.27500000000E+03  0.00000000000E+00 0.  1.
    9000005    2    1    2  501    0 -0.19180480692E+02  0.25733588333E+02 -0.42322029286E+02  0.45951431248E+03  0.45643415824E+03 0.  0.
         13    1    3    3    0    0  0.10219967340E+03  0.19304122374E+03 -0.10660063918E+03  0.24305016680E+03  0.00000000000E+00 0.  1.
          3    1    3    3  501    0 -0.12138015409E+03 -0.16730763541E+03  0.64278609898E+02  0.21646414568E+03  0.00000000000E+00 0.  1.
         21    1    1    2  502  501  0.19180480692E+02 -0.25733588333E+02 -0.13387994325E+02  0.34775663906E+02  0.00000000000E+00 0.  1.
<scales pt_clust_4="550.00000" pt_clust_5="550.00000" pt_clust_6="32.09532"></scales>
<mgrwt>
<rscale>  0 0.30000000E+03</rscale>
<asrwt>  1 0.32095318E+02</asrwt>
<pdfrwt beam="1">  1        1 0.79741810E+00 0.30000000E+03</pdfrwt>
<pdfrwt beam="2">0</pdfrwt>
<totfact> 0.11005387E-03</totfact>
</mgrwt>
<clustering>
<clus scale="   32.095">  1  6  2 -1</clus>
<clus scale="  456.434">  4  5 -1 -1</clus>
<clus scale="  300.000">  1  4  2 -1</clus>
</clustering>
</event>
<event>
 6    1  0.9687246E-012  0.3000000E+03  0.7818608E-02  0.1093470E+00
          1   -1    0    0  502    0  0.00000000000E+00  0.00000000000E+00  0.24775039461E+03  0.24775039461E+03  0.00000000000E+00 0.  1.
         13   -1    0    0    0    0 -0.00000000000E+00 -0.00000000000E+00 -0.27500000000E+03  0.27500000000E+03  0.00000000000E+00 0.  1.
    9000005    2    1    2  501    0 -0.16765395149E+02  0.30314218703E+02 -0.67494214362E+02  0.46964993433E+03  0.46348199697E+03 0.  0.
         13    1    3    3    0    0  0.22347351039E+03  0.15287024592E+02 -0.36623392117E+02  0.22696998880E+03  0.00000000000E+00 0.  1.
          1    1    3    3  501    0 -0.24023890554E+03  0.15027194111E+02 -0.30870822245E+02  0.24267994553E+03  0.00000000000E+00 0.  1.
         21    1    1    2  502  501  0.16765395149E+02 -0.30314218703E+02  0.40244608971E+02  0.53100460274E+02  0.00000000000E+00 0.  1.
<scales pt_clust_4="550.00000" pt_clust_5="550.00000" pt_clust_6="34.64145"></scales>
<mgrwt>
<rscale>  0 0.30000000E+03</rscale>
<asrwt>  1 0.34641454E+02</asrwt>
<pdfrwt beam="1">  1        1 0.90091053E+00 0.30000000E+03</pdfrwt>
<pdfrwt beam="2">0</pdfrwt>
<totfact> 0.10769513E-04</totfact>
</mgrwt>
<clustering>
<clus scale="   34.641">  1  6  2 -1</clus>
<clus scale="  463.482">  4  5 -1 -1</clus>
<clus scale="  300.000">  1  4  2 -1</clus>
</clustering>
</event>
