<event>
 5    1  0.2368666E-004  0.6480645E+03  0.7818608E-02  0.9810418E-01
         13   -1    0    0    0    0  0.00000000000E+00  0.00000000000E+00  0.10000000000E+04  0.10000000000E+04  0.00000000000E+00 0. -1.
          2   -1    0    0  501    0 -0.00000000000E+00 -0.00000000000E+00 -0.10499688751E+03  0.10499688751E+03  0.00000000000E+00 0. -1.
    9000006    2    1    2  501    0  0.00000000000E+00  0.00000000000E+00  0.89500311249E+03  0.11049968875E+04  0.64806446443E+03 0.  0.
         13    1    3    3    0    0  0.27898173977E+03 -0.14336350589E+03  0.30884465106E+03  0.44019191773E+03  0.00000000000E+00 0. -1.
          2    1    3    3  501    0 -0.27898173977E+03  0.14336350589E+03  0.58615846143E+03  0.66480496979E+03  0.00000000000E+00 0. -1.
<mgrwt>
<rscale>  0 0.64806446E+03</rscale>
<asrwt>0</asrwt>
<pdfrwt beam="1">0</pdfrwt>
<pdfrwt beam="2">  1        2 0.38180767E+00 0.64806446E+03</pdfrwt>
<totfact> 0.46556397E+00</totfact>
</mgrwt>
</event>
<event>
 5    1  0.2368666E-004  0.6551184E+03  0.7818608E-02  0.9797222E-01
         13   -1    0    0    0    0  0.00000000000E+00  0.00000000000E+00  0.10000000000E+04  0.10000000000E+04  0.00000000000E+00 0. -1.
          2   -1    0    0  501    0 -0.00000000000E+00 -0.00000000000E+00 -0.10729503268E+03  0.10729503268E+03  0.00000000000E+00 0. -1.
    9000006    2    1    2  501    0  0.00000000000E+00  0.00000000000E+00  0.89270496732E+03  0.11072950327E+04  0.65511840970E+03 0.  0.
         13    1    3    3    0    0  0.15694649497E+03 -0.28404663917E+03  0.37113598420E+03  0.49300772233E+03  0.00000000000E+00 0. -1.
          2    1    3    3  501    0 -0.15694649497E+03  0.28404663917E+03  0.52156898312E+03  0.61428731035E+03  0.00000000000E+00 0. -1.
<mgrwt>
<rscale>  0 0.65511841E+03</rscale>
<asrwt>0</asrwt>
<pdfrwt beam="1">0</pdfrwt>
<pdfrwt beam="2">  1        2 0.39016458E+00 0.65511841E+03</pdfrwt>
<totfact> 0.43327004E+00</totfact>
</mgrwt>
</event>
<event>
 5    1  0.2368666E-004  0.6357530E+03  0.7818608E-02  0.9833886E-01
         13   -1    0    0    0    0  0.00000000000E+00  0.00000000000E+00  0.10000000000E+04  0.10000000000E+04  0.00000000000E+00 0. -1.
          2   -1    0    0  501    0 -0.00000000000E+00 -0.00000000000E+00 -0.10104546520E+03  0.10104546520E+03  0.00000000000E+00 0. -1.
    9000006    2    1    2  501    0  0.00000000000E+00  0.00000000000E+00  0.89895453480E+03  0.11010454652E+04  0.63575298725E+03 0.  0.
         13    1    3    3    0    0 -0.23719567233E+03 -0.20033171325E+03  0.56758668970E+03  0.64695381028E+03  0.00000000000E+00 0. -1.
          2    1    3    3  501    0  0.23719567233E+03  0.20033171325E+03  0.33136784510E+03  0.45409165492E+03  0.00000000000E+00 0. -1.
<mgrwt>
<rscale>  0 0.63575299E+03</rscale>
<asrwt>0</asrwt>
<pdfrwt beam="1">0</pdfrwt>
<pdfrwt beam="2">  1        2 0.36743883E+00 0.63575299E+03</pdfrwt>
<totfact> 0.52625473E+00</totfact>
</mgrwt>
</event>
<event>
 5    1  0.2368666E-004  0.6699052E+03  0.7818608E-02  0.9770129E-01
         13   -1    0    0    0    0  0.00000000000E+00  0.00000000000E+00  0.10000000000E+04  0.10000000000E+04  0.00000000000E+00 0. -1.
          2   -1    0    0  501    0 -0.00000000000E+00 -0.00000000000E+00 -0.11219326067E+03  0.11219326067E+03  0.00000000000E+00 0. -1.
    9000006    2    1    2  501    0  0.00000000000E+00  0.00000000000E+00  0.88780673933E+03  0.11121932607E+04  0.66990524903E+03 0.  0.
         13    1    3    3    0    0  0.53607229421E+02 -0.15963467944E+03  0.92461310368E+03  0.93982251378E+03  0.00000000000E+00 0. -1.
          4    1    3    3  501    0 -0.53607229421E+02  0.15963467944E+03 -0.36806364347E+02  0.17237074689E+03  0.00000000000E+00 0. -1.
<mgrwt>
<rscale>  0 0.66990525E+03</rscale>
<asrwt>0</asrwt>
<pdfrwt beam="1">0</pdfrwt>
<pdfrwt beam="2">  1        2 0.40797635E+00 0.66990525E+03</pdfrwt>
<totfact> 0.37108689E+00</totfact>
</mgrwt>
</event>
<event>
 5    1  0.2368666E-004  0.6594704E+03  0.7818608E-02  0.9789169E-01
         13   -1    0    0    0    0  0.00000000000E+00  0.00000000000E+00  0.10000000000E+04  0.10000000000E+04  0.00000000000E+00 0. -1.
          2   -1    0    0  501    0 -0.00000000000E+00 -0.00000000000E+00 -0.10872530501E+03  0.10872530501E+03  0.00000000000E+00 0. -1.
    9000006    2    1    2  501    0  0.00000000000E+00  0.00000000000E+00  0.89127469499E+03  0.11087253050E+04  0.65947040877E+03 0.  0.
         13    1    3    3    0    0 -0.13914952612E+02 -0.32526339573E+03  0.35770690338E+03  0.48367771422E+03  0.00000000000E+00 0. -1.
          2    1    3    3  501    0  0.13914952612E+02  0.32526339573E+03  0.53356779161E+03  0.62504759079E+03  0.00000000000E+00 0. -1.
<mgrwt>
<rscale>  0 0.65947041E+03</rscale>
<asrwt>0</asrwt>
<pdfrwt beam="1">0</pdfrwt>
<pdfrwt beam="2">  1        2 0.39536558E+00 0.65947041E+03</pdfrwt>
<totfact> 0.41420911E+00</totfact>
</mgrwt>
</event>
<event>
 5    1  0.2368666E-004  0.6435763E+03  0.7818608E-02  0.9818908E-01
         13   -1    0    0    0    0  0.00000000000E+00  0.00000000000E+00  0.10000000000E+04  0.10000000000E+04  0.00000000000E+00 0. -1.
          2   -1    0    0  501    0 -0.00000000000E+00 -0.00000000000E+00 -0.10354760308E+03  0.10354760308E+03  0.00000000000E+00 0. -1.
    9000006    2    1    2  501    0  0.00000000000E+00  0.00000000000E+00  0.89645239692E+03  0.11035476031E+04  0.64357626768E+03 0.  0.
         13    1    3    3    0    0 -0.18202521723E+03 -0.17727114960E+03  0.10964400022E+03  0.27673100111E+03  0.00000000000E+00 0. -1.
          2    1    3    3  501    0  0.18202521723E+03  0.17727114960E+03  0.78680839670E+03  0.82681660197E+03  0.00000000000E+00 0. -1.
<mgrwt>
<rscale>  0 0.64357627E+03</rscale>
<asrwt>0</asrwt>
<pdfrwt beam="1">0</pdfrwt>
<pdfrwt beam="2">  1        2 0.37653753E+00 0.64357627E+03</pdfrwt>
<totfact> 0.48703785E+00</totfact>
</mgrwt>
</event>
<event>
 5    1  0.2368666E-004  0.6467953E+03  0.7818608E-02  0.9812811E-01
         13   -1    0    0    0    0  0.00000000000E+00  0.00000000000E+00  0.10000000000E+04  0.10000000000E+04  0.00000000000E+00 0. -1.
          2   -1    0    0  501    0 -0.00000000000E+00 -0.00000000000E+00 -0.10458605148E+03  0.10458605148E+03  0.00000000000E+00 0. -1.
    9000006    2    1    2  501    0  0.00000000000E+00  0.00000000000E+00  0.89541394852E+03  0.11045860515E+04  0.64679533541E+03 0.  0.
         13    1    3    3    0    0  0.88951069390E+02 -0.67979929226E+02  0.96585093552E+03  0.97231764006E+03  0.00000000000E+00 0. -1.
          4    1    3    3  501    0 -0.88951069390E+02  0.67979929226E+02 -0.70436986993E+02  0.13226841142E+03  0.00000000000E+00 0. -1.
<mgrwt>
<rscale>  0 0.64679534E+03</rscale>
<asrwt>0</asrwt>
<pdfrwt beam="1">0</pdfrwt>
<pdfrwt beam="2">  1        2 0.38031372E+00 0.64679534E+03</pdfrwt>
<totfact> 0.47156200E+00</totfact>
</mgrwt>
</event>
<event>
 5    1  0.2368666E-004  0.6525369E+03  0.7818608E-02  0.9802030E-01
         13   -1    0    0    0    0  0.00000000000E+00  0.00000000000E+00  0.10000000000E+04  0.10000000000E+04  0.00000000000E+00 0. -1.
          2   -1    0    0  501    0 -0.00000000000E+00 -0.00000000000E+00 -0.10645110617E+03  0.10645110617E+03  0.00000000000E+00 0. -1.
    9000006    2    1    2  501    0  0.00000000000E+00  0.00000000000E+00  0.89354889383E+03  0.11064511062E+04  0.65253691443E+03 0.  0.
         13    1    3    3    0    0 -0.17244370838E+03  0.21457364967E+03  0.74373665314E+03  0.79304658938E+03  0.00000000000E+00 0. -1.
          4    1    3    3  501    0  0.17244370838E+03 -0.21457364967E+03  0.14981224068E+03  0.31340451680E+03  0.00000000000E+00 0. -1.
<mgrwt>
<rscale>  0 0.65253691E+03</rscale>
<asrwt>0</asrwt>
<pdfrwt beam="1">0</pdfrwt>
<pdfrwt beam="2">  1        2 0.38709575E+00 0.65253691E+03</pdfrwt>
<totfact> 0.44488534E+00</totfact>
</mgrwt>
</event>
<event>
 5    1  0.2368666E-004  0.6504138E+03  0.7818608E-02  0.9806003E-01
         13   -1    0    0    0    0  0.00000000000E+00  0.00000000000E+00  0.10000000000E+04  0.10000000000E+04  0.00000000000E+00 0. -1.
          2   -1    0    0  501    0 -0.00000000000E+00 -0.00000000000E+00 -0.10575953753E+03  0.10575953753E+03  0.00000000000E+00 0. -1.
    9000006    2    1    2  501    0  0.00000000000E+00  0.00000000000E+00  0.89424046247E+03  0.11057595375E+04  0.65041382991E+03 0.  0.
         13    1    3    3    0    0  0.18773737392E+02  0.24398841483E+03  0.82981234920E+02  0.25839637214E+03  0.00000000000E+00 0. -1.
          4    1    3    3  501    0 -0.18773737392E+02 -0.24398841483E+03  0.81125922755E+03  0.84736316539E+03  0.00000000000E+00 0. -1.
<mgrwt>
<rscale>  0 0.65041383E+03</rscale>
<asrwt>0</asrwt>
<pdfrwt beam="1">0</pdfrwt>
<pdfrwt beam="2">  1        2 0.38458095E+00 0.65041383E+03</pdfrwt>
<totfact> 0.45461305E+00</totfact>
</mgrwt>
</event>
<event>
 5    1  0.2368666E-004  0.6473808E+03  0.7818608E-02  0.9811706E-01
         13   -1    0    0    0    0  0.00000000000E+00  0.00000000000E+00  0.10000000000E+04  0.10000000000E+04  0.00000000000E+00 0. -1.
          2   -1    0    0  501    0 -0.00000000000E+00 -0.00000000000E+00 -0.10477547897E+03  0.10477547897E+03  0.00000000000E+00 0. -1.
    9000006    2    1    2  501    0  0.00000000000E+00  0.00000000000E+00  0.89522452103E+03  0.11047754790E+04  0.64738081211E+03 0.  0.
         13    1    3    3    0    0 -0.45657019657E+02  0.27274249767E+02  0.99249304685E+03  0.99391694633E+03  0.00000000000E+00 0. -1.
          4    1    3    3  501    0  0.45657019657E+02 -0.27274249767E+02 -0.97268525824E+02  0.11085853264E+03  0.00000000000E+00 0. -1.
<mgrwt>
<rscale>  0 0.64738081E+03</rscale>
<asrwt>0</asrwt>
<pdfrwt beam="1">0</pdfrwt>
<pdfrwt beam="2">  1        2 0.38100255E+00 0.64738081E+03</pdfrwt>
<totfact> 0.46878776E+00</totfact>
</mgrwt>
</event>
<event>
 5    1  0.2368666E-004  0.6890521E+03  0.7818608E-02  0.9736140E-01
         13   -1    0    0    0    0  0.00000000000E+00  0.00000000000E+00  0.10000000000E+04  0.10000000000E+04  0.00000000000E+00 0. -1.
          2   -1    0    0  501    0 -0.00000000000E+00 -0.00000000000E+00 -0.11869818687E+03  0.11869818687E+03  0.00000000000E+00 0. -1.
    9000006    2    1    2  501    0  0.00000000000E+00  0.00000000000E+00  0.88130181313E+03  0.11186981869E+04  0.68905206441E+03 0.  0.
         13    1    3    3    0    0  0.12874806097E+03 -0.22223282668E+03  0.81347941452E+03  0.85306051972E+03  0.00000000000E+00 0. -1.
          2    1    3    3  501    0 -0.12874806097E+03  0.22223282668E+03  0.67822398615E+02  0.26563766715E+03  0.00000000000E+00 0. -1.
<mgrwt>
<rscale>  0 0.68905206E+03</rscale>
<asrwt>0</asrwt>
<pdfrwt beam="1">0</pdfrwt>
<pdfrwt beam="2">  1        2 0.43163068E+00 0.68905206E+03</pdfrwt>
<totfact> 0.30085909E+00</totfact>
</mgrwt>
</event>
<event>
 5    1  0.2368666E-004  0.6541065E+03  0.7818608E-02  0.9799104E-01
         13   -1    0    0    0    0  0.00000000000E+00  0.00000000000E+00  0.10000000000E+04  0.10000000000E+04  0.00000000000E+00 0. -1.
          2   -1    0    0  501    0 -0.00000000000E+00 -0.00000000000E+00 -0.10696383140E+03  0.10696383140E+03  0.00000000000E+00 0. -1.
    9000006    2    1    2  501    0  0.00000000000E+00  0.00000000000E+00  0.89303616860E+03  0.11069638314E+04  0.65410650937E+03 0.  0.
         13    1    3    3    0    0  0.38114970088E+02  0.17160223242E+03  0.91325681264E+03  0.93002047447E+03  0.00000000000E+00 0. -1.
          4    1    3    3  501    0 -0.38114970088E+02 -0.17160223242E+03 -0.20220644036E+02  0.17694335693E+03  0.00000000000E+00 0. -1.
<mgrwt>
<rscale>  0 0.65410651E+03</rscale>
<asrwt>0</asrwt>
<pdfrwt beam="1">0</pdfrwt>
<pdfrwt beam="2">  1        2 0.38896021E+00 0.65410651E+03</pdfrwt>
<totfact> 0.43779539E+00</totfact>
</mgrwt>
</event>
<event>
 5    1  0.2368666E-004  0.6568528E+03  0.7818608E-02  0.9794005E-01
         13   -1    0    0    0    0  0.00000000000E+00  0.00000000000E+00  0.10000000000E+04  0.10000000000E+04  0.00000000000E+00 0. -1.
          2   -1    0    0  501    0 -0.00000000000E+00 -0.00000000000E+00 -0.10786388674E+03  0.10786388674E+03  0.00000000000E+00 0. -1.
    9000006    2    1    2  501    0  0.00000000000E+00  0.00000000000E+00  0.89213611326E+03  0.11078638867E+04  0.65685275896E+03 0.  0.
         13    1    3    3    0    0  0.89368513938E+02 -0.17742530475E+03  0.49668691170E+01  0.19872377773E+03  0.00000000000E+00 0. -1.
          4    1    3    3  501    0 -0.89368513938E+02  0.17742530475E+03  0.88716924414E+03  0.90914010901E+03  0.00000000000E+00 0. -1.
<mgrwt>
<rscale>  0 0.65685276E+03</rscale>
<asrwt>0</asrwt>
<pdfrwt beam="1">0</pdfrwt>
<pdfrwt beam="2">  1        2 0.39223314E+00 0.65685276E+03</pdfrwt>
<totfact> 0.42559607E+00</totfact>
</mgrwt>
</event>
<event>
 5    1  0.2368666E-004  0.5082924E+03  0.7818608E-02  0.1011637E+00
         13   -1    0    0    0    0  0.00000000000E+00  0.00000000000E+00  0.10000000000E+04  0.10000000000E+04  0.00000000000E+00 0. -1.
          2   -1    0    0  501    0 -0.00000000000E+00 -0.00000000000E+00 -0.64590301555E+02  0.64590301555E+02  0.00000000000E+00 0. -1.
    9000006    2    1    2  501    0  0.00000000000E+00  0.00000000000E+00  0.93540969844E+03  0.10645903016E+04  0.50829244163E+03 0.  0.
         13    1    3    3    0    0  0.31814482389E+01  0.12800210639E+03  0.79008622720E+01  0.12828516858E+03  0.00000000000E+00 0. -1.
          4    1    3    3  501    0 -0.31814482389E+01 -0.12800210639E+03  0.92750883617E+03  0.93630513297E+03  0.00000000000E+00 0. -1.
<mgrwt>
<rscale>  0 0.50829244E+03</rscale>
<asrwt>0</asrwt>
<pdfrwt beam="1">0</pdfrwt>
<pdfrwt beam="2">  1        2 0.23487432E+00 0.50829244E+03</pdfrwt>
<totfact> 0.15806956E+01</totfact>
</mgrwt>
</event>
<event>
 5    1  0.2368666E-004  0.6870033E+03  0.7818608E-02  0.9739720E-01
         13   -1    0    0    0    0  0.00000000000E+00  0.00000000000E+00  0.10000000000E+04  0.10000000000E+04  0.00000000000E+00 0. -1.
          2   -1    0    0  501    0 -0.00000000000E+00 -0.00000000000E+00 -0.11799339716E+03  0.11799339716E+03  0.00000000000E+00 0. -1.
    9000006    2    1    2  501    0  0.00000000000E+00  0.00000000000E+00  0.88200660284E+03  0.11179933972E+04  0.68700333961E+03 0.  0.
         13    1    3    3    0    0 -0.20203388110E+03  0.23282560851E+03  0.19437582940E+03  0.36442751837E+03  0.00000000000E+00 0. -1.
          2    1    3    3  501    0  0.20203388110E+03 -0.23282560851E+03  0.68763077344E+03  0.75356587879E+03  0.00000000000E+00 0. -1.
<mgrwt>
<rscale>  0 0.68700334E+03</rscale>
<asrwt>0</asrwt>
<pdfrwt beam="1">0</pdfrwt>
<pdfrwt beam="2">  1        2 0.42906780E+00 0.68700334E+03</pdfrwt>
<totfact> 0.30785104E+00</totfact>
</mgrwt>
</event>
<event>
 5    1  0.2368666E-004  0.6465728E+03  0.7818608E-02  0.9813231E-01
         13   -1    0    0    0    0  0.00000000000E+00  0.00000000000E+00  0.10000000000E+04  0.10000000000E+04  0.00000000000E+00 0. -1.
          2   -1    0    0  501    0 -0.00000000000E+00 -0.00000000000E+00 -0.10451408266E+03  0.10451408266E+03  0.00000000000E+00 0. -1.
    9000006    2    1    2  501    0  0.00000000000E+00  0.00000000000E+00  0.89548591734E+03  0.11045140827E+04  0.64657275742E+03 0.  0.
         13    1    3    3    0    0 -0.18564094563E+03 -0.21147149224E+03  0.71962645811E+03  0.77268686539E+03  0.00000000000E+00 0. -1.
          4    1    3    3  501    0  0.18564094563E+03  0.21147149224E+03  0.17585945923E+03  0.33182721728E+03  0.00000000000E+00 0. -1.
<mgrwt>
<rscale>  0 0.64657276E+03</rscale>
<asrwt>0</asrwt>
<pdfrwt beam="1">0</pdfrwt>
<pdfrwt beam="2">  1        2 0.38005201E+00 0.64657276E+03</pdfrwt>
<totfact> 0.47261992E+00</totfact>
</mgrwt>
</event>
<event>
 5    1  0.2368666E-004  0.6463007E+03  0.7818608E-02  0.9813746E-01
         13   -1    0    0    0    0  0.00000000000E+00  0.00000000000E+00  0.10000000000E+04  0.10000000000E+04  0.00000000000E+00 0. -1.
          2   -1    0    0  501    0 -0.00000000000E+00 -0.00000000000E+00 -0.10442614090E+03  0.10442614090E+03  0.00000000000E+00 0. -1.
    9000006    2    1    2  501    0  0.00000000000E+00  0.00000000000E+00  0.89557385910E+03  0.11044261409E+04  0.64630067585E+03 0.  0.
         13    1    3    3    0    0  0.35593454273E+02  0.21292210328E+03  0.36870058034E+02  0.21900255074E+03  0.00000000000E+00 0. -1.
          2    1    3    3  501    0 -0.35593454273E+02 -0.21292210328E+03  0.85870380107E+03  0.88542359016E+03  0.00000000000E+00 0. -1.
<mgrwt>
<rscale>  0 0.64630068E+03</rscale>
<asrwt>0</asrwt>
<pdfrwt beam="1">0</pdfrwt>
<pdfrwt beam="2">  1        2 0.37973222E+00 0.64630068E+03</pdfrwt>
<totfact> 0.47391556E+00</totfact>
</mgrwt>
</event>
<event>
 5    1  0.2368666E-004  0.6627862E+03  0.7818608E-02  0.9783078E-01
         13   -1    0    0    0    0  0.00000000000E+00  0.00000000000E+00  0.10000000000E+04  0.10000000000E+04  0.00000000000E+00 0. -1.
          2   -1    0    0  501    0 -0.00000000000E+00 -0.00000000000E+00 -0.10982139843E+03  0.10982139843E+03  0.00000000000E+00 0. -1.
    9000006    2    1    2  501    0  0.00000000000E+00  0.00000000000E+00  0.89017860157E+03  0.11098213984E+04  0.66278623532E+03 0.  0.
         13    1    3    3    0    0  0.18487450007E+03 -0.26989465258E+03  0.35648905841E+03  0.48384517465E+03  0.00000000000E+00 0. -1.
          2    1    3    3  501    0 -0.18487450007E+03  0.26989465258E+03  0.53368954316E+03  0.62597622379E+03  0.00000000000E+00 0. -1.
<mgrwt>
<rscale>  0 0.66278624E+03</rscale>
<asrwt>0</asrwt>
<pdfrwt beam="1">0</pdfrwt>
<pdfrwt beam="2">  1        2 0.39935138E+00 0.66278624E+03</pdfrwt>
<totfact> 0.40011759E+00</totfact>
</mgrwt>
</event>
<event>
 5    1  0.2368666E-004  0.5669777E+03  0.7818608E-02  0.9976389E-01
         13   -1    0    0    0    0  0.00000000000E+00  0.00000000000E+00  0.10000000000E+04  0.10000000000E+04  0.00000000000E+00 0. -1.
          2   -1    0    0  501    0 -0.00000000000E+00 -0.00000000000E+00 -0.80365941132E+02  0.80365941132E+02  0.00000000000E+00 0. -1.
    9000006    2    1    2  501    0  0.00000000000E+00  0.00000000000E+00  0.91963405887E+03  0.10803659411E+04  0.56697774606E+03 0.  0.
         13    1    3    3    0    0 -0.26757831298E+03  0.75648604357E+01  0.63765640328E+03  0.69156421924E+03  0.00000000000E+00 0. -1.
          4    1    3    3  501    0  0.26757831298E+03 -0.75648604357E+01  0.28197765559E+03  0.38880172189E+03  0.00000000000E+00 0. -1.
<mgrwt>
<rscale>  0 0.56697775E+03</rscale>
<asrwt>0</asrwt>
<pdfrwt beam="1">0</pdfrwt>
<pdfrwt beam="2">  1        2 0.29224040E+00 0.56697775E+03</pdfrwt>
<totfact> 0.98419034E+00</totfact>
</mgrwt>
</event>
<event>
 5    1  0.2368666E-004  0.6544439E+03  0.7818608E-02  0.9798476E-01
         13   -1    0    0    0    0  0.00000000000E+00  0.00000000000E+00  0.10000000000E+04  0.10000000000E+04  0.00000000000E+00 0. -1.
          2   -1    0    0  501    0 -0.00000000000E+00 -0.00000000000E+00 -0.10707418837E+03  0.10707418837E+03  0.00000000000E+00 0. -1.
    9000006    2    1    2  501    0  0.00000000000E+00  0.00000000000E+00  0.89292581163E+03  0.11070741884E+04  0.65444385050E+03 0.  0.
         13    1    3    3    0    0  0.11024648097E+03  0.29631765800E+03  0.58915982412E+03  0.66863124319E+03  0.00000000000E+00 0. -1.
          2    1    3    3  501    0 -0.11024648097E+03 -0.29631765800E+03  0.30376598751E+03  0.43844294518E+03  0.00000000000E+00 0. -1.
<mgrwt>
<rscale>  0 0.65444385E+03</rscale>
<asrwt>0</asrwt>
<pdfrwt beam="1">0</pdfrwt>
<pdfrwt beam="2">  1        2 0.38936151E+00 0.65444385E+03</pdfrwt>
<totfact> 0.43628281E+00</totfact>
</mgrwt>
</event>
<event>
 5    1  0.2368666E-004  0.6469033E+03  0.7818608E-02  0.9812607E-01
         13   -1    0    0    0    0  0.00000000000E+00  0.00000000000E+00  0.10000000000E+04  0.10000000000E+04  0.00000000000E+00 0. -1.
          2   -1    0    0  501    0 -0.00000000000E+00 -0.00000000000E+00 -0.10462097789E+03  0.10462097789E+03  0.00000000000E+00 0. -1.
    9000006    2    1    2  501    0  0.00000000000E+00  0.00000000000E+00  0.89537902211E+03  0.11046209779E+04  0.64690332473E+03 0.  0.
         13    1    3    3    0    0 -0.22163092927E+03 -0.23558203593E+03  0.44539006364E+03  0.55044661253E+03  0.00000000000E+00 0. -1.
          4    1    3    3  501    0  0.22163092927E+03  0.23558203593E+03  0.44998895848E+03  0.55417436535E+03  0.00000000000E+00 0. -1.
<mgrwt>
<rscale>  0 0.64690332E+03</rscale>
<asrwt>0</asrwt>
<pdfrwt beam="1">0</pdfrwt>
<pdfrwt beam="2">  1        2 0.38044072E+00 0.64690332E+03</pdfrwt>
<totfact> 0.47104937E+00</totfact>
</mgrwt>
</event>
<event>
 5    1  0.2368666E-004  0.6547359E+03  0.7818608E-02  0.9797933E-01
         13   -1    0    0    0    0  0.00000000000E+00  0.00000000000E+00  0.10000000000E+04  0.10000000000E+04  0.00000000000E+00 0. -1.
          2   -1    0    0  501    0 -0.00000000000E+00 -0.00000000000E+00 -0.10716977907E+03  0.10716977907E+03  0.00000000000E+00 0. -1.
    9000006    2    1    2  501    0  0.00000000000E+00  0.00000000000E+00  0.89283022093E+03  0.11071697791E+04  0.65473591340E+03 0.  0.
         13    1    3    3    0    0 -0.17830239497E+03 -0.74848894150E+01 -0.17682159970E+02  0.17933328303E+03  0.00000000000E+00 0. -1.
          4    1    3    3  501    0  0.17830239497E+03  0.74848894150E+01  0.91051238090E+03  0.92783649604E+03  0.00000000000E+00 0. -1.
<mgrwt>
<rscale>  0 0.65473591E+03</rscale>
<asrwt>0</asrwt>
<pdfrwt beam="1">0</pdfrwt>
<pdfrwt beam="2">  1        2 0.38970911E+00 0.65473591E+03</pdfrwt>
<totfact> 0.43497644E+00</totfact>
</mgrwt>
</event>
<event>
 5    1  0.2368666E-004  0.6082752E+03  0.7818608E-02  0.9888385E-01
         13   -1    0    0    0    0  0.00000000000E+00  0.00000000000E+00  0.10000000000E+04  0.10000000000E+04  0.00000000000E+00 0. -1.
          2   -1    0    0  501    0 -0.00000000000E+00 -0.00000000000E+00 -0.92499667234E+02  0.92499667234E+02  0.00000000000E+00 0. -1.
    9000006    2    1    2  501    0  0.00000000000E+00  0.00000000000E+00  0.90750033277E+03  0.10924996672E+04  0.60827515890E+03 0.  0.
         13    1    3    3    0    0  0.69654840675E+02 -0.13615553717E+03 -0.18410966264E+02  0.15404249677E+03  0.00000000000E+00 0. -1.
          2    1    3    3  501    0 -0.69654840675E+02  0.13615553717E+03  0.92591129903E+03  0.93845717047E+03  0.00000000000E+00 0. -1.
<mgrwt>
<rscale>  0 0.60827516E+03</rscale>
<asrwt>0</asrwt>
<pdfrwt beam="1">0</pdfrwt>
<pdfrwt beam="2">  1        2 0.33636314E+00 0.60827516E+03</pdfrwt>
<totfact> 0.68328600E+00</totfact>
</mgrwt>
</event>
<event>
 5    1  0.2368666E-004  0.6442452E+03  0.7818608E-02  0.9817638E-01
         13   -1    0    0    0    0  0.00000000000E+00  0.00000000000E+00  0.10000000000E+04  0.10000000000E+04  0.00000000000E+00 0. -1.
          2   -1    0    0  501    0 -0.00000000000E+00 -0.00000000000E+00 -0.10376296893E+03  0.10376296893E+03  0.00000000000E+00 0. -1.
    9000006    2    1    2  501    0  0.00000000000E+00  0.00000000000E+00  0.89623703107E+03  0.11037629689E+04  0.64424519846E+03 0.  0.
         13    1    3    3    0    0 -0.13943547292E+03  0.12580790702E+03  0.89650034385E+03  0.91596001392E+03  0.00000000000E+00 0. -1.
          2    1    3    3  501    0  0.13943547292E+03 -0.12580790702E+03 -0.26331278558E+00  0.18780295501E+03  0.00000000000E+00 0. -1.
<mgrwt>
<rscale>  0 0.64424520E+03</rscale>
<asrwt>0</asrwt>
<pdfrwt beam="1">0</pdfrwt>
<pdfrwt beam="2">  1        2 0.37732068E+00 0.64424520E+03</pdfrwt>
<totfact> 0.48379075E+00</totfact>
</mgrwt>
</event>
<event>
 5    1  0.2368666E-004  0.6305785E+03  0.7818608E-02  0.9843921E-01
         13   -1    0    0    0    0  0.00000000000E+00  0.00000000000E+00  0.10000000000E+04  0.10000000000E+04  0.00000000000E+00 0. -1.
          2   -1    0    0  501    0 -0.00000000000E+00 -0.00000000000E+00 -0.99407316984E+02  0.99407316984E+02  0.00000000000E+00 0. -1.
    9000006    2    1    2  501    0  0.00000000000E+00  0.00000000000E+00  0.90059268302E+03  0.10994073170E+04  0.63057851845E+03 0.  0.
         13    1    3    3    0    0 -0.13819714824E+02  0.24066392263E+03  0.80460339723E+03  0.83993853050E+03  0.00000000000E+00 0. -1.
          4    1    3    3  501    0  0.13819714824E+02 -0.24066392263E+03  0.95989285783E+02  0.25946878649E+03  0.00000000000E+00 0. -1.
<mgrwt>
<rscale>  0 0.63057852E+03</rscale>
<asrwt>0</asrwt>
<pdfrwt beam="1">0</pdfrwt>
<pdfrwt beam="2">  1        2 0.36148191E+00 0.63057852E+03</pdfrwt>
<totfact> 0.55347795E+00</totfact>
</mgrwt>
</event>
<event>
 5    1  0.2368666E-004  0.6516996E+03  0.7818608E-02  0.9803595E-01
         13   -1    0    0    0    0  0.00000000000E+00  0.00000000000E+00  0.10000000000E+04  0.10000000000E+04  0.00000000000E+00 0. -1.
          2   -1    0    0  501    0 -0.00000000000E+00 -0.00000000000E+00 -0.10617808754E+03  0.10617808754E+03  0.00000000000E+00 0. -1.
    9000006    2    1    2  501    0  0.00000000000E+00  0.00000000000E+00  0.89382191246E+03  0.11061780875E+04  0.65169958581E+03 0.  0.
         13    1    3    3    0    0  0.29285125517E+03  0.79688793493E+02  0.64821929804E+03  0.71575164674E+03  0.00000000000E+00 0. -1.
          4    1    3    3  501    0 -0.29285125517E+03 -0.79688793493E+02  0.24560261442E+03  0.39042644079E+03  0.00000000000E+00 0. -1.
<mgrwt>
<rscale>  0 0.65169959E+03</rscale>
<asrwt>0</asrwt>
<pdfrwt beam="1">0</pdfrwt>
<pdfrwt beam="2">  1        2 0.38610295E+00 0.65169959E+03</pdfrwt>
<totfact> 0.44870290E+00</totfact>
</mgrwt>
</event>
<event>
 5    1  0.2368666E-004  0.6756694E+03  0.7818608E-02  0.9759770E-01
         13   -1    0    0    0    0  0.00000000000E+00  0.00000000000E+00  0.10000000000E+04  0.10000000000E+04  0.00000000000E+00 0. -1.
          2   -1    0    0  501    0 -0.00000000000E+00 -0.00000000000E+00 -0.11413227296E+03  0.11413227296E+03  0.00000000000E+00 0. -1.
    9000006    2    1    2  501    0  0.00000000000E+00  0.00000000000E+00  0.88586772704E+03  0.11141322730E+04  0.67566936577E+03 0.  0.
         13    1    3    3    0    0 -0.28997926147E+03 -0.16818198869E+03  0.51209310229E+03  0.61205596053E+03  0.00000000000E+00 0. -1.
          4    1    3    3  501    0  0.28997926147E+03  0.16818198869E+03  0.37377462475E+03  0.50207631243E+03  0.00000000000E+00 0. -1.
<mgrwt>
<rscale>  0 0.67566937E+03</rscale>
<asrwt>0</asrwt>
<pdfrwt beam="1">0</pdfrwt>
<pdfrwt beam="2">  1        2 0.41502732E+00 0.67566937E+03</pdfrwt>
<totfact> 0.34876941E+00</totfact>
</mgrwt>
</event>
<event>
 5    1  0.2368666E-004  0.6380597E+03  0.7818608E-02  0.9829446E-01
         13   -1    0    0    0    0  0.00000000000E+00  0.00000000000E+00  0.10000000000E+04  0.10000000000E+04  0.00000000000E+00 0. -1.
          2   -1    0    0  501    0 -0.00000000000E+00 -0.00000000000E+00 -0.10178003858E+03  0.10178003858E+03  0.00000000000E+00 0. -1.
    9000006    2    1    2  501    0  0.00000000000E+00  0.00000000000E+00  0.89821996142E+03  0.11017800386E+04  0.63805967929E+03 0.  0.
         13    1    3    3    0    0 -0.24824776309E+03  0.15830396037E+03  0.23697095879E+03  0.37794487833E+03  0.00000000000E+00 0. -1.
          4    1    3    3  501    0  0.24824776309E+03 -0.15830396037E+03  0.66124900262E+03  0.72383516025E+03  0.00000000000E+00 0. -1.
<mgrwt>
<rscale>  0 0.63805968E+03</rscale>
<asrwt>0</asrwt>
<pdfrwt beam="1">0</pdfrwt>
<pdfrwt beam="2">  1        2 0.37011001E+00 0.63805968E+03</pdfrwt>
<totfact> 0.51445175E+00</totfact>
</mgrwt>
</event>
<event>
 5    1  0.2368666E-004  0.6490807E+03  0.7818608E-02  0.9808506E-01
         13   -1    0    0    0    0  0.00000000000E+00  0.00000000000E+00  0.10000000000E+04  0.10000000000E+04  0.00000000000E+00 0. -1.
          2   -1    0    0  501    0 -0.00000000000E+00 -0.00000000000E+00 -0.10532645289E+03  0.10532645289E+03  0.00000000000E+00 0. -1.
    9000006    2    1    2  501    0  0.00000000000E+00  0.00000000000E+00  0.89467354711E+03  0.11053264529E+04  0.64908074347E+03 0.  0.
         13    1    3    3    0    0 -0.11643070585E+02  0.32429922193E+03  0.45512308831E+03  0.55896562681E+03  0.00000000000E+00 0. -1.
          4    1    3    3  501    0  0.11643070585E+02 -0.32429922193E+03  0.43955045880E+03  0.54636082608E+03  0.00000000000E+00 0. -1.
<mgrwt>
<rscale>  0 0.64908074E+03</rscale>
<asrwt>0</asrwt>
<pdfrwt beam="1">0</pdfrwt>
<pdfrwt beam="2">  1        2 0.38300609E+00 0.64908074E+03</pdfrwt>
<totfact> 0.46080268E+00</totfact>
</mgrwt>
</event>
<event>
 5    1  0.2368666E-004  0.6687950E+03  0.7818608E-02  0.9772137E-01
         13   -1    0    0    0    0  0.00000000000E+00  0.00000000000E+00  0.10000000000E+04  0.10000000000E+04  0.00000000000E+00 0. -1.
          2   -1    0    0  501    0 -0.00000000000E+00 -0.00000000000E+00 -0.11182168512E+03  0.11182168512E+03  0.00000000000E+00 0. -1.
    9000006    2    1    2  501    0  0.00000000000E+00  0.00000000000E+00  0.88817831488E+03  0.11118216851E+04  0.66879499136E+03 0.  0.
         13    1    3    3    0    0  0.53126540828E+02  0.32681628299E+03  0.36628529411E+03  0.49375725701E+03  0.00000000000E+00 0. -1.
          4    1    3    3  501    0 -0.53126540828E+02 -0.32681628299E+03  0.52189302077E+03  0.61806442811E+03  0.00000000000E+00 0. -1.
<mgrwt>
<rscale>  0 0.66879499E+03</rscale>
<asrwt>0</asrwt>
<pdfrwt beam="1">0</pdfrwt>
<pdfrwt beam="2">  1        2 0.40662517E+00 0.66879499E+03</pdfrwt>
<totfact> 0.37550641E+00</totfact>
</mgrwt>
</event>
<event>
 5    1  0.2368666E-004  0.6554896E+03  0.7818608E-02  0.9796533E-01
         13   -1    0    0    0    0  0.00000000000E+00  0.00000000000E+00  0.10000000000E+04  0.10000000000E+04  0.00000000000E+00 0. -1.
          2   -1    0    0  501    0 -0.00000000000E+00 -0.00000000000E+00 -0.10741664932E+03  0.10741664932E+03  0.00000000000E+00 0. -1.
    9000006    2    1    2  501    0  0.00000000000E+00  0.00000000000E+00  0.89258335068E+03  0.11074166493E+04  0.65548958596E+03 0.  0.
         13    1    3    3    0    0 -0.28018705641E+03 -0.14686806562E+03  0.59104935683E+03  0.67038373898E+03  0.00000000000E+00 0. -1.
          4    1    3    3  501    0  0.28018705641E+03  0.14686806562E+03  0.30153399384E+03  0.43703291034E+03  0.00000000000E+00 0. -1.
<mgrwt>
<rscale>  0 0.65548959E+03</rscale>
<asrwt>0</asrwt>
<pdfrwt beam="1">0</pdfrwt>
<pdfrwt beam="2">  1        2 0.39060682E+00 0.65548959E+03</pdfrwt>
<totfact> 0.43161898E+00</totfact>
</mgrwt>
</event>
<event>
 5    1  0.2368666E-004  0.6477129E+03  0.7818608E-02  0.9811080E-01
         13   -1    0    0    0    0  0.00000000000E+00  0.00000000000E+00  0.10000000000E+04  0.10000000000E+04  0.00000000000E+00 0. -1.
          2   -1    0    0  501    0 -0.00000000000E+00 -0.00000000000E+00 -0.10488300583E+03  0.10488300583E+03  0.00000000000E+00 0. -1.
    9000006    2    1    2  501    0  0.00000000000E+00  0.00000000000E+00  0.89511699417E+03  0.11048830058E+04  0.64771291737E+03 0.  0.
         13    1    3    3    0    0  0.59861585498E+02 -0.27741758091E+03  0.18143339912E+03  0.33684121175E+03  0.00000000000E+00 0. -1.
          4    1    3    3  501    0 -0.59861585498E+02  0.27741758091E+03  0.71368359504E+03  0.76804179408E+03  0.00000000000E+00 0. -1.
<mgrwt>
<rscale>  0 0.64771292E+03</rscale>
<asrwt>0</asrwt>
<pdfrwt beam="1">0</pdfrwt>
<pdfrwt beam="2">  1        2 0.38139355E+00 0.64771292E+03</pdfrwt>
<totfact> 0.46721961E+00</totfact>
</mgrwt>
</event>
<event>
 5    1  0.2368666E-004  0.6513015E+03  0.7818608E-02  0.9804340E-01
         13   -1    0    0    0    0  0.00000000000E+00  0.00000000000E+00  0.10000000000E+04  0.10000000000E+04  0.00000000000E+00 0. -1.
          2   -1    0    0  501    0 -0.00000000000E+00 -0.00000000000E+00 -0.10604841774E+03  0.10604841774E+03  0.00000000000E+00 0. -1.
    9000006    2    1    2  501    0  0.00000000000E+00  0.00000000000E+00  0.89395158226E+03  0.11060484177E+04  0.65130152078E+03 0.  0.
         13    1    3    3    0    0  0.78314406655E+02 -0.17995736576E+03  0.88828440908E+03  0.90970709088E+03  0.00000000000E+00 0. -1.
          4    1    3    3  501    0 -0.78314406655E+02  0.17995736576E+03  0.56671731738E+01  0.19634132686E+03  0.00000000000E+00 0. -1.
<mgrwt>
<rscale>  0 0.65130152E+03</rscale>
<asrwt>0</asrwt>
<pdfrwt beam="1">0</pdfrwt>
<pdfrwt beam="2">  1        2 0.38563142E+00 0.65130152E+03</pdfrwt>
<totfact> 0.45052641E+00</totfact>
</mgrwt>
</event>
<event>
 5    1  0.2368666E-004  0.6438941E+03  0.7818608E-02  0.9818304E-01
         13   -1    0    0    0    0  0.00000000000E+00  0.00000000000E+00  0.10000000000E+04  0.10000000000E+04  0.00000000000E+00 0. -1.
          2   -1    0    0  501    0 -0.00000000000E+00 -0.00000000000E+00 -0.10364990040E+03  0.10364990040E+03  0.00000000000E+00 0. -1.
    9000006    2    1    2  501    0  0.00000000000E+00  0.00000000000E+00  0.89635009960E+03  0.11036499004E+04  0.64389409190E+03 0.  0.
         13    1    3    3    0    0 -0.23698784742E+03 -0.67361589905E+02  0.92957998680E+02  0.26332871689E+03  0.00000000000E+00 0. -1.
          4    1    3    3  501    0  0.23698784742E+03  0.67361589905E+02  0.80339210092E+03  0.84032118351E+03  0.00000000000E+00 0. -1.
<mgrwt>
<rscale>  0 0.64389409E+03</rscale>
<asrwt>0</asrwt>
<pdfrwt beam="1">0</pdfrwt>
<pdfrwt beam="2">  1        2 0.37690952E+00 0.64389409E+03</pdfrwt>
<totfact> 0.48549303E+00</totfact>
</mgrwt>
</event>
<event>
 5    1  0.2368666E-004  0.6601954E+03  0.7818608E-02  0.9787834E-01
         13   -1    0    0    0    0  0.00000000000E+00  0.00000000000E+00  0.10000000000E+04  0.10000000000E+04  0.00000000000E+00 0. -1.
          2   -1    0    0  501    0 -0.00000000000E+00 -0.00000000000E+00 -0.10896448923E+03  0.10896448923E+03  0.00000000000E+00 0. -1.
    9000006    2    1    2  501    0  0.00000000000E+00  0.00000000000E+00  0.89103551077E+03  0.11089644892E+04  0.66019539299E+03 0.  0.
         13    1    3    3    0    0  0.16688975119E+03  0.27761860301E+03  0.55228725252E+03  0.64026985490E+03  0.00000000000E+00 0. -1.
          2    1    3    3  501    0 -0.16688975119E+03 -0.27761860301E+03  0.33874825824E+03  0.46869463433E+03  0.00000000000E+00 0. -1.
<mgrwt>
<rscale>  0 0.66019539E+03</rscale>
<asrwt>0</asrwt>
<pdfrwt beam="1">0</pdfrwt>
<pdfrwt beam="2">  1        2 0.39623534E+00 0.66019539E+03</pdfrwt>
<totfact> 0.41109659E+00</totfact>
</mgrwt>
</event>
<event>
 5    1  0.2368666E-004  0.6570234E+03  0.7818608E-02  0.9793689E-01
         13   -1    0    0    0    0  0.00000000000E+00  0.00000000000E+00  0.10000000000E+04  0.10000000000E+04  0.00000000000E+00 0. -1.
          2   -1    0    0  501    0 -0.00000000000E+00 -0.00000000000E+00 -0.10791995033E+03  0.10791995033E+03  0.00000000000E+00 0. -1.
    9000006    2    1    2  501    0  0.00000000000E+00  0.00000000000E+00  0.89208004967E+03  0.11079199503E+04  0.65702344046E+03 0.  0.
         13    1    3    3    0    0 -0.22595214730E+02 -0.20342423053E+02 -0.10554245445E+03  0.10983427332E+03  0.00000000000E+00 0. -1.
          2    1    3    3  501    0  0.22595214730E+02  0.20342423053E+02  0.99762250413E+03  0.99808567700E+03  0.00000000000E+00 0. -1.
<mgrwt>
<rscale>  0 0.65702344E+03</rscale>
<asrwt>0</asrwt>
<pdfrwt beam="1">0</pdfrwt>
<pdfrwt beam="2">  1        2 0.39243701E+00 0.65702344E+03</pdfrwt>
<totfact> 0.42484644E+00</totfact>
</mgrwt>
</event>
<event>
 5    1  0.2368666E-004  0.6503127E+03  0.7818608E-02  0.9806193E-01
         13   -1    0    0    0    0  0.00000000000E+00  0.00000000000E+00  0.10000000000E+04  0.10000000000E+04  0.00000000000E+00 0. -1.
          2   -1    0    0  501    0 -0.00000000000E+00 -0.00000000000E+00 -0.10572664328E+03  0.10572664328E+03  0.00000000000E+00 0. -1.
    9000006    2    1    2  501    0  0.00000000000E+00  0.00000000000E+00  0.89427335672E+03  0.11057266433E+04  0.65031267336E+03 0.  0.
         13    1    3    3    0    0 -0.13863994157E+03  0.29391805255E+03  0.46559008607E+03  0.56778779774E+03  0.00000000000E+00 0. -1.
          2    1    3    3  501    0  0.13863994157E+03 -0.29391805255E+03  0.42868327064E+03  0.53793884554E+03  0.00000000000E+00 0. -1.
<mgrwt>
<rscale>  0 0.65031267E+03</rscale>
<asrwt>0</asrwt>
<pdfrwt beam="1">0</pdfrwt>
<pdfrwt beam="2">  1        2 0.38446133E+00 0.65031267E+03</pdfrwt>
<totfact> 0.45508051E+00</totfact>
</mgrwt>
</event>
<event>
 5    1  0.2368666E-004  0.6527969E+03  0.7818608E-02  0.9801545E-01
         13   -1    0    0    0    0  0.00000000000E+00  0.00000000000E+00  0.10000000000E+04  0.10000000000E+04  0.00000000000E+00 0. -1.
          2   -1    0    0  501    0 -0.00000000000E+00 -0.00000000000E+00 -0.10653593933E+03  0.10653593933E+03  0.00000000000E+00 0. -1.
    9000006    2    1    2  501    0  0.00000000000E+00  0.00000000000E+00  0.89346406067E+03  0.11065359393E+04  0.65279687292E+03 0.  0.
         13    1    3    3    0    0 -0.29038489165E+03 -0.45956189544E+02  0.68705306329E+03  0.74731336696E+03  0.00000000000E+00 0. -1.
          4    1    3    3  501    0  0.29038489165E+03  0.45956189544E+02  0.20641099739E+03  0.35922257237E+03  0.00000000000E+00 0. -1.
<mgrwt>
<rscale>  0 0.65279687E+03</rscale>
<asrwt>0</asrwt>
<pdfrwt beam="1">0</pdfrwt>
<pdfrwt beam="2">  1        2 0.38740423E+00 0.65279687E+03</pdfrwt>
<totfact> 0.44370514E+00</totfact>
</mgrwt>
</event>
<event>
 5    1  0.2368666E-004  0.6490845E+03  0.7818608E-02  0.9808499E-01
         13   -1    0    0    0    0  0.00000000000E+00  0.00000000000E+00  0.10000000000E+04  0.10000000000E+04  0.00000000000E+00 0. -1.
          2   -1    0    0  501    0 -0.00000000000E+00 -0.00000000000E+00 -0.10532767587E+03  0.10532767587E+03  0.00000000000E+00 0. -1.
    9000006    2    1    2  501    0  0.00000000000E+00  0.00000000000E+00  0.89467232413E+03  0.11053276759E+04  0.64908451182E+03 0.  0.
         13    1    3    3    0    0 -0.26594137377E+03 -0.52401586754E+02  0.75127891638E+03  0.79868063128E+03  0.00000000000E+00 0. -1.
          4    1    3    3  501    0  0.26594137377E+03  0.52401586754E+02  0.14339340774E+03  0.30664704460E+03  0.00000000000E+00 0. -1.
<mgrwt>
<rscale>  0 0.64908451E+03</rscale>
<asrwt>0</asrwt>
<pdfrwt beam="1">0</pdfrwt>
<pdfrwt beam="2">  1        2 0.38301054E+00 0.64908451E+03</pdfrwt>
<totfact> 0.46078509E+00</totfact>
</mgrwt>
</event>
<event>
 5    1  0.2368666E-004  0.5895905E+03  0.7818608E-02  0.9927241E-01
         13   -1    0    0    0    0  0.00000000000E+00  0.00000000000E+00  0.10000000000E+04  0.10000000000E+04  0.00000000000E+00 0. -1.
          2   -1    0    0  501    0 -0.00000000000E+00 -0.00000000000E+00 -0.86904246094E+02  0.86904246094E+02  0.00000000000E+00 0. -1.
    9000006    2    1    2  501    0  0.00000000000E+00  0.00000000000E+00  0.91309575391E+03  0.10869042461E+04  0.58959052263E+03 0.  0.
         13    1    3    3    0    0 -0.96012597534E+02  0.29252634040E+02 -0.54435204233E+02  0.11418111465E+03  0.00000000000E+00 0. -1.
          4    1    3    3  501    0  0.96012597534E+02 -0.29252634040E+02  0.96753095814E+03  0.97272313144E+03  0.00000000000E+00 0. -1.
<mgrwt>
<rscale>  0 0.58959052E+03</rscale>
<asrwt>0</asrwt>
<pdfrwt beam="1">0</pdfrwt>
<pdfrwt beam="2">  1        2 0.31601611E+00 0.58959052E+03</pdfrwt>
<totfact> 0.80896446E+00</totfact>
</mgrwt>
</event>
<event>
 5    1  0.2368666E-004  0.6509434E+03  0.7818608E-02  0.9805011E-01
         13   -1    0    0    0    0  0.00000000000E+00  0.00000000000E+00  0.10000000000E+04  0.10000000000E+04  0.00000000000E+00 0. -1.
          2   -1    0    0  501    0 -0.00000000000E+00 -0.00000000000E+00 -0.10593181485E+03  0.10593181485E+03  0.00000000000E+00 0. -1.
    9000006    2    1    2  501    0  0.00000000000E+00  0.00000000000E+00  0.89406818515E+03  0.11059318148E+04  0.65094336113E+03 0.  0.
         13    1    3    3    0    0 -0.21622402314E+03  0.17940304292E+03  0.72616956485E+03  0.77862732864E+03  0.00000000000E+00 0. -1.
          4    1    3    3  501    0  0.21622402314E+03 -0.17940304292E+03  0.16789862030E+03  0.32730448621E+03  0.00000000000E+00 0. -1.
<mgrwt>
<rscale>  0 0.65094336E+03</rscale>
<asrwt>0</asrwt>
<pdfrwt beam="1">0</pdfrwt>
<pdfrwt beam="2">  1        2 0.38520741E+00 0.65094336E+03</pdfrwt>
<totfact> 0.45217191E+00</totfact>
</mgrwt>
</event>
<event>
 5    1  0.2368666E-004  0.6524686E+03  0.7818608E-02  0.9802158E-01
         13   -1    0    0    0    0  0.00000000000E+00  0.00000000000E+00  0.10000000000E+04  0.10000000000E+04  0.00000000000E+00 0. -1.
          2   -1    0    0  501    0 -0.00000000000E+00 -0.00000000000E+00 -0.10642882456E+03  0.10642882456E+03  0.00000000000E+00 0. -1.
    9000006    2    1    2  501    0  0.00000000000E+00  0.00000000000E+00  0.89357117544E+03  0.11064288246E+04  0.65246861858E+03 0.  0.
         13    1    3    3    0    0 -0.64041724646E+02  0.29299361546E+03  0.22907890990E+03  0.37739071022E+03  0.00000000000E+00 0. -1.
          2    1    3    3  501    0  0.64041724646E+02 -0.29299361546E+03  0.66449226554E+03  0.72903811434E+03  0.00000000000E+00 0. -1.
<mgrwt>
<rscale>  0 0.65246862E+03</rscale>
<asrwt>0</asrwt>
<pdfrwt beam="1">0</pdfrwt>
<pdfrwt beam="2">  1        2 0.38701472E+00 0.65246862E+03</pdfrwt>
<totfact> 0.44519579E+00</totfact>
</mgrwt>
</event>
<event>
 5    1  0.2368666E-004  0.6488955E+03  0.7818608E-02  0.9808854E-01
         13   -1    0    0    0    0  0.00000000000E+00  0.00000000000E+00  0.10000000000E+04  0.10000000000E+04  0.00000000000E+00 0. -1.
          2   -1    0    0  501    0 -0.00000000000E+00 -0.00000000000E+00 -0.10526633995E+03  0.10526633995E+03  0.00000000000E+00 0. -1.
    9000006    2    1    2  501    0  0.00000000000E+00  0.00000000000E+00  0.89473366005E+03  0.11052663399E+04  0.64889549219E+03 0.  0.
         13    1    3    3    0    0  0.97133862229E+02 -0.83539105903E+01 -0.79726844330E+02  0.12594103668E+03  0.00000000000E+00 0. -1.
          4    1    3    3  501    0 -0.97133862229E+02  0.83539105903E+01  0.97446050438E+03  0.97932530327E+03  0.00000000000E+00 0. -1.
<mgrwt>
<rscale>  0 0.64889549E+03</rscale>
<asrwt>0</asrwt>
<pdfrwt beam="1">0</pdfrwt>
<pdfrwt beam="2">  1        2 0.38278750E+00 0.64889549E+03</pdfrwt>
<totfact> 0.46166783E+00</totfact>
</mgrwt>
</event>
<event>
 5    1  0.2368666E-004  0.7200179E+03  0.7818608E-02  0.9683598E-01
         13   -1    0    0    0    0  0.00000000000E+00  0.00000000000E+00  0.10000000000E+04  0.10000000000E+04  0.00000000000E+00 0. -1.
          2   -1    0    0  501    0 -0.00000000000E+00 -0.00000000000E+00 -0.12960644696E+03  0.12960644696E+03  0.00000000000E+00 0. -1.
    9000006    2    1    2  501    0  0.00000000000E+00  0.00000000000E+00  0.87039355304E+03  0.11296064470E+04  0.72001790799E+03 0.  0.
         13    1    3    3    0    0  0.13288207443E+03  0.21006350845E+03  0.26623877245E+02  0.24998630788E+03  0.00000000000E+00 0. -1.
          4    1    3    3  501    0 -0.13288207443E+03 -0.21006350845E+03  0.84376967580E+03  0.87962013908E+03  0.00000000000E+00 0. -1.
<mgrwt>
<rscale>  0 0.72001791E+03</rscale>
<asrwt>0</asrwt>
<pdfrwt beam="1">0</pdfrwt>
<pdfrwt beam="2">  1        2 0.47129716E+00 0.72001791E+03</pdfrwt>
<totfact> 0.20903163E+00</totfact>
</mgrwt>
</event>
<event>
 5    1  0.2368666E-004  0.5981385E+03  0.7818608E-02  0.9909276E-01
         13   -1    0    0    0    0  0.00000000000E+00  0.00000000000E+00  0.10000000000E+04  0.10000000000E+04  0.00000000000E+00 0. -1.
          2   -1    0    0  501    0 -0.00000000000E+00 -0.00000000000E+00 -0.89442409995E+02  0.89442409995E+02  0.00000000000E+00 0. -1.
    9000006    2    1    2  501    0  0.00000000000E+00  0.00000000000E+00  0.91055759001E+03  0.10894424100E+04  0.59813847893E+03 0.  0.
         13    1    3    3    0    0  0.63815006551E+02  0.99748249296E+02  0.95548236087E+03  0.96279209086E+03  0.00000000000E+00 0. -1.
          4    1    3    3  501    0 -0.63815006551E+02 -0.99748249296E+02 -0.44924770863E+02  0.12665031913E+03  0.00000000000E+00 0. -1.
<mgrwt>
<rscale>  0 0.59813848E+03</rscale>
<asrwt>0</asrwt>
<pdfrwt beam="1">0</pdfrwt>
<pdfrwt beam="2">  1        2 0.32524581E+00 0.59813848E+03</pdfrwt>
<totfact> 0.74943006E+00</totfact>
</mgrwt>
</event>
<event>
 5    1  0.2368666E-004  0.6508633E+03  0.7818608E-02  0.9805161E-01
         13   -1    0    0    0    0  0.00000000000E+00  0.00000000000E+00  0.10000000000E+04  0.10000000000E+04  0.00000000000E+00 0. -1.
          2   -1    0    0  501    0 -0.00000000000E+00 -0.00000000000E+00 -0.10590574874E+03  0.10590574874E+03  0.00000000000E+00 0. -1.
    9000006    2    1    2  501    0  0.00000000000E+00  0.00000000000E+00  0.89409425126E+03  0.11059057487E+04  0.65086326902E+03 0.  0.
         13    1    3    3    0    0 -0.21483068803E+02  0.20882535953E+03  0.86956952175E+03  0.89455056100E+03  0.00000000000E+00 0. -1.
          4    1    3    3  501    0  0.21483068803E+02 -0.20882535953E+03  0.24524729514E+02  0.21135518774E+03  0.00000000000E+00 0. -1.
<mgrwt>
<rscale>  0 0.65086327E+03</rscale>
<asrwt>0</asrwt>
<pdfrwt beam="1">0</pdfrwt>
<pdfrwt beam="2">  1        2 0.38511263E+00 0.65086327E+03</pdfrwt>
<totfact> 0.45254049E+00</totfact>
</mgrwt>
</event>
<event>
 5    1  0.2368666E-004  0.6511679E+03  0.7818608E-02  0.9804590E-01
         13   -1    0    0    0    0  0.00000000000E+00  0.00000000000E+00  0.10000000000E+04  0.10000000000E+04  0.00000000000E+00 0. -1.
          2   -1    0    0  501    0 -0.00000000000E+00 -0.00000000000E+00 -0.10600492368E+03  0.10600492368E+03  0.00000000000E+00 0. -1.
    9000006    2    1    2  501    0  0.00000000000E+00  0.00000000000E+00  0.89399507632E+03  0.11060049237E+04  0.65116794663E+03 0.  0.
         13    1    3    3    0    0 -0.88363990586E+02 -0.31313277674E+03  0.42657368642E+03  0.53649365388E+03  0.00000000000E+00 0. -1.
          2    1    3    3  501    0  0.88363990586E+02  0.31313277674E+03  0.46742138990E+03  0.56951126980E+03  0.00000000000E+00 0. -1.
<mgrwt>
<rscale>  0 0.65116795E+03</rscale>
<asrwt>0</asrwt>
<pdfrwt beam="1">0</pdfrwt>
<pdfrwt beam="2">  1        2 0.38547326E+00 0.65116795E+03</pdfrwt>
<totfact> 0.45113956E+00</totfact>
</mgrwt>
</event>
<event>
 5    1  0.2368666E-004  0.6606457E+03  0.7818608E-02  0.9787006E-01
         13   -1    0    0    0    0  0.00000000000E+00  0.00000000000E+00  0.10000000000E+04  0.10000000000E+04  0.00000000000E+00 0. -1.
          2   -1    0    0  501    0 -0.00000000000E+00 -0.00000000000E+00 -0.10911319749E+03  0.10911319749E+03  0.00000000000E+00 0. -1.
    9000006    2    1    2  501    0  0.00000000000E+00  0.00000000000E+00  0.89088680251E+03  0.11091131975E+04  0.66064573710E+03 0.  0.
         13    1    3    3    0    0  0.35941282871E+02 -0.10716730366E+03  0.96652156310E+03  0.97310869831E+03  0.00000000000E+00 0. -1.
          4    1    3    3  501    0 -0.35941282871E+02  0.10716730366E+03 -0.75634760583E+02  0.13600449918E+03  0.00000000000E+00 0. -1.
<mgrwt>
<rscale>  0 0.66064574E+03</rscale>
<asrwt>0</asrwt>
<pdfrwt beam="1">0</pdfrwt>
<pdfrwt beam="2">  1        2 0.39677610E+00 0.66064574E+03</pdfrwt>
<totfact> 0.40917208E+00</totfact>
</mgrwt>
</event>
<event>
 5    1  0.2368666E-004  0.6500514E+03  0.7818608E-02  0.9806683E-01
         13   -1    0    0    0    0  0.00000000000E+00  0.00000000000E+00  0.10000000000E+04  0.10000000000E+04  0.00000000000E+00 0. -1.
          2   -1    0    0  501    0 -0.00000000000E+00 -0.00000000000E+00 -0.10564170967E+03  0.10564170967E+03  0.00000000000E+00 0. -1.
    9000006    2    1    2  501    0  0.00000000000E+00  0.00000000000E+00  0.89435829033E+03  0.11056417097E+04  0.65005141233E+03 0.  0.
         13    1    3    3    0    0 -0.22039391676E+03  0.97331719252E+02  0.76117289023E+02  0.25266733823E+03  0.00000000000E+00 0. -1.
          2    1    3    3  501    0  0.22039391676E+03 -0.97331719252E+02  0.81824100131E+03  0.85297437144E+03  0.00000000000E+00 0. -1.
<mgrwt>
<rscale>  0 0.65005141E+03</rscale>
<asrwt>0</asrwt>
<pdfrwt beam="1">0</pdfrwt>
<pdfrwt beam="2">  1        2 0.38415248E+00 0.65005141E+03</pdfrwt>
<totfact> 0.45628952E+00</totfact>
</mgrwt>
</event>
<event>
 5    1  0.2368666E-004  0.6561328E+03  0.7818608E-02  0.9795339E-01
         13   -1    0    0    0    0  0.00000000000E+00  0.00000000000E+00  0.10000000000E+04  0.10000000000E+04  0.00000000000E+00 0. -1.
          2   -1    0    0  501    0 -0.00000000000E+00 -0.00000000000E+00 -0.10762756171E+03  0.10762756171E+03  0.00000000000E+00 0. -1.
    9000006    2    1    2  501    0  0.00000000000E+00  0.00000000000E+00  0.89237243829E+03  0.11076275617E+04  0.65613279666E+03 0.  0.
         13    1    3    3    0    0 -0.11879205242E+03  0.17506639460E+03  0.86945479474E+03  0.89482480651E+03  0.00000000000E+00 0. -1.
          2    1    3    3  501    0  0.11879205242E+03 -0.17506639460E+03  0.22917643543E+02  0.21280275521E+03  0.00000000000E+00 0. -1.
<mgrwt>
<rscale>  0 0.65613280E+03</rscale>
<asrwt>0</asrwt>
<pdfrwt beam="1">0</pdfrwt>
<pdfrwt beam="2">  1        2 0.39137378E+00 0.65613280E+03</pdfrwt>
<totfact> 0.42876911E+00</totfact>
</mgrwt>
</event>
<event>
 5    1  0.2368666E-004  0.6472310E+03  0.7818608E-02  0.9811989E-01
         13   -1    0    0    0    0  0.00000000000E+00  0.00000000000E+00  0.10000000000E+04  0.10000000000E+04  0.00000000000E+00 0. -1.
          2   -1    0    0  501    0 -0.00000000000E+00 -0.00000000000E+00 -0.10472699434E+03  0.10472699434E+03  0.00000000000E+00 0. -1.
    9000006    2    1    2  501    0  0.00000000000E+00  0.00000000000E+00  0.89527300566E+03  0.11047269943E+04  0.64723100773E+03 0.  0.
         13    1    3    3    0    0 -0.26079866357E+03 -0.16877940806E+03  0.60242976843E+03  0.67780827480E+03  0.00000000000E+00 0. -1.
          4    1    3    3  501    0  0.26079866357E+03  0.16877940806E+03  0.29284323723E+03  0.42691871954E+03  0.00000000000E+00 0. -1.
<mgrwt>
<rscale>  0 0.64723101E+03</rscale>
<asrwt>0</asrwt>
<pdfrwt beam="1">0</pdfrwt>
<pdfrwt beam="2">  1        2 0.38082624E+00 0.64723101E+03</pdfrwt>
<totfact> 0.46949642E+00</totfact>
</mgrwt>
</event>
<event>
 5    1  0.2368666E-004  0.7259912E+03  0.7818608E-02  0.9673788E-01
         13   -1    0    0    0    0  0.00000000000E+00  0.00000000000E+00  0.10000000000E+04  0.10000000000E+04  0.00000000000E+00 0. -1.
          2   -1    0    0  501    0 -0.00000000000E+00 -0.00000000000E+00 -0.13176579123E+03  0.13176579123E+03  0.00000000000E+00 0. -1.
    9000006    2    1    2  501    0  0.00000000000E+00  0.00000000000E+00  0.86823420877E+03  0.11317657912E+04  0.72599116036E+03 0.  0.
         13    1    3    3    0    0  0.21358448497E+03 -0.29149718899E+03  0.48759636371E+03  0.60690951328E+03  0.00000000000E+00 0. -1.
          4    1    3    3  501    0 -0.21358448497E+03  0.29149718899E+03  0.38063784506E+03  0.52485627795E+03  0.00000000000E+00 0. -1.
<mgrwt>
<rscale>  0 0.72599116E+03</rscale>
<asrwt>0</asrwt>
<pdfrwt beam="1">0</pdfrwt>
<pdfrwt beam="2">  1        2 0.47914934E+00 0.72599116E+03</pdfrwt>
<totfact> 0.19409388E+00</totfact>
</mgrwt>
</event>
<event>
 5    1  0.2368666E-004  0.6467465E+03  0.7818608E-02  0.9812903E-01
         13   -1    0    0    0    0  0.00000000000E+00  0.00000000000E+00  0.10000000000E+04  0.10000000000E+04  0.00000000000E+00 0. -1.
          2   -1    0    0  501    0 -0.00000000000E+00 -0.00000000000E+00 -0.10457026723E+03  0.10457026723E+03  0.00000000000E+00 0. -1.
    9000006    2    1    2  501    0  0.00000000000E+00  0.00000000000E+00  0.89542973277E+03  0.11045702672E+04  0.64674652603E+03 0.  0.
         13    1    3    3    0    0 -0.18438820656E+03  0.31835042697E+01 -0.59571403839E+01  0.18451187751E+03  0.00000000000E+00 0. -1.
          2    1    3    3  501    0  0.18438820656E+03 -0.31835042697E+01  0.90138687315E+03  0.92005838973E+03  0.00000000000E+00 0. -1.
<mgrwt>
<rscale>  0 0.64674653E+03</rscale>
<asrwt>0</asrwt>
<pdfrwt beam="1">0</pdfrwt>
<pdfrwt beam="2">  1        2 0.38025632E+00 0.64674653E+03</pdfrwt>
<totfact> 0.47179384E+00</totfact>
</mgrwt>
</event>
<event>
 5    1  0.2368666E-004  0.5984245E+03  0.7818608E-02  0.9908680E-01
         13   -1    0    0    0    0  0.00000000000E+00  0.00000000000E+00  0.10000000000E+04  0.10000000000E+04  0.00000000000E+00 0. -1.
          2   -1    0    0  501    0 -0.00000000000E+00 -0.00000000000E+00 -0.89527957111E+02  0.89527957111E+02  0.00000000000E+00 0. -1.
    9000006    2    1    2  501    0  0.00000000000E+00  0.00000000000E+00  0.91047204289E+03  0.10895279571E+04  0.59842445509E+03 0.  0.
         13    1    3    3    0    0 -0.25843277623E+03  0.76458977594E+02  0.69188328461E+03  0.74252000283E+03  0.00000000000E+00 0. -1.
          2    1    3    3  501    0  0.25843277623E+03 -0.76458977594E+02  0.21858875828E+03  0.34700795428E+03  0.00000000000E+00 0. -1.
<mgrwt>
<rscale>  0 0.59842446E+03</rscale>
<asrwt>0</asrwt>
<pdfrwt beam="1">0</pdfrwt>
<pdfrwt beam="2">  1        2 0.32555689E+00 0.59842446E+03</pdfrwt>
<totfact> 0.74749932E+00</totfact>
</mgrwt>
</event>
<event>
 5    1  0.2368666E-004  0.6434231E+03  0.7818608E-02  0.9819199E-01
         13   -1    0    0    0    0  0.00000000000E+00  0.00000000000E+00  0.10000000000E+04  0.10000000000E+04  0.00000000000E+00 0. -1.
          2   -1    0    0  501    0 -0.00000000000E+00 -0.00000000000E+00 -0.10349832311E+03  0.10349832311E+03  0.00000000000E+00 0. -1.
    9000006    2    1    2  501    0  0.00000000000E+00  0.00000000000E+00  0.89650167689E+03  0.11034983231E+04  0.64342310531E+03 0.  0.
         13    1    3    3    0    0 -0.23521280535E+03 -0.20900760233E+03  0.33334191140E+03  0.45839510417E+03  0.00000000000E+00 0. -1.
          2    1    3    3  501    0  0.23521280535E+03  0.20900760233E+03  0.56315976548E+03  0.64510321894E+03  0.00000000000E+00 0. -1.
<mgrwt>
<rscale>  0 0.64342311E+03</rscale>
<asrwt>0</asrwt>
<pdfrwt beam="1">0</pdfrwt>
<pdfrwt beam="2">  1        2 0.37635833E+00 0.64342311E+03</pdfrwt>
<totfact> 0.48778364E+00</totfact>
</mgrwt>
</event>
<event>
 5    1  0.2368666E-004  0.6423462E+03  0.7818608E-02  0.9821248E-01
         13   -1    0    0    0    0  0.00000000000E+00  0.00000000000E+00  0.10000000000E+04  0.10000000000E+04  0.00000000000E+00 0. -1.
          2   -1    0    0  501    0 -0.00000000000E+00 -0.00000000000E+00 -0.10315214443E+03  0.10315214443E+03  0.00000000000E+00 0. -1.
    9000006    2    1    2  501    0  0.00000000000E+00  0.00000000000E+00  0.89684785557E+03  0.11031521444E+04  0.64234615100E+03 0.  0.
         13    1    3    3    0    0 -0.14476430849E+03  0.38682060081E+02  0.93629013191E+03  0.94820473416E+03  0.00000000000E+00 0. -1.
          4    1    3    3  501    0  0.14476430849E+03 -0.38682060081E+02 -0.39442276332E+02  0.15494741026E+03  0.00000000000E+00 0. -1.
<mgrwt>
<rscale>  0 0.64234615E+03</rscale>
<asrwt>0</asrwt>
<pdfrwt beam="1">0</pdfrwt>
<pdfrwt beam="2">  1        2 0.37509950E+00 0.64234615E+03</pdfrwt>
<totfact> 0.49305223E+00</totfact>
</mgrwt>
</event>
<event>
 5    1  0.2368666E-004  0.6534178E+03  0.7818608E-02  0.9800387E-01
         13   -1    0    0    0    0  0.00000000000E+00  0.00000000000E+00  0.10000000000E+04  0.10000000000E+04  0.00000000000E+00 0. -1.
          2   -1    0    0  501    0 -0.00000000000E+00 -0.00000000000E+00 -0.10673870794E+03  0.10673870794E+03  0.00000000000E+00 0. -1.
    9000006    2    1    2  501    0  0.00000000000E+00  0.00000000000E+00  0.89326129206E+03  0.11067387079E+04  0.65341780796E+03 0.  0.
         13    1    3    3    0    0  0.15590307290E+03  0.27261187615E+03  0.59921754734E+03  0.67652396277E+03  0.00000000000E+00 0. -1.
          4    1    3    3  501    0 -0.15590307290E+03 -0.27261187615E+03  0.29404374472E+03  0.43021474517E+03  0.00000000000E+00 0. -1.
<mgrwt>
<rscale>  0 0.65341781E+03</rscale>
<asrwt>0</asrwt>
<pdfrwt beam="1">0</pdfrwt>
<pdfrwt beam="2">  1        2 0.38814157E+00 0.65341781E+03</pdfrwt>
<totfact> 0.44089570E+00</totfact>
</mgrwt>
</event>
<event>
 5    1  0.2368666E-004  0.6514862E+03  0.7818608E-02  0.9803994E-01
         13   -1    0    0    0    0  0.00000000000E+00  0.00000000000E+00  0.10000000000E+04  0.10000000000E+04  0.00000000000E+00 0. -1.
          2   -1    0    0  501    0 -0.00000000000E+00 -0.00000000000E+00 -0.10610857861E+03  0.10610857861E+03  0.00000000000E+00 0. -1.
    9000006    2    1    2  501    0  0.00000000000E+00  0.00000000000E+00  0.89389142139E+03  0.11061085786E+04  0.65148623505E+03 0.  0.
         13    1    3    3    0    0  0.23779217400E+03 -0.22261972056E+03  0.45030749456E+03  0.55577108386E+03  0.00000000000E+00 0. -1.
          4    1    3    3  501    0 -0.23779217400E+03  0.22261972056E+03  0.44358392682E+03  0.55033749475E+03  0.00000000000E+00 0. -1.
<mgrwt>
<rscale>  0 0.65148624E+03</rscale>
<asrwt>0</asrwt>
<pdfrwt beam="1">0</pdfrwt>
<pdfrwt beam="2">  1        2 0.38585019E+00 0.65148624E+03</pdfrwt>
<totfact> 0.44967955E+00</totfact>
</mgrwt>
</event>
<event>
 5    1  0.2368666E-004  0.6394603E+03  0.7818608E-02  0.9826760E-01
         13   -1    0    0    0    0  0.00000000000E+00  0.00000000000E+00  0.10000000000E+04  0.10000000000E+04  0.00000000000E+00 0. -1.
          2   -1    0    0  501    0 -0.00000000000E+00 -0.00000000000E+00 -0.10222738386E+03  0.10222738386E+03  0.00000000000E+00 0. -1.
    9000006    2    1    2  501    0  0.00000000000E+00  0.00000000000E+00  0.89777261614E+03  0.11022273839E+04  0.63946034705E+03 0.  0.
         13    1    3    3    0    0  0.16163584902E+03 -0.18174025451E+03  0.91157706263E+02  0.25974101565E+03  0.00000000000E+00 0. -1.
          4    1    3    3  501    0 -0.16163584902E+03  0.18174025451E+03  0.80661490987E+03  0.84248636822E+03  0.00000000000E+00 0. -1.
<mgrwt>
<rscale>  0 0.63946035E+03</rscale>
<asrwt>0</asrwt>
<pdfrwt beam="1">0</pdfrwt>
<pdfrwt beam="2">  1        2 0.37173673E+00 0.63946035E+03</pdfrwt>
<totfact> 0.50738330E+00</totfact>
</mgrwt>
</event>
<event>
 5    1  0.2368666E-004  0.6567120E+03  0.7818608E-02  0.9794266E-01
         13   -1    0    0    0    0  0.00000000000E+00  0.00000000000E+00  0.10000000000E+04  0.10000000000E+04  0.00000000000E+00 0. -1.
          2   -1    0    0  501    0 -0.00000000000E+00 -0.00000000000E+00 -0.10781764746E+03  0.10781764746E+03  0.00000000000E+00 0. -1.
    9000006    2    1    2  501    0  0.00000000000E+00  0.00000000000E+00  0.89218235254E+03  0.11078176475E+04  0.65671195349E+03 0.  0.
         13    1    3    3    0    0  0.25994117978E+03  0.19302972041E+02  0.10923298405E+03  0.28261964984E+03  0.00000000000E+00 0. -1.
          2    1    3    3  501    0 -0.25994117978E+03 -0.19302972041E+02  0.78294936848E+03  0.82519799762E+03  0.00000000000E+00 0. -1.
<mgrwt>
<rscale>  0 0.65671195E+03</rscale>
<asrwt>0</asrwt>
<pdfrwt beam="1">0</pdfrwt>
<pdfrwt beam="2">  1        2 0.39206500E+00 0.65671195E+03</pdfrwt>
<totfact> 0.42621523E+00</totfact>
</mgrwt>
</event>
<event>
 5    1  0.2368666E-004  0.6655747E+03  0.7818608E-02  0.9777985E-01
         13   -1    0    0    0    0  0.00000000000E+00  0.00000000000E+00  0.10000000000E+04  0.10000000000E+04  0.00000000000E+00 0. -1.
          2   -1    0    0  501    0 -0.00000000000E+00 -0.00000000000E+00 -0.11074741775E+03  0.11074741775E+03  0.00000000000E+00 0. -1.
    9000006    2    1    2  501    0  0.00000000000E+00  0.00000000000E+00  0.88925258225E+03  0.11107474177E+04  0.66557469227E+03 0.  0.
         13    1    3    3    0    0 -0.43845703871E+01  0.28883772133E+03  0.16888138169E+03  0.33461526385E+03  0.00000000000E+00 0. -1.
          2    1    3    3  501    0  0.43845703871E+01 -0.28883772133E+03  0.72037120056E+03  0.77613215390E+03  0.00000000000E+00 0. -1.
<mgrwt>
<rscale>  0 0.66557469E+03</rscale>
<asrwt>0</asrwt>
<pdfrwt beam="1">0</pdfrwt>
<pdfrwt beam="2">  1        2 0.40271873E+00 0.66557469E+03</pdfrwt>
<totfact> 0.38854985E+00</totfact>
</mgrwt>
</event>
<event>
 5    1  0.2368666E-004  0.6905409E+03  0.7818608E-02  0.9733547E-01
         13   -1    0    0    0    0  0.00000000000E+00  0.00000000000E+00  0.10000000000E+04  0.10000000000E+04  0.00000000000E+00 0. -1.
          2   -1    0    0  501    0 -0.00000000000E+00 -0.00000000000E+00 -0.11921168034E+03  0.11921168034E+03  0.00000000000E+00 0. -1.
    9000006    2    1    2  501    0  0.00000000000E+00  0.00000000000E+00  0.88078831966E+03  0.11192116803E+04  0.69054089045E+03 0.  0.
         13    1    3    3    0    0 -0.24114700169E+03  0.24604526154E+03  0.40338034806E+03  0.53047700454E+03  0.00000000000E+00 0. -1.
          2    1    3    3  501    0  0.24114700169E+03 -0.24604526154E+03  0.47740797160E+03  0.58873467580E+03  0.00000000000E+00 0. -1.
<mgrwt>
<rscale>  0 0.69054089E+03</rscale>
<asrwt>0</asrwt>
<pdfrwt beam="1">0</pdfrwt>
<pdfrwt beam="2">  1        2 0.43349793E+00 0.69054089E+03</pdfrwt>
<totfact> 0.29585370E+00</totfact>
</mgrwt>
</event>
<event>
 5    1  0.2368666E-004  0.6369123E+03  0.7818608E-02  0.9831652E-01
         13   -1    0    0    0    0  0.00000000000E+00  0.00000000000E+00  0.10000000000E+04  0.10000000000E+04  0.00000000000E+00 0. -1.
          2   -1    0    0  501    0 -0.00000000000E+00 -0.00000000000E+00 -0.10141432490E+03  0.10141432490E+03  0.00000000000E+00 0. -1.
    9000006    2    1    2  501    0  0.00000000000E+00  0.00000000000E+00  0.89858567510E+03  0.11014143249E+04  0.63691231705E+03 0.  0.
         13    1    3    3    0    0  0.34530475176E+02 -0.25843654245E+03  0.13309735561E+03  0.29273999771E+03  0.00000000000E+00 0. -1.
          2    1    3    3  501    0 -0.34530475176E+02  0.25843654245E+03  0.76548831949E+03  0.80867432720E+03  0.00000000000E+00 0. -1.
<mgrwt>
<rscale>  0 0.63691232E+03</rscale>
<asrwt>0</asrwt>
<pdfrwt beam="1">0</pdfrwt>
<pdfrwt beam="2">  1        2 0.36878014E+00 0.63691232E+03</pdfrwt>
<totfact> 0.52029726E+00</totfact>
</mgrwt>
</event>
<event>
 5    1  0.2368666E-004  0.5058878E+03  0.7818608E-02  0.1012253E+00
         13   -1    0    0    0    0  0.00000000000E+00  0.00000000000E+00  0.10000000000E+04  0.10000000000E+04  0.00000000000E+00 0. -1.
          2   -1    0    0  501    0 -0.00000000000E+00 -0.00000000000E+00 -0.63980604853E+02  0.63980604853E+02  0.00000000000E+00 0. -1.
    9000006    2    1    2  501    0  0.00000000000E+00  0.00000000000E+00  0.93601939515E+03  0.10639806049E+04  0.50588775377E+03 0.  0.
         13    1    3    3    0    0  0.22971880821E+01  0.14663160884E+03  0.90146435900E+03  0.91331489440E+03  0.00000000000E+00 0. -1.
          2    1    3    3  501    0 -0.22971880821E+01 -0.14663160884E+03  0.34555036150E+02  0.15066571046E+03  0.00000000000E+00 0. -1.
<mgrwt>
<rscale>  0 0.50588775E+03</rscale>
<asrwt>0</asrwt>
<pdfrwt beam="1">0</pdfrwt>
<pdfrwt beam="2">  1        2 0.23265724E+00 0.50588775E+03</pdfrwt>
<totfact> 0.16102440E+01</totfact>
</mgrwt>
</event>
<event>
 5    1  0.2368666E-004  0.6522705E+03  0.7818608E-02  0.9802528E-01
         13   -1    0    0    0    0  0.00000000000E+00  0.00000000000E+00  0.10000000000E+04  0.10000000000E+04  0.00000000000E+00 0. -1.
          2   -1    0    0  501    0 -0.00000000000E+00 -0.00000000000E+00 -0.10636419827E+03  0.10636419827E+03  0.00000000000E+00 0. -1.
    9000006    2    1    2  501    0  0.00000000000E+00  0.00000000000E+00  0.89363580173E+03  0.11063641983E+04  0.65227049073E+03 0.  0.
         13    1    3    3    0    0  0.20559982685E+03  0.22900910238E+03  0.26375884181E+03  0.40532108804E+03  0.00000000000E+00 0. -1.
          2    1    3    3  501    0 -0.20559982685E+03 -0.22900910238E+03  0.62987695992E+03  0.70104311023E+03  0.00000000000E+00 0. -1.
<mgrwt>
<rscale>  0 0.65227049E+03</rscale>
<asrwt>0</asrwt>
<pdfrwt beam="1">0</pdfrwt>
<pdfrwt beam="2">  1        2 0.38677972E+00 0.65227049E+03</pdfrwt>
<totfact> 0.44609735E+00</totfact>
</mgrwt>
</event>
<event>
 5    1  0.2368666E-004  0.6310728E+03  0.7818608E-02  0.9842957E-01
         13   -1    0    0    0    0  0.00000000000E+00  0.00000000000E+00  0.10000000000E+04  0.10000000000E+04  0.00000000000E+00 0. -1.
          2   -1    0    0  501    0 -0.00000000000E+00 -0.00000000000E+00 -0.99563226887E+02  0.99563226887E+02  0.00000000000E+00 0. -1.
    9000006    2    1    2  501    0  0.00000000000E+00  0.00000000000E+00  0.90043677311E+03  0.10995632269E+04  0.63107282270E+03 0.  0.
         13    1    3    3    0    0  0.12152906111E+03 -0.21324295916E+03  0.79572388616E+03  0.83271746428E+03  0.00000000000E+00 0. -1.
          2    1    3    3  501    0 -0.12152906111E+03  0.21324295916E+03  0.10471288696E+03  0.26684576260E+03  0.00000000000E+00 0. -1.
<mgrwt>
<rscale>  0 0.63107282E+03</rscale>
<asrwt>0</asrwt>
<pdfrwt beam="1">0</pdfrwt>
<pdfrwt beam="2">  1        2 0.36204886E+00 0.63107282E+03</pdfrwt>
<totfact> 0.55083223E+00</totfact>
</mgrwt>
</event>
<event>
 5    1  0.2368666E-004  0.7146609E+03  0.7818608E-02  0.9692484E-01
         13   -1    0    0    0    0  0.00000000000E+00  0.00000000000E+00  0.10000000000E+04  0.10000000000E+04  0.00000000000E+00 0. -1.
          2   -1    0    0  501    0 -0.00000000000E+00 -0.00000000000E+00 -0.12768504051E+03  0.12768504051E+03  0.00000000000E+00 0. -1.
    9000006    2    1    2  501    0  0.00000000000E+00  0.00000000000E+00  0.87231495949E+03  0.11276850405E+04  0.71466087204E+03 0.  0.
         13    1    3    3    0    0 -0.26396054408E+03 -0.14789132109E+03  0.13619285258E+03  0.33180642666E+03  0.00000000000E+00 0. -1.
          4    1    3    3  501    0  0.26396054408E+03  0.14789132109E+03  0.73612210692E+03  0.79587861384E+03  0.00000000000E+00 0. -1.
<mgrwt>
<rscale>  0 0.71466087E+03</rscale>
<asrwt>0</asrwt>
<pdfrwt beam="1">0</pdfrwt>
<pdfrwt beam="2">  1        2 0.46431022E+00 0.71466087E+03</pdfrwt>
<totfact> 0.22315780E+00</totfact>
</mgrwt>
</event>
<event>
 5    1  0.2368666E-004  0.6442770E+03  0.7818608E-02  0.9817578E-01
         13   -1    0    0    0    0  0.00000000000E+00  0.00000000000E+00  0.10000000000E+04  0.10000000000E+04  0.00000000000E+00 0. -1.
          2   -1    0    0  501    0 -0.00000000000E+00 -0.00000000000E+00 -0.10377322080E+03  0.10377322080E+03  0.00000000000E+00 0. -1.
    9000006    2    1    2  501    0  0.00000000000E+00  0.00000000000E+00  0.89622677920E+03  0.11037732208E+04  0.64427702364E+03 0.  0.
         13    1    3    3    0    0  0.12077729604E+03  0.98392709538E+02  0.93117693815E+03  0.94411798556E+03  0.00000000000E+00 0. -1.
          4    1    3    3  501    0 -0.12077729604E+03 -0.98392709538E+02 -0.34950158944E+02  0.15965523524E+03  0.00000000000E+00 0. -1.
<mgrwt>
<rscale>  0 0.64427702E+03</rscale>
<asrwt>0</asrwt>
<pdfrwt beam="1">0</pdfrwt>
<pdfrwt beam="2">  1        2 0.37735796E+00 0.64427702E+03</pdfrwt>
<totfact> 0.48363667E+00</totfact>
</mgrwt>
</event>
<event>
 5    1  0.2368666E-004  0.6575603E+03  0.7818608E-02  0.9792695E-01
         13   -1    0    0    0    0  0.00000000000E+00  0.00000000000E+00  0.10000000000E+04  0.10000000000E+04  0.00000000000E+00 0. -1.
          2   -1    0    0  501    0 -0.00000000000E+00 -0.00000000000E+00 -0.10809638780E+03  0.10809638780E+03  0.00000000000E+00 0. -1.
    9000006    2    1    2  501    0  0.00000000000E+00  0.00000000000E+00  0.89190361220E+03  0.11080963878E+04  0.65756030233E+03 0.  0.
         13    1    3    3    0    0  0.11257798419E+03 -0.30614264643E+03  0.51541784717E+03  0.60996121161E+03  0.00000000000E+00 0. -1.
          2    1    3    3  501    0 -0.11257798419E+03  0.30614264643E+03  0.37648576503E+03  0.49813517619E+03  0.00000000000E+00 0. -1.
<mgrwt>
<rscale>  0 0.65756030E+03</rscale>
<asrwt>0</asrwt>
<pdfrwt beam="1">0</pdfrwt>
<pdfrwt beam="2">  1        2 0.39307860E+00 0.65756030E+03</pdfrwt>
<totfact> 0.42249506E+00</totfact>
</mgrwt>
</event>
<event>
 5    1  0.2368666E-004  0.6418836E+03  0.7818608E-02  0.9822129E-01
         13   -1    0    0    0    0  0.00000000000E+00  0.00000000000E+00  0.10000000000E+04  0.10000000000E+04  0.00000000000E+00 0. -1.
          2   -1    0    0  501    0 -0.00000000000E+00 -0.00000000000E+00 -0.10300363843E+03  0.10300363843E+03  0.00000000000E+00 0. -1.
    9000006    2    1    2  501    0  0.00000000000E+00  0.00000000000E+00  0.89699636157E+03  0.11030036384E+04  0.64188359827E+03 0.  0.
         13    1    3    3    0    0  0.67056396156E+02 -0.29486678599E+03  0.26373649394E+03  0.40124795324E+03  0.00000000000E+00 0. -1.
          4    1    3    3  501    0 -0.67056396156E+02  0.29486678599E+03  0.63325986763E+03  0.70175568519E+03  0.00000000000E+00 0. -1.
<mgrwt>
<rscale>  0 0.64188360E+03</rscale>
<asrwt>0</asrwt>
<pdfrwt beam="1">0</pdfrwt>
<pdfrwt beam="2">  1        2 0.37455948E+00 0.64188360E+03</pdfrwt>
<totfact> 0.49532840E+00</totfact>
</mgrwt>
</event>
<event>
 5    1  0.2368666E-004  0.6204808E+03  0.7818608E-02  0.9863803E-01
         13   -1    0    0    0    0  0.00000000000E+00  0.00000000000E+00  0.10000000000E+04  0.10000000000E+04  0.00000000000E+00 0. -1.
          2   -1    0    0  501    0 -0.00000000000E+00 -0.00000000000E+00 -0.96249092506E+02  0.96249092506E+02  0.00000000000E+00 0. -1.
    9000006    2    1    2  501    0  0.00000000000E+00  0.00000000000E+00  0.90375090749E+03  0.10962490925E+04  0.62048075718E+03 0.  0.
         13    1    3    3    0    0 -0.74274127718E+02 -0.17271076697E+03  0.15860050407E+02  0.18867219264E+03  0.00000000000E+00 0. -1.
          4    1    3    3  501    0  0.74274127718E+02  0.17271076697E+03  0.88789085709E+03  0.90757689987E+03  0.00000000000E+00 0. -1.
<mgrwt>
<rscale>  0 0.62048076E+03</rscale>
<asrwt>0</asrwt>
<pdfrwt beam="1">0</pdfrwt>
<pdfrwt beam="2">  1        2 0.34999744E+00 0.62048076E+03</pdfrwt>
<totfact> 0.60967354E+00</totfact>
</mgrwt>
</event>
<event>
 5    1  0.2368666E-004  0.6551553E+03  0.7818608E-02  0.9797153E-01
         13   -1    0    0    0    0  0.00000000000E+00  0.00000000000E+00  0.10000000000E+04  0.10000000000E+04  0.00000000000E+00 0. -1.
          2   -1    0    0  501    0 -0.00000000000E+00 -0.00000000000E+00 -0.10730711437E+03  0.10730711437E+03  0.00000000000E+00 0. -1.
    9000006    2    1    2  501    0  0.00000000000E+00  0.00000000000E+00  0.89269288563E+03  0.11073071144E+04  0.65515529263E+03 0.  0.
         13    1    3    3    0    0 -0.12169920702E+03 -0.28373415717E+03  0.26126716623E+03  0.40444567137E+03  0.00000000000E+00 0. -1.
          2    1    3    3  501    0  0.12169920702E+03  0.28373415717E+03  0.63142571940E+03  0.70286144300E+03  0.00000000000E+00 0. -1.
<mgrwt>
<rscale>  0 0.65515529E+03</rscale>
<asrwt>0</asrwt>
<pdfrwt beam="1">0</pdfrwt>
<pdfrwt beam="2">  1        2 0.39020851E+00 0.65515529E+03</pdfrwt>
<totfact> 0.43310576E+00</totfact>
</mgrwt>
</event>
<event>
 5    1  0.2368666E-004  0.6487188E+03  0.7818608E-02  0.9809186E-01
         13   -1    0    0    0    0  0.00000000000E+00  0.00000000000E+00  0.10000000000E+04  0.10000000000E+04  0.00000000000E+00 0. -1.
          2   -1    0    0  501    0 -0.00000000000E+00 -0.00000000000E+00 -0.10520903203E+03  0.10520903203E+03  0.00000000000E+00 0. -1.
    9000006    2    1    2  501    0  0.00000000000E+00  0.00000000000E+00  0.89479096797E+03  0.11052090320E+04  0.64871883594E+03 0.  0.
         13    1    3    3    0    0  0.31033612453E+03  0.91478039916E+02  0.40808919049E+03  0.52078165230E+03  0.00000000000E+00 0. -1.
          4    1    3    3  501    0 -0.31033612453E+03 -0.91478039916E+02  0.48670177748E+03  0.58442737973E+03  0.00000000000E+00 0. -1.
<mgrwt>
<rscale>  0 0.64871884E+03</rscale>
<asrwt>0</asrwt>
<pdfrwt beam="1">0</pdfrwt>
<pdfrwt beam="2">  1        2 0.38257911E+00 0.64871884E+03</pdfrwt>
<totfact> 0.46249398E+00</totfact>
</mgrwt>
</event>
<event>
 5    1  0.2368666E-004  0.6539109E+03  0.7818608E-02  0.9799468E-01
         13   -1    0    0    0    0  0.00000000000E+00  0.00000000000E+00  0.10000000000E+04  0.10000000000E+04  0.00000000000E+00 0. -1.
          2   -1    0    0  501    0 -0.00000000000E+00 -0.00000000000E+00 -0.10689987862E+03  0.10689987862E+03  0.00000000000E+00 0. -1.
    9000006    2    1    2  501    0  0.00000000000E+00  0.00000000000E+00  0.89310012138E+03  0.11068998786E+04  0.65391093773E+03 0.  0.
         13    1    3    3    0    0 -0.28761557740E+03 -0.15105125295E+03  0.50899069376E+03  0.60383004871E+03  0.00000000000E+00 0. -1.
          2    1    3    3  501    0  0.28761557740E+03  0.15105125295E+03  0.38410942762E+03  0.50306982991E+03  0.00000000000E+00 0. -1.
<mgrwt>
<rscale>  0 0.65391094E+03</rscale>
<asrwt>0</asrwt>
<pdfrwt beam="1">0</pdfrwt>
<pdfrwt beam="2">  1        2 0.38872765E+00 0.65391094E+03</pdfrwt>
<totfact> 0.43867411E+00</totfact>
</mgrwt>
</event>
<event>
 5    1  0.2368666E-004  0.6471504E+03  0.7818608E-02  0.9812141E-01
         13   -1    0    0    0    0  0.00000000000E+00  0.00000000000E+00  0.10000000000E+04  0.10000000000E+04  0.00000000000E+00 0. -1.
          2   -1    0    0  501    0 -0.00000000000E+00 -0.00000000000E+00 -0.10470090786E+03  0.10470090786E+03  0.00000000000E+00 0. -1.
    9000006    2    1    2  501    0  0.00000000000E+00  0.00000000000E+00  0.89529909214E+03  0.11047009079E+04  0.64715039321E+03 0.  0.
         13    1    3    3    0    0 -0.13573382694E+03  0.30227310485E+02 -0.51092192268E+02  0.14814781195E+03  0.00000000000E+00 0. -1.
          2    1    3    3  501    0  0.13573382694E+03 -0.30227310485E+02  0.94639128441E+03  0.95655309590E+03  0.00000000000E+00 0. -1.
<mgrwt>
<rscale>  0 0.64715039E+03</rscale>
<asrwt>0</asrwt>
<pdfrwt beam="1">0</pdfrwt>
<pdfrwt beam="2">  1        2 0.38073138E+00 0.64715039E+03</pdfrwt>
<totfact> 0.46987811E+00</totfact>
</mgrwt>
</event>
<event>
 5    1  0.2368666E-004  0.4815795E+03  0.7818608E-02  0.1018702E+00
         13   -1    0    0    0    0  0.00000000000E+00  0.00000000000E+00  0.10000000000E+04  0.10000000000E+04  0.00000000000E+00 0. -1.
          2   -1    0    0  501    0 -0.00000000000E+00 -0.00000000000E+00 -0.57979711501E+02  0.57979711501E+02  0.00000000000E+00 0. -1.
    9000006    2    1    2  501    0  0.00000000000E+00  0.00000000000E+00  0.94202028850E+03  0.10579797115E+04  0.48157953238E+03 0.  0.
         13    1    3    3    0    0  0.19608864558E+03 -0.10853402029E+03  0.27761696870E+03  0.35679345818E+03  0.00000000000E+00 0. -1.
          4    1    3    3  501    0 -0.19608864558E+03  0.10853402029E+03  0.66440331980E+03  0.70118625333E+03  0.00000000000E+00 0. -1.
<mgrwt>
<rscale>  0 0.48157953E+03</rscale>
<asrwt>0</asrwt>
<pdfrwt beam="1">0</pdfrwt>
<pdfrwt beam="2">  1        2 0.21083576E+00 0.48157953E+03</pdfrwt>
<totfact> 0.19357738E+01</totfact>
</mgrwt>
</event>
<event>
 5    1  0.2368666E-004  0.6522836E+03  0.7818608E-02  0.9802504E-01
         13   -1    0    0    0    0  0.00000000000E+00  0.00000000000E+00  0.10000000000E+04  0.10000000000E+04  0.00000000000E+00 0. -1.
          2   -1    0    0  501    0 -0.00000000000E+00 -0.00000000000E+00 -0.10636846515E+03  0.10636846515E+03  0.00000000000E+00 0. -1.
    9000006    2    1    2  501    0  0.00000000000E+00  0.00000000000E+00  0.89363153485E+03  0.11063684651E+04  0.65228357375E+03 0.  0.
         13    1    3    3    0    0  0.49389211740E+02  0.27654336801E+03  0.16578248914E+03  0.32618915116E+03  0.00000000000E+00 0. -1.
          4    1    3    3  501    0 -0.49389211740E+02 -0.27654336801E+03  0.72784904571E+03  0.78017931399E+03  0.00000000000E+00 0. -1.
<mgrwt>
<rscale>  0 0.65228357E+03</rscale>
<asrwt>0</asrwt>
<pdfrwt beam="1">0</pdfrwt>
<pdfrwt beam="2">  1        2 0.38679523E+00 0.65228357E+03</pdfrwt>
<totfact> 0.44603777E+00</totfact>
</mgrwt>
</event>
<event>
 5    1  0.2368666E-004  0.6489797E+03  0.7818608E-02  0.9808696E-01
         13   -1    0    0    0    0  0.00000000000E+00  0.00000000000E+00  0.10000000000E+04  0.10000000000E+04  0.00000000000E+00 0. -1.
          2   -1    0    0  501    0 -0.00000000000E+00 -0.00000000000E+00 -0.10529366727E+03  0.10529366727E+03  0.00000000000E+00 0. -1.
    9000006    2    1    2  501    0  0.00000000000E+00  0.00000000000E+00  0.89470633273E+03  0.11052936673E+04  0.64897971391E+03 0.  0.
         13    1    3    3    0    0  0.16278757657E+02 -0.24092798284E+03  0.78193665547E+02  0.25382186706E+03  0.00000000000E+00 0. -1.
          4    1    3    3  501    0 -0.16278757657E+02  0.24092798284E+03  0.81651266719E+03  0.85147180020E+03  0.00000000000E+00 0. -1.
<mgrwt>
<rscale>  0 0.64897971E+03</rscale>
<asrwt>0</asrwt>
<pdfrwt beam="1">0</pdfrwt>
<pdfrwt beam="2">  1        2 0.38288687E+00 0.64897971E+03</pdfrwt>
<totfact> 0.46127435E+00</totfact>
</mgrwt>
</event>
<event>
 5    1  0.2368666E-004  0.6073991E+03  0.7818608E-02  0.9890173E-01
         13   -1    0    0    0    0  0.00000000000E+00  0.00000000000E+00  0.10000000000E+04  0.10000000000E+04  0.00000000000E+00 0. -1.
          2   -1    0    0  501    0 -0.00000000000E+00 -0.00000000000E+00 -0.92233409713E+02  0.92233409713E+02  0.00000000000E+00 0. -1.
    9000006    2    1    2  501    0  0.00000000000E+00  0.00000000000E+00  0.90776659029E+03  0.10922334097E+04  0.60739907709E+03 0.  0.
         13    1    3    3    0    0 -0.17866961717E+03  0.20633572101E+03  0.69336424902E+03  0.74515182593E+03  0.00000000000E+00 0. -1.
          4    1    3    3  501    0  0.17866961717E+03 -0.20633572101E+03  0.21440234126E+03  0.34708158378E+03  0.00000000000E+00 0. -1.
<mgrwt>
<rscale>  0 0.60739908E+03</rscale>
<asrwt>0</asrwt>
<pdfrwt beam="1">0</pdfrwt>
<pdfrwt beam="2">  1        2 0.33539492E+00 0.60739908E+03</pdfrwt>
<totfact> 0.68881924E+00</totfact>
</mgrwt>
</event>
<event>
 5    1  0.2368666E-004  0.6495133E+03  0.7818608E-02  0.9807693E-01
         13   -1    0    0    0    0  0.00000000000E+00  0.00000000000E+00  0.10000000000E+04  0.10000000000E+04  0.00000000000E+00 0. -1.
          2   -1    0    0  501    0 -0.00000000000E+00 -0.00000000000E+00 -0.10546689526E+03  0.10546689526E+03  0.00000000000E+00 0. -1.
    9000006    2    1    2  501    0  0.00000000000E+00  0.00000000000E+00  0.89453310474E+03  0.11054668953E+04  0.64951334171E+03 0.  0.
         13    1    3    3    0    0  0.28072125757E+03  0.10642907409E+03  0.23649881704E+03  0.38218223758E+03  0.00000000000E+00 0. -1.
          4    1    3    3  501    0 -0.28072125757E+03 -0.10642907409E+03  0.65803428769E+03  0.72328465768E+03  0.00000000000E+00 0. -1.
<mgrwt>
<rscale>  0 0.64951334E+03</rscale>
<asrwt>0</asrwt>
<pdfrwt beam="1">0</pdfrwt>
<pdfrwt beam="2">  1        2 0.38351679E+00 0.64951334E+03</pdfrwt>
<totfact> 0.45878715E+00</totfact>
</mgrwt>
</event>
<event>
 5    1  0.2368666E-004  0.6531396E+03  0.7818608E-02  0.9800906E-01
         13   -1    0    0    0    0  0.00000000000E+00  0.00000000000E+00  0.10000000000E+04  0.10000000000E+04  0.00000000000E+00 0. -1.
          2   -1    0    0  501    0 -0.00000000000E+00 -0.00000000000E+00 -0.10664784978E+03  0.10664784978E+03  0.00000000000E+00 0. -1.
    9000006    2    1    2  501    0  0.00000000000E+00  0.00000000000E+00  0.89335215022E+03  0.11066478498E+04  0.65313964749E+03 0.  0.
         13    1    3    3    0    0 -0.28755267000E+03  0.15451367388E+03  0.43088709240E+03  0.54057811631E+03  0.00000000000E+00 0. -1.
          4    1    3    3  501    0  0.28755267000E+03 -0.15451367388E+03  0.46246505782E+03  0.56606973347E+03  0.00000000000E+00 0. -1.
<mgrwt>
<rscale>  0 0.65313965E+03</rscale>
<asrwt>0</asrwt>
<pdfrwt beam="1">0</pdfrwt>
<pdfrwt beam="2">  1        2 0.38781118E+00 0.65313965E+03</pdfrwt>
<totfact> 0.44215258E+00</totfact>
</mgrwt>
</event>
<event>
 5    1  0.2368666E-004  0.6519480E+03  0.7818608E-02  0.9803131E-01
         13   -1    0    0    0    0  0.00000000000E+00  0.00000000000E+00  0.10000000000E+04  0.10000000000E+04  0.00000000000E+00 0. -1.
          2   -1    0    0  501    0 -0.00000000000E+00 -0.00000000000E+00 -0.10625903799E+03  0.10625903799E+03  0.00000000000E+00 0. -1.
    9000006    2    1    2  501    0  0.00000000000E+00  0.00000000000E+00  0.89374096201E+03  0.11062590380E+04  0.65194796722E+03 0.  0.
         13    1    3    3    0    0  0.30408214423E+03  0.89851171178E+01  0.64557142205E+03  0.71365898280E+03  0.00000000000E+00 0. -1.
          2    1    3    3  501    0 -0.30408214423E+03 -0.89851171178E+01  0.24816953996E+03  0.39260005519E+03  0.00000000000E+00 0. -1.
<mgrwt>
<rscale>  0 0.65194797E+03</rscale>
<asrwt>0</asrwt>
<pdfrwt beam="1">0</pdfrwt>
<pdfrwt beam="2">  1        2 0.38639732E+00 0.65194797E+03</pdfrwt>
<totfact> 0.44756790E+00</totfact>
</mgrwt>
</event>
<event>
 5    1  0.2368666E-004  0.6457903E+03  0.7818608E-02  0.9814711E-01
         13   -1    0    0    0    0  0.00000000000E+00  0.00000000000E+00  0.10000000000E+04  0.10000000000E+04  0.00000000000E+00 0. -1.
          2   -1    0    0  501    0 -0.00000000000E+00 -0.00000000000E+00 -0.10426128869E+03  0.10426128869E+03  0.00000000000E+00 0. -1.
    9000006    2    1    2  501    0  0.00000000000E+00  0.00000000000E+00  0.89573871131E+03  0.11042612887E+04  0.64579033343E+03 0.  0.
         13    1    3    3    0    0  0.32203882199E+03 -0.12845696160E+01  0.48799411951E+03  0.58467847033E+03  0.00000000000E+00 0. -1.
          4    1    3    3  501    0 -0.32203882199E+03  0.12845696160E+01  0.40774459180E+03  0.51958281836E+03  0.00000000000E+00 0. -1.
<mgrwt>
<rscale>  0 0.64579033E+03</rscale>
<asrwt>0</asrwt>
<pdfrwt beam="1">0</pdfrwt>
<pdfrwt beam="2">  1        2 0.37913276E+00 0.64579033E+03</pdfrwt>
<totfact> 0.47635305E+00</totfact>
</mgrwt>
</event>
<event>
 5    1  0.2368666E-004  0.6611472E+03  0.7818608E-02  0.9786084E-01
         13   -1    0    0    0    0  0.00000000000E+00  0.00000000000E+00  0.10000000000E+04  0.10000000000E+04  0.00000000000E+00 0. -1.
          2   -1    0    0  501    0 -0.00000000000E+00 -0.00000000000E+00 -0.10927889468E+03  0.10927889468E+03  0.00000000000E+00 0. -1.
    9000006    2    1    2  501    0  0.00000000000E+00  0.00000000000E+00  0.89072110532E+03  0.11092788947E+04  0.66114716873E+03 0.  0.
         13    1    3    3    0    0 -0.15610120395E+03  0.25860042971E+03  0.22002678209E+03  0.37370249257E+03  0.00000000000E+00 0. -1.
          2    1    3    3  501    0  0.15610120395E+03 -0.25860042971E+03  0.67069432323E+03  0.73557640211E+03  0.00000000000E+00 0. -1.
<mgrwt>
<rscale>  0 0.66114717E+03</rscale>
<asrwt>0</asrwt>
<pdfrwt beam="1">0</pdfrwt>
<pdfrwt beam="2">  1        2 0.39737864E+00 0.66114717E+03</pdfrwt>
<totfact> 0.40703725E+00</totfact>
</mgrwt>
</event>
<event>
 5    1  0.2368666E-004  0.6410611E+03  0.7818608E-02  0.9823699E-01
         13   -1    0    0    0    0  0.00000000000E+00  0.00000000000E+00  0.10000000000E+04  0.10000000000E+04  0.00000000000E+00 0. -1.
          2   -1    0    0  501    0 -0.00000000000E+00 -0.00000000000E+00 -0.10273982569E+03  0.10273982569E+03  0.00000000000E+00 0. -1.
    9000006    2    1    2  501    0  0.00000000000E+00  0.00000000000E+00  0.89726017431E+03  0.11027398257E+04  0.64106107567E+03 0.  0.
         13    1    3    3    0    0 -0.33063937336E+02 -0.84539687019E+02  0.97742678639E+03  0.98163297896E+03  0.00000000000E+00 0. -1.
          4    1    3    3  501    0  0.33063937336E+02  0.84539687019E+02 -0.80166612072E+02  0.12110684673E+03  0.00000000000E+00 0. -1.
<mgrwt>
<rscale>  0 0.64106108E+03</rscale>
<asrwt>0</asrwt>
<pdfrwt beam="1">0</pdfrwt>
<pdfrwt beam="2">  1        2 0.37360015E+00 0.64106108E+03</pdfrwt>
<totfact> 0.49939560E+00</totfact>
</mgrwt>
</event>
<event>
 5    1  0.2368666E-004  0.6446160E+03  0.7818608E-02  0.9816935E-01
         13   -1    0    0    0    0  0.00000000000E+00  0.00000000000E+00  0.10000000000E+04  0.10000000000E+04  0.00000000000E+00 0. -1.
          2   -1    0    0  501    0 -0.00000000000E+00 -0.00000000000E+00 -0.10388245280E+03  0.10388245280E+03  0.00000000000E+00 0. -1.
    9000006    2    1    2  501    0  0.00000000000E+00  0.00000000000E+00  0.89611754720E+03  0.11038824528E+04  0.64461601843E+03 0.  0.
         13    1    3    3    0    0 -0.19462222446E+03 -0.20720000106E+03  0.70817767264E+03  0.76310239596E+03  0.00000000000E+00 0. -1.
          2    1    3    3  501    0  0.19462222446E+03  0.20720000106E+03  0.18793987456E+03  0.34078005684E+03  0.00000000000E+00 0. -1.
<mgrwt>
<rscale>  0 0.64461602E+03</rscale>
<asrwt>0</asrwt>
<pdfrwt beam="1">0</pdfrwt>
<pdfrwt beam="2">  1        2 0.37775517E+00 0.64461602E+03</pdfrwt>
<totfact> 0.48199780E+00</totfact>
</mgrwt>
</event>
<event>
 5    1  0.2368666E-004  0.6278954E+03  0.7818608E-02  0.9849164E-01
         13   -1    0    0    0    0  0.00000000000E+00  0.00000000000E+00  0.10000000000E+04  0.10000000000E+04  0.00000000000E+00 0. -1.
          2   -1    0    0  501    0 -0.00000000000E+00 -0.00000000000E+00 -0.98563155889E+02  0.98563155889E+02  0.00000000000E+00 0. -1.
    9000006    2    1    2  501    0  0.00000000000E+00  0.00000000000E+00  0.90143684411E+03  0.10985631559E+04  0.62789539221E+03 0.  0.
         13    1    3    3    0    0 -0.14067503855E+03 -0.26751152812E+03  0.30214413189E+03  0.42736747722E+03  0.00000000000E+00 0. -1.
          4    1    3    3  501    0  0.14067503855E+03  0.26751152812E+03  0.59929271222E+03  0.67119567867E+03  0.00000000000E+00 0. -1.
<mgrwt>
<rscale>  0 0.62789539E+03</rscale>
<asrwt>0</asrwt>
<pdfrwt beam="1">0</pdfrwt>
<pdfrwt beam="2">  1        2 0.35841223E+00 0.62789539E+03</pdfrwt>
<totfact> 0.56800789E+00</totfact>
</mgrwt>
</event>
<event>
 5    1  0.2368666E-004  0.6388422E+03  0.7818608E-02  0.9827944E-01
         13   -1    0    0    0    0  0.00000000000E+00  0.00000000000E+00  0.10000000000E+04  0.10000000000E+04  0.00000000000E+00 0. -1.
          2   -1    0    0  501    0 -0.00000000000E+00 -0.00000000000E+00 -0.10202982795E+03  0.10202982795E+03  0.00000000000E+00 0. -1.
    9000006    2    1    2  501    0  0.00000000000E+00  0.00000000000E+00  0.89797017205E+03  0.11020298280E+04  0.63884216502E+03 0.  0.
         13    1    3    3    0    0 -0.15588718608E+02 -0.31425326660E+03  0.35400267451E+03  0.47362011917E+03  0.00000000000E+00 0. -1.
          4    1    3    3  501    0  0.15588718608E+02  0.31425326660E+03  0.54396749754E+03  0.62840970878E+03  0.00000000000E+00 0. -1.
<mgrwt>
<rscale>  0 0.63884217E+03</rscale>
<asrwt>0</asrwt>
<pdfrwt beam="1">0</pdfrwt>
<pdfrwt beam="2">  1        2 0.37101834E+00 0.63884217E+03</pdfrwt>
<totfact> 0.51049382E+00</totfact>
</mgrwt>
</event>
<event>
 5    1  0.2368666E-004  0.6280360E+03  0.7818608E-02  0.9848889E-01
         13   -1    0    0    0    0  0.00000000000E+00  0.00000000000E+00  0.10000000000E+04  0.10000000000E+04  0.00000000000E+00 0. -1.
          2   -1    0    0  501    0 -0.00000000000E+00 -0.00000000000E+00 -0.98607291127E+02  0.98607291127E+02  0.00000000000E+00 0. -1.
    9000006    2    1    2  501    0  0.00000000000E+00  0.00000000000E+00  0.90139270887E+03  0.10986072911E+04  0.62803595797E+03 0.  0.
         13    1    3    3    0    0 -0.24399912213E+03 -0.10843900151E+03  0.16160153840E+03  0.31210518397E+03  0.00000000000E+00 0. -1.
          2    1    3    3  501    0  0.24399912213E+03  0.10843900151E+03  0.73979117047E+03  0.78650210715E+03  0.00000000000E+00 0. -1.
<mgrwt>
<rscale>  0 0.62803596E+03</rscale>
<asrwt>0</asrwt>
<pdfrwt beam="1">0</pdfrwt>
<pdfrwt beam="2">  1        2 0.35857272E+00 0.62803596E+03</pdfrwt>
<totfact> 0.56723957E+00</totfact>
</mgrwt>
</event>
<event>
 5    1  0.2368666E-004  0.6614082E+03  0.7818608E-02  0.9785605E-01
         13   -1    0    0    0    0  0.00000000000E+00  0.00000000000E+00  0.10000000000E+04  0.10000000000E+04  0.00000000000E+00 0. -1.
          2   -1    0    0  501    0 -0.00000000000E+00 -0.00000000000E+00 -0.10936519962E+03  0.10936519962E+03  0.00000000000E+00 0. -1.
    9000006    2    1    2  501    0  0.00000000000E+00  0.00000000000E+00  0.89063480038E+03  0.11093651996E+04  0.66140819354E+03 0.  0.
         13    1    3    3    0    0 -0.98570647857E+02  0.31473668420E+03  0.48605303746E+03  0.58738650668E+03  0.00000000000E+00 0. -1.
          2    1    3    3  501    0  0.98570647857E+02 -0.31473668420E+03  0.40458176292E+03  0.52197869294E+03  0.00000000000E+00 0. -1.
<mgrwt>
<rscale>  0 0.66140819E+03</rscale>
<asrwt>0</asrwt>
<pdfrwt beam="1">0</pdfrwt>
<pdfrwt beam="2">  1        2 0.39769247E+00 0.66140819E+03</pdfrwt>
<totfact> 0.40592928E+00</totfact>
</mgrwt>
</event>
<event>
 5    1  0.2368666E-004  0.6440922E+03  0.7818608E-02  0.9817928E-01
         13   -1    0    0    0    0  0.00000000000E+00  0.00000000000E+00  0.10000000000E+04  0.10000000000E+04  0.00000000000E+00 0. -1.
          2   -1    0    0  501    0 -0.00000000000E+00 -0.00000000000E+00 -0.10371369557E+03  0.10371369557E+03  0.00000000000E+00 0. -1.
    9000006    2    1    2  501    0  0.00000000000E+00  0.00000000000E+00  0.89628630443E+03  0.11037136956E+04  0.64409221566E+03 0.  0.
         13    1    3    3    0    0  0.26507352554E+03 -0.15886354813E+03  0.29285606076E+03  0.42575377062E+03  0.00000000000E+00 0. -1.
          2    1    3    3  501    0 -0.26507352554E+03  0.15886354813E+03  0.60343024367E+03  0.67795992495E+03  0.00000000000E+00 0. -1.
<mgrwt>
<rscale>  0 0.64409222E+03</rscale>
<asrwt>0</asrwt>
<pdfrwt beam="1">0</pdfrwt>
<pdfrwt beam="2">  1        2 0.37714151E+00 0.64409222E+03</pdfrwt>
<totfact> 0.48453190E+00</totfact>
</mgrwt>
</event>
<event>
 5    1  0.2368666E-004  0.6357579E+03  0.7818608E-02  0.9833877E-01
         13   -1    0    0    0    0  0.00000000000E+00  0.00000000000E+00  0.10000000000E+04  0.10000000000E+04  0.00000000000E+00 0. -1.
          2   -1    0    0  501    0 -0.00000000000E+00 -0.00000000000E+00 -0.10104703197E+03  0.10104703197E+03  0.00000000000E+00 0. -1.
    9000006    2    1    2  501    0  0.00000000000E+00  0.00000000000E+00  0.89895296803E+03  0.11010470320E+04  0.63575791610E+03 0.  0.
         13    1    3    3    0    0  0.26251127267E+03 -0.11032549361E+03  0.20477949815E+03  0.35073996875E+03  0.00000000000E+00 0. -1.
          4    1    3    3  501    0 -0.26251127267E+03  0.11032549361E+03  0.69417346988E+03  0.75030706322E+03  0.00000000000E+00 0. -1.
<mgrwt>
<rscale>  0 0.63575792E+03</rscale>
<asrwt>0</asrwt>
<pdfrwt beam="1">0</pdfrwt>
<pdfrwt beam="2">  1        2 0.36744453E+00 0.63575792E+03</pdfrwt>
<totfact> 0.52622929E+00</totfact>
</mgrwt>
</event>
<event>
 5    1  0.2368666E-004  0.6495014E+03  0.7818608E-02  0.9807715E-01
         13   -1    0    0    0    0  0.00000000000E+00  0.00000000000E+00  0.10000000000E+04  0.10000000000E+04  0.00000000000E+00 0. -1.
          2   -1    0    0  501    0 -0.00000000000E+00 -0.00000000000E+00 -0.10546300593E+03  0.10546300593E+03  0.00000000000E+00 0. -1.
    9000006    2    1    2  501    0  0.00000000000E+00  0.00000000000E+00  0.89453699407E+03  0.11054630059E+04  0.64950136544E+03 0.  0.
         13    1    3    3    0    0  0.64750430235E+02  0.30027792080E+03  0.62661595597E+03  0.69785887127E+03  0.00000000000E+00 0. -1.
          4    1    3    3  501    0 -0.64750430235E+02 -0.30027792080E+03  0.26792103810E+03  0.40760413466E+03  0.00000000000E+00 0. -1.
<mgrwt>
<rscale>  0 0.64950137E+03</rscale>
<asrwt>0</asrwt>
<pdfrwt beam="1">0</pdfrwt>
<pdfrwt beam="2">  1        2 0.38350265E+00 0.64950137E+03</pdfrwt>
<totfact> 0.45884286E+00</totfact>
</mgrwt>
</event>
<event>
 5    1  0.2368666E-004  0.6484338E+03  0.7818608E-02  0.9809723E-01
         13   -1    0    0    0    0  0.00000000000E+00  0.00000000000E+00  0.10000000000E+04  0.10000000000E+04  0.00000000000E+00 0. -1.
          2   -1    0    0  501    0 -0.00000000000E+00 -0.00000000000E+00 -0.10511658490E+03  0.10511658490E+03  0.00000000000E+00 0. -1.
    9000006    2    1    2  501    0  0.00000000000E+00  0.00000000000E+00  0.89488341510E+03  0.11051165849E+04  0.64843375884E+03 0.  0.
         13    1    3    3    0    0 -0.17850601570E+03 -0.13222560103E+03  0.84991518282E+03  0.87846674678E+03  0.00000000000E+00 0. -1.
          2    1    3    3  501    0  0.17850601570E+03  0.13222560103E+03  0.44968232282E+02  0.22664983813E+03  0.00000000000E+00 0. -1.
<mgrwt>
<rscale>  0 0.64843376E+03</rscale>
<asrwt>0</asrwt>
<pdfrwt beam="1">0</pdfrwt>
<pdfrwt beam="2">  1        2 0.38224293E+00 0.64843376E+03</pdfrwt>
<totfact> 0.46382954E+00</totfact>
</mgrwt>
</event>
<event>
 5    1  0.2368666E-004  0.6364267E+03  0.7818608E-02  0.9832587E-01
         13   -1    0    0    0    0  0.00000000000E+00  0.00000000000E+00  0.10000000000E+04  0.10000000000E+04  0.00000000000E+00 0. -1.
          2   -1    0    0  501    0 -0.00000000000E+00 -0.00000000000E+00 -0.10125974861E+03  0.10125974861E+03  0.00000000000E+00 0. -1.
    9000006    2    1    2  501    0  0.00000000000E+00  0.00000000000E+00  0.89874025139E+03  0.11012597486E+04  0.63642673925E+03 0.  0.
         13    1    3    3    0    0 -0.38664802321E+02 -0.17658572930E+03  0.90252561998E+03  0.92045096634E+03  0.00000000000E+00 0. -1.
          2    1    3    3  501    0  0.38664802321E+02  0.17658572930E+03 -0.37853685837E+01  0.18080878227E+03  0.00000000000E+00 0. -1.
<mgrwt>
<rscale>  0 0.63642674E+03</rscale>
<asrwt>0</asrwt>
<pdfrwt beam="1">0</pdfrwt>
<pdfrwt beam="2">  1        2 0.36821804E+00 0.63642674E+03</pdfrwt>
<totfact> 0.52278625E+00</totfact>
</mgrwt>
</event>
<event>
 5    1  0.2368666E-004  0.6722044E+03  0.7818608E-02  0.9765984E-01
         13   -1    0    0    0    0  0.00000000000E+00  0.00000000000E+00  0.10000000000E+04  0.10000000000E+04  0.00000000000E+00 0. -1.
          2   -1    0    0  501    0 -0.00000000000E+00 -0.00000000000E+00 -0.11296467355E+03  0.11296467355E+03  0.00000000000E+00 0. -1.
    9000006    2    1    2  501    0  0.00000000000E+00  0.00000000000E+00  0.88703532645E+03  0.11129646735E+04  0.67220435448E+03 0.  0.
         13    1    3    3    0    0 -0.79375083179E+02 -0.15639933107E+03  0.91822425546E+03  0.93482454926E+03  0.00000000000E+00 0. -1.
          4    1    3    3  501    0  0.79375083179E+02  0.15639933107E+03 -0.31188929002E+02  0.17814012429E+03  0.00000000000E+00 0. -1.
<mgrwt>
<rscale>  0 0.67220435E+03</rscale>
<asrwt>0</asrwt>
<pdfrwt beam="1">0</pdfrwt>
<pdfrwt beam="2">  1        2 0.41078150E+00 0.67220435E+03</pdfrwt>
<totfact> 0.36205975E+00</totfact>
</mgrwt>
</event>
<event>
 5    1  0.2368666E-004  0.6794243E+03  0.7818608E-02  0.9753081E-01
         13   -1    0    0    0    0  0.00000000000E+00  0.00000000000E+00  0.10000000000E+04  0.10000000000E+04  0.00000000000E+00 0. -1.
          2   -1    0    0  501    0 -0.00000000000E+00 -0.00000000000E+00 -0.11540434486E+03  0.11540434486E+03  0.00000000000E+00 0. -1.
    9000006    2    1    2  501    0  0.00000000000E+00  0.00000000000E+00  0.88459565514E+03  0.11154043449E+04  0.67942430001E+03 0.  0.
         13    1    3    3    0    0 -0.74827650537E+02 -0.32102216390E+03  0.57717583572E+03  0.66467010790E+03  0.00000000000E+00 0. -1.
          4    1    3    3  501    0  0.74827650537E+02  0.32102216390E+03  0.30741981942E+03  0.45073423696E+03  0.00000000000E+00 0. -1.
<mgrwt>
<rscale>  0 0.67942430E+03</rscale>
<asrwt>0</asrwt>
<pdfrwt beam="1">0</pdfrwt>
<pdfrwt beam="2">  1        2 0.41965305E+00 0.67942430E+03</pdfrwt>
<totfact> 0.33478596E+00</totfact>
</mgrwt>
</event>
<event>
 5    1  0.2368666E-004  0.6498863E+03  0.7818608E-02  0.9806993E-01
         13   -1    0    0    0    0  0.00000000000E+00  0.00000000000E+00  0.10000000000E+04  0.10000000000E+04  0.00000000000E+00 0. -1.
          2   -1    0    0  501    0 -0.00000000000E+00 -0.00000000000E+00 -0.10558805774E+03  0.10558805774E+03  0.00000000000E+00 0. -1.
    9000006    2    1    2  501    0  0.00000000000E+00  0.00000000000E+00  0.89441194226E+03  0.11055880577E+04  0.64988632157E+03 0.  0.
         13    1    3    3    0    0 -0.29259327894E+03  0.64906327592E+02  0.23360921212E+03  0.37999595028E+03  0.00000000000E+00 0. -1.
          4    1    3    3  501    0  0.29259327894E+03 -0.64906327592E+02  0.66080273014E+03  0.72559210746E+03  0.00000000000E+00 0. -1.
<mgrwt>
<rscale>  0 0.64988632E+03</rscale>
<asrwt>0</asrwt>
<pdfrwt beam="1">0</pdfrwt>
<pdfrwt beam="2">  1        2 0.38395738E+00 0.64988632E+03</pdfrwt>
<totfact> 0.45705475E+00</totfact>
</mgrwt>
</event>
<event>
 5    1  0.2368666E-004  0.6503033E+03  0.7818608E-02  0.9806210E-01
         13   -1    0    0    0    0  0.00000000000E+00  0.00000000000E+00  0.10000000000E+04  0.10000000000E+04  0.00000000000E+00 0. -1.
          2   -1    0    0  501    0 -0.00000000000E+00 -0.00000000000E+00 -0.10572359393E+03  0.10572359393E+03  0.00000000000E+00 0. -1.
    9000006    2    1    2  501    0  0.00000000000E+00  0.00000000000E+00  0.89427640607E+03  0.11057235939E+04  0.65030329518E+03 0.  0.
         13    1    3    3    0    0  0.25663208937E+03 -0.16422134948E+03  0.64021933241E+03  0.70902008047E+03  0.00000000000E+00 0. -1.
          4    1    3    3  501    0 -0.25663208937E+03  0.16422134948E+03  0.25405707366E+03  0.39670351346E+03  0.00000000000E+00 0. -1.
<mgrwt>
<rscale>  0 0.65030330E+03</rscale>
<asrwt>0</asrwt>
<pdfrwt beam="1">0</pdfrwt>
<pdfrwt beam="2">  1        2 0.38445024E+00 0.65030330E+03</pdfrwt>
<totfact> 0.45512386E+00</totfact>
</mgrwt>
</event>
<event>
 5    1  0.2368666E-004  0.6439087E+03  0.7818608E-02  0.9818277E-01
         13   -1    0    0    0    0  0.00000000000E+00  0.00000000000E+00  0.10000000000E+04  0.10000000000E+04  0.00000000000E+00 0. -1.
          2   -1    0    0  501    0 -0.00000000000E+00 -0.00000000000E+00 -0.10365460028E+03  0.10365460028E+03  0.00000000000E+00 0. -1.
    9000006    2    1    2  501    0  0.00000000000E+00  0.00000000000E+00  0.89634539972E+03  0.11036546003E+04  0.64390869004E+03 0.  0.
         13    1    3    3    0    0 -0.76955032020E+01  0.25195722370E+03  0.79145477113E+03  0.83062766514E+03  0.00000000000E+00 0. -1.
          2    1    3    3  501    0  0.76955032020E+01 -0.25195722370E+03  0.10489062859E+03  0.27302693514E+03  0.00000000000E+00 0. -1.
<mgrwt>
<rscale>  0 0.64390869E+03</rscale>
<asrwt>0</asrwt>
<pdfrwt beam="1">0</pdfrwt>
<pdfrwt beam="2">  1        2 0.37692661E+00 0.64390869E+03</pdfrwt>
<totfact> 0.48542216E+00</totfact>
</mgrwt>
</event>
<event>
 5    1  0.2368666E-004  0.6686838E+03  0.7818608E-02  0.9772338E-01
         13   -1    0    0    0    0  0.00000000000E+00  0.00000000000E+00  0.10000000000E+04  0.10000000000E+04  0.00000000000E+00 0. -1.
          2   -1    0    0  501    0 -0.00000000000E+00 -0.00000000000E+00 -0.11178450856E+03  0.11178450856E+03  0.00000000000E+00 0. -1.
    9000006    2    1    2  501    0  0.00000000000E+00  0.00000000000E+00  0.88821549144E+03  0.11117845086E+04  0.66868380738E+03 0.  0.
         13    1    3    3    0    0 -0.26266258069E+03 -0.18724321002E+03  0.59031530163E+03  0.67269889723E+03  0.00000000000E+00 0. -1.
          4    1    3    3  501    0  0.26266258069E+03  0.18724321002E+03  0.29790018981E+03  0.43908561133E+03  0.00000000000E+00 0. -1.
<mgrwt>
<rscale>  0 0.66868381E+03</rscale>
<asrwt>0</asrwt>
<pdfrwt beam="1">0</pdfrwt>
<pdfrwt beam="2">  1        2 0.40648998E+00 0.66868381E+03</pdfrwt>
<totfact> 0.37595117E+00</totfact>
</mgrwt>
</event>
<event>
 5    1  0.2368666E-004  0.5110323E+03  0.7818608E-02  0.1010939E+00
         13   -1    0    0    0    0  0.00000000000E+00  0.00000000000E+00  0.10000000000E+04  0.10000000000E+04  0.00000000000E+00 0. -1.
          2   -1    0    0  501    0 -0.00000000000E+00 -0.00000000000E+00 -0.65288500753E+02  0.65288500753E+02  0.00000000000E+00 0. -1.
    9000006    2    1    2  501    0  0.00000000000E+00  0.00000000000E+00  0.93471149925E+03  0.10652885008E+04  0.51103229156E+03 0.  0.
         13    1    3    3    0    0  0.44479682742E+02 -0.12484474422E+03  0.92274903655E+03  0.93221801999E+03  0.00000000000E+00 0. -1.
          4    1    3    3  501    0 -0.44479682742E+02  0.12484474422E+03  0.11962462697E+02  0.13307048076E+03  0.00000000000E+00 0. -1.
<mgrwt>
<rscale>  0 0.51103229E+03</rscale>
<asrwt>0</asrwt>
<pdfrwt beam="1">0</pdfrwt>
<pdfrwt beam="2">  1        2 0.23741323E+00 0.51103229E+03</pdfrwt>
<totfact> 0.15475738E+01</totfact>
</mgrwt>
</event>
<event>
 5    1  0.2368666E-004  0.6498293E+03  0.7818608E-02  0.9807099E-01
         13   -1    0    0    0    0  0.00000000000E+00  0.00000000000E+00  0.10000000000E+04  0.10000000000E+04  0.00000000000E+00 0. -1.
          2   -1    0    0  501    0 -0.00000000000E+00 -0.00000000000E+00 -0.10556954321E+03  0.10556954321E+03  0.00000000000E+00 0. -1.
    9000006    2    1    2  501    0  0.00000000000E+00  0.00000000000E+00  0.89443045679E+03  0.11055695432E+04  0.64982934132E+03 0.  0.
         13    1    3    3    0    0  0.11179263375E+03 -0.18500963585E+03  0.85991627731E+03  0.88666913914E+03  0.00000000000E+00 0. -1.
          4    1    3    3  501    0 -0.11179263375E+03  0.18500963585E+03  0.34514179481E+02  0.21890040407E+03  0.00000000000E+00 0. -1.
<mgrwt>
<rscale>  0 0.64982934E+03</rscale>
<asrwt>0</asrwt>
<pdfrwt beam="1">0</pdfrwt>
<pdfrwt beam="2">  1        2 0.38389006E+00 0.64982934E+03</pdfrwt>
<totfact> 0.45731909E+00</totfact>
</mgrwt>
</event>
<event>
 5    1  0.2368666E-004  0.6564518E+03  0.7818608E-02  0.9794748E-01
         13   -1    0    0    0    0  0.00000000000E+00  0.00000000000E+00  0.10000000000E+04  0.10000000000E+04  0.00000000000E+00 0. -1.
          2   -1    0    0  501    0 -0.00000000000E+00 -0.00000000000E+00 -0.10773225042E+03  0.10773225042E+03  0.00000000000E+00 0. -1.
    9000006    2    1    2  501    0  0.00000000000E+00  0.00000000000E+00  0.89226774958E+03  0.11077322504E+04  0.65645182740E+03 0.  0.
         13    1    3    3    0    0 -0.13415780390E+03 -0.22515525023E+03  0.77954611841E+03  0.82242650357E+03  0.00000000000E+00 0. -1.
          2    1    3    3  501    0  0.13415780390E+03  0.22515525023E+03  0.11272163117E+03  0.28530574685E+03  0.00000000000E+00 0. -1.
<mgrwt>
<rscale>  0 0.65645183E+03</rscale>
<asrwt>0</asrwt>
<pdfrwt beam="1">0</pdfrwt>
<pdfrwt beam="2">  1        2 0.39175446E+00 0.65645183E+03</pdfrwt>
<totfact> 0.42736087E+00</totfact>
</mgrwt>
</event>
<event>
 5    1  0.2368666E-004  0.6159434E+03  0.7818608E-02  0.9872870E-01
         13   -1    0    0    0    0  0.00000000000E+00  0.00000000000E+00  0.10000000000E+04  0.10000000000E+04  0.00000000000E+00 0. -1.
          2   -1    0    0  501    0 -0.00000000000E+00 -0.00000000000E+00 -0.94846567661E+02  0.94846567661E+02  0.00000000000E+00 0. -1.
    9000006    2    1    2  501    0  0.00000000000E+00  0.00000000000E+00  0.90515343234E+03  0.10948465677E+04  0.61594339890E+03 0.  0.
         13    1    3    3    0    0 -0.22323648698E+03 -0.13413428809E+03  0.16039342286E+03  0.30586367299E+03  0.00000000000E+00 0. -1.
          2    1    3    3  501    0  0.22323648698E+03  0.13413428809E+03  0.74476000948E+03  0.78898289467E+03  0.00000000000E+00 0. -1.
<mgrwt>
<rscale>  0 0.61594340E+03</rscale>
<asrwt>0</asrwt>
<pdfrwt beam="1">0</pdfrwt>
<pdfrwt beam="2">  1        2 0.34489734E+00 0.61594340E+03</pdfrwt>
<totfact> 0.63629302E+00</totfact>
</mgrwt>
</event>
<event>
 5    1  0.2368666E-004  0.6635352E+03  0.7818608E-02  0.9781708E-01
         13   -1    0    0    0    0  0.00000000000E+00  0.00000000000E+00  0.10000000000E+04  0.10000000000E+04  0.00000000000E+00 0. -1.
          2   -1    0    0  501    0 -0.00000000000E+00 -0.00000000000E+00 -0.11006973156E+03  0.11006973156E+03  0.00000000000E+00 0. -1.
    9000006    2    1    2  501    0  0.00000000000E+00  0.00000000000E+00  0.88993026844E+03  0.11100697316E+04  0.66353517332E+03 0.  0.
         13    1    3    3    0    0 -0.96351324423E+02  0.12842507856E+03 -0.40750923146E+02  0.16564183124E+03  0.00000000000E+00 0. -1.
          2    1    3    3  501    0  0.96351324423E+02 -0.12842507856E+03  0.93068119159E+03  0.94442790032E+03  0.00000000000E+00 0. -1.
<mgrwt>
<rscale>  0 0.66353517E+03</rscale>
<asrwt>0</asrwt>
<pdfrwt beam="1">0</pdfrwt>
<pdfrwt beam="2">  1        2 0.40025441E+00 0.66353517E+03</pdfrwt>
<totfact> 0.39698550E+00</totfact>
</mgrwt>
</event>
<event>
 5    1  0.2368666E-004  0.6328965E+03  0.7818608E-02  0.9839413E-01
         13   -1    0    0    0    0  0.00000000000E+00  0.00000000000E+00  0.10000000000E+04  0.10000000000E+04  0.00000000000E+00 0. -1.
          2   -1    0    0  501    0 -0.00000000000E+00 -0.00000000000E+00 -0.10013950099E+03  0.10013950099E+03  0.00000000000E+00 0. -1.
    9000006    2    1    2  501    0  0.00000000000E+00  0.00000000000E+00  0.89986049901E+03  0.11001395010E+04  0.63289651916E+03 0.  0.
         13    1    3    3    0    0 -0.22162982994E+03  0.22124287392E+03  0.52904138617E+03  0.61477880499E+03  0.00000000000E+00 0. -1.
          4    1    3    3  501    0  0.22162982994E+03 -0.22124287392E+03  0.37081911284E+03  0.48536069600E+03  0.00000000000E+00 0. -1.
<mgrwt>
<rscale>  0 0.63289652E+03</rscale>
<asrwt>0</asrwt>
<pdfrwt beam="1">0</pdfrwt>
<pdfrwt beam="2">  1        2 0.36414441E+00 0.63289652E+03</pdfrwt>
<totfact> 0.54115398E+00</totfact>
</mgrwt>
</event>
<event>
 5    1  0.2368666E-004  0.6406096E+03  0.7818608E-02  0.9824561E-01
         13   -1    0    0    0    0  0.00000000000E+00  0.00000000000E+00  0.10000000000E+04  0.10000000000E+04  0.00000000000E+00 0. -1.
          2   -1    0    0  501    0 -0.00000000000E+00 -0.00000000000E+00 -0.10259515096E+03  0.10259515096E+03  0.00000000000E+00 0. -1.
    9000006    2    1    2  501    0  0.00000000000E+00  0.00000000000E+00  0.89740484904E+03  0.11025951510E+04  0.64060955648E+03 0.  0.
         13    1    3    3    0    0 -0.17746470370E+03 -0.15437082303E+03  0.74488087407E+02  0.24672362519E+03  0.00000000000E+00 0. -1.
          4    1    3    3  501    0  0.17746470370E+03  0.15437082303E+03  0.82291676163E+03  0.85587152578E+03  0.00000000000E+00 0. -1.
<mgrwt>
<rscale>  0 0.64060956E+03</rscale>
<asrwt>0</asrwt>
<pdfrwt beam="1">0</pdfrwt>
<pdfrwt beam="2">  1        2 0.37307406E+00 0.64060956E+03</pdfrwt>
<totfact> 0.50163898E+00</totfact>
</mgrwt>
</event>
<event>
 5    1  0.2368666E-004  0.6531610E+03  0.7818608E-02  0.9800866E-01
         13   -1    0    0    0    0  0.00000000000E+00  0.00000000000E+00  0.10000000000E+04  0.10000000000E+04  0.00000000000E+00 0. -1.
          2   -1    0    0  501    0 -0.00000000000E+00 -0.00000000000E+00 -0.10665481626E+03  0.10665481626E+03  0.00000000000E+00 0. -1.
    9000006    2    1    2  501    0  0.00000000000E+00  0.00000000000E+00  0.89334518374E+03  0.11066548163E+04  0.65316097942E+03 0.  0.
         13    1    3    3    0    0 -0.30398740419E+03  0.11614964199E+03  0.49325015034E+03  0.59092706153E+03  0.00000000000E+00 0. -1.
          4    1    3    3  501    0  0.30398740419E+03 -0.11614964199E+03  0.40009503341E+03  0.51572775473E+03  0.00000000000E+00 0. -1.
<mgrwt>
<rscale>  0 0.65316098E+03</rscale>
<asrwt>0</asrwt>
<pdfrwt beam="1">0</pdfrwt>
<pdfrwt beam="2">  1        2 0.38783651E+00 0.65316098E+03</pdfrwt>
<totfact> 0.44205610E+00</totfact>
</mgrwt>
</event>
<event>
 5    1  0.2368666E-004  0.6856242E+03  0.7818608E-02  0.9742138E-01
         13   -1    0    0    0    0  0.00000000000E+00  0.00000000000E+00  0.10000000000E+04  0.10000000000E+04  0.00000000000E+00 0. -1.
          2   -1    0    0  501    0 -0.00000000000E+00 -0.00000000000E+00 -0.11752013429E+03  0.11752013429E+03  0.00000000000E+00 0. -1.
    9000006    2    1    2  501    0  0.00000000000E+00  0.00000000000E+00  0.88247986571E+03  0.11175201343E+04  0.68562419528E+03 0.  0.
         13    1    3    3    0    0 -0.20628100334E+03  0.72113822496E+01 -0.48858441667E+01  0.20646483441E+03  0.00000000000E+00 0. -1.
          2    1    3    3  501    0  0.20628100334E+03 -0.72113822496E+01  0.88736570988E+03  0.91105529988E+03  0.00000000000E+00 0. -1.
<mgrwt>
<rscale>  0 0.68562420E+03</rscale>
<asrwt>0</asrwt>
<pdfrwt beam="1">0</pdfrwt>
<pdfrwt beam="2">  1        2 0.42734684E+00 0.68562420E+03</pdfrwt>
<totfact> 0.31262636E+00</totfact>
</mgrwt>
</event>
<event>
 5    1  0.2368666E-004  0.6483782E+03  0.7818608E-02  0.9809827E-01
         13   -1    0    0    0    0  0.00000000000E+00  0.00000000000E+00  0.10000000000E+04  0.10000000000E+04  0.00000000000E+00 0. -1.
          2   -1    0    0  501    0 -0.00000000000E+00 -0.00000000000E+00 -0.10509858763E+03  0.10509858763E+03  0.00000000000E+00 0. -1.
    9000006    2    1    2  501    0  0.00000000000E+00  0.00000000000E+00  0.89490141237E+03  0.11050985876E+04  0.64837824650E+03 0.  0.
         13    1    3    3    0    0  0.12766731771E+03  0.45115137641E+02 -0.54594751169E+02  0.14599625512E+03  0.00000000000E+00 0. -1.
          4    1    3    3  501    0 -0.12766731771E+03 -0.45115137641E+02  0.94949616354E+03  0.95910233251E+03  0.00000000000E+00 0. -1.
<mgrwt>
<rscale>  0 0.64837825E+03</rscale>
<asrwt>0</asrwt>
<pdfrwt beam="1">0</pdfrwt>
<pdfrwt beam="2">  1        2 0.38217749E+00 0.64837825E+03</pdfrwt>
<totfact> 0.46408995E+00</totfact>
</mgrwt>
</event>
<event>
 5    1  0.2368666E-004  0.6505973E+03  0.7818608E-02  0.9805659E-01
         13   -1    0    0    0    0  0.00000000000E+00  0.00000000000E+00  0.10000000000E+04  0.10000000000E+04  0.00000000000E+00 0. -1.
          2   -1    0    0  501    0 -0.00000000000E+00 -0.00000000000E+00 -0.10581919598E+03  0.10581919598E+03  0.00000000000E+00 0. -1.
    9000006    2    1    2  501    0  0.00000000000E+00  0.00000000000E+00  0.89418080402E+03  0.11058191960E+04  0.65059725171E+03 0.  0.
         13    1    3    3    0    0  0.19319604546E+03 -0.21981506599E+03  0.68851832925E+03  0.74813158263E+03  0.00000000000E+00 0. -1.
          4    1    3    3  501    0 -0.19319604546E+03  0.21981506599E+03  0.20566247476E+03  0.35768761335E+03  0.00000000000E+00 0. -1.
<mgrwt>
<rscale>  0 0.65059725E+03</rscale>
<asrwt>0</asrwt>
<pdfrwt beam="1">0</pdfrwt>
<pdfrwt beam="2">  1        2 0.38479789E+00 0.65059725E+03</pdfrwt>
<totfact> 0.45376635E+00</totfact>
</mgrwt>
</event>
<event>
 5    1  0.2368666E-004  0.6521269E+03  0.7818608E-02  0.9802796E-01
         13   -1    0    0    0    0  0.00000000000E+00  0.00000000000E+00  0.10000000000E+04  0.10000000000E+04  0.00000000000E+00 0. -1.
          2   -1    0    0  501    0 -0.00000000000E+00 -0.00000000000E+00 -0.10631738334E+03  0.10631738334E+03  0.00000000000E+00 0. -1.
    9000006    2    1    2  501    0  0.00000000000E+00  0.00000000000E+00  0.89368261666E+03  0.11063173833E+04  0.65212693041E+03 0.  0.
         13    1    3    3    0    0  0.34927264546E+02  0.21820085120E+03  0.40090794489E+02  0.22458583454E+03  0.00000000000E+00 0. -1.
          4    1    3    3  501    0 -0.34927264546E+02 -0.21820085120E+03  0.85359182217E+03  0.88173154880E+03  0.00000000000E+00 0. -1.
<mgrwt>
<rscale>  0 0.65212693E+03</rscale>
<asrwt>0</asrwt>
<pdfrwt beam="1">0</pdfrwt>
<pdfrwt beam="2">  1        2 0.38660948E+00 0.65212693E+03</pdfrwt>
<totfact> 0.44675146E+00</totfact>
</mgrwt>
</event>
<event>
 5    1  0.2368666E-004  0.6563996E+03  0.7818608E-02  0.9794844E-01
         13   -1    0    0    0    0  0.00000000000E+00  0.00000000000E+00  0.10000000000E+04  0.10000000000E+04  0.00000000000E+00 0. -1.
          2   -1    0    0  501    0 -0.00000000000E+00 -0.00000000000E+00 -0.10771511023E+03  0.10771511023E+03  0.00000000000E+00 0. -1.
    9000006    2    1    2  501    0  0.00000000000E+00  0.00000000000E+00  0.89228488977E+03  0.11077151102E+04  0.65639960459E+03 0.  0.
         13    1    3    3    0    0 -0.10853184320E+03  0.51690004140E+02  0.96150991677E+03  0.96899553021E+03  0.00000000000E+00 0. -1.
          4    1    3    3  501    0  0.10853184320E+03 -0.51690004140E+02 -0.69225027001E+02  0.13871958002E+03  0.00000000000E+00 0. -1.
<mgrwt>
<rscale>  0 0.65639960E+03</rscale>
<asrwt>0</asrwt>
<pdfrwt beam="1">0</pdfrwt>
<pdfrwt beam="2">  1        2 0.39169214E+00 0.65639960E+03</pdfrwt>
<totfact> 0.42759115E+00</totfact>
</mgrwt>
</event>
<event>
 5    1  0.2368666E-004  0.6530907E+03  0.7818608E-02  0.9800997E-01
         13   -1    0    0    0    0  0.00000000000E+00  0.00000000000E+00  0.10000000000E+04  0.10000000000E+04  0.00000000000E+00 0. -1.
          2   -1    0    0  501    0 -0.00000000000E+00 -0.00000000000E+00 -0.10663188024E+03  0.10663188024E+03  0.00000000000E+00 0. -1.
    9000006    2    1    2  501    0  0.00000000000E+00  0.00000000000E+00  0.89336811976E+03  0.11066318802E+04  0.65309074482E+03 0.  0.
         13    1    3    3    0    0 -0.28431858898E+03 -0.36072090226E+02  0.18149465054E+03  0.33923231554E+03  0.00000000000E+00 0. -1.
          2    1    3    3  501    0  0.28431858898E+03  0.36072090226E+02  0.71187346922E+03  0.76739956471E+03  0.00000000000E+00 0. -1.
<mgrwt>
<rscale>  0 0.65309074E+03</rscale>
<asrwt>0</asrwt>
<pdfrwt beam="1">0</pdfrwt>
<pdfrwt beam="2">  1        2 0.38775311E+00 0.65309074E+03</pdfrwt>
<totfact> 0.44237383E+00</totfact>
</mgrwt>
</event>
<event>
 5    1  0.2368666E-004  0.6323512E+03  0.7818608E-02  0.9840471E-01
         13   -1    0    0    0    0  0.00000000000E+00  0.00000000000E+00  0.10000000000E+04  0.10000000000E+04  0.00000000000E+00 0. -1.
          2   -1    0    0  501    0 -0.00000000000E+00 -0.00000000000E+00 -0.99967014264E+02  0.99967014264E+02  0.00000000000E+00 0. -1.
    9000006    2    1    2  501    0  0.00000000000E+00  0.00000000000E+00  0.90003298574E+03  0.10999670143E+04  0.63235121337E+03 0.  0.
         13    1    3    3    0    0 -0.16314329534E+03 -0.26049430159E+03  0.57894993148E+03  0.65548153226E+03  0.00000000000E+00 0. -1.
          2    1    3    3  501    0  0.16314329534E+03  0.26049430159E+03  0.32108305426E+03  0.44448548200E+03  0.00000000000E+00 0. -1.
<mgrwt>
<rscale>  0 0.63235121E+03</rscale>
<asrwt>0</asrwt>
<pdfrwt beam="1">0</pdfrwt>
<pdfrwt beam="2">  1        2 0.36351718E+00 0.63235121E+03</pdfrwt>
<totfact> 0.54403425E+00</totfact>
</mgrwt>
</event>
<event>
 5    1  0.2368666E-004  0.6089413E+03  0.7818608E-02  0.9887027E-01
         13   -1    0    0    0    0  0.00000000000E+00  0.00000000000E+00  0.10000000000E+04  0.10000000000E+04  0.00000000000E+00 0. -1.
          2   -1    0    0  501    0 -0.00000000000E+00 -0.00000000000E+00 -0.92702369203E+02  0.92702369203E+02  0.00000000000E+00 0. -1.
    9000006    2    1    2  501    0  0.00000000000E+00  0.00000000000E+00  0.90729763080E+03  0.10927023692E+04  0.60894127534E+03 0.  0.
         13    1    3    3    0    0 -0.27305760480E+03 -0.13404005248E+03  0.47739895938E+03  0.56607151282E+03  0.00000000000E+00 0. -1.
          2    1    3    3  501    0  0.27305760480E+03  0.13404005248E+03  0.42989867142E+03  0.52663085639E+03  0.00000000000E+00 0. -1.
<mgrwt>
<rscale>  0 0.60894128E+03</rscale>
<asrwt>0</asrwt>
<pdfrwt beam="1">0</pdfrwt>
<pdfrwt beam="2">  1        2 0.33710024E+00 0.60894128E+03</pdfrwt>
<totfact> 0.67910166E+00</totfact>
</mgrwt>
</event>
<event>
 5    1  0.2368666E-004  0.6562303E+03  0.7818608E-02  0.9795158E-01
         13   -1    0    0    0    0  0.00000000000E+00  0.00000000000E+00  0.10000000000E+04  0.10000000000E+04  0.00000000000E+00 0. -1.
          2   -1    0    0  501    0 -0.00000000000E+00 -0.00000000000E+00 -0.10765954140E+03  0.10765954140E+03  0.00000000000E+00 0. -1.
    9000006    2    1    2  501    0  0.00000000000E+00  0.00000000000E+00  0.89234045860E+03  0.11076595414E+04  0.65623026874E+03 0.  0.
         13    1    3    3    0    0 -0.84011339315E+01  0.13691471149E+03 -0.56939173674E+02  0.14852032444E+03  0.00000000000E+00 0. -1.
          4    1    3    3  501    0  0.84011339315E+01 -0.13691471149E+03  0.94927963227E+03  0.95913921696E+03  0.00000000000E+00 0. -1.
<mgrwt>
<rscale>  0 0.65623027E+03</rscale>
<asrwt>0</asrwt>
<pdfrwt beam="1">0</pdfrwt>
<pdfrwt beam="2">  1        2 0.39149007E+00 0.65623027E+03</pdfrwt>
<totfact> 0.42833849E+00</totfact>
</mgrwt>
</event>
<event>
 5    1  0.2368666E-004  0.6561677E+03  0.7818608E-02  0.9795274E-01
         13   -1    0    0    0    0  0.00000000000E+00  0.00000000000E+00  0.10000000000E+04  0.10000000000E+04  0.00000000000E+00 0. -1.
          2   -1    0    0  501    0 -0.00000000000E+00 -0.00000000000E+00 -0.10763899731E+03  0.10763899731E+03  0.00000000000E+00 0. -1.
    9000006    2    1    2  501    0  0.00000000000E+00  0.00000000000E+00  0.89236100269E+03  0.11076389973E+04  0.65616765331E+03 0.  0.
         13    1    3    3    0    0  0.50859953262E+02  0.10866598578E+03 -0.69278097687E+02  0.13854416672E+03  0.00000000000E+00 0. -1.
          2    1    3    3  501    0 -0.50859953262E+02 -0.10866598578E+03  0.96163910038E+03  0.96909483059E+03  0.00000000000E+00 0. -1.
<mgrwt>
<rscale>  0 0.65616765E+03</rscale>
<asrwt>0</asrwt>
<pdfrwt beam="1">0</pdfrwt>
<pdfrwt beam="2">  1        2 0.39141536E+00 0.65616765E+03</pdfrwt>
<totfact> 0.42861508E+00</totfact>
</mgrwt>
</event>
<event>
 5    1  0.2368666E-004  0.6578054E+03  0.7818608E-02  0.9792242E-01
         13   -1    0    0    0    0  0.00000000000E+00  0.00000000000E+00  0.10000000000E+04  0.10000000000E+04  0.00000000000E+00 0. -1.
          2   -1    0    0  501    0 -0.00000000000E+00 -0.00000000000E+00 -0.10817697184E+03  0.10817697184E+03  0.00000000000E+00 0. -1.
    9000006    2    1    2  501    0  0.00000000000E+00  0.00000000000E+00  0.89182302816E+03  0.11081769718E+04  0.65780535673E+03 0.  0.
         13    1    3    3    0    0 -0.19098121985E+03  0.26660275903E+03  0.48806549101E+03  0.58801256872E+03  0.00000000000E+00 0. -1.
          4    1    3    3  501    0  0.19098121985E+03 -0.26660275903E+03  0.40375753716E+03  0.52016440312E+03  0.00000000000E+00 0. -1.
<mgrwt>
<rscale>  0 0.65780536E+03</rscale>
<asrwt>0</asrwt>
<pdfrwt beam="1">0</pdfrwt>
<pdfrwt beam="2">  1        2 0.39337164E+00 0.65780536E+03</pdfrwt>
<totfact> 0.42142503E+00</totfact>
</mgrwt>
</event>
<event>
 5    1  0.2368666E-004  0.6382963E+03  0.7818608E-02  0.9828992E-01
         13   -1    0    0    0    0  0.00000000000E+00  0.00000000000E+00  0.10000000000E+04  0.10000000000E+04  0.00000000000E+00 0. -1.
          2   -1    0    0  501    0 -0.00000000000E+00 -0.00000000000E+00 -0.10185555730E+03  0.10185555730E+03  0.00000000000E+00 0. -1.
    9000006    2    1    2  501    0  0.00000000000E+00  0.00000000000E+00  0.89814444270E+03  0.11018555573E+04  0.63829634905E+03 0.  0.
         13    1    3    3    0    0  0.40383704754E+02  0.23994936237E+03  0.80556999328E+03  0.84151622336E+03  0.00000000000E+00 0. -1.
          2    1    3    3  501    0 -0.40383704754E+02 -0.23994936237E+03  0.92574449416E+02  0.26033933394E+03  0.00000000000E+00 0. -1.
<mgrwt>
<rscale>  0 0.63829635E+03</rscale>
<asrwt>0</asrwt>
<pdfrwt beam="1">0</pdfrwt>
<pdfrwt beam="2">  1        2 0.37038463E+00 0.63829635E+03</pdfrwt>
<totfact> 0.51325219E+00</totfact>
</mgrwt>
</event>
<event>
 5    1  0.2368666E-004  0.6385053E+03  0.7818608E-02  0.9828590E-01
         13   -1    0    0    0    0  0.00000000000E+00  0.00000000000E+00  0.10000000000E+04  0.10000000000E+04  0.00000000000E+00 0. -1.
          2   -1    0    0  501    0 -0.00000000000E+00 -0.00000000000E+00 -0.10192225015E+03  0.10192225015E+03  0.00000000000E+00 0. -1.
    9000006    2    1    2  501    0  0.00000000000E+00  0.00000000000E+00  0.89807774985E+03  0.11019222501E+04  0.63850528626E+03 0.  0.
         13    1    3    3    0    0 -0.31498276007E+03  0.96491278737E+01  0.53729050689E+03  0.62288709539E+03  0.00000000000E+00 0. -1.
          2    1    3    3  501    0  0.31498276007E+03 -0.96491278737E+01  0.36078724296E+03  0.47903515476E+03  0.00000000000E+00 0. -1.
<mgrwt>
<rscale>  0 0.63850529E+03</rscale>
<asrwt>0</asrwt>
<pdfrwt beam="1">0</pdfrwt>
<pdfrwt beam="2">  1        2 0.37062715E+00 0.63850529E+03</pdfrwt>
<totfact> 0.51219496E+00</totfact>
</mgrwt>
</event>
<event>
 5    1  0.2368666E-004  0.6545160E+03  0.7818608E-02  0.9798342E-01
         13   -1    0    0    0    0  0.00000000000E+00  0.00000000000E+00  0.10000000000E+04  0.10000000000E+04  0.00000000000E+00 0. -1.
          2   -1    0    0  501    0 -0.00000000000E+00 -0.00000000000E+00 -0.10709778680E+03  0.10709778680E+03  0.00000000000E+00 0. -1.
    9000006    2    1    2  501    0  0.00000000000E+00  0.00000000000E+00  0.89290221320E+03  0.11070977868E+04  0.65451596407E+03 0.  0.
         13    1    3    3    0    0 -0.10429969748E+03  0.28565969477E+03  0.65095812300E+03  0.71848894633E+03  0.00000000000E+00 0. -1.
          4    1    3    3  501    0  0.10429969748E+03 -0.28565969477E+03  0.24194409020E+03  0.38860884047E+03  0.00000000000E+00 0. -1.
<mgrwt>
<rscale>  0 0.65451596E+03</rscale>
<asrwt>0</asrwt>
<pdfrwt beam="1">0</pdfrwt>
<pdfrwt beam="2">  1        2 0.38944732E+00 0.65451596E+03</pdfrwt>
<totfact> 0.43595997E+00</totfact>
</mgrwt>
</event>
<event>
 5    1  0.2368666E-004  0.6519087E+03  0.7818608E-02  0.9803204E-01
         13   -1    0    0    0    0  0.00000000000E+00  0.00000000000E+00  0.10000000000E+04  0.10000000000E+04  0.00000000000E+00 0. -1.
          2   -1    0    0  501    0 -0.00000000000E+00 -0.00000000000E+00 -0.10624624481E+03  0.10624624481E+03  0.00000000000E+00 0. -1.
    9000006    2    1    2  501    0  0.00000000000E+00  0.00000000000E+00  0.89375375519E+03  0.11062462448E+04  0.65190872003E+03 0.  0.
         13    1    3    3    0    0 -0.11700325495E+02  0.20740221455E+03  0.87312051509E+03  0.89749206686E+03  0.00000000000E+00 0. -1.
          2    1    3    3  501    0  0.11700325495E+02 -0.20740221455E+03  0.20633240102E+02  0.20875417795E+03  0.00000000000E+00 0. -1.
<mgrwt>
<rscale>  0 0.65190872E+03</rscale>
<asrwt>0</asrwt>
<pdfrwt beam="1">0</pdfrwt>
<pdfrwt beam="2">  1        2 0.38635080E+00 0.65190872E+03</pdfrwt>
<totfact> 0.44774710E+00</totfact>
</mgrwt>
</event>
<event>
 5    1  0.2368666E-004  0.6461843E+03  0.7818608E-02  0.9813966E-01
         13   -1    0    0    0    0  0.00000000000E+00  0.00000000000E+00  0.10000000000E+04  0.10000000000E+04  0.00000000000E+00 0. -1.
          2   -1    0    0  501    0 -0.00000000000E+00 -0.00000000000E+00 -0.10438852437E+03  0.10438852437E+03  0.00000000000E+00 0. -1.
    9000006    2    1    2  501    0  0.00000000000E+00  0.00000000000E+00  0.89561147563E+03  0.11043885244E+04  0.64618425970E+03 0.  0.
         13    1    3    3    0    0  0.56351875492E+02  0.30880469596E+03  0.31705570805E+03  0.44616162556E+03  0.00000000000E+00 0. -1.
          2    1    3    3  501    0 -0.56351875492E+02 -0.30880469596E+03  0.57855576758E+03  0.65822689881E+03  0.00000000000E+00 0. -1.
<mgrwt>
<rscale>  0 0.64618426E+03</rscale>
<asrwt>0</asrwt>
<pdfrwt beam="1">0</pdfrwt>
<pdfrwt beam="2">  1        2 0.37959543E+00 0.64618426E+03</pdfrwt>
<totfact> 0.47447076E+00</totfact>
</mgrwt>
</event>
<event>
 5    1  0.2368666E-004  0.6456975E+03  0.7818608E-02  0.9814886E-01
         13   -1    0    0    0    0  0.00000000000E+00  0.00000000000E+00  0.10000000000E+04  0.10000000000E+04  0.00000000000E+00 0. -1.
          2   -1    0    0  501    0 -0.00000000000E+00 -0.00000000000E+00 -0.10423132431E+03  0.10423132431E+03  0.00000000000E+00 0. -1.
    9000006    2    1    2  501    0  0.00000000000E+00  0.00000000000E+00  0.89576867569E+03  0.11042313243E+04  0.64569752766E+03 0.  0.
         13    1    3    3    0    0 -0.10442857689E+03 -0.19080649014E+03  0.39885325231E+02  0.22114086804E+03  0.00000000000E+00 0. -1.
          2    1    3    3  501    0  0.10442857689E+03  0.19080649014E+03  0.85588335046E+03  0.88309045627E+03  0.00000000000E+00 0. -1.
<mgrwt>
<rscale>  0 0.64569753E+03</rscale>
<asrwt>0</asrwt>
<pdfrwt beam="1">0</pdfrwt>
<pdfrwt beam="2">  1        2 0.37902380E+00 0.64569753E+03</pdfrwt>
<totfact> 0.47679732E+00</totfact>
</mgrwt>
</event>
<event>
 5    1  0.2368666E-004  0.6524356E+03  0.7818608E-02  0.9802220E-01
         13   -1    0    0    0    0  0.00000000000E+00  0.00000000000E+00  0.10000000000E+04  0.10000000000E+04  0.00000000000E+00 0. -1.
          2   -1    0    0  501    0 -0.00000000000E+00 -0.00000000000E+00 -0.10641806300E+03  0.10641806300E+03  0.00000000000E+00 0. -1.
    9000006    2    1    2  501    0  0.00000000000E+00  0.00000000000E+00  0.89358193700E+03  0.11064180630E+04  0.65243563055E+03 0.  0.
         13    1    3    3    0    0 -0.15454927338E+03 -0.26525625926E+03  0.63388384092E+03  0.70431178093E+03  0.00000000000E+00 0. -1.
          2    1    3    3  501    0  0.15454927338E+03  0.26525625926E+03  0.25969809608E+03  0.40210628207E+03  0.00000000000E+00 0. -1.
<mgrwt>
<rscale>  0 0.65243563E+03</rscale>
<asrwt>0</asrwt>
<pdfrwt beam="1">0</pdfrwt>
<pdfrwt beam="2">  1        2 0.38697559E+00 0.65243563E+03</pdfrwt>
<totfact> 0.44534581E+00</totfact>
</mgrwt>
</event>
<event>
 5    1  0.2368666E-004  0.6517496E+03  0.7818608E-02  0.9803502E-01
         13   -1    0    0    0    0  0.00000000000E+00  0.00000000000E+00  0.10000000000E+04  0.10000000000E+04  0.00000000000E+00 0. -1.
          2   -1    0    0  501    0 -0.00000000000E+00 -0.00000000000E+00 -0.10619438274E+03  0.10619438274E+03  0.00000000000E+00 0. -1.
    9000006    2    1    2  501    0  0.00000000000E+00  0.00000000000E+00  0.89380561726E+03  0.11061943827E+04  0.65174959221E+03 0.  0.
         13    1    3    3    0    0  0.15523633084E+03  0.24381310256E+03  0.70234735014E+03  0.75949650930E+03  0.00000000000E+00 0. -1.
          2    1    3    3  501    0 -0.15523633084E+03 -0.24381310256E+03  0.19145826712E+03  0.34669787343E+03  0.00000000000E+00 0. -1.
<mgrwt>
<rscale>  0 0.65174959E+03</rscale>
<asrwt>0</asrwt>
<pdfrwt beam="1">0</pdfrwt>
<pdfrwt beam="2">  1        2 0.38616221E+00 0.65174959E+03</pdfrwt>
<totfact> 0.44847422E+00</totfact>
</mgrwt>
</event>
<event>
 5    1  0.2368666E-004  0.7316415E+03  0.7818608E-02  0.9664600E-01
         13   -1    0    0    0    0  0.00000000000E+00  0.00000000000E+00  0.10000000000E+04  0.10000000000E+04  0.00000000000E+00 0. -1.
          2   -1    0    0  501    0 -0.00000000000E+00 -0.00000000000E+00 -0.13382482985E+03  0.13382482985E+03  0.00000000000E+00 0. -1.
    9000006    2    1    2  501    0  0.00000000000E+00  0.00000000000E+00  0.86617517015E+03  0.11338248298E+04  0.73164152383E+03 0.  0.
         13    1    3    3    0    0 -0.12824038297E+03 -0.15288432105E+02  0.96349601656E+03  0.97211311374E+03  0.00000000000E+00 0. -1.
          2    1    3    3  501    0  0.12824038297E+03  0.15288432105E+02 -0.97320846412E+02  0.16171171611E+03  0.00000000000E+00 0. -1.
<mgrwt>
<rscale>  0 0.73164152E+03</rscale>
<asrwt>0</asrwt>
<pdfrwt beam="1">0</pdfrwt>
<pdfrwt beam="2">  1        2 0.48663677E+00 0.73164152E+03</pdfrwt>
<totfact> 0.18071606E+00</totfact>
</mgrwt>
</event>
<event>
 5    1  0.2368666E-004  0.6642455E+03  0.7818608E-02  0.9780410E-01
         13   -1    0    0    0    0  0.00000000000E+00  0.00000000000E+00  0.10000000000E+04  0.10000000000E+04  0.00000000000E+00 0. -1.
          2   -1    0    0  501    0 -0.00000000000E+00 -0.00000000000E+00 -0.11030551183E+03  0.11030551183E+03  0.00000000000E+00 0. -1.
    9000006    2    1    2  501    0  0.00000000000E+00  0.00000000000E+00  0.88969448817E+03  0.11103055118E+04  0.66424547218E+03 0.  0.
         13    1    3    3    0    0  0.65774043788E+02 -0.12438418040E+03 -0.58024284546E+02  0.15219877386E+03  0.00000000000E+00 0. -1.
          2    1    3    3  501    0 -0.65774043788E+02  0.12438418040E+03  0.94771877272E+03  0.95810673796E+03  0.00000000000E+00 0. -1.
<mgrwt>
<rscale>  0 0.66424547E+03</rscale>
<asrwt>0</asrwt>
<pdfrwt beam="1">0</pdfrwt>
<pdfrwt beam="2">  1        2 0.40111180E+00 0.66424547E+03</pdfrwt>
<totfact> 0.39403212E+00</totfact>
</mgrwt>
</event>
<event>
 5    1  0.2368666E-004  0.6449440E+03  0.7818608E-02  0.9816313E-01
         13   -1    0    0    0    0  0.00000000000E+00  0.00000000000E+00  0.10000000000E+04  0.10000000000E+04  0.00000000000E+00 0. -1.
          2   -1    0    0  501    0 -0.00000000000E+00 -0.00000000000E+00 -0.10398820514E+03  0.10398820514E+03  0.00000000000E+00 0. -1.
    9000006    2    1    2  501    0  0.00000000000E+00  0.00000000000E+00  0.89601179486E+03  0.11039882051E+04  0.64494404450E+03 0.  0.
         13    1    3    3    0    0 -0.12740823988E+03 -0.11666927780E+02  0.95469563557E+03  0.96323036361E+03  0.00000000000E+00 0. -1.
          4    1    3    3  501    0  0.12740823988E+03  0.11666927780E+02 -0.58683840706E+02  0.14075784153E+03  0.00000000000E+00 0. -1.
<mgrwt>
<rscale>  0 0.64494404E+03</rscale>
<asrwt>0</asrwt>
<pdfrwt beam="1">0</pdfrwt>
<pdfrwt beam="2">  1        2 0.37813973E+00 0.64494404E+03</pdfrwt>
<totfact> 0.48041597E+00</totfact>
</mgrwt>
</event>
<event>
 5    1  0.2368666E-004  0.6237921E+03  0.7818608E-02  0.9857239E-01
         13   -1    0    0    0    0  0.00000000000E+00  0.00000000000E+00  0.10000000000E+04  0.10000000000E+04  0.00000000000E+00 0. -1.
          2   -1    0    0  501    0 -0.00000000000E+00 -0.00000000000E+00 -0.97279131678E+02  0.97279131678E+02  0.00000000000E+00 0. -1.
    9000006    2    1    2  501    0  0.00000000000E+00  0.00000000000E+00  0.90272086832E+03  0.10972791317E+04  0.62379205406E+03 0.  0.
         13    1    3    3    0    0 -0.38796161526E+02  0.56347220815E+02  0.98663965336E+03  0.98900857278E+03  0.00000000000E+00 0. -1.
          4    1    3    3  501    0  0.38796161526E+02 -0.56347220815E+02 -0.83918785038E+02  0.10827055890E+03  0.00000000000E+00 0. -1.
<mgrwt>
<rscale>  0 0.62379205E+03</rscale>
<asrwt>0</asrwt>
<pdfrwt beam="1">0</pdfrwt>
<pdfrwt beam="2">  1        2 0.35374304E+00 0.62379205E+03</pdfrwt>
<totfact> 0.59078856E+00</totfact>
</mgrwt>
</event>
<event>
 5    1  0.2368666E-004  0.6982479E+03  0.7818608E-02  0.9720233E-01
         13   -1    0    0    0    0  0.00000000000E+00  0.00000000000E+00  0.10000000000E+04  0.10000000000E+04  0.00000000000E+00 0. -1.
          2   -1    0    0  501    0 -0.00000000000E+00 -0.00000000000E+00 -0.12188754372E+03  0.12188754372E+03  0.00000000000E+00 0. -1.
    9000006    2    1    2  501    0  0.00000000000E+00  0.00000000000E+00  0.87811245628E+03  0.11218875437E+04  0.69824793225E+03 0.  0.
         13    1    3    3    0    0  0.33818701260E+03 -0.85328806854E+02  0.41436901974E+03  0.54162085012E+03  0.00000000000E+00 0. -1.
          4    1    3    3  501    0 -0.33818701260E+03  0.85328806854E+02  0.46374343654E+03  0.58026669360E+03  0.00000000000E+00 0. -1.
<mgrwt>
<rscale>  0 0.69824793E+03</rscale>
<asrwt>0</asrwt>
<pdfrwt beam="1">0</pdfrwt>
<pdfrwt beam="2">  1        2 0.44322837E+00 0.69824793E+03</pdfrwt>
<totfact> 0.27093669E+00</totfact>
</mgrwt>
</event>
<event>
 5    1  0.2368666E-004  0.6477025E+03  0.7818608E-02  0.9811100E-01
         13   -1    0    0    0    0  0.00000000000E+00  0.00000000000E+00  0.10000000000E+04  0.10000000000E+04  0.00000000000E+00 0. -1.
          2   -1    0    0  501    0 -0.00000000000E+00 -0.00000000000E+00 -0.10487964113E+03  0.10487964113E+03  0.00000000000E+00 0. -1.
    9000006    2    1    2  501    0  0.00000000000E+00  0.00000000000E+00  0.89512035887E+03  0.11048796411E+04  0.64770252781E+03 0.  0.
         13    1    3    3    0    0  0.13655602706E+03  0.14246301992E+03  0.88558823830E+03  0.90730909198E+03  0.00000000000E+00 0. -1.
          4    1    3    3  501    0 -0.13655602706E+03 -0.14246301992E+03  0.95321205717E+01  0.19757054916E+03  0.00000000000E+00 0. -1.
<mgrwt>
<rscale>  0 0.64770253E+03</rscale>
<asrwt>0</asrwt>
<pdfrwt beam="1">0</pdfrwt>
<pdfrwt beam="2">  1        2 0.38138132E+00 0.64770253E+03</pdfrwt>
<totfact> 0.46726861E+00</totfact>
</mgrwt>
</event>
<event>
 5    1  0.2368666E-004  0.6339521E+03  0.7818608E-02  0.9837367E-01
         13   -1    0    0    0    0  0.00000000000E+00  0.00000000000E+00  0.10000000000E+04  0.10000000000E+04  0.00000000000E+00 0. -1.
          2   -1    0    0  501    0 -0.00000000000E+00 -0.00000000000E+00 -0.10047380061E+03  0.10047380061E+03  0.00000000000E+00 0. -1.
    9000006    2    1    2  501    0  0.00000000000E+00  0.00000000000E+00  0.89952619939E+03  0.11004738006E+04  0.63395205057E+03 0.  0.
         13    1    3    3    0    0 -0.16249527215E+03  0.25713501706E+03  0.60454677851E+03  0.67675692673E+03  0.00000000000E+00 0. -1.
          4    1    3    3  501    0  0.16249527215E+03 -0.25713501706E+03  0.29497942088E+03  0.42371687388E+03  0.00000000000E+00 0. -1.
<mgrwt>
<rscale>  0 0.63395205E+03</rscale>
<asrwt>0</asrwt>
<pdfrwt beam="1">0</pdfrwt>
<pdfrwt beam="2">  1        2 0.36536005E+00 0.63395205E+03</pdfrwt>
<totfact> 0.53561160E+00</totfact>
</mgrwt>
</event>
<event>
 5    1  0.2368666E-004  0.6136194E+03  0.7818608E-02  0.9877546E-01
         13   -1    0    0    0    0  0.00000000000E+00  0.00000000000E+00  0.10000000000E+04  0.10000000000E+04  0.00000000000E+00 0. -1.
          2   -1    0    0  501    0 -0.00000000000E+00 -0.00000000000E+00 -0.94132189747E+02  0.94132189747E+02  0.00000000000E+00 0. -1.
    9000006    2    1    2  501    0  0.00000000000E+00  0.00000000000E+00  0.90586781025E+03  0.10941321897E+04  0.61361939261E+03 0.  0.
         13    1    3    3    0    0 -0.10140663788E+02  0.25738364347E+03  0.75014185318E+03  0.79313427166E+03  0.00000000000E+00 0. -1.
          2    1    3    3  501    0  0.10140663788E+02 -0.25738364347E+03  0.15572595708E+03  0.30099791809E+03  0.00000000000E+00 0. -1.
<mgrwt>
<rscale>  0 0.61361939E+03</rscale>
<asrwt>0</asrwt>
<pdfrwt beam="1">0</pdfrwt>
<pdfrwt beam="2">  1        2 0.34229959E+00 0.61361939E+03</pdfrwt>
<totfact> 0.65026557E+00</totfact>
</mgrwt>
</event>
<event>
 5    1  0.2368666E-004  0.6419744E+03  0.7818608E-02  0.9821956E-01
         13   -1    0    0    0    0  0.00000000000E+00  0.00000000000E+00  0.10000000000E+04  0.10000000000E+04  0.00000000000E+00 0. -1.
          2   -1    0    0  501    0 -0.00000000000E+00 -0.00000000000E+00 -0.10303279244E+03  0.10303279244E+03  0.00000000000E+00 0. -1.
    9000006    2    1    2  501    0  0.00000000000E+00  0.00000000000E+00  0.89696720756E+03  0.11030327924E+04  0.64197443078E+03 0.  0.
         13    1    3    3    0    0  0.13402246149E+02 -0.11054781632E+03 -0.68780474501E+02  0.13088618555E+03  0.00000000000E+00 0. -1.
          2    1    3    3  501    0 -0.13402246149E+02  0.11054781632E+03  0.96574768206E+03  0.97214660689E+03  0.00000000000E+00 0. -1.
<mgrwt>
<rscale>  0 0.64197443E+03</rscale>
<asrwt>0</asrwt>
<pdfrwt beam="1">0</pdfrwt>
<pdfrwt beam="2">  1        2 0.37466549E+00 0.64197443E+03</pdfrwt>
<totfact> 0.49488080E+00</totfact>
</mgrwt>
</event>
<event>
 5    1  0.2368666E-004  0.6581527E+03  0.7818608E-02  0.9791600E-01
         13   -1    0    0    0    0  0.00000000000E+00  0.00000000000E+00  0.10000000000E+04  0.10000000000E+04  0.00000000000E+00 0. -1.
          2   -1    0    0  501    0 -0.00000000000E+00 -0.00000000000E+00 -0.10829123198E+03  0.10829123198E+03  0.00000000000E+00 0. -1.
    9000006    2    1    2  501    0  0.00000000000E+00  0.00000000000E+00  0.89170876802E+03  0.11082912320E+04  0.65815266309E+03 0.  0.
         13    1    3    3    0    0  0.30301179184E+03 -0.12057368223E+03  0.51996838590E+03  0.61377624684E+03  0.00000000000E+00 0. -1.
          2    1    3    3  501    0 -0.30301179184E+03  0.12057368223E+03  0.37174038211E+03  0.49451498515E+03  0.00000000000E+00 0. -1.
<mgrwt>
<rscale>  0 0.65815266E+03</rscale>
<asrwt>0</asrwt>
<pdfrwt beam="1">0</pdfrwt>
<pdfrwt beam="2">  1        2 0.39378713E+00 0.65815266E+03</pdfrwt>
<totfact> 0.41991202E+00</totfact>
</mgrwt>
</event>
<event>
 5    1  0.2368666E-004  0.6333859E+03  0.7818608E-02  0.9838464E-01
         13   -1    0    0    0    0  0.00000000000E+00  0.00000000000E+00  0.10000000000E+04  0.10000000000E+04  0.00000000000E+00 0. -1.
          2   -1    0    0  501    0 -0.00000000000E+00 -0.00000000000E+00 -0.10029441442E+03  0.10029441442E+03  0.00000000000E+00 0. -1.
    9000006    2    1    2  501    0  0.00000000000E+00  0.00000000000E+00  0.89970558558E+03  0.11002944144E+04  0.63338586793E+03 0.  0.
         13    1    3    3    0    0 -0.16301596795E+02  0.27129884062E+03  0.73224522994E+03  0.78105817949E+03  0.00000000000E+00 0. -1.
          2    1    3    3  501    0  0.16301596795E+02 -0.27129884062E+03  0.16746035564E+03  0.31923623493E+03  0.00000000000E+00 0. -1.
<mgrwt>
<rscale>  0 0.63338587E+03</rscale>
<asrwt>0</asrwt>
<pdfrwt beam="1">0</pdfrwt>
<pdfrwt beam="2">  1        2 0.36470773E+00 0.63338587E+03</pdfrwt>
<totfact> 0.53857913E+00</totfact>
</mgrwt>
</event>
<event>
 5    1  0.2368666E-004  0.6468522E+03  0.7818608E-02  0.9812704E-01
         13   -1    0    0    0    0  0.00000000000E+00  0.00000000000E+00  0.10000000000E+04  0.10000000000E+04  0.00000000000E+00 0. -1.
          2   -1    0    0  501    0 -0.00000000000E+00 -0.00000000000E+00 -0.10460444323E+03  0.10460444323E+03  0.00000000000E+00 0. -1.
    9000006    2    1    2  501    0  0.00000000000E+00  0.00000000000E+00  0.89539555677E+03  0.11046044432E+04  0.64685220330E+03 0.  0.
         13    1    3    3    0    0 -0.72008969614E+01  0.20064484297E+03  0.88069763093E+03  0.90329315454E+03  0.00000000000E+00 0. -1.
          2    1    3    3  501    0  0.72008969614E+01 -0.20064484297E+03  0.14697925846E+02  0.20131128868E+03  0.00000000000E+00 0. -1.
<mgrwt>
<rscale>  0 0.64685220E+03</rscale>
<asrwt>0</asrwt>
<pdfrwt beam="1">0</pdfrwt>
<pdfrwt beam="2">  1        2 0.38038060E+00 0.64685220E+03</pdfrwt>
<totfact> 0.47129199E+00</totfact>
</mgrwt>
</event>
<event>
 5    1  0.2368666E-004  0.6560284E+03  0.7818608E-02  0.9795533E-01
         13   -1    0    0    0    0  0.00000000000E+00  0.00000000000E+00  0.10000000000E+04  0.10000000000E+04  0.00000000000E+00 0. -1.
          2   -1    0    0  501    0 -0.00000000000E+00 -0.00000000000E+00 -0.10759332941E+03  0.10759332941E+03  0.00000000000E+00 0. -1.
    9000006    2    1    2  501    0  0.00000000000E+00  0.00000000000E+00  0.89240667059E+03  0.11075933294E+04  0.65602844271E+03 0.  0.
         13    1    3    3    0    0  0.19083227605E+02 -0.60340252366E+02 -0.97188157191E+02  0.11597695258E+03  0.00000000000E+00 0. -1.
          2    1    3    3  501    0 -0.19083227605E+02  0.60340252366E+02  0.98959482778E+03  0.99161637683E+03  0.00000000000E+00 0. -1.
<mgrwt>
<rscale>  0 0.65602844E+03</rscale>
<asrwt>0</asrwt>
<pdfrwt beam="1">0</pdfrwt>
<pdfrwt beam="2">  1        2 0.39124930E+00 0.65602844E+03</pdfrwt>
<totfact> 0.42923050E+00</totfact>
</mgrwt>
</event>
<event>
 5    1  0.2368666E-004  0.6653940E+03  0.7818608E-02  0.9778315E-01
         13   -1    0    0    0    0  0.00000000000E+00  0.00000000000E+00  0.10000000000E+04  0.10000000000E+04  0.00000000000E+00 0. -1.
          2   -1    0    0  501    0 -0.00000000000E+00 -0.00000000000E+00 -0.11068727920E+03  0.11068727920E+03  0.00000000000E+00 0. -1.
    9000006    2    1    2  501    0  0.00000000000E+00  0.00000000000E+00  0.88931272080E+03  0.11106872792E+04  0.66539395609E+03 0.  0.
         13    1    3    3    0    0 -0.25658337714E+03  0.76026985767E+02  0.11470753596E+03  0.29115794819E+03  0.00000000000E+00 0. -1.
          4    1    3    3  501    0  0.25658337714E+03 -0.76026985767E+02  0.77460518485E+03  0.81952933101E+03  0.00000000000E+00 0. -1.
<mgrwt>
<rscale>  0 0.66539396E+03</rscale>
<asrwt>0</asrwt>
<pdfrwt beam="1">0</pdfrwt>
<pdfrwt beam="2">  1        2 0.40250005E+00 0.66539396E+03</pdfrwt>
<totfact> 0.38929188E+00</totfact>
</mgrwt>
</event>
<event>
 5    1  0.2368666E-004  0.6662487E+03  0.7818608E-02  0.9776759E-01
         13   -1    0    0    0    0  0.00000000000E+00  0.00000000000E+00  0.10000000000E+04  0.10000000000E+04  0.00000000000E+00 0. -1.
          2   -1    0    0  501    0 -0.00000000000E+00 -0.00000000000E+00 -0.11097181918E+03  0.11097181918E+03  0.00000000000E+00 0. -1.
    9000006    2    1    2  501    0  0.00000000000E+00  0.00000000000E+00  0.88902818082E+03  0.11109718192E+04  0.66624865984E+03 0.  0.
         13    1    3    3    0    0 -0.51899091288E+02 -0.32308183791E+03  0.34042622394E+03  0.47219212574E+03  0.00000000000E+00 0. -1.
          2    1    3    3  501    0  0.51899091288E+02  0.32308183791E+03  0.54860195688E+03  0.63877969345E+03  0.00000000000E+00 0. -1.
<mgrwt>
<rscale>  0 0.66624866E+03</rscale>
<asrwt>0</asrwt>
<pdfrwt beam="1">0</pdfrwt>
<pdfrwt beam="2">  1        2 0.40353474E+00 0.66624866E+03</pdfrwt>
<totfact> 0.38579220E+00</totfact>
</mgrwt>
</event>
<event>
 5    1  0.2368666E-004  0.6475054E+03  0.7818608E-02  0.9811471E-01
         13   -1    0    0    0    0  0.00000000000E+00  0.00000000000E+00  0.10000000000E+04  0.10000000000E+04  0.00000000000E+00 0. -1.
          2   -1    0    0  501    0 -0.00000000000E+00 -0.00000000000E+00 -0.10481580243E+03  0.10481580243E+03  0.00000000000E+00 0. -1.
    9000006    2    1    2  501    0  0.00000000000E+00  0.00000000000E+00  0.89518419757E+03  0.11048158024E+04  0.64750537426E+03 0.  0.
         13    1    3    3    0    0  0.79368888648E+02 -0.24751278002E+03  0.77692249938E+03  0.81925000262E+03  0.00000000000E+00 0. -1.
          4    1    3    3  501    0 -0.79368888648E+02  0.24751278002E+03  0.11826169820E+03  0.28556579980E+03  0.00000000000E+00 0. -1.
<mgrwt>
<rscale>  0 0.64750537E+03</rscale>
<asrwt>0</asrwt>
<pdfrwt beam="1">0</pdfrwt>
<pdfrwt beam="2">  1        2 0.38114918E+00 0.64750537E+03</pdfrwt>
<totfact> 0.46819913E+00</totfact>
</mgrwt>
</event>
<event>
 5    1  0.2368666E-004  0.6515151E+03  0.7818608E-02  0.9803940E-01
         13   -1    0    0    0    0  0.00000000000E+00  0.00000000000E+00  0.10000000000E+04  0.10000000000E+04  0.00000000000E+00 0. -1.
          2   -1    0    0  501    0 -0.00000000000E+00 -0.00000000000E+00 -0.10611797372E+03  0.10611797372E+03  0.00000000000E+00 0. -1.
    9000006    2    1    2  501    0  0.00000000000E+00  0.00000000000E+00  0.89388202628E+03  0.11061179737E+04  0.65151507648E+03 0.  0.
         13    1    3    3    0    0  0.23950166387E+03  0.11670495938E+03  0.12869822401E+03  0.29587890665E+03  0.00000000000E+00 0. -1.
          4    1    3    3  501    0 -0.23950166387E+03 -0.11670495938E+03  0.76518380227E+03  0.81023906707E+03  0.00000000000E+00 0. -1.
<mgrwt>
<rscale>  0 0.65151508E+03</rscale>
<asrwt>0</asrwt>
<pdfrwt beam="1">0</pdfrwt>
<pdfrwt beam="2">  1        2 0.38588435E+00 0.65151508E+03</pdfrwt>
<totfact> 0.44954743E+00</totfact>
</mgrwt>
</event>
<event>
 5    1  0.2368666E-004  0.6649688E+03  0.7818608E-02  0.9779090E-01
         13   -1    0    0    0    0  0.00000000000E+00  0.00000000000E+00  0.10000000000E+04  0.10000000000E+04  0.00000000000E+00 0. -1.
          2   -1    0    0  501    0 -0.00000000000E+00 -0.00000000000E+00 -0.11054588904E+03  0.11054588904E+03  0.00000000000E+00 0. -1.
    9000006    2    1    2  501    0  0.00000000000E+00  0.00000000000E+00  0.88945411096E+03  0.11105458890E+04  0.66496883849E+03 0.  0.
         13    1    3    3    0    0 -0.12816308712E+03 -0.84297539224E+02 -0.47913174030E+02  0.16070944049E+03  0.00000000000E+00 0. -1.
          2    1    3    3  501    0  0.12816308712E+03  0.84297539224E+02  0.93736728499E+03  0.94983644855E+03  0.00000000000E+00 0. -1.
<mgrwt>
<rscale>  0 0.66496884E+03</rscale>
<asrwt>0</asrwt>
<pdfrwt beam="1">0</pdfrwt>
<pdfrwt beam="2">  1        2 0.40198590E+00 0.66496884E+03</pdfrwt>
<totfact> 0.39104147E+00</totfact>
</mgrwt>
</event>
<event>
 5    1  0.2368666E-004  0.6463731E+03  0.7818608E-02  0.9813609E-01
         13   -1    0    0    0    0  0.00000000000E+00  0.00000000000E+00  0.10000000000E+04  0.10000000000E+04  0.00000000000E+00 0. -1.
          2   -1    0    0  501    0 -0.00000000000E+00 -0.00000000000E+00 -0.10444955471E+03  0.10444955471E+03  0.00000000000E+00 0. -1.
    9000006    2    1    2  501    0  0.00000000000E+00  0.00000000000E+00  0.89555044529E+03  0.11044495547E+04  0.64637312664E+03 0.  0.
         13    1    3    3    0    0  0.11912169271E+03 -0.28343614009E+03  0.27756104958E+03  0.41420545558E+03  0.00000000000E+00 0. -1.
          4    1    3    3  501    0 -0.11912169271E+03  0.28343614009E+03  0.61798939571E+03  0.69024409913E+03  0.00000000000E+00 0. -1.
<mgrwt>
<rscale>  0 0.64637313E+03</rscale>
<asrwt>0</asrwt>
<pdfrwt beam="1">0</pdfrwt>
<pdfrwt beam="2">  1        2 0.37981736E+00 0.64637313E+03</pdfrwt>
<totfact> 0.47357029E+00</totfact>
</mgrwt>
</event>
<event>
 5    1  0.2368666E-004  0.6513950E+03  0.7818608E-02  0.9804165E-01
         13   -1    0    0    0    0  0.00000000000E+00  0.00000000000E+00  0.10000000000E+04  0.10000000000E+04  0.00000000000E+00 0. -1.
          2   -1    0    0  501    0 -0.00000000000E+00 -0.00000000000E+00 -0.10607886601E+03  0.10607886601E+03  0.00000000000E+00 0. -1.
    9000006    2    1    2  501    0  0.00000000000E+00  0.00000000000E+00  0.89392113399E+03  0.11060788660E+04  0.65139501382E+03 0.  0.
         13    1    3    3    0    0  0.27508468146E+02  0.29709729605E+03  0.66871481218E+03  0.73225884711E+03  0.00000000000E+00 0. -1.
          2    1    3    3  501    0 -0.27508468146E+02 -0.29709729605E+03  0.22520632181E+03  0.37382001889E+03  0.00000000000E+00 0. -1.
<mgrwt>
<rscale>  0 0.65139501E+03</rscale>
<asrwt>0</asrwt>
<pdfrwt beam="1">0</pdfrwt>
<pdfrwt beam="2">  1        2 0.38574214E+00 0.65139501E+03</pdfrwt>
<totfact> 0.45009762E+00</totfact>
</mgrwt>
</event>
<event>
 5    1  0.2368666E-004  0.6550017E+03  0.7818608E-02  0.9797439E-01
         13   -1    0    0    0    0  0.00000000000E+00  0.00000000000E+00  0.10000000000E+04  0.10000000000E+04  0.00000000000E+00 0. -1.
          2   -1    0    0  501    0 -0.00000000000E+00 -0.00000000000E+00 -0.10725679672E+03  0.10725679672E+03  0.00000000000E+00 0. -1.
    9000006    2    1    2  501    0  0.00000000000E+00  0.00000000000E+00  0.89274320328E+03  0.11072567967E+04  0.65500166937E+03 0.  0.
         13    1    3    3    0    0  0.93446134731E+02 -0.22442996260E+03  0.81733433882E+03  0.85272293837E+03  0.00000000000E+00 0. -1.
          2    1    3    3  501    0 -0.93446134731E+02  0.22442996260E+03  0.75408864461E+02  0.25453385835E+03  0.00000000000E+00 0. -1.
<mgrwt>
<rscale>  0 0.65500167E+03</rscale>
<asrwt>0</asrwt>
<pdfrwt beam="1">0</pdfrwt>
<pdfrwt beam="2">  1        2 0.39002554E+00 0.65500167E+03</pdfrwt>
<totfact> 0.43379030E+00</totfact>
</mgrwt>
</event>
<event>
 5    1  0.2368666E-004  0.5841658E+03  0.7818608E-02  0.9938813E-01
         13   -1    0    0    0    0  0.00000000000E+00  0.00000000000E+00  0.10000000000E+04  0.10000000000E+04  0.00000000000E+00 0. -1.
          4   -1    0    0  501    0 -0.00000000000E+00 -0.00000000000E+00 -0.85312420758E+02  0.85312420758E+02  0.00000000000E+00 0. -1.
    9000006    2    1    2  501    0  0.00000000000E+00  0.00000000000E+00  0.91468757924E+03  0.10853124208E+04  0.58416580098E+03 0.  0.
         13    1    3    3    0    0 -0.23286658191E+03 -0.88516494756E+02  0.17405204766E+03  0.30390151383E+03  0.00000000000E+00 0. -1.
          4    1    3    3  501    0  0.23286658191E+03  0.88516494756E+02  0.74063553158E+03  0.78141090692E+03  0.00000000000E+00 0. -1.
<mgrwt>
<rscale>  0 0.58416580E+03</rscale>
<asrwt>0</asrwt>
<pdfrwt beam="1">0</pdfrwt>
<pdfrwt beam="2">  1        4 0.31022764E+00 0.58416580E+03</pdfrwt>
<totfact> 0.12327325E-01</totfact>
</mgrwt>
</event>
<event>
 5    1  0.2368666E-004  0.6443320E+03  0.7818608E-02  0.9817473E-01
         13   -1    0    0    0    0  0.00000000000E+00  0.00000000000E+00  0.10000000000E+04  0.10000000000E+04  0.00000000000E+00 0. -1.
          2   -1    0    0  501    0 -0.00000000000E+00 -0.00000000000E+00 -0.10379092086E+03  0.10379092086E+03  0.00000000000E+00 0. -1.
    9000006    2    1    2  501    0  0.00000000000E+00  0.00000000000E+00  0.89620907914E+03  0.11037909209E+04  0.64433196679E+03 0.  0.
         13    1    3    3    0    0  0.13083698717E+03  0.29829431665E+02 -0.53633778965E+02  0.14451537791E+03  0.00000000000E+00 0. -1.
          4    1    3    3  501    0 -0.13083698717E+03 -0.29829431665E+02  0.94984285811E+03  0.95927554295E+03  0.00000000000E+00 0. -1.
<mgrwt>
<rscale>  0 0.64433197E+03</rscale>
<asrwt>0</asrwt>
<pdfrwt beam="1">0</pdfrwt>
<pdfrwt beam="2">  1        2 0.37742233E+00 0.64433197E+03</pdfrwt>
<totfact> 0.48337077E+00</totfact>
</mgrwt>
</event>
<event>
 5    1  0.2368666E-004  0.6547387E+03  0.7818608E-02  0.9797928E-01
         13   -1    0    0    0    0  0.00000000000E+00  0.00000000000E+00  0.10000000000E+04  0.10000000000E+04  0.00000000000E+00 0. -1.
          2   -1    0    0  501    0 -0.00000000000E+00 -0.00000000000E+00 -0.10717070655E+03  0.10717070655E+03  0.00000000000E+00 0. -1.
    9000006    2    1    2  501    0  0.00000000000E+00  0.00000000000E+00  0.89282929345E+03  0.11071707066E+04  0.65473874653E+03 0.  0.
         13    1    3    3    0    0  0.20477517984E+03 -0.25014870433E+02  0.87625128783E+03  0.90020827448E+03  0.00000000000E+00 0. -1.
          2    1    3    3  501    0 -0.20477517984E+03  0.25014870433E+02  0.16578005621E+02  0.20696243207E+03  0.00000000000E+00 0. -1.
<mgrwt>
<rscale>  0 0.65473875E+03</rscale>
<asrwt>0</asrwt>
<pdfrwt beam="1">0</pdfrwt>
<pdfrwt beam="2">  1        2 0.38971248E+00 0.65473875E+03</pdfrwt>
<totfact> 0.43496378E+00</totfact>
</mgrwt>
</event>
<event>
 5    1  0.2368666E-004  0.6373523E+03  0.7818608E-02  0.9830805E-01
         13   -1    0    0    0    0  0.00000000000E+00  0.00000000000E+00  0.10000000000E+04  0.10000000000E+04  0.00000000000E+00 0. -1.
          2   -1    0    0  501    0 -0.00000000000E+00 -0.00000000000E+00 -0.10155449487E+03  0.10155449487E+03  0.00000000000E+00 0. -1.
    9000006    2    1    2  501    0  0.00000000000E+00  0.00000000000E+00  0.89844550513E+03  0.11015544949E+04  0.63735231973E+03 0.  0.
         13    1    3    3    0    0 -0.19033937193E+03  0.21825070778E+03  0.67911030541E+03  0.73827722088E+03  0.00000000000E+00 0. -1.
          4    1    3    3  501    0  0.19033937193E+03 -0.21825070778E+03  0.21933519972E+03  0.36327727398E+03  0.00000000000E+00 0. -1.
<mgrwt>
<rscale>  0 0.63735232E+03</rscale>
<asrwt>0</asrwt>
<pdfrwt beam="1">0</pdfrwt>
<pdfrwt beam="2">  1        2 0.36928985E+00 0.63735232E+03</pdfrwt>
<totfact> 0.51804964E+00</totfact>
</mgrwt>
</event>
<event>
 5    1  0.2368666E-004  0.6270813E+03  0.7818608E-02  0.9850761E-01
         13   -1    0    0    0    0  0.00000000000E+00  0.00000000000E+00  0.10000000000E+04  0.10000000000E+04  0.00000000000E+00 0. -1.
          2   -1    0    0  501    0 -0.00000000000E+00 -0.00000000000E+00 -0.98307728720E+02  0.98307728720E+02  0.00000000000E+00 0. -1.
    9000006    2    1    2  501    0  0.00000000000E+00  0.00000000000E+00  0.90169227128E+03  0.10983077287E+04  0.62708126657E+03 0.  0.
         13    1    3    3    0    0 -0.19761570064E+03 -0.24337860672E+03  0.44251659066E+03  0.54231544728E+03  0.00000000000E+00 0. -1.
          2    1    3    3  501    0  0.19761570064E+03  0.24337860672E+03  0.45917568062E+03  0.55599228144E+03  0.00000000000E+00 0. -1.
<mgrwt>
<rscale>  0 0.62708127E+03</rscale>
<asrwt>0</asrwt>
<pdfrwt beam="1">0</pdfrwt>
<pdfrwt beam="2">  1        2 0.35748340E+00 0.62708127E+03</pdfrwt>
<totfact> 0.57247338E+00</totfact>
</mgrwt>
</event>
<event>
 5    1  0.2368666E-004  0.6512449E+03  0.7818608E-02  0.9804446E-01
         13   -1    0    0    0    0  0.00000000000E+00  0.00000000000E+00  0.10000000000E+04  0.10000000000E+04  0.00000000000E+00 0. -1.
          2   -1    0    0  501    0 -0.00000000000E+00 -0.00000000000E+00 -0.10602998165E+03  0.10602998165E+03  0.00000000000E+00 0. -1.
    9000006    2    1    2  501    0  0.00000000000E+00  0.00000000000E+00  0.89397001835E+03  0.11060299817E+04  0.65124490524E+03 0.  0.
         13    1    3    3    0    0 -0.16097730934E+03 -0.20414628397E+03  0.11400547633E+03  0.28387787517E+03  0.00000000000E+00 0. -1.
          2    1    3    3  501    0  0.16097730934E+03  0.20414628397E+03  0.77996454202E+03  0.82215210648E+03  0.00000000000E+00 0. -1.
<mgrwt>
<rscale>  0 0.65124491E+03</rscale>
<asrwt>0</asrwt>
<pdfrwt beam="1">0</pdfrwt>
<pdfrwt beam="2">  1        2 0.38556438E+00 0.65124491E+03</pdfrwt>
<totfact> 0.45078622E+00</totfact>
</mgrwt>
</event>
<event>
 5    1  0.2368666E-004  0.6434016E+03  0.7818608E-02  0.9819240E-01
         13   -1    0    0    0    0  0.00000000000E+00  0.00000000000E+00  0.10000000000E+04  0.10000000000E+04  0.00000000000E+00 0. -1.
          2   -1    0    0  501    0 -0.00000000000E+00 -0.00000000000E+00 -0.10349139539E+03  0.10349139539E+03  0.00000000000E+00 0. -1.
    9000006    2    1    2  501    0  0.00000000000E+00  0.00000000000E+00  0.89650860461E+03  0.11034913954E+04  0.64340157098E+03 0.  0.
         13    1    3    3    0    0 -0.18128027177E+02  0.32118861480E+03  0.44963037381E+03  0.55286365833E+03  0.00000000000E+00 0. -1.
          4    1    3    3  501    0  0.18128027177E+02 -0.32118861480E+03  0.44687823080E+03  0.55062773705E+03  0.00000000000E+00 0. -1.
<mgrwt>
<rscale>  0 0.64340157E+03</rscale>
<asrwt>0</asrwt>
<pdfrwt beam="1">0</pdfrwt>
<pdfrwt beam="2">  1        2 0.37633314E+00 0.64340157E+03</pdfrwt>
<totfact> 0.48788857E+00</totfact>
</mgrwt>
</event>
<event>
 5    1  0.2368666E-004  0.6539306E+03  0.7818608E-02  0.9799432E-01
         13   -1    0    0    0    0  0.00000000000E+00  0.00000000000E+00  0.10000000000E+04  0.10000000000E+04  0.00000000000E+00 0. -1.
          2   -1    0    0  501    0 -0.00000000000E+00 -0.00000000000E+00 -0.10690629589E+03  0.10690629589E+03  0.00000000000E+00 0. -1.
    9000006    2    1    2  501    0  0.00000000000E+00  0.00000000000E+00  0.89309370411E+03  0.11069062959E+04  0.65393056478E+03 0.  0.
         13    1    3    3    0    0 -0.12468421052E+02 -0.17533799940E+03  0.91321398761E+03  0.92997777539E+03  0.00000000000E+00 0. -1.
          4    1    3    3  501    0  0.12468421052E+02  0.17533799940E+03 -0.20120283499E+02  0.17692852049E+03  0.00000000000E+00 0. -1.
<mgrwt>
<rscale>  0 0.65393056E+03</rscale>
<asrwt>0</asrwt>
<pdfrwt beam="1">0</pdfrwt>
<pdfrwt beam="2">  1        2 0.38875099E+00 0.65393056E+03</pdfrwt>
<totfact> 0.43858586E+00</totfact>
</mgrwt>
</event>
<event>
 5    1  0.2368666E-004  0.6630769E+03  0.7818608E-02  0.9782546E-01
         13   -1    0    0    0    0  0.00000000000E+00  0.00000000000E+00  0.10000000000E+04  0.10000000000E+04  0.00000000000E+00 0. -1.
          2   -1    0    0  501    0 -0.00000000000E+00 -0.00000000000E+00 -0.10991774827E+03  0.10991774827E+03  0.00000000000E+00 0. -1.
    9000006    2    1    2  501    0  0.00000000000E+00  0.00000000000E+00  0.89008225173E+03  0.11099177483E+04  0.66307691341E+03 0.  0.
         13    1    3    3    0    0  0.65323710096E+02  0.81202750670E+02  0.97186901893E+03  0.97744077251E+03  0.00000000000E+00 0. -1.
          2    1    3    3  501    0 -0.65323710096E+02 -0.81202750670E+02 -0.81786767203E+02  0.13247697576E+03  0.00000000000E+00 0. -1.
<mgrwt>
<rscale>  0 0.66307691E+03</rscale>
<asrwt>0</asrwt>
<pdfrwt beam="1">0</pdfrwt>
<pdfrwt beam="2">  1        2 0.39970175E+00 0.66307691E+03</pdfrwt>
<totfact> 0.39889976E+00</totfact>
</mgrwt>
</event>
<event>
 5    1  0.2368666E-004  0.6496076E+03  0.7818608E-02  0.9807516E-01
         13   -1    0    0    0    0  0.00000000000E+00  0.00000000000E+00  0.10000000000E+04  0.10000000000E+04  0.00000000000E+00 0. -1.
          2   -1    0    0  501    0 -0.00000000000E+00 -0.00000000000E+00 -0.10549749430E+03  0.10549749430E+03  0.00000000000E+00 0. -1.
    9000006    2    1    2  501    0  0.00000000000E+00  0.00000000000E+00  0.89450250570E+03  0.11054974943E+04  0.64960755630E+03 0.  0.
         13    1    3    3    0    0  0.61134888575E+02 -0.85532900940E+02  0.97024224476E+03  0.97592180284E+03  0.00000000000E+00 0. -1.
          2    1    3    3  501    0 -0.61134888575E+02  0.85532900940E+02 -0.75739739058E+02  0.12957569146E+03  0.00000000000E+00 0. -1.
<mgrwt>
<rscale>  0 0.64960756E+03</rscale>
<asrwt>0</asrwt>
<pdfrwt beam="1">0</pdfrwt>
<pdfrwt beam="2">  1        2 0.38362806E+00 0.64960756E+03</pdfrwt>
<totfact> 0.45834908E+00</totfact>
</mgrwt>
</event>
<event>
 5    1  0.2368666E-004  0.6665827E+03  0.7818608E-02  0.9776151E-01
         13   -1    0    0    0    0  0.00000000000E+00  0.00000000000E+00  0.10000000000E+04  0.10000000000E+04  0.00000000000E+00 0. -1.
          2   -1    0    0  501    0 -0.00000000000E+00 -0.00000000000E+00 -0.11108313016E+03  0.11108313016E+03  0.00000000000E+00 0. -1.
    9000006    2    1    2  501    0  0.00000000000E+00  0.00000000000E+00  0.88891686984E+03  0.11110831302E+04  0.66658271853E+03 0.  0.
         13    1    3    3    0    0  0.19353917579E+03 -0.12591962284E+03  0.43828349072E+02  0.23501933573E+03  0.00000000000E+00 0. -1.
          4    1    3    3  501    0 -0.19353917579E+03  0.12591962284E+03  0.84508852077E+03  0.87606379443E+03  0.00000000000E+00 0. -1.
<mgrwt>
<rscale>  0 0.66658272E+03</rscale>
<asrwt>0</asrwt>
<pdfrwt beam="1">0</pdfrwt>
<pdfrwt beam="2">  1        2 0.40393951E+00 0.66658272E+03</pdfrwt>
<totfact> 0.38443082E+00</totfact>
</mgrwt>
</event>
<event>
 5    1  0.2368666E-004  0.6447834E+03  0.7818608E-02  0.9816617E-01
         13   -1    0    0    0    0  0.00000000000E+00  0.00000000000E+00  0.10000000000E+04  0.10000000000E+04  0.00000000000E+00 0. -1.
          2   -1    0    0  501    0 -0.00000000000E+00 -0.00000000000E+00 -0.10393641149E+03  0.10393641149E+03  0.00000000000E+00 0. -1.
    9000006    2    1    2  501    0  0.00000000000E+00  0.00000000000E+00  0.89606358851E+03  0.11039364115E+04  0.64478341010E+03 0.  0.
         13    1    3    3    0    0 -0.43054261511E+02  0.44781024767E+02  0.98965618594E+03  0.99160394109E+03  0.00000000000E+00 0. -1.
          4    1    3    3  501    0  0.43054261511E+02 -0.44781024767E+02 -0.93592597424E+02  0.11233247040E+03  0.00000000000E+00 0. -1.
<mgrwt>
<rscale>  0 0.64478341E+03</rscale>
<asrwt>0</asrwt>
<pdfrwt beam="1">0</pdfrwt>
<pdfrwt beam="2">  1        2 0.37795138E+00 0.64478341E+03</pdfrwt>
<totfact> 0.48119010E+00</totfact>
</mgrwt>
</event>
<event>
 5    1  0.2368666E-004  0.6544491E+03  0.7818608E-02  0.9798466E-01
         13   -1    0    0    0    0  0.00000000000E+00  0.00000000000E+00  0.10000000000E+04  0.10000000000E+04  0.00000000000E+00 0. -1.
          2   -1    0    0  501    0 -0.00000000000E+00 -0.00000000000E+00 -0.10707590672E+03  0.10707590672E+03  0.00000000000E+00 0. -1.
    9000006    2    1    2  501    0  0.00000000000E+00  0.00000000000E+00  0.89292409328E+03  0.11070759067E+04  0.65444910182E+03 0.  0.
         13    1    3    3    0    0  0.72307063569E+02  0.31885565411E+03  0.42385083473E+03  0.53530063488E+03  0.00000000000E+00 0. -1.
          2    1    3    3  501    0 -0.72307063569E+02 -0.31885565411E+03  0.46907325855E+03  0.57177527184E+03  0.00000000000E+00 0. -1.
<mgrwt>
<rscale>  0 0.65444910E+03</rscale>
<asrwt>0</asrwt>
<pdfrwt beam="1">0</pdfrwt>
<pdfrwt beam="2">  1        2 0.38936775E+00 0.65444910E+03</pdfrwt>
<totfact> 0.43625929E+00</totfact>
</mgrwt>
</event>
<event>
 5    1  0.2368666E-004  0.6511728E+03  0.7818608E-02  0.9804581E-01
         13   -1    0    0    0    0  0.00000000000E+00  0.00000000000E+00  0.10000000000E+04  0.10000000000E+04  0.00000000000E+00 0. -1.
          2   -1    0    0  501    0 -0.00000000000E+00 -0.00000000000E+00 -0.10600650772E+03  0.10600650772E+03  0.00000000000E+00 0. -1.
    9000006    2    1    2  501    0  0.00000000000E+00  0.00000000000E+00  0.89399349228E+03  0.11060065077E+04  0.65117281185E+03 0.  0.
         13    1    3    3    0    0 -0.60026965886E+01 -0.26354745738E+02  0.99809103469E+03  0.99845696879E+03  0.00000000000E+00 0. -1.
          4    1    3    3  501    0  0.60026965886E+01  0.26354745738E+02 -0.10409754241E+03  0.10754953894E+03  0.00000000000E+00 0. -1.
<mgrwt>
<rscale>  0 0.65117281E+03</rscale>
<asrwt>0</asrwt>
<pdfrwt beam="1">0</pdfrwt>
<pdfrwt beam="2">  1        2 0.38547902E+00 0.65117281E+03</pdfrwt>
<totfact> 0.45111722E+00</totfact>
</mgrwt>
</event>
<event>
 5    1  0.2368666E-004  0.6564944E+03  0.7818608E-02  0.9794669E-01
         13   -1    0    0    0    0  0.00000000000E+00  0.00000000000E+00  0.10000000000E+04  0.10000000000E+04  0.00000000000E+00 0. -1.
          2   -1    0    0  501    0 -0.00000000000E+00 -0.00000000000E+00 -0.10774622357E+03  0.10774622357E+03  0.00000000000E+00 0. -1.
    9000006    2    1    2  501    0  0.00000000000E+00  0.00000000000E+00  0.89225377643E+03  0.11077462236E+04  0.65649439775E+03 0.  0.
         13    1    3    3    0    0 -0.24120005440E+03  0.84462565566E+02  0.79371946987E+03  0.83384770077E+03  0.00000000000E+00 0. -1.
          2    1    3    3  501    0  0.24120005440E+03 -0.84462565566E+02  0.98534306562E+02  0.27389852280E+03  0.00000000000E+00 0. -1.
<mgrwt>
<rscale>  0 0.65649440E+03</rscale>
<asrwt>0</asrwt>
<pdfrwt beam="1">0</pdfrwt>
<pdfrwt beam="2">  1        2 0.39180528E+00 0.65649440E+03</pdfrwt>
<totfact> 0.42717323E+00</totfact>
</mgrwt>
</event>
<event>
 5    1  0.2368666E-004  0.6593337E+03  0.7818608E-02  0.9789421E-01
         13   -1    0    0    0    0  0.00000000000E+00  0.00000000000E+00  0.10000000000E+04  0.10000000000E+04  0.00000000000E+00 0. -1.
          2   -1    0    0  501    0 -0.00000000000E+00 -0.00000000000E+00 -0.10868023278E+03  0.10868023278E+03  0.00000000000E+00 0. -1.
    9000006    2    1    2  501    0  0.00000000000E+00  0.00000000000E+00  0.89131976722E+03  0.11086802328E+04  0.65933370239E+03 0.  0.
         13    1    3    3    0    0 -0.81305129775E+02  0.22744616612E+03  0.82292686046E+03  0.85764264136E+03  0.00000000000E+00 0. -1.
          2    1    3    3  501    0  0.81305129775E+02 -0.22744616612E+03  0.68392906760E+02  0.25103759142E+03  0.00000000000E+00 0. -1.
<mgrwt>
<rscale>  0 0.65933370E+03</rscale>
<asrwt>0</asrwt>
<pdfrwt beam="1">0</pdfrwt>
<pdfrwt beam="2">  1        2 0.39520168E+00 0.65933370E+03</pdfrwt>
<totfact> 0.41479801E+00</totfact>
</mgrwt>
</event>
<event>
 5    1  0.2368666E-004  0.6522586E+03  0.7818608E-02  0.9802550E-01
         13   -1    0    0    0    0  0.00000000000E+00  0.00000000000E+00  0.10000000000E+04  0.10000000000E+04  0.00000000000E+00 0. -1.
          2   -1    0    0  501    0 -0.00000000000E+00 -0.00000000000E+00 -0.10636033331E+03  0.10636033331E+03  0.00000000000E+00 0. -1.
    9000006    2    1    2  501    0  0.00000000000E+00  0.00000000000E+00  0.89363966669E+03  0.11063603333E+04  0.65225863985E+03 0.  0.
         13    1    3    3    0    0  0.11191448657E+03  0.16064940074E+03  0.88922298972E+03  0.91052216212E+03  0.00000000000E+00 0. -1.
          4    1    3    3  501    0 -0.11191448657E+03 -0.16064940074E+03  0.44166769683E+01  0.19583817120E+03  0.00000000000E+00 0. -1.
<mgrwt>
<rscale>  0 0.65225864E+03</rscale>
<asrwt>0</asrwt>
<pdfrwt beam="1">0</pdfrwt>
<pdfrwt beam="2">  1        2 0.38676566E+00 0.65225864E+03</pdfrwt>
<totfact> 0.44615132E+00</totfact>
</mgrwt>
</event>
<event>
 5    1  0.2368666E-004  0.6488258E+03  0.7818608E-02  0.9808985E-01
         13   -1    0    0    0    0  0.00000000000E+00  0.00000000000E+00  0.10000000000E+04  0.10000000000E+04  0.00000000000E+00 0. -1.
          2   -1    0    0  501    0 -0.00000000000E+00 -0.00000000000E+00 -0.10524373109E+03  0.10524373109E+03  0.00000000000E+00 0. -1.
    9000006    2    1    2  501    0  0.00000000000E+00  0.00000000000E+00  0.89475626891E+03  0.11052437311E+04  0.64882580431E+03 0.  0.
         13    1    3    3    0    0  0.27668860925E+03  0.12399577504E+03  0.64391984835E+03  0.71173331369E+03  0.00000000000E+00 0. -1.
          4    1    3    3  501    0 -0.27668860925E+03 -0.12399577504E+03  0.25083642057E+03  0.39351041740E+03  0.00000000000E+00 0. -1.
<mgrwt>
<rscale>  0 0.64882580E+03</rscale>
<asrwt>0</asrwt>
<pdfrwt beam="1">0</pdfrwt>
<pdfrwt beam="2">  1        2 0.38270528E+00 0.64882580E+03</pdfrwt>
<totfact> 0.46199360E+00</totfact>
</mgrwt>
</event>
<event>
 5    1  0.2368666E-004  0.6271020E+03  0.7818608E-02  0.9850720E-01
         13   -1    0    0    0    0  0.00000000000E+00  0.00000000000E+00  0.10000000000E+04  0.10000000000E+04  0.00000000000E+00 0. -1.
          2   -1    0    0  501    0 -0.00000000000E+00 -0.00000000000E+00 -0.98314222099E+02  0.98314222099E+02  0.00000000000E+00 0. -1.
    9000006    2    1    2  501    0  0.00000000000E+00  0.00000000000E+00  0.90168577790E+03  0.10983142221E+04  0.62710197608E+03 0.  0.
         13    1    3    3    0    0  0.13165699237E+03 -0.65897516006E+02  0.93569692769E+03  0.94720894566E+03  0.00000000000E+00 0. -1.
          4    1    3    3  501    0 -0.13165699237E+03  0.65897516006E+02 -0.34011149790E+02  0.15110527644E+03  0.00000000000E+00 0. -1.
<mgrwt>
<rscale>  0 0.62710198E+03</rscale>
<asrwt>0</asrwt>
<pdfrwt beam="1">0</pdfrwt>
<pdfrwt beam="2">  1        2 0.35750702E+00 0.62710198E+03</pdfrwt>
<totfact> 0.57235946E+00</totfact>
</mgrwt>
</event>
<event>
 5    1  0.2368666E-004  0.6626131E+03  0.7818608E-02  0.9783395E-01
         13   -1    0    0    0    0  0.00000000000E+00  0.00000000000E+00  0.10000000000E+04  0.10000000000E+04  0.00000000000E+00 0. -1.
          2   -1    0    0  501    0 -0.00000000000E+00 -0.00000000000E+00 -0.10976404221E+03  0.10976404221E+03  0.00000000000E+00 0. -1.
    9000006    2    1    2  501    0  0.00000000000E+00  0.00000000000E+00  0.89023595779E+03  0.11097640422E+04  0.66261313665E+03 0.  0.
         13    1    3    3    0    0  0.25450363434E+03 -0.17572253452E+03  0.64408838282E+03  0.71449307479E+03  0.00000000000E+00 0. -1.
          2    1    3    3  501    0 -0.25450363434E+03  0.17572253452E+03  0.24614757496E+03  0.39527096743E+03  0.00000000000E+00 0. -1.
<mgrwt>
<rscale>  0 0.66261314E+03</rscale>
<asrwt>0</asrwt>
<pdfrwt beam="1">0</pdfrwt>
<pdfrwt beam="2">  1        2 0.39914281E+00 0.66261314E+03</pdfrwt>
<totfact> 0.40084414E+00</totfact>
</mgrwt>
</event>
<event>
 5    1  0.2368666E-004  0.6590520E+03  0.7818608E-02  0.9789940E-01
         13   -1    0    0    0    0  0.00000000000E+00  0.00000000000E+00  0.10000000000E+04  0.10000000000E+04  0.00000000000E+00 0. -1.
          2   -1    0    0  501    0 -0.00000000000E+00 -0.00000000000E+00 -0.10858738358E+03  0.10858738358E+03  0.00000000000E+00 0. -1.
    9000006    2    1    2  501    0  0.00000000000E+00  0.00000000000E+00  0.89141261642E+03  0.11085873836E+04  0.65905199667E+03 0.  0.
         13    1    3    3    0    0 -0.26116973348E+02 -0.89733336456E+02  0.97724058907E+03  0.98169920897E+03  0.00000000000E+00 0. -1.
          2    1    3    3  501    0  0.26116973348E+02  0.89733336456E+02 -0.85827972645E+02  0.12688817461E+03  0.00000000000E+00 0. -1.
<mgrwt>
<rscale>  0 0.65905200E+03</rscale>
<asrwt>0</asrwt>
<pdfrwt beam="1">0</pdfrwt>
<pdfrwt beam="2">  1        2 0.39486405E+00 0.65905200E+03</pdfrwt>
<totfact> 0.41601352E+00</totfact>
</mgrwt>
</event>
<event>
 5    1  0.2368666E-004  0.6635229E+03  0.7818608E-02  0.9781730E-01
         13   -1    0    0    0    0  0.00000000000E+00  0.00000000000E+00  0.10000000000E+04  0.10000000000E+04  0.00000000000E+00 0. -1.
          2   -1    0    0  501    0 -0.00000000000E+00 -0.00000000000E+00 -0.11006567386E+03  0.11006567386E+03  0.00000000000E+00 0. -1.
    9000006    2    1    2  501    0  0.00000000000E+00  0.00000000000E+00  0.88993432614E+03  0.11100656739E+04  0.66352294265E+03 0.  0.
         13    1    3    3    0    0 -0.31339153810E+03 -0.95147410166E+02  0.35646646475E+03  0.48408225159E+03  0.00000000000E+00 0. -1.
          4    1    3    3  501    0  0.31339153810E+03  0.95147410166E+02  0.53346786140E+03  0.62598342227E+03  0.00000000000E+00 0. -1.
<mgrwt>
<rscale>  0 0.66352294E+03</rscale>
<asrwt>0</asrwt>
<pdfrwt beam="1">0</pdfrwt>
<pdfrwt beam="2">  1        2 0.40023966E+00 0.66352294E+03</pdfrwt>
<totfact> 0.39703650E+00</totfact>
</mgrwt>
</event>
<event>
 5    1  0.2368666E-004  0.6588584E+03  0.7818608E-02  0.9790298E-01
         13   -1    0    0    0    0  0.00000000000E+00  0.00000000000E+00  0.10000000000E+04  0.10000000000E+04  0.00000000000E+00 0. -1.
          2   -1    0    0  501    0 -0.00000000000E+00 -0.00000000000E+00 -0.10852358852E+03  0.10852358852E+03  0.00000000000E+00 0. -1.
    9000006    2    1    2  501    0  0.00000000000E+00  0.00000000000E+00  0.89147641148E+03  0.11085235885E+04  0.65885837180E+03 0.  0.
         13    1    3    3    0    0  0.12053858450E+03  0.14956742921E+03  0.89601649864E+03  0.91637630484E+03  0.00000000000E+00 0. -1.
          4    1    3    3  501    0 -0.12053858450E+03 -0.14956742921E+03 -0.45400871618E+01  0.19214728368E+03  0.00000000000E+00 0. -1.
<mgrwt>
<rscale>  0 0.65885837E+03</rscale>
<asrwt>0</asrwt>
<pdfrwt beam="1">0</pdfrwt>
<pdfrwt beam="2">  1        2 0.39463206E+00 0.65885837E+03</pdfrwt>
<totfact> 0.41685054E+00</totfact>
</mgrwt>
</event>
<event>
 5    1  0.2368666E-004  0.6358882E+03  0.7818608E-02  0.9833625E-01
         13   -1    0    0    0    0  0.00000000000E+00  0.00000000000E+00  0.10000000000E+04  0.10000000000E+04  0.00000000000E+00 0. -1.
          2   -1    0    0  501    0 -0.00000000000E+00 -0.00000000000E+00 -0.10108846173E+03  0.10108846173E+03  0.00000000000E+00 0. -1.
    9000006    2    1    2  501    0  0.00000000000E+00  0.00000000000E+00  0.89891153827E+03  0.11010884617E+04  0.63588823460E+03 0.  0.
         13    1    3    3    0    0  0.24908421246E+03  0.19321933469E+03  0.52109792313E+03  0.60903177395E+03  0.00000000000E+00 0. -1.
          4    1    3    3  501    0 -0.24908421246E+03 -0.19321933469E+03  0.37781361514E+03  0.49205668777E+03  0.00000000000E+00 0. -1.
<mgrwt>
<rscale>  0 0.63588823E+03</rscale>
<asrwt>0</asrwt>
<pdfrwt beam="1">0</pdfrwt>
<pdfrwt beam="2">  1        2 0.36759518E+00 0.63588823E+03</pdfrwt>
<totfact> 0.52555708E+00</totfact>
</mgrwt>
</event>
<event>
 5    1  0.2368666E-004  0.5764198E+03  0.7818608E-02  0.9955572E-01
         13   -1    0    0    0    0  0.00000000000E+00  0.00000000000E+00  0.10000000000E+04  0.10000000000E+04  0.00000000000E+00 0. -1.
          2   -1    0    0  501    0 -0.00000000000E+00 -0.00000000000E+00 -0.83064936205E+02  0.83064936205E+02  0.00000000000E+00 0. -1.
    9000006    2    1    2  501    0  0.00000000000E+00  0.00000000000E+00  0.91693506380E+03  0.10830649362E+04  0.57641976442E+03 0.  0.
         13    1    3    3    0    0  0.73956902061E+02 -0.27851903377E+03  0.46737238951E+03  0.54907142159E+03  0.00000000000E+00 0. -1.
          2    1    3    3  501    0 -0.73956902061E+02  0.27851903377E+03  0.44956267429E+03  0.53399351461E+03  0.00000000000E+00 0. -1.
<mgrwt>
<rscale>  0 0.57641976E+03</rscale>
<asrwt>0</asrwt>
<pdfrwt beam="1">0</pdfrwt>
<pdfrwt beam="2">  1        2 0.30205495E+00 0.57641976E+03</pdfrwt>
<totfact> 0.90777472E+00</totfact>
</mgrwt>
</event>
<event>
 5    1  0.2368666E-004  0.6498631E+03  0.7818608E-02  0.9807036E-01
         13   -1    0    0    0    0  0.00000000000E+00  0.00000000000E+00  0.10000000000E+04  0.10000000000E+04  0.00000000000E+00 0. -1.
          2   -1    0    0  501    0 -0.00000000000E+00 -0.00000000000E+00 -0.10558051364E+03  0.10558051364E+03  0.00000000000E+00 0. -1.
    9000006    2    1    2  501    0  0.00000000000E+00  0.00000000000E+00  0.89441948636E+03  0.11055805136E+04  0.64986310447E+03 0.  0.
         13    1    3    3    0    0 -0.17217311340E+03 -0.86959735670E+02  0.23562919160E+01  0.19290186291E+03  0.00000000000E+00 0. -1.
          4    1    3    3  501    0  0.17217311340E+03  0.86959735670E+02  0.89206319445E+03  0.91267865072E+03  0.00000000000E+00 0. -1.
<mgrwt>
<rscale>  0 0.64986310E+03</rscale>
<asrwt>0</asrwt>
<pdfrwt beam="1">0</pdfrwt>
<pdfrwt beam="2">  1        2 0.38392995E+00 0.64986310E+03</pdfrwt>
<totfact> 0.45716244E+00</totfact>
</mgrwt>
</event>
<event>
 5    1  0.2368666E-004  0.6439512E+03  0.7818608E-02  0.9818196E-01
         13   -1    0    0    0    0  0.00000000000E+00  0.00000000000E+00  0.10000000000E+04  0.10000000000E+04  0.00000000000E+00 0. -1.
          2   -1    0    0  501    0 -0.00000000000E+00 -0.00000000000E+00 -0.10366830122E+03  0.10366830122E+03  0.00000000000E+00 0. -1.
    9000006    2    1    2  501    0  0.00000000000E+00  0.00000000000E+00  0.89633169878E+03  0.11036683012E+04  0.64395124419E+03 0.  0.
         13    1    3    3    0    0  0.99081112794E+02 -0.30153937683E+03  0.54086296595E+03  0.62711706293E+03  0.00000000000E+00 0. -1.
          2    1    3    3  501    0 -0.99081112794E+02  0.30153937683E+03  0.35546873283E+03  0.47655123829E+03  0.00000000000E+00 0. -1.
<mgrwt>
<rscale>  0 0.64395124E+03</rscale>
<asrwt>0</asrwt>
<pdfrwt beam="1">0</pdfrwt>
<pdfrwt beam="2">  1        2 0.37697644E+00 0.64395124E+03</pdfrwt>
<totfact> 0.48521563E+00</totfact>
</mgrwt>
</event>
<event>
 5    1  0.2368666E-004  0.6395169E+03  0.7818608E-02  0.9826651E-01
         13   -1    0    0    0    0  0.00000000000E+00  0.00000000000E+00  0.10000000000E+04  0.10000000000E+04  0.00000000000E+00 0. -1.
          2   -1    0    0  501    0 -0.00000000000E+00 -0.00000000000E+00 -0.10224546836E+03  0.10224546836E+03  0.00000000000E+00 0. -1.
    9000006    2    1    2  501    0  0.00000000000E+00  0.00000000000E+00  0.89775453164E+03  0.11022454684E+04  0.63951690630E+03 0.  0.
         13    1    3    3    0    0  0.18109080289E+03 -0.26344011813E+03  0.46117310012E+03  0.56113741900E+03  0.00000000000E+00 0. -1.
          2    1    3    3  501    0 -0.18109080289E+03  0.26344011813E+03  0.43658143152E+03  0.54110804936E+03  0.00000000000E+00 0. -1.
<mgrwt>
<rscale>  0 0.63951691E+03</rscale>
<asrwt>0</asrwt>
<pdfrwt beam="1">0</pdfrwt>
<pdfrwt beam="2">  1        2 0.37180249E+00 0.63951691E+03</pdfrwt>
<totfact> 0.50709943E+00</totfact>
</mgrwt>
</event>
<event>
 5    1  0.2368666E-004  0.6549114E+03  0.7818608E-02  0.9797607E-01
         13   -1    0    0    0    0  0.00000000000E+00  0.00000000000E+00  0.10000000000E+04  0.10000000000E+04  0.00000000000E+00 0. -1.
          2   -1    0    0  501    0 -0.00000000000E+00 -0.00000000000E+00 -0.10722724671E+03  0.10722724671E+03  0.00000000000E+00 0. -1.
    9000006    2    1    2  501    0  0.00000000000E+00  0.00000000000E+00  0.89277275329E+03  0.11072272467E+04  0.65491143436E+03 0.  0.
         13    1    3    3    0    0 -0.27217185931E+03  0.24135145328E+01  0.75417743620E+03  0.80178984237E+03  0.00000000000E+00 0. -1.
          2    1    3    3  501    0  0.27217185931E+03 -0.24135145328E+01  0.13859531708E+03  0.30543740434E+03  0.00000000000E+00 0. -1.
<mgrwt>
<rscale>  0 0.65491143E+03</rscale>
<asrwt>0</asrwt>
<pdfrwt beam="1">0</pdfrwt>
<pdfrwt beam="2">  1        2 0.38991808E+00 0.65491143E+03</pdfrwt>
<totfact> 0.43419277E+00</totfact>
</mgrwt>
</event>
<event>
 5    1  0.2368666E-004  0.6482782E+03  0.7818608E-02  0.9810015E-01
         13   -1    0    0    0    0  0.00000000000E+00  0.00000000000E+00  0.10000000000E+04  0.10000000000E+04  0.00000000000E+00 0. -1.
          2   -1    0    0  501    0 -0.00000000000E+00 -0.00000000000E+00 -0.10506616872E+03  0.10506616872E+03  0.00000000000E+00 0. -1.
    9000006    2    1    2  501    0  0.00000000000E+00  0.00000000000E+00  0.89493383128E+03  0.11050661687E+04  0.64827823878E+03 0.  0.
         13    1    3    3    0    0  0.91706980602E+02  0.23446180261E+03  0.99442454105E+02  0.27068673564E+03  0.00000000000E+00 0. -1.
          2    1    3    3  501    0 -0.91706980602E+02 -0.23446180261E+03  0.79549137718E+03  0.83437943307E+03  0.00000000000E+00 0. -1.
<mgrwt>
<rscale>  0 0.64827824E+03</rscale>
<asrwt>0</asrwt>
<pdfrwt beam="1">0</pdfrwt>
<pdfrwt beam="2">  1        2 0.38205960E+00 0.64827824E+03</pdfrwt>
<totfact> 0.46455936E+00</totfact>
</mgrwt>
</event>
<event>
 5    1  0.2368666E-004  0.7267746E+03  0.7818608E-02  0.9672509E-01
         13   -1    0    0    0    0  0.00000000000E+00  0.00000000000E+00  0.10000000000E+04  0.10000000000E+04  0.00000000000E+00 0. -1.
          2   -1    0    0  501    0 -0.00000000000E+00 -0.00000000000E+00 -0.13205032394E+03  0.13205032394E+03  0.00000000000E+00 0. -1.
    9000006    2    1    2  501    0  0.00000000000E+00  0.00000000000E+00  0.86794967606E+03  0.11320503239E+04  0.72677458386E+03 0.  0.
         13    1    3    3    0    0  0.70539415493E+02 -0.34460256459E+03  0.29186594025E+03  0.45706942989E+03  0.00000000000E+00 0. -1.
          2    1    3    3  501    0 -0.70539415493E+02  0.34460256459E+03  0.57608373581E+03  0.67498089405E+03  0.00000000000E+00 0. -1.
<mgrwt>
<rscale>  0 0.72677458E+03</rscale>
<asrwt>0</asrwt>
<pdfrwt beam="1">0</pdfrwt>
<pdfrwt beam="2">  1        2 0.48018401E+00 0.72677458E+03</pdfrwt>
<totfact> 0.19219597E+00</totfact>
</mgrwt>
</event>
<event>
 5    1  0.2368666E-004  0.6476707E+03  0.7818608E-02  0.9811160E-01
         13   -1    0    0    0    0  0.00000000000E+00  0.00000000000E+00  0.10000000000E+04  0.10000000000E+04  0.00000000000E+00 0. -1.
          2   -1    0    0  501    0 -0.00000000000E+00 -0.00000000000E+00 -0.10486933701E+03  0.10486933701E+03  0.00000000000E+00 0. -1.
    9000006    2    1    2  501    0  0.00000000000E+00  0.00000000000E+00  0.89513066299E+03  0.11048693370E+04  0.64767070959E+03 0.  0.
         13    1    3    3    0    0  0.28717407318E+03 -0.14378104438E+03  0.37666420752E+03  0.49499279010E+03  0.00000000000E+00 0. -1.
          4    1    3    3  501    0 -0.28717407318E+03  0.14378104438E+03  0.51846645546E+03  0.60987654691E+03  0.00000000000E+00 0. -1.
<mgrwt>
<rscale>  0 0.64767071E+03</rscale>
<asrwt>0</asrwt>
<pdfrwt beam="1">0</pdfrwt>
<pdfrwt beam="2">  1        2 0.38134385E+00 0.64767071E+03</pdfrwt>
<totfact> 0.46741869E+00</totfact>
</mgrwt>
</event>
<event>
 5    1  0.2368666E-004  0.6470990E+03  0.7818608E-02  0.9812238E-01
         13   -1    0    0    0    0  0.00000000000E+00  0.00000000000E+00  0.10000000000E+04  0.10000000000E+04  0.00000000000E+00 0. -1.
          2   -1    0    0  501    0 -0.00000000000E+00 -0.00000000000E+00 -0.10468427083E+03  0.10468427083E+03  0.00000000000E+00 0. -1.
    9000006    2    1    2  501    0  0.00000000000E+00  0.00000000000E+00  0.89531572917E+03  0.11046842708E+04  0.64709897489E+03 0.  0.
         13    1    3    3    0    0 -0.22814075862E+02 -0.31093367342E+03  0.59534256082E+03  0.67203645440E+03  0.00000000000E+00 0. -1.
          4    1    3    3  501    0  0.22814075862E+02  0.31093367342E+03  0.29997316835E+03  0.43264781642E+03  0.00000000000E+00 0. -1.
<mgrwt>
<rscale>  0 0.64709897E+03</rscale>
<asrwt>0</asrwt>
<pdfrwt beam="1">0</pdfrwt>
<pdfrwt beam="2">  1        2 0.38067088E+00 0.64709897E+03</pdfrwt>
<totfact> 0.47012168E+00</totfact>
</mgrwt>
</event>
<event>
 5    1  0.2368666E-004  0.6662842E+03  0.7818608E-02  0.9776694E-01
         13   -1    0    0    0    0  0.00000000000E+00  0.00000000000E+00  0.10000000000E+04  0.10000000000E+04  0.00000000000E+00 0. -1.
          2   -1    0    0  501    0 -0.00000000000E+00 -0.00000000000E+00 -0.11098366400E+03  0.11098366400E+03  0.00000000000E+00 0. -1.
    9000006    2    1    2  501    0  0.00000000000E+00  0.00000000000E+00  0.88901633600E+03  0.11109836640E+04  0.66628421564E+03 0.  0.
         13    1    3    3    0    0 -0.61431440345E+01 -0.32056701357E+03  0.29367499172E+03  0.43479414574E+03  0.00000000000E+00 0. -1.
          2    1    3    3  501    0  0.61431440345E+01  0.32056701357E+03  0.59534134428E+03  0.67618951826E+03  0.00000000000E+00 0. -1.
<mgrwt>
<rscale>  0 0.66628422E+03</rscale>
<asrwt>0</asrwt>
<pdfrwt beam="1">0</pdfrwt>
<pdfrwt beam="2">  1        2 0.40357781E+00 0.66628422E+03</pdfrwt>
<totfact> 0.38564713E+00</totfact>
</mgrwt>
</event>
<event>
 5    1  0.2368666E-004  0.7625564E+03  0.7818608E-02  0.9615855E-01
         13   -1    0    0    0    0  0.00000000000E+00  0.00000000000E+00  0.10000000000E+04  0.10000000000E+04  0.00000000000E+00 0. -1.
          2   -1    0    0  501    0 -0.00000000000E+00 -0.00000000000E+00 -0.14537307547E+03  0.14537307547E+03  0.00000000000E+00 0. -1.
    9000006    2    1    2  501    0  0.00000000000E+00  0.00000000000E+00  0.85462692453E+03  0.11453730755E+04  0.76255642537E+03 0.  0.
         13    1    3    3    0    0  0.33189281621E+03  0.11075612573E+01  0.70919299341E+03  0.78301262445E+03  0.00000000000E+00 0. -1.
          4    1    3    3  501    0 -0.33189281621E+03 -0.11075612573E+01  0.14543393112E+03  0.36236045102E+03  0.00000000000E+00 0. -1.
<mgrwt>
<rscale>  0 0.76255643E+03</rscale>
<asrwt>0</asrwt>
<pdfrwt beam="1">0</pdfrwt>
<pdfrwt beam="2">  1        2 0.52863048E+00 0.76255643E+03</pdfrwt>
<totfact> 0.11935259E+00</totfact>
</mgrwt>
</event>
<event>
 5    1  0.2368666E-004  0.6542940E+03  0.7818608E-02  0.9798755E-01
         13   -1    0    0    0    0  0.00000000000E+00  0.00000000000E+00  0.10000000000E+04  0.10000000000E+04  0.00000000000E+00 0. -1.
          2   -1    0    0  501    0 -0.00000000000E+00 -0.00000000000E+00 -0.10702517589E+03  0.10702517589E+03  0.00000000000E+00 0. -1.
    9000006    2    1    2  501    0  0.00000000000E+00  0.00000000000E+00  0.89297482411E+03  0.11070251759E+04  0.65429404978E+03 0.  0.
         13    1    3    3    0    0  0.24247230213E+03  0.21901202984E+03  0.47408672672E+03  0.57577539976E+03  0.00000000000E+00 0. -1.
          2    1    3    3  501    0 -0.24247230213E+03 -0.21901202984E+03  0.41888809738E+03  0.53124977613E+03  0.00000000000E+00 0. -1.
<mgrwt>
<rscale>  0 0.65429405E+03</rscale>
<asrwt>0</asrwt>
<pdfrwt beam="1">0</pdfrwt>
<pdfrwt beam="2">  1        2 0.38918328E+00 0.65429405E+03</pdfrwt>
<totfact> 0.43695400E+00</totfact>
</mgrwt>
</event>
<event>
 5    1  0.2368666E-004  0.6939688E+03  0.7818608E-02  0.9727602E-01
         13   -1    0    0    0    0  0.00000000000E+00  0.00000000000E+00  0.10000000000E+04  0.10000000000E+04  0.00000000000E+00 0. -1.
          2   -1    0    0  501    0 -0.00000000000E+00 -0.00000000000E+00 -0.12039817812E+03  0.12039817812E+03  0.00000000000E+00 0. -1.
    9000006    2    1    2  501    0  0.00000000000E+00  0.00000000000E+00  0.87960182188E+03  0.11203981781E+04  0.69396881233E+03 0.  0.
         13    1    3    3    0    0  0.22200602585E+03  0.13623287471E+03  0.69693735528E+02  0.26963547325E+03  0.00000000000E+00 0. -1.
          4    1    3    3  501    0 -0.22200602585E+03 -0.13623287471E+03  0.80990808635E+03  0.85076270487E+03  0.00000000000E+00 0. -1.
<mgrwt>
<rscale>  0 0.69396881E+03</rscale>
<asrwt>0</asrwt>
<pdfrwt beam="1">0</pdfrwt>
<pdfrwt beam="2">  1        2 0.43781248E+00 0.69396881E+03</pdfrwt>
<totfact> 0.28456744E+00</totfact>
</mgrwt>
</event>
<event>
 5    1  0.2368666E-004  0.6552745E+03  0.7818608E-02  0.9796932E-01
         13   -1    0    0    0    0  0.00000000000E+00  0.00000000000E+00  0.10000000000E+04  0.10000000000E+04  0.00000000000E+00 0. -1.
          2   -1    0    0  501    0 -0.00000000000E+00 -0.00000000000E+00 -0.10734615852E+03  0.10734615852E+03  0.00000000000E+00 0. -1.
    9000006    2    1    2  501    0  0.00000000000E+00  0.00000000000E+00  0.89265384148E+03  0.11073461585E+04  0.65527447233E+03 0.  0.
         13    1    3    3    0    0 -0.12743352107E+03  0.29005607956E+03  0.30519953222E+03  0.43990747442E+03  0.00000000000E+00 0. -1.
          4    1    3    3  501    0  0.12743352107E+03 -0.29005607956E+03  0.58745430926E+03  0.66743868411E+03  0.00000000000E+00 0. -1.
<mgrwt>
<rscale>  0 0.65527447E+03</rscale>
<asrwt>0</asrwt>
<pdfrwt beam="1">0</pdfrwt>
<pdfrwt beam="2">  1        2 0.39035049E+00 0.65527447E+03</pdfrwt>
<totfact> 0.43257526E+00</totfact>
</mgrwt>
</event>
<event>
 5    1  0.2368666E-004  0.6545595E+03  0.7818608E-02  0.9798261E-01
         13   -1    0    0    0    0  0.00000000000E+00  0.00000000000E+00  0.10000000000E+04  0.10000000000E+04  0.00000000000E+00 0. -1.
          2   -1    0    0  501    0 -0.00000000000E+00 -0.00000000000E+00 -0.10711202005E+03  0.10711202005E+03  0.00000000000E+00 0. -1.
    9000006    2    1    2  501    0  0.00000000000E+00  0.00000000000E+00  0.89288797995E+03  0.11071120201E+04  0.65455945506E+03 0.  0.
         13    1    3    3    0    0 -0.13943523194E+03  0.24286216061E+03  0.73292190108E+03  0.78460099799E+03  0.00000000000E+00 0. -1.
          4    1    3    3  501    0  0.13943523194E+03 -0.24286216061E+03  0.15996607886E+03  0.32251102206E+03  0.00000000000E+00 0. -1.
<mgrwt>
<rscale>  0 0.65455946E+03</rscale>
<asrwt>0</asrwt>
<pdfrwt beam="1">0</pdfrwt>
<pdfrwt beam="2">  1        2 0.38949908E+00 0.65455946E+03</pdfrwt>
<totfact> 0.43576536E+00</totfact>
</mgrwt>
</event>
<event>
 5    1  0.2368666E-004  0.6777649E+03  0.7818608E-02  0.9756031E-01
         13   -1    0    0    0    0  0.00000000000E+00  0.00000000000E+00  0.10000000000E+04  0.10000000000E+04  0.00000000000E+00 0. -1.
          2   -1    0    0  501    0 -0.00000000000E+00 -0.00000000000E+00 -0.11484131683E+03  0.11484131683E+03  0.00000000000E+00 0. -1.
    9000006    2    1    2  501    0  0.00000000000E+00  0.00000000000E+00  0.88515868317E+03  0.11148413168E+04  0.67776490566E+03 0.  0.
         13    1    3    3    0    0 -0.82105800840E+02 -0.31644303773E+03  0.58936817198E+03  0.67396765561E+03  0.00000000000E+00 0. -1.
          4    1    3    3  501    0  0.82105800840E+02  0.31644303773E+03  0.29579051118E+03  0.44087366123E+03  0.00000000000E+00 0. -1.
<mgrwt>
<rscale>  0 0.67776491E+03</rscale>
<asrwt>0</asrwt>
<pdfrwt beam="1">0</pdfrwt>
<pdfrwt beam="2">  1        2 0.41760567E+00 0.67776491E+03</pdfrwt>
<totfact> 0.34091246E+00</totfact>
</mgrwt>
</event>
<event>
 5    1  0.2368666E-004  0.6396169E+03  0.7818608E-02  0.9826460E-01
         13   -1    0    0    0    0  0.00000000000E+00  0.00000000000E+00  0.10000000000E+04  0.10000000000E+04  0.00000000000E+00 0. -1.
          2   -1    0    0  501    0 -0.00000000000E+00 -0.00000000000E+00 -0.10227744785E+03  0.10227744785E+03  0.00000000000E+00 0. -1.
    9000006    2    1    2  501    0  0.00000000000E+00  0.00000000000E+00  0.89772255215E+03  0.11022774478E+04  0.63961690986E+03 0.  0.
         13    1    3    3    0    0  0.98866080077E+02 -0.21351054840E+03  0.75583304414E+02  0.24713173000E+03  0.00000000000E+00 0. -1.
          2    1    3    3  501    0 -0.98866080077E+02  0.21351054840E+03  0.82213924774E+03  0.85514571784E+03  0.00000000000E+00 0. -1.
<mgrwt>
<rscale>  0 0.63961691E+03</rscale>
<asrwt>0</asrwt>
<pdfrwt beam="1">0</pdfrwt>
<pdfrwt beam="2">  1        2 0.37191878E+00 0.63961691E+03</pdfrwt>
<totfact> 0.50659781E+00</totfact>
</mgrwt>
</event>
<event>
 5    1  0.2368666E-004  0.6472046E+03  0.7818608E-02  0.9812039E-01
         13   -1    0    0    0    0  0.00000000000E+00  0.00000000000E+00  0.10000000000E+04  0.10000000000E+04  0.00000000000E+00 0. -1.
          2   -1    0    0  501    0 -0.00000000000E+00 -0.00000000000E+00 -0.10471844489E+03  0.10471844489E+03  0.00000000000E+00 0. -1.
    9000006    2    1    2  501    0  0.00000000000E+00  0.00000000000E+00  0.89528155511E+03  0.11047184449E+04  0.64720458864E+03 0.  0.
         13    1    3    3    0    0 -0.10121425072E+03  0.24244781905E+03  0.12516090727E+03  0.29101636075E+03  0.00000000000E+00 0. -1.
          4    1    3    3  501    0  0.10121425072E+03 -0.24244781905E+03  0.77012064784E+03  0.81370208414E+03  0.00000000000E+00 0. -1.
<mgrwt>
<rscale>  0 0.64720459E+03</rscale>
<asrwt>0</asrwt>
<pdfrwt beam="1">0</pdfrwt>
<pdfrwt beam="2">  1        2 0.38079515E+00 0.64720459E+03</pdfrwt>
<totfact> 0.46962148E+00</totfact>
</mgrwt>
</event>
<event>
 5    1  0.2368666E-004  0.6495044E+03  0.7818608E-02  0.9807710E-01
         13   -1    0    0    0    0  0.00000000000E+00  0.00000000000E+00  0.10000000000E+04  0.10000000000E+04  0.00000000000E+00 0. -1.
          2   -1    0    0  501    0 -0.00000000000E+00 -0.00000000000E+00 -0.10546400187E+03  0.10546400187E+03  0.00000000000E+00 0. -1.
    9000006    2    1    2  501    0  0.00000000000E+00  0.00000000000E+00  0.89453599813E+03  0.11054640019E+04  0.64950443222E+03 0.  0.
         13    1    3    3    0    0  0.22032176682E+03  0.17546916940E+03  0.72240957388E+03  0.77537520129E+03  0.00000000000E+00 0. -1.
          2    1    3    3  501    0 -0.22032176682E+03 -0.17546916940E+03  0.17212642426E+03  0.33008880058E+03  0.00000000000E+00 0. -1.
<mgrwt>
<rscale>  0 0.64950443E+03</rscale>
<asrwt>0</asrwt>
<pdfrwt beam="1">0</pdfrwt>
<pdfrwt beam="2">  1        2 0.38350627E+00 0.64950443E+03</pdfrwt>
<totfact> 0.45882859E+00</totfact>
</mgrwt>
</event>
<event>
 5    1  0.2368666E-004  0.6423475E+03  0.7818608E-02  0.9821245E-01
         13   -1    0    0    0    0  0.00000000000E+00  0.00000000000E+00  0.10000000000E+04  0.10000000000E+04  0.00000000000E+00 0. -1.
          2   -1    0    0  501    0 -0.00000000000E+00 -0.00000000000E+00 -0.10315257430E+03  0.10315257430E+03  0.00000000000E+00 0. -1.
    9000006    2    1    2  501    0  0.00000000000E+00  0.00000000000E+00  0.89684742570E+03  0.11031525743E+04  0.64234748946E+03 0.  0.
         13    1    3    3    0    0 -0.81342652132E+02  0.13314929458E+03 -0.33688946253E+02  0.15962552052E+03  0.00000000000E+00 0. -1.
          2    1    3    3  501    0  0.81342652132E+02 -0.13314929458E+03  0.93053637195E+03  0.94352705378E+03  0.00000000000E+00 0. -1.
<mgrwt>
<rscale>  0 0.64234749E+03</rscale>
<asrwt>0</asrwt>
<pdfrwt beam="1">0</pdfrwt>
<pdfrwt beam="2">  1        2 0.37510106E+00 0.64234749E+03</pdfrwt>
<totfact> 0.49304565E+00</totfact>
</mgrwt>
</event>
<event>
 5    1  0.2368666E-004  0.6918759E+03  0.7818608E-02  0.9731227E-01
         13   -1    0    0    0    0  0.00000000000E+00  0.00000000000E+00  0.10000000000E+04  0.10000000000E+04  0.00000000000E+00 0. -1.
          2   -1    0    0  501    0 -0.00000000000E+00 -0.00000000000E+00 -0.11967306656E+03  0.11967306656E+03  0.00000000000E+00 0. -1.
    9000006    2    1    2  501    0  0.00000000000E+00  0.00000000000E+00  0.88032693344E+03  0.11196730666E+04  0.69187590380E+03 0.  0.
         13    1    3    3    0    0  0.26545987751E+03  0.83817237626E+02  0.10780244312E+03  0.29852243237E+03  0.00000000000E+00 0. -1.
          4    1    3    3  501    0 -0.26545987751E+03 -0.83817237626E+02  0.77252449032E+03  0.82115063419E+03  0.00000000000E+00 0. -1.
<mgrwt>
<rscale>  0 0.69187590E+03</rscale>
<asrwt>0</asrwt>
<pdfrwt beam="1">0</pdfrwt>
<pdfrwt beam="2">  1        2 0.43517571E+00 0.69187590E+03</pdfrwt>
<totfact> 0.29141894E+00</totfact>
</mgrwt>
</event>
<event>
 5    1  0.2368666E-004  0.6458315E+03  0.7818608E-02  0.9814633E-01
         13   -1    0    0    0    0  0.00000000000E+00  0.00000000000E+00  0.10000000000E+04  0.10000000000E+04  0.00000000000E+00 0. -1.
          2   -1    0    0  501    0 -0.00000000000E+00 -0.00000000000E+00 -0.10427459686E+03  0.10427459686E+03  0.00000000000E+00 0. -1.
    9000006    2    1    2  501    0  0.00000000000E+00  0.00000000000E+00  0.89572540314E+03  0.11042745969E+04  0.64583154725E+03 0.  0.
         13    1    3    3    0    0  0.79485270336E+02  0.27874052935E+03  0.20448437665E+03  0.35472249886E+03  0.00000000000E+00 0. -1.
          2    1    3    3  501    0 -0.79485270336E+02 -0.27874052935E+03  0.69124102649E+03  0.74955209800E+03  0.00000000000E+00 0. -1.
<mgrwt>
<rscale>  0 0.64583155E+03</rscale>
<asrwt>0</asrwt>
<pdfrwt beam="1">0</pdfrwt>
<pdfrwt beam="2">  1        2 0.37918115E+00 0.64583155E+03</pdfrwt>
<totfact> 0.47615585E+00</totfact>
</mgrwt>
</event>
<event>
 5    1  0.2368666E-004  0.6499893E+03  0.7818608E-02  0.9806799E-01
         13   -1    0    0    0    0  0.00000000000E+00  0.00000000000E+00  0.10000000000E+04  0.10000000000E+04  0.00000000000E+00 0. -1.
          2   -1    0    0  501    0 -0.00000000000E+00 -0.00000000000E+00 -0.10562151723E+03  0.10562151723E+03  0.00000000000E+00 0. -1.
    9000006    2    1    2  501    0  0.00000000000E+00  0.00000000000E+00  0.89437848277E+03  0.11056215172E+04  0.64998928369E+03 0.  0.
         13    1    3    3    0    0  0.31190177232E+03  0.52403440094E+02  0.57439603748E+03  0.65571308054E+03  0.00000000000E+00 0. -1.
          2    1    3    3  501    0 -0.31190177232E+03 -0.52403440094E+02  0.31998244529E+03  0.44990843669E+03  0.00000000000E+00 0. -1.
<mgrwt>
<rscale>  0 0.64998928E+03</rscale>
<asrwt>0</asrwt>
<pdfrwt beam="1">0</pdfrwt>
<pdfrwt beam="2">  1        2 0.38407905E+00 0.64998928E+03</pdfrwt>
<totfact> 0.45657739E+00</totfact>
</mgrwt>
</event>
<event>
 5    1  0.2368666E-004  0.6627885E+03  0.7818608E-02  0.9783074E-01
         13   -1    0    0    0    0  0.00000000000E+00  0.00000000000E+00  0.10000000000E+04  0.10000000000E+04  0.00000000000E+00 0. -1.
          2   -1    0    0  501    0 -0.00000000000E+00 -0.00000000000E+00 -0.10982213441E+03  0.10982213441E+03  0.00000000000E+00 0. -1.
    9000006    2    1    2  501    0  0.00000000000E+00  0.00000000000E+00  0.89017786559E+03  0.11098221344E+04  0.66278845616E+03 0.  0.
         13    1    3    3    0    0 -0.18355080929E+03  0.41642893954E+02  0.90181569729E+03  0.92124729692E+03  0.00000000000E+00 0. -1.
          4    1    3    3  501    0  0.18355080929E+03 -0.41642893954E+02 -0.11637831696E+02  0.18857483749E+03  0.00000000000E+00 0. -1.
<mgrwt>
<rscale>  0 0.66278846E+03</rscale>
<asrwt>0</asrwt>
<pdfrwt beam="1">0</pdfrwt>
<pdfrwt beam="2">  1        2 0.39935406E+00 0.66278846E+03</pdfrwt>
<totfact> 0.40010827E+00</totfact>
</mgrwt>
</event>
<event>
 5    1  0.2368666E-004  0.6551023E+03  0.7818608E-02  0.9797252E-01
         13   -1    0    0    0    0  0.00000000000E+00  0.00000000000E+00  0.10000000000E+04  0.10000000000E+04  0.00000000000E+00 0. -1.
          2   -1    0    0  501    0 -0.00000000000E+00 -0.00000000000E+00 -0.10728975564E+03  0.10728975564E+03  0.00000000000E+00 0. -1.
    9000006    2    1    2  501    0  0.00000000000E+00  0.00000000000E+00  0.89271024436E+03  0.11072897556E+04  0.65510229932E+03 0.  0.
         13    1    3    3    0    0  0.17458447286E+02  0.76367718204E+02 -0.91222759326E+02  0.12024316024E+03  0.00000000000E+00 0. -1.
          2    1    3    3  501    0 -0.17458447286E+02 -0.76367718204E+02  0.98393300368E+03  0.98704659540E+03  0.00000000000E+00 0. -1.
<mgrwt>
<rscale>  0 0.65510230E+03</rscale>
<asrwt>0</asrwt>
<pdfrwt beam="1">0</pdfrwt>
<pdfrwt beam="2">  1        2 0.39014539E+00 0.65510230E+03</pdfrwt>
<totfact> 0.43334181E+00</totfact>
</mgrwt>
</event>
<event>
 5    1  0.2368666E-004  0.6732880E+03  0.7818608E-02  0.9764036E-01
         13   -1    0    0    0    0  0.00000000000E+00  0.00000000000E+00  0.10000000000E+04  0.10000000000E+04  0.00000000000E+00 0. -1.
          2   -1    0    0  501    0 -0.00000000000E+00 -0.00000000000E+00 -0.11332916792E+03  0.11332916792E+03  0.00000000000E+00 0. -1.
    9000006    2    1    2  501    0  0.00000000000E+00  0.00000000000E+00  0.88667083208E+03  0.11133291679E+04  0.67328795600E+03 0.  0.
         13    1    3    3    0    0  0.23526418225E+03  0.21166751539E+03  0.25352167761E+03  0.40549428299E+03  0.00000000000E+00 0. -1.
          2    1    3    3  501    0 -0.23526418225E+03 -0.21166751539E+03  0.63314915447E+03  0.70783488493E+03  0.00000000000E+00 0. -1.
<mgrwt>
<rscale>  0 0.67328796E+03</rscale>
<asrwt>0</asrwt>
<pdfrwt beam="1">0</pdfrwt>
<pdfrwt beam="2">  1        2 0.41210693E+00 0.67328796E+03</pdfrwt>
<totfact> 0.35786299E+00</totfact>
</mgrwt>
</event>
<event>
 5    1  0.2368666E-004  0.6500979E+03  0.7818608E-02  0.9806596E-01
         13   -1    0    0    0    0  0.00000000000E+00  0.00000000000E+00  0.10000000000E+04  0.10000000000E+04  0.00000000000E+00 0. -1.
          2   -1    0    0  501    0 -0.00000000000E+00 -0.00000000000E+00 -0.10565681076E+03  0.10565681076E+03  0.00000000000E+00 0. -1.
    9000006    2    1    2  501    0  0.00000000000E+00  0.00000000000E+00  0.89434318924E+03  0.11056568108E+04  0.65009787188E+03 0.  0.
         13    1    3    3    0    0  0.12047500038E+03 -0.26333900547E+03  0.69825705489E+03  0.75592630078E+03  0.00000000000E+00 0. -1.
          4    1    3    3  501    0 -0.12047500038E+03  0.26333900547E+03  0.19608613436E+03  0.34973050997E+03  0.00000000000E+00 0. -1.
<mgrwt>
<rscale>  0 0.65009787E+03</rscale>
<asrwt>0</asrwt>
<pdfrwt beam="1">0</pdfrwt>
<pdfrwt beam="2">  1        2 0.38420739E+00 0.65009787E+03</pdfrwt>
<totfact> 0.45607435E+00</totfact>
</mgrwt>
</event>
<event>
 5    1  0.2368666E-004  0.5160410E+03  0.7818608E-02  0.1009675E+00
         13   -1    0    0    0    0  0.00000000000E+00  0.00000000000E+00  0.10000000000E+04  0.10000000000E+04  0.00000000000E+00 0. -1.
          2   -1    0    0  501    0 -0.00000000000E+00 -0.00000000000E+00 -0.66574590519E+02  0.66574590519E+02  0.00000000000E+00 0. -1.
    9000006    2    1    2  501    0  0.00000000000E+00  0.00000000000E+00  0.93342540948E+03  0.10665745905E+04  0.51604104689E+03 0.  0.
         13    1    3    3    0    0 -0.28734493351E+02 -0.25017050373E+03  0.35046071105E+03  0.43154798347E+03  0.00000000000E+00 0. -1.
          4    1    3    3  501    0  0.28734493351E+02  0.25017050373E+03  0.58296469843E+03  0.63502660705E+03  0.00000000000E+00 0. -1.
<mgrwt>
<rscale>  0 0.51604105E+03</rscale>
<asrwt>0</asrwt>
<pdfrwt beam="1">0</pdfrwt>
<pdfrwt beam="2">  1        2 0.24208993E+00 0.51604105E+03</pdfrwt>
<totfact> 0.14884932E+01</totfact>
</mgrwt>
</event>
<event>
 5    1  0.2368666E-004  0.6965489E+03  0.7818608E-02  0.9723152E-01
         13   -1    0    0    0    0  0.00000000000E+00  0.00000000000E+00  0.10000000000E+04  0.10000000000E+04  0.00000000000E+00 0. -1.
          2   -1    0    0  501    0 -0.00000000000E+00 -0.00000000000E+00 -0.12129510578E+03  0.12129510578E+03  0.00000000000E+00 0. -1.
    9000006    2    1    2  501    0  0.00000000000E+00  0.00000000000E+00  0.87870489422E+03  0.11212951058E+04  0.69654893807E+03 0.  0.
         13    1    3    3    0    0  0.10859998562E+03  0.21631580340E+03  0.36234697275E+02  0.24474361476E+03  0.00000000000E+00 0. -1.
          2    1    3    3  501    0 -0.10859998562E+03 -0.21631580340E+03  0.84247019694E+03  0.87655149102E+03  0.00000000000E+00 0. -1.
<mgrwt>
<rscale>  0 0.69654894E+03</rscale>
<asrwt>0</asrwt>
<pdfrwt beam="1">0</pdfrwt>
<pdfrwt beam="2">  1        2 0.44107404E+00 0.69654894E+03</pdfrwt>
<totfact> 0.27628851E+00</totfact>
</mgrwt>
</event>
<event>
 5    1  0.2368666E-004  0.6493419E+03  0.7818608E-02  0.9808015E-01
         13   -1    0    0    0    0  0.00000000000E+00  0.00000000000E+00  0.10000000000E+04  0.10000000000E+04  0.00000000000E+00 0. -1.
          2   -1    0    0  501    0 -0.00000000000E+00 -0.00000000000E+00 -0.10541121554E+03  0.10541121554E+03  0.00000000000E+00 0. -1.
    9000006    2    1    2  501    0  0.00000000000E+00  0.00000000000E+00  0.89458878446E+03  0.11054112155E+04  0.64934186847E+03 0.  0.
         13    1    3    3    0    0  0.83835833565E+02  0.17507102505E+03  0.42468714382E+01  0.19415547049E+03  0.00000000000E+00 0. -1.
          2    1    3    3  501    0 -0.83835833565E+02 -0.17507102505E+03  0.89034191302E+03  0.91125574505E+03  0.00000000000E+00 0. -1.
<mgrwt>
<rscale>  0 0.64934187E+03</rscale>
<asrwt>0</asrwt>
<pdfrwt beam="1">0</pdfrwt>
<pdfrwt beam="2">  1        2 0.38331432E+00 0.64934187E+03</pdfrwt>
<totfact> 0.45958527E+00</totfact>
</mgrwt>
</event>
<event>
 5    1  0.2368666E-004  0.6565983E+03  0.7818608E-02  0.9794476E-01
         13   -1    0    0    0    0  0.00000000000E+00  0.00000000000E+00  0.10000000000E+04  0.10000000000E+04  0.00000000000E+00 0. -1.
          2   -1    0    0  501    0 -0.00000000000E+00 -0.00000000000E+00 -0.10778034065E+03  0.10778034065E+03  0.00000000000E+00 0. -1.
    9000006    2    1    2  501    0  0.00000000000E+00  0.00000000000E+00  0.89221965935E+03  0.11077803406E+04  0.65659832667E+03 0.  0.
         13    1    3    3    0    0 -0.18157467810E+03  0.27335109790E+03  0.43009040701E+03  0.54098793393E+03  0.00000000000E+00 0. -1.
          2    1    3    3  501    0  0.18157467810E+03 -0.27335109790E+03  0.46212925234E+03  0.56679240672E+03  0.00000000000E+00 0. -1.
<mgrwt>
<rscale>  0 0.65659833E+03</rscale>
<asrwt>0</asrwt>
<pdfrwt beam="1">0</pdfrwt>
<pdfrwt beam="2">  1        2 0.39192934E+00 0.65659833E+03</pdfrwt>
<totfact> 0.42671538E+00</totfact>
</mgrwt>
</event>
<event>
 5    1  0.2368666E-004  0.6228573E+03  0.7818608E-02  0.9859087E-01
         13   -1    0    0    0    0  0.00000000000E+00  0.00000000000E+00  0.10000000000E+04  0.10000000000E+04  0.00000000000E+00 0. -1.
          2   -1    0    0  501    0 -0.00000000000E+00 -0.00000000000E+00 -0.96987797929E+02  0.96987797929E+02  0.00000000000E+00 0. -1.
    9000006    2    1    2  501    0  0.00000000000E+00  0.00000000000E+00  0.90301220207E+03  0.10969877979E+04  0.62285728038E+03 0.  0.
         13    1    3    3    0    0  0.59969873560E+02  0.13339170046E+03 -0.32742746244E+02  0.14987267569E+03  0.00000000000E+00 0. -1.
          4    1    3    3  501    0 -0.59969873560E+02 -0.13339170046E+03  0.93575494831E+03  0.94711512224E+03  0.00000000000E+00 0. -1.
<mgrwt>
<rscale>  0 0.62285728E+03</rscale>
<asrwt>0</asrwt>
<pdfrwt beam="1">0</pdfrwt>
<pdfrwt beam="2">  1        2 0.35268365E+00 0.62285728E+03</pdfrwt>
<totfact> 0.59607403E+00</totfact>
</mgrwt>
</event>
<event>
 5    1  0.2368666E-004  0.5699720E+03  0.7818608E-02  0.9969740E-01
         13   -1    0    0    0    0  0.00000000000E+00  0.00000000000E+00  0.10000000000E+04  0.10000000000E+04  0.00000000000E+00 0. -1.
          2   -1    0    0  501    0 -0.00000000000E+00 -0.00000000000E+00 -0.81217033630E+02  0.81217033630E+02  0.00000000000E+00 0. -1.
    9000006    2    1    2  501    0  0.00000000000E+00  0.00000000000E+00  0.91878296637E+03  0.10812170336E+04  0.56997204714E+03 0.  0.
         13    1    3    3    0    0 -0.29725109707E+02 -0.23626627614E+03  0.16239861369E+03  0.28823366409E+03  0.00000000000E+00 0. -1.
          2    1    3    3  501    0  0.29725109707E+02  0.23626627614E+03  0.75638435268E+03  0.79298336954E+03  0.00000000000E+00 0. -1.
<mgrwt>
<rscale>  0 0.56997205E+03</rscale>
<asrwt>0</asrwt>
<pdfrwt beam="1">0</pdfrwt>
<pdfrwt beam="2">  1        2 0.29533529E+00 0.56997205E+03</pdfrwt>
<totfact> 0.95943537E+00</totfact>
</mgrwt>
</event>
<event>
 5    1  0.2368666E-004  0.6579969E+03  0.7818608E-02  0.9791888E-01
         13   -1    0    0    0    0  0.00000000000E+00  0.00000000000E+00  0.10000000000E+04  0.10000000000E+04  0.00000000000E+00 0. -1.
          2   -1    0    0  501    0 -0.00000000000E+00 -0.00000000000E+00 -0.10823997411E+03  0.10823997411E+03  0.00000000000E+00 0. -1.
    9000006    2    1    2  501    0  0.00000000000E+00  0.00000000000E+00  0.89176002589E+03  0.11082399741E+04  0.65799688179E+03 0.  0.
         13    1    3    3    0    0  0.15597189156E+03  0.23549801328E+03  0.16177605719E+03  0.32551196275E+03  0.00000000000E+00 0. -1.
          2    1    3    3  501    0 -0.15597189156E+03 -0.23549801328E+03  0.72998396870E+03  0.78272801136E+03  0.00000000000E+00 0. -1.
<mgrwt>
<rscale>  0 0.65799688E+03</rscale>
<asrwt>0</asrwt>
<pdfrwt beam="1">0</pdfrwt>
<pdfrwt beam="2">  1        2 0.39360074E+00 0.65799688E+03</pdfrwt>
<totfact> 0.42059016E+00</totfact>
</mgrwt>
</event>
<event>
 5    1  0.2368666E-004  0.6220358E+03  0.7818608E-02  0.9860715E-01
         13   -1    0    0    0    0  0.00000000000E+00  0.00000000000E+00  0.10000000000E+04  0.10000000000E+04  0.00000000000E+00 0. -1.
          2   -1    0    0  501    0 -0.00000000000E+00 -0.00000000000E+00 -0.96732136255E+02  0.96732136255E+02  0.00000000000E+00 0. -1.
    9000006    2    1    2  501    0  0.00000000000E+00  0.00000000000E+00  0.90326786375E+03  0.10967321363E+04  0.62203580686E+03 0.  0.
         13    1    3    3    0    0  0.17427277350E+03  0.18598124346E+03  0.13736008718E+03  0.28953033701E+03  0.00000000000E+00 0. -1.
          4    1    3    3  501    0 -0.17427277350E+03 -0.18598124346E+03  0.76590777656E+03  0.80720179924E+03  0.00000000000E+00 0. -1.
<mgrwt>
<rscale>  0 0.62203581E+03</rscale>
<asrwt>0</asrwt>
<pdfrwt beam="1">0</pdfrwt>
<pdfrwt beam="2">  1        2 0.35175396E+00 0.62203581E+03</pdfrwt>
<totfact> 0.60074849E+00</totfact>
</mgrwt>
</event>
<event>
 5    1  0.2368666E-004  0.6634531E+03  0.7818608E-02  0.9781858E-01
         13   -1    0    0    0    0  0.00000000000E+00  0.00000000000E+00  0.10000000000E+04  0.10000000000E+04  0.00000000000E+00 0. -1.
          2   -1    0    0  501    0 -0.00000000000E+00 -0.00000000000E+00 -0.11004249710E+03  0.11004249710E+03  0.00000000000E+00 0. -1.
    9000006    2    1    2  501    0  0.00000000000E+00  0.00000000000E+00  0.88995750290E+03  0.11100424971E+04  0.66345307926E+03 0.  0.
         13    1    3    3    0    0 -0.29308048142E+03  0.15502706259E+03  0.46275950461E+03  0.56927666194E+03  0.00000000000E+00 0. -1.
          4    1    3    3  501    0  0.29308048142E+03 -0.15502706259E+03  0.42719799830E+03  0.54076583516E+03  0.00000000000E+00 0. -1.
<mgrwt>
<rscale>  0 0.66345308E+03</rscale>
<asrwt>0</asrwt>
<pdfrwt beam="1">0</pdfrwt>
<pdfrwt beam="2">  1        2 0.40015538E+00 0.66345308E+03</pdfrwt>
<totfact> 0.39732791E+00</totfact>
</mgrwt>
</event>
<event>
 5    1  0.2368666E-004  0.6444057E+03  0.7818608E-02  0.9817333E-01
         13   -1    0    0    0    0  0.00000000000E+00  0.00000000000E+00  0.10000000000E+04  0.10000000000E+04  0.00000000000E+00 0. -1.
          2   -1    0    0  501    0 -0.00000000000E+00 -0.00000000000E+00 -0.10381467545E+03  0.10381467545E+03  0.00000000000E+00 0. -1.
    9000006    2    1    2  501    0  0.00000000000E+00  0.00000000000E+00  0.89618532455E+03  0.11038146755E+04  0.64440569660E+03 0.  0.
         13    1    3    3    0    0  0.30401341442E+03 -0.62817668333E+02  0.59588550027E+03  0.67190010049E+03  0.00000000000E+00 0. -1.
          4    1    3    3  501    0 -0.30401341442E+03  0.62817668333E+02  0.30029982427E+03  0.43191457496E+03  0.00000000000E+00 0. -1.
<mgrwt>
<rscale>  0 0.64440570E+03</rscale>
<asrwt>0</asrwt>
<pdfrwt beam="1">0</pdfrwt>
<pdfrwt beam="2">  1        2 0.37750871E+00 0.64440570E+03</pdfrwt>
<totfact> 0.48301411E+00</totfact>
</mgrwt>
</event>
<event>
 5    1  0.2368666E-004  0.6338204E+03  0.7818608E-02  0.9837622E-01
         13   -1    0    0    0    0  0.00000000000E+00  0.00000000000E+00  0.10000000000E+04  0.10000000000E+04  0.00000000000E+00 0. -1.
          2   -1    0    0  501    0 -0.00000000000E+00 -0.00000000000E+00 -0.10043208883E+03  0.10043208883E+03  0.00000000000E+00 0. -1.
    9000006    2    1    2  501    0  0.00000000000E+00  0.00000000000E+00  0.89956791117E+03  0.11004320888E+04  0.63382044407E+03 0.  0.
         13    1    3    3    0    0 -0.27706642958E+02 -0.11348035851E+03  0.96125780905E+03  0.96832950244E+03  0.00000000000E+00 0. -1.
          4    1    3    3  501    0  0.27706642958E+02  0.11348035851E+03 -0.61689897880E+02  0.13210258639E+03  0.00000000000E+00 0. -1.
<mgrwt>
<rscale>  0 0.63382044E+03</rscale>
<asrwt>0</asrwt>
<pdfrwt beam="1">0</pdfrwt>
<pdfrwt beam="2">  1        2 0.36520837E+00 0.63382044E+03</pdfrwt>
<totfact> 0.53630028E+00</totfact>
</mgrwt>
</event>
<event>
 5    1  0.2368666E-004  0.5247928E+03  0.7818608E-02  0.1007503E+00
         13   -1    0    0    0    0  0.00000000000E+00  0.00000000000E+00  0.10000000000E+04  0.10000000000E+04  0.00000000000E+00 0. -1.
          2   -1    0    0  501    0 -0.00000000000E+00 -0.00000000000E+00 -0.68851869645E+02  0.68851869645E+02  0.00000000000E+00 0. -1.
    9000006    2    1    2  501    0  0.00000000000E+00  0.00000000000E+00  0.93114813036E+03  0.10688518696E+04  0.52479279585E+03 0.  0.
         13    1    3    3    0    0  0.68957525394E+02  0.10885141076E+03  0.25592230971E-01  0.12885561915E+03  0.00000000000E+00 0. -1.
          4    1    3    3  501    0 -0.68957525394E+02 -0.10885141076E+03  0.93112253812E+03  0.93999625049E+03  0.00000000000E+00 0. -1.
<mgrwt>
<rscale>  0 0.52479280E+03</rscale>
<asrwt>0</asrwt>
<pdfrwt beam="1">0</pdfrwt>
<pdfrwt beam="2">  1        2 0.25037096E+00 0.52479280E+03</pdfrwt>
<totfact> 0.13896788E+01</totfact>
</mgrwt>
</event>
<event>
 5    1  0.2368666E-004  0.6429242E+03  0.7818608E-02  0.9820148E-01
         13   -1    0    0    0    0  0.00000000000E+00  0.00000000000E+00  0.10000000000E+04  0.10000000000E+04  0.00000000000E+00 0. -1.
          2   -1    0    0  501    0 -0.00000000000E+00 -0.00000000000E+00 -0.10333787666E+03  0.10333787666E+03  0.00000000000E+00 0. -1.
    9000006    2    1    2  501    0  0.00000000000E+00  0.00000000000E+00  0.89666212334E+03  0.11033378767E+04  0.64292418420E+03 0.  0.
         13    1    3    3    0    0 -0.89544882658E+01 -0.77073308704E+02  0.98368870954E+03  0.98674411833E+03  0.00000000000E+00 0. -1.
          2    1    3    3  501    0  0.89544882658E+01  0.77073308704E+02 -0.87026586201E+02  0.11659375833E+03  0.00000000000E+00 0. -1.
<mgrwt>
<rscale>  0 0.64292418E+03</rscale>
<asrwt>0</asrwt>
<pdfrwt beam="1">0</pdfrwt>
<pdfrwt beam="2">  1        2 0.37577489E+00 0.64292418E+03</pdfrwt>
<totfact> 0.49021902E+00</totfact>
</mgrwt>
</event>
<event>
 5    1  0.2368666E-004  0.6479255E+03  0.7818608E-02  0.9810680E-01
         13   -1    0    0    0    0  0.00000000000E+00  0.00000000000E+00  0.10000000000E+04  0.10000000000E+04  0.00000000000E+00 0. -1.
          2   -1    0    0  501    0 -0.00000000000E+00 -0.00000000000E+00 -0.10495186542E+03  0.10495186542E+03  0.00000000000E+00 0. -1.
    9000006    2    1    2  501    0  0.00000000000E+00  0.00000000000E+00  0.89504813458E+03  0.11049518654E+04  0.64792550626E+03 0.  0.
         13    1    3    3    0    0  0.13527905144E+03 -0.29391952380E+03  0.41988040476E+03  0.53008363730E+03  0.00000000000E+00 0. -1.
          2    1    3    3  501    0 -0.13527905144E+03  0.29391952380E+03  0.47516772982E+03  0.57486822812E+03  0.00000000000E+00 0. -1.
<mgrwt>
<rscale>  0 0.64792551E+03</rscale>
<asrwt>0</asrwt>
<pdfrwt beam="1">0</pdfrwt>
<pdfrwt beam="2">  1        2 0.38164395E+00 0.64792551E+03</pdfrwt>
<totfact> 0.46621787E+00</totfact>
</mgrwt>
</event>
<event>
 5    1  0.2368666E-004  0.6581053E+03  0.7818608E-02  0.9791688E-01
         13   -1    0    0    0    0  0.00000000000E+00  0.00000000000E+00  0.10000000000E+04  0.10000000000E+04  0.00000000000E+00 0. -1.
          2   -1    0    0  501    0 -0.00000000000E+00 -0.00000000000E+00 -0.10827564472E+03  0.10827564472E+03  0.00000000000E+00 0. -1.
    9000006    2    1    2  501    0  0.00000000000E+00  0.00000000000E+00  0.89172435528E+03  0.11082756447E+04  0.65810529467E+03 0.  0.
         13    1    3    3    0    0 -0.25682975134E+03  0.19555086018E+03  0.55335070114E+03  0.64062364813E+03  0.00000000000E+00 0. -1.
          2    1    3    3  501    0  0.25682975134E+03 -0.19555086018E+03  0.33837365414E+03  0.46765199659E+03  0.00000000000E+00 0. -1.
<mgrwt>
<rscale>  0 0.65810529E+03</rscale>
<asrwt>0</asrwt>
<pdfrwt beam="1">0</pdfrwt>
<pdfrwt beam="2">  1        2 0.39373045E+00 0.65810529E+03</pdfrwt>
<totfact> 0.42011814E+00</totfact>
</mgrwt>
</event>
<event>
 5    1  0.2368666E-004  0.6382414E+03  0.7818608E-02  0.9829097E-01
         13   -1    0    0    0    0  0.00000000000E+00  0.00000000000E+00  0.10000000000E+04  0.10000000000E+04  0.00000000000E+00 0. -1.
          2   -1    0    0  501    0 -0.00000000000E+00 -0.00000000000E+00 -0.10183800837E+03  0.10183800837E+03  0.00000000000E+00 0. -1.
    9000006    2    1    2  501    0  0.00000000000E+00  0.00000000000E+00  0.89816199163E+03  0.11018380084E+04  0.63824135991E+03 0.  0.
         13    1    3    3    0    0 -0.19911075355E+03  0.24938491622E+03  0.44956854038E+03  0.55131642558E+03  0.00000000000E+00 0. -1.
          4    1    3    3  501    0  0.19911075355E+03 -0.24938491622E+03  0.44859345125E+03  0.55052158279E+03  0.00000000000E+00 0. -1.
<mgrwt>
<rscale>  0 0.63824136E+03</rscale>
<asrwt>0</asrwt>
<pdfrwt beam="1">0</pdfrwt>
<pdfrwt beam="2">  1        2 0.37032081E+00 0.63824136E+03</pdfrwt>
<totfact> 0.51353071E+00</totfact>
</mgrwt>
</event>
<event>
 5    1  0.2368666E-004  0.6490911E+03  0.7818608E-02  0.9808486E-01
         13   -1    0    0    0    0  0.00000000000E+00  0.00000000000E+00  0.10000000000E+04  0.10000000000E+04  0.00000000000E+00 0. -1.
          2   -1    0    0  501    0 -0.00000000000E+00 -0.00000000000E+00 -0.10532980891E+03  0.10532980891E+03  0.00000000000E+00 0. -1.
    9000006    2    1    2  501    0  0.00000000000E+00  0.00000000000E+00  0.89467019109E+03  0.11053298089E+04  0.64909108424E+03 0.  0.
         13    1    3    3    0    0 -0.36755031146E+02 -0.31723554662E+03  0.34891337052E+03  0.47300091383E+03  0.00000000000E+00 0. -1.
          2    1    3    3  501    0  0.36755031146E+02  0.31723554662E+03  0.54575682057E+03  0.63232889508E+03  0.00000000000E+00 0. -1.
<mgrwt>
<rscale>  0 0.64909108E+03</rscale>
<asrwt>0</asrwt>
<pdfrwt beam="1">0</pdfrwt>
<pdfrwt beam="2">  1        2 0.38301829E+00 0.64909108E+03</pdfrwt>
<totfact> 0.46075442E+00</totfact>
</mgrwt>
</event>
<event>
 5    1  0.2368666E-004  0.6380316E+03  0.7818608E-02  0.9829500E-01
         13   -1    0    0    0    0  0.00000000000E+00  0.00000000000E+00  0.10000000000E+04  0.10000000000E+04  0.00000000000E+00 0. -1.
          2   -1    0    0  501    0 -0.00000000000E+00 -0.00000000000E+00 -0.10177108578E+03  0.10177108578E+03  0.00000000000E+00 0. -1.
    9000006    2    1    2  501    0  0.00000000000E+00  0.00000000000E+00  0.89822891422E+03  0.11017710858E+04  0.63803161607E+03 0.  0.
         13    1    3    3    0    0 -0.30164702317E+03  0.17138360874E+02  0.62594737850E+03  0.69505019290E+03  0.00000000000E+00 0. -1.
          2    1    3    3  501    0  0.30164702317E+03 -0.17138360874E+02  0.27228153573E+03  0.40672089287E+03  0.00000000000E+00 0. -1.
<mgrwt>
<rscale>  0 0.63803162E+03</rscale>
<asrwt>0</asrwt>
<pdfrwt beam="1">0</pdfrwt>
<pdfrwt beam="2">  1        2 0.37007746E+00 0.63803162E+03</pdfrwt>
<totfact> 0.51459413E+00</totfact>
</mgrwt>
</event>
<event>
 5    1  0.2368666E-004  0.6559945E+03  0.7818608E-02  0.9795595E-01
         13   -1    0    0    0    0  0.00000000000E+00  0.00000000000E+00  0.10000000000E+04  0.10000000000E+04  0.00000000000E+00 0. -1.
          2   -1    0    0  501    0 -0.00000000000E+00 -0.00000000000E+00 -0.10758219834E+03  0.10758219834E+03  0.00000000000E+00 0. -1.
    9000006    2    1    2  501    0  0.00000000000E+00  0.00000000000E+00  0.89241780166E+03  0.11075821983E+04  0.65599450711E+03 0.  0.
         13    1    3    3    0    0  0.20003397050E+02  0.53941715818E+02  0.99141455676E+03  0.99308240743E+03  0.00000000000E+00 0. -1.
          2    1    3    3  501    0 -0.20003397050E+02 -0.53941715818E+02 -0.98996755094E+02  0.11449979091E+03  0.00000000000E+00 0. -1.
<mgrwt>
<rscale>  0 0.65599451E+03</rscale>
<asrwt>0</asrwt>
<pdfrwt beam="1">0</pdfrwt>
<pdfrwt beam="2">  1        2 0.39120882E+00 0.65599451E+03</pdfrwt>
<totfact> 0.42938063E+00</totfact>
</mgrwt>
</event>
<event>
 5    1  0.2368666E-004  0.6498143E+03  0.7818608E-02  0.9807128E-01
         13   -1    0    0    0    0  0.00000000000E+00  0.00000000000E+00  0.10000000000E+04  0.10000000000E+04  0.00000000000E+00 0. -1.
          2   -1    0    0  501    0 -0.00000000000E+00 -0.00000000000E+00 -0.10556466510E+03  0.10556466510E+03  0.00000000000E+00 0. -1.
    9000006    2    1    2  501    0  0.00000000000E+00  0.00000000000E+00  0.89443533490E+03  0.11055646651E+04  0.64981432763E+03 0.  0.
         13    1    3    3    0    0 -0.18489738718E+03 -0.25543578899E+03  0.31400931848E+03  0.44501273934E+03  0.00000000000E+00 0. -1.
          4    1    3    3  501    0  0.18489738718E+03  0.25543578899E+03  0.58042601643E+03  0.66055192576E+03  0.00000000000E+00 0. -1.
<mgrwt>
<rscale>  0 0.64981433E+03</rscale>
<asrwt>0</asrwt>
<pdfrwt beam="1">0</pdfrwt>
<pdfrwt beam="2">  1        2 0.38387232E+00 0.64981433E+03</pdfrwt>
<totfact> 0.45738876E+00</totfact>
</mgrwt>
</event>
<event>
 5    1  0.2368666E-004  0.6519121E+03  0.7818608E-02  0.9803198E-01
         13   -1    0    0    0    0  0.00000000000E+00  0.00000000000E+00  0.10000000000E+04  0.10000000000E+04  0.00000000000E+00 0. -1.
          2   -1    0    0  501    0 -0.00000000000E+00 -0.00000000000E+00 -0.10624733088E+03  0.10624733088E+03  0.00000000000E+00 0. -1.
    9000006    2    1    2  501    0  0.00000000000E+00  0.00000000000E+00  0.89375266912E+03  0.11062473309E+04  0.65191205198E+03 0.  0.
         13    1    3    3    0    0  0.71401112423E+02  0.18675442983E+03  0.88372221844E+03  0.90605755628E+03  0.00000000000E+00 0. -1.
          4    1    3    3  501    0 -0.71401112423E+02 -0.18675442983E+03  0.10030450676E+02  0.20018977460E+03  0.00000000000E+00 0. -1.
<mgrwt>
<rscale>  0 0.65191205E+03</rscale>
<asrwt>0</asrwt>
<pdfrwt beam="1">0</pdfrwt>
<pdfrwt beam="2">  1        2 0.38635475E+00 0.65191205E+03</pdfrwt>
<totfact> 0.44773189E+00</totfact>
</mgrwt>
</event>
<event>
 5    1  0.2368666E-004  0.6591414E+03  0.7818608E-02  0.9789776E-01
         13   -1    0    0    0    0  0.00000000000E+00  0.00000000000E+00  0.10000000000E+04  0.10000000000E+04  0.00000000000E+00 0. -1.
          2   -1    0    0  501    0 -0.00000000000E+00 -0.00000000000E+00 -0.10861683838E+03  0.10861683838E+03  0.00000000000E+00 0. -1.
    9000006    2    1    2  501    0  0.00000000000E+00  0.00000000000E+00  0.89138316162E+03  0.11086168384E+04  0.65914137598E+03 0.  0.
         13    1    3    3    0    0  0.21913090517E+03  0.19073181187E+03  0.70744280230E+03  0.76476943989E+03  0.00000000000E+00 0. -1.
          4    1    3    3  501    0 -0.21913090517E+03 -0.19073181187E+03  0.18394035932E+03  0.34384739849E+03  0.00000000000E+00 0. -1.
<mgrwt>
<rscale>  0 0.65914138E+03</rscale>
<asrwt>0</asrwt>
<pdfrwt beam="1">0</pdfrwt>
<pdfrwt beam="2">  1        2 0.39497115E+00 0.65914138E+03</pdfrwt>
<totfact> 0.41562757E+00</totfact>
</mgrwt>
</event>
<event>
 5    1  0.2368666E-004  0.6494884E+03  0.7818608E-02  0.9807740E-01
         13   -1    0    0    0    0  0.00000000000E+00  0.00000000000E+00  0.10000000000E+04  0.10000000000E+04  0.00000000000E+00 0. -1.
          2   -1    0    0  501    0 -0.00000000000E+00 -0.00000000000E+00 -0.10545878222E+03  0.10545878222E+03  0.00000000000E+00 0. -1.
    9000006    2    1    2  501    0  0.00000000000E+00  0.00000000000E+00  0.89454121778E+03  0.11054587822E+04  0.64948835931E+03 0.  0.
         13    1    3    3    0    0  0.26010409511E+03  0.12953116430E+03  0.69407495957E+03  0.75244435829E+03  0.00000000000E+00 0. -1.
          2    1    3    3  501    0 -0.26010409511E+03 -0.12953116430E+03  0.20046625821E+03  0.35301442393E+03  0.00000000000E+00 0. -1.
<mgrwt>
<rscale>  0 0.64948836E+03</rscale>
<asrwt>0</asrwt>
<pdfrwt beam="1">0</pdfrwt>
<pdfrwt beam="2">  1        2 0.38348729E+00 0.64948836E+03</pdfrwt>
<totfact> 0.45890337E+00</totfact>
</mgrwt>
</event>
<event>
 5    1  0.2368666E-004  0.6392092E+03  0.7818608E-02  0.9827241E-01
         13   -1    0    0    0    0  0.00000000000E+00  0.00000000000E+00  0.10000000000E+04  0.10000000000E+04  0.00000000000E+00 0. -1.
          4   -1    0    0  501    0 -0.00000000000E+00 -0.00000000000E+00 -0.10214709099E+03  0.10214709099E+03  0.00000000000E+00 0. -1.
    9000006    2    1    2  501    0  0.00000000000E+00  0.00000000000E+00  0.89785290901E+03  0.11021470910E+04  0.63920917075E+03 0.  0.
         13    1    3    3    0    0 -0.30890231373E+03 -0.68072843220E+01  0.58985158579E+03  0.66587676923E+03  0.00000000000E+00 0. -1.
          4    1    3    3  501    0  0.30890231373E+03  0.68072843220E+01  0.30800132322E+03  0.43627032176E+03  0.00000000000E+00 0. -1.
<mgrwt>
<rscale>  0 0.63920917E+03</rscale>
<asrwt>0</asrwt>
<pdfrwt beam="1">0</pdfrwt>
<pdfrwt beam="2">  1        4 0.37144475E+00 0.63920917E+03</pdfrwt>
<totfact> 0.50045696E-02</totfact>
</mgrwt>
</event>
<event>
 5    1  0.2368666E-004  0.6158578E+03  0.7818608E-02  0.9873042E-01
         13   -1    0    0    0    0  0.00000000000E+00  0.00000000000E+00  0.10000000000E+04  0.10000000000E+04  0.00000000000E+00 0. -1.
          2   -1    0    0  501    0 -0.00000000000E+00 -0.00000000000E+00 -0.94820195719E+02  0.94820195719E+02  0.00000000000E+00 0. -1.
    9000006    2    1    2  501    0  0.00000000000E+00  0.00000000000E+00  0.90517980428E+03  0.10948201957E+04  0.61585776189E+03 0.  0.
         13    1    3    3    0    0  0.23990650718E+03  0.48754854647E+02  0.12054211539E+03  0.27287830552E+03  0.00000000000E+00 0. -1.
          2    1    3    3  501    0 -0.23990650718E+03 -0.48754854647E+02  0.78463768889E+03  0.82194189020E+03  0.00000000000E+00 0. -1.
<mgrwt>
<rscale>  0 0.61585776E+03</rscale>
<asrwt>0</asrwt>
<pdfrwt beam="1">0</pdfrwt>
<pdfrwt beam="2">  1        2 0.34480144E+00 0.61585776E+03</pdfrwt>
<totfact> 0.63680379E+00</totfact>
</mgrwt>
</event>
<event>
 5    1  0.2368666E-004  0.6496985E+03  0.7818608E-02  0.9807345E-01
         13   -1    0    0    0    0  0.00000000000E+00  0.00000000000E+00  0.10000000000E+04  0.10000000000E+04  0.00000000000E+00 0. -1.
          2   -1    0    0  501    0 -0.00000000000E+00 -0.00000000000E+00 -0.10552703322E+03  0.10552703322E+03  0.00000000000E+00 0. -1.
    9000006    2    1    2  501    0  0.00000000000E+00  0.00000000000E+00  0.89447296678E+03  0.11055270332E+04  0.64969849382E+03 0.  0.
         13    1    3    3    0    0 -0.19839262529E+03  0.13194328180E+03  0.71501099619E+02  0.24875906140E+03  0.00000000000E+00 0. -1.
          2    1    3    3  501    0  0.19839262529E+03 -0.13194328180E+03  0.82297186716E+03  0.85676797181E+03  0.00000000000E+00 0. -1.
<mgrwt>
<rscale>  0 0.64969849E+03</rscale>
<asrwt>0</asrwt>
<pdfrwt beam="1">0</pdfrwt>
<pdfrwt beam="2">  1        2 0.38373548E+00 0.64969849E+03</pdfrwt>
<totfact> 0.45792654E+00</totfact>
</mgrwt>
</event>
<event>
 5    1  0.2368666E-004  0.6220443E+03  0.7818608E-02  0.9860698E-01
         13   -1    0    0    0    0  0.00000000000E+00  0.00000000000E+00  0.10000000000E+04  0.10000000000E+04  0.00000000000E+00 0. -1.
          2   -1    0    0  501    0 -0.00000000000E+00 -0.00000000000E+00 -0.96734782604E+02  0.96734782604E+02  0.00000000000E+00 0. -1.
    9000006    2    1    2  501    0  0.00000000000E+00  0.00000000000E+00  0.90326521740E+03  0.10967347826E+04  0.62204431548E+03 0.  0.
         13    1    3    3    0    0 -0.31000583732E+03 -0.19995524786E+02  0.47844946907E+03  0.57045362181E+03  0.00000000000E+00 0. -1.
          4    1    3    3  501    0  0.31000583732E+03  0.19995524786E+02  0.42481574832E+03  0.52628116079E+03  0.00000000000E+00 0. -1.
<mgrwt>
<rscale>  0 0.62204432E+03</rscale>
<asrwt>0</asrwt>
<pdfrwt beam="1">0</pdfrwt>
<pdfrwt beam="2">  1        2 0.35176359E+00 0.62204432E+03</pdfrwt>
<totfact> 0.60069993E+00</totfact>
</mgrwt>
</event>
<event>
 5    1  0.2368666E-004  0.6476388E+03  0.7818608E-02  0.9811220E-01
         13   -1    0    0    0    0  0.00000000000E+00  0.00000000000E+00  0.10000000000E+04  0.10000000000E+04  0.00000000000E+00 0. -1.
          2   -1    0    0  501    0 -0.00000000000E+00 -0.00000000000E+00 -0.10485901752E+03  0.10485901752E+03  0.00000000000E+00 0. -1.
    9000006    2    1    2  501    0  0.00000000000E+00  0.00000000000E+00  0.89514098248E+03  0.11048590175E+04  0.64763884231E+03 0.  0.
         13    1    3    3    0    0 -0.28829212202E+03  0.40241860930E+02  0.68959889275E+03  0.74851745997E+03  0.00000000000E+00 0. -1.
          2    1    3    3  501    0  0.28829212202E+03 -0.40241860930E+02  0.20554208973E+03  0.35634155755E+03  0.00000000000E+00 0. -1.
<mgrwt>
<rscale>  0 0.64763884E+03</rscale>
<asrwt>0</asrwt>
<pdfrwt beam="1">0</pdfrwt>
<pdfrwt beam="2">  1        2 0.38130632E+00 0.64763884E+03</pdfrwt>
<totfact> 0.46756904E+00</totfact>
</mgrwt>
</event>
<event>
 5    1  0.2368666E-004  0.6539443E+03  0.7818608E-02  0.9799406E-01
         13   -1    0    0    0    0  0.00000000000E+00  0.00000000000E+00  0.10000000000E+04  0.10000000000E+04  0.00000000000E+00 0. -1.
          2   -1    0    0  501    0 -0.00000000000E+00 -0.00000000000E+00 -0.10691079584E+03  0.10691079584E+03  0.00000000000E+00 0. -1.
    9000006    2    1    2  501    0  0.00000000000E+00  0.00000000000E+00  0.89308920416E+03  0.11069107958E+04  0.65394432741E+03 0.  0.
         13    1    3    3    0    0 -0.19675876278E+03  0.72358959809E+02  0.21819882949E+02  0.21077461206E+03  0.00000000000E+00 0. -1.
          2    1    3    3  501    0  0.19675876278E+03 -0.72358959809E+02  0.87126932121E+03  0.89613618378E+03  0.00000000000E+00 0. -1.
<mgrwt>
<rscale>  0 0.65394433E+03</rscale>
<asrwt>0</asrwt>
<pdfrwt beam="1">0</pdfrwt>
<pdfrwt beam="2">  1        2 0.38876735E+00 0.65394433E+03</pdfrwt>
<totfact> 0.43852399E+00</totfact>
</mgrwt>
</event>
<event>
 5    1  0.2368666E-004  0.6369501E+03  0.7818608E-02  0.9831579E-01
         13   -1    0    0    0    0  0.00000000000E+00  0.00000000000E+00  0.10000000000E+04  0.10000000000E+04  0.00000000000E+00 0. -1.
          2   -1    0    0  501    0 -0.00000000000E+00 -0.00000000000E+00 -0.10142636563E+03  0.10142636563E+03  0.00000000000E+00 0. -1.
    9000006    2    1    2  501    0  0.00000000000E+00  0.00000000000E+00  0.89857363437E+03  0.11014263656E+04  0.63695012562E+03 0.  0.
         13    1    3    3    0    0  0.24642442726E+03 -0.10624525385E+03  0.15272036944E+03  0.30876619562E+03  0.00000000000E+00 0. -1.
          4    1    3    3  501    0 -0.24642442726E+03  0.10624525385E+03  0.74585326493E+03  0.79266017001E+03  0.00000000000E+00 0. -1.
<mgrwt>
<rscale>  0 0.63695013E+03</rscale>
<asrwt>0</asrwt>
<pdfrwt beam="1">0</pdfrwt>
<pdfrwt beam="2">  1        2 0.36882393E+00 0.63695013E+03</pdfrwt>
<totfact> 0.52010384E+00</totfact>
</mgrwt>
</event>
<event>
 5    1  0.2368666E-004  0.6463511E+03  0.7818608E-02  0.9813650E-01
         13   -1    0    0    0    0  0.00000000000E+00  0.00000000000E+00  0.10000000000E+04  0.10000000000E+04  0.00000000000E+00 0. -1.
          2   -1    0    0  501    0 -0.00000000000E+00 -0.00000000000E+00 -0.10444243036E+03  0.10444243036E+03  0.00000000000E+00 0. -1.
    9000006    2    1    2  501    0  0.00000000000E+00  0.00000000000E+00  0.89555756964E+03  0.11044424304E+04  0.64635108220E+03 0.  0.
         13    1    3    3    0    0  0.28405371304E+02 -0.18606874283E+03  0.89667212816E+03  0.91621468422E+03  0.00000000000E+00 0. -1.
          2    1    3    3  501    0 -0.28405371304E+02  0.18606874283E+03 -0.11145585209E+01  0.18822774614E+03  0.00000000000E+00 0. -1.
<mgrwt>
<rscale>  0 0.64635108E+03</rscale>
<asrwt>0</asrwt>
<pdfrwt beam="1">0</pdfrwt>
<pdfrwt beam="2">  1        2 0.37979146E+00 0.64635108E+03</pdfrwt>
<totfact> 0.47367533E+00</totfact>
</mgrwt>
</event>
<event>
 5    1  0.2368666E-004  0.6974934E+03  0.7818608E-02  0.9721528E-01
         13   -1    0    0    0    0  0.00000000000E+00  0.00000000000E+00  0.10000000000E+04  0.10000000000E+04  0.00000000000E+00 0. -1.
          2   -1    0    0  501    0 -0.00000000000E+00 -0.00000000000E+00 -0.12162427596E+03  0.12162427596E+03  0.00000000000E+00 0. -1.
    9000006    2    1    2  501    0  0.00000000000E+00  0.00000000000E+00  0.87837572404E+03  0.11216242760E+04  0.69749344358E+03 0.  0.
         13    1    3    3    0    0  0.19511221980E+03 -0.19822165331E+03  0.10086527021E+03  0.29586213832E+03  0.00000000000E+00 0. -1.
          4    1    3    3  501    0 -0.19511221980E+03  0.19822165331E+03  0.77751045383E+03  0.82576213764E+03  0.00000000000E+00 0. -1.
<mgrwt>
<rscale>  0 0.69749344E+03</rscale>
<asrwt>0</asrwt>
<pdfrwt beam="1">0</pdfrwt>
<pdfrwt beam="2">  1        2 0.44227103E+00 0.69749344E+03</pdfrwt>
<totfact> 0.27330361E+00</totfact>
</mgrwt>
</event>
<event>
 5    1  0.2368666E-004  0.6415396E+03  0.7818608E-02  0.9822785E-01
         13   -1    0    0    0    0  0.00000000000E+00  0.00000000000E+00  0.10000000000E+04  0.10000000000E+04  0.00000000000E+00 0. -1.
          2   -1    0    0  501    0 -0.00000000000E+00 -0.00000000000E+00 -0.10289325049E+03  0.10289325049E+03  0.00000000000E+00 0. -1.
    9000006    2    1    2  501    0  0.00000000000E+00  0.00000000000E+00  0.89710674951E+03  0.11028932505E+04  0.64153955604E+03 0.  0.
         13    1    3    3    0    0 -0.28738809982E+03  0.13967283111E+03  0.49695949808E+03  0.59082075319E+03  0.00000000000E+00 0. -1.
          2    1    3    3  501    0  0.28738809982E+03 -0.13967283111E+03  0.40014725142E+03  0.51207249730E+03  0.00000000000E+00 0. -1.
<mgrwt>
<rscale>  0 0.64153956E+03</rscale>
<asrwt>0</asrwt>
<pdfrwt beam="1">0</pdfrwt>
<pdfrwt beam="2">  1        2 0.37415806E+00 0.64153956E+03</pdfrwt>
<totfact> 0.49702655E+00</totfact>
</mgrwt>
</event>
<event>
 5    1  0.2368666E-004  0.6525633E+03  0.7818608E-02  0.9801981E-01
         13   -1    0    0    0    0  0.00000000000E+00  0.00000000000E+00  0.10000000000E+04  0.10000000000E+04  0.00000000000E+00 0. -1.
          2   -1    0    0  501    0 -0.00000000000E+00 -0.00000000000E+00 -0.10645973094E+03  0.10645973094E+03  0.00000000000E+00 0. -1.
    9000006    2    1    2  501    0  0.00000000000E+00  0.00000000000E+00  0.89354026906E+03  0.11064597309E+04  0.65256334845E+03 0.  0.
         13    1    3    3    0    0 -0.12660874745E+02 -0.58112803531E+02 -0.97190849340E+02  0.11394497303E+03  0.00000000000E+00 0. -1.
          4    1    3    3  501    0  0.12660874745E+02  0.58112803531E+02  0.99073111840E+03  0.99251475790E+03  0.00000000000E+00 0. -1.
<mgrwt>
<rscale>  0 0.65256335E+03</rscale>
<asrwt>0</asrwt>
<pdfrwt beam="1">0</pdfrwt>
<pdfrwt beam="2">  1        2 0.38712711E+00 0.65256335E+03</pdfrwt>
<totfact> 0.44476522E+00</totfact>
</mgrwt>
</event>
<event>
 5    1  0.2368666E-004  0.6544670E+03  0.7818608E-02  0.9798433E-01
         13   -1    0    0    0    0  0.00000000000E+00  0.00000000000E+00  0.10000000000E+04  0.10000000000E+04  0.00000000000E+00 0. -1.
          2   -1    0    0  501    0 -0.00000000000E+00 -0.00000000000E+00 -0.10708177606E+03  0.10708177606E+03  0.00000000000E+00 0. -1.
    9000006    2    1    2  501    0  0.00000000000E+00  0.00000000000E+00  0.89291822394E+03  0.11070817761E+04  0.65446703832E+03 0.  0.
         13    1    3    3    0    0  0.27031101655E+03  0.10262285964E+03  0.70567525589E+03  0.76261200080E+03  0.00000000000E+00 0. -1.
          2    1    3    3  501    0 -0.27031101655E+03 -0.10262285964E+03  0.18724296805E+03  0.34446977526E+03  0.00000000000E+00 0. -1.
<mgrwt>
<rscale>  0 0.65446704E+03</rscale>
<asrwt>0</asrwt>
<pdfrwt beam="1">0</pdfrwt>
<pdfrwt beam="2">  1        2 0.38938910E+00 0.65446704E+03</pdfrwt>
<totfact> 0.43617898E+00</totfact>
</mgrwt>
</event>
<event>
 5    1  0.2368666E-004  0.6550056E+03  0.7818608E-02  0.9797432E-01
         13   -1    0    0    0    0  0.00000000000E+00  0.00000000000E+00  0.10000000000E+04  0.10000000000E+04  0.00000000000E+00 0. -1.
          2   -1    0    0  501    0 -0.00000000000E+00 -0.00000000000E+00 -0.10725807479E+03  0.10725807479E+03  0.00000000000E+00 0. -1.
    9000006    2    1    2  501    0  0.00000000000E+00  0.00000000000E+00  0.89274192521E+03  0.11072580748E+04  0.65500557185E+03 0.  0.
         13    1    3    3    0    0 -0.21159582444E+03 -0.22390363465E+03  0.25849106574E+03  0.40214830796E+03  0.00000000000E+00 0. -1.
          4    1    3    3  501    0  0.21159582444E+03  0.22390363465E+03  0.63425085948E+03  0.70510976683E+03  0.00000000000E+00 0. -1.
<mgrwt>
<rscale>  0 0.65500557E+03</rscale>
<asrwt>0</asrwt>
<pdfrwt beam="1">0</pdfrwt>
<pdfrwt beam="2">  1        2 0.39003019E+00 0.65500557E+03</pdfrwt>
<totfact> 0.43377290E+00</totfact>
</mgrwt>
</event>
<event>
 5    1  0.2368666E-004  0.6540618E+03  0.7818608E-02  0.9799187E-01
         13   -1    0    0    0    0  0.00000000000E+00  0.00000000000E+00  0.10000000000E+04  0.10000000000E+04  0.00000000000E+00 0. -1.
          2   -1    0    0  501    0 -0.00000000000E+00 -0.00000000000E+00 -0.10694920491E+03  0.10694920491E+03  0.00000000000E+00 0. -1.
    9000006    2    1    2  501    0  0.00000000000E+00  0.00000000000E+00  0.89305079509E+03  0.11069492049E+04  0.65406178579E+03 0.  0.
         13    1    3    3    0    0 -0.29263203287E+03 -0.12541181652E+03  0.32001664271E+03  0.45141143317E+03  0.00000000000E+00 0. -1.
          2    1    3    3  501    0  0.29263203287E+03  0.12541181652E+03  0.57303415238E+03  0.65553777174E+03  0.00000000000E+00 0. -1.
<mgrwt>
<rscale>  0 0.65406179E+03</rscale>
<asrwt>0</asrwt>
<pdfrwt beam="1">0</pdfrwt>
<pdfrwt beam="2">  1        2 0.38890702E+00 0.65406179E+03</pdfrwt>
<totfact> 0.43799622E+00</totfact>
</mgrwt>
</event>
<event>
 5    1  0.2368666E-004  0.6478966E+03  0.7818608E-02  0.9810734E-01
         13   -1    0    0    0    0  0.00000000000E+00  0.00000000000E+00  0.10000000000E+04  0.10000000000E+04  0.00000000000E+00 0. -1.
          2   -1    0    0  501    0 -0.00000000000E+00 -0.00000000000E+00 -0.10494248752E+03  0.10494248752E+03  0.00000000000E+00 0. -1.
    9000006    2    1    2  501    0  0.00000000000E+00  0.00000000000E+00  0.89505751248E+03  0.11049424875E+04  0.64789655818E+03 0.  0.
         13    1    3    3    0    0  0.25433931941E+03  0.58050652832E+02  0.77506073789E+03  0.81778818474E+03  0.00000000000E+00 0. -1.
          4    1    3    3  501    0 -0.25433931941E+03 -0.58050652832E+02  0.11999677459E+03  0.28715430278E+03  0.00000000000E+00 0. -1.
<mgrwt>
<rscale>  0 0.64789656E+03</rscale>
<asrwt>0</asrwt>
<pdfrwt beam="1">0</pdfrwt>
<pdfrwt beam="2">  1        2 0.38160985E+00 0.64789656E+03</pdfrwt>
<totfact> 0.46635418E+00</totfact>
</mgrwt>
</event>
<event>
 5    1  0.2368666E-004  0.6576764E+03  0.7818608E-02  0.9792481E-01
         13   -1    0    0    0    0  0.00000000000E+00  0.00000000000E+00  0.10000000000E+04  0.10000000000E+04  0.00000000000E+00 0. -1.
          2   -1    0    0  501    0 -0.00000000000E+00 -0.00000000000E+00 -0.10813457163E+03  0.10813457163E+03  0.00000000000E+00 0. -1.
    9000006    2    1    2  501    0  0.00000000000E+00  0.00000000000E+00  0.89186542837E+03  0.11081345716E+04  0.65767642995E+03 0.  0.
         13    1    3    3    0    0  0.59394155713E+02 -0.32342988349E+03  0.44614824887E+03  0.55424075566E+03  0.00000000000E+00 0. -1.
          2    1    3    3  501    0 -0.59394155713E+02  0.32342988349E+03  0.44571717950E+03  0.55389381597E+03  0.00000000000E+00 0. -1.
<mgrwt>
<rscale>  0 0.65767643E+03</rscale>
<asrwt>0</asrwt>
<pdfrwt beam="1">0</pdfrwt>
<pdfrwt beam="2">  1        2 0.39321745E+00 0.65767643E+03</pdfrwt>
<totfact> 0.42198773E+00</totfact>
</mgrwt>
</event>
<event>
 5    1  0.2368666E-004  0.6517813E+03  0.7818608E-02  0.9803442E-01
         13   -1    0    0    0    0  0.00000000000E+00  0.00000000000E+00  0.10000000000E+04  0.10000000000E+04  0.00000000000E+00 0. -1.
          2   -1    0    0  501    0 -0.00000000000E+00 -0.00000000000E+00 -0.10620471137E+03  0.10620471137E+03  0.00000000000E+00 0. -1.
    9000006    2    1    2  501    0  0.00000000000E+00  0.00000000000E+00  0.89379528863E+03  0.11062047114E+04  0.65178128653E+03 0.  0.
         13    1    3    3    0    0  0.57848175667E+02 -0.27487797263E+03  0.16647174417E+03  0.32652282137E+03  0.00000000000E+00 0. -1.
          2    1    3    3  501    0 -0.57848175667E+02  0.27487797263E+03  0.72732354446E+03  0.77968189000E+03  0.00000000000E+00 0. -1.
<mgrwt>
<rscale>  0 0.65178129E+03</rscale>
<asrwt>0</asrwt>
<pdfrwt beam="1">0</pdfrwt>
<pdfrwt beam="2">  1        2 0.38619976E+00 0.65178129E+03</pdfrwt>
<totfact> 0.44832932E+00</totfact>
</mgrwt>
</event>
<event>
 5    1  0.2368666E-004  0.6517744E+03  0.7818608E-02  0.9803455E-01
         13   -1    0    0    0    0  0.00000000000E+00  0.00000000000E+00  0.10000000000E+04  0.10000000000E+04  0.00000000000E+00 0. -1.
          2   -1    0    0  501    0 -0.00000000000E+00 -0.00000000000E+00 -0.10620248096E+03  0.10620248096E+03  0.00000000000E+00 0. -1.
    9000006    2    1    2  501    0  0.00000000000E+00  0.00000000000E+00  0.89379751904E+03  0.11062024810E+04  0.65177444246E+03 0.  0.
         13    1    3    3    0    0 -0.30687351268E+03  0.10574703702E+03  0.49634262800E+03  0.59305125663E+03  0.00000000000E+00 0. -1.
          2    1    3    3  501    0  0.30687351268E+03 -0.10574703702E+03  0.39745489104E+03  0.51315122433E+03  0.00000000000E+00 0. -1.
<mgrwt>
<rscale>  0 0.65177444E+03</rscale>
<asrwt>0</asrwt>
<pdfrwt beam="1">0</pdfrwt>
<pdfrwt beam="2">  1        2 0.38619165E+00 0.65177444E+03</pdfrwt>
<totfact> 0.44836061E+00</totfact>
</mgrwt>
</event>
<event>
 5    1  0.2368666E-004  0.6604505E+03  0.7818608E-02  0.9787365E-01
         13   -1    0    0    0    0  0.00000000000E+00  0.00000000000E+00  0.10000000000E+04  0.10000000000E+04  0.00000000000E+00 0. -1.
          2   -1    0    0  501    0 -0.00000000000E+00 -0.00000000000E+00 -0.10904870378E+03  0.10904870378E+03  0.00000000000E+00 0. -1.
    9000006    2    1    2  501    0  0.00000000000E+00  0.00000000000E+00  0.89095129622E+03  0.11090487038E+04  0.66045046380E+03 0.  0.
         13    1    3    3    0    0 -0.31509073235E+03  0.98323081842E+02  0.46219270383E+03  0.56795395369E+03  0.00000000000E+00 0. -1.
          4    1    3    3  501    0  0.31509073235E+03 -0.98323081842E+02  0.42875859239E+03  0.54109475010E+03  0.00000000000E+00 0. -1.
<mgrwt>
<rscale>  0 0.66045046E+03</rscale>
<asrwt>0</asrwt>
<pdfrwt beam="1">0</pdfrwt>
<pdfrwt beam="2">  1        2 0.39654158E+00 0.66045046E+03</pdfrwt>
<totfact> 0.41000573E+00</totfact>
</mgrwt>
</event>
<event>
 5    1  0.2368666E-004  0.6959096E+03  0.7818608E-02  0.9724253E-01
         13   -1    0    0    0    0  0.00000000000E+00  0.00000000000E+00  0.10000000000E+04  0.10000000000E+04  0.00000000000E+00 0. -1.
          2   -1    0    0  501    0 -0.00000000000E+00 -0.00000000000E+00 -0.12107254025E+03  0.12107254025E+03  0.00000000000E+00 0. -1.
    9000006    2    1    2  501    0  0.00000000000E+00  0.00000000000E+00  0.87892745975E+03  0.11210725403E+04  0.69590959256E+03 0.  0.
         13    1    3    3    0    0 -0.33588973182E+03 -0.33218244886E+02  0.30327281220E+03  0.45376179032E+03  0.00000000000E+00 0. -1.
          2    1    3    3  501    0  0.33588973182E+03  0.33218244886E+02  0.57565464755E+03  0.66731074993E+03  0.00000000000E+00 0. -1.
<mgrwt>
<rscale>  0 0.69590959E+03</rscale>
<asrwt>0</asrwt>
<pdfrwt beam="1">0</pdfrwt>
<pdfrwt beam="2">  1        2 0.44026471E+00 0.69590959E+03</pdfrwt>
<totfact> 0.27832289E+00</totfact>
</mgrwt>
</event>
<event>
 5    1  0.2368666E-004  0.8355263E+03  0.7818608E-02  0.9509972E-01
         13   -1    0    0    0    0  0.00000000000E+00  0.00000000000E+00  0.10000000000E+04  0.10000000000E+04  0.00000000000E+00 0. -1.
          2   -1    0    0  501    0 -0.00000000000E+00 -0.00000000000E+00 -0.17452606342E+03  0.17452606342E+03  0.00000000000E+00 0. -1.
    9000006    2    1    2  501    0  0.00000000000E+00  0.00000000000E+00  0.82547393658E+03  0.11745260634E+04  0.83552633332E+03 0.  0.
         13    1    3    3    0    0  0.26878941898E+03  0.40582835613E+02 -0.33195562464E+02  0.27385518741E+03  0.00000000000E+00 0. -1.
          4    1    3    3  501    0 -0.26878941898E+03 -0.40582835613E+02  0.85866949904E+03  0.90067087601E+03  0.00000000000E+00 0. -1.
<mgrwt>
<rscale>  0 0.83552633E+03</rscale>
<asrwt>0</asrwt>
<pdfrwt beam="1">0</pdfrwt>
<pdfrwt beam="2">  1        2 0.63464157E+00 0.83552633E+03</pdfrwt>
<totfact> 0.36279658E-01</totfact>
</mgrwt>
</event>
<event>
 5    1  0.2368666E-004  0.6485007E+03  0.7818608E-02  0.9809597E-01
         13   -1    0    0    0    0  0.00000000000E+00  0.00000000000E+00  0.10000000000E+04  0.10000000000E+04  0.00000000000E+00 0. -1.
          2   -1    0    0  501    0 -0.00000000000E+00 -0.00000000000E+00 -0.10513829966E+03  0.10513829966E+03  0.00000000000E+00 0. -1.
    9000006    2    1    2  501    0  0.00000000000E+00  0.00000000000E+00  0.89486170034E+03  0.11051382997E+04  0.64850073140E+03 0.  0.
         13    1    3    3    0    0  0.31565915804E+03 -0.71226077053E+02  0.41232212125E+03  0.52414062023E+03  0.00000000000E+00 0. -1.
          2    1    3    3  501    0 -0.31565915804E+03  0.71226077053E+02  0.48253957910E+03  0.58099767943E+03  0.00000000000E+00 0. -1.
<mgrwt>
<rscale>  0 0.64850073E+03</rscale>
<asrwt>0</asrwt>
<pdfrwt beam="1">0</pdfrwt>
<pdfrwt beam="2">  1        2 0.38232190E+00 0.64850073E+03</pdfrwt>
<totfact> 0.46351552E+00</totfact>
</mgrwt>
</event>
<event>
 5    1  0.2368666E-004  0.6436124E+03  0.7818608E-02  0.9818839E-01
         13   -1    0    0    0    0  0.00000000000E+00  0.00000000000E+00  0.10000000000E+04  0.10000000000E+04  0.00000000000E+00 0. -1.
          2   -1    0    0  501    0 -0.00000000000E+00 -0.00000000000E+00 -0.10355924213E+03  0.10355924213E+03  0.00000000000E+00 0. -1.
    9000006    2    1    2  501    0  0.00000000000E+00  0.00000000000E+00  0.89644075787E+03  0.11035592421E+04  0.64361243659E+03 0.  0.
         13    1    3    3    0    0  0.29316451160E+03 -0.11899841276E+03  0.34746194672E+03  0.46993175837E+03  0.00000000000E+00 0. -1.
          4    1    3    3  501    0 -0.29316451160E+03  0.11899841276E+03  0.54897881114E+03  0.63362748377E+03  0.00000000000E+00 0. -1.
<mgrwt>
<rscale>  0 0.64361244E+03</rscale>
<asrwt>0</asrwt>
<pdfrwt beam="1">0</pdfrwt>
<pdfrwt beam="2">  1        2 0.37657986E+00 0.64361244E+03</pdfrwt>
<totfact> 0.48686186E+00</totfact>
</mgrwt>
</event>
<event>
 5    1  0.2368666E-004  0.6517659E+03  0.7818608E-02  0.9803471E-01
         13   -1    0    0    0    0  0.00000000000E+00  0.00000000000E+00  0.10000000000E+04  0.10000000000E+04  0.00000000000E+00 0. -1.
          2   -1    0    0  501    0 -0.00000000000E+00 -0.00000000000E+00 -0.10619969930E+03  0.10619969930E+03  0.00000000000E+00 0. -1.
    9000006    2    1    2  501    0  0.00000000000E+00  0.00000000000E+00  0.89380030070E+03  0.11061996993E+04  0.65176590674E+03 0.  0.
         13    1    3    3    0    0  0.34594184159E+02 -0.11959468652E+02  0.99650004786E+03  0.99717206732E+03  0.00000000000E+00 0. -1.
          2    1    3    3  501    0 -0.34594184159E+02  0.11959468652E+02 -0.10269974715E+03  0.10902763197E+03  0.00000000000E+00 0. -1.
<mgrwt>
<rscale>  0 0.65176591E+03</rscale>
<asrwt>0</asrwt>
<pdfrwt beam="1">0</pdfrwt>
<pdfrwt beam="2">  1        2 0.38618154E+00 0.65176591E+03</pdfrwt>
<totfact> 0.44839963E+00</totfact>
</mgrwt>
</event>
<event>
 5    1  0.2368666E-004  0.6442228E+03  0.7818608E-02  0.9817680E-01
         13   -1    0    0    0    0  0.00000000000E+00  0.00000000000E+00  0.10000000000E+04  0.10000000000E+04  0.00000000000E+00 0. -1.
          2   -1    0    0  501    0 -0.00000000000E+00 -0.00000000000E+00 -0.10375576016E+03  0.10375576016E+03  0.00000000000E+00 0. -1.
    9000006    2    1    2  501    0  0.00000000000E+00  0.00000000000E+00  0.89624423984E+03  0.11037557602E+04  0.64422281910E+03 0.  0.
         13    1    3    3    0    0  0.29315824892E+03  0.11218368342E+03  0.32423138597E+03  0.45127921443E+03  0.00000000000E+00 0. -1.
          4    1    3    3  501    0 -0.29315824892E+03 -0.11218368342E+03  0.57201285387E+03  0.65247654573E+03  0.00000000000E+00 0. -1.
<mgrwt>
<rscale>  0 0.64422282E+03</rscale>
<asrwt>0</asrwt>
<pdfrwt beam="1">0</pdfrwt>
<pdfrwt beam="2">  1        2 0.37729447E+00 0.64422282E+03</pdfrwt>
<totfact> 0.48389912E+00</totfact>
</mgrwt>
</event>
<event>
 5    1  0.2368666E-004  0.6481298E+03  0.7818608E-02  0.9810295E-01
         13   -1    0    0    0    0  0.00000000000E+00  0.00000000000E+00  0.10000000000E+04  0.10000000000E+04  0.00000000000E+00 0. -1.
          2   -1    0    0  501    0 -0.00000000000E+00 -0.00000000000E+00 -0.10501806101E+03  0.10501806101E+03  0.00000000000E+00 0. -1.
    9000006    2    1    2  501    0  0.00000000000E+00  0.00000000000E+00  0.89498193899E+03  0.11050180610E+04  0.64812980495E+03 0.  0.
         13    1    3    3    0    0  0.22324842754E+03  0.22301245584E+03  0.57328275656E+03  0.65439096481E+03  0.00000000000E+00 0. -1.
          2    1    3    3  501    0 -0.22324842754E+03 -0.22301245584E+03  0.32169918242E+03  0.45062709620E+03  0.00000000000E+00 0. -1.
<mgrwt>
<rscale>  0 0.64812980E+03</rscale>
<asrwt>0</asrwt>
<pdfrwt beam="1">0</pdfrwt>
<pdfrwt beam="2">  1        2 0.38188466E+00 0.64812980E+03</pdfrwt>
<totfact> 0.46525674E+00</totfact>
</mgrwt>
</event>
<event>
 5    1  0.2368666E-004  0.6535315E+03  0.7818608E-02  0.9800175E-01
         13   -1    0    0    0    0  0.00000000000E+00  0.00000000000E+00  0.10000000000E+04  0.10000000000E+04  0.00000000000E+00 0. -1.
          2   -1    0    0  501    0 -0.00000000000E+00 -0.00000000000E+00 -0.10677585114E+03  0.10677585114E+03  0.00000000000E+00 0. -1.
    9000006    2    1    2  501    0  0.00000000000E+00  0.00000000000E+00  0.89322414886E+03  0.11067758511E+04  0.65353148706E+03 0.  0.
         13    1    3    3    0    0  0.87819072011E+02  0.30554682362E+03  0.57452469061E+03  0.65661988315E+03  0.00000000000E+00 0. -1.
          4    1    3    3  501    0 -0.87819072011E+02 -0.30554682362E+03  0.31869945824E+03  0.45015596799E+03  0.00000000000E+00 0. -1.
<mgrwt>
<rscale>  0 0.65353149E+03</rscale>
<asrwt>0</asrwt>
<pdfrwt beam="1">0</pdfrwt>
<pdfrwt beam="2">  1        2 0.38827664E+00 0.65353149E+03</pdfrwt>
<totfact> 0.44038281E+00</totfact>
</mgrwt>
</event>
<event>
 5    1  0.2368666E-004  0.5087472E+03  0.7818608E-02  0.1011521E+00
         13   -1    0    0    0    0  0.00000000000E+00  0.00000000000E+00  0.10000000000E+04  0.10000000000E+04  0.00000000000E+00 0. -1.
          2   -1    0    0  501    0 -0.00000000000E+00 -0.00000000000E+00 -0.64705916687E+02  0.64705916687E+02  0.00000000000E+00 0. -1.
    9000006    2    1    2  501    0  0.00000000000E+00  0.00000000000E+00  0.93529408331E+03  0.10647059167E+04  0.50874715405E+03 0.  0.
         13    1    3    3    0    0  0.78800300954E+02 -0.22339269202E+03  0.27365754961E+03  0.36194231134E+03  0.00000000000E+00 0. -1.
          4    1    3    3  501    0 -0.78800300954E+02  0.22339269202E+03  0.66163653370E+03  0.70276360535E+03  0.00000000000E+00 0. -1.
<mgrwt>
<rscale>  0 0.50874715E+03</rscale>
<asrwt>0</asrwt>
<pdfrwt beam="1">0</pdfrwt>
<pdfrwt beam="2">  1        2 0.23529474E+00 0.50874715E+03</pdfrwt>
<totfact> 0.15751587E+01</totfact>
</mgrwt>
</event>
<event>
 5    1  0.2368666E-004  0.6469312E+03  0.7818608E-02  0.9812555E-01
         13   -1    0    0    0    0  0.00000000000E+00  0.00000000000E+00  0.10000000000E+04  0.10000000000E+04  0.00000000000E+00 0. -1.
          2   -1    0    0  501    0 -0.00000000000E+00 -0.00000000000E+00 -0.10462998761E+03  0.10462998761E+03  0.00000000000E+00 0. -1.
    9000006    2    1    2  501    0  0.00000000000E+00  0.00000000000E+00  0.89537001239E+03  0.11046299876E+04  0.64693117906E+03 0.  0.
         13    1    3    3    0    0  0.11135570920E+03  0.29657299611E+03  0.33605167902E+03  0.46182936997E+03  0.00000000000E+00 0. -1.
          4    1    3    3  501    0 -0.11135570920E+03 -0.29657299611E+03  0.55931833337E+03  0.64280061764E+03  0.00000000000E+00 0. -1.
<mgrwt>
<rscale>  0 0.64693118E+03</rscale>
<asrwt>0</asrwt>
<pdfrwt beam="1">0</pdfrwt>
<pdfrwt beam="2">  1        2 0.38047348E+00 0.64693118E+03</pdfrwt>
<totfact> 0.47091721E+00</totfact>
</mgrwt>
</event>
<event>
 5    1  0.2368666E-004  0.6776533E+03  0.7818608E-02  0.9756230E-01
         13   -1    0    0    0    0  0.00000000000E+00  0.00000000000E+00  0.10000000000E+04  0.10000000000E+04  0.00000000000E+00 0. -1.
          2   -1    0    0  501    0 -0.00000000000E+00 -0.00000000000E+00 -0.11480348937E+03  0.11480348937E+03  0.00000000000E+00 0. -1.
    9000006    2    1    2  501    0  0.00000000000E+00  0.00000000000E+00  0.88519651063E+03  0.11148034894E+04  0.67765327230E+03 0.  0.
         13    1    3    3    0    0 -0.74974329151E+02 -0.28025758417E+03  0.73055096436E+03  0.78604718372E+03  0.00000000000E+00 0. -1.
          2    1    3    3  501    0  0.74974329151E+02  0.28025758417E+03  0.15464554628E+03  0.32875630564E+03  0.00000000000E+00 0. -1.
<mgrwt>
<rscale>  0 0.67765327E+03</rscale>
<asrwt>0</asrwt>
<pdfrwt beam="1">0</pdfrwt>
<pdfrwt beam="2">  1        2 0.41746811E+00 0.67765327E+03</pdfrwt>
<totfact> 0.34132762E+00</totfact>
</mgrwt>
</event>
<event>
 5    1  0.2368666E-004  0.6531130E+03  0.7818608E-02  0.9800955E-01
         13   -1    0    0    0    0  0.00000000000E+00  0.00000000000E+00  0.10000000000E+04  0.10000000000E+04  0.00000000000E+00 0. -1.
          2   -1    0    0  501    0 -0.00000000000E+00 -0.00000000000E+00 -0.10663915386E+03  0.10663915386E+03  0.00000000000E+00 0. -1.
    9000006    2    1    2  501    0  0.00000000000E+00  0.00000000000E+00  0.89336084614E+03  0.11066391539E+04  0.65311301888E+03 0.  0.
         13    1    3    3    0    0 -0.60158874683E+02  0.29001667519E+03  0.67968687894E+03  0.74141959476E+03  0.00000000000E+00 0. -1.
          2    1    3    3  501    0  0.60158874683E+02 -0.29001667519E+03  0.21367396720E+03  0.36521955910E+03  0.00000000000E+00 0. -1.
<mgrwt>
<rscale>  0 0.65311302E+03</rscale>
<asrwt>0</asrwt>
<pdfrwt beam="1">0</pdfrwt>
<pdfrwt beam="2">  1        2 0.38777956E+00 0.65311302E+03</pdfrwt>
<totfact> 0.44227305E+00</totfact>
</mgrwt>
</event>
<event>
 5    1  0.2368666E-004  0.6613107E+03  0.7818608E-02  0.9785784E-01
         13   -1    0    0    0    0  0.00000000000E+00  0.00000000000E+00  0.10000000000E+04  0.10000000000E+04  0.00000000000E+00 0. -1.
          2   -1    0    0  501    0 -0.00000000000E+00 -0.00000000000E+00 -0.10933296989E+03  0.10933296989E+03  0.00000000000E+00 0. -1.
    9000006    2    1    2  501    0  0.00000000000E+00  0.00000000000E+00  0.89066703011E+03  0.11093329699E+04  0.66131072846E+03 0.  0.
         13    1    3    3    0    0 -0.32230721440E+03 -0.34336170532E+01  0.56904939600E+03  0.65399613551E+03  0.00000000000E+00 0. -1.
          2    1    3    3  501    0  0.32230721440E+03  0.34336170532E+01  0.32161763411E+03  0.45533683439E+03  0.00000000000E+00 0. -1.
<mgrwt>
<rscale>  0 0.66131073E+03</rscale>
<asrwt>0</asrwt>
<pdfrwt beam="1">0</pdfrwt>
<pdfrwt beam="2">  1        2 0.39757527E+00 0.66131073E+03</pdfrwt>
<totfact> 0.40634273E+00</totfact>
</mgrwt>
</event>
<event>
 5    1  0.2368666E-004  0.6489627E+03  0.7818608E-02  0.9808728E-01
         13   -1    0    0    0    0  0.00000000000E+00  0.00000000000E+00  0.10000000000E+04  0.10000000000E+04  0.00000000000E+00 0. -1.
          2   -1    0    0  501    0 -0.00000000000E+00 -0.00000000000E+00 -0.10528813298E+03  0.10528813298E+03  0.00000000000E+00 0. -1.
    9000006    2    1    2  501    0  0.00000000000E+00  0.00000000000E+00  0.89471186702E+03  0.11052881330E+04  0.64896265835E+03 0.  0.
         13    1    3    3    0    0 -0.23202610450E+02 -0.89066691136E+02 -0.82589772427E+02  0.12366206820E+03  0.00000000000E+00 0. -1.
          2    1    3    3  501    0  0.23202610450E+02  0.89066691136E+02  0.97730163944E+03  0.98162606478E+03  0.00000000000E+00 0. -1.
<mgrwt>
<rscale>  0 0.64896266E+03</rscale>
<asrwt>0</asrwt>
<pdfrwt beam="1">0</pdfrwt>
<pdfrwt beam="2">  1        2 0.38286675E+00 0.64896266E+03</pdfrwt>
<totfact> 0.46135401E+00</totfact>
</mgrwt>
</event>
<event>
 5    1  0.2368666E-004  0.6486997E+03  0.7818608E-02  0.9809222E-01
         13   -1    0    0    0    0  0.00000000000E+00  0.00000000000E+00  0.10000000000E+04  0.10000000000E+04  0.00000000000E+00 0. -1.
          2   -1    0    0  501    0 -0.00000000000E+00 -0.00000000000E+00 -0.10520283261E+03  0.10520283261E+03  0.00000000000E+00 0. -1.
    9000006    2    1    2  501    0  0.00000000000E+00  0.00000000000E+00  0.89479716739E+03  0.11052028326E+04  0.64869972286E+03 0.  0.
         13    1    3    3    0    0  0.65705017535E+02  0.18628157822E+03  0.90924037994E+01  0.19773883665E+03  0.00000000000E+00 0. -1.
          2    1    3    3  501    0 -0.65705017535E+02 -0.18628157822E+03  0.88570476359E+03  0.90746399596E+03  0.00000000000E+00 0. -1.
<mgrwt>
<rscale>  0 0.64869972E+03</rscale>
<asrwt>0</asrwt>
<pdfrwt beam="1">0</pdfrwt>
<pdfrwt beam="2">  1        2 0.38255656E+00 0.64869972E+03</pdfrwt>
<totfact> 0.46258344E+00</totfact>
</mgrwt>
</event>
<event>
 5    1  0.2368666E-004  0.6688013E+03  0.7818608E-02  0.9772126E-01
         13   -1    0    0    0    0  0.00000000000E+00  0.00000000000E+00  0.10000000000E+04  0.10000000000E+04  0.00000000000E+00 0. -1.
          2   -1    0    0  501    0 -0.00000000000E+00 -0.00000000000E+00 -0.11182378078E+03  0.11182378078E+03  0.00000000000E+00 0. -1.
    9000006    2    1    2  501    0  0.00000000000E+00  0.00000000000E+00  0.88817621922E+03  0.11118237808E+04  0.66880125831E+03 0.  0.
         13    1    3    3    0    0 -0.26069318718E+02  0.13833935510E+03 -0.60164184604E+02  0.15309185366E+03  0.00000000000E+00 0. -1.
          2    1    3    3  501    0  0.26069318718E+02 -0.13833935510E+03  0.94834040382E+03  0.95873192712E+03  0.00000000000E+00 0. -1.
<mgrwt>
<rscale>  0 0.66880126E+03</rscale>
<asrwt>0</asrwt>
<pdfrwt beam="1">0</pdfrwt>
<pdfrwt beam="2">  1        2 0.40663279E+00 0.66880126E+03</pdfrwt>
<totfact> 0.37548136E+00</totfact>
</mgrwt>
</event>
<event>
 5    1  0.2368666E-004  0.6548588E+03  0.7818608E-02  0.9797705E-01
         13   -1    0    0    0    0  0.00000000000E+00  0.00000000000E+00  0.10000000000E+04  0.10000000000E+04  0.00000000000E+00 0. -1.
          2   -1    0    0  501    0 -0.00000000000E+00 -0.00000000000E+00 -0.10720999795E+03  0.10720999795E+03  0.00000000000E+00 0. -1.
    9000006    2    1    2  501    0  0.00000000000E+00  0.00000000000E+00  0.89279000205E+03  0.11072099980E+04  0.65485875714E+03 0.  0.
         13    1    3    3    0    0  0.30148026747E+03 -0.33606973481E+02  0.65477899468E+03  0.72163377985E+03  0.00000000000E+00 0. -1.
          2    1    3    3  501    0 -0.30148026747E+03  0.33606973481E+02  0.23801100737E+03  0.38557621810E+03  0.00000000000E+00 0. -1.
<mgrwt>
<rscale>  0 0.65485876E+03</rscale>
<asrwt>0</asrwt>
<pdfrwt beam="1">0</pdfrwt>
<pdfrwt beam="2">  1        2 0.38985536E+00 0.65485876E+03</pdfrwt>
<totfact> 0.43442785E+00</totfact>
</mgrwt>
</event>
<event>
 5    1  0.2368666E-004  0.6583835E+03  0.7818608E-02  0.9791174E-01
         13   -1    0    0    0    0  0.00000000000E+00  0.00000000000E+00  0.10000000000E+04  0.10000000000E+04  0.00000000000E+00 0. -1.
          2   -1    0    0  501    0 -0.00000000000E+00 -0.00000000000E+00 -0.10836720537E+03  0.10836720537E+03  0.00000000000E+00 0. -1.
    9000006    2    1    2  501    0  0.00000000000E+00  0.00000000000E+00  0.89163279463E+03  0.11083672054E+04  0.65838349118E+03 0.  0.
         13    1    3    3    0    0  0.25414726093E+03  0.85853394103E+02  0.76702609710E+03  0.81258271526E+03  0.00000000000E+00 0. -1.
          4    1    3    3  501    0 -0.25414726093E+03 -0.85853394103E+02  0.12460669754E+03  0.29578449010E+03  0.00000000000E+00 0. -1.
<mgrwt>
<rscale>  0 0.65838349E+03</rscale>
<asrwt>0</asrwt>
<pdfrwt beam="1">0</pdfrwt>
<pdfrwt beam="2">  1        2 0.39406340E+00 0.65838349E+03</pdfrwt>
<totfact> 0.41890877E+00</totfact>
</mgrwt>
</event>
<event>
 5    1  0.2368666E-004  0.6481623E+03  0.7818608E-02  0.9810234E-01
         13   -1    0    0    0    0  0.00000000000E+00  0.00000000000E+00  0.10000000000E+04  0.10000000000E+04  0.00000000000E+00 0. -1.
          2   -1    0    0  501    0 -0.00000000000E+00 -0.00000000000E+00 -0.10502859379E+03  0.10502859379E+03  0.00000000000E+00 0. -1.
    9000006    2    1    2  501    0  0.00000000000E+00  0.00000000000E+00  0.89497140621E+03  0.11050285938E+04  0.64816230620E+03 0.  0.
         13    1    3    3    0    0 -0.26906863958E+03  0.16360703822E+03  0.31693944339E+03  0.44678384767E+03  0.00000000000E+00 0. -1.
          4    1    3    3  501    0  0.26906863958E+03 -0.16360703822E+03  0.57803196281E+03  0.65824474612E+03  0.00000000000E+00 0. -1.
<mgrwt>
<rscale>  0 0.64816231E+03</rscale>
<asrwt>0</asrwt>
<pdfrwt beam="1">0</pdfrwt>
<pdfrwt beam="2">  1        2 0.38192296E+00 0.64816231E+03</pdfrwt>
<totfact> 0.46510397E+00</totfact>
</mgrwt>
</event>
<event>
 5    1  0.2368666E-004  0.5915022E+03  0.7818608E-02  0.9923195E-01
         13   -1    0    0    0    0  0.00000000000E+00  0.00000000000E+00  0.10000000000E+04  0.10000000000E+04  0.00000000000E+00 0. -1.
          2   -1    0    0  501    0 -0.00000000000E+00 -0.00000000000E+00 -0.87468724245E+02  0.87468724245E+02  0.00000000000E+00 0. -1.
    9000006    2    1    2  501    0  0.00000000000E+00  0.00000000000E+00  0.91253127575E+03  0.10874687242E+04  0.59150223751E+03 0.  0.
         13    1    3    3    0    0  0.32616284976E+02 -0.28618367946E+03  0.33288411804E+03  0.44020081381E+03  0.00000000000E+00 0. -1.
          4    1    3    3  501    0 -0.32616284976E+02  0.28618367946E+03  0.57964715771E+03  0.64726791043E+03  0.00000000000E+00 0. -1.
<mgrwt>
<rscale>  0 0.59150224E+03</rscale>
<asrwt>0</asrwt>
<pdfrwt beam="1">0</pdfrwt>
<pdfrwt beam="2">  1        2 0.31806876E+00 0.59150224E+03</pdfrwt>
<totfact> 0.79534253E+00</totfact>
</mgrwt>
</event>
<event>
 5    1  0.2368666E-004  0.6525796E+03  0.7818608E-02  0.9801951E-01
         13   -1    0    0    0    0  0.00000000000E+00  0.00000000000E+00  0.10000000000E+04  0.10000000000E+04  0.00000000000E+00 0. -1.
          2   -1    0    0  501    0 -0.00000000000E+00 -0.00000000000E+00 -0.10646502939E+03  0.10646502939E+03  0.00000000000E+00 0. -1.
    9000006    2    1    2  501    0  0.00000000000E+00  0.00000000000E+00  0.89353497061E+03  0.11064650294E+04  0.65257958713E+03 0.  0.
         13    1    3    3    0    0 -0.20886615519E+03  0.95706608629E+02  0.53931481065E+02  0.23599455580E+03  0.00000000000E+00 0. -1.
          2    1    3    3  501    0  0.20886615519E+03 -0.95706608629E+02  0.83960348955E+03  0.87047047358E+03  0.00000000000E+00 0. -1.
<mgrwt>
<rscale>  0 0.65257959E+03</rscale>
<asrwt>0</asrwt>
<pdfrwt beam="1">0</pdfrwt>
<pdfrwt beam="2">  1        2 0.38714638E+00 0.65257959E+03</pdfrwt>
<totfact> 0.44469145E+00</totfact>
</mgrwt>
</event>
<event>
 5    1  0.2368666E-004  0.6464599E+03  0.7818608E-02  0.9813445E-01
         13   -1    0    0    0    0  0.00000000000E+00  0.00000000000E+00  0.10000000000E+04  0.10000000000E+04  0.00000000000E+00 0. -1.
          2   -1    0    0  501    0 -0.00000000000E+00 -0.00000000000E+00 -0.10447759714E+03  0.10447759714E+03  0.00000000000E+00 0. -1.
    9000006    2    1    2  501    0  0.00000000000E+00  0.00000000000E+00  0.89552240286E+03  0.11044775971E+04  0.64645988938E+03 0.  0.
         13    1    3    3    0    0  0.13704592325E+03  0.13858435480E+03  0.72116499221E+01  0.19503644882E+03  0.00000000000E+00 0. -1.
          4    1    3    3  501    0 -0.13704592325E+03 -0.13858435480E+03  0.88831075293E+03  0.90944114832E+03  0.00000000000E+00 0. -1.
<mgrwt>
<rscale>  0 0.64645989E+03</rscale>
<asrwt>0</asrwt>
<pdfrwt beam="1">0</pdfrwt>
<pdfrwt beam="2">  1        2 0.37991934E+00 0.64645989E+03</pdfrwt>
<totfact> 0.47315707E+00</totfact>
</mgrwt>
</event>
<event>
 5    1  0.2368666E-004  0.6535886E+03  0.7818608E-02  0.9800069E-01
         13   -1    0    0    0    0  0.00000000000E+00  0.00000000000E+00  0.10000000000E+04  0.10000000000E+04  0.00000000000E+00 0. -1.
          2   -1    0    0  501    0 -0.00000000000E+00 -0.00000000000E+00 -0.10679450116E+03  0.10679450116E+03  0.00000000000E+00 0. -1.
    9000006    2    1    2  501    0  0.00000000000E+00  0.00000000000E+00  0.89320549884E+03  0.11067945012E+04  0.65358855916E+03 0.  0.
         13    1    3    3    0    0  0.61243910924E+02 -0.18121318205E+03 -0.20889323206E+01  0.19129400830E+03  0.00000000000E+00 0. -1.
          4    1    3    3  501    0 -0.61243910924E+02  0.18121318205E+03  0.89529443116E+03  0.91550049286E+03  0.00000000000E+00 0. -1.
<mgrwt>
<rscale>  0 0.65358856E+03</rscale>
<asrwt>0</asrwt>
<pdfrwt beam="1">0</pdfrwt>
<pdfrwt beam="2">  1        2 0.38834446E+00 0.65358856E+03</pdfrwt>
<totfact> 0.44012549E+00</totfact>
</mgrwt>
</event>
<event>
 5    1  0.2368666E-004  0.6551551E+03  0.7818608E-02  0.9797154E-01
         13   -1    0    0    0    0  0.00000000000E+00  0.00000000000E+00  0.10000000000E+04  0.10000000000E+04  0.00000000000E+00 0. -1.
          2   -1    0    0  501    0 -0.00000000000E+00 -0.00000000000E+00 -0.10730704109E+03  0.10730704109E+03  0.00000000000E+00 0. -1.
    9000006    2    1    2  501    0  0.00000000000E+00  0.00000000000E+00  0.89269295891E+03  0.11073070411E+04  0.65515506894E+03 0.  0.
         13    1    3    3    0    0 -0.17146902136E+03  0.87101091625E+02  0.89453396899E+03  0.91497499809E+03  0.00000000000E+00 0. -1.
          2    1    3    3  501    0  0.17146902136E+03 -0.87101091625E+02 -0.18410100812E+01  0.19233204300E+03  0.00000000000E+00 0. -1.
<mgrwt>
<rscale>  0 0.65515507E+03</rscale>
<asrwt>0</asrwt>
<pdfrwt beam="1">0</pdfrwt>
<pdfrwt beam="2">  1        2 0.39020824E+00 0.65515507E+03</pdfrwt>
<totfact> 0.43310676E+00</totfact>
</mgrwt>
</event>
<event>
 5    1  0.2368666E-004  0.6540613E+03  0.7818608E-02  0.9799188E-01
         13   -1    0    0    0    0  0.00000000000E+00  0.00000000000E+00  0.10000000000E+04  0.10000000000E+04  0.00000000000E+00 0. -1.
          2   -1    0    0  501    0 -0.00000000000E+00 -0.00000000000E+00 -0.10694905117E+03  0.10694905117E+03  0.00000000000E+00 0. -1.
    9000006    2    1    2  501    0  0.00000000000E+00  0.00000000000E+00  0.89305094883E+03  0.11069490512E+04  0.65406131568E+03 0.  0.
         13    1    3    3    0    0  0.26482355215E+03  0.14518736831E+03  0.23420776389E+03  0.38218341454E+03  0.00000000000E+00 0. -1.
          4    1    3    3  501    0 -0.26482355215E+03 -0.14518736831E+03  0.65884318494E+03  0.72476563662E+03  0.00000000000E+00 0. -1.
<mgrwt>
<rscale>  0 0.65406132E+03</rscale>
<asrwt>0</asrwt>
<pdfrwt beam="1">0</pdfrwt>
<pdfrwt beam="2">  1        2 0.38890646E+00 0.65406132E+03</pdfrwt>
<totfact> 0.43799833E+00</totfact>
</mgrwt>
</event>
<event>
 5    1  0.2368666E-004  0.6421287E+03  0.7818608E-02  0.9821662E-01
         13   -1    0    0    0    0  0.00000000000E+00  0.00000000000E+00  0.10000000000E+04  0.10000000000E+04  0.00000000000E+00 0. -1.
          2   -1    0    0  501    0 -0.00000000000E+00 -0.00000000000E+00 -0.10308230801E+03  0.10308230801E+03  0.00000000000E+00 0. -1.
    9000006    2    1    2  501    0  0.00000000000E+00  0.00000000000E+00  0.89691769199E+03  0.11030823080E+04  0.64212867249E+03 0.  0.
         13    1    3    3    0    0 -0.70608007847E+02  0.31016436976E+03  0.37368033327E+03  0.49073864583E+03  0.00000000000E+00 0. -1.
          4    1    3    3  501    0  0.70608007847E+02 -0.31016436976E+03  0.52323735873E+03  0.61234366218E+03  0.00000000000E+00 0. -1.
<mgrwt>
<rscale>  0 0.64212867E+03</rscale>
<asrwt>0</asrwt>
<pdfrwt beam="1">0</pdfrwt>
<pdfrwt beam="2">  1        2 0.37484555E+00 0.64212867E+03</pdfrwt>
<totfact> 0.49412143E+00</totfact>
</mgrwt>
</event>
<event>
 5    1  0.2368666E-004  0.6522397E+03  0.7818608E-02  0.9802586E-01
         13   -1    0    0    0    0  0.00000000000E+00  0.00000000000E+00  0.10000000000E+04  0.10000000000E+04  0.00000000000E+00 0. -1.
          2   -1    0    0  501    0 -0.00000000000E+00 -0.00000000000E+00 -0.10635415369E+03  0.10635415369E+03  0.00000000000E+00 0. -1.
    9000006    2    1    2  501    0  0.00000000000E+00  0.00000000000E+00  0.89364584631E+03  0.11063541537E+04  0.65223969119E+03 0.  0.
         13    1    3    3    0    0 -0.15840229425E+03 -0.46505430686E+02 -0.30239814020E+02  0.16783470516E+03  0.00000000000E+00 0. -1.
          2    1    3    3  501    0  0.15840229425E+03  0.46505430686E+02  0.92388566033E+03  0.93851944853E+03  0.00000000000E+00 0. -1.
<mgrwt>
<rscale>  0 0.65223969E+03</rscale>
<asrwt>0</asrwt>
<pdfrwt beam="1">0</pdfrwt>
<pdfrwt beam="2">  1        2 0.38674319E+00 0.65223969E+03</pdfrwt>
<totfact> 0.44623762E+00</totfact>
</mgrwt>
</event>
<event>
 5    1  0.2368666E-004  0.4889839E+03  0.7818608E-02  0.1016695E+00
         13   -1    0    0    0    0  0.00000000000E+00  0.00000000000E+00  0.10000000000E+04  0.10000000000E+04  0.00000000000E+00 0. -1.
          2   -1    0    0  501    0 -0.00000000000E+00 -0.00000000000E+00 -0.59776320376E+02  0.59776320376E+02  0.00000000000E+00 0. -1.
    9000006    2    1    2  501    0  0.00000000000E+00  0.00000000000E+00  0.94022367962E+03  0.10597763204E+04  0.48898392765E+03 0.  0.
         13    1    3    3    0    0 -0.21347426637E+03 -0.32165586496E+01  0.21189597889E+03  0.30080145366E+03  0.00000000000E+00 0. -1.
          4    1    3    3  501    0  0.21347426637E+03  0.32165586496E+01  0.72832770073E+03  0.75897486671E+03  0.00000000000E+00 0. -1.
<mgrwt>
<rscale>  0 0.48898393E+03</rscale>
<asrwt>0</asrwt>
<pdfrwt beam="1">0</pdfrwt>
<pdfrwt beam="2">  1        2 0.21736890E+00 0.48898393E+03</pdfrwt>
<totfact> 0.18312234E+01</totfact>
</mgrwt>
</event>
<event>
 5    1  0.2368666E-004  0.6602010E+03  0.7818608E-02  0.9787824E-01
         13   -1    0    0    0    0  0.00000000000E+00  0.00000000000E+00  0.10000000000E+04  0.10000000000E+04  0.00000000000E+00 0. -1.
          2   -1    0    0  501    0 -0.00000000000E+00 -0.00000000000E+00 -0.10896635656E+03  0.10896635656E+03  0.00000000000E+00 0. -1.
    9000006    2    1    2  501    0  0.00000000000E+00  0.00000000000E+00  0.89103364344E+03  0.11089663566E+04  0.66020104986E+03 0.  0.
         13    1    3    3    0    0 -0.21356853550E+03 -0.46759245358E+02  0.86095437970E+03  0.88827945507E+03  0.00000000000E+00 0. -1.
          4    1    3    3  501    0  0.21356853550E+03  0.46759245358E+02  0.30079263743E+02  0.22068690149E+03  0.00000000000E+00 0. -1.
<mgrwt>
<rscale>  0 0.66020105E+03</rscale>
<asrwt>0</asrwt>
<pdfrwt beam="1">0</pdfrwt>
<pdfrwt beam="2">  1        2 0.39624213E+00 0.66020105E+03</pdfrwt>
<totfact> 0.41107238E+00</totfact>
</mgrwt>
</event>
<event>
 5    1  0.2368666E-004  0.6465821E+03  0.7818608E-02  0.9813214E-01
         13   -1    0    0    0    0  0.00000000000E+00  0.00000000000E+00  0.10000000000E+04  0.10000000000E+04  0.00000000000E+00 0. -1.
          2   -1    0    0  501    0 -0.00000000000E+00 -0.00000000000E+00 -0.10451708886E+03  0.10451708886E+03  0.00000000000E+00 0. -1.
    9000006    2    1    2  501    0  0.00000000000E+00  0.00000000000E+00  0.89548291114E+03  0.11045170889E+04  0.64658205623E+03 0.  0.
         13    1    3    3    0    0  0.17177982292E+02 -0.13518882663E+03 -0.53055399704E+02  0.14623945213E+03  0.00000000000E+00 0. -1.
          2    1    3    3  501    0 -0.17177982292E+02  0.13518882663E+03  0.94853831084E+03  0.95827763673E+03  0.00000000000E+00 0. -1.
<mgrwt>
<rscale>  0 0.64658206E+03</rscale>
<asrwt>0</asrwt>
<pdfrwt beam="1">0</pdfrwt>
<pdfrwt beam="2">  1        2 0.38006294E+00 0.64658206E+03</pdfrwt>
<totfact> 0.47257568E+00</totfact>
</mgrwt>
</event>
<event>
 5    1  0.2368666E-004  0.6424644E+03  0.7818608E-02  0.9821023E-01
         13   -1    0    0    0    0  0.00000000000E+00  0.00000000000E+00  0.10000000000E+04  0.10000000000E+04  0.00000000000E+00 0. -1.
          2   -1    0    0  501    0 -0.00000000000E+00 -0.00000000000E+00 -0.10319011830E+03  0.10319011830E+03  0.00000000000E+00 0. -1.
    9000006    2    1    2  501    0  0.00000000000E+00  0.00000000000E+00  0.89680988170E+03  0.11031901183E+04  0.64246437503E+03 0.  0.
         13    1    3    3    0    0 -0.16062607710E+03 -0.27223113733E+03  0.35006927628E+03  0.47165562328E+03  0.00000000000E+00 0. -1.
          4    1    3    3  501    0  0.16062607710E+03  0.27223113733E+03  0.54674060542E+03  0.63153449502E+03  0.00000000000E+00 0. -1.
<mgrwt>
<rscale>  0 0.64246438E+03</rscale>
<asrwt>0</asrwt>
<pdfrwt beam="1">0</pdfrwt>
<pdfrwt beam="2">  1        2 0.37523759E+00 0.64246438E+03</pdfrwt>
<totfact> 0.49247173E+00</totfact>
</mgrwt>
</event>
<event>
 5    1  0.2368666E-004  0.6392356E+03  0.7818608E-02  0.9827190E-01
         13   -1    0    0    0    0  0.00000000000E+00  0.00000000000E+00  0.10000000000E+04  0.10000000000E+04  0.00000000000E+00 0. -1.
          2   -1    0    0  501    0 -0.00000000000E+00 -0.00000000000E+00 -0.10215555105E+03  0.10215555105E+03  0.00000000000E+00 0. -1.
    9000006    2    1    2  501    0  0.00000000000E+00  0.00000000000E+00  0.89784444895E+03  0.11021555511E+04  0.63923564060E+03 0.  0.
         13    1    3    3    0    0  0.39537363017E+02 -0.65624062812E+00  0.99576622814E+03  0.99655105983E+03  0.00000000000E+00 0. -1.
          4    1    3    3  501    0 -0.39537363017E+02  0.65624062812E+00 -0.97921779197E+02  0.10560449123E+03  0.00000000000E+00 0. -1.
<mgrwt>
<rscale>  0 0.63923564E+03</rscale>
<asrwt>0</asrwt>
<pdfrwt beam="1">0</pdfrwt>
<pdfrwt beam="2">  1        2 0.37147551E+00 0.63923564E+03</pdfrwt>
<totfact> 0.50851230E+00</totfact>
</mgrwt>
</event>
<event>
 5    1  0.2368666E-004  0.6560819E+03  0.7818608E-02  0.9795433E-01
         13   -1    0    0    0    0  0.00000000000E+00  0.00000000000E+00  0.10000000000E+04  0.10000000000E+04  0.00000000000E+00 0. -1.
          4   -1    0    0  501    0 -0.00000000000E+00 -0.00000000000E+00 -0.10761085644E+03  0.10761085644E+03  0.00000000000E+00 0. -1.
    9000006    2    1    2  501    0  0.00000000000E+00  0.00000000000E+00  0.89238914356E+03  0.11076108564E+04  0.65608187427E+03 0.  0.
         13    1    3    3    0    0  0.22438966728E+03  0.74825499655E+02  0.62476955227E+02  0.24464862173E+03  0.00000000000E+00 0. -1.
          2    1    3    3  501    0 -0.22438966728E+03 -0.74825499655E+02  0.82991218834E+03  0.86296223471E+03  0.00000000000E+00 0. -1.
<mgrwt>
<rscale>  0 0.65608187E+03</rscale>
<asrwt>0</asrwt>
<pdfrwt beam="1">0</pdfrwt>
<pdfrwt beam="2">  1        4 0.39131303E+00 0.65608187E+03</pdfrwt>
<totfact> 0.36772934E-02</totfact>
</mgrwt>
</event>
<event>
 5    1  0.2368666E-004  0.6611614E+03  0.7818608E-02  0.9786058E-01
         13   -1    0    0    0    0  0.00000000000E+00  0.00000000000E+00  0.10000000000E+04  0.10000000000E+04  0.00000000000E+00 0. -1.
          2   -1    0    0  501    0 -0.00000000000E+00 -0.00000000000E+00 -0.10928360973E+03  0.10928360973E+03  0.00000000000E+00 0. -1.
    9000006    2    1    2  501    0  0.00000000000E+00  0.00000000000E+00  0.89071639027E+03  0.11092836097E+04  0.66116143182E+03 0.  0.
         13    1    3    3    0    0  0.15352200817E+03 -0.45670890642E+02 -0.39833038716E+02  0.16505001732E+03  0.00000000000E+00 0. -1.
          4    1    3    3  501    0 -0.15352200817E+03  0.45670890642E+02  0.93054942899E+03  0.94423359241E+03  0.00000000000E+00 0. -1.
<mgrwt>
<rscale>  0 0.66116143E+03</rscale>
<asrwt>0</asrwt>
<pdfrwt beam="1">0</pdfrwt>
<pdfrwt beam="2">  1        2 0.39739578E+00 0.66116143E+03</pdfrwt>
<totfact> 0.40697665E+00</totfact>
</mgrwt>
</event>
<event>
 5    1  0.2368666E-004  0.6504190E+03  0.7818608E-02  0.9805993E-01
         13   -1    0    0    0    0  0.00000000000E+00  0.00000000000E+00  0.10000000000E+04  0.10000000000E+04  0.00000000000E+00 0. -1.
          2   -1    0    0  501    0 -0.00000000000E+00 -0.00000000000E+00 -0.10576122572E+03  0.10576122572E+03  0.00000000000E+00 0. -1.
    9000006    2    1    2  501    0  0.00000000000E+00  0.00000000000E+00  0.89423877428E+03  0.11057612257E+04  0.65041902101E+03 0.  0.
         13    1    3    3    0    0 -0.28579197570E+03  0.18596193745E+02  0.18518445297E+03  0.34105154071E+03  0.00000000000E+00 0. -1.
          4    1    3    3  501    0  0.28579197570E+03 -0.18596193745E+02  0.70905432131E+03  0.76470968502E+03  0.00000000000E+00 0. -1.
<mgrwt>
<rscale>  0 0.65041902E+03</rscale>
<asrwt>0</asrwt>
<pdfrwt beam="1">0</pdfrwt>
<pdfrwt beam="2">  1        2 0.38458709E+00 0.65041902E+03</pdfrwt>
<totfact> 0.45458907E+00</totfact>
</mgrwt>
</event>
<event>
 5    1  0.2368666E-004  0.6507323E+03  0.7818608E-02  0.9805406E-01
         13   -1    0    0    0    0  0.00000000000E+00  0.00000000000E+00  0.10000000000E+04  0.10000000000E+04  0.00000000000E+00 0. -1.
          2   -1    0    0  501    0 -0.00000000000E+00 -0.00000000000E+00 -0.10586313664E+03  0.10586313664E+03  0.00000000000E+00 0. -1.
    9000006    2    1    2  501    0  0.00000000000E+00  0.00000000000E+00  0.89413686336E+03  0.11058631366E+04  0.65073231561E+03 0.  0.
         13    1    3    3    0    0 -0.14091757287E+02  0.18519563697E+03 -0.69235038265E+01  0.18585999161E+03  0.00000000000E+00 0. -1.
          4    1    3    3  501    0  0.14091757287E+02 -0.18519563697E+03  0.90106036718E+03  0.92000314504E+03  0.00000000000E+00 0. -1.
<mgrwt>
<rscale>  0 0.65073232E+03</rscale>
<asrwt>0</asrwt>
<pdfrwt beam="1">0</pdfrwt>
<pdfrwt beam="2">  1        2 0.38495767E+00 0.65073232E+03</pdfrwt>
<totfact> 0.45314364E+00</totfact>
</mgrwt>
</event>
<event>
 5    1  0.2368666E-004  0.6499870E+03  0.7818608E-02  0.9806804E-01
         13   -1    0    0    0    0  0.00000000000E+00  0.00000000000E+00  0.10000000000E+04  0.10000000000E+04  0.00000000000E+00 0. -1.
          2   -1    0    0  501    0 -0.00000000000E+00 -0.00000000000E+00 -0.10562077596E+03  0.10562077596E+03  0.00000000000E+00 0. -1.
    9000006    2    1    2  501    0  0.00000000000E+00  0.00000000000E+00  0.89437922404E+03  0.11056207760E+04  0.64998700282E+03 0.  0.
         13    1    3    3    0    0  0.32299097588E+03 -0.23459706746E+02  0.40069166391E+03  0.51519640708E+03  0.00000000000E+00 0. -1.
          2    1    3    3  501    0 -0.32299097588E+03  0.23459706746E+02  0.49368756013E+03  0.59042436888E+03  0.00000000000E+00 0. -1.
<mgrwt>
<rscale>  0 0.64998700E+03</rscale>
<asrwt>0</asrwt>
<pdfrwt beam="1">0</pdfrwt>
<pdfrwt beam="2">  1        2 0.38407636E+00 0.64998700E+03</pdfrwt>
<totfact> 0.45658796E+00</totfact>
</mgrwt>
</event>
<event>
 5    1  0.2368666E-004  0.6776061E+03  0.7818608E-02  0.9756314E-01
         13   -1    0    0    0    0  0.00000000000E+00  0.00000000000E+00  0.10000000000E+04  0.10000000000E+04  0.00000000000E+00 0. -1.
          2   -1    0    0  501    0 -0.00000000000E+00 -0.00000000000E+00 -0.11478751174E+03  0.11478751174E+03  0.00000000000E+00 0. -1.
    9000006    2    1    2  501    0  0.00000000000E+00  0.00000000000E+00  0.88521248826E+03  0.11147875117E+04  0.67760611491E+03 0.  0.
         13    1    3    3    0    0  0.13736298633E+03 -0.19774811860E+02  0.95109323333E+03  0.96116490348E+03  0.00000000000E+00 0. -1.
          4    1    3    3  501    0 -0.13736298633E+03  0.19774811860E+02 -0.65880745068E+02  0.15362260826E+03  0.00000000000E+00 0. -1.
<mgrwt>
<rscale>  0 0.67760611E+03</rscale>
<asrwt>0</asrwt>
<pdfrwt beam="1">0</pdfrwt>
<pdfrwt beam="2">  1        2 0.41741001E+00 0.67760611E+03</pdfrwt>
<totfact> 0.34150311E+00</totfact>
</mgrwt>
</event>
<event>
 5    1  0.2368666E-004  0.6152009E+03  0.7818608E-02  0.9874361E-01
         13   -1    0    0    0    0  0.00000000000E+00  0.00000000000E+00  0.10000000000E+04  0.10000000000E+04  0.00000000000E+00 0. -1.
          2   -1    0    0  501    0 -0.00000000000E+00 -0.00000000000E+00 -0.94618036949E+02  0.94618036949E+02  0.00000000000E+00 0. -1.
    9000006    2    1    2  501    0  0.00000000000E+00  0.00000000000E+00  0.90538196305E+03  0.10946180369E+04  0.61520090035E+03 0.  0.
         13    1    3    3    0    0 -0.12453739362E+03 -0.12129124111E+03  0.90421218538E+03  0.92077185218E+03  0.00000000000E+00 0. -1.
          2    1    3    3  501    0  0.12453739362E+03  0.12129124111E+03  0.11697776726E+01  0.17384618477E+03  0.00000000000E+00 0. -1.
<mgrwt>
<rscale>  0 0.61520090E+03</rscale>
<asrwt>0</asrwt>
<pdfrwt beam="1">0</pdfrwt>
<pdfrwt beam="2">  1        2 0.34406631E+00 0.61520090E+03</pdfrwt>
<totfact> 0.64073198E+00</totfact>
</mgrwt>
</event>
<event>
 5    1  0.2368666E-004  0.6884342E+03  0.7818608E-02  0.9737218E-01
         13   -1    0    0    0    0  0.00000000000E+00  0.00000000000E+00  0.10000000000E+04  0.10000000000E+04  0.00000000000E+00 0. -1.
          2   -1    0    0  501    0 -0.00000000000E+00 -0.00000000000E+00 -0.11848541552E+03  0.11848541552E+03  0.00000000000E+00 0. -1.
    9000006    2    1    2  501    0  0.00000000000E+00  0.00000000000E+00  0.88151458448E+03  0.11184854155E+04  0.68843421041E+03 0.  0.
         13    1    3    3    0    0 -0.23949298031E+03  0.14888155210E+03  0.76145290947E+03  0.81199331125E+03  0.00000000000E+00 0. -1.
          4    1    3    3  501    0  0.23949298031E+03 -0.14888155210E+03  0.12006167502E+03  0.30649210427E+03  0.00000000000E+00 0. -1.
<mgrwt>
<rscale>  0 0.68843421E+03</rscale>
<asrwt>0</asrwt>
<pdfrwt beam="1">0</pdfrwt>
<pdfrwt beam="2">  1        2 0.43085696E+00 0.68843421E+03</pdfrwt>
<totfact> 0.30295490E+00</totfact>
</mgrwt>
</event>
<event>
 5    1  0.2368666E-004  0.6425416E+03  0.7818608E-02  0.9820876E-01
         13   -1    0    0    0    0  0.00000000000E+00  0.00000000000E+00  0.10000000000E+04  0.10000000000E+04  0.00000000000E+00 0. -1.
          2   -1    0    0  501    0 -0.00000000000E+00 -0.00000000000E+00 -0.10321492012E+03  0.10321492012E+03  0.00000000000E+00 0. -1.
    9000006    2    1    2  501    0  0.00000000000E+00  0.00000000000E+00  0.89678507988E+03  0.11032149201E+04  0.64254157878E+03 0.  0.
         13    1    3    3    0    0  0.31496049967E+03 -0.13383187137E+01  0.55715879007E+03  0.64002173776E+03  0.00000000000E+00 0. -1.
          2    1    3    3  501    0 -0.31496049967E+03  0.13383187137E+01  0.33962628982E+03  0.46319318236E+03  0.00000000000E+00 0. -1.
<mgrwt>
<rscale>  0 0.64254158E+03</rscale>
<asrwt>0</asrwt>
<pdfrwt beam="1">0</pdfrwt>
<pdfrwt beam="2">  1        2 0.37532777E+00 0.64254158E+03</pdfrwt>
<totfact> 0.49209293E+00</totfact>
</mgrwt>
</event>
<event>
 5    1  0.2368666E-004  0.6354558E+03  0.7818608E-02  0.9834460E-01
         13   -1    0    0    0    0  0.00000000000E+00  0.00000000000E+00  0.10000000000E+04  0.10000000000E+04  0.00000000000E+00 0. -1.
          2   -1    0    0  501    0 -0.00000000000E+00 -0.00000000000E+00 -0.10095100461E+03  0.10095100461E+03  0.00000000000E+00 0. -1.
    9000006    2    1    2  501    0  0.00000000000E+00  0.00000000000E+00  0.89904899539E+03  0.11009510046E+04  0.63545575649E+03 0.  0.
         13    1    3    3    0    0  0.43510183859E+01 -0.19490733036E+03  0.88419193149E+03  0.90542982639E+03  0.00000000000E+00 0. -1.
          2    1    3    3  501    0 -0.43510183859E+01  0.19490733036E+03  0.14857063892E+02  0.19552117823E+03  0.00000000000E+00 0. -1.
<mgrwt>
<rscale>  0 0.63545576E+03</rscale>
<asrwt>0</asrwt>
<pdfrwt beam="1">0</pdfrwt>
<pdfrwt beam="2">  1        2 0.36709534E+00 0.63545576E+03</pdfrwt>
<totfact> 0.52779040E+00</totfact>
</mgrwt>
</event>
<event>
 5    1  0.2368666E-004  0.6546523E+03  0.7818608E-02  0.9798088E-01
         13   -1    0    0    0    0  0.00000000000E+00  0.00000000000E+00  0.10000000000E+04  0.10000000000E+04  0.00000000000E+00 0. -1.
          2   -1    0    0  501    0 -0.00000000000E+00 -0.00000000000E+00 -0.10714240369E+03  0.10714240369E+03  0.00000000000E+00 0. -1.
    9000006    2    1    2  501    0  0.00000000000E+00  0.00000000000E+00  0.89285759631E+03  0.11071424037E+04  0.65465228539E+03 0.  0.
         13    1    3    3    0    0  0.15282118100E+03  0.26970624634E+03  0.62417802491E+03  0.69691748397E+03  0.00000000000E+00 0. -1.
          4    1    3    3  501    0 -0.15282118100E+03 -0.26970624634E+03  0.26867957140E+03  0.41022491972E+03  0.00000000000E+00 0. -1.
<mgrwt>
<rscale>  0 0.65465229E+03</rscale>
<asrwt>0</asrwt>
<pdfrwt beam="1">0</pdfrwt>
<pdfrwt beam="2">  1        2 0.38960956E+00 0.65465229E+03</pdfrwt>
<totfact> 0.43535019E+00</totfact>
</mgrwt>
</event>
<event>
 5    1  0.2368666E-004  0.6270648E+03  0.7818608E-02  0.9850793E-01
         13   -1    0    0    0    0  0.00000000000E+00  0.00000000000E+00  0.10000000000E+04  0.10000000000E+04  0.00000000000E+00 0. -1.
          2   -1    0    0  501    0 -0.00000000000E+00 -0.00000000000E+00 -0.98302560905E+02  0.98302560905E+02  0.00000000000E+00 0. -1.
    9000006    2    1    2  501    0  0.00000000000E+00  0.00000000000E+00  0.90169743910E+03  0.10983025609E+04  0.62706478423E+03 0.  0.
         13    1    3    3    0    0  0.30806726863E+03 -0.56355511142E+02  0.47689692840E+03  0.57053664733E+03  0.00000000000E+00 0. -1.
          2    1    3    3  501    0 -0.30806726863E+03  0.56355511142E+02  0.42480051070E+03  0.52776591357E+03  0.00000000000E+00 0. -1.
<mgrwt>
<rscale>  0 0.62706478E+03</rscale>
<asrwt>0</asrwt>
<pdfrwt beam="1">0</pdfrwt>
<pdfrwt beam="2">  1        2 0.35746461E+00 0.62706478E+03</pdfrwt>
<totfact> 0.57256406E+00</totfact>
</mgrwt>
</event>
<event>
 5    1  0.2368666E-004  0.6507039E+03  0.7818608E-02  0.9805459E-01
         13   -1    0    0    0    0  0.00000000000E+00  0.00000000000E+00  0.10000000000E+04  0.10000000000E+04  0.00000000000E+00 0. -1.
          2   -1    0    0  501    0 -0.00000000000E+00 -0.00000000000E+00 -0.10585390395E+03  0.10585390395E+03  0.00000000000E+00 0. -1.
    9000006    2    1    2  501    0  0.00000000000E+00  0.00000000000E+00  0.89414609605E+03  0.11058539039E+04  0.65070393866E+03 0.  0.
         13    1    3    3    0    0 -0.73884556217E+02  0.20467034197E+03  0.85813843900E+03  0.88529681860E+03  0.00000000000E+00 0. -1.
          2    1    3    3  501    0  0.73884556217E+02 -0.20467034197E+03  0.36007657052E+02  0.22055708535E+03  0.00000000000E+00 0. -1.
<mgrwt>
<rscale>  0 0.65070394E+03</rscale>
<asrwt>0</asrwt>
<pdfrwt beam="1">0</pdfrwt>
<pdfrwt beam="2">  1        2 0.38492410E+00 0.65070394E+03</pdfrwt>
<totfact> 0.45327441E+00</totfact>
</mgrwt>
</event>
<event>
 5    1  0.2368666E-004  0.6600312E+03  0.7818608E-02  0.9788136E-01
         13   -1    0    0    0    0  0.00000000000E+00  0.00000000000E+00  0.10000000000E+04  0.10000000000E+04  0.00000000000E+00 0. -1.
          2   -1    0    0  501    0 -0.00000000000E+00 -0.00000000000E+00 -0.10891030407E+03  0.10891030407E+03  0.00000000000E+00 0. -1.
    9000006    2    1    2  501    0  0.00000000000E+00  0.00000000000E+00  0.89108969593E+03  0.11089103041E+04  0.66003122371E+03 0.  0.
         13    1    3    3    0    0  0.54900855842E+01  0.24780933217E+03  0.81159850201E+03  0.84860575924E+03  0.00000000000E+00 0. -1.
          4    1    3    3  501    0 -0.54900855842E+01 -0.24780933217E+03  0.79491193925E+02  0.26030454483E+03  0.00000000000E+00 0. -1.
<mgrwt>
<rscale>  0 0.66003122E+03</rscale>
<asrwt>0</asrwt>
<pdfrwt beam="1">0</pdfrwt>
<pdfrwt beam="2">  1        2 0.39603830E+00 0.66003122E+03</pdfrwt>
<totfact> 0.41179986E+00</totfact>
</mgrwt>
</event>
<event>
 5    1  0.2368666E-004  0.6554578E+03  0.7818608E-02  0.9796592E-01
         13   -1    0    0    0    0  0.00000000000E+00  0.00000000000E+00  0.10000000000E+04  0.10000000000E+04  0.00000000000E+00 0. -1.
          2   -1    0    0  501    0 -0.00000000000E+00 -0.00000000000E+00 -0.10740624086E+03  0.10740624086E+03  0.00000000000E+00 0. -1.
    9000006    2    1    2  501    0  0.00000000000E+00  0.00000000000E+00  0.89259375914E+03  0.11074062409E+04  0.65545782736E+03 0.  0.
         13    1    3    3    0    0  0.54350148188E+02  0.31764842369E+03  0.34560711773E+03  0.47254496030E+03  0.00000000000E+00 0. -1.
          4    1    3    3  501    0 -0.54350148188E+02 -0.31764842369E+03  0.54698664141E+03  0.63486128056E+03  0.00000000000E+00 0. -1.
<mgrwt>
<rscale>  0 0.65545783E+03</rscale>
<asrwt>0</asrwt>
<pdfrwt beam="1">0</pdfrwt>
<pdfrwt beam="2">  1        2 0.39056897E+00 0.65545783E+03</pdfrwt>
<totfact> 0.43176006E+00</totfact>
</mgrwt>
</event>
<event>
 5    1  0.2368666E-004  0.6576633E+03  0.7818608E-02  0.9792505E-01
         13   -1    0    0    0    0  0.00000000000E+00  0.00000000000E+00  0.10000000000E+04  0.10000000000E+04  0.00000000000E+00 0. -1.
          2   -1    0    0  501    0 -0.00000000000E+00 -0.00000000000E+00 -0.10813025552E+03  0.10813025552E+03  0.00000000000E+00 0. -1.
    9000006    2    1    2  501    0  0.00000000000E+00  0.00000000000E+00  0.89186974448E+03  0.11081302555E+04  0.65766330449E+03 0.  0.
         13    1    3    3    0    0 -0.70817543601E+02  0.19319644823E+03  0.87811820583E+03  0.90190441595E+03  0.00000000000E+00 0. -1.
          2    1    3    3  501    0  0.70817543601E+02 -0.19319644823E+03  0.13751538648E+02  0.20622583957E+03  0.00000000000E+00 0. -1.
<mgrwt>
<rscale>  0 0.65766330E+03</rscale>
<asrwt>0</asrwt>
<pdfrwt beam="1">0</pdfrwt>
<pdfrwt beam="2">  1        2 0.39320176E+00 0.65766330E+03</pdfrwt>
<totfact> 0.42204505E+00</totfact>
</mgrwt>
</event>
<event>
 5    1  0.2368666E-004  0.6392022E+03  0.7818608E-02  0.9827254E-01
         13   -1    0    0    0    0  0.00000000000E+00  0.00000000000E+00  0.10000000000E+04  0.10000000000E+04  0.00000000000E+00 0. -1.
          2   -1    0    0  501    0 -0.00000000000E+00 -0.00000000000E+00 -0.10214485764E+03  0.10214485764E+03  0.00000000000E+00 0. -1.
    9000006    2    1    2  501    0  0.00000000000E+00  0.00000000000E+00  0.89785514236E+03  0.11021448576E+04  0.63920218285E+03 0.  0.
         13    1    3    3    0    0  0.61709077164E+01  0.31069001654E+03  0.57771065012E+03  0.65598472676E+03  0.00000000000E+00 0. -1.
          2    1    3    3  501    0 -0.61709077164E+01 -0.31069001654E+03  0.32014449224E+03  0.44616013088E+03  0.00000000000E+00 0. -1.
<mgrwt>
<rscale>  0 0.63920218E+03</rscale>
<asrwt>0</asrwt>
<pdfrwt beam="1">0</pdfrwt>
<pdfrwt beam="2">  1        2 0.37143663E+00 0.63920218E+03</pdfrwt>
<totfact> 0.50868056E+00</totfact>
</mgrwt>
</event>
<event>
 5    1  0.2368666E-004  0.6514142E+03  0.7818608E-02  0.9804129E-01
         13   -1    0    0    0    0  0.00000000000E+00  0.00000000000E+00  0.10000000000E+04  0.10000000000E+04  0.00000000000E+00 0. -1.
          2   -1    0    0  501    0 -0.00000000000E+00 -0.00000000000E+00 -0.10608512242E+03  0.10608512242E+03  0.00000000000E+00 0. -1.
    9000006    2    1    2  501    0  0.00000000000E+00  0.00000000000E+00  0.89391487758E+03  0.11060851224E+04  0.65141422280E+03 0.  0.
         13    1    3    3    0    0  0.31807003097E+03  0.56849266937E+02  0.51665179096E+03  0.60936807994E+03  0.00000000000E+00 0. -1.
          2    1    3    3  501    0 -0.31807003097E+03 -0.56849266937E+02  0.37726308663E+03  0.49671704248E+03  0.00000000000E+00 0. -1.
<mgrwt>
<rscale>  0 0.65141422E+03</rscale>
<asrwt>0</asrwt>
<pdfrwt beam="1">0</pdfrwt>
<pdfrwt beam="2">  1        2 0.38576489E+00 0.65141422E+03</pdfrwt>
<totfact> 0.45000956E+00</totfact>
</mgrwt>
</event>
<event>
 5    1  0.2368666E-004  0.6663382E+03  0.7818608E-02  0.9776596E-01
         13   -1    0    0    0    0  0.00000000000E+00  0.00000000000E+00  0.10000000000E+04  0.10000000000E+04  0.00000000000E+00 0. -1.
          2   -1    0    0  501    0 -0.00000000000E+00 -0.00000000000E+00 -0.11100166152E+03  0.11100166152E+03  0.00000000000E+00 0. -1.
    9000006    2    1    2  501    0  0.00000000000E+00  0.00000000000E+00  0.88899833848E+03  0.11110016615E+04  0.66633823699E+03 0.  0.
         13    1    3    3    0    0  0.13663308119E+03  0.15398351382E+03  0.77298718484E+01  0.20600794238E+03  0.00000000000E+00 0. -1.
          2    1    3    3  501    0 -0.13663308119E+03 -0.15398351382E+03  0.88126846663E+03  0.90499371914E+03  0.00000000000E+00 0. -1.
<mgrwt>
<rscale>  0 0.66633824E+03</rscale>
<asrwt>0</asrwt>
<pdfrwt beam="1">0</pdfrwt>
<pdfrwt beam="2">  1        2 0.40364326E+00 0.66633824E+03</pdfrwt>
<totfact> 0.38542679E+00</totfact>
</mgrwt>
</event>
<event>
 5    1  0.2368666E-004  0.6282031E+03  0.7818608E-02  0.9848562E-01
         13   -1    0    0    0    0  0.00000000000E+00  0.00000000000E+00  0.10000000000E+04  0.10000000000E+04  0.00000000000E+00 0. -1.
          2   -1    0    0  501    0 -0.00000000000E+00 -0.00000000000E+00 -0.98659785263E+02  0.98659785263E+02  0.00000000000E+00 0. -1.
    9000006    2    1    2  501    0  0.00000000000E+00  0.00000000000E+00  0.90134021474E+03  0.10986597853E+04  0.62820310494E+03 0.  0.
         13    1    3    3    0    0  0.15464854910E+03  0.12132089841E+03  0.87914827230E+03  0.90085327263E+03  0.00000000000E+00 0. -1.
          2    1    3    3  501    0 -0.15464854910E+03 -0.12132089841E+03  0.22191942440E+02  0.19780651263E+03  0.00000000000E+00 0. -1.
<mgrwt>
<rscale>  0 0.62820310E+03</rscale>
<asrwt>0</asrwt>
<pdfrwt beam="1">0</pdfrwt>
<pdfrwt beam="2">  1        2 0.35876361E+00 0.62820310E+03</pdfrwt>
<totfact> 0.56632699E+00</totfact>
</mgrwt>
</event>
<event>
 5    1  0.2368666E-004  0.6820652E+03  0.7818608E-02  0.9748404E-01
         13   -1    0    0    0    0  0.00000000000E+00  0.00000000000E+00  0.10000000000E+04  0.10000000000E+04  0.00000000000E+00 0. -1.
          2   -1    0    0  501    0 -0.00000000000E+00 -0.00000000000E+00 -0.11630324383E+03  0.11630324383E+03  0.00000000000E+00 0. -1.
    9000006    2    1    2  501    0  0.00000000000E+00  0.00000000000E+00  0.88369675617E+03  0.11163032438E+04  0.68206522807E+03 0.  0.
         13    1    3    3    0    0  0.95307247114E+02 -0.18632980805E+03  0.88253330982E+03  0.90701009457E+03  0.00000000000E+00 0. -1.
          4    1    3    3  501    0 -0.95307247114E+02  0.18632980805E+03  0.11634463482E+01  0.20929314926E+03  0.00000000000E+00 0. -1.
<mgrwt>
<rscale>  0 0.68206523E+03</rscale>
<asrwt>0</asrwt>
<pdfrwt beam="1">0</pdfrwt>
<pdfrwt beam="2">  1        2 0.42292178E+00 0.68206523E+03</pdfrwt>
<totfact> 0.32520702E+00</totfact>
</mgrwt>
</event>
<event>
 5    1  0.2368666E-004  0.6571300E+03  0.7818608E-02  0.9793491E-01
         13   -1    0    0    0    0  0.00000000000E+00  0.00000000000E+00  0.10000000000E+04  0.10000000000E+04  0.00000000000E+00 0. -1.
          2   -1    0    0  501    0 -0.00000000000E+00 -0.00000000000E+00 -0.10795496528E+03  0.10795496528E+03  0.00000000000E+00 0. -1.
    9000006    2    1    2  501    0  0.00000000000E+00  0.00000000000E+00  0.89204503472E+03  0.11079549653E+04  0.65713001842E+03 0.  0.
         13    1    3    3    0    0 -0.19271508823E+01 -0.30891333348E+03  0.63470819174E+03  0.70589351192E+03  0.00000000000E+00 0. -1.
          4    1    3    3  501    0  0.19271508823E+01  0.30891333348E+03  0.25733684299E+03  0.40206145335E+03  0.00000000000E+00 0. -1.
<mgrwt>
<rscale>  0 0.65713002E+03</rscale>
<asrwt>0</asrwt>
<pdfrwt beam="1">0</pdfrwt>
<pdfrwt beam="2">  1        2 0.39256434E+00 0.65713002E+03</pdfrwt>
<totfact> 0.42437886E+00</totfact>
</mgrwt>
</event>
<event>
 5    1  0.2368666E-004  0.6515874E+03  0.7818608E-02  0.9803805E-01
         13   -1    0    0    0    0  0.00000000000E+00  0.00000000000E+00  0.10000000000E+04  0.10000000000E+04  0.00000000000E+00 0. -1.
          2   -1    0    0  501    0 -0.00000000000E+00 -0.00000000000E+00 -0.10614153527E+03  0.10614153527E+03  0.00000000000E+00 0. -1.
    9000006    2    1    2  501    0  0.00000000000E+00  0.00000000000E+00  0.89385846473E+03  0.11061415353E+04  0.65158740096E+03 0.  0.
         13    1    3    3    0    0 -0.26692493278E+03 -0.41156020208E+02  0.13761550183E+03  0.30311839945E+03  0.00000000000E+00 0. -1.
          4    1    3    3  501    0  0.26692493278E+03  0.41156020208E+02  0.75624296290E+03  0.80302313583E+03  0.00000000000E+00 0. -1.
<mgrwt>
<rscale>  0 0.65158740E+03</rscale>
<asrwt>0</asrwt>
<pdfrwt beam="1">0</pdfrwt>
<pdfrwt beam="2">  1        2 0.38597003E+00 0.65158740E+03</pdfrwt>
<totfact> 0.44921625E+00</totfact>
</mgrwt>
</event>
<event>
 5    1  0.2368666E-004  0.6176462E+03  0.7818608E-02  0.9869457E-01
         13   -1    0    0    0    0  0.00000000000E+00  0.00000000000E+00  0.10000000000E+04  0.10000000000E+04  0.00000000000E+00 0. -1.
          2   -1    0    0  501    0 -0.00000000000E+00 -0.00000000000E+00 -0.95371712666E+02  0.95371712666E+02  0.00000000000E+00 0. -1.
    9000006    2    1    2  501    0  0.00000000000E+00  0.00000000000E+00  0.90462828733E+03  0.10953717127E+04  0.61764621804E+03 0.  0.
         13    1    3    3    0    0  0.53511378365E+02 -0.23336103334E+03  0.10637154104E+03  0.26198424426E+03  0.00000000000E+00 0. -1.
          4    1    3    3  501    0 -0.53511378365E+02  0.23336103334E+03  0.79825674630E+03  0.83338746841E+03  0.00000000000E+00 0. -1.
<mgrwt>
<rscale>  0 0.61764622E+03</rscale>
<asrwt>0</asrwt>
<pdfrwt beam="1">0</pdfrwt>
<pdfrwt beam="2">  1        2 0.34680696E+00 0.61764622E+03</pdfrwt>
<totfact> 0.62620138E+00</totfact>
</mgrwt>
</event>
<event>
 5    1  0.2368666E-004  0.6545637E+03  0.7818608E-02  0.9798253E-01
         13   -1    0    0    0    0  0.00000000000E+00  0.00000000000E+00  0.10000000000E+04  0.10000000000E+04  0.00000000000E+00 0. -1.
          2   -1    0    0  501    0 -0.00000000000E+00 -0.00000000000E+00 -0.10711341338E+03  0.10711341338E+03  0.00000000000E+00 0. -1.
    9000006    2    1    2  501    0  0.00000000000E+00  0.00000000000E+00  0.89288658662E+03  0.11071134134E+04  0.65456371234E+03 0.  0.
         13    1    3    3    0    0 -0.26619482755E+03  0.18842966818E+03  0.40018524521E+03  0.51624960683E+03  0.00000000000E+00 0. -1.
          2    1    3    3  501    0  0.26619482755E+03 -0.18842966818E+03  0.49270134141E+03  0.59086380655E+03  0.00000000000E+00 0. -1.
<mgrwt>
<rscale>  0 0.65456371E+03</rscale>
<asrwt>0</asrwt>
<pdfrwt beam="1">0</pdfrwt>
<pdfrwt beam="2">  1        2 0.38950414E+00 0.65456371E+03</pdfrwt>
<totfact> 0.43574632E+00</totfact>
</mgrwt>
</event>
<event>
 5    1  0.2368666E-004  0.6509554E+03  0.7818608E-02  0.9804988E-01
         13   -1    0    0    0    0  0.00000000000E+00  0.00000000000E+00  0.10000000000E+04  0.10000000000E+04  0.00000000000E+00 0. -1.
          2   -1    0    0  501    0 -0.00000000000E+00 -0.00000000000E+00 -0.10593573647E+03  0.10593573647E+03  0.00000000000E+00 0. -1.
    9000006    2    1    2  501    0  0.00000000000E+00  0.00000000000E+00  0.89406426353E+03  0.11059357365E+04  0.65095541005E+03 0.  0.
         13    1    3    3    0    0  0.25704909222E+03  0.47864851292E+02  0.11772442999E+03  0.28674783559E+03  0.00000000000E+00 0. -1.
          4    1    3    3  501    0 -0.25704909222E+03 -0.47864851292E+02  0.77633983354E+03  0.81918790088E+03  0.00000000000E+00 0. -1.
<mgrwt>
<rscale>  0 0.65095541E+03</rscale>
<asrwt>0</asrwt>
<pdfrwt beam="1">0</pdfrwt>
<pdfrwt beam="2">  1        2 0.38522167E+00 0.65095541E+03</pdfrwt>
<totfact> 0.45211648E+00</totfact>
</mgrwt>
</event>
<event>
 5    1  0.2368666E-004  0.5933708E+03  0.7818608E-02  0.9919256E-01
         13   -1    0    0    0    0  0.00000000000E+00  0.00000000000E+00  0.10000000000E+04  0.10000000000E+04  0.00000000000E+00 0. -1.
          2   -1    0    0  501    0 -0.00000000000E+00 -0.00000000000E+00 -0.88022227282E+02  0.88022227282E+02  0.00000000000E+00 0. -1.
    9000006    2    1    2  501    0  0.00000000000E+00  0.00000000000E+00  0.91197777272E+03  0.10880222273E+04  0.59337080239E+03 0.  0.
         13    1    3    3    0    0 -0.39659764778E+02 -0.28611865422E+03  0.58015480015E+03  0.64808670205E+03  0.00000000000E+00 0. -1.
          2    1    3    3  501    0  0.39659764778E+02  0.28611865422E+03  0.33182297257E+03  0.43993552523E+03  0.00000000000E+00 0. -1.
<mgrwt>
<rscale>  0 0.59337080E+03</rscale>
<asrwt>0</asrwt>
<pdfrwt beam="1">0</pdfrwt>
<pdfrwt beam="2">  1        2 0.32008150E+00 0.59337080E+03</pdfrwt>
<totfact> 0.78219932E+00</totfact>
</mgrwt>
</event>
<event>
 5    1  0.2368666E-004  0.6561610E+03  0.7818608E-02  0.9795287E-01
         13   -1    0    0    0    0  0.00000000000E+00  0.00000000000E+00  0.10000000000E+04  0.10000000000E+04  0.00000000000E+00 0. -1.
          2   -1    0    0  501    0 -0.00000000000E+00 -0.00000000000E+00 -0.10763680846E+03  0.10763680846E+03  0.00000000000E+00 0. -1.
    9000006    2    1    2  501    0  0.00000000000E+00  0.00000000000E+00  0.89236319154E+03  0.11076368085E+04  0.65616098164E+03 0.  0.
         13    1    3    3    0    0  0.11366321323E+03 -0.10220906964E+03  0.93621479800E+03  0.94861170558E+03  0.00000000000E+00 0. -1.
          2    1    3    3  501    0 -0.11366321323E+03  0.10220906964E+03 -0.43851606457E+02  0.15902510288E+03  0.00000000000E+00 0. -1.
<mgrwt>
<rscale>  0 0.65616098E+03</rscale>
<asrwt>0</asrwt>
<pdfrwt beam="1">0</pdfrwt>
<pdfrwt beam="2">  1        2 0.39140740E+00 0.65616098E+03</pdfrwt>
<totfact> 0.42864456E+00</totfact>
</mgrwt>
</event>
<event>
 5    1  0.2368666E-004  0.6555878E+03  0.7818608E-02  0.9796350E-01
         13   -1    0    0    0    0  0.00000000000E+00  0.00000000000E+00  0.10000000000E+04  0.10000000000E+04  0.00000000000E+00 0. -1.
          2   -1    0    0  501    0 -0.00000000000E+00 -0.00000000000E+00 -0.10744883517E+03  0.10744883517E+03  0.00000000000E+00 0. -1.
    9000006    2    1    2  501    0  0.00000000000E+00  0.00000000000E+00  0.89255116483E+03  0.11074488352E+04  0.65558778258E+03 0.  0.
         13    1    3    3    0    0  0.32770625236E+03 -0.75168945322E+01  0.44791652403E+03  0.55504693859E+03  0.00000000000E+00 0. -1.
          4    1    3    3  501    0 -0.32770625236E+03  0.75168945322E+01  0.44463464080E+03  0.55240189658E+03  0.00000000000E+00 0. -1.
<mgrwt>
<rscale>  0 0.65558778E+03</rscale>
<asrwt>0</asrwt>
<pdfrwt beam="1">0</pdfrwt>
<pdfrwt beam="2">  1        2 0.39072386E+00 0.65558778E+03</pdfrwt>
<totfact> 0.43118298E+00</totfact>
</mgrwt>
</event>
<event>
 5    1  0.2368666E-004  0.6529610E+03  0.7818608E-02  0.9801239E-01
         13   -1    0    0    0    0  0.00000000000E+00  0.00000000000E+00  0.10000000000E+04  0.10000000000E+04  0.00000000000E+00 0. -1.
          2   -1    0    0  501    0 -0.00000000000E+00 -0.00000000000E+00 -0.10658952969E+03  0.10658952969E+03  0.00000000000E+00 0. -1.
    9000006    2    1    2  501    0  0.00000000000E+00  0.00000000000E+00  0.89341047031E+03  0.11065895297E+04  0.65296103923E+03 0.  0.
         13    1    3    3    0    0  0.20544779620E+03  0.23037501023E+03  0.26648901936E+03  0.40779632139E+03  0.00000000000E+00 0. -1.
          4    1    3    3  501    0 -0.20544779620E+03 -0.23037501023E+03  0.62692145095E+03  0.69879320830E+03  0.00000000000E+00 0. -1.
<mgrwt>
<rscale>  0 0.65296104E+03</rscale>
<asrwt>0</asrwt>
<pdfrwt beam="1">0</pdfrwt>
<pdfrwt beam="2">  1        2 0.38759911E+00 0.65296104E+03</pdfrwt>
<totfact> 0.44296106E+00</totfact>
</mgrwt>
</event>
<event>
 5    1  0.2368666E-004  0.6375190E+03  0.7818608E-02  0.9830485E-01
         13   -1    0    0    0    0  0.00000000000E+00  0.00000000000E+00  0.10000000000E+04  0.10000000000E+04  0.00000000000E+00 0. -1.
          2   -1    0    0  501    0 -0.00000000000E+00 -0.00000000000E+00 -0.10160762080E+03  0.10160762080E+03  0.00000000000E+00 0. -1.
    9000006    2    1    2  501    0  0.00000000000E+00  0.00000000000E+00  0.89839237920E+03  0.11016076208E+04  0.63751900616E+03 0.  0.
         13    1    3    3    0    0  0.16556740706E+03  0.20103187119E+02  0.91858771756E+03  0.93360596574E+03  0.00000000000E+00 0. -1.
          2    1    3    3  501    0 -0.16556740706E+03 -0.20103187119E+02 -0.20195338360E+02  0.16800165507E+03  0.00000000000E+00 0. -1.
<mgrwt>
<rscale>  0 0.63751901E+03</rscale>
<asrwt>0</asrwt>
<pdfrwt beam="1">0</pdfrwt>
<pdfrwt beam="2">  1        2 0.36948304E+00 0.63751901E+03</pdfrwt>
<totfact> 0.51720010E+00</totfact>
</mgrwt>
</event>
<event>
 5    1  0.2368666E-004  0.6140761E+03  0.7818608E-02  0.9876626E-01
         13   -1    0    0    0    0  0.00000000000E+00  0.00000000000E+00  0.10000000000E+04  0.10000000000E+04  0.00000000000E+00 0. -1.
          2   -1    0    0  501    0 -0.00000000000E+00 -0.00000000000E+00 -0.94272349201E+02  0.94272349201E+02  0.00000000000E+00 0. -1.
    9000006    2    1    2  501    0  0.00000000000E+00  0.00000000000E+00  0.90572765080E+03  0.10942723492E+04  0.61407605132E+03 0.  0.
         13    1    3    3    0    0 -0.27193916734E+03 -0.27922762901E+02  0.70197033573E+03  0.75332127520E+03  0.00000000000E+00 0. -1.
          4    1    3    3  501    0  0.27193916734E+03  0.27922762901E+02  0.20375731507E+03  0.34095107400E+03  0.00000000000E+00 0. -1.
<mgrwt>
<rscale>  0 0.61407605E+03</rscale>
<asrwt>0</asrwt>
<pdfrwt beam="1">0</pdfrwt>
<pdfrwt beam="2">  1        2 0.34280927E+00 0.61407605E+03</pdfrwt>
<totfact> 0.64750172E+00</totfact>
</mgrwt>
</event>
<event>
 5    1  0.2368666E-004  0.6490032E+03  0.7818608E-02  0.9808651E-01
         13   -1    0    0    0    0  0.00000000000E+00  0.00000000000E+00  0.10000000000E+04  0.10000000000E+04  0.00000000000E+00 0. -1.
          2   -1    0    0  501    0 -0.00000000000E+00 -0.00000000000E+00 -0.10530129926E+03  0.10530129926E+03  0.00000000000E+00 0. -1.
    9000006    2    1    2  501    0  0.00000000000E+00  0.00000000000E+00  0.89469870074E+03  0.11053012993E+04  0.64900323344E+03 0.  0.
         13    1    3    3    0    0 -0.28365900997E+03  0.69295427302E+02  0.20627540950E+03  0.35751060788E+03  0.00000000000E+00 0. -1.
          4    1    3    3  501    0  0.28365900997E+03 -0.69295427302E+02  0.68842329124E+03  0.74779069138E+03  0.00000000000E+00 0. -1.
<mgrwt>
<rscale>  0 0.64900323E+03</rscale>
<asrwt>0</asrwt>
<pdfrwt beam="1">0</pdfrwt>
<pdfrwt beam="2">  1        2 0.38291462E+00 0.64900323E+03</pdfrwt>
<totfact> 0.46116451E+00</totfact>
</mgrwt>
</event>
<event>
 5    1  0.2368666E-004  0.5954614E+03  0.7818608E-02  0.9914867E-01
         13   -1    0    0    0    0  0.00000000000E+00  0.00000000000E+00  0.10000000000E+04  0.10000000000E+04  0.00000000000E+00 0. -1.
          2   -1    0    0  501    0 -0.00000000000E+00 -0.00000000000E+00 -0.88643580750E+02  0.88643580750E+02  0.00000000000E+00 0. -1.
    9000006    2    1    2  501    0  0.00000000000E+00  0.00000000000E+00  0.91135641925E+03  0.10886435807E+04  0.59546143704E+03 0.  0.
         13    1    3    3    0    0 -0.11148799436E+03  0.14903052411E+03  0.30819348786E+02  0.18865180164E+03  0.00000000000E+00 0. -1.
          4    1    3    3  501    0  0.11148799436E+03 -0.14903052411E+03  0.88053707046E+03  0.89999177911E+03  0.00000000000E+00 0. -1.
<mgrwt>
<rscale>  0 0.59546144E+03</rscale>
<asrwt>0</asrwt>
<pdfrwt beam="1">0</pdfrwt>
<pdfrwt beam="2">  1        2 0.32234097E+00 0.59546144E+03</pdfrwt>
<totfact> 0.76769388E+00</totfact>
</mgrwt>
</event>
<event>
 5    1  0.2368666E-004  0.6455948E+03  0.7818608E-02  0.9815081E-01
         13   -1    0    0    0    0  0.00000000000E+00  0.00000000000E+00  0.10000000000E+04  0.10000000000E+04  0.00000000000E+00 0. -1.
          2   -1    0    0  501    0 -0.00000000000E+00 -0.00000000000E+00 -0.10419816111E+03  0.10419816111E+03  0.00000000000E+00 0. -1.
    9000006    2    1    2  501    0  0.00000000000E+00  0.00000000000E+00  0.89580183889E+03  0.11041981611E+04  0.64559479896E+03 0.  0.
         13    1    3    3    0    0  0.24280437455E+03  0.18278889367E+03  0.26185346471E+03  0.40116453099E+03  0.00000000000E+00 0. -1.
          2    1    3    3  501    0 -0.24280437455E+03 -0.18278889367E+03  0.63394837418E+03  0.70303363012E+03  0.00000000000E+00 0. -1.
<mgrwt>
<rscale>  0 0.64559480E+03</rscale>
<asrwt>0</asrwt>
<pdfrwt beam="1">0</pdfrwt>
<pdfrwt beam="2">  1        2 0.37890320E+00 0.64559480E+03</pdfrwt>
<totfact> 0.47728947E+00</totfact>
</mgrwt>
</event>
<event>
 5    1  0.2368666E-004  0.6484496E+03  0.7818608E-02  0.9809693E-01
         13   -1    0    0    0    0  0.00000000000E+00  0.00000000000E+00  0.10000000000E+04  0.10000000000E+04  0.00000000000E+00 0. -1.
          2   -1    0    0  501    0 -0.00000000000E+00 -0.00000000000E+00 -0.10512171239E+03  0.10512171239E+03  0.00000000000E+00 0. -1.
    9000006    2    1    2  501    0  0.00000000000E+00  0.00000000000E+00  0.89487828761E+03  0.11051217124E+04  0.64844957364E+03 0.  0.
         13    1    3    3    0    0  0.19783001102E+03 -0.23990967843E+03  0.60389976967E+03  0.67925569476E+03  0.00000000000E+00 0. -1.
          2    1    3    3  501    0 -0.19783001102E+03  0.23990967843E+03  0.29097851795E+03  0.42586601763E+03  0.00000000000E+00 0. -1.
<mgrwt>
<rscale>  0 0.64844957E+03</rscale>
<asrwt>0</asrwt>
<pdfrwt beam="1">0</pdfrwt>
<pdfrwt beam="2">  1        2 0.38226158E+00 0.64844957E+03</pdfrwt>
<totfact> 0.46375537E+00</totfact>
</mgrwt>
</event>
<event>
 5    1  0.2368666E-004  0.6656973E+03  0.7818608E-02  0.9777762E-01
         13   -1    0    0    0    0  0.00000000000E+00  0.00000000000E+00  0.10000000000E+04  0.10000000000E+04  0.00000000000E+00 0. -1.
          2   -1    0    0  501    0 -0.00000000000E+00 -0.00000000000E+00 -0.11078821100E+03  0.11078821100E+03  0.00000000000E+00 0. -1.
    9000006    2    1    2  501    0  0.00000000000E+00  0.00000000000E+00  0.88921178900E+03  0.11107882110E+04  0.66569726151E+03 0.  0.
         13    1    3    3    0    0  0.19999422997E+03  0.17718372680E+03  0.77580031652E+03  0.82052294067E+03  0.00000000000E+00 0. -1.
          2    1    3    3  501    0 -0.19999422997E+03 -0.17718372680E+03  0.11341147249E+03  0.29026527032E+03  0.00000000000E+00 0. -1.
<mgrwt>
<rscale>  0 0.66569726E+03</rscale>
<asrwt>0</asrwt>
<pdfrwt beam="1">0</pdfrwt>
<pdfrwt beam="2">  1        2 0.40286707E+00 0.66569726E+03</pdfrwt>
<totfact> 0.38804723E+00</totfact>
</mgrwt>
</event>
<event>
 5    1  0.2368666E-004  0.6494743E+03  0.7818608E-02  0.9807766E-01
         13   -1    0    0    0    0  0.00000000000E+00  0.00000000000E+00  0.10000000000E+04  0.10000000000E+04  0.00000000000E+00 0. -1.
          2   -1    0    0  501    0 -0.00000000000E+00 -0.00000000000E+00 -0.10545420896E+03  0.10545420896E+03  0.00000000000E+00 0. -1.
    9000006    2    1    2  501    0  0.00000000000E+00  0.00000000000E+00  0.89454579104E+03  0.11054542090E+04  0.64947427649E+03 0.  0.
         13    1    3    3    0    0  0.33167951238E+02 -0.19621971294E+03  0.10492613411E+02  0.19927966196E+03  0.00000000000E+00 0. -1.
          4    1    3    3  501    0 -0.33167951238E+02  0.19621971294E+03  0.88405317763E+03  0.90617454699E+03  0.00000000000E+00 0. -1.
<mgrwt>
<rscale>  0 0.64947428E+03</rscale>
<asrwt>0</asrwt>
<pdfrwt beam="1">0</pdfrwt>
<pdfrwt beam="2">  1        2 0.38347066E+00 0.64947428E+03</pdfrwt>
<totfact> 0.45896889E+00</totfact>
</mgrwt>
</event>
<event>
 5    1  0.2368666E-004  0.5428745E+03  0.7818608E-02  0.1003157E+00
         13   -1    0    0    0    0  0.00000000000E+00  0.00000000000E+00  0.10000000000E+04  0.10000000000E+04  0.00000000000E+00 0. -1.
          2   -1    0    0  501    0 -0.00000000000E+00 -0.00000000000E+00 -0.73678188246E+02  0.73678188246E+02  0.00000000000E+00 0. -1.
    9000006    2    1    2  501    0  0.00000000000E+00  0.00000000000E+00  0.92632181175E+03  0.10736781882E+04  0.54287452784E+03 0.  0.
         13    1    3    3    0    0 -0.12423623738E+03 -0.11127281647E+03  0.88670703329E+03  0.90225586462E+03  0.00000000000E+00 0. -1.
          2    1    3    3  501    0  0.12423623738E+03  0.11127281647E+03  0.39614778467E+02  0.17142232362E+03  0.00000000000E+00 0. -1.
<mgrwt>
<rscale>  0 0.54287453E+03</rscale>
<asrwt>0</asrwt>
<pdfrwt beam="1">0</pdfrwt>
<pdfrwt beam="2">  1        2 0.26792125E+00 0.54287453E+03</pdfrwt>
<totfact> 0.12022382E+01</totfact>
</mgrwt>
</event>
<event>
 5    1  0.2368666E-004  0.6390339E+03  0.7818608E-02  0.9827577E-01
         13   -1    0    0    0    0  0.00000000000E+00  0.00000000000E+00  0.10000000000E+04  0.10000000000E+04  0.00000000000E+00 0. -1.
          2   -1    0    0  501    0 -0.00000000000E+00 -0.00000000000E+00 -0.10209109274E+03  0.10209109274E+03  0.00000000000E+00 0. -1.
    9000006    2    1    2  501    0  0.00000000000E+00  0.00000000000E+00  0.89790890726E+03  0.11020910927E+04  0.63903393569E+03 0.  0.
         13    1    3    3    0    0 -0.16441252705E+03 -0.23858790072E+03  0.68120538655E+03  0.74026781916E+03  0.00000000000E+00 0. -1.
          4    1    3    3  501    0  0.16441252705E+03  0.23858790072E+03  0.21670352071E+03  0.36182327358E+03  0.00000000000E+00 0. -1.
<mgrwt>
<rscale>  0 0.63903394E+03</rscale>
<asrwt>0</asrwt>
<pdfrwt beam="1">0</pdfrwt>
<pdfrwt beam="2">  1        2 0.37124112E+00 0.63903394E+03</pdfrwt>
<totfact> 0.50952734E+00</totfact>
</mgrwt>
</event>
<event>
 5    1  0.2368666E-004  0.6440809E+03  0.7818608E-02  0.9817950E-01
         13   -1    0    0    0    0  0.00000000000E+00  0.00000000000E+00  0.10000000000E+04  0.10000000000E+04  0.00000000000E+00 0. -1.
          2   -1    0    0  501    0 -0.00000000000E+00 -0.00000000000E+00 -0.10371004144E+03  0.10371004144E+03  0.00000000000E+00 0. -1.
    9000006    2    1    2  501    0  0.00000000000E+00  0.00000000000E+00  0.89628995856E+03  0.11037100414E+04  0.64408086895E+03 0.  0.
         13    1    3    3    0    0  0.25990452010E+03  0.16814717467E+03  0.60032188522E+03  0.67543334074E+03  0.00000000000E+00 0. -1.
          4    1    3    3  501    0 -0.25990452010E+03 -0.16814717467E+03  0.29596807335E+03  0.42827670069E+03  0.00000000000E+00 0. -1.
<mgrwt>
<rscale>  0 0.64408087E+03</rscale>
<asrwt>0</asrwt>
<pdfrwt beam="1">0</pdfrwt>
<pdfrwt beam="2">  1        2 0.37712822E+00 0.64408087E+03</pdfrwt>
<totfact> 0.48458691E+00</totfact>
</mgrwt>
</event>
<event>
 5    1  0.2368666E-004  0.6459736E+03  0.7818608E-02  0.9814364E-01
         13   -1    0    0    0    0  0.00000000000E+00  0.00000000000E+00  0.10000000000E+04  0.10000000000E+04  0.00000000000E+00 0. -1.
          2   -1    0    0  501    0 -0.00000000000E+00 -0.00000000000E+00 -0.10432048013E+03  0.10432048013E+03  0.00000000000E+00 0. -1.
    9000006    2    1    2  501    0  0.00000000000E+00  0.00000000000E+00  0.89567951987E+03  0.11043204801E+04  0.64597362216E+03 0.  0.
         13    1    3    3    0    0 -0.27688026515E+03  0.43214261798E+02  0.17329777955E+03  0.32948789667E+03  0.00000000000E+00 0. -1.
          4    1    3    3  501    0  0.27688026515E+03 -0.43214261798E+02  0.72238174031E+03  0.77483258346E+03  0.00000000000E+00 0. -1.
<mgrwt>
<rscale>  0 0.64597362E+03</rscale>
<asrwt>0</asrwt>
<pdfrwt beam="1">0</pdfrwt>
<pdfrwt beam="2">  1        2 0.37934800E+00 0.64597362E+03</pdfrwt>
<totfact> 0.47547654E+00</totfact>
</mgrwt>
</event>
<event>
 5    1  0.2368666E-004  0.6520566E+03  0.7818608E-02  0.9802928E-01
         13   -1    0    0    0    0  0.00000000000E+00  0.00000000000E+00  0.10000000000E+04  0.10000000000E+04  0.00000000000E+00 0. -1.
          2   -1    0    0  501    0 -0.00000000000E+00 -0.00000000000E+00 -0.10629444963E+03  0.10629444963E+03  0.00000000000E+00 0. -1.
    9000006    2    1    2  501    0  0.00000000000E+00  0.00000000000E+00  0.89370555037E+03  0.11062944496E+04  0.65205659151E+03 0.  0.
         13    1    3    3    0    0 -0.79856973444E+02  0.28102942406E+03  0.20134148852E+03  0.35481413218E+03  0.00000000000E+00 0. -1.
          4    1    3    3  501    0  0.79856973444E+02 -0.28102942406E+03  0.69236406184E+03  0.75148031746E+03  0.00000000000E+00 0. -1.
<mgrwt>
<rscale>  0 0.65205659E+03</rscale>
<asrwt>0</asrwt>
<pdfrwt beam="1">0</pdfrwt>
<pdfrwt beam="2">  1        2 0.38652609E+00 0.65205659E+03</pdfrwt>
<totfact> 0.44707222E+00</totfact>
</mgrwt>
</event>
<event>
 5    1  0.2368666E-004  0.6570541E+03  0.7818608E-02  0.9793632E-01
         13   -1    0    0    0    0  0.00000000000E+00  0.00000000000E+00  0.10000000000E+04  0.10000000000E+04  0.00000000000E+00 0. -1.
          2   -1    0    0  501    0 -0.00000000000E+00 -0.00000000000E+00 -0.10793002879E+03  0.10793002879E+03  0.00000000000E+00 0. -1.
    9000006    2    1    2  501    0  0.00000000000E+00  0.00000000000E+00  0.89206997121E+03  0.11079300288E+04  0.65705411890E+03 0.  0.
         13    1    3    3    0    0  0.22420381938E+03  0.19033535412E+03  0.69290835444E+03  0.75273958797E+03  0.00000000000E+00 0. -1.
          2    1    3    3  501    0 -0.22420381938E+03 -0.19033535412E+03  0.19916161677E+03  0.35519044082E+03  0.00000000000E+00 0. -1.
<mgrwt>
<rscale>  0 0.65705412E+03</rscale>
<asrwt>0</asrwt>
<pdfrwt beam="1">0</pdfrwt>
<pdfrwt beam="2">  1        2 0.39247366E+00 0.65705412E+03</pdfrwt>
<totfact> 0.42471181E+00</totfact>
</mgrwt>
</event>
<event>
 5    1  0.2368666E-004  0.6413335E+03  0.7818608E-02  0.9823179E-01
         13   -1    0    0    0    0  0.00000000000E+00  0.00000000000E+00  0.10000000000E+04  0.10000000000E+04  0.00000000000E+00 0. -1.
          2   -1    0    0  501    0 -0.00000000000E+00 -0.00000000000E+00 -0.10282715069E+03  0.10282715069E+03  0.00000000000E+00 0. -1.
    9000006    2    1    2  501    0  0.00000000000E+00  0.00000000000E+00  0.89717284931E+03  0.11028271507E+04  0.64133345677E+03 0.  0.
         13    1    3    3    0    0 -0.11075465132E+03 -0.27324138772E+03  0.23175708635E+03  0.37501839398E+03  0.00000000000E+00 0. -1.
          4    1    3    3  501    0  0.11075465132E+03  0.27324138772E+03  0.66541576296E+03  0.72780875671E+03  0.00000000000E+00 0. -1.
<mgrwt>
<rscale>  0 0.64133346E+03</rscale>
<asrwt>0</asrwt>
<pdfrwt beam="1">0</pdfrwt>
<pdfrwt beam="2">  1        2 0.37391770E+00 0.64133346E+03</pdfrwt>
<totfact> 0.49804594E+00</totfact>
</mgrwt>
</event>
<event>
 5    1  0.2368666E-004  0.6615061E+03  0.7818608E-02  0.9785425E-01
         13   -1    0    0    0    0  0.00000000000E+00  0.00000000000E+00  0.10000000000E+04  0.10000000000E+04  0.00000000000E+00 0. -1.
          2   -1    0    0  501    0 -0.00000000000E+00 -0.00000000000E+00 -0.10939756366E+03  0.10939756366E+03  0.00000000000E+00 0. -1.
    9000006    2    1    2  501    0  0.00000000000E+00  0.00000000000E+00  0.89060243634E+03  0.11093975637E+04  0.66150605035E+03 0.  0.
         13    1    3    3    0    0 -0.27702267257E+03  0.11631223559E+03  0.67724466720E+03  0.74089839824E+03  0.00000000000E+00 0. -1.
          2    1    3    3  501    0  0.27702267257E+03 -0.11631223559E+03  0.21335776913E+03  0.36849916542E+03  0.00000000000E+00 0. -1.
<mgrwt>
<rscale>  0 0.66150605E+03</rscale>
<asrwt>0</asrwt>
<pdfrwt beam="1">0</pdfrwt>
<pdfrwt beam="2">  1        2 0.39781016E+00 0.66150605E+03</pdfrwt>
<totfact> 0.40551450E+00</totfact>
</mgrwt>
</event>
<event>
 5    1  0.2368666E-004  0.6551109E+03  0.7818608E-02  0.9797236E-01
         13   -1    0    0    0    0  0.00000000000E+00  0.00000000000E+00  0.10000000000E+04  0.10000000000E+04  0.00000000000E+00 0. -1.
          2   -1    0    0  501    0 -0.00000000000E+00 -0.00000000000E+00 -0.10729257872E+03  0.10729257872E+03  0.00000000000E+00 0. -1.
    9000006    2    1    2  501    0  0.00000000000E+00  0.00000000000E+00  0.89270742128E+03  0.11072925787E+04  0.65511091800E+03 0.  0.
         13    1    3    3    0    0 -0.30628979043E+03 -0.11227430692E+03  0.39639518860E+03  0.51336936144E+03  0.00000000000E+00 0. -1.
          4    1    3    3  501    0  0.30628979043E+03  0.11227430692E+03  0.49631223267E+03  0.59392321728E+03  0.00000000000E+00 0. -1.
<mgrwt>
<rscale>  0 0.65511092E+03</rscale>
<asrwt>0</asrwt>
<pdfrwt beam="1">0</pdfrwt>
<pdfrwt beam="2">  1        2 0.39015565E+00 0.65511092E+03</pdfrwt>
<totfact> 0.43330341E+00</totfact>
</mgrwt>
</event>
<event>
 5    1  0.2368666E-004  0.6421424E+03  0.7818608E-02  0.9821636E-01
         13   -1    0    0    0    0  0.00000000000E+00  0.00000000000E+00  0.10000000000E+04  0.10000000000E+04  0.00000000000E+00 0. -1.
          2   -1    0    0  501    0 -0.00000000000E+00 -0.00000000000E+00 -0.10308671186E+03  0.10308671186E+03  0.00000000000E+00 0. -1.
    9000006    2    1    2  501    0  0.00000000000E+00  0.00000000000E+00  0.89691328814E+03  0.11030867119E+04  0.64214238876E+03 0.  0.
         13    1    3    3    0    0  0.16862246207E+03  0.25495528813E+03  0.61721449297E+03  0.68875936581E+03  0.00000000000E+00 0. -1.
          4    1    3    3  501    0 -0.16862246207E+03 -0.25495528813E+03  0.27969879517E+03  0.41432734605E+03  0.00000000000E+00 0. -1.
<mgrwt>
<rscale>  0 0.64214239E+03</rscale>
<asrwt>0</asrwt>
<pdfrwt beam="1">0</pdfrwt>
<pdfrwt beam="2">  1        2 0.37486156E+00 0.64214239E+03</pdfrwt>
<totfact> 0.49405394E+00</totfact>
</mgrwt>
</event>
<event>
 5    1  0.2368666E-004  0.6544338E+03  0.7818608E-02  0.9798495E-01
         13   -1    0    0    0    0  0.00000000000E+00  0.00000000000E+00  0.10000000000E+04  0.10000000000E+04  0.00000000000E+00 0. -1.
          2   -1    0    0  501    0 -0.00000000000E+00 -0.00000000000E+00 -0.10707088380E+03  0.10707088380E+03  0.00000000000E+00 0. -1.
    9000006    2    1    2  501    0  0.00000000000E+00  0.00000000000E+00  0.89292911620E+03  0.11070708838E+04  0.65443375158E+03 0.  0.
         13    1    3    3    0    0 -0.24460385242E+03  0.73558174649E+02  0.10048641960E+03  0.27448018179E+03  0.00000000000E+00 0. -1.
          4    1    3    3  501    0  0.24460385242E+03 -0.73558174649E+02  0.79244269660E+03  0.83259070201E+03  0.00000000000E+00 0. -1.
<mgrwt>
<rscale>  0 0.65443375E+03</rscale>
<asrwt>0</asrwt>
<pdfrwt beam="1">0</pdfrwt>
<pdfrwt beam="2">  1        2 0.38934949E+00 0.65443375E+03</pdfrwt>
<totfact> 0.43632803E+00</totfact>
</mgrwt>
</event>
<event>
 5    1  0.2368666E-004  0.6495796E+03  0.7818608E-02  0.9807568E-01
         13   -1    0    0    0    0  0.00000000000E+00  0.00000000000E+00  0.10000000000E+04  0.10000000000E+04  0.00000000000E+00 0. -1.
          2   -1    0    0  501    0 -0.00000000000E+00 -0.00000000000E+00 -0.10548841487E+03  0.10548841487E+03  0.00000000000E+00 0. -1.
    9000006    2    1    2  501    0  0.00000000000E+00  0.00000000000E+00  0.89451158513E+03  0.11054884149E+04  0.64957960211E+03 0.  0.
         13    1    3    3    0    0 -0.32201437089E+03 -0.42357034850E+02  0.44899251970E+03  0.55414948904E+03  0.00000000000E+00 0. -1.
          2    1    3    3  501    0  0.32201437089E+03  0.42357034850E+02  0.44551906544E+03  0.55133892583E+03  0.00000000000E+00 0. -1.
<mgrwt>
<rscale>  0 0.64957960E+03</rscale>
<asrwt>0</asrwt>
<pdfrwt beam="1">0</pdfrwt>
<pdfrwt beam="2">  1        2 0.38359504E+00 0.64957960E+03</pdfrwt>
<totfact> 0.45847903E+00</totfact>
</mgrwt>
</event>
<event>
 5    1  0.2368666E-004  0.6377682E+03  0.7818608E-02  0.9830006E-01
         13   -1    0    0    0    0  0.00000000000E+00  0.00000000000E+00  0.10000000000E+04  0.10000000000E+04  0.00000000000E+00 0. -1.
          2   -1    0    0  501    0 -0.00000000000E+00 -0.00000000000E+00 -0.10168706196E+03  0.10168706196E+03  0.00000000000E+00 0. -1.
    9000006    2    1    2  501    0  0.00000000000E+00  0.00000000000E+00  0.89831293804E+03  0.11016870620E+04  0.63776817719E+03 0.  0.
         13    1    3    3    0    0  0.90706739481E+02 -0.29268798594E+03  0.60164961097E+03  0.67518606627E+03  0.00000000000E+00 0. -1.
          2    1    3    3  501    0 -0.90706739481E+02  0.29268798594E+03  0.29666332707E+03  0.42650099569E+03  0.00000000000E+00 0. -1.
<mgrwt>
<rscale>  0 0.63776818E+03</rscale>
<asrwt>0</asrwt>
<pdfrwt beam="1">0</pdfrwt>
<pdfrwt beam="2">  1        2 0.36977191E+00 0.63776818E+03</pdfrwt>
<totfact> 0.51593214E+00</totfact>
</mgrwt>
</event>
<event>
 5    1  0.2368666E-004  0.6521572E+03  0.7818608E-02  0.9802740E-01
         13   -1    0    0    0    0  0.00000000000E+00  0.00000000000E+00  0.10000000000E+04  0.10000000000E+04  0.00000000000E+00 0. -1.
          2   -1    0    0  501    0 -0.00000000000E+00 -0.00000000000E+00 -0.10632726631E+03  0.10632726631E+03  0.00000000000E+00 0. -1.
    9000006    2    1    2  501    0  0.00000000000E+00  0.00000000000E+00  0.89367273369E+03  0.11063272663E+04  0.65215723967E+03 0.  0.
         13    1    3    3    0    0  0.11182575937E+03 -0.47822299539E+02 -0.66409647514E+02  0.13857205373E+03  0.00000000000E+00 0. -1.
          2    1    3    3  501    0 -0.11182575937E+03  0.47822299539E+02  0.96008238120E+03  0.96775521258E+03  0.00000000000E+00 0. -1.
<mgrwt>
<rscale>  0 0.65215724E+03</rscale>
<asrwt>0</asrwt>
<pdfrwt beam="1">0</pdfrwt>
<pdfrwt beam="2">  1        2 0.38664542E+00 0.65215724E+03</pdfrwt>
<totfact> 0.44661330E+00</totfact>
</mgrwt>
</event>
<event>
 5    1  0.2368666E-004  0.6444419E+03  0.7818608E-02  0.9817265E-01
         13   -1    0    0    0    0  0.00000000000E+00  0.00000000000E+00  0.10000000000E+04  0.10000000000E+04  0.00000000000E+00 0. -1.
          2   -1    0    0  501    0 -0.00000000000E+00 -0.00000000000E+00 -0.10382634555E+03  0.10382634555E+03  0.00000000000E+00 0. -1.
    9000006    2    1    2  501    0  0.00000000000E+00  0.00000000000E+00  0.89617365445E+03  0.11038263456E+04  0.64444191531E+03 0.  0.
         13    1    3    3    0    0  0.10213272739E+03 -0.54715829912E+02 -0.66910084391E+02  0.13379789027E+03  0.00000000000E+00 0. -1.
          4    1    3    3  501    0 -0.10213272739E+03  0.54715829912E+02  0.96308373884E+03  0.97002845528E+03  0.00000000000E+00 0. -1.
<mgrwt>
<rscale>  0 0.64444192E+03</rscale>
<asrwt>0</asrwt>
<pdfrwt beam="1">0</pdfrwt>
<pdfrwt beam="2">  1        2 0.37755114E+00 0.64444192E+03</pdfrwt>
<totfact> 0.48283898E+00</totfact>
</mgrwt>
</event>
<event>
 5    1  0.2368666E-004  0.6511908E+03  0.7818608E-02  0.9804547E-01
         13   -1    0    0    0    0  0.00000000000E+00  0.00000000000E+00  0.10000000000E+04  0.10000000000E+04  0.00000000000E+00 0. -1.
          2   -1    0    0  501    0 -0.00000000000E+00 -0.00000000000E+00 -0.10601235884E+03  0.10601235884E+03  0.00000000000E+00 0. -1.
    9000006    2    1    2  501    0  0.00000000000E+00  0.00000000000E+00  0.89398764116E+03  0.11060123588E+04  0.65119078260E+03 0.  0.
         13    1    3    3    0    0 -0.31947822790E+03  0.17664099232E+02  0.34460696233E+03  0.47024708078E+03  0.00000000000E+00 0. -1.
          2    1    3    3  501    0  0.31947822790E+03 -0.17664099232E+02  0.54938067884E+03  0.63576527806E+03  0.00000000000E+00 0. -1.
<mgrwt>
<rscale>  0 0.65119078E+03</rscale>
<asrwt>0</asrwt>
<pdfrwt beam="1">0</pdfrwt>
<pdfrwt beam="2">  1        2 0.38550030E+00 0.65119078E+03</pdfrwt>
<totfact> 0.45103469E+00</totfact>
</mgrwt>
</event>
<event>
 5    1  0.2368666E-004  0.6546786E+03  0.7818608E-02  0.9798039E-01
         13   -1    0    0    0    0  0.00000000000E+00  0.00000000000E+00  0.10000000000E+04  0.10000000000E+04  0.00000000000E+00 0. -1.
          2   -1    0    0  501    0 -0.00000000000E+00 -0.00000000000E+00 -0.10715102522E+03  0.10715102522E+03  0.00000000000E+00 0. -1.
    9000006    2    1    2  501    0  0.00000000000E+00  0.00000000000E+00  0.89284897478E+03  0.11071510252E+04  0.65467862412E+03 0.  0.
         13    1    3    3    0    0 -0.12851255378E+03  0.11960210449E+03  0.91365248104E+03  0.93036605484E+03  0.00000000000E+00 0. -1.
          2    1    3    3  501    0  0.12851255378E+03 -0.11960210449E+03 -0.20803506260E+02  0.17678497038E+03  0.00000000000E+00 0. -1.
<mgrwt>
<rscale>  0 0.65467862E+03</rscale>
<asrwt>0</asrwt>
<pdfrwt beam="1">0</pdfrwt>
<pdfrwt beam="2">  1        2 0.38964091E+00 0.65467862E+03</pdfrwt>
<totfact> 0.43523245E+00</totfact>
</mgrwt>
</event>
<event>
 5    1  0.2368666E-004  0.6438835E+03  0.7818608E-02  0.9818325E-01
         13   -1    0    0    0    0  0.00000000000E+00  0.00000000000E+00  0.10000000000E+04  0.10000000000E+04  0.00000000000E+00 0. -1.
          2   -1    0    0  501    0 -0.00000000000E+00 -0.00000000000E+00 -0.10364648783E+03  0.10364648783E+03  0.00000000000E+00 0. -1.
    9000006    2    1    2  501    0  0.00000000000E+00  0.00000000000E+00  0.89635351217E+03  0.11036464878E+04  0.64388349204E+03 0.  0.
         13    1    3    3    0    0 -0.10893011925E+03 -0.24624246786E+03  0.14568092057E+03  0.30614384605E+03  0.00000000000E+00 0. -1.
          4    1    3    3  501    0  0.10893011925E+03  0.24624246786E+03  0.75067259161E+03  0.79750264178E+03  0.00000000000E+00 0. -1.
<mgrwt>
<rscale>  0 0.64388349E+03</rscale>
<asrwt>0</asrwt>
<pdfrwt beam="1">0</pdfrwt>
<pdfrwt beam="2">  1        2 0.37689711E+00 0.64388349E+03</pdfrwt>
<totfact> 0.48554449E+00</totfact>
</mgrwt>
</event>
<event>
 5    1  0.2368666E-004  0.6308170E+03  0.7818608E-02  0.9843456E-01
         13   -1    0    0    0    0  0.00000000000E+00  0.00000000000E+00  0.10000000000E+04  0.10000000000E+04  0.00000000000E+00 0. -1.
          2   -1    0    0  501    0 -0.00000000000E+00 -0.00000000000E+00 -0.99482523282E+02  0.99482523282E+02  0.00000000000E+00 0. -1.
    9000006    2    1    2  501    0  0.00000000000E+00  0.00000000000E+00  0.90051747672E+03  0.10994825233E+04  0.63081700447E+03 0.  0.
         13    1    3    3    0    0  0.68338694947E+02 -0.28055612809E+03  0.67141846122E+03  0.73087938014E+03  0.00000000000E+00 0. -1.
          4    1    3    3  501    0 -0.68338694947E+02  0.28055612809E+03  0.22909901549E+03  0.36860314314E+03  0.00000000000E+00 0. -1.
<mgrwt>
<rscale>  0 0.63081700E+03</rscale>
<asrwt>0</asrwt>
<pdfrwt beam="1">0</pdfrwt>
<pdfrwt beam="2">  1        2 0.36175539E+00 0.63081700E+03</pdfrwt>
<totfact> 0.55220027E+00</totfact>
</mgrwt>
</event>
<event>
 5    1  0.2368666E-004  0.6555767E+03  0.7818608E-02  0.9796371E-01
         13   -1    0    0    0    0  0.00000000000E+00  0.00000000000E+00  0.10000000000E+04  0.10000000000E+04  0.00000000000E+00 0. -1.
          4   -1    0    0  501    0 -0.00000000000E+00 -0.00000000000E+00 -0.10744520097E+03  0.10744520097E+03  0.00000000000E+00 0. -1.
    9000006    2    1    2  501    0  0.00000000000E+00  0.00000000000E+00  0.89255479903E+03  0.11074452010E+04  0.65557669565E+03 0.  0.
         13    1    3    3    0    0  0.52641798053E+02  0.29928337794E+02 -0.97914523207E+02  0.11512653109E+03  0.00000000000E+00 0. -1.
          2    1    3    3  501    0 -0.52641798053E+02 -0.29928337794E+02  0.99046932224E+03  0.99231866988E+03  0.00000000000E+00 0. -1.
<mgrwt>
<rscale>  0 0.65557670E+03</rscale>
<asrwt>0</asrwt>
<pdfrwt beam="1">0</pdfrwt>
<pdfrwt beam="2">  1        4 0.39071065E+00 0.65557670E+03</pdfrwt>
<totfact> 0.37122963E-02</totfact>
</mgrwt>
</event>
<event>
 5    1  0.2368666E-004  0.6540368E+03  0.7818608E-02  0.9799234E-01
         13   -1    0    0    0    0  0.00000000000E+00  0.00000000000E+00  0.10000000000E+04  0.10000000000E+04  0.00000000000E+00 0. -1.
          2   -1    0    0  501    0 -0.00000000000E+00 -0.00000000000E+00 -0.10694103315E+03  0.10694103315E+03  0.00000000000E+00 0. -1.
    9000006    2    1    2  501    0  0.00000000000E+00  0.00000000000E+00  0.89305896685E+03  0.11069410331E+04  0.65403679759E+03 0.  0.
         13    1    3    3    0    0 -0.31482247168E+03 -0.88411041809E+02  0.44083205796E+03  0.54887394210E+03  0.00000000000E+00 0. -1.
          4    1    3    3  501    0  0.31482247168E+03  0.88411041809E+02  0.45222690889E+03  0.55806709105E+03  0.00000000000E+00 0. -1.
<mgrwt>
<rscale>  0 0.65403680E+03</rscale>
<asrwt>0</asrwt>
<pdfrwt beam="1">0</pdfrwt>
<pdfrwt beam="2">  1        2 0.38887730E+00 0.65403680E+03</pdfrwt>
<totfact> 0.43810846E+00</totfact>
</mgrwt>
</event>
<event>
 5    1  0.2368666E-004  0.6454143E+03  0.7818608E-02  0.9815422E-01
         13   -1    0    0    0    0  0.00000000000E+00  0.00000000000E+00  0.10000000000E+04  0.10000000000E+04  0.00000000000E+00 0. -1.
          2   -1    0    0  501    0 -0.00000000000E+00 -0.00000000000E+00 -0.10413992041E+03  0.10413992041E+03  0.00000000000E+00 0. -1.
    9000006    2    1    2  501    0  0.00000000000E+00  0.00000000000E+00  0.89586007959E+03  0.11041399204E+04  0.64541434881E+03 0.  0.
         13    1    3    3    0    0  0.53989435014E+01 -0.29566206695E+03  0.22688794518E+03  0.37272422258E+03  0.00000000000E+00 0. -1.
          2    1    3    3  501    0 -0.53989435014E+01  0.29566206695E+03  0.66897213441E+03  0.73141569783E+03  0.00000000000E+00 0. -1.
<mgrwt>
<rscale>  0 0.64541435E+03</rscale>
<asrwt>0</asrwt>
<pdfrwt beam="1">0</pdfrwt>
<pdfrwt beam="2">  1        2 0.37869142E+00 0.64541435E+03</pdfrwt>
<totfact> 0.47815488E+00</totfact>
</mgrwt>
</event>
<event>
 5    1  0.2368666E-004  0.6559148E+03  0.7818608E-02  0.9795743E-01
         13   -1    0    0    0    0  0.00000000000E+00  0.00000000000E+00  0.10000000000E+04  0.10000000000E+04  0.00000000000E+00 0. -1.
          2   -1    0    0  501    0 -0.00000000000E+00 -0.00000000000E+00 -0.10755606654E+03  0.10755606654E+03  0.00000000000E+00 0. -1.
    9000006    2    1    2  501    0  0.00000000000E+00  0.00000000000E+00  0.89244393346E+03  0.11075560665E+04  0.65591483147E+03 0.  0.
         13    1    3    3    0    0 -0.48122705787E+02 -0.31890675335E+03  0.54667047227E+03  0.63471719481E+03  0.00000000000E+00 0. -1.
          4    1    3    3  501    0  0.48122705787E+02  0.31890675335E+03  0.34577346120E+03  0.47283887172E+03  0.00000000000E+00 0. -1.
<mgrwt>
<rscale>  0 0.65591483E+03</rscale>
<asrwt>0</asrwt>
<pdfrwt beam="1">0</pdfrwt>
<pdfrwt beam="2">  1        2 0.39111379E+00 0.65591483E+03</pdfrwt>
<totfact> 0.42973325E+00</totfact>
</mgrwt>
</event>
<event>
 5    1  0.2368666E-004  0.6548706E+03  0.7818608E-02  0.9797683E-01
         13   -1    0    0    0    0  0.00000000000E+00  0.00000000000E+00  0.10000000000E+04  0.10000000000E+04  0.00000000000E+00 0. -1.
          2   -1    0    0  501    0 -0.00000000000E+00 -0.00000000000E+00 -0.10721387108E+03  0.10721387108E+03  0.00000000000E+00 0. -1.
    9000006    2    1    2  501    0  0.00000000000E+00  0.00000000000E+00  0.89278612892E+03  0.11072138711E+04  0.65487058594E+03 0.  0.
         13    1    3    3    0    0 -0.29976769067E+03 -0.62205418556E+02  0.25006590138E+03  0.39530132494E+03  0.00000000000E+00 0. -1.
          4    1    3    3  501    0  0.29976769067E+03  0.62205418556E+02  0.64272022754E+03  0.71191254614E+03  0.00000000000E+00 0. -1.
<mgrwt>
<rscale>  0 0.65487059E+03</rscale>
<asrwt>0</asrwt>
<pdfrwt beam="1">0</pdfrwt>
<pdfrwt beam="2">  1        2 0.38986944E+00 0.65487059E+03</pdfrwt>
<totfact> 0.43437505E+00</totfact>
</mgrwt>
</event>
<event>
 5    1  0.2368666E-004  0.6766823E+03  0.7818608E-02  0.9757961E-01
         13   -1    0    0    0    0  0.00000000000E+00  0.00000000000E+00  0.10000000000E+04  0.10000000000E+04  0.00000000000E+00 0. -1.
          2   -1    0    0  501    0 -0.00000000000E+00 -0.00000000000E+00 -0.11447473309E+03  0.11447473309E+03  0.00000000000E+00 0. -1.
    9000006    2    1    2  501    0  0.00000000000E+00  0.00000000000E+00  0.88552526691E+03  0.11144747331E+04  0.67668229794E+03 0.  0.
         13    1    3    3    0    0  0.11254627587E+03 -0.31812013176E+03  0.48336135829E+03  0.58949578890E+03  0.00000000000E+00 0. -1.
          4    1    3    3  501    0 -0.11254627587E+03  0.31812013176E+03  0.40216390862E+03  0.52497894418E+03  0.00000000000E+00 0. -1.
<mgrwt>
<rscale>  0 0.67668230E+03</rscale>
<asrwt>0</asrwt>
<pdfrwt beam="1">0</pdfrwt>
<pdfrwt beam="2">  1        2 0.41627263E+00 0.67668230E+03</pdfrwt>
<totfact> 0.34495472E+00</totfact>
</mgrwt>
</event>
<event>
 5    1  0.2368666E-004  0.6322769E+03  0.7818608E-02  0.9840616E-01
         13   -1    0    0    0    0  0.00000000000E+00  0.00000000000E+00  0.10000000000E+04  0.10000000000E+04  0.00000000000E+00 0. -1.
          2   -1    0    0  501    0 -0.00000000000E+00 -0.00000000000E+00 -0.99943530922E+02  0.99943530922E+02  0.00000000000E+00 0. -1.
    9000006    2    1    2  501    0  0.00000000000E+00  0.00000000000E+00  0.90005646908E+03  0.10999435309E+04  0.63227693591E+03 0.  0.
         13    1    3    3    0    0  0.20691863837E+03  0.55525454911E+02  0.85445635056E+03  0.88090524693E+03  0.00000000000E+00 0. -1.
          4    1    3    3  501    0 -0.20691863837E+03 -0.55525454911E+02  0.45600118514E+02  0.21903828399E+03  0.00000000000E+00 0. -1.
<mgrwt>
<rscale>  0 0.63227694E+03</rscale>
<asrwt>0</asrwt>
<pdfrwt beam="1">0</pdfrwt>
<pdfrwt beam="2">  1        2 0.36343179E+00 0.63227694E+03</pdfrwt>
<totfact> 0.54442748E+00</totfact>
</mgrwt>
</event>
<event>
 5    1  0.2368666E-004  0.6427442E+03  0.7818608E-02  0.9820490E-01
         13   -1    0    0    0    0  0.00000000000E+00  0.00000000000E+00  0.10000000000E+04  0.10000000000E+04  0.00000000000E+00 0. -1.
          2   -1    0    0  501    0 -0.00000000000E+00 -0.00000000000E+00 -0.10328003270E+03  0.10328003270E+03  0.00000000000E+00 0. -1.
    9000006    2    1    2  501    0  0.00000000000E+00  0.00000000000E+00  0.89671996730E+03  0.11032800327E+04  0.64274421880E+03 0.  0.
         13    1    3    3    0    0  0.22249442781E+03  0.16011313284E+03  0.16041468744E+03  0.31760487663E+03  0.00000000000E+00 0. -1.
          4    1    3    3  501    0 -0.22249442781E+03 -0.16011313284E+03  0.73630527986E+03  0.78567515607E+03  0.00000000000E+00 0. -1.
<mgrwt>
<rscale>  0 0.64274422E+03</rscale>
<asrwt>0</asrwt>
<pdfrwt beam="1">0</pdfrwt>
<pdfrwt beam="2">  1        2 0.37556455E+00 0.64274422E+03</pdfrwt>
<totfact> 0.49109974E+00</totfact>
</mgrwt>
</event>
<event>
 5    1  0.2368666E-004  0.6561345E+03  0.7818608E-02  0.9795336E-01
         13   -1    0    0    0    0  0.00000000000E+00  0.00000000000E+00  0.10000000000E+04  0.10000000000E+04  0.00000000000E+00 0. -1.
          2   -1    0    0  501    0 -0.00000000000E+00 -0.00000000000E+00 -0.10762812462E+03  0.10762812462E+03  0.00000000000E+00 0. -1.
    9000006    2    1    2  501    0  0.00000000000E+00  0.00000000000E+00  0.89237187538E+03  0.11076281246E+04  0.65613451248E+03 0.  0.
         13    1    3    3    0    0 -0.16537300257E+03 -0.19129756939E+03  0.93353966019E+02  0.26955139214E+03  0.00000000000E+00 0. -1.
          4    1    3    3  501    0  0.16537300257E+03  0.19129756939E+03  0.79901790936E+03  0.83807673248E+03  0.00000000000E+00 0. -1.
<mgrwt>
<rscale>  0 0.65613451E+03</rscale>
<asrwt>0</asrwt>
<pdfrwt beam="1">0</pdfrwt>
<pdfrwt beam="2">  1        2 0.39137582E+00 0.65613451E+03</pdfrwt>
<totfact> 0.42876153E+00</totfact>
</mgrwt>
</event>
<event>
 5    1  0.2368666E-004  0.6447668E+03  0.7818608E-02  0.9816649E-01
         13   -1    0    0    0    0  0.00000000000E+00  0.00000000000E+00  0.10000000000E+04  0.10000000000E+04  0.00000000000E+00 0. -1.
          2   -1    0    0  501    0 -0.00000000000E+00 -0.00000000000E+00 -0.10393104932E+03  0.10393104932E+03  0.00000000000E+00 0. -1.
    9000006    2    1    2  501    0  0.00000000000E+00  0.00000000000E+00  0.89606895068E+03  0.11039310493E+04  0.64476677745E+03 0.  0.
         13    1    3    3    0    0 -0.27444364759E+03  0.16914648388E+03  0.44615844046E+03  0.55044273336E+03  0.00000000000E+00 0. -1.
          2    1    3    3  501    0  0.27444364759E+03 -0.16914648388E+03  0.44991051021E+03  0.55348831597E+03  0.00000000000E+00 0. -1.
<mgrwt>
<rscale>  0 0.64476678E+03</rscale>
<asrwt>0</asrwt>
<pdfrwt beam="1">0</pdfrwt>
<pdfrwt beam="2">  1        2 0.37793189E+00 0.64476678E+03</pdfrwt>
<totfact> 0.48127031E+00</totfact>
</mgrwt>
</event>
<event>
 5    1  0.2368666E-004  0.6387432E+03  0.7818608E-02  0.9828134E-01
         13   -1    0    0    0    0  0.00000000000E+00  0.00000000000E+00  0.10000000000E+04  0.10000000000E+04  0.00000000000E+00 0. -1.
          2   -1    0    0  501    0 -0.00000000000E+00 -0.00000000000E+00 -0.10199821349E+03  0.10199821349E+03  0.00000000000E+00 0. -1.
    9000006    2    1    2  501    0  0.00000000000E+00  0.00000000000E+00  0.89800178651E+03  0.11019982135E+04  0.63874318311E+03 0.  0.
         13    1    3    3    0    0  0.30906586783E+03 -0.67265759835E+02  0.37277991174E+03  0.48888777414E+03  0.00000000000E+00 0. -1.
          2    1    3    3  501    0 -0.30906586783E+03  0.67265759835E+02  0.52522187477E+03  0.61311043935E+03  0.00000000000E+00 0. -1.
<mgrwt>
<rscale>  0 0.63874318E+03</rscale>
<asrwt>0</asrwt>
<pdfrwt beam="1">0</pdfrwt>
<pdfrwt beam="2">  1        2 0.37090338E+00 0.63874318E+03</pdfrwt>
<totfact> 0.51099320E+00</totfact>
</mgrwt>
</event>
<event>
 5    1  0.2368666E-004  0.6442508E+03  0.7818608E-02  0.9817627E-01
         13   -1    0    0    0    0  0.00000000000E+00  0.00000000000E+00  0.10000000000E+04  0.10000000000E+04  0.00000000000E+00 0. -1.
          2   -1    0    0  501    0 -0.00000000000E+00 -0.00000000000E+00 -0.10376475964E+03  0.10376475964E+03  0.00000000000E+00 0. -1.
    9000006    2    1    2  501    0  0.00000000000E+00  0.00000000000E+00  0.89623524036E+03  0.11037647596E+04  0.64425075752E+03 0.  0.
         13    1    3    3    0    0 -0.19387110765E+03 -0.94021318506E+02  0.85836486915E+03  0.88499506400E+03  0.00000000000E+00 0. -1.
          4    1    3    3  501    0  0.19387110765E+03  0.94021318506E+02  0.37870371205E+02  0.21876969564E+03  0.00000000000E+00 0. -1.
<mgrwt>
<rscale>  0 0.64425076E+03</rscale>
<asrwt>0</asrwt>
<pdfrwt beam="1">0</pdfrwt>
<pdfrwt beam="2">  1        2 0.37732719E+00 0.64425076E+03</pdfrwt>
<totfact> 0.48376383E+00</totfact>
</mgrwt>
</event>
<event>
 5    1  0.2368666E-004  0.6459730E+03  0.7818608E-02  0.9814365E-01
         13   -1    0    0    0    0  0.00000000000E+00  0.00000000000E+00  0.10000000000E+04  0.10000000000E+04  0.00000000000E+00 0. -1.
          2   -1    0    0  501    0 -0.00000000000E+00 -0.00000000000E+00 -0.10432028765E+03  0.10432028765E+03  0.00000000000E+00 0. -1.
    9000006    2    1    2  501    0  0.00000000000E+00  0.00000000000E+00  0.89567971235E+03  0.11043202877E+04  0.64597302623E+03 0.  0.
         13    1    3    3    0    0 -0.86231147515E+02  0.25748965809E+03  0.14887190540E+03  0.30967657168E+03  0.00000000000E+00 0. -1.
          4    1    3    3  501    0  0.86231147515E+02 -0.25748965809E+03  0.74680780695E+03  0.79464371598E+03  0.00000000000E+00 0. -1.
<mgrwt>
<rscale>  0 0.64597303E+03</rscale>
<asrwt>0</asrwt>
<pdfrwt beam="1">0</pdfrwt>
<pdfrwt beam="2">  1        2 0.37934730E+00 0.64597303E+03</pdfrwt>
<totfact> 0.47547939E+00</totfact>
</mgrwt>
</event>
<event>
 5    1  0.2368666E-004  0.6436611E+03  0.7818608E-02  0.9818747E-01
         13   -1    0    0    0    0  0.00000000000E+00  0.00000000000E+00  0.10000000000E+04  0.10000000000E+04  0.00000000000E+00 0. -1.
          2   -1    0    0  501    0 -0.00000000000E+00 -0.00000000000E+00 -0.10357489520E+03  0.10357489520E+03  0.00000000000E+00 0. -1.
    9000006    2    1    2  501    0  0.00000000000E+00  0.00000000000E+00  0.89642510480E+03  0.11035748952E+04  0.64366107604E+03 0.  0.
         13    1    3    3    0    0  0.22700464994E+03 -0.17504994961E+03  0.69903397990E+03  0.75552769705E+03  0.00000000000E+00 0. -1.
          4    1    3    3  501    0 -0.22700464994E+03  0.17504994961E+03  0.19739112489E+03  0.34804719815E+03  0.00000000000E+00 0. -1.
<mgrwt>
<rscale>  0 0.64366108E+03</rscale>
<asrwt>0</asrwt>
<pdfrwt beam="1">0</pdfrwt>
<pdfrwt beam="2">  1        2 0.37663678E+00 0.64366108E+03</pdfrwt>
<totfact> 0.48662526E+00</totfact>
</mgrwt>
</event>
<event>
 5    1  0.2368666E-004  0.6073126E+03  0.7818608E-02  0.9890350E-01
         13   -1    0    0    0    0  0.00000000000E+00  0.00000000000E+00  0.10000000000E+04  0.10000000000E+04  0.00000000000E+00 0. -1.
          2   -1    0    0  501    0 -0.00000000000E+00 -0.00000000000E+00 -0.92207158248E+02  0.92207158248E+02  0.00000000000E+00 0. -1.
    9000006    2    1    2  501    0  0.00000000000E+00  0.00000000000E+00  0.90779284175E+03  0.10922071582E+04  0.60731263200E+03 0.  0.
         13    1    3    3    0    0  0.20534338505E+03  0.15900210099E+03  0.17091079331E+03  0.31089881501E+03  0.00000000000E+00 0. -1.
          4    1    3    3  501    0 -0.20534338505E+03 -0.15900210099E+03  0.73688204844E+03  0.78130834324E+03  0.00000000000E+00 0. -1.
<mgrwt>
<rscale>  0 0.60731263E+03</rscale>
<asrwt>0</asrwt>
<pdfrwt beam="1">0</pdfrwt>
<pdfrwt beam="2">  1        2 0.33529946E+00 0.60731263E+03</pdfrwt>
<totfact> 0.68936707E+00</totfact>
</mgrwt>
</event>
<event>
 5    1  0.2368666E-004  0.6495032E+03  0.7818608E-02  0.9807712E-01
         13   -1    0    0    0    0  0.00000000000E+00  0.00000000000E+00  0.10000000000E+04  0.10000000000E+04  0.00000000000E+00 0. -1.
          2   -1    0    0  501    0 -0.00000000000E+00 -0.00000000000E+00 -0.10546359461E+03  0.10546359461E+03  0.00000000000E+00 0. -1.
    9000006    2    1    2  501    0  0.00000000000E+00  0.00000000000E+00  0.89453640539E+03  0.11054635946E+04  0.64950317815E+03 0.  0.
         13    1    3    3    0    0 -0.16753198222E+03  0.71988324139E+02  0.90464570606E+03  0.92283971381E+03  0.00000000000E+00 0. -1.
          4    1    3    3  501    0  0.16753198222E+03 -0.71988324139E+02 -0.10109300670E+02  0.18262388080E+03  0.00000000000E+00 0. -1.
<mgrwt>
<rscale>  0 0.64950318E+03</rscale>
<asrwt>0</asrwt>
<pdfrwt beam="1">0</pdfrwt>
<pdfrwt beam="2">  1        2 0.38350479E+00 0.64950318E+03</pdfrwt>
<totfact> 0.45883443E+00</totfact>
</mgrwt>
</event>
<event>
 5    1  0.2368666E-004  0.5913855E+03  0.7818608E-02  0.9923441E-01
         13   -1    0    0    0    0  0.00000000000E+00  0.00000000000E+00  0.10000000000E+04  0.10000000000E+04  0.00000000000E+00 0. -1.
          2   -1    0    0  501    0 -0.00000000000E+00 -0.00000000000E+00 -0.87434198139E+02  0.87434198139E+02  0.00000000000E+00 0. -1.
    9000006    2    1    2  501    0  0.00000000000E+00  0.00000000000E+00  0.91256580186E+03  0.10874341981E+04  0.59138548558E+03 0.  0.
         13    1    3    3    0    0  0.51280469693E+02  0.17523697624E+03  0.28604848000E+02  0.18481320771E+03  0.00000000000E+00 0. -1.
          2    1    3    3  501    0 -0.51280469693E+02 -0.17523697624E+03  0.88396095386E+03  0.90262099043E+03  0.00000000000E+00 0. -1.
<mgrwt>
<rscale>  0 0.59138549E+03</rscale>
<asrwt>0</asrwt>
<pdfrwt beam="1">0</pdfrwt>
<pdfrwt beam="2">  1        2 0.31794321E+00 0.59138549E+03</pdfrwt>
<totfact> 0.79616935E+00</totfact>
</mgrwt>
</event>
<event>
 5    1  0.2368666E-004  0.6573324E+03  0.7818608E-02  0.9793117E-01
         13   -1    0    0    0    0  0.00000000000E+00  0.00000000000E+00  0.10000000000E+04  0.10000000000E+04  0.00000000000E+00 0. -1.
          2   -1    0    0  501    0 -0.00000000000E+00 -0.00000000000E+00 -0.10802146920E+03  0.10802146920E+03  0.00000000000E+00 0. -1.
    9000006    2    1    2  501    0  0.00000000000E+00  0.00000000000E+00  0.89197853080E+03  0.11080214692E+04  0.65733239446E+03 0.  0.
         13    1    3    3    0    0 -0.28424196723E+03  0.12980548103E+03  0.61771312914E+03  0.69225173799E+03  0.00000000000E+00 0. -1.
          4    1    3    3  501    0  0.28424196723E+03 -0.12980548103E+03  0.27426540166E+03  0.41576973121E+03  0.00000000000E+00 0. -1.
<mgrwt>
<rscale>  0 0.65733239E+03</rscale>
<asrwt>0</asrwt>
<pdfrwt beam="1">0</pdfrwt>
<pdfrwt beam="2">  1        2 0.39280617E+00 0.65733239E+03</pdfrwt>
<totfact> 0.42349206E+00</totfact>
</mgrwt>
</event>
<event>
 5    1  0.2368666E-004  0.6543128E+03  0.7818608E-02  0.9798720E-01
         13   -1    0    0    0    0  0.00000000000E+00  0.00000000000E+00  0.10000000000E+04  0.10000000000E+04  0.00000000000E+00 0. -1.
          2   -1    0    0  501    0 -0.00000000000E+00 -0.00000000000E+00 -0.10703129597E+03  0.10703129597E+03  0.00000000000E+00 0. -1.
    9000006    2    1    2  501    0  0.00000000000E+00  0.00000000000E+00  0.89296870403E+03  0.11070312960E+04  0.65431275693E+03 0.  0.
         13    1    3    3    0    0  0.29493670383E+03  0.56305524139E+02  0.66625760796E+03  0.73079215341E+03  0.00000000000E+00 0. -1.
          4    1    3    3  501    0 -0.29493670383E+03 -0.56305524139E+02  0.22671109607E+03  0.37623914257E+03  0.00000000000E+00 0. -1.
<mgrwt>
<rscale>  0 0.65431276E+03</rscale>
<asrwt>0</asrwt>
<pdfrwt beam="1">0</pdfrwt>
<pdfrwt beam="2">  1        2 0.38920553E+00 0.65431276E+03</pdfrwt>
<totfact> 0.43687014E+00</totfact>
</mgrwt>
</event>
<event>
 5    1  0.2368666E-004  0.6493855E+03  0.7818608E-02  0.9807933E-01
         13   -1    0    0    0    0  0.00000000000E+00  0.00000000000E+00  0.10000000000E+04  0.10000000000E+04  0.00000000000E+00 0. -1.
          2   -1    0    0  501    0 -0.00000000000E+00 -0.00000000000E+00 -0.10542538824E+03  0.10542538824E+03  0.00000000000E+00 0. -1.
    9000006    2    1    2  501    0  0.00000000000E+00  0.00000000000E+00  0.89457461176E+03  0.11054253882E+04  0.64938551952E+03 0.  0.
         13    1    3    3    0    0 -0.52100598949E+02  0.28039129794E+03  0.71150383297E+03  0.76653209764E+03  0.00000000000E+00 0. -1.
          2    1    3    3  501    0  0.52100598949E+02 -0.28039129794E+03  0.18307077879E+03  0.33889329060E+03  0.00000000000E+00 0. -1.
<mgrwt>
<rscale>  0 0.64938552E+03</rscale>
<asrwt>0</asrwt>
<pdfrwt beam="1">0</pdfrwt>
<pdfrwt beam="2">  1        2 0.38336586E+00 0.64938552E+03</pdfrwt>
<totfact> 0.45938199E+00</totfact>
</mgrwt>
</event>
<event>
 5    1  0.2368666E-004  0.6310429E+03  0.7818608E-02  0.9843016E-01
         13   -1    0    0    0    0  0.00000000000E+00  0.00000000000E+00  0.10000000000E+04  0.10000000000E+04  0.00000000000E+00 0. -1.
          2   -1    0    0  501    0 -0.00000000000E+00 -0.00000000000E+00 -0.99553792526E+02  0.99553792526E+02  0.00000000000E+00 0. -1.
    9000006    2    1    2  501    0  0.00000000000E+00  0.00000000000E+00  0.90044620747E+03  0.10995537925E+04  0.63104292255E+03 0.  0.
         13    1    3    3    0    0  0.28427950096E+03  0.18041188992E+02  0.21378065994E+03  0.35614953282E+03  0.00000000000E+00 0. -1.
          2    1    3    3  501    0 -0.28427950096E+03 -0.18041188992E+02  0.68666554754E+03  0.74340425970E+03  0.00000000000E+00 0. -1.
<mgrwt>
<rscale>  0 0.63104292E+03</rscale>
<asrwt>0</asrwt>
<pdfrwt beam="1">0</pdfrwt>
<pdfrwt beam="2">  1        2 0.36201455E+00 0.63104292E+03</pdfrwt>
<totfact> 0.55099199E+00</totfact>
</mgrwt>
</event>
<event>
 5    1  0.2368666E-004  0.6353203E+03  0.7818608E-02  0.9834721E-01
         13   -1    0    0    0    0  0.00000000000E+00  0.00000000000E+00  0.10000000000E+04  0.10000000000E+04  0.00000000000E+00 0. -1.
          2   -1    0    0  501    0 -0.00000000000E+00 -0.00000000000E+00 -0.10090797485E+03  0.10090797485E+03  0.00000000000E+00 0. -1.
    9000006    2    1    2  501    0  0.00000000000E+00  0.00000000000E+00  0.89909202515E+03  0.11009079749E+04  0.63532031245E+03 0.  0.
         13    1    3    3    0    0  0.29323915958E+03 -0.12213755919E+03  0.45143375453E+03  0.55199567282E+03  0.00000000000E+00 0. -1.
          2    1    3    3  501    0 -0.29323915958E+03  0.12213755919E+03  0.44765827062E+03  0.54891230204E+03  0.00000000000E+00 0. -1.
<mgrwt>
<rscale>  0 0.63532031E+03</rscale>
<asrwt>0</asrwt>
<pdfrwt beam="1">0</pdfrwt>
<pdfrwt beam="2">  1        2 0.36693886E+00 0.63532031E+03</pdfrwt>
<totfact> 0.52849131E+00</totfact>
</mgrwt>
</event>
<event>
 5    1  0.2368666E-004  0.6425653E+03  0.7818608E-02  0.9820831E-01
         13   -1    0    0    0    0  0.00000000000E+00  0.00000000000E+00  0.10000000000E+04  0.10000000000E+04  0.00000000000E+00 0. -1.
          2   -1    0    0  501    0 -0.00000000000E+00 -0.00000000000E+00 -0.10322254028E+03  0.10322254028E+03  0.00000000000E+00 0. -1.
    9000006    2    1    2  501    0  0.00000000000E+00  0.00000000000E+00  0.89677745972E+03  0.11032225403E+04  0.64256529716E+03 0.  0.
         13    1    3    3    0    0 -0.71361405697E+02 -0.22570132948E+03  0.82135215637E+03  0.85478237296E+03  0.00000000000E+00 0. -1.
          4    1    3    3  501    0  0.71361405697E+02  0.22570132948E+03  0.75425303350E+02  0.24844016732E+03  0.00000000000E+00 0. -1.
<mgrwt>
<rscale>  0 0.64256530E+03</rscale>
<asrwt>0</asrwt>
<pdfrwt beam="1">0</pdfrwt>
<pdfrwt beam="2">  1        2 0.37535548E+00 0.64256530E+03</pdfrwt>
<totfact> 0.49197660E+00</totfact>
</mgrwt>
</event>
<event>
 5    1  0.2368666E-004  0.6516408E+03  0.7818608E-02  0.9803705E-01
         13   -1    0    0    0    0  0.00000000000E+00  0.00000000000E+00  0.10000000000E+04  0.10000000000E+04  0.00000000000E+00 0. -1.
          2   -1    0    0  501    0 -0.00000000000E+00 -0.00000000000E+00 -0.10615893997E+03  0.10615893997E+03  0.00000000000E+00 0. -1.
    9000006    2    1    2  501    0  0.00000000000E+00  0.00000000000E+00  0.89384106003E+03  0.11061589400E+04  0.65164082123E+03 0.  0.
         13    1    3    3    0    0  0.24503693591E+03  0.21473485632E+03  0.44320867488E+03  0.55008007414E+03  0.00000000000E+00 0. -1.
          2    1    3    3  501    0 -0.24503693591E+03 -0.21473485632E+03  0.45063238514E+03  0.55607886583E+03  0.00000000000E+00 0. -1.
<mgrwt>
<rscale>  0 0.65164082E+03</rscale>
<asrwt>0</asrwt>
<pdfrwt beam="1">0</pdfrwt>
<pdfrwt beam="2">  1        2 0.38603332E+00 0.65164082E+03</pdfrwt>
<totfact> 0.44897174E+00</totfact>
</mgrwt>
</event>
<event>
 5    1  0.2368666E-004  0.6407965E+03  0.7818608E-02  0.9824204E-01
         13   -1    0    0    0    0  0.00000000000E+00  0.00000000000E+00  0.10000000000E+04  0.10000000000E+04  0.00000000000E+00 0. -1.
          2   -1    0    0  501    0 -0.00000000000E+00 -0.00000000000E+00 -0.10265503388E+03  0.10265503388E+03  0.00000000000E+00 0. -1.
    9000006    2    1    2  501    0  0.00000000000E+00  0.00000000000E+00  0.89734496612E+03  0.11026550339E+04  0.64079648524E+03 0.  0.
         13    1    3    3    0    0 -0.27814966938E+03  0.87553909121E+02  0.22024493586E+03  0.36543228832E+03  0.00000000000E+00 0. -1.
          2    1    3    3  501    0  0.27814966938E+03 -0.87553909121E+02  0.67710003026E+03  0.73722274555E+03  0.00000000000E+00 0. -1.
<mgrwt>
<rscale>  0 0.64079649E+03</rscale>
<asrwt>0</asrwt>
<pdfrwt beam="1">0</pdfrwt>
<pdfrwt beam="2">  1        2 0.37329182E+00 0.64079649E+03</pdfrwt>
<totfact> 0.50070930E+00</totfact>
</mgrwt>
</event>
<event>
 5    1  0.2368666E-004  0.6478708E+03  0.7818608E-02  0.9810783E-01
         13   -1    0    0    0    0  0.00000000000E+00  0.00000000000E+00  0.10000000000E+04  0.10000000000E+04  0.00000000000E+00 0. -1.
          2   -1    0    0  501    0 -0.00000000000E+00 -0.00000000000E+00 -0.10493414482E+03  0.10493414482E+03  0.00000000000E+00 0. -1.
    9000006    2    1    2  501    0  0.00000000000E+00  0.00000000000E+00  0.89506585518E+03  0.11049341448E+04  0.64787080448E+03 0.  0.
         13    1    3    3    0    0  0.17005821353E+03  0.26091547333E+03  0.29558706253E+03  0.42938140592E+03  0.00000000000E+00 0. -1.
          2    1    3    3  501    0 -0.17005821353E+03 -0.26091547333E+03  0.59947879264E+03  0.67555273891E+03  0.00000000000E+00 0. -1.
<mgrwt>
<rscale>  0 0.64787080E+03</rscale>
<asrwt>0</asrwt>
<pdfrwt beam="1">0</pdfrwt>
<pdfrwt beam="2">  1        2 0.38157951E+00 0.64787080E+03</pdfrwt>
<totfact> 0.46647548E+00</totfact>
</mgrwt>
</event>
<event>
 5    1  0.2368666E-004  0.6517813E+03  0.7818608E-02  0.9803442E-01
         13   -1    0    0    0    0  0.00000000000E+00  0.00000000000E+00  0.10000000000E+04  0.10000000000E+04  0.00000000000E+00 0. -1.
          2   -1    0    0  501    0 -0.00000000000E+00 -0.00000000000E+00 -0.10620471348E+03  0.10620471348E+03  0.00000000000E+00 0. -1.
    9000006    2    1    2  501    0  0.00000000000E+00  0.00000000000E+00  0.89379528652E+03  0.11062047135E+04  0.65178129300E+03 0.  0.
         13    1    3    3    0    0 -0.21416971566E+02  0.23143861091E+03  0.59198545993E+02  0.23984783747E+03  0.00000000000E+00 0. -1.
          2    1    3    3  501    0  0.21416971566E+02 -0.23143861091E+03  0.83459674053E+03  0.86635687600E+03  0.00000000000E+00 0. -1.
<mgrwt>
<rscale>  0 0.65178129E+03</rscale>
<asrwt>0</asrwt>
<pdfrwt beam="1">0</pdfrwt>
<pdfrwt beam="2">  1        2 0.38619977E+00 0.65178129E+03</pdfrwt>
<totfact> 0.44832929E+00</totfact>
</mgrwt>
</event>
<event>
 5    1  0.2368666E-004  0.6718191E+03  0.7818608E-02  0.9766677E-01
         13   -1    0    0    0    0  0.00000000000E+00  0.00000000000E+00  0.10000000000E+04  0.10000000000E+04  0.00000000000E+00 0. -1.
          2   -1    0    0  501    0 -0.00000000000E+00 -0.00000000000E+00 -0.11283522360E+03  0.11283522360E+03  0.00000000000E+00 0. -1.
    9000006    2    1    2  501    0  0.00000000000E+00  0.00000000000E+00  0.88716477640E+03  0.11128352236E+04  0.67181909350E+03 0.  0.
         13    1    3    3    0    0 -0.78641744143E+02  0.30028208841E+03  0.23092761425E+03  0.38688683043E+03  0.00000000000E+00 0. -1.
          4    1    3    3  501    0  0.78641744143E+02 -0.30028208841E+03  0.65623716216E+03  0.72594839316E+03  0.00000000000E+00 0. -1.
<mgrwt>
<rscale>  0 0.67181909E+03</rscale>
<asrwt>0</asrwt>
<pdfrwt beam="1">0</pdfrwt>
<pdfrwt beam="2">  1        2 0.41031077E+00 0.67181909E+03</pdfrwt>
<totfact> 0.36356076E+00</totfact>
</mgrwt>
</event>
<event>
 5    1  0.2368666E-004  0.6474177E+03  0.7818608E-02  0.9811637E-01
         13   -1    0    0    0    0  0.00000000000E+00  0.00000000000E+00  0.10000000000E+04  0.10000000000E+04  0.00000000000E+00 0. -1.
          2   -1    0    0  501    0 -0.00000000000E+00 -0.00000000000E+00 -0.10478742386E+03  0.10478742386E+03  0.00000000000E+00 0. -1.
    9000006    2    1    2  501    0  0.00000000000E+00  0.00000000000E+00  0.89521257614E+03  0.11047874239E+04  0.64741771324E+03 0.  0.
         13    1    3    3    0    0 -0.29571833519E+02 -0.23184043914E+03  0.82980185125E+03  0.86208792759E+03  0.00000000000E+00 0. -1.
          2    1    3    3  501    0  0.29571833519E+02  0.23184043914E+03  0.65410724899E+02  0.24269949627E+03  0.00000000000E+00 0. -1.
<mgrwt>
<rscale>  0 0.64741771E+03</rscale>
<asrwt>0</asrwt>
<pdfrwt beam="1">0</pdfrwt>
<pdfrwt beam="2">  1        2 0.38104598E+00 0.64741771E+03</pdfrwt>
<totfact> 0.46861333E+00</totfact>
</mgrwt>
</event>
<event>
 5    1  0.2368666E-004  0.6244526E+03  0.7818608E-02  0.9855934E-01
         13   -1    0    0    0    0  0.00000000000E+00  0.00000000000E+00  0.10000000000E+04  0.10000000000E+04  0.00000000000E+00 0. -1.
          2   -1    0    0  501    0 -0.00000000000E+00 -0.00000000000E+00 -0.97485268607E+02  0.97485268607E+02  0.00000000000E+00 0. -1.
    9000006    2    1    2  501    0  0.00000000000E+00  0.00000000000E+00  0.90251473139E+03  0.10974852686E+04  0.62445261984E+03 0.  0.
         13    1    3    3    0    0  0.28119868993E+03 -0.10926151362E+03  0.59267445369E+03  0.66503668292E+03  0.00000000000E+00 0. -1.
          4    1    3    3  501    0 -0.28119868993E+03  0.10926151362E+03  0.30984027770E+03  0.43244858569E+03  0.00000000000E+00 0. -1.
<mgrwt>
<rscale>  0 0.62445262E+03</rscale>
<asrwt>0</asrwt>
<pdfrwt beam="1">0</pdfrwt>
<pdfrwt beam="2">  1        2 0.35449263E+00 0.62445262E+03</pdfrwt>
<totfact> 0.58707509E+00</totfact>
</mgrwt>
</event>
<event>
 5    1  0.2368666E-004  0.6389902E+03  0.7818608E-02  0.9827660E-01
         13   -1    0    0    0    0  0.00000000000E+00  0.00000000000E+00  0.10000000000E+04  0.10000000000E+04  0.00000000000E+00 0. -1.
          2   -1    0    0  501    0 -0.00000000000E+00 -0.00000000000E+00 -0.10207711995E+03  0.10207711995E+03  0.00000000000E+00 0. -1.
    9000006    2    1    2  501    0  0.00000000000E+00  0.00000000000E+00  0.89792288005E+03  0.11020771200E+04  0.63899020322E+03 0.  0.
         13    1    3    3    0    0  0.19771047431E+03 -0.15534530816E+02  0.88098962233E+03  0.90303569583E+03  0.00000000000E+00 0. -1.
          2    1    3    3  501    0 -0.19771047431E+03  0.15534530816E+02  0.16933257716E+02  0.19904142412E+03  0.00000000000E+00 0. -1.
<mgrwt>
<rscale>  0 0.63899020E+03</rscale>
<asrwt>0</asrwt>
<pdfrwt beam="1">0</pdfrwt>
<pdfrwt beam="2">  1        2 0.37119031E+00 0.63899020E+03</pdfrwt>
<totfact> 0.50974762E+00</totfact>
</mgrwt>
</event>
<event>
 5    1  0.2368666E-004  0.6504318E+03  0.7818608E-02  0.9805969E-01
         13   -1    0    0    0    0  0.00000000000E+00  0.00000000000E+00  0.10000000000E+04  0.10000000000E+04  0.00000000000E+00 0. -1.
          2   -1    0    0  501    0 -0.00000000000E+00 -0.00000000000E+00 -0.10576537898E+03  0.10576537898E+03  0.00000000000E+00 0. -1.
    9000006    2    1    2  501    0  0.00000000000E+00  0.00000000000E+00  0.89423462102E+03  0.11057653790E+04  0.65043179190E+03 0.  0.
         13    1    3    3    0    0 -0.55088199248E+02 -0.62101506038E+02  0.98168467121E+03  0.98518835784E+03  0.00000000000E+00 0. -1.
          4    1    3    3  501    0  0.55088199248E+02  0.62101506038E+02 -0.87450050185E+02  0.12057702114E+03  0.00000000000E+00 0. -1.
<mgrwt>
<rscale>  0 0.65043179E+03</rscale>
<asrwt>0</asrwt>
<pdfrwt beam="1">0</pdfrwt>
<pdfrwt beam="2">  1        2 0.38460219E+00 0.65043179E+03</pdfrwt>
<totfact> 0.45453008E+00</totfact>
</mgrwt>
</event>
<event>
 5    1  0.2368666E-004  0.6501094E+03  0.7818608E-02  0.9806574E-01
         13   -1    0    0    0    0  0.00000000000E+00  0.00000000000E+00  0.10000000000E+04  0.10000000000E+04  0.00000000000E+00 0. -1.
          2   -1    0    0  501    0 -0.00000000000E+00 -0.00000000000E+00 -0.10566056321E+03  0.10566056321E+03  0.00000000000E+00 0. -1.
    9000006    2    1    2  501    0  0.00000000000E+00  0.00000000000E+00  0.89433943679E+03  0.11056605632E+04  0.65010941607E+03 0.  0.
         13    1    3    3    0    0  0.33239718059E+02  0.94862921833E+02  0.97290359005E+03  0.97808243432E+03  0.00000000000E+00 0. -1.
          2    1    3    3  501    0 -0.33239718059E+02 -0.94862921833E+02 -0.78564153261E+02  0.12757812890E+03  0.00000000000E+00 0. -1.
<mgrwt>
<rscale>  0 0.65010942E+03</rscale>
<asrwt>0</asrwt>
<pdfrwt beam="1">0</pdfrwt>
<pdfrwt beam="2">  1        2 0.38422104E+00 0.65010942E+03</pdfrwt>
<totfact> 0.45602089E+00</totfact>
</mgrwt>
</event>
<event>
 5    1  0.2368666E-004  0.6531054E+03  0.7818608E-02  0.9800969E-01
         13   -1    0    0    0    0  0.00000000000E+00  0.00000000000E+00  0.10000000000E+04  0.10000000000E+04  0.00000000000E+00 0. -1.
          2   -1    0    0  501    0 -0.00000000000E+00 -0.00000000000E+00 -0.10663667249E+03  0.10663667249E+03  0.00000000000E+00 0. -1.
    9000006    2    1    2  501    0  0.00000000000E+00  0.00000000000E+00  0.89336332751E+03  0.11066366725E+04  0.65310542026E+03 0.  0.
         13    1    3    3    0    0  0.21220399604E+03 -0.11948322683E+01  0.86724240066E+03  0.89282772418E+03  0.00000000000E+00 0. -1.
          4    1    3    3  501    0 -0.21220399604E+03  0.11948322683E+01  0.26120926846E+02  0.21380894831E+03  0.00000000000E+00 0. -1.
<mgrwt>
<rscale>  0 0.65310542E+03</rscale>
<asrwt>0</asrwt>
<pdfrwt beam="1">0</pdfrwt>
<pdfrwt beam="2">  1        2 0.38777054E+00 0.65310542E+03</pdfrwt>
<totfact> 0.44230742E+00</totfact>
</mgrwt>
</event>
<event>
 5    1  0.2368666E-004  0.6464683E+03  0.7818608E-02  0.9813429E-01
         13   -1    0    0    0    0  0.00000000000E+00  0.00000000000E+00  0.10000000000E+04  0.10000000000E+04  0.00000000000E+00 0. -1.
          2   -1    0    0  501    0 -0.00000000000E+00 -0.00000000000E+00 -0.10448030806E+03  0.10448030806E+03  0.00000000000E+00 0. -1.
    9000006    2    1    2  501    0  0.00000000000E+00  0.00000000000E+00  0.89551969194E+03  0.11044803081E+04  0.64646827630E+03 0.  0.
         13    1    3    3    0    0 -0.14307942352E+03  0.23930352855E+03  0.16836974586E+03  0.32570887543E+03  0.00000000000E+00 0. -1.
          4    1    3    3  501    0  0.14307942352E+03 -0.23930352855E+03  0.72714994608E+03  0.77877143264E+03  0.00000000000E+00 0. -1.
<mgrwt>
<rscale>  0 0.64646828E+03</rscale>
<asrwt>0</asrwt>
<pdfrwt beam="1">0</pdfrwt>
<pdfrwt beam="2">  1        2 0.37992919E+00 0.64646828E+03</pdfrwt>
<totfact> 0.47311714E+00</totfact>
</mgrwt>
</event>
<event>
 5    1  0.2368666E-004  0.6491238E+03  0.7818608E-02  0.9808425E-01
         13   -1    0    0    0    0  0.00000000000E+00  0.00000000000E+00  0.10000000000E+04  0.10000000000E+04  0.00000000000E+00 0. -1.
          2   -1    0    0  501    0 -0.00000000000E+00 -0.00000000000E+00 -0.10534041253E+03  0.10534041253E+03  0.00000000000E+00 0. -1.
    9000006    2    1    2  501    0  0.00000000000E+00  0.00000000000E+00  0.89465958747E+03  0.11053404125E+04  0.64912375562E+03 0.  0.
         13    1    3    3    0    0 -0.37833813101E+02 -0.28386859546E+03  0.18725161989E+03  0.34216362468E+03  0.00000000000E+00 0. -1.
          4    1    3    3  501    0  0.37833813101E+02  0.28386859546E+03  0.70740796759E+03  0.76317678785E+03  0.00000000000E+00 0. -1.
<mgrwt>
<rscale>  0 0.64912376E+03</rscale>
<asrwt>0</asrwt>
<pdfrwt beam="1">0</pdfrwt>
<pdfrwt beam="2">  1        2 0.38305685E+00 0.64912376E+03</pdfrwt>
<totfact> 0.46060198E+00</totfact>
</mgrwt>
</event>
<event>
 5    1  0.2368666E-004  0.6626222E+03  0.7818608E-02  0.9783379E-01
         13   -1    0    0    0    0  0.00000000000E+00  0.00000000000E+00  0.10000000000E+04  0.10000000000E+04  0.00000000000E+00 0. -1.
          2   -1    0    0  501    0 -0.00000000000E+00 -0.00000000000E+00 -0.10976703205E+03  0.10976703205E+03  0.00000000000E+00 0. -1.
    9000006    2    1    2  501    0  0.00000000000E+00  0.00000000000E+00  0.89023296795E+03  0.11097670320E+04  0.66262216096E+03 0.  0.
         13    1    3    3    0    0  0.95300309145E+02  0.30387612709E+03  0.59810462234E+03  0.67760754778E+03  0.00000000000E+00 0. -1.
          2    1    3    3  501    0 -0.95300309145E+02 -0.30387612709E+03  0.29212834561E+03  0.43215948427E+03  0.00000000000E+00 0. -1.
<mgrwt>
<rscale>  0 0.66262216E+03</rscale>
<asrwt>0</asrwt>
<pdfrwt beam="1">0</pdfrwt>
<pdfrwt beam="2">  1        2 0.39915369E+00 0.66262216E+03</pdfrwt>
<totfact> 0.40080624E+00</totfact>
</mgrwt>
</event>
<event>
 5    1  0.2368666E-004  0.6523093E+03  0.7818608E-02  0.9802456E-01
         13   -1    0    0    0    0  0.00000000000E+00  0.00000000000E+00  0.10000000000E+04  0.10000000000E+04  0.00000000000E+00 0. -1.
          2   -1    0    0  501    0 -0.00000000000E+00 -0.00000000000E+00 -0.10637685891E+03  0.10637685891E+03  0.00000000000E+00 0. -1.
    9000006    2    1    2  501    0  0.00000000000E+00  0.00000000000E+00  0.89362314109E+03  0.11063768589E+04  0.65230930979E+03 0.  0.
         13    1    3    3    0    0 -0.19193673039E+03 -0.26367179652E+03  0.44039008434E+03  0.54800178024E+03  0.00000000000E+00 0. -1.
          2    1    3    3  501    0  0.19193673039E+03  0.26367179652E+03  0.45323305675E+03  0.55837507867E+03  0.00000000000E+00 0. -1.
<mgrwt>
<rscale>  0 0.65230931E+03</rscale>
<asrwt>0</asrwt>
<pdfrwt beam="1">0</pdfrwt>
<pdfrwt beam="2">  1        2 0.38682576E+00 0.65230931E+03</pdfrwt>
<totfact> 0.44592060E+00</totfact>
</mgrwt>
</event>
<event>
 5    1  0.2368666E-004  0.6969638E+03  0.7818608E-02  0.9722439E-01
         13   -1    0    0    0    0  0.00000000000E+00  0.00000000000E+00  0.10000000000E+04  0.10000000000E+04  0.00000000000E+00 0. -1.
          2   -1    0    0  501    0 -0.00000000000E+00 -0.00000000000E+00 -0.12143962785E+03  0.12143962785E+03  0.00000000000E+00 0. -1.
    9000006    2    1    2  501    0  0.00000000000E+00  0.00000000000E+00  0.87856037215E+03  0.11214396279E+04  0.69696378056E+03 0.  0.
         13    1    3    3    0    0  0.33530834894E+03 -0.53972985582E+02  0.31366347835E+03  0.46230893317E+03  0.00000000000E+00 0. -1.
          2    1    3    3  501    0 -0.33530834894E+03  0.53972985582E+02  0.56489689380E+03  0.65913069468E+03  0.00000000000E+00 0. -1.
<mgrwt>
<rscale>  0 0.69696378E+03</rscale>
<asrwt>0</asrwt>
<pdfrwt beam="1">0</pdfrwt>
<pdfrwt beam="2">  1        2 0.44159958E+00 0.69696378E+03</pdfrwt>
<totfact> 0.27497449E+00</totfact>
</mgrwt>
</event>
<event>
 5    1  0.2368666E-004  0.6707017E+03  0.7818608E-02  0.9768691E-01
         13   -1    0    0    0    0  0.00000000000E+00  0.00000000000E+00  0.10000000000E+04  0.10000000000E+04  0.00000000000E+00 0. -1.
          2   -1    0    0  501    0 -0.00000000000E+00 -0.00000000000E+00 -0.11246018757E+03  0.11246018757E+03  0.00000000000E+00 0. -1.
    9000006    2    1    2  501    0  0.00000000000E+00  0.00000000000E+00  0.88753981243E+03  0.11124601876E+04  0.67070168500E+03 0.  0.
         13    1    3    3    0    0 -0.45263579263E+02 -0.20151600659E+03  0.55509344328E+01  0.20661148417E+03  0.00000000000E+00 0. -1.
          2    1    3    3  501    0  0.45263579263E+02  0.20151600659E+03  0.88198887800E+03  0.90584870339E+03  0.00000000000E+00 0. -1.
<mgrwt>
<rscale>  0 0.67070169E+03</rscale>
<asrwt>0</asrwt>
<pdfrwt beam="1">0</pdfrwt>
<pdfrwt beam="2">  1        2 0.40894700E+00 0.67070169E+03</pdfrwt>
<totfact> 0.36794081E+00</totfact>
</mgrwt>
</event>
<event>
 5    1  0.2368666E-004  0.6535993E+03  0.7818608E-02  0.9800049E-01
         13   -1    0    0    0    0  0.00000000000E+00  0.00000000000E+00  0.10000000000E+04  0.10000000000E+04  0.00000000000E+00 0. -1.
          2   -1    0    0  501    0 -0.00000000000E+00 -0.00000000000E+00 -0.10679800743E+03  0.10679800743E+03  0.00000000000E+00 0. -1.
    9000006    2    1    2  501    0  0.00000000000E+00  0.00000000000E+00  0.89320199257E+03  0.11067980074E+04  0.65359928836E+03 0.  0.
         13    1    3    3    0    0  0.20758708365E+02 -0.21955487865E+03  0.85499487313E+03  0.88297876633E+03  0.00000000000E+00 0. -1.
          2    1    3    3  501    0 -0.20758708365E+02  0.21955487865E+03  0.38207119435E+02  0.22381924110E+03  0.00000000000E+00 0. -1.
<mgrwt>
<rscale>  0 0.65359929E+03</rscale>
<asrwt>0</asrwt>
<pdfrwt beam="1">0</pdfrwt>
<pdfrwt beam="2">  1        2 0.38835721E+00 0.65359929E+03</pdfrwt>
<totfact> 0.44007713E+00</totfact>
</mgrwt>
</event>
<event>
 5    1  0.2368666E-004  0.6583280E+03  0.7818608E-02  0.9791277E-01
         13   -1    0    0    0    0  0.00000000000E+00  0.00000000000E+00  0.10000000000E+04  0.10000000000E+04  0.00000000000E+00 0. -1.
          2   -1    0    0  501    0 -0.00000000000E+00 -0.00000000000E+00 -0.10834894256E+03  0.10834894256E+03  0.00000000000E+00 0. -1.
    9000006    2    1    2  501    0  0.00000000000E+00  0.00000000000E+00  0.89165105744E+03  0.11083489426E+04  0.65832801114E+03 0.  0.
         13    1    3    3    0    0  0.80792235529E+02  0.14994439577E+03  0.92004070168E+03  0.93567387475E+03  0.00000000000E+00 0. -1.
          4    1    3    3  501    0 -0.80792235529E+02 -0.14994439577E+03 -0.28389644239E+02  0.17267506781E+03  0.00000000000E+00 0. -1.
<mgrwt>
<rscale>  0 0.65832801E+03</rscale>
<asrwt>0</asrwt>
<pdfrwt beam="1">0</pdfrwt>
<pdfrwt beam="2">  1        2 0.39399699E+00 0.65832801E+03</pdfrwt>
<totfact> 0.41914973E+00</totfact>
</mgrwt>
</event>
<event>
 5    1  0.2368666E-004  0.6532776E+03  0.7818608E-02  0.9800648E-01
         13   -1    0    0    0    0  0.00000000000E+00  0.00000000000E+00  0.10000000000E+04  0.10000000000E+04  0.00000000000E+00 0. -1.
          2   -1    0    0  501    0 -0.00000000000E+00 -0.00000000000E+00 -0.10669289536E+03  0.10669289536E+03  0.00000000000E+00 0. -1.
    9000006    2    1    2  501    0  0.00000000000E+00  0.00000000000E+00  0.89330710464E+03  0.11066928954E+04  0.65327756845E+03 0.  0.
         13    1    3    3    0    0  0.32242830000E+03 -0.40044036486E+02  0.50358417514E+03  0.59930005419E+03  0.00000000000E+00 0. -1.
          2    1    3    3  501    0 -0.32242830000E+03  0.40044036486E+02  0.38972292949E+03  0.50739284117E+03  0.00000000000E+00 0. -1.
<mgrwt>
<rscale>  0 0.65327757E+03</rscale>
<asrwt>0</asrwt>
<pdfrwt beam="1">0</pdfrwt>
<pdfrwt beam="2">  1        2 0.38797498E+00 0.65327757E+03</pdfrwt>
<totfact> 0.44152904E+00</totfact>
</mgrwt>
</event>
<event>
 5    1  0.2368666E-004  0.6565856E+03  0.7818608E-02  0.9794500E-01
         13   -1    0    0    0    0  0.00000000000E+00  0.00000000000E+00  0.10000000000E+04  0.10000000000E+04  0.00000000000E+00 0. -1.
          2   -1    0    0  501    0 -0.00000000000E+00 -0.00000000000E+00 -0.10777617220E+03  0.10777617220E+03  0.00000000000E+00 0. -1.
    9000006    2    1    2  501    0  0.00000000000E+00  0.00000000000E+00  0.89222382780E+03  0.11077761722E+04  0.65658562944E+03 0.  0.
         13    1    3    3    0    0 -0.59801262094E+02  0.95013154495E+02 -0.74382824087E+02  0.13467180475E+03  0.00000000000E+00 0. -1.
          2    1    3    3  501    0  0.59801262094E+02 -0.95013154495E+02  0.96660665189E+03  0.97310436745E+03  0.00000000000E+00 0. -1.
<mgrwt>
<rscale>  0 0.65658563E+03</rscale>
<asrwt>0</asrwt>
<pdfrwt beam="1">0</pdfrwt>
<pdfrwt beam="2">  1        2 0.39191418E+00 0.65658563E+03</pdfrwt>
<totfact> 0.42677129E+00</totfact>
</mgrwt>
</event>
<event>
 5    1  0.2368666E-004  0.6518246E+03  0.7818608E-02  0.9803362E-01
         13   -1    0    0    0    0  0.00000000000E+00  0.00000000000E+00  0.10000000000E+04  0.10000000000E+04  0.00000000000E+00 0. -1.
          2   -1    0    0  501    0 -0.00000000000E+00 -0.00000000000E+00 -0.10621881304E+03  0.10621881304E+03  0.00000000000E+00 0. -1.
    9000006    2    1    2  501    0  0.00000000000E+00  0.00000000000E+00  0.89378118696E+03  0.11062188130E+04  0.65182455627E+03 0.  0.
         13    1    3    3    0    0 -0.23703997070E+03  0.20854592720E+03  0.30965040097E+03  0.44222474183E+03  0.00000000000E+00 0. -1.
          2    1    3    3  501    0  0.23703997070E+03 -0.20854592720E+03  0.58413078599E+03  0.66399407121E+03  0.00000000000E+00 0. -1.
<mgrwt>
<rscale>  0 0.65182456E+03</rscale>
<asrwt>0</asrwt>
<pdfrwt beam="1">0</pdfrwt>
<pdfrwt beam="2">  1        2 0.38625104E+00 0.65182456E+03</pdfrwt>
<totfact> 0.44813157E+00</totfact>
</mgrwt>
</event>
<event>
 5    1  0.2368666E-004  0.6486360E+03  0.7818608E-02  0.9809342E-01
         13   -1    0    0    0    0  0.00000000000E+00  0.00000000000E+00  0.10000000000E+04  0.10000000000E+04  0.00000000000E+00 0. -1.
          2   -1    0    0  501    0 -0.00000000000E+00 -0.00000000000E+00 -0.10518217316E+03  0.10518217316E+03  0.00000000000E+00 0. -1.
    9000006    2    1    2  501    0  0.00000000000E+00  0.00000000000E+00  0.89481782684E+03  0.11051821732E+04  0.64863602478E+03 0.  0.
         13    1    3    3    0    0 -0.68637117217E+02  0.30679796867E+03  0.31167538421E+03  0.44269356508E+03  0.00000000000E+00 0. -1.
          4    1    3    3  501    0  0.68637117217E+02 -0.30679796867E+03  0.58314244263E+03  0.66248860808E+03  0.00000000000E+00 0. -1.
<mgrwt>
<rscale>  0 0.64863602E+03</rscale>
<asrwt>0</asrwt>
<pdfrwt beam="1">0</pdfrwt>
<pdfrwt beam="2">  1        2 0.38248144E+00 0.64863602E+03</pdfrwt>
<totfact> 0.46288164E+00</totfact>
</mgrwt>
</event>
<event>
 5    1  0.2368666E-004  0.6461831E+03  0.7818608E-02  0.9813968E-01
         13   -1    0    0    0    0  0.00000000000E+00  0.00000000000E+00  0.10000000000E+04  0.10000000000E+04  0.00000000000E+00 0. -1.
          2   -1    0    0  501    0 -0.00000000000E+00 -0.00000000000E+00 -0.10438814360E+03  0.10438814360E+03  0.00000000000E+00 0. -1.
    9000006    2    1    2  501    0  0.00000000000E+00  0.00000000000E+00  0.89561185640E+03  0.11043881436E+04  0.64618308119E+03 0.  0.
         13    1    3    3    0    0  0.16712742806E+03  0.25252700009E+03  0.25530175173E+03  0.39608136465E+03  0.00000000000E+00 0. -1.
          4    1    3    3  501    0 -0.16712742806E+03 -0.25252700009E+03  0.64031010466E+03  0.70830677896E+03  0.00000000000E+00 0. -1.
<mgrwt>
<rscale>  0 0.64618308E+03</rscale>
<asrwt>0</asrwt>
<pdfrwt beam="1">0</pdfrwt>
<pdfrwt beam="2">  1        2 0.37959405E+00 0.64618308E+03</pdfrwt>
<totfact> 0.47447638E+00</totfact>
</mgrwt>
</event>
<event>
 5    1  0.2368666E-004  0.6501464E+03  0.7818608E-02  0.9806504E-01
         13   -1    0    0    0    0  0.00000000000E+00  0.00000000000E+00  0.10000000000E+04  0.10000000000E+04  0.00000000000E+00 0. -1.
          2   -1    0    0  501    0 -0.00000000000E+00 -0.00000000000E+00 -0.10567259953E+03  0.10567259953E+03  0.00000000000E+00 0. -1.
    9000006    2    1    2  501    0  0.00000000000E+00  0.00000000000E+00  0.89432740047E+03  0.11056725995E+04  0.65014644359E+03 0.  0.
         13    1    3    3    0    0  0.25756696977E+03  0.19494832635E+03  0.50911518863E+03  0.60294599191E+03  0.00000000000E+00 0. -1.
          2    1    3    3  501    0 -0.25756696977E+03 -0.19494832635E+03  0.38521221184E+03  0.50272660762E+03  0.00000000000E+00 0. -1.
<mgrwt>
<rscale>  0 0.65014644E+03</rscale>
<asrwt>0</asrwt>
<pdfrwt beam="1">0</pdfrwt>
<pdfrwt beam="2">  1        2 0.38426481E+00 0.65014644E+03</pdfrwt>
<totfact> 0.45584947E+00</totfact>
</mgrwt>
</event>
<event>
 5    1  0.2368666E-004  0.6478625E+03  0.7818608E-02  0.9810798E-01
         13   -1    0    0    0    0  0.00000000000E+00  0.00000000000E+00  0.10000000000E+04  0.10000000000E+04  0.00000000000E+00 0. -1.
          2   -1    0    0  501    0 -0.00000000000E+00 -0.00000000000E+00 -0.10493146692E+03  0.10493146692E+03  0.00000000000E+00 0. -1.
    9000006    2    1    2  501    0  0.00000000000E+00  0.00000000000E+00  0.89506853308E+03  0.11049314669E+04  0.64786253763E+03 0.  0.
         13    1    3    3    0    0  0.18834528878E+03  0.11963911505E+03  0.84803342860E+03  0.87689689342E+03  0.00000000000E+00 0. -1.
          4    1    3    3  501    0 -0.18834528878E+03 -0.11963911505E+03  0.47035104480E+02  0.22803457350E+03  0.00000000000E+00 0. -1.
<mgrwt>
<rscale>  0 0.64786254E+03</rscale>
<asrwt>0</asrwt>
<pdfrwt beam="1">0</pdfrwt>
<pdfrwt beam="2">  1        2 0.38156978E+00 0.64786254E+03</pdfrwt>
<totfact> 0.46651442E+00</totfact>
</mgrwt>
</event>
<event>
 5    1  0.2368666E-004  0.6475331E+03  0.7818608E-02  0.9811419E-01
         13   -1    0    0    0    0  0.00000000000E+00  0.00000000000E+00  0.10000000000E+04  0.10000000000E+04  0.00000000000E+00 0. -1.
          2   -1    0    0  501    0 -0.00000000000E+00 -0.00000000000E+00 -0.10482477707E+03  0.10482477707E+03  0.00000000000E+00 0. -1.
    9000006    2    1    2  501    0  0.00000000000E+00  0.00000000000E+00  0.89517522293E+03  0.11048247771E+04  0.64753309434E+03 0.  0.
         13    1    3    3    0    0 -0.60662021629E+02 -0.19898802880E+03  0.24294950208E+02  0.20944297811E+03  0.00000000000E+00 0. -1.
          4    1    3    3  501    0  0.60662021629E+02  0.19898802880E+03  0.87088027272E+03  0.89538179895E+03  0.00000000000E+00 0. -1.
<mgrwt>
<rscale>  0 0.64753309E+03</rscale>
<asrwt>0</asrwt>
<pdfrwt beam="1">0</pdfrwt>
<pdfrwt beam="2">  1        2 0.38118181E+00 0.64753309E+03</pdfrwt>
<totfact> 0.46806821E+00</totfact>
</mgrwt>
</event>
<event>
 5    1  0.2368666E-004  0.6517283E+03  0.7818608E-02  0.9803542E-01
         13   -1    0    0    0    0  0.00000000000E+00  0.00000000000E+00  0.10000000000E+04  0.10000000000E+04  0.00000000000E+00 0. -1.
          2   -1    0    0  501    0 -0.00000000000E+00 -0.00000000000E+00 -0.10618744630E+03  0.10618744630E+03  0.00000000000E+00 0. -1.
    9000006    2    1    2  501    0  0.00000000000E+00  0.00000000000E+00  0.89381255370E+03  0.11061874463E+04  0.65172830628E+03 0.  0.
         13    1    3    3    0    0  0.25511934164E+03 -0.19424719612E+03  0.54543230374E+03  0.63270391941E+03  0.00000000000E+00 0. -1.
          2    1    3    3  501    0 -0.25511934164E+03  0.19424719612E+03  0.34838024995E+03  0.47348352689E+03  0.00000000000E+00 0. -1.
<mgrwt>
<rscale>  0 0.65172831E+03</rscale>
<asrwt>0</asrwt>
<pdfrwt beam="1">0</pdfrwt>
<pdfrwt beam="2">  1        2 0.38613698E+00 0.65172831E+03</pdfrwt>
<totfact> 0.44857155E+00</totfact>
</mgrwt>
</event>
<event>
 5    1  0.2368666E-004  0.6518362E+03  0.7818608E-02  0.9803340E-01
         13   -1    0    0    0    0  0.00000000000E+00  0.00000000000E+00  0.10000000000E+04  0.10000000000E+04  0.00000000000E+00 0. -1.
          2   -1    0    0  501    0 -0.00000000000E+00 -0.00000000000E+00 -0.10622262314E+03  0.10622262314E+03  0.00000000000E+00 0. -1.
    9000006    2    1    2  501    0  0.00000000000E+00  0.00000000000E+00  0.89377737686E+03  0.11062226231E+04  0.65183624673E+03 0.  0.
         13    1    3    3    0    0  0.25968285159E+03  0.19687151141E+03  0.43774208042E+03  0.54572126987E+03  0.00000000000E+00 0. -1.
          2    1    3    3  501    0 -0.25968285159E+03 -0.19687151141E+03  0.45603529645E+03  0.56050135327E+03  0.00000000000E+00 0. -1.
<mgrwt>
<rscale>  0 0.65183625E+03</rscale>
<asrwt>0</asrwt>
<pdfrwt beam="1">0</pdfrwt>
<pdfrwt beam="2">  1        2 0.38626490E+00 0.65183625E+03</pdfrwt>
<totfact> 0.44807815E+00</totfact>
</mgrwt>
</event>
<event>
 5    1  0.2368666E-004  0.6538045E+03  0.7818608E-02  0.9799666E-01
         13   -1    0    0    0    0  0.00000000000E+00  0.00000000000E+00  0.10000000000E+04  0.10000000000E+04  0.00000000000E+00 0. -1.
          2   -1    0    0  501    0 -0.00000000000E+00 -0.00000000000E+00 -0.10686507546E+03  0.10686507546E+03  0.00000000000E+00 0. -1.
    9000006    2    1    2  501    0  0.00000000000E+00  0.00000000000E+00  0.89313492454E+03  0.11068650755E+04  0.65380448288E+03 0.  0.
         13    1    3    3    0    0 -0.20161241934E+03  0.38893542687E+02  0.15926794144E+02  0.20594644465E+03  0.00000000000E+00 0. -1.
          4    1    3    3  501    0  0.20161241934E+03 -0.38893542687E+02  0.87720813040E+03  0.90091863080E+03  0.00000000000E+00 0. -1.
<mgrwt>
<rscale>  0 0.65380448E+03</rscale>
<asrwt>0</asrwt>
<pdfrwt beam="1">0</pdfrwt>
<pdfrwt beam="2">  1        2 0.38860109E+00 0.65380448E+03</pdfrwt>
<totfact> 0.43915298E+00</totfact>
</mgrwt>
</event>
<event>
 5    1  0.2368666E-004  0.6577663E+03  0.7818608E-02  0.9792314E-01
         13   -1    0    0    0    0  0.00000000000E+00  0.00000000000E+00  0.10000000000E+04  0.10000000000E+04  0.00000000000E+00 0. -1.
          2   -1    0    0  501    0 -0.00000000000E+00 -0.00000000000E+00 -0.10816413105E+03  0.10816413105E+03  0.00000000000E+00 0. -1.
    9000006    2    1    2  501    0  0.00000000000E+00  0.00000000000E+00  0.89183586895E+03  0.11081641311E+04  0.65776631429E+03 0.  0.
         13    1    3    3    0    0 -0.20195600871E+03  0.24008002956E+03  0.27965311398E+03  0.42027433209E+03  0.00000000000E+00 0. -1.
          2    1    3    3  501    0  0.20195600871E+03 -0.24008002956E+03  0.61218275496E+03  0.68788979897E+03  0.00000000000E+00 0. -1.
<mgrwt>
<rscale>  0 0.65776631E+03</rscale>
<asrwt>0</asrwt>
<pdfrwt beam="1">0</pdfrwt>
<pdfrwt beam="2">  1        2 0.39332494E+00 0.65776631E+03</pdfrwt>
<totfact> 0.42159537E+00</totfact>
</mgrwt>
</event>
<event>
 5    1  0.2368666E-004  0.6434974E+03  0.7818608E-02  0.9819058E-01
         13   -1    0    0    0    0  0.00000000000E+00  0.00000000000E+00  0.10000000000E+04  0.10000000000E+04  0.00000000000E+00 0. -1.
          2   -1    0    0  501    0 -0.00000000000E+00 -0.00000000000E+00 -0.10352223622E+03  0.10352223622E+03  0.00000000000E+00 0. -1.
    9000006    2    1    2  501    0  0.00000000000E+00  0.00000000000E+00  0.89647776378E+03  0.11035222362E+04  0.64349743191E+03 0.  0.
         13    1    3    3    0    0  0.97226526920E+02 -0.19581581165E+03  0.85305788739E+03  0.88062738367E+03  0.00000000000E+00 0. -1.
          4    1    3    3  501    0 -0.97226526920E+02  0.19581581165E+03  0.43419876395E+02  0.22289485255E+03  0.00000000000E+00 0. -1.
<mgrwt>
<rscale>  0 0.64349743E+03</rscale>
<asrwt>0</asrwt>
<pdfrwt beam="1">0</pdfrwt>
<pdfrwt beam="2">  1        2 0.37644529E+00 0.64349743E+03</pdfrwt>
<totfact> 0.48742161E+00</totfact>
</mgrwt>
</event>
<event>
 5    1  0.2368666E-004  0.6440916E+03  0.7818608E-02  0.9817929E-01
         13   -1    0    0    0    0  0.00000000000E+00  0.00000000000E+00  0.10000000000E+04  0.10000000000E+04  0.00000000000E+00 0. -1.
          2   -1    0    0  501    0 -0.00000000000E+00 -0.00000000000E+00 -0.10371351246E+03  0.10371351246E+03  0.00000000000E+00 0. -1.
    9000006    2    1    2  501    0  0.00000000000E+00  0.00000000000E+00  0.89628648754E+03  0.11037135125E+04  0.64409164707E+03 0.  0.
         13    1    3    3    0    0 -0.73489030625E+02 -0.13487707667E+03  0.93318821456E+03  0.94574452535E+03  0.00000000000E+00 0. -1.
          2    1    3    3  501    0  0.73489030625E+02  0.13487707667E+03 -0.36901727013E+02  0.15796898711E+03  0.00000000000E+00 0. -1.
<mgrwt>
<rscale>  0 0.64409165E+03</rscale>
<asrwt>0</asrwt>
<pdfrwt beam="1">0</pdfrwt>
<pdfrwt beam="2">  1        2 0.37714084E+00 0.64409165E+03</pdfrwt>
<totfact> 0.48453466E+00</totfact>
</mgrwt>
</event>
<event>
 5    1  0.2368666E-004  0.6483906E+03  0.7818608E-02  0.9809804E-01
         13   -1    0    0    0    0  0.00000000000E+00  0.00000000000E+00  0.10000000000E+04  0.10000000000E+04  0.00000000000E+00 0. -1.
          2   -1    0    0  501    0 -0.00000000000E+00 -0.00000000000E+00 -0.10510258049E+03  0.10510258049E+03  0.00000000000E+00 0. -1.
    9000006    2    1    2  501    0  0.00000000000E+00  0.00000000000E+00  0.89489741951E+03  0.11051025805E+04  0.64839056282E+03 0.  0.
         13    1    3    3    0    0 -0.29386828261E+03  0.10417886436E+03  0.29604873666E+03  0.42994959912E+03  0.00000000000E+00 0. -1.
          4    1    3    3  501    0  0.29386828261E+03 -0.10417886436E+03  0.59884868285E+03  0.67515298137E+03  0.00000000000E+00 0. -1.
<mgrwt>
<rscale>  0 0.64839056E+03</rscale>
<asrwt>0</asrwt>
<pdfrwt beam="1">0</pdfrwt>
<pdfrwt beam="2">  1        2 0.38219201E+00 0.64839056E+03</pdfrwt>
<totfact> 0.46403216E+00</totfact>
</mgrwt>
</event>
<event>
 5    1  0.2368666E-004  0.7391259E+03  0.7818608E-02  0.9652566E-01
         13   -1    0    0    0    0  0.00000000000E+00  0.00000000000E+00  0.10000000000E+04  0.10000000000E+04  0.00000000000E+00 0. -1.
          2   -1    0    0  501    0 -0.00000000000E+00 -0.00000000000E+00 -0.13657676331E+03  0.13657676331E+03  0.00000000000E+00 0. -1.
    9000006    2    1    2  501    0  0.00000000000E+00  0.00000000000E+00  0.86342323669E+03  0.11365767633E+04  0.73912587105E+03 0.  0.
         13    1    3    3    0    0  0.25401607992E+03  0.25826464209E+03  0.31921559575E+03  0.48282853145E+03  0.00000000000E+00 0. -1.
          2    1    3    3  501    0 -0.25401607992E+03 -0.25826464209E+03  0.54420764094E+03  0.65374823186E+03  0.00000000000E+00 0. -1.
<mgrwt>
<rscale>  0 0.73912587E+03</rscale>
<asrwt>0</asrwt>
<pdfrwt beam="1">0</pdfrwt>
<pdfrwt beam="2">  1        2 0.49664382E+00 0.73912587E+03</pdfrwt>
<totfact> 0.16407845E+00</totfact>
</mgrwt>
</event>
<event>
 5    1  0.2368666E-004  0.6216534E+03  0.7818608E-02  0.9861473E-01
         13   -1    0    0    0    0  0.00000000000E+00  0.00000000000E+00  0.10000000000E+04  0.10000000000E+04  0.00000000000E+00 0. -1.
          2   -1    0    0  501    0 -0.00000000000E+00 -0.00000000000E+00 -0.96613236343E+02  0.96613236343E+02  0.00000000000E+00 0. -1.
    9000006    2    1    2  501    0  0.00000000000E+00  0.00000000000E+00  0.90338676366E+03  0.10966132363E+04  0.62165339649E+03 0.  0.
         13    1    3    3    0    0 -0.30645057555E+03 -0.46665949266E+02  0.49205723892E+03  0.58155824511E+03  0.00000000000E+00 0. -1.
          4    1    3    3  501    0  0.30645057555E+03  0.46665949266E+02  0.41132952473E+03  0.51505499123E+03  0.00000000000E+00 0. -1.
<mgrwt>
<rscale>  0 0.62165340E+03</rscale>
<asrwt>0</asrwt>
<pdfrwt beam="1">0</pdfrwt>
<pdfrwt beam="2">  1        2 0.35132160E+00 0.62165340E+03</pdfrwt>
<totfact> 0.60293401E+00</totfact>
</mgrwt>
</event>
<event>
 5    1  0.2368666E-004  0.6432618E+03  0.7818608E-02  0.9819506E-01
         13   -1    0    0    0    0  0.00000000000E+00  0.00000000000E+00  0.10000000000E+04  0.10000000000E+04  0.00000000000E+00 0. -1.
          2   -1    0    0  501    0 -0.00000000000E+00 -0.00000000000E+00 -0.10344644950E+03  0.10344644950E+03  0.00000000000E+00 0. -1.
    9000006    2    1    2  501    0  0.00000000000E+00  0.00000000000E+00  0.89655355050E+03  0.11034464495E+04  0.64326184248E+03 0.  0.
         13    1    3    3    0    0 -0.29122273374E+03  0.19698975640E+01  0.21412799066E+03  0.36147663483E+03  0.00000000000E+00 0. -1.
          2    1    3    3  501    0  0.29122273374E+03 -0.19698975640E+01  0.68242555985E+03  0.74196981467E+03  0.00000000000E+00 0. -1.
<mgrwt>
<rscale>  0 0.64326184E+03</rscale>
<asrwt>0</asrwt>
<pdfrwt beam="1">0</pdfrwt>
<pdfrwt beam="2">  1        2 0.37616970E+00 0.64326184E+03</pdfrwt>
<totfact> 0.48856981E+00</totfact>
</mgrwt>
</event>
<event>
 5    1  0.2368666E-004  0.6479653E+03  0.7818608E-02  0.9810605E-01
         13   -1    0    0    0    0  0.00000000000E+00  0.00000000000E+00  0.10000000000E+04  0.10000000000E+04  0.00000000000E+00 0. -1.
          2   -1    0    0  501    0 -0.00000000000E+00 -0.00000000000E+00 -0.10496474441E+03  0.10496474441E+03  0.00000000000E+00 0. -1.
    9000006    2    1    2  501    0  0.00000000000E+00  0.00000000000E+00  0.89503525559E+03  0.11049647444E+04  0.64796525959E+03 0.  0.
         13    1    3    3    0    0 -0.57384928404E+02 -0.20398712902E+03  0.29597917253E+02  0.21396218246E+03  0.00000000000E+00 0. -1.
          2    1    3    3  501    0  0.57384928404E+02  0.20398712902E+03  0.86543733834E+03  0.89100256195E+03  0.00000000000E+00 0. -1.
<mgrwt>
<rscale>  0 0.64796526E+03</rscale>
<asrwt>0</asrwt>
<pdfrwt beam="1">0</pdfrwt>
<pdfrwt beam="2">  1        2 0.38169078E+00 0.64796526E+03</pdfrwt>
<totfact> 0.46603073E+00</totfact>
</mgrwt>
</event>
<event>
 5    1  0.2368666E-004  0.6798622E+03  0.7818608E-02  0.9752304E-01
         13   -1    0    0    0    0  0.00000000000E+00  0.00000000000E+00  0.10000000000E+04  0.10000000000E+04  0.00000000000E+00 0. -1.
          2   -1    0    0  501    0 -0.00000000000E+00 -0.00000000000E+00 -0.11555314579E+03  0.11555314579E+03  0.00000000000E+00 0. -1.
    9000006    2    1    2  501    0  0.00000000000E+00  0.00000000000E+00  0.88444685421E+03  0.11155531458E+04  0.67986217954E+03 0.  0.
         13    1    3    3    0    0  0.24360760961E+03  0.15587295906E+03  0.14910233634E+03  0.32538062869E+03  0.00000000000E+00 0. -1.
          4    1    3    3  501    0 -0.24360760961E+03 -0.15587295906E+03  0.73534451787E+03  0.79017251710E+03  0.00000000000E+00 0. -1.
<mgrwt>
<rscale>  0 0.67986218E+03</rscale>
<asrwt>0</asrwt>
<pdfrwt beam="1">0</pdfrwt>
<pdfrwt beam="2">  1        2 0.42019414E+00 0.67986218E+03</pdfrwt>
<totfact> 0.33318322E+00</totfact>
</mgrwt>
</event>
<event>
 5    1  0.2368666E-004  0.6512150E+03  0.7818608E-02  0.9804502E-01
         13   -1    0    0    0    0  0.00000000000E+00  0.00000000000E+00  0.10000000000E+04  0.10000000000E+04  0.00000000000E+00 0. -1.
          2   -1    0    0  501    0 -0.00000000000E+00 -0.00000000000E+00 -0.10602023106E+03  0.10602023106E+03  0.00000000000E+00 0. -1.
    9000006    2    1    2  501    0  0.00000000000E+00  0.00000000000E+00  0.89397976894E+03  0.11060202311E+04  0.65121496008E+03 0.  0.
         13    1    3    3    0    0 -0.17739381777E+03 -0.10711726600E+03  0.87354595836E+03  0.89778907134E+03  0.00000000000E+00 0. -1.
          4    1    3    3  501    0  0.17739381777E+03  0.10711726600E+03  0.20433810584E+02  0.20823115971E+03  0.00000000000E+00 0. -1.
<mgrwt>
<rscale>  0 0.65121496E+03</rscale>
<asrwt>0</asrwt>
<pdfrwt beam="1">0</pdfrwt>
<pdfrwt beam="2">  1        2 0.38552893E+00 0.65121496E+03</pdfrwt>
<totfact> 0.45092368E+00</totfact>
</mgrwt>
</event>
<event>
 5    1  0.2368666E-004  0.6488470E+03  0.7818608E-02  0.9808945E-01
         13   -1    0    0    0    0  0.00000000000E+00  0.00000000000E+00  0.10000000000E+04  0.10000000000E+04  0.00000000000E+00 0. -1.
          2   -1    0    0  501    0 -0.00000000000E+00 -0.00000000000E+00 -0.10525060694E+03  0.10525060694E+03  0.00000000000E+00 0. -1.
    9000006    2    1    2  501    0  0.00000000000E+00  0.00000000000E+00  0.89474939306E+03  0.11052506069E+04  0.64884699874E+03 0.  0.
         13    1    3    3    0    0 -0.11885224990E+03 -0.22080256266E+03  0.96741762392E+02  0.26877238990E+03  0.00000000000E+00 0. -1.
          4    1    3    3  501    0  0.11885224990E+03  0.22080256266E+03  0.79800763066E+03  0.83647821704E+03  0.00000000000E+00 0. -1.
<mgrwt>
<rscale>  0 0.64884700E+03</rscale>
<asrwt>0</asrwt>
<pdfrwt beam="1">0</pdfrwt>
<pdfrwt beam="2">  1        2 0.38273029E+00 0.64884700E+03</pdfrwt>
<totfact> 0.46189450E+00</totfact>
</mgrwt>
</event>
<event>
 5    1  0.2368666E-004  0.6642462E+03  0.7818608E-02  0.9780408E-01
         13   -1    0    0    0    0  0.00000000000E+00  0.00000000000E+00  0.10000000000E+04  0.10000000000E+04  0.00000000000E+00 0. -1.
          2   -1    0    0  501    0 -0.00000000000E+00 -0.00000000000E+00 -0.11030575644E+03  0.11030575644E+03  0.00000000000E+00 0. -1.
    9000006    2    1    2  501    0  0.00000000000E+00  0.00000000000E+00  0.88969424356E+03  0.11103057564E+04  0.66424620868E+03 0.  0.
         13    1    3    3    0    0 -0.18062857762E+03 -0.13620187450E+03  0.38393916559E+02  0.22945964024E+03  0.00000000000E+00 0. -1.
          4    1    3    3  501    0  0.18062857762E+03  0.13620187450E+03  0.85130032700E+03  0.88084611620E+03  0.00000000000E+00 0. -1.
<mgrwt>
<rscale>  0 0.66424621E+03</rscale>
<asrwt>0</asrwt>
<pdfrwt beam="1">0</pdfrwt>
<pdfrwt beam="2">  1        2 0.40111269E+00 0.66424621E+03</pdfrwt>
<totfact> 0.39402906E+00</totfact>
</mgrwt>
</event>
<event>
 5    1  0.2368666E-004  0.6488536E+03  0.7818608E-02  0.9808933E-01
         13   -1    0    0    0    0  0.00000000000E+00  0.00000000000E+00  0.10000000000E+04  0.10000000000E+04  0.00000000000E+00 0. -1.
          2   -1    0    0  501    0 -0.00000000000E+00 -0.00000000000E+00 -0.10525274284E+03  0.10525274284E+03  0.00000000000E+00 0. -1.
    9000006    2    1    2  501    0  0.00000000000E+00  0.00000000000E+00  0.89474725716E+03  0.11052527428E+04  0.64885358239E+03 0.  0.
         13    1    3    3    0    0  0.25821985188E+03 -0.19568438126E+03  0.41872450691E+03  0.52943373680E+03  0.00000000000E+00 0. -1.
          2    1    3    3  501    0 -0.25821985188E+03  0.19568438126E+03  0.47602275024E+03  0.57581900604E+03  0.00000000000E+00 0. -1.
<mgrwt>
<rscale>  0 0.64885358E+03</rscale>
<asrwt>0</asrwt>
<pdfrwt beam="1">0</pdfrwt>
<pdfrwt beam="2">  1        2 0.38273805E+00 0.64885358E+03</pdfrwt>
<totfact> 0.46186372E+00</totfact>
</mgrwt>
</event>
<event>
 5    1  0.2368666E-004  0.6561367E+03  0.7818608E-02  0.9795332E-01
         13   -1    0    0    0    0  0.00000000000E+00  0.00000000000E+00  0.10000000000E+04  0.10000000000E+04  0.00000000000E+00 0. -1.
          2   -1    0    0  501    0 -0.00000000000E+00 -0.00000000000E+00 -0.10762882731E+03  0.10762882731E+03  0.00000000000E+00 0. -1.
    9000006    2    1    2  501    0  0.00000000000E+00  0.00000000000E+00  0.89237117269E+03  0.11076288273E+04  0.65613665440E+03 0.  0.
         13    1    3    3    0    0  0.22132382372E+03 -0.10819388480E+03  0.80451560578E+02  0.25915749121E+03  0.00000000000E+00 0. -1.
          4    1    3    3  501    0 -0.22132382372E+03  0.10819388480E+03  0.81191961211E+03  0.84847133610E+03  0.00000000000E+00 0. -1.
<mgrwt>
<rscale>  0 0.65613665E+03</rscale>
<asrwt>0</asrwt>
<pdfrwt beam="1">0</pdfrwt>
<pdfrwt beam="2">  1        2 0.39137838E+00 0.65613665E+03</pdfrwt>
<totfact> 0.42875206E+00</totfact>
</mgrwt>
</event>
<event>
 5    1  0.2368666E-004  0.6396707E+03  0.7818608E-02  0.9826357E-01
         13   -1    0    0    0    0  0.00000000000E+00  0.00000000000E+00  0.10000000000E+04  0.10000000000E+04  0.00000000000E+00 0. -1.
          2   -1    0    0  501    0 -0.00000000000E+00 -0.00000000000E+00 -0.10229463833E+03  0.10229463833E+03  0.00000000000E+00 0. -1.
    9000006    2    1    2  501    0  0.00000000000E+00  0.00000000000E+00  0.89770536167E+03  0.11022946383E+04  0.63967066005E+03 0.  0.
         13    1    3    3    0    0 -0.23211854729E+03  0.52016830315E+02  0.80430095466E+02  0.25110509929E+03  0.00000000000E+00 0. -1.
          4    1    3    3  501    0  0.23211854729E+03 -0.52016830315E+02  0.81727526620E+03  0.85118953904E+03  0.00000000000E+00 0. -1.
<mgrwt>
<rscale>  0 0.63967066E+03</rscale>
<asrwt>0</asrwt>
<pdfrwt beam="1">0</pdfrwt>
<pdfrwt beam="2">  1        2 0.37198129E+00 0.63967066E+03</pdfrwt>
<totfact> 0.50632835E+00</totfact>
</mgrwt>
</event>
<event>
 5    1  0.2368666E-004  0.6380760E+03  0.7818608E-02  0.9829415E-01
         13   -1    0    0    0    0  0.00000000000E+00  0.00000000000E+00  0.10000000000E+04  0.10000000000E+04  0.00000000000E+00 0. -1.
          2   -1    0    0  501    0 -0.00000000000E+00 -0.00000000000E+00 -0.10178524827E+03  0.10178524827E+03  0.00000000000E+00 0. -1.
    9000006    2    1    2  501    0  0.00000000000E+00  0.00000000000E+00  0.89821475173E+03  0.11017852483E+04  0.63807600887E+03 0.  0.
         13    1    3    3    0    0 -0.24935029322E+02  0.31367419675E+03  0.35819553832E+03  0.47677804172E+03  0.00000000000E+00 0. -1.
          2    1    3    3  501    0  0.24935029322E+02 -0.31367419675E+03  0.54001921341E+03  0.62500720655E+03  0.00000000000E+00 0. -1.
<mgrwt>
<rscale>  0 0.63807601E+03</rscale>
<asrwt>0</asrwt>
<pdfrwt beam="1">0</pdfrwt>
<pdfrwt beam="2">  1        2 0.37012896E+00 0.63807601E+03</pdfrwt>
<totfact> 0.51436891E+00</totfact>
</mgrwt>
</event>
<event>
 5    1  0.2368666E-004  0.6377493E+03  0.7818608E-02  0.9830042E-01
         13   -1    0    0    0    0  0.00000000000E+00  0.00000000000E+00  0.10000000000E+04  0.10000000000E+04  0.00000000000E+00 0. -1.
          2   -1    0    0  501    0 -0.00000000000E+00 -0.00000000000E+00 -0.10168104174E+03  0.10168104174E+03  0.00000000000E+00 0. -1.
    9000006    2    1    2  501    0  0.00000000000E+00  0.00000000000E+00  0.89831895826E+03  0.11016810417E+04  0.63774929790E+03 0.  0.
         13    1    3    3    0    0  0.31669811406E+03  0.18603175545E+02  0.50479490409E+03  0.59620606235E+03  0.00000000000E+00 0. -1.
          2    1    3    3  501    0 -0.31669811406E+03 -0.18603175545E+02  0.39352405417E+03  0.50547497940E+03  0.00000000000E+00 0. -1.
<mgrwt>
<rscale>  0 0.63774930E+03</rscale>
<asrwt>0</asrwt>
<pdfrwt beam="1">0</pdfrwt>
<pdfrwt beam="2">  1        2 0.36975002E+00 0.63774930E+03</pdfrwt>
<totfact> 0.51602812E+00</totfact>
</mgrwt>
</event>
<event>
 5    1  0.2368666E-004  0.6307929E+03  0.7818608E-02  0.9843503E-01
         13   -1    0    0    0    0  0.00000000000E+00  0.00000000000E+00  0.10000000000E+04  0.10000000000E+04  0.00000000000E+00 0. -1.
          2   -1    0    0  501    0 -0.00000000000E+00 -0.00000000000E+00 -0.99474933022E+02  0.99474933022E+02  0.00000000000E+00 0. -1.
    9000006    2    1    2  501    0  0.00000000000E+00  0.00000000000E+00  0.90052506698E+03  0.10994749330E+04  0.63079293916E+03 0.  0.
         13    1    3    3    0    0  0.11986869094E+03  0.29004977962E+03  0.39576596265E+03  0.50510204406E+03  0.00000000000E+00 0. -1.
          4    1    3    3  501    0 -0.11986869094E+03 -0.29004977962E+03  0.50475910433E+03  0.59437288896E+03  0.00000000000E+00 0. -1.
<mgrwt>
<rscale>  0 0.63079294E+03</rscale>
<asrwt>0</asrwt>
<pdfrwt beam="1">0</pdfrwt>
<pdfrwt beam="2">  1        2 0.36172779E+00 0.63079294E+03</pdfrwt>
<totfact> 0.55232910E+00</totfact>
</mgrwt>
</event>
<event>
 5    1  0.2368666E-004  0.5948621E+03  0.7818608E-02  0.9916123E-01
         13   -1    0    0    0    0  0.00000000000E+00  0.00000000000E+00  0.10000000000E+04  0.10000000000E+04  0.00000000000E+00 0. -1.
          2   -1    0    0  501    0 -0.00000000000E+00 -0.00000000000E+00 -0.88465223273E+02  0.88465223273E+02  0.00000000000E+00 0. -1.
    9000006    2    1    2  501    0  0.00000000000E+00  0.00000000000E+00  0.91153477673E+03  0.10884652233E+04  0.59486207905E+03 0.  0.
         13    1    3    3    0    0  0.23008358713E+03 -0.96839855970E+02  0.75165325800E+03  0.79202211777E+03  0.00000000000E+00 0. -1.
          2    1    3    3  501    0 -0.23008358713E+03  0.96839855970E+02  0.15988151872E+03  0.29644310550E+03  0.00000000000E+00 0. -1.
<mgrwt>
<rscale>  0 0.59486208E+03</rscale>
<asrwt>0</asrwt>
<pdfrwt beam="1">0</pdfrwt>
<pdfrwt beam="2">  1        2 0.32169240E+00 0.59486208E+03</pdfrwt>
<totfact> 0.77183102E+00</totfact>
</mgrwt>
</event>
<event>
 5    1  0.2368666E-004  0.6666141E+03  0.7818608E-02  0.9776094E-01
         13   -1    0    0    0    0  0.00000000000E+00  0.00000000000E+00  0.10000000000E+04  0.10000000000E+04  0.00000000000E+00 0. -1.
          2   -1    0    0  501    0 -0.00000000000E+00 -0.00000000000E+00 -0.11109359534E+03  0.11109359534E+03  0.00000000000E+00 0. -1.
    9000006    2    1    2  501    0  0.00000000000E+00  0.00000000000E+00  0.88890640466E+03  0.11110935953E+04  0.66661411729E+03 0.  0.
         13    1    3    3    0    0 -0.21713273775E+03 -0.23058582821E+03  0.61748583197E+03  0.69397781136E+03  0.00000000000E+00 0. -1.
          2    1    3    3  501    0  0.21713273775E+03  0.23058582821E+03  0.27142057269E+03  0.41711578399E+03  0.00000000000E+00 0. -1.
<mgrwt>
<rscale>  0 0.66661412E+03</rscale>
<asrwt>0</asrwt>
<pdfrwt beam="1">0</pdfrwt>
<pdfrwt beam="2">  1        2 0.40397756E+00 0.66661412E+03</pdfrwt>
<totfact> 0.38430305E+00</totfact>
</mgrwt>
</event>
<event>
 5    1  0.2368666E-004  0.6527646E+03  0.7818608E-02  0.9801605E-01
         13   -1    0    0    0    0  0.00000000000E+00  0.00000000000E+00  0.10000000000E+04  0.10000000000E+04  0.00000000000E+00 0. -1.
          2   -1    0    0  501    0 -0.00000000000E+00 -0.00000000000E+00 -0.10652541803E+03  0.10652541803E+03  0.00000000000E+00 0. -1.
    9000006    2    1    2  501    0  0.00000000000E+00  0.00000000000E+00  0.89347458197E+03  0.11065254180E+04  0.65276463760E+03 0.  0.
         13    1    3    3    0    0  0.16464251956E+02 -0.61615148248E+02  0.98933448400E+03  0.99138802661E+03  0.00000000000E+00 0. -1.
          2    1    3    3  501    0 -0.16464251956E+02  0.61615148248E+02 -0.95859902021E+02  0.11513739141E+03  0.00000000000E+00 0. -1.
<mgrwt>
<rscale>  0 0.65276464E+03</rscale>
<asrwt>0</asrwt>
<pdfrwt beam="1">0</pdfrwt>
<pdfrwt beam="2">  1        2 0.38736597E+00 0.65276464E+03</pdfrwt>
<totfact> 0.44385136E+00</totfact>
</mgrwt>
</event>
<event>
 5    1  0.2368666E-004  0.6475490E+03  0.7818608E-02  0.9811389E-01
         13   -1    0    0    0    0  0.00000000000E+00  0.00000000000E+00  0.10000000000E+04  0.10000000000E+04  0.00000000000E+00 0. -1.
          2   -1    0    0  501    0 -0.00000000000E+00 -0.00000000000E+00 -0.10482994196E+03  0.10482994196E+03  0.00000000000E+00 0. -1.
    9000006    2    1    2  501    0  0.00000000000E+00  0.00000000000E+00  0.89517005804E+03  0.11048299420E+04  0.64754904667E+03 0.  0.
         13    1    3    3    0    0 -0.25367361238E+03  0.16884041463E+03  0.63427293428E+03  0.70367573668E+03  0.00000000000E+00 0. -1.
          2    1    3    3  501    0  0.25367361238E+03 -0.16884041463E+03  0.26089712376E+03  0.40115420528E+03  0.00000000000E+00 0. -1.
<mgrwt>
<rscale>  0 0.64754905E+03</rscale>
<asrwt>0</asrwt>
<pdfrwt beam="1">0</pdfrwt>
<pdfrwt beam="2">  1        2 0.38120059E+00 0.64754905E+03</pdfrwt>
<totfact> 0.46799289E+00</totfact>
</mgrwt>
</event>
<event>
 5    1  0.2368666E-004  0.6555008E+03  0.7818608E-02  0.9796512E-01
         13   -1    0    0    0    0  0.00000000000E+00  0.00000000000E+00  0.10000000000E+04  0.10000000000E+04  0.00000000000E+00 0. -1.
          2   -1    0    0  501    0 -0.00000000000E+00 -0.00000000000E+00 -0.10742032871E+03  0.10742032871E+03  0.00000000000E+00 0. -1.
    9000006    2    1    2  501    0  0.00000000000E+00  0.00000000000E+00  0.89257967129E+03  0.11074203287E+04  0.65550081222E+03 0.  0.
         13    1    3    3    0    0 -0.14026481823E+03  0.12876696982E+02  0.94625813885E+03  0.95668411396E+03  0.00000000000E+00 0. -1.
          4    1    3    3  501    0  0.14026481823E+03 -0.12876696982E+02 -0.53678467556E+02  0.15073621475E+03  0.00000000000E+00 0. -1.
<mgrwt>
<rscale>  0 0.65550081E+03</rscale>
<asrwt>0</asrwt>
<pdfrwt beam="1">0</pdfrwt>
<pdfrwt beam="2">  1        2 0.39062020E+00 0.65550081E+03</pdfrwt>
<totfact> 0.43156911E+00</totfact>
</mgrwt>
</event>
<event>
 5    1  0.2368666E-004  0.6467880E+03  0.7818608E-02  0.9812825E-01
         13   -1    0    0    0    0  0.00000000000E+00  0.00000000000E+00  0.10000000000E+04  0.10000000000E+04  0.00000000000E+00 0. -1.
          2   -1    0    0  501    0 -0.00000000000E+00 -0.00000000000E+00 -0.10458367185E+03  0.10458367185E+03  0.00000000000E+00 0. -1.
    9000006    2    1    2  501    0  0.00000000000E+00  0.00000000000E+00  0.89541632815E+03  0.11045836719E+04  0.64678797717E+03 0.  0.
         13    1    3    3    0    0 -0.45671436065E+02  0.96737655271E+02  0.96890756338E+03  0.97479532231E+03  0.00000000000E+00 0. -1.
          4    1    3    3  501    0  0.45671436065E+02 -0.96737655271E+02 -0.73491235236E+02  0.12978834954E+03  0.00000000000E+00 0. -1.
<mgrwt>
<rscale>  0 0.64678798E+03</rscale>
<asrwt>0</asrwt>
<pdfrwt beam="1">0</pdfrwt>
<pdfrwt beam="2">  1        2 0.38030506E+00 0.64678798E+03</pdfrwt>
<totfact> 0.47159694E+00</totfact>
</mgrwt>
</event>
<event>
 5    1  0.2368666E-004  0.6558499E+03  0.7818608E-02  0.9795864E-01
         13   -1    0    0    0    0  0.00000000000E+00  0.00000000000E+00  0.10000000000E+04  0.10000000000E+04  0.00000000000E+00 0. -1.
          2   -1    0    0  501    0 -0.00000000000E+00 -0.00000000000E+00 -0.10753476617E+03  0.10753476617E+03  0.00000000000E+00 0. -1.
    9000006    2    1    2  501    0  0.00000000000E+00  0.00000000000E+00  0.89246523383E+03  0.11075347662E+04  0.65584987969E+03 0.  0.
         13    1    3    3    0    0 -0.17368089822E+03  0.10101580987E+03  0.85834474249E+01  0.20110426107E+03  0.00000000000E+00 0. -1.
          2    1    3    3  501    0  0.17368089822E+03 -0.10101580987E+03  0.88388178640E+03  0.90643050511E+03  0.00000000000E+00 0. -1.
<mgrwt>
<rscale>  0 0.65584988E+03</rscale>
<asrwt>0</asrwt>
<pdfrwt beam="1">0</pdfrwt>
<pdfrwt beam="2">  1        2 0.39103634E+00 0.65584988E+03</pdfrwt>
<totfact> 0.43002087E+00</totfact>
</mgrwt>
</event>
<event>
 5    1  0.2368666E-004  0.6706363E+03  0.7818608E-02  0.9768809E-01
         13   -1    0    0    0    0  0.00000000000E+00  0.00000000000E+00  0.10000000000E+04  0.10000000000E+04  0.00000000000E+00 0. -1.
          2   -1    0    0  501    0 -0.00000000000E+00 -0.00000000000E+00 -0.11243826835E+03  0.11243826835E+03  0.00000000000E+00 0. -1.
    9000006    2    1    2  501    0  0.00000000000E+00  0.00000000000E+00  0.88756173165E+03  0.11124382684E+04  0.67063631979E+03 0.  0.
         13    1    3    3    0    0  0.25915311423E+02  0.24885067586E+03  0.81410148500E+03  0.85168039200E+03  0.00000000000E+00 0. -1.
          2    1    3    3  501    0 -0.25915311423E+02 -0.24885067586E+03  0.73460246650E+02  0.26075787636E+03  0.00000000000E+00 0. -1.
<mgrwt>
<rscale>  0 0.67063632E+03</rscale>
<asrwt>0</asrwt>
<pdfrwt beam="1">0</pdfrwt>
<pdfrwt beam="2">  1        2 0.40886729E+00 0.67063632E+03</pdfrwt>
<totfact> 0.36819826E+00</totfact>
</mgrwt>
</event>
<event>
 5    1  0.2368666E-004  0.6577964E+03  0.7818608E-02  0.9792259E-01
         13   -1    0    0    0    0  0.00000000000E+00  0.00000000000E+00  0.10000000000E+04  0.10000000000E+04  0.00000000000E+00 0. -1.
          2   -1    0    0  501    0 -0.00000000000E+00 -0.00000000000E+00 -0.10817401114E+03  0.10817401114E+03  0.00000000000E+00 0. -1.
    9000006    2    1    2  501    0  0.00000000000E+00  0.00000000000E+00  0.89182598886E+03  0.11081740111E+04  0.65779635495E+03 0.  0.
         13    1    3    3    0    0  0.31315962438E+03  0.92688916835E+02  0.51146023399E+03  0.60683750428E+03  0.00000000000E+00 0. -1.
          2    1    3    3  501    0 -0.31315962438E+03 -0.92688916835E+02  0.38036575486E+03  0.50133650686E+03  0.00000000000E+00 0. -1.
<mgrwt>
<rscale>  0 0.65779635E+03</rscale>
<asrwt>0</asrwt>
<pdfrwt beam="1">0</pdfrwt>
<pdfrwt beam="2">  1        2 0.39336087E+00 0.65779635E+03</pdfrwt>
<totfact> 0.42146430E+00</totfact>
</mgrwt>
</event>
<event>
 5    1  0.2368666E-004  0.6452510E+03  0.7818608E-02  0.9815731E-01
         13   -1    0    0    0    0  0.00000000000E+00  0.00000000000E+00  0.10000000000E+04  0.10000000000E+04  0.00000000000E+00 0. -1.
          2   -1    0    0  501    0 -0.00000000000E+00 -0.00000000000E+00 -0.10408719867E+03  0.10408719867E+03  0.00000000000E+00 0. -1.
    9000006    2    1    2  501    0  0.00000000000E+00  0.00000000000E+00  0.89591280133E+03  0.11040871987E+04  0.64525095480E+03 0.  0.
         13    1    3    3    0    0 -0.22238959340E+03  0.11631180665E+03  0.10105644300E+03  0.27055123783E+03  0.00000000000E+00 0. -1.
          2    1    3    3  501    0  0.22238959340E+03 -0.11631180665E+03  0.79485635833E+03  0.83353596083E+03  0.00000000000E+00 0. -1.
<mgrwt>
<rscale>  0 0.64525095E+03</rscale>
<asrwt>0</asrwt>
<pdfrwt beam="1">0</pdfrwt>
<pdfrwt beam="2">  1        2 0.37849970E+00 0.64525095E+03</pdfrwt>
<totfact> 0.47893951E+00</totfact>
</mgrwt>
</event>
<event>
 5    1  0.2368666E-004  0.6526392E+03  0.7818608E-02  0.9801839E-01
         13   -1    0    0    0    0  0.00000000000E+00  0.00000000000E+00  0.10000000000E+04  0.10000000000E+04  0.00000000000E+00 0. -1.
          2   -1    0    0  501    0 -0.00000000000E+00 -0.00000000000E+00 -0.10648449431E+03  0.10648449431E+03  0.00000000000E+00 0. -1.
    9000006    2    1    2  501    0  0.00000000000E+00  0.00000000000E+00  0.89351550569E+03  0.11064844943E+04  0.65263923974E+03 0.  0.
         13    1    3    3    0    0  0.31766575598E+03 -0.36533427244E+02  0.33638382821E+03  0.46411238263E+03  0.00000000000E+00 0. -1.
          2    1    3    3  501    0 -0.31766575598E+03  0.36533427244E+02  0.55713167747E+03  0.64237211168E+03  0.00000000000E+00 0. -1.
<mgrwt>
<rscale>  0 0.65263924E+03</rscale>
<asrwt>0</asrwt>
<pdfrwt beam="1">0</pdfrwt>
<pdfrwt beam="2">  1        2 0.38721716E+00 0.65263924E+03</pdfrwt>
<totfact> 0.44442051E+00</totfact>
</mgrwt>
</event>
<event>
 5    1  0.2368666E-004  0.6555618E+03  0.7818608E-02  0.9796398E-01
         13   -1    0    0    0    0  0.00000000000E+00  0.00000000000E+00  0.10000000000E+04  0.10000000000E+04  0.00000000000E+00 0. -1.
          2   -1    0    0  501    0 -0.00000000000E+00 -0.00000000000E+00 -0.10744032976E+03  0.10744032976E+03  0.00000000000E+00 0. -1.
    9000006    2    1    2  501    0  0.00000000000E+00  0.00000000000E+00  0.89255967024E+03  0.11074403298E+04  0.65556183464E+03 0.  0.
         13    1    3    3    0    0  0.26027944971E+03 -0.12633582543E+03  0.18602791349E+03  0.34396586651E+03  0.00000000000E+00 0. -1.
          4    1    3    3  501    0 -0.26027944971E+03  0.12633582543E+03  0.70653175675E+03  0.76347446325E+03  0.00000000000E+00 0. -1.
<mgrwt>
<rscale>  0 0.65556183E+03</rscale>
<asrwt>0</asrwt>
<pdfrwt beam="1">0</pdfrwt>
<pdfrwt beam="2">  1        2 0.39069293E+00 0.65556183E+03</pdfrwt>
<totfact> 0.43129815E+00</totfact>
</mgrwt>
</event>
<event>
 5    1  0.2368666E-004  0.6248068E+03  0.7818608E-02  0.9855236E-01
         13   -1    0    0    0    0  0.00000000000E+00  0.00000000000E+00  0.10000000000E+04  0.10000000000E+04  0.00000000000E+00 0. -1.
          2   -1    0    0  501    0 -0.00000000000E+00 -0.00000000000E+00 -0.97595896365E+02  0.97595896365E+02  0.00000000000E+00 0. -1.
    9000006    2    1    2  501    0  0.00000000000E+00  0.00000000000E+00  0.90240410363E+03  0.10975958964E+04  0.62480683852E+03 0.  0.
         13    1    3    3    0    0  0.12730263698E+03 -0.28100451417E+03  0.36466985691E+03  0.47765427131E+03  0.00000000000E+00 0. -1.
          2    1    3    3  501    0 -0.12730263698E+03  0.28100451417E+03  0.53773424673E+03  0.61994162505E+03  0.00000000000E+00 0. -1.
<mgrwt>
<rscale>  0 0.62480684E+03</rscale>
<asrwt>0</asrwt>
<pdfrwt beam="1">0</pdfrwt>
<pdfrwt beam="2">  1        2 0.35489492E+00 0.62480684E+03</pdfrwt>
<totfact> 0.58509112E+00</totfact>
</mgrwt>
</event>
<event>
 5    1  0.2368666E-004  0.6540009E+03  0.7818608E-02  0.9799301E-01
         13   -1    0    0    0    0  0.00000000000E+00  0.00000000000E+00  0.10000000000E+04  0.10000000000E+04  0.00000000000E+00 0. -1.
          2   -1    0    0  501    0 -0.00000000000E+00 -0.00000000000E+00 -0.10692929397E+03  0.10692929397E+03  0.00000000000E+00 0. -1.
    9000006    2    1    2  501    0  0.00000000000E+00  0.00000000000E+00  0.89307070603E+03  0.11069292940E+04  0.65400089899E+03 0.  0.
         13    1    3    3    0    0  0.69566837595E+02  0.31907052136E+03  0.47504623172E+03  0.57646722783E+03  0.00000000000E+00 0. -1.
          4    1    3    3  501    0 -0.69566837595E+02 -0.31907052136E+03  0.41802447431E+03  0.53046206614E+03  0.00000000000E+00 0. -1.
<mgrwt>
<rscale>  0 0.65400090E+03</rscale>
<asrwt>0</asrwt>
<pdfrwt beam="1">0</pdfrwt>
<pdfrwt beam="2">  1        2 0.38883462E+00 0.65400090E+03</pdfrwt>
<totfact> 0.43826974E+00</totfact>
</mgrwt>
</event>
<event>
 5    1  0.2368666E-004  0.6513649E+03  0.7818608E-02  0.9804222E-01
         13   -1    0    0    0    0  0.00000000000E+00  0.00000000000E+00  0.10000000000E+04  0.10000000000E+04  0.00000000000E+00 0. -1.
          2   -1    0    0  501    0 -0.00000000000E+00 -0.00000000000E+00 -0.10606904269E+03  0.10606904269E+03  0.00000000000E+00 0. -1.
    9000006    2    1    2  501    0  0.00000000000E+00  0.00000000000E+00  0.89393095731E+03  0.11060690427E+04  0.65136485227E+03 0.  0.
         13    1    3    3    0    0  0.87435543368E+02 -0.10225520717E+03  0.95060538037E+03  0.96007900239E+03  0.00000000000E+00 0. -1.
          4    1    3    3  501    0 -0.87435543368E+02  0.10225520717E+03 -0.56674423067E+02  0.14599004030E+03  0.00000000000E+00 0. -1.
<mgrwt>
<rscale>  0 0.65136485E+03</rscale>
<asrwt>0</asrwt>
<pdfrwt beam="1">0</pdfrwt>
<pdfrwt beam="2">  1        2 0.38570642E+00 0.65136485E+03</pdfrwt>
<totfact> 0.45023592E+00</totfact>
</mgrwt>
</event>
<event>
 5    1  0.2368666E-004  0.6335689E+03  0.7818608E-02  0.9838109E-01
         13   -1    0    0    0    0  0.00000000000E+00  0.00000000000E+00  0.10000000000E+04  0.10000000000E+04  0.00000000000E+00 0. -1.
          2   -1    0    0  501    0 -0.00000000000E+00 -0.00000000000E+00 -0.10035240137E+03  0.10035240137E+03  0.00000000000E+00 0. -1.
    9000006    2    1    2  501    0  0.00000000000E+00  0.00000000000E+00  0.89964759863E+03  0.11003524014E+04  0.63356894296E+03 0.  0.
         13    1    3    3    0    0  0.27225555067E+03 -0.10749816449E+03  0.23944392164E+03  0.37816971302E+03  0.00000000000E+00 0. -1.
          2    1    3    3  501    0 -0.27225555067E+03  0.10749816449E+03  0.66020367699E+03  0.72218268835E+03  0.00000000000E+00 0. -1.
<mgrwt>
<rscale>  0 0.63356894E+03</rscale>
<asrwt>0</asrwt>
<pdfrwt beam="1">0</pdfrwt>
<pdfrwt beam="2">  1        2 0.36491859E+00 0.63356894E+03</pdfrwt>
<totfact> 0.53761822E+00</totfact>
</mgrwt>
</event>
<event>
 5    1  0.2368666E-004  0.6334654E+03  0.7818608E-02  0.9838310E-01
         13   -1    0    0    0    0  0.00000000000E+00  0.00000000000E+00  0.10000000000E+04  0.10000000000E+04  0.00000000000E+00 0. -1.
          2   -1    0    0  501    0 -0.00000000000E+00 -0.00000000000E+00 -0.10031960250E+03  0.10031960250E+03  0.00000000000E+00 0. -1.
    9000006    2    1    2  501    0  0.00000000000E+00  0.00000000000E+00  0.89968039750E+03  0.11003196025E+04  0.63346539764E+03 0.  0.
         13    1    3    3    0    0 -0.90593700354E+02 -0.30335268688E+03  0.46627571867E+03  0.56359836497E+03  0.00000000000E+00 0. -1.
          4    1    3    3  501    0  0.90593700354E+02  0.30335268688E+03  0.43340467883E+03  0.53672123753E+03  0.00000000000E+00 0. -1.
<mgrwt>
<rscale>  0 0.63346540E+03</rscale>
<asrwt>0</asrwt>
<pdfrwt beam="1">0</pdfrwt>
<pdfrwt beam="2">  1        2 0.36479932E+00 0.63346540E+03</pdfrwt>
<totfact> 0.53816154E+00</totfact>
</mgrwt>
</event>
<event>
 5    1  0.2368666E-004  0.6435134E+03  0.7818608E-02  0.9819028E-01
         13   -1    0    0    0    0  0.00000000000E+00  0.00000000000E+00  0.10000000000E+04  0.10000000000E+04  0.00000000000E+00 0. -1.
          2   -1    0    0  501    0 -0.00000000000E+00 -0.00000000000E+00 -0.10352737086E+03  0.10352737086E+03  0.00000000000E+00 0. -1.
    9000006    2    1    2  501    0  0.00000000000E+00  0.00000000000E+00  0.89647262914E+03  0.11035273709E+04  0.64351339027E+03 0.  0.
         13    1    3    3    0    0  0.15491552327E+03  0.17040333444E+03  0.83356700853E+03  0.86479481581E+03  0.00000000000E+00 0. -1.
          2    1    3    3  501    0 -0.15491552327E+03 -0.17040333444E+03  0.62905620603E+02  0.23873255505E+03  0.00000000000E+00 0. -1.
<mgrwt>
<rscale>  0 0.64351339E+03</rscale>
<asrwt>0</asrwt>
<pdfrwt beam="1">0</pdfrwt>
<pdfrwt beam="2">  1        2 0.37646396E+00 0.64351339E+03</pdfrwt>
<totfact> 0.48734391E+00</totfact>
</mgrwt>
</event>
<event>
 5    1  0.2368666E-004  0.6523414E+03  0.7818608E-02  0.9802396E-01
         13   -1    0    0    0    0  0.00000000000E+00  0.00000000000E+00  0.10000000000E+04  0.10000000000E+04  0.00000000000E+00 0. -1.
          2   -1    0    0  501    0 -0.00000000000E+00 -0.00000000000E+00 -0.10638731178E+03  0.10638731178E+03  0.00000000000E+00 0. -1.
    9000006    2    1    2  501    0  0.00000000000E+00  0.00000000000E+00  0.89361268822E+03  0.11063873118E+04  0.65234135783E+03 0.  0.
         13    1    3    3    0    0 -0.28201054290E+03  0.15211696733E+02  0.72355466241E+03  0.77671918447E+03  0.00000000000E+00 0. -1.
          2    1    3    3  501    0  0.28201054290E+03 -0.15211696733E+02  0.17005802581E+03  0.32966812732E+03  0.00000000000E+00 0. -1.
<mgrwt>
<rscale>  0 0.65234136E+03</rscale>
<asrwt>0</asrwt>
<pdfrwt beam="1">0</pdfrwt>
<pdfrwt beam="2">  1        2 0.38686377E+00 0.65234136E+03</pdfrwt>
<totfact> 0.44577472E+00</totfact>
</mgrwt>
</event>
<event>
 5    1  0.2368666E-004  0.6419904E+03  0.7818608E-02  0.9821926E-01
         13   -1    0    0    0    0  0.00000000000E+00  0.00000000000E+00  0.10000000000E+04  0.10000000000E+04  0.00000000000E+00 0. -1.
          2   -1    0    0  501    0 -0.00000000000E+00 -0.00000000000E+00 -0.10303790953E+03  0.10303790953E+03  0.00000000000E+00 0. -1.
    9000006    2    1    2  501    0  0.00000000000E+00  0.00000000000E+00  0.89696209047E+03  0.11030379095E+04  0.64199037228E+03 0.  0.
         13    1    3    3    0    0  0.73208653148E+02  0.16405375133E+03  0.90553815721E+03  0.92318605621E+03  0.00000000000E+00 0. -1.
          4    1    3    3  501    0 -0.73208653148E+02 -0.16405375133E+03 -0.85760667322E+01  0.17985185332E+03  0.00000000000E+00 0. -1.
<mgrwt>
<rscale>  0 0.64199037E+03</rscale>
<asrwt>0</asrwt>
<pdfrwt beam="1">0</pdfrwt>
<pdfrwt beam="2">  1        2 0.37468410E+00 0.64199037E+03</pdfrwt>
<totfact> 0.49480227E+00</totfact>
</mgrwt>
</event>
<event>
 5    1  0.2368666E-004  0.6482121E+03  0.7818608E-02  0.9810140E-01
         13   -1    0    0    0    0  0.00000000000E+00  0.00000000000E+00  0.10000000000E+04  0.10000000000E+04  0.00000000000E+00 0. -1.
          2   -1    0    0  501    0 -0.00000000000E+00 -0.00000000000E+00 -0.10504473621E+03  0.10504473621E+03  0.00000000000E+00 0. -1.
    9000006    2    1    2  501    0  0.00000000000E+00  0.00000000000E+00  0.89495526379E+03  0.11050447362E+04  0.64821211407E+03 0.  0.
         13    1    3    3    0    0 -0.26931336159E+02  0.16538453678E+03  0.92042858957E+03  0.93555658854E+03  0.00000000000E+00 0. -1.
          2    1    3    3  501    0  0.26931336159E+02 -0.16538453678E+03 -0.25473325772E+02  0.16948814766E+03  0.00000000000E+00 0. -1.
<mgrwt>
<rscale>  0 0.64821211E+03</rscale>
<asrwt>0</asrwt>
<pdfrwt beam="1">0</pdfrwt>
<pdfrwt beam="2">  1        2 0.38198166E+00 0.64821211E+03</pdfrwt>
<totfact> 0.46486993E+00</totfact>
</mgrwt>
</event>
<event>
 5    1  0.2368666E-004  0.6658698E+03  0.7818608E-02  0.9777448E-01
         13   -1    0    0    0    0  0.00000000000E+00  0.00000000000E+00  0.10000000000E+04  0.10000000000E+04  0.00000000000E+00 0. -1.
          2   -1    0    0  501    0 -0.00000000000E+00 -0.00000000000E+00 -0.11084564177E+03  0.11084564177E+03  0.00000000000E+00 0. -1.
    9000006    2    1    2  501    0  0.00000000000E+00  0.00000000000E+00  0.88915435823E+03  0.11108456418E+04  0.66586978237E+03 0.  0.
         13    1    3    3    0    0  0.35888971129E+02  0.27733164113E+03  0.74599665526E+03  0.79668806134E+03  0.00000000000E+00 0. -1.
          2    1    3    3  501    0 -0.35888971129E+02 -0.27733164113E+03  0.14315770297E+03  0.31415758043E+03  0.00000000000E+00 0. -1.
<mgrwt>
<rscale>  0 0.66586978E+03</rscale>
<asrwt>0</asrwt>
<pdfrwt beam="1">0</pdfrwt>
<pdfrwt beam="2">  1        2 0.40307591E+00 0.66586978E+03</pdfrwt>
<totfact> 0.38734062E+00</totfact>
</mgrwt>
</event>
<event>
 5    1  0.2368666E-004  0.6318108E+03  0.7818608E-02  0.9841522E-01
         13   -1    0    0    0    0  0.00000000000E+00  0.00000000000E+00  0.10000000000E+04  0.10000000000E+04  0.00000000000E+00 0. -1.
          2   -1    0    0  501    0 -0.00000000000E+00 -0.00000000000E+00 -0.99796213576E+02  0.99796213576E+02  0.00000000000E+00 0. -1.
    9000006    2    1    2  501    0  0.00000000000E+00  0.00000000000E+00  0.90020378642E+03  0.10997962136E+04  0.63181077413E+03 0.  0.
         13    1    3    3    0    0  0.67469582220E+02 -0.29479922362E+03  0.29115839314E+03  0.41979987693E+03  0.00000000000E+00 0. -1.
          4    1    3    3  501    0 -0.67469582220E+02  0.29479922362E+03  0.60904539328E+03  0.67999633665E+03  0.00000000000E+00 0. -1.
<mgrwt>
<rscale>  0 0.63181077E+03</rscale>
<asrwt>0</asrwt>
<pdfrwt beam="1">0</pdfrwt>
<pdfrwt beam="2">  1        2 0.36289609E+00 0.63181077E+03</pdfrwt>
<totfact> 0.54690028E+00</totfact>
</mgrwt>
</event>
<event>
 5    1  0.2368666E-004  0.6408580E+03  0.7818608E-02  0.9824086E-01
         13   -1    0    0    0    0  0.00000000000E+00  0.00000000000E+00  0.10000000000E+04  0.10000000000E+04  0.00000000000E+00 0. -1.
          2   -1    0    0  501    0 -0.00000000000E+00 -0.00000000000E+00 -0.10267473933E+03  0.10267473933E+03  0.00000000000E+00 0. -1.
    9000006    2    1    2  501    0  0.00000000000E+00  0.00000000000E+00  0.89732526067E+03  0.11026747393E+04  0.64085798529E+03 0.  0.
         13    1    3    3    0    0  0.85860741352E+02  0.14956015655E+02 -0.81889307810E+02  0.11958933081E+03  0.00000000000E+00 0. -1.
          4    1    3    3  501    0 -0.85860741352E+02 -0.14956015655E+02  0.97921456848E+03  0.98308540852E+03  0.00000000000E+00 0. -1.
<mgrwt>
<rscale>  0 0.64085799E+03</rscale>
<asrwt>0</asrwt>
<pdfrwt beam="1">0</pdfrwt>
<pdfrwt beam="2">  1        2 0.37336348E+00 0.64085799E+03</pdfrwt>
<totfact> 0.50040371E+00</totfact>
</mgrwt>
</event>
<event>
 5    1  0.2368666E-004  0.6584410E+03  0.7818608E-02  0.9791068E-01
         13   -1    0    0    0    0  0.00000000000E+00  0.00000000000E+00  0.10000000000E+04  0.10000000000E+04  0.00000000000E+00 0. -1.
          2   -1    0    0  501    0 -0.00000000000E+00 -0.00000000000E+00 -0.10838612259E+03  0.10838612259E+03  0.00000000000E+00 0. -1.
    9000006    2    1    2  501    0  0.00000000000E+00  0.00000000000E+00  0.89161387741E+03  0.11083861226E+04  0.65844095436E+03 0.  0.
         13    1    3    3    0    0  0.17689627239E+03 -0.22184354213E+03  0.16473662672E+03  0.32809298157E+03  0.00000000000E+00 0. -1.
          2    1    3    3  501    0 -0.17689627239E+03  0.22184354213E+03  0.72687725069E+03  0.78029314103E+03  0.00000000000E+00 0. -1.
<mgrwt>
<rscale>  0 0.65844095E+03</rscale>
<asrwt>0</asrwt>
<pdfrwt beam="1">0</pdfrwt>
<pdfrwt beam="2">  1        2 0.39413219E+00 0.65844095E+03</pdfrwt>
<totfact> 0.41865930E+00</totfact>
</mgrwt>
</event>
<event>
 5    1  0.2368666E-004  0.5940218E+03  0.7818608E-02  0.9917887E-01
         13   -1    0    0    0    0  0.00000000000E+00  0.00000000000E+00  0.10000000000E+04  0.10000000000E+04  0.00000000000E+00 0. -1.
          2   -1    0    0  501    0 -0.00000000000E+00 -0.00000000000E+00 -0.88215463581E+02  0.88215463581E+02  0.00000000000E+00 0. -1.
    9000006    2    1    2  501    0  0.00000000000E+00  0.00000000000E+00  0.91178453642E+03  0.10882154636E+04  0.59402176250E+03 0.  0.
         13    1    3    3    0    0 -0.25138305062E+03  0.14089340694E+03  0.58762778662E+03  0.65448514564E+03  0.00000000000E+00 0. -1.
          2    1    3    3  501    0  0.25138305062E+03 -0.14089340694E+03  0.32415674980E+03  0.43373031794E+03  0.00000000000E+00 0. -1.
<mgrwt>
<rscale>  0 0.59402176E+03</rscale>
<asrwt>0</asrwt>
<pdfrwt beam="1">0</pdfrwt>
<pdfrwt beam="2">  1        2 0.32078418E+00 0.59402176E+03</pdfrwt>
<totfact> 0.77766024E+00</totfact>
</mgrwt>
</event>
<event>
 5    1  0.2368666E-004  0.6530457E+03  0.7818608E-02  0.9801081E-01
         13   -1    0    0    0    0  0.00000000000E+00  0.00000000000E+00  0.10000000000E+04  0.10000000000E+04  0.00000000000E+00 0. -1.
          2   -1    0    0  501    0 -0.00000000000E+00 -0.00000000000E+00 -0.10661716886E+03  0.10661716886E+03  0.00000000000E+00 0. -1.
    9000006    2    1    2  501    0  0.00000000000E+00  0.00000000000E+00  0.89338283114E+03  0.11066171689E+04  0.65304569171E+03 0.  0.
         13    1    3    3    0    0  0.16571778411E+03  0.19655676602E+03  0.78779772029E+03  0.82868703039E+03  0.00000000000E+00 0. -1.
          4    1    3    3  501    0 -0.16571778411E+03 -0.19655676602E+03  0.10558511084E+03  0.27793013847E+03  0.00000000000E+00 0. -1.
<mgrwt>
<rscale>  0 0.65304569E+03</rscale>
<asrwt>0</asrwt>
<pdfrwt beam="1">0</pdfrwt>
<pdfrwt beam="2">  1        2 0.38769961E+00 0.65304569E+03</pdfrwt>
<totfact> 0.44257773E+00</totfact>
</mgrwt>
</event>
<event>
 5    1  0.2368666E-004  0.7308818E+03  0.7818608E-02  0.9665830E-01
         13   -1    0    0    0    0  0.00000000000E+00  0.00000000000E+00  0.10000000000E+04  0.10000000000E+04  0.00000000000E+00 0. -1.
          2   -1    0    0  501    0 -0.00000000000E+00 -0.00000000000E+00 -0.13354706248E+03  0.13354706248E+03  0.00000000000E+00 0. -1.
    9000006    2    1    2  501    0  0.00000000000E+00  0.00000000000E+00  0.86645293752E+03  0.11335470625E+04  0.73088183034E+03 0.  0.
         13    1    3    3    0    0 -0.15085067644E+03 -0.94384306037E+02  0.92826920855E+03  0.94517090907E+03  0.00000000000E+00 0. -1.
          4    1    3    3  501    0  0.15085067644E+03  0.94384306037E+02 -0.61816271036E+02  0.18837615341E+03  0.00000000000E+00 0. -1.
<mgrwt>
<rscale>  0 0.73088183E+03</rscale>
<asrwt>0</asrwt>
<pdfrwt beam="1">0</pdfrwt>
<pdfrwt beam="2">  1        2 0.48562671E+00 0.73088183E+03</pdfrwt>
<totfact> 0.18247302E+00</totfact>
</mgrwt>
</event>
<event>
 5    1  0.2368666E-004  0.6577420E+03  0.7818608E-02  0.9792359E-01
         13   -1    0    0    0    0  0.00000000000E+00  0.00000000000E+00  0.10000000000E+04  0.10000000000E+04  0.00000000000E+00 0. -1.
          2   -1    0    0  501    0 -0.00000000000E+00 -0.00000000000E+00 -0.10815612127E+03  0.10815612127E+03  0.00000000000E+00 0. -1.
    9000006    2    1    2  501    0  0.00000000000E+00  0.00000000000E+00  0.89184387873E+03  0.11081561213E+04  0.65774195934E+03 0.  0.
         13    1    3    3    0    0 -0.29964397142E+03 -0.52381654358E+02  0.23531815505E+03  0.38458416688E+03  0.00000000000E+00 0. -1.
          4    1    3    3  501    0  0.29964397142E+03  0.52381654358E+02  0.65652572369E+03  0.72357195439E+03  0.00000000000E+00 0. -1.
<mgrwt>
<rscale>  0 0.65774196E+03</rscale>
<asrwt>0</asrwt>
<pdfrwt beam="1">0</pdfrwt>
<pdfrwt beam="2">  1        2 0.39329582E+00 0.65774196E+03</pdfrwt>
<totfact> 0.42170166E+00</totfact>
</mgrwt>
</event>
<event>
 5    1  0.2368666E-004  0.6508496E+03  0.7818608E-02  0.9805186E-01
         13   -1    0    0    0    0  0.00000000000E+00  0.00000000000E+00  0.10000000000E+04  0.10000000000E+04  0.00000000000E+00 0. -1.
          2   -1    0    0  501    0 -0.00000000000E+00 -0.00000000000E+00 -0.10590128650E+03  0.10590128650E+03  0.00000000000E+00 0. -1.
    9000006    2    1    2  501    0  0.00000000000E+00  0.00000000000E+00  0.89409871350E+03  0.11059012865E+04  0.65084955712E+03 0.  0.
         13    1    3    3    0    0  0.24260083468E+02 -0.30213665164E+03  0.24581347006E+03  0.39025551883E+03  0.00000000000E+00 0. -1.
          2    1    3    3  501    0 -0.24260083468E+02  0.30213665164E+03  0.64828524344E+03  0.71564576766E+03  0.00000000000E+00 0. -1.
<mgrwt>
<rscale>  0 0.65084956E+03</rscale>
<asrwt>0</asrwt>
<pdfrwt beam="1">0</pdfrwt>
<pdfrwt beam="2">  1        2 0.38509640E+00 0.65084956E+03</pdfrwt>
<totfact> 0.45260362E+00</totfact>
</mgrwt>
</event>
<event>
 5    1  0.2368666E-004  0.6509170E+03  0.7818608E-02  0.9805060E-01
         13   -1    0    0    0    0  0.00000000000E+00  0.00000000000E+00  0.10000000000E+04  0.10000000000E+04  0.00000000000E+00 0. -1.
          2   -1    0    0  501    0 -0.00000000000E+00 -0.00000000000E+00 -0.10592324929E+03  0.10592324929E+03  0.00000000000E+00 0. -1.
    9000006    2    1    2  501    0  0.00000000000E+00  0.00000000000E+00  0.89407675071E+03  0.11059232493E+04  0.65091704322E+03 0.  0.
         13    1    3    3    0    0  0.41415425832E+02  0.21247624117E+03  0.85994599795E+03  0.88677421588E+03  0.00000000000E+00 0. -1.
          4    1    3    3  501    0 -0.41415425832E+02 -0.21247624117E+03  0.34130752762E+02  0.21914903341E+03  0.00000000000E+00 0. -1.
<mgrwt>
<rscale>  0 0.65091704E+03</rscale>
<asrwt>0</asrwt>
<pdfrwt beam="1">0</pdfrwt>
<pdfrwt beam="2">  1        2 0.38517626E+00 0.65091704E+03</pdfrwt>
<totfact> 0.45229300E+00</totfact>
</mgrwt>
</event>
<event>
 5    1  0.2368666E-004  0.6601719E+03  0.7818608E-02  0.9787877E-01
         13   -1    0    0    0    0  0.00000000000E+00  0.00000000000E+00  0.10000000000E+04  0.10000000000E+04  0.00000000000E+00 0. -1.
          2   -1    0    0  501    0 -0.00000000000E+00 -0.00000000000E+00 -0.10895674029E+03  0.10895674029E+03  0.00000000000E+00 0. -1.
    9000006    2    1    2  501    0  0.00000000000E+00  0.00000000000E+00  0.89104325971E+03  0.11089567403E+04  0.66017191788E+03 0.  0.
         13    1    3    3    0    0  0.29695854119E+03 -0.10553234067E+03  0.28063328541E+03  0.42199110298E+03  0.00000000000E+00 0. -1.
          4    1    3    3  501    0 -0.29695854119E+03  0.10553234067E+03  0.61040997430E+03  0.68696563730E+03  0.00000000000E+00 0. -1.
<mgrwt>
<rscale>  0 0.66017192E+03</rscale>
<asrwt>0</asrwt>
<pdfrwt beam="1">0</pdfrwt>
<pdfrwt beam="2">  1        2 0.39620716E+00 0.66017192E+03</pdfrwt>
<totfact> 0.41119710E+00</totfact>
</mgrwt>
</event>
<event>
 5    1  0.2368666E-004  0.6534025E+03  0.7818608E-02  0.9800416E-01
         13   -1    0    0    0    0  0.00000000000E+00  0.00000000000E+00  0.10000000000E+04  0.10000000000E+04  0.00000000000E+00 0. -1.
          2   -1    0    0  501    0 -0.00000000000E+00 -0.00000000000E+00 -0.10673370293E+03  0.10673370293E+03  0.00000000000E+00 0. -1.
    9000006    2    1    2  501    0  0.00000000000E+00  0.00000000000E+00  0.89326629707E+03  0.11067337029E+04  0.65340248830E+03 0.  0.
         13    1    3    3    0    0  0.65448668805E+01  0.28991921299E+03  0.19178665038E+03  0.34767528616E+03  0.00000000000E+00 0. -1.
          2    1    3    3  501    0 -0.65448668805E+01 -0.28991921299E+03  0.70147964670E+03  0.75905841677E+03  0.00000000000E+00 0. -1.
<mgrwt>
<rscale>  0 0.65340249E+03</rscale>
<asrwt>0</asrwt>
<pdfrwt beam="1">0</pdfrwt>
<pdfrwt beam="2">  1        2 0.38812337E+00 0.65340249E+03</pdfrwt>
<totfact> 0.44096485E+00</totfact>
</mgrwt>
</event>
<event>
 5    1  0.2368666E-004  0.6354946E+03  0.7818608E-02  0.9834385E-01
         13   -1    0    0    0    0  0.00000000000E+00  0.00000000000E+00  0.10000000000E+04  0.10000000000E+04  0.00000000000E+00 0. -1.
          2   -1    0    0  501    0 -0.00000000000E+00 -0.00000000000E+00 -0.10096333078E+03  0.10096333078E+03  0.00000000000E+00 0. -1.
    9000006    2    1    2  501    0  0.00000000000E+00  0.00000000000E+00  0.89903666922E+03  0.11009633308E+04  0.63549455003E+03 0.  0.
         13    1    3    3    0    0  0.56334870372E+02 -0.23364586443E+03  0.80959874537E+03  0.84452006258E+03  0.00000000000E+00 0. -1.
          2    1    3    3  501    0 -0.56334870372E+02  0.23364586443E+03  0.89437923848E+02  0.25644326820E+03  0.00000000000E+00 0. -1.
<mgrwt>
<rscale>  0 0.63549455E+03</rscale>
<asrwt>0</asrwt>
<pdfrwt beam="1">0</pdfrwt>
<pdfrwt beam="2">  1        2 0.36714016E+00 0.63549455E+03</pdfrwt>
<totfact> 0.52758978E+00</totfact>
</mgrwt>
</event>
<event>
 5    1  0.2368666E-004  0.6490569E+03  0.7818608E-02  0.9808551E-01
         13   -1    0    0    0    0  0.00000000000E+00  0.00000000000E+00  0.10000000000E+04  0.10000000000E+04  0.00000000000E+00 0. -1.
          2   -1    0    0  501    0 -0.00000000000E+00 -0.00000000000E+00 -0.10531870620E+03  0.10531870620E+03  0.00000000000E+00 0. -1.
    9000006    2    1    2  501    0  0.00000000000E+00  0.00000000000E+00  0.89468129380E+03  0.11053187062E+04  0.64905687331E+03 0.  0.
         13    1    3    3    0    0  0.40146084860E+02 -0.15653381859E+03 -0.31927722560E+02  0.16472378079E+03  0.00000000000E+00 0. -1.
          2    1    3    3  501    0 -0.40146084860E+02  0.15653381859E+03  0.92660901636E+03  0.94059492540E+03  0.00000000000E+00 0. -1.
<mgrwt>
<rscale>  0 0.64905687E+03</rscale>
<asrwt>0</asrwt>
<pdfrwt beam="1">0</pdfrwt>
<pdfrwt beam="2">  1        2 0.38297792E+00 0.64905687E+03</pdfrwt>
<totfact> 0.46091409E+00</totfact>
</mgrwt>
</event>
<event>
 5    1  0.2368666E-004  0.6475904E+03  0.7818608E-02  0.9811311E-01
         13   -1    0    0    0    0  0.00000000000E+00  0.00000000000E+00  0.10000000000E+04  0.10000000000E+04  0.00000000000E+00 0. -1.
          2   -1    0    0  501    0 -0.00000000000E+00 -0.00000000000E+00 -0.10484332787E+03  0.10484332787E+03  0.00000000000E+00 0. -1.
    9000006    2    1    2  501    0  0.00000000000E+00  0.00000000000E+00  0.89515667213E+03  0.11048433279E+04  0.64759038867E+03 0.  0.
         13    1    3    3    0    0 -0.17071063384E+03 -0.18619536986E+03  0.10198588489E+03  0.27241871628E+03  0.00000000000E+00 0. -1.
          4    1    3    3  501    0  0.17071063384E+03  0.18619536986E+03  0.79317078724E+03  0.83242461160E+03  0.00000000000E+00 0. -1.
<mgrwt>
<rscale>  0 0.64759039E+03</rscale>
<asrwt>0</asrwt>
<pdfrwt beam="1">0</pdfrwt>
<pdfrwt beam="2">  1        2 0.38124927E+00 0.64759039E+03</pdfrwt>
<totfact> 0.46779771E+00</totfact>
</mgrwt>
</event>
<event>
 5    1  0.2368666E-004  0.6788770E+03  0.7818608E-02  0.9754053E-01
         13   -1    0    0    0    0  0.00000000000E+00  0.00000000000E+00  0.10000000000E+04  0.10000000000E+04  0.00000000000E+00 0. -1.
          2   -1    0    0  501    0 -0.00000000000E+00 -0.00000000000E+00 -0.11521850308E+03  0.11521850308E+03  0.00000000000E+00 0. -1.
    9000006    2    1    2  501    0  0.00000000000E+00  0.00000000000E+00  0.88478149692E+03  0.11152185031E+04  0.67887702297E+03 0.  0.
         13    1    3    3    0    0  0.10933959134E+03  0.35833369612E+02 -0.82205192684E+02  0.14141029070E+03  0.00000000000E+00 0. -1.
          2    1    3    3  501    0 -0.10933959134E+03 -0.35833369612E+02  0.96698668961E+03  0.97380821237E+03  0.00000000000E+00 0. -1.
<mgrwt>
<rscale>  0 0.67887702E+03</rscale>
<asrwt>0</asrwt>
<pdfrwt beam="1">0</pdfrwt>
<pdfrwt beam="2">  1        2 0.41897726E+00 0.67887702E+03</pdfrwt>
<totfact> 0.33679727E+00</totfact>
</mgrwt>
</event>
<event>
 5    1  0.2368666E-004  0.5537357E+03  0.7818608E-02  0.1000633E+00
         13   -1    0    0    0    0  0.00000000000E+00  0.00000000000E+00  0.10000000000E+04  0.10000000000E+04  0.00000000000E+00 0. -1.
          2   -1    0    0  501    0 -0.00000000000E+00 -0.00000000000E+00 -0.76655813146E+02  0.76655813146E+02  0.00000000000E+00 0. -1.
    9000006    2    1    2  501    0  0.00000000000E+00  0.00000000000E+00  0.92334418685E+03  0.10766558131E+04  0.55373572450E+03 0.  0.
         13    1    3    3    0    0 -0.23537795923E+03 -0.13113519889E+03  0.33783382972E+03  0.43212373295E+03  0.00000000000E+00 0. -1.
          2    1    3    3  501    0  0.23537795923E+03  0.13113519889E+03  0.58551035714E+03  0.64453208019E+03  0.00000000000E+00 0. -1.
<mgrwt>
<rscale>  0 0.55373572E+03</rscale>
<asrwt>0</asrwt>
<pdfrwt beam="1">0</pdfrwt>
<pdfrwt beam="2">  1        2 0.27874900E+00 0.55373572E+03</pdfrwt>
<totfact> 0.10997241E+01</totfact>
</mgrwt>
</event>
<event>
 5    1  0.2368666E-004  0.6648393E+03  0.7818608E-02  0.9779326E-01
         13   -1    0    0    0    0  0.00000000000E+00  0.00000000000E+00  0.10000000000E+04  0.10000000000E+04  0.00000000000E+00 0. -1.
          2   -1    0    0  501    0 -0.00000000000E+00 -0.00000000000E+00 -0.11050282369E+03  0.11050282369E+03  0.00000000000E+00 0. -1.
    9000006    2    1    2  501    0  0.00000000000E+00  0.00000000000E+00  0.88949717631E+03  0.11105028237E+04  0.66483929994E+03 0.  0.
         13    1    3    3    0    0  0.30469360906E+03  0.71856808666E+02  0.25799054705E+03  0.40566084199E+03  0.00000000000E+00 0. -1.
          2    1    3    3  501    0 -0.30469360906E+03 -0.71856808666E+02  0.63150662927E+03  0.70484198170E+03  0.00000000000E+00 0. -1.
<mgrwt>
<rscale>  0 0.66483930E+03</rscale>
<asrwt>0</asrwt>
<pdfrwt beam="1">0</pdfrwt>
<pdfrwt beam="2">  1        2 0.40182930E+00 0.66483930E+03</pdfrwt>
<totfact> 0.39157576E+00</totfact>
</mgrwt>
</event>
<event>
 5    1  0.2368666E-004  0.6388164E+03  0.7818608E-02  0.9827994E-01
         13   -1    0    0    0    0  0.00000000000E+00  0.00000000000E+00  0.10000000000E+04  0.10000000000E+04  0.00000000000E+00 0. -1.
          2   -1    0    0  501    0 -0.00000000000E+00 -0.00000000000E+00 -0.10202160635E+03  0.10202160635E+03  0.00000000000E+00 0. -1.
    9000006    2    1    2  501    0  0.00000000000E+00  0.00000000000E+00  0.89797839365E+03  0.11020216063E+04  0.63881642542E+03 0.  0.
         13    1    3    3    0    0 -0.29670160497E+02 -0.18560269248E+03  0.34828157431E+01  0.18799151014E+03  0.00000000000E+00 0. -1.
          2    1    3    3  501    0  0.29670160497E+02  0.18560269248E+03  0.89449557791E+03  0.91403009621E+03  0.00000000000E+00 0. -1.
<mgrwt>
<rscale>  0 0.63881643E+03</rscale>
<asrwt>0</asrwt>
<pdfrwt beam="1">0</pdfrwt>
<pdfrwt beam="2">  1        2 0.37098844E+00 0.63881643E+03</pdfrwt>
<totfact> 0.51062364E+00</totfact>
</mgrwt>
</event>
<event>
 5    1  0.2368666E-004  0.6457374E+03  0.7818608E-02  0.9814811E-01
         13   -1    0    0    0    0  0.00000000000E+00  0.00000000000E+00  0.10000000000E+04  0.10000000000E+04  0.00000000000E+00 0. -1.
          2   -1    0    0  501    0 -0.00000000000E+00 -0.00000000000E+00 -0.10424420795E+03  0.10424420795E+03  0.00000000000E+00 0. -1.
    9000006    2    1    2  501    0  0.00000000000E+00  0.00000000000E+00  0.89575579205E+03  0.11042442079E+04  0.64573743255E+03 0.  0.
         13    1    3    3    0    0 -0.19222692806E+03 -0.94209051651E+02  0.86119300869E+03  0.88740066233E+03  0.00000000000E+00 0. -1.
          4    1    3    3  501    0  0.19222692806E+03  0.94209051651E+02  0.34562783362E+02  0.21684354562E+03  0.00000000000E+00 0. -1.
<mgrwt>
<rscale>  0 0.64573743E+03</rscale>
<asrwt>0</asrwt>
<pdfrwt beam="1">0</pdfrwt>
<pdfrwt beam="2">  1        2 0.37907065E+00 0.64573743E+03</pdfrwt>
<totfact> 0.47660626E+00</totfact>
</mgrwt>
</event>
<event>
 5    1  0.2368666E-004  0.6555416E+03  0.7818608E-02  0.9796436E-01
         13   -1    0    0    0    0  0.00000000000E+00  0.00000000000E+00  0.10000000000E+04  0.10000000000E+04  0.00000000000E+00 0. -1.
          2   -1    0    0  501    0 -0.00000000000E+00 -0.00000000000E+00 -0.10743369036E+03  0.10743369036E+03  0.00000000000E+00 0. -1.
    9000006    2    1    2  501    0  0.00000000000E+00  0.00000000000E+00  0.89256630964E+03  0.11074336904E+04  0.65554157873E+03 0.  0.
         13    1    3    3    0    0  0.27530997565E+03  0.17784719349E+03  0.44136272105E+03  0.54975108773E+03  0.00000000000E+00 0. -1.
          4    1    3    3  501    0 -0.27530997565E+03 -0.17784719349E+03  0.45120358859E+03  0.55768260263E+03  0.00000000000E+00 0. -1.
<mgrwt>
<rscale>  0 0.65554158E+03</rscale>
<asrwt>0</asrwt>
<pdfrwt beam="1">0</pdfrwt>
<pdfrwt beam="2">  1        2 0.39066879E+00 0.65554158E+03</pdfrwt>
<totfact> 0.43138808E+00</totfact>
</mgrwt>
</event>
<event>
 5    1  0.2368666E-004  0.6536896E+03  0.7818608E-02  0.9799881E-01
         13   -1    0    0    0    0  0.00000000000E+00  0.00000000000E+00  0.10000000000E+04  0.10000000000E+04  0.00000000000E+00 0. -1.
          2   -1    0    0  501    0 -0.00000000000E+00 -0.00000000000E+00 -0.10682751244E+03  0.10682751244E+03  0.00000000000E+00 0. -1.
    9000006    2    1    2  501    0  0.00000000000E+00  0.00000000000E+00  0.89317248756E+03  0.11068275124E+04  0.65368956682E+03 0.  0.
         13    1    3    3    0    0  0.11276433673E+03  0.21919117801E+03  0.83171037697E+02  0.26014993690E+03  0.00000000000E+00 0. -1.
          4    1    3    3  501    0 -0.11276433673E+03 -0.21919117801E+03  0.81000144986E+03  0.84667757554E+03  0.00000000000E+00 0. -1.
<mgrwt>
<rscale>  0 0.65368957E+03</rscale>
<asrwt>0</asrwt>
<pdfrwt beam="1">0</pdfrwt>
<pdfrwt beam="2">  1        2 0.38846450E+00 0.65368957E+03</pdfrwt>
<totfact> 0.43967035E+00</totfact>
</mgrwt>
</event>
<event>
 5    1  0.2368666E-004  0.6408191E+03  0.7818608E-02  0.9824161E-01
         13   -1    0    0    0    0  0.00000000000E+00  0.00000000000E+00  0.10000000000E+04  0.10000000000E+04  0.00000000000E+00 0. -1.
          2   -1    0    0  501    0 -0.00000000000E+00 -0.00000000000E+00 -0.10266227224E+03  0.10266227224E+03  0.00000000000E+00 0. -1.
    9000006    2    1    2  501    0  0.00000000000E+00  0.00000000000E+00  0.89733772776E+03  0.11026622722E+04  0.64081907662E+03 0.  0.
         13    1    3    3    0    0  0.16608649319E+03 -0.21890825965E+03  0.73222938369E+03  0.78209041658E+03  0.00000000000E+00 0. -1.
          2    1    3    3  501    0 -0.16608649319E+03  0.21890825965E+03  0.16510834407E+03  0.32057185566E+03  0.00000000000E+00 0. -1.
<mgrwt>
<rscale>  0 0.64081908E+03</rscale>
<asrwt>0</asrwt>
<pdfrwt beam="1">0</pdfrwt>
<pdfrwt beam="2">  1        2 0.37331814E+00 0.64081908E+03</pdfrwt>
<totfact> 0.50059703E+00</totfact>
</mgrwt>
</event>
<event>
 5    1  0.2368666E-004  0.6485374E+03  0.7818608E-02  0.9809528E-01
         13   -1    0    0    0    0  0.00000000000E+00  0.00000000000E+00  0.10000000000E+04  0.10000000000E+04  0.00000000000E+00 0. -1.
          2   -1    0    0  501    0 -0.00000000000E+00 -0.00000000000E+00 -0.10515018444E+03  0.10515018444E+03  0.00000000000E+00 0. -1.
    9000006    2    1    2  501    0  0.00000000000E+00  0.00000000000E+00  0.89484981556E+03  0.11051501844E+04  0.64853738346E+03 0.  0.
         13    1    3    3    0    0 -0.15212367655E+03  0.36247123470E+02  0.93149565451E+03  0.94453142949E+03  0.00000000000E+00 0. -1.
          2    1    3    3  501    0  0.15212367655E+03 -0.36247123470E+02 -0.36645838945E+02  0.16061875494E+03  0.00000000000E+00 0. -1.
<mgrwt>
<rscale>  0 0.64853738E+03</rscale>
<asrwt>0</asrwt>
<pdfrwt beam="1">0</pdfrwt>
<pdfrwt beam="2">  1        2 0.38236511E+00 0.64853738E+03</pdfrwt>
<totfact> 0.46334373E+00</totfact>
</mgrwt>
</event>
<event>
 5    1  0.2368666E-004  0.6564861E+03  0.7818608E-02  0.9794684E-01
         13   -1    0    0    0    0  0.00000000000E+00  0.00000000000E+00  0.10000000000E+04  0.10000000000E+04  0.00000000000E+00 0. -1.
          2   -1    0    0  501    0 -0.00000000000E+00 -0.00000000000E+00 -0.10774349687E+03  0.10774349687E+03  0.00000000000E+00 0. -1.
    9000006    2    1    2  501    0  0.00000000000E+00  0.00000000000E+00  0.89225650313E+03  0.11077434969E+04  0.65648609085E+03 0.  0.
         13    1    3    3    0    0 -0.28674120522E+03  0.93606426604E+02  0.66458287784E+03  0.72983085944E+03  0.00000000000E+00 0. -1.
          2    1    3    3  501    0  0.28674120522E+03 -0.93606426604E+02  0.22767362529E+03  0.37791263743E+03  0.00000000000E+00 0. -1.
<mgrwt>
<rscale>  0 0.65648609E+03</rscale>
<asrwt>0</asrwt>
<pdfrwt beam="1">0</pdfrwt>
<pdfrwt beam="2">  1        2 0.39179536E+00 0.65648609E+03</pdfrwt>
<totfact> 0.42720984E+00</totfact>
</mgrwt>
</event>
<event>
 5    1  0.2368666E-004  0.6502794E+03  0.7818608E-02  0.9806255E-01
         13   -1    0    0    0    0  0.00000000000E+00  0.00000000000E+00  0.10000000000E+04  0.10000000000E+04  0.00000000000E+00 0. -1.
          2   -1    0    0  501    0 -0.00000000000E+00 -0.00000000000E+00 -0.10571582387E+03  0.10571582387E+03  0.00000000000E+00 0. -1.
    9000006    2    1    2  501    0  0.00000000000E+00  0.00000000000E+00  0.89428417613E+03  0.11057158239E+04  0.65027939801E+03 0.  0.
         13    1    3    3    0    0  0.27465290331E+03  0.15980940940E+03  0.56424020519E+03  0.64756487998E+03  0.00000000000E+00 0. -1.
          2    1    3    3  501    0 -0.27465290331E+03 -0.15980940940E+03  0.33004397094E+03  0.45815094389E+03  0.00000000000E+00 0. -1.
<mgrwt>
<rscale>  0 0.65027940E+03</rscale>
<asrwt>0</asrwt>
<pdfrwt beam="1">0</pdfrwt>
<pdfrwt beam="2">  1        2 0.38442199E+00 0.65027940E+03</pdfrwt>
<totfact> 0.45523436E+00</totfact>
</mgrwt>
</event>
<event>
 5    1  0.2368666E-004  0.6221125E+03  0.7818608E-02  0.9860563E-01
         13   -1    0    0    0    0  0.00000000000E+00  0.00000000000E+00  0.10000000000E+04  0.10000000000E+04  0.00000000000E+00 0. -1.
          2   -1    0    0  501    0 -0.00000000000E+00 -0.00000000000E+00 -0.96756005953E+02  0.96756005953E+02  0.00000000000E+00 0. -1.
    9000006    2    1    2  501    0  0.00000000000E+00  0.00000000000E+00  0.90324399405E+03  0.10967560060E+04  0.62211254915E+03 0.  0.
         13    1    3    3    0    0 -0.30223596466E+03  0.72488297618E+02  0.42968229246E+03  0.53030934753E+03  0.00000000000E+00 0. -1.
          2    1    3    3  501    0  0.30223596466E+03 -0.72488297618E+02  0.47356170159E+03  0.56644665842E+03  0.00000000000E+00 0. -1.
<mgrwt>
<rscale>  0 0.62211255E+03</rscale>
<asrwt>0</asrwt>
<pdfrwt beam="1">0</pdfrwt>
<pdfrwt beam="2">  1        2 0.35184076E+00 0.62211255E+03</pdfrwt>
<totfact> 0.60031062E+00</totfact>
</mgrwt>
</event>
<event>
 5    1  0.2368666E-004  0.6395885E+03  0.7818608E-02  0.9826514E-01
         13   -1    0    0    0    0  0.00000000000E+00  0.00000000000E+00  0.10000000000E+04  0.10000000000E+04  0.00000000000E+00 0. -1.
          2   -1    0    0  501    0 -0.00000000000E+00 -0.00000000000E+00 -0.10226837429E+03  0.10226837429E+03  0.00000000000E+00 0. -1.
    9000006    2    1    2  501    0  0.00000000000E+00  0.00000000000E+00  0.89773162571E+03  0.11022683743E+04  0.63958853739E+03 0.  0.
         13    1    3    3    0    0 -0.85130695086E+02  0.28322988858E+03  0.65854070302E+03  0.72190183721E+03  0.00000000000E+00 0. -1.
          2    1    3    3  501    0  0.85130695086E+02 -0.28322988858E+03  0.23919092269E+03  0.38036653708E+03  0.00000000000E+00 0. -1.
<mgrwt>
<rscale>  0 0.63958854E+03</rscale>
<asrwt>0</asrwt>
<pdfrwt beam="1">0</pdfrwt>
<pdfrwt beam="2">  1        2 0.37188578E+00 0.63958854E+03</pdfrwt>
<totfact> 0.50674009E+00</totfact>
</mgrwt>
</event>
<event>
 5    1  0.2368666E-004  0.6178997E+03  0.7818608E-02  0.9868950E-01
         13   -1    0    0    0    0  0.00000000000E+00  0.00000000000E+00  0.10000000000E+04  0.10000000000E+04  0.00000000000E+00 0. -1.
          2   -1    0    0  501    0 -0.00000000000E+00 -0.00000000000E+00 -0.95449994817E+02  0.95449994817E+02  0.00000000000E+00 0. -1.
    9000006    2    1    2  501    0  0.00000000000E+00  0.00000000000E+00  0.90455000518E+03  0.10954499948E+04  0.61789965145E+03 0.  0.
         13    1    3    3    0    0 -0.13398977715E+03 -0.43659502819E+02  0.93970073473E+03  0.95020886305E+03  0.00000000000E+00 0. -1.
          2    1    3    3  501    0  0.13398977715E+03  0.43659502819E+02 -0.35150729551E+02  0.14524113176E+03  0.00000000000E+00 0. -1.
<mgrwt>
<rscale>  0 0.61789965E+03</rscale>
<asrwt>0</asrwt>
<pdfrwt beam="1">0</pdfrwt>
<pdfrwt beam="2">  1        2 0.34709162E+00 0.61789965E+03</pdfrwt>
<totfact> 0.62470991E+00</totfact>
</mgrwt>
</event>
<event>
 5    1  0.2368666E-004  0.6412579E+03  0.7818608E-02  0.9823323E-01
         13   -1    0    0    0    0  0.00000000000E+00  0.00000000000E+00  0.10000000000E+04  0.10000000000E+04  0.00000000000E+00 0. -1.
          2   -1    0    0  501    0 -0.00000000000E+00 -0.00000000000E+00 -0.10280293146E+03  0.10280293146E+03  0.00000000000E+00 0. -1.
    9000006    2    1    2  501    0  0.00000000000E+00  0.00000000000E+00  0.89719706854E+03  0.11028029315E+04  0.64125792457E+03 0.  0.
         13    1    3    3    0    0 -0.18910326624E+03  0.17643393319E+03  0.12268921887E+03  0.28625447160E+03  0.00000000000E+00 0. -1.
          4    1    3    3  501    0  0.18910326624E+03 -0.17643393319E+03  0.77450784967E+03  0.81654845986E+03  0.00000000000E+00 0. -1.
<mgrwt>
<rscale>  0 0.64125792E+03</rscale>
<asrwt>0</asrwt>
<pdfrwt beam="1">0</pdfrwt>
<pdfrwt beam="2">  1        2 0.37382963E+00 0.64125792E+03</pdfrwt>
<totfact> 0.49841993E+00</totfact>
</mgrwt>
</event>
<event>
 5    1  0.2368666E-004  0.6399813E+03  0.7818608E-02  0.9825762E-01
         13   -1    0    0    0    0  0.00000000000E+00  0.00000000000E+00  0.10000000000E+04  0.10000000000E+04  0.00000000000E+00 0. -1.
          2   -1    0    0  501    0 -0.00000000000E+00 -0.00000000000E+00 -0.10239401960E+03  0.10239401960E+03  0.00000000000E+00 0. -1.
    9000006    2    1    2  501    0  0.00000000000E+00  0.00000000000E+00  0.89760598040E+03  0.11023940196E+04  0.63998131098E+03 0.  0.
         13    1    3    3    0    0  0.20796502552E+03 -0.20258184832E+03  0.68058022128E+03  0.73991776213E+03  0.00000000000E+00 0. -1.
          2    1    3    3  501    0 -0.20796502552E+03  0.20258184832E+03  0.21702575912E+03  0.36247625747E+03  0.00000000000E+00 0. -1.
<mgrwt>
<rscale>  0 0.63998131E+03</rscale>
<asrwt>0</asrwt>
<pdfrwt beam="1">0</pdfrwt>
<pdfrwt beam="2">  1        2 0.37234267E+00 0.63998131E+03</pdfrwt>
<totfact> 0.50477313E+00</totfact>
</mgrwt>
</event>
<event>
 5    1  0.2368666E-004  0.6489234E+03  0.7818608E-02  0.9808801E-01
         13   -1    0    0    0    0  0.00000000000E+00  0.00000000000E+00  0.10000000000E+04  0.10000000000E+04  0.00000000000E+00 0. -1.
          2   -1    0    0  501    0 -0.00000000000E+00 -0.00000000000E+00 -0.10527540360E+03  0.10527540360E+03  0.00000000000E+00 0. -1.
    9000006    2    1    2  501    0  0.00000000000E+00  0.00000000000E+00  0.89472459640E+03  0.11052754036E+04  0.64892342723E+03 0.  0.
         13    1    3    3    0    0 -0.31844978098E+03 -0.61661408514E+02  0.46088259644E+03  0.56358243408E+03  0.00000000000E+00 0. -1.
          4    1    3    3  501    0  0.31844978098E+03  0.61661408514E+02  0.43384199995E+03  0.54169296952E+03  0.00000000000E+00 0. -1.
<mgrwt>
<rscale>  0 0.64892343E+03</rscale>
<asrwt>0</asrwt>
<pdfrwt beam="1">0</pdfrwt>
<pdfrwt beam="2">  1        2 0.38282046E+00 0.64892343E+03</pdfrwt>
<totfact> 0.46153729E+00</totfact>
</mgrwt>
</event>
<event>
 5    1  0.2368666E-004  0.6554008E+03  0.7818608E-02  0.9796697E-01
         13   -1    0    0    0    0  0.00000000000E+00  0.00000000000E+00  0.10000000000E+04  0.10000000000E+04  0.00000000000E+00 0. -1.
          2   -1    0    0  501    0 -0.00000000000E+00 -0.00000000000E+00 -0.10738755094E+03  0.10738755094E+03  0.00000000000E+00 0. -1.
    9000006    2    1    2  501    0  0.00000000000E+00  0.00000000000E+00  0.89261244906E+03  0.11073875509E+04  0.65540079628E+03 0.  0.
         13    1    3    3    0    0  0.28827529421E+03 -0.61473931224E+02  0.20435285102E+03  0.35866666585E+03  0.00000000000E+00 0. -1.
          2    1    3    3  501    0 -0.28827529421E+03  0.61473931224E+02  0.68825959804E+03  0.74872088509E+03  0.00000000000E+00 0. -1.
<mgrwt>
<rscale>  0 0.65540080E+03</rscale>
<asrwt>0</asrwt>
<pdfrwt beam="1">0</pdfrwt>
<pdfrwt beam="2">  1        2 0.39050101E+00 0.65540080E+03</pdfrwt>
<totfact> 0.43201350E+00</totfact>
</mgrwt>
</event>
<event>
 5    1  0.2368666E-004  0.6467743E+03  0.7818608E-02  0.9812851E-01
         13   -1    0    0    0    0  0.00000000000E+00  0.00000000000E+00  0.10000000000E+04  0.10000000000E+04  0.00000000000E+00 0. -1.
          2   -1    0    0  501    0 -0.00000000000E+00 -0.00000000000E+00 -0.10457923938E+03  0.10457923938E+03  0.00000000000E+00 0. -1.
    9000006    2    1    2  501    0  0.00000000000E+00  0.00000000000E+00  0.89542076062E+03  0.11045792394E+04  0.64677427091E+03 0.  0.
         13    1    3    3    0    0  0.23025227423E+03 -0.22648168404E+03  0.47573002473E+03  0.57500358209E+03  0.00000000000E+00 0. -1.
          2    1    3    3  501    0 -0.23025227423E+03  0.22648168404E+03  0.41969073590E+03  0.52957565728E+03  0.00000000000E+00 0. -1.
<mgrwt>
<rscale>  0 0.64677427E+03</rscale>
<asrwt>0</asrwt>
<pdfrwt beam="1">0</pdfrwt>
<pdfrwt beam="2">  1        2 0.38028895E+00 0.64677427E+03</pdfrwt>
<totfact> 0.47166204E+00</totfact>
</mgrwt>
</event>
<event>
 5    1  0.2368666E-004  0.6455680E+03  0.7818608E-02  0.9815131E-01
         13   -1    0    0    0    0  0.00000000000E+00  0.00000000000E+00  0.10000000000E+04  0.10000000000E+04  0.00000000000E+00 0. -1.
          2   -1    0    0  501    0 -0.00000000000E+00 -0.00000000000E+00 -0.10418952106E+03  0.10418952106E+03  0.00000000000E+00 0. -1.
    9000006    2    1    2  501    0  0.00000000000E+00  0.00000000000E+00  0.89581047894E+03  0.11041895211E+04  0.64556803223E+03 0.  0.
         13    1    3    3    0    0  0.15912509567E+03  0.21211870224E+03  0.13310337947E+03  0.29670127997E+03  0.00000000000E+00 0. -1.
          2    1    3    3  501    0 -0.15912509567E+03 -0.21211870224E+03  0.76270709947E+03  0.80748824109E+03  0.00000000000E+00 0. -1.
<mgrwt>
<rscale>  0 0.64556803E+03</rscale>
<asrwt>0</asrwt>
<pdfrwt beam="1">0</pdfrwt>
<pdfrwt beam="2">  1        2 0.37887178E+00 0.64556803E+03</pdfrwt>
<totfact> 0.47741776E+00</totfact>
</mgrwt>
</event>
<event>
 5    1  0.2368666E-004  0.6631849E+03  0.7818608E-02  0.9782348E-01
         13   -1    0    0    0    0  0.00000000000E+00  0.00000000000E+00  0.10000000000E+04  0.10000000000E+04  0.00000000000E+00 0. -1.
          2   -1    0    0  501    0 -0.00000000000E+00 -0.00000000000E+00 -0.10995354601E+03  0.10995354601E+03  0.00000000000E+00 0. -1.
    9000006    2    1    2  501    0  0.00000000000E+00  0.00000000000E+00  0.89004645399E+03  0.11099535460E+04  0.66318487924E+03 0.  0.
         13    1    3    3    0    0  0.25156668123E+03 -0.13805086624E+03  0.72312330064E+03  0.77797888448E+03  0.00000000000E+00 0. -1.
          2    1    3    3  501    0 -0.25156668123E+03  0.13805086624E+03  0.16692315335E+03  0.33197466153E+03  0.00000000000E+00 0. -1.
<mgrwt>
<rscale>  0 0.66318488E+03</rscale>
<asrwt>0</asrwt>
<pdfrwt beam="1">0</pdfrwt>
<pdfrwt beam="2">  1        2 0.39983192E+00 0.66318488E+03</pdfrwt>
<totfact> 0.39844813E+00</totfact>
</mgrwt>
</event>
<event>
 5    1  0.2368666E-004  0.6722487E+03  0.7818608E-02  0.9765904E-01
         13   -1    0    0    0    0  0.00000000000E+00  0.00000000000E+00  0.10000000000E+04  0.10000000000E+04  0.00000000000E+00 0. -1.
          2   -1    0    0  501    0 -0.00000000000E+00 -0.00000000000E+00 -0.11297956265E+03  0.11297956265E+03  0.00000000000E+00 0. -1.
    9000006    2    1    2  501    0  0.00000000000E+00  0.00000000000E+00  0.88702043735E+03  0.11129795626E+04  0.67224865236E+03 0.  0.
         13    1    3    3    0    0 -0.21852212351E+03  0.25105925335E+03  0.36591017814E+03  0.49464424148E+03  0.00000000000E+00 0. -1.
          2    1    3    3  501    0  0.21852212351E+03 -0.25105925335E+03  0.52111025921E+03  0.61833532117E+03  0.00000000000E+00 0. -1.
<mgrwt>
<rscale>  0 0.67224865E+03</rscale>
<asrwt>0</asrwt>
<pdfrwt beam="1">0</pdfrwt>
<pdfrwt beam="2">  1        2 0.41083564E+00 0.67224865E+03</pdfrwt>
<totfact> 0.36188746E+00</totfact>
</mgrwt>
</event>
<event>
 5    1  0.2368666E-004  0.6433566E+03  0.7818608E-02  0.9819325E-01
         13   -1    0    0    0    0  0.00000000000E+00  0.00000000000E+00  0.10000000000E+04  0.10000000000E+04  0.00000000000E+00 0. -1.
          2   -1    0    0  501    0 -0.00000000000E+00 -0.00000000000E+00 -0.10347693443E+03  0.10347693443E+03  0.00000000000E+00 0. -1.
    9000006    2    1    2  501    0  0.00000000000E+00  0.00000000000E+00  0.89652306557E+03  0.11034769344E+04  0.64335661783E+03 0.  0.
         13    1    3    3    0    0  0.26119109514E+02  0.20696570010E+02  0.99703127405E+03  0.99758804991E+03  0.00000000000E+00 0. -1.
          4    1    3    3  501    0 -0.26119109514E+02 -0.20696570010E+02 -0.10050820848E+03  0.10588888451E+03  0.00000000000E+00 0. -1.
<mgrwt>
<rscale>  0 0.64335662E+03</rscale>
<asrwt>0</asrwt>
<pdfrwt beam="1">0</pdfrwt>
<pdfrwt beam="2">  1        2 0.37628056E+00 0.64335662E+03</pdfrwt>
<totfact> 0.48810765E+00</totfact>
</mgrwt>
</event>
<event>
 5    1  0.2368666E-004  0.6395041E+03  0.7818608E-02  0.9826676E-01
         13   -1    0    0    0    0  0.00000000000E+00  0.00000000000E+00  0.10000000000E+04  0.10000000000E+04  0.00000000000E+00 0. -1.
          2   -1    0    0  501    0 -0.00000000000E+00 -0.00000000000E+00 -0.10224137098E+03  0.10224137098E+03  0.00000000000E+00 0. -1.
    9000006    2    1    2  501    0  0.00000000000E+00  0.00000000000E+00  0.89775862902E+03  0.11022413710E+04  0.63950409219E+03 0.  0.
         13    1    3    3    0    0  0.36089492145E+02  0.28033133674E+03  0.70657302920E+03  0.76100824923E+03  0.00000000000E+00 0. -1.
          4    1    3    3  501    0 -0.36089492145E+02 -0.28033133674E+03  0.19118559981E+03  0.34123312175E+03  0.00000000000E+00 0. -1.
<mgrwt>
<rscale>  0 0.63950409E+03</rscale>
<asrwt>0</asrwt>
<pdfrwt beam="1">0</pdfrwt>
<pdfrwt beam="2">  1        2 0.37178759E+00 0.63950409E+03</pdfrwt>
<totfact> 0.50716374E+00</totfact>
</mgrwt>
</event>
<event>
 5    1  0.2368666E-004  0.5790218E+03  0.7818608E-02  0.9949911E-01
         13   -1    0    0    0    0  0.00000000000E+00  0.00000000000E+00  0.10000000000E+04  0.10000000000E+04  0.00000000000E+00 0. -1.
          2   -1    0    0  501    0 -0.00000000000E+00 -0.00000000000E+00 -0.83816550172E+02  0.83816550172E+02  0.00000000000E+00 0. -1.
    9000006    2    1    2  501    0  0.00000000000E+00  0.00000000000E+00  0.91618344983E+03  0.10838165502E+04  0.57902176184E+03 0.  0.
         13    1    3    3    0    0  0.79240872362E+02 -0.71934603179E+02  0.96161403166E+03  0.96755116086E+03  0.00000000000E+00 0. -1.
          2    1    3    3  501    0 -0.79240872362E+02  0.71934603179E+02 -0.45430581832E+02  0.11626538932E+03  0.00000000000E+00 0. -1.
<mgrwt>
<rscale>  0 0.57902176E+03</rscale>
<asrwt>0</asrwt>
<pdfrwt beam="1">0</pdfrwt>
<pdfrwt beam="2">  1        2 0.30478810E+00 0.57902176E+03</pdfrwt>
<totfact> 0.88755163E+00</totfact>
</mgrwt>
</event>
<event>
 5    1  0.2368666E-004  0.6405697E+03  0.7818608E-02  0.9824637E-01
         13   -1    0    0    0    0  0.00000000000E+00  0.00000000000E+00  0.10000000000E+04  0.10000000000E+04  0.00000000000E+00 0. -1.
          2   -1    0    0  501    0 -0.00000000000E+00 -0.00000000000E+00 -0.10258239879E+03  0.10258239879E+03  0.00000000000E+00 0. -1.
    9000006    2    1    2  501    0  0.00000000000E+00  0.00000000000E+00  0.89741760121E+03  0.11025823988E+04  0.64056974263E+03 0.  0.
         13    1    3    3    0    0 -0.12819953449E+03 -0.15579402204E+02  0.95319901221E+03  0.96190758147E+03  0.00000000000E+00 0. -1.
          4    1    3    3  501    0  0.12819953449E+03  0.15579402204E+02 -0.55781410998E+02  0.14067481732E+03  0.00000000000E+00 0. -1.
<mgrwt>
<rscale>  0 0.64056974E+03</rscale>
<asrwt>0</asrwt>
<pdfrwt beam="1">0</pdfrwt>
<pdfrwt beam="2">  1        2 0.37302769E+00 0.64056974E+03</pdfrwt>
<totfact> 0.50183717E+00</totfact>
</mgrwt>
</event>
<event>
 5    1  0.2368666E-004  0.6129197E+03  0.7818608E-02  0.9878959E-01
         13   -1    0    0    0    0  0.00000000000E+00  0.00000000000E+00  0.10000000000E+04  0.10000000000E+04  0.00000000000E+00 0. -1.
          2   -1    0    0  501    0 -0.00000000000E+00 -0.00000000000E+00 -0.93917631111E+02  0.93917631111E+02  0.00000000000E+00 0. -1.
    9000006    2    1    2  501    0  0.00000000000E+00  0.00000000000E+00  0.90608236889E+03  0.10939176311E+04  0.61291967210E+03 0.  0.
         13    1    3    3    0    0 -0.16281646535E+03 -0.30293806366E+02 -0.71746563157E+01  0.16576607550E+03  0.00000000000E+00 0. -1.
          4    1    3    3  501    0  0.16281646535E+03  0.30293806366E+02  0.91325702520E+03  0.92815155561E+03  0.00000000000E+00 0. -1.
<mgrwt>
<rscale>  0 0.61291967E+03</rscale>
<asrwt>0</asrwt>
<pdfrwt beam="1">0</pdfrwt>
<pdfrwt beam="2">  1        2 0.34151938E+00 0.61291967E+03</pdfrwt>
<totfact> 0.65451796E+00</totfact>
</mgrwt>
</event>
<event>
 5    1  0.2368666E-004  0.6406851E+03  0.7818608E-02  0.9824417E-01
         13   -1    0    0    0    0  0.00000000000E+00  0.00000000000E+00  0.10000000000E+04  0.10000000000E+04  0.00000000000E+00 0. -1.
          2   -1    0    0  501    0 -0.00000000000E+00 -0.00000000000E+00 -0.10261934783E+03  0.10261934783E+03  0.00000000000E+00 0. -1.
    9000006    2    1    2  501    0  0.00000000000E+00  0.00000000000E+00  0.89738065217E+03  0.11026193478E+04  0.64068509528E+03 0.  0.
         13    1    3    3    0    0 -0.93779259158E+02  0.29789382851E+03  0.57140218885E+03  0.65118026992E+03  0.00000000000E+00 0. -1.
          2    1    3    3  501    0  0.93779259158E+02 -0.29789382851E+03  0.32597846332E+03  0.45143907791E+03  0.00000000000E+00 0. -1.
<mgrwt>
<rscale>  0 0.64068510E+03</rscale>
<asrwt>0</asrwt>
<pdfrwt beam="1">0</pdfrwt>
<pdfrwt beam="2">  1        2 0.37316205E+00 0.64068510E+03</pdfrwt>
<totfact> 0.50126314E+00</totfact>
</mgrwt>
</event>
<event>
 5    1  0.2368666E-004  0.6277654E+03  0.7818608E-02  0.9849419E-01
         13   -1    0    0    0    0  0.00000000000E+00  0.00000000000E+00  0.10000000000E+04  0.10000000000E+04  0.00000000000E+00 0. -1.
          2   -1    0    0  501    0 -0.00000000000E+00 -0.00000000000E+00 -0.98522341778E+02  0.98522341778E+02  0.00000000000E+00 0. -1.
    9000006    2    1    2  501    0  0.00000000000E+00  0.00000000000E+00  0.90147765822E+03  0.10985223418E+04  0.62776537585E+03 0.  0.
         13    1    3    3    0    0 -0.19090813250E+03 -0.18021332681E+03  0.14967794277E+03  0.30220232422E+03  0.00000000000E+00 0. -1.
          4    1    3    3  501    0  0.19090813250E+03  0.18021332681E+03  0.75179971545E+03  0.79632001756E+03  0.00000000000E+00 0. -1.
<mgrwt>
<rscale>  0 0.62776538E+03</rscale>
<asrwt>0</asrwt>
<pdfrwt beam="1">0</pdfrwt>
<pdfrwt beam="2">  1        2 0.35826382E+00 0.62776538E+03</pdfrwt>
<totfact> 0.56871925E+00</totfact>
</mgrwt>
</event>
<event>
 5    1  0.2368666E-004  0.6507418E+03  0.7818608E-02  0.9805388E-01
         13   -1    0    0    0    0  0.00000000000E+00  0.00000000000E+00  0.10000000000E+04  0.10000000000E+04  0.00000000000E+00 0. -1.
          2   -1    0    0  501    0 -0.00000000000E+00 -0.00000000000E+00 -0.10586621819E+03  0.10586621819E+03  0.00000000000E+00 0. -1.
    9000006    2    1    2  501    0  0.00000000000E+00  0.00000000000E+00  0.89413378181E+03  0.11058662182E+04  0.65074178656E+03 0.  0.
         13    1    3    3    0    0  0.19271648921E+03  0.21584682192E+02  0.89106301999E+03  0.91192041830E+03  0.00000000000E+00 0. -1.
          2    1    3    3  501    0 -0.19271648921E+03 -0.21584682192E+02  0.30707618133E+01  0.19394579989E+03  0.00000000000E+00 0. -1.
<mgrwt>
<rscale>  0 0.65074179E+03</rscale>
<asrwt>0</asrwt>
<pdfrwt beam="1">0</pdfrwt>
<pdfrwt beam="2">  1        2 0.38496888E+00 0.65074179E+03</pdfrwt>
<totfact> 0.45309999E+00</totfact>
</mgrwt>
</event>
<event>
 5    1  0.2368666E-004  0.4969855E+03  0.7818608E-02  0.1014569E+00
         13   -1    0    0    0    0  0.00000000000E+00  0.00000000000E+00  0.10000000000E+04  0.10000000000E+04  0.00000000000E+00 0. -1.
          2   -1    0    0  501    0 -0.00000000000E+00 -0.00000000000E+00 -0.61748635404E+02  0.61748635404E+02  0.00000000000E+00 0. -1.
    9000006    2    1    2  501    0  0.00000000000E+00  0.00000000000E+00  0.93825136460E+03  0.10617486354E+04  0.49698545413E+03 0.  0.
         13    1    3    3    0    0  0.19593377704E+03  0.10691440483E+03  0.70245001729E+03  0.73705953744E+03  0.00000000000E+00 0. -1.
          2    1    3    3  501    0 -0.19593377704E+03 -0.10691440483E+03  0.23580134731E+03  0.32468909796E+03  0.00000000000E+00 0. -1.
<mgrwt>
<rscale>  0 0.49698545E+03</rscale>
<asrwt>0</asrwt>
<pdfrwt beam="1">0</pdfrwt>
<pdfrwt beam="2">  1        2 0.22454097E+00 0.49698545E+03</pdfrwt>
<totfact> 0.17236469E+01</totfact>
</mgrwt>
</event>
<event>
 5    1  0.2368666E-004  0.6334005E+03  0.7818608E-02  0.9838435E-01
         13   -1    0    0    0    0  0.00000000000E+00  0.00000000000E+00  0.10000000000E+04  0.10000000000E+04  0.00000000000E+00 0. -1.
          2   -1    0    0  501    0 -0.00000000000E+00 -0.00000000000E+00 -0.10029905138E+03  0.10029905138E+03  0.00000000000E+00 0. -1.
    9000006    2    1    2  501    0  0.00000000000E+00  0.00000000000E+00  0.89970094862E+03  0.11002990514E+04  0.63340050957E+03 0.  0.
         13    1    3    3    0    0  0.11010542323E+03 -0.29293319681E+03  0.53434697511E+03  0.61924127109E+03  0.00000000000E+00 0. -1.
          4    1    3    3  501    0 -0.11010542323E+03  0.29293319681E+03  0.36535397351E+03  0.48105778029E+03  0.00000000000E+00 0. -1.
<mgrwt>
<rscale>  0 0.63340051E+03</rscale>
<asrwt>0</asrwt>
<pdfrwt beam="1">0</pdfrwt>
<pdfrwt beam="2">  1        2 0.36472459E+00 0.63340051E+03</pdfrwt>
<totfact> 0.53850223E+00</totfact>
</mgrwt>
</event>
<event>
 5    1  0.2368666E-004  0.6637675E+03  0.7818608E-02  0.9781283E-01
         13   -1    0    0    0    0  0.00000000000E+00  0.00000000000E+00  0.10000000000E+04  0.10000000000E+04  0.00000000000E+00 0. -1.
          2   -1    0    0  501    0 -0.00000000000E+00 -0.00000000000E+00 -0.11014681427E+03  0.11014681427E+03  0.00000000000E+00 0. -1.
    9000006    2    1    2  501    0  0.00000000000E+00  0.00000000000E+00  0.88985318573E+03  0.11101468143E+04  0.66376747216E+03 0.  0.
         13    1    3    3    0    0 -0.18563917429E+03 -0.25927791886E+03  0.59875847295E+03  0.67837943009E+03  0.00000000000E+00 0. -1.
          2    1    3    3  501    0  0.18563917429E+03  0.25927791886E+03  0.29109471278E+03  0.43176738419E+03  0.00000000000E+00 0. -1.
<mgrwt>
<rscale>  0 0.66376747E+03</rscale>
<asrwt>0</asrwt>
<pdfrwt beam="1">0</pdfrwt>
<pdfrwt beam="2">  1        2 0.40053471E+00 0.66376747E+03</pdfrwt>
<totfact> 0.39601778E+00</totfact>
</mgrwt>
</event>
<event>
 5    1  0.2368666E-004  0.6448534E+03  0.7818608E-02  0.9816485E-01
         13   -1    0    0    0    0  0.00000000000E+00  0.00000000000E+00  0.10000000000E+04  0.10000000000E+04  0.00000000000E+00 0. -1.
          2   -1    0    0  501    0 -0.00000000000E+00 -0.00000000000E+00 -0.10395899163E+03  0.10395899163E+03  0.00000000000E+00 0. -1.
    9000006    2    1    2  501    0  0.00000000000E+00  0.00000000000E+00  0.89604100837E+03  0.11039589916E+04  0.64485344578E+03 0.  0.
         13    1    3    3    0    0  0.23723537918E+03 -0.12032389703E+03  0.13608529313E+03  0.29879369528E+03  0.00000000000E+00 0. -1.
          2    1    3    3  501    0 -0.23723537918E+03  0.12032389703E+03  0.75995571524E+03  0.80516529636E+03  0.00000000000E+00 0. -1.
<mgrwt>
<rscale>  0 0.64485345E+03</rscale>
<asrwt>0</asrwt>
<pdfrwt beam="1">0</pdfrwt>
<pdfrwt beam="2">  1        2 0.37803349E+00 0.64485345E+03</pdfrwt>
<totfact> 0.48085247E+00</totfact>
</mgrwt>
</event>
<event>
 5    1  0.2368666E-004  0.6646895E+03  0.7818608E-02  0.9779599E-01
         13   -1    0    0    0    0  0.00000000000E+00  0.00000000000E+00  0.10000000000E+04  0.10000000000E+04  0.00000000000E+00 0. -1.
          2   -1    0    0  501    0 -0.00000000000E+00 -0.00000000000E+00 -0.11045303949E+03  0.11045303949E+03  0.00000000000E+00 0. -1.
    9000006    2    1    2  501    0  0.00000000000E+00  0.00000000000E+00  0.88954696051E+03  0.11104530395E+04  0.66468951998E+03 0.  0.
         13    1    3    3    0    0  0.21221613205E+03 -0.16682927609E+03  0.12088862668E+03  0.29577314639E+03  0.00000000000E+00 0. -1.
          4    1    3    3  501    0 -0.21221613205E+03  0.16682927609E+03  0.76865833382E+03  0.81467989310E+03  0.00000000000E+00 0. -1.
<mgrwt>
<rscale>  0 0.66468952E+03</rscale>
<asrwt>0</asrwt>
<pdfrwt beam="1">0</pdfrwt>
<pdfrwt beam="2">  1        2 0.40164826E+00 0.66468952E+03</pdfrwt>
<totfact> 0.39219423E+00</totfact>
</mgrwt>
</event>
<event>
 5    1  0.2368666E-004  0.6477194E+03  0.7818608E-02  0.9811068E-01
         13   -1    0    0    0    0  0.00000000000E+00  0.00000000000E+00  0.10000000000E+04  0.10000000000E+04  0.00000000000E+00 0. -1.
          2   -1    0    0  501    0 -0.00000000000E+00 -0.00000000000E+00 -0.10488509724E+03  0.10488509724E+03  0.00000000000E+00 0. -1.
    9000006    2    1    2  501    0  0.00000000000E+00  0.00000000000E+00  0.89511490276E+03  0.11048850972E+04  0.64771937515E+03 0.  0.
         13    1    3    3    0    0  0.12500648871E+03 -0.14608530792E+03  0.89210811017E+03  0.91259214310E+03  0.00000000000E+00 0. -1.
          2    1    3    3  501    0 -0.12500648871E+03  0.14608530792E+03  0.30067925902E+01  0.19229295414E+03  0.00000000000E+00 0. -1.
<mgrwt>
<rscale>  0 0.64771938E+03</rscale>
<asrwt>0</asrwt>
<pdfrwt beam="1">0</pdfrwt>
<pdfrwt beam="2">  1        2 0.38140116E+00 0.64771938E+03</pdfrwt>
<totfact> 0.46718915E+00</totfact>
</mgrwt>
</event>
<event>
 5    1  0.2368666E-004  0.6542063E+03  0.7818608E-02  0.9798918E-01
         13   -1    0    0    0    0  0.00000000000E+00  0.00000000000E+00  0.10000000000E+04  0.10000000000E+04  0.00000000000E+00 0. -1.
          2   -1    0    0  501    0 -0.00000000000E+00 -0.00000000000E+00 -0.10699648516E+03  0.10699648516E+03  0.00000000000E+00 0. -1.
    9000006    2    1    2  501    0  0.00000000000E+00  0.00000000000E+00  0.89300351484E+03  0.11069964852E+04  0.65420634410E+03 0.  0.
         13    1    3    3    0    0 -0.63361000311E+02 -0.26496475290E+03  0.75284370914E+03  0.80062137558E+03  0.00000000000E+00 0. -1.
          2    1    3    3  501    0  0.63361000311E+02  0.26496475290E+03  0.14015980569E+03  0.30637510958E+03  0.00000000000E+00 0. -1.
<mgrwt>
<rscale>  0 0.65420634E+03</rscale>
<asrwt>0</asrwt>
<pdfrwt beam="1">0</pdfrwt>
<pdfrwt beam="2">  1        2 0.38907895E+00 0.65420634E+03</pdfrwt>
<totfact> 0.43734733E+00</totfact>
</mgrwt>
</event>
<event>
 5    1  0.2368666E-004  0.6529810E+03  0.7818608E-02  0.9801202E-01
         13   -1    0    0    0    0  0.00000000000E+00  0.00000000000E+00  0.10000000000E+04  0.10000000000E+04  0.00000000000E+00 0. -1.
          2   -1    0    0  501    0 -0.00000000000E+00 -0.00000000000E+00 -0.10659603276E+03  0.10659603276E+03  0.00000000000E+00 0. -1.
    9000006    2    1    2  501    0  0.00000000000E+00  0.00000000000E+00  0.89340396724E+03  0.11065960328E+04  0.65298095765E+03 0.  0.
         13    1    3    3    0    0 -0.19096026064E+03 -0.11067959486E+03  0.38989743395E+02  0.22413387507E+03  0.00000000000E+00 0. -1.
          4    1    3    3  501    0  0.19096026064E+03  0.11067959486E+03  0.85441422384E+03  0.88246215770E+03  0.00000000000E+00 0. -1.
<mgrwt>
<rscale>  0 0.65298096E+03</rscale>
<asrwt>0</asrwt>
<pdfrwt beam="1">0</pdfrwt>
<pdfrwt beam="2">  1        2 0.38762275E+00 0.65298096E+03</pdfrwt>
<totfact> 0.44287084E+00</totfact>
</mgrwt>
</event>
<event>
 5    1  0.2368666E-004  0.6570569E+03  0.7818608E-02  0.9793627E-01
         13   -1    0    0    0    0  0.00000000000E+00  0.00000000000E+00  0.10000000000E+04  0.10000000000E+04  0.00000000000E+00 0. -1.
          2   -1    0    0  501    0 -0.00000000000E+00 -0.00000000000E+00 -0.10793095079E+03  0.10793095079E+03  0.00000000000E+00 0. -1.
    9000006    2    1    2  501    0  0.00000000000E+00  0.00000000000E+00  0.89206904921E+03  0.11079309508E+04  0.65705692536E+03 0.  0.
         13    1    3    3    0    0  0.15312476119E+03  0.23039757817E+03  0.14723530332E+03  0.31338230814E+03  0.00000000000E+00 0. -1.
          4    1    3    3  501    0 -0.15312476119E+03 -0.23039757817E+03  0.74483374589E+03  0.79454864265E+03  0.00000000000E+00 0. -1.
<mgrwt>
<rscale>  0 0.65705693E+03</rscale>
<asrwt>0</asrwt>
<pdfrwt beam="1">0</pdfrwt>
<pdfrwt beam="2">  1        2 0.39247701E+00 0.65705693E+03</pdfrwt>
<totfact> 0.42469949E+00</totfact>
</mgrwt>
</event>
<event>
 5    1  0.2368666E-004  0.6514375E+03  0.7818608E-02  0.9804086E-01
         13   -1    0    0    0    0  0.00000000000E+00  0.00000000000E+00  0.10000000000E+04  0.10000000000E+04  0.00000000000E+00 0. -1.
          2   -1    0    0  501    0 -0.00000000000E+00 -0.00000000000E+00 -0.10609270726E+03  0.10609270726E+03  0.00000000000E+00 0. -1.
    9000006    2    1    2  501    0  0.00000000000E+00  0.00000000000E+00  0.89390729274E+03  0.11060927073E+04  0.65143750968E+03 0.  0.
         13    1    3    3    0    0  0.18482639144E+03  0.32235223248E+02  0.89903837865E+03  0.91840617968E+03  0.00000000000E+00 0. -1.
          4    1    3    3  501    0 -0.18482639144E+03 -0.32235223248E+02 -0.51310859041E+01  0.18768652758E+03  0.00000000000E+00 0. -1.
<mgrwt>
<rscale>  0 0.65143751E+03</rscale>
<asrwt>0</asrwt>
<pdfrwt beam="1">0</pdfrwt>
<pdfrwt beam="2">  1        2 0.38579248E+00 0.65143751E+03</pdfrwt>
<totfact> 0.44990283E+00</totfact>
</mgrwt>
</event>
<event>
 5    1  0.2368666E-004  0.6460897E+03  0.7818608E-02  0.9814144E-01
         13   -1    0    0    0    0  0.00000000000E+00  0.00000000000E+00  0.10000000000E+04  0.10000000000E+04  0.00000000000E+00 0. -1.
          2   -1    0    0  501    0 -0.00000000000E+00 -0.00000000000E+00 -0.10435796183E+03  0.10435796183E+03  0.00000000000E+00 0. -1.
    9000006    2    1    2  501    0  0.00000000000E+00  0.00000000000E+00  0.89564203817E+03  0.11043579618E+04  0.64608965888E+03 0.  0.
         13    1    3    3    0    0 -0.17857482710E+03  0.16639221048E+03  0.86101577903E+02  0.25882198187E+03  0.00000000000E+00 0. -1.
          4    1    3    3  501    0  0.17857482710E+03 -0.16639221048E+03  0.80954046027E+03  0.84553597995E+03  0.00000000000E+00 0. -1.
<mgrwt>
<rscale>  0 0.64608966E+03</rscale>
<asrwt>0</asrwt>
<pdfrwt beam="1">0</pdfrwt>
<pdfrwt beam="2">  1        2 0.37948430E+00 0.64608966E+03</pdfrwt>
<totfact> 0.47492227E+00</totfact>
</mgrwt>
</event>
<event>
 5    1  0.2368666E-004  0.6518386E+03  0.7818608E-02  0.9803335E-01
         13   -1    0    0    0    0  0.00000000000E+00  0.00000000000E+00  0.10000000000E+04  0.10000000000E+04  0.00000000000E+00 0. -1.
          2   -1    0    0  501    0 -0.00000000000E+00 -0.00000000000E+00 -0.10622338220E+03  0.10622338220E+03  0.00000000000E+00 0. -1.
    9000006    2    1    2  501    0  0.00000000000E+00  0.00000000000E+00  0.89377661780E+03  0.11062233822E+04  0.65183857574E+03 0.  0.
         13    1    3    3    0    0 -0.25722354578E+03 -0.18296039770E+03  0.58460231496E+03  0.66437815006E+03  0.00000000000E+00 0. -1.
          2    1    3    3  501    0  0.25722354578E+03  0.18296039770E+03  0.30917430284E+03  0.44184523214E+03  0.00000000000E+00 0. -1.
<mgrwt>
<rscale>  0 0.65183858E+03</rscale>
<asrwt>0</asrwt>
<pdfrwt beam="1">0</pdfrwt>
<pdfrwt beam="2">  1        2 0.38626766E+00 0.65183858E+03</pdfrwt>
<totfact> 0.44806751E+00</totfact>
</mgrwt>
</event>
<event>
 5    1  0.2368666E-004  0.6487884E+03  0.7818608E-02  0.9809055E-01
         13   -1    0    0    0    0  0.00000000000E+00  0.00000000000E+00  0.10000000000E+04  0.10000000000E+04  0.00000000000E+00 0. -1.
          2   -1    0    0  501    0 -0.00000000000E+00 -0.00000000000E+00 -0.10523159771E+03  0.10523159771E+03  0.00000000000E+00 0. -1.
    9000006    2    1    2  501    0  0.00000000000E+00  0.00000000000E+00  0.89476840229E+03  0.11052315977E+04  0.64878840220E+03 0.  0.
         13    1    3    3    0    0  0.23768379725E+03  0.96944249764E+02  0.10950114499E+03  0.27907396115E+03  0.00000000000E+00 0. -1.
          2    1    3    3  501    0 -0.23768379725E+03 -0.96944249764E+02  0.78526725731E+03  0.82615763656E+03  0.00000000000E+00 0. -1.
<mgrwt>
<rscale>  0 0.64878840E+03</rscale>
<asrwt>0</asrwt>
<pdfrwt beam="1">0</pdfrwt>
<pdfrwt beam="2">  1        2 0.38266116E+00 0.64878840E+03</pdfrwt>
<totfact> 0.46216852E+00</totfact>
</mgrwt>
</event>
<event>
 5    1  0.2368666E-004  0.6284349E+03  0.7818608E-02  0.9848108E-01
         13   -1    0    0    0    0  0.00000000000E+00  0.00000000000E+00  0.10000000000E+04  0.10000000000E+04  0.00000000000E+00 0. -1.
          2   -1    0    0  501    0 -0.00000000000E+00 -0.00000000000E+00 -0.98732621474E+02  0.98732621474E+02  0.00000000000E+00 0. -1.
    9000006    2    1    2  501    0  0.00000000000E+00  0.00000000000E+00  0.90126737853E+03  0.10987326215E+04  0.62843494961E+03 0.  0.
         13    1    3    3    0    0  0.79551163901E+02  0.15805875493E+03 -0.33407720270E+01  0.17698055951E+03  0.00000000000E+00 0. -1.
          4    1    3    3  501    0 -0.79551163901E+02 -0.15805875493E+03  0.90460815055E+03  0.92175206196E+03  0.00000000000E+00 0. -1.
<mgrwt>
<rscale>  0 0.62843495E+03</rscale>
<asrwt>0</asrwt>
<pdfrwt beam="1">0</pdfrwt>
<pdfrwt beam="2">  1        2 0.35902847E+00 0.62843495E+03</pdfrwt>
<totfact> 0.56506302E+00</totfact>
</mgrwt>
</event>
<event>
 5    1  0.2368666E-004  0.5731472E+03  0.7818608E-02  0.9962739E-01
         13   -1    0    0    0    0  0.00000000000E+00  0.00000000000E+00  0.10000000000E+04  0.10000000000E+04  0.00000000000E+00 0. -1.
          2   -1    0    0  501    0 -0.00000000000E+00 -0.00000000000E+00 -0.82124414727E+02  0.82124414727E+02  0.00000000000E+00 0. -1.
    9000006    2    1    2  501    0  0.00000000000E+00  0.00000000000E+00  0.91787558527E+03  0.10821244147E+04  0.57314715293E+03 0.  0.
         13    1    3    3    0    0  0.63070367453E+02 -0.27466254732E+03  0.55717080818E+03  0.62438505399E+03  0.00000000000E+00 0. -1.
          2    1    3    3  501    0 -0.63070367453E+02  0.27466254732E+03  0.36070477709E+03  0.45773936074E+03  0.00000000000E+00 0. -1.
<mgrwt>
<rscale>  0 0.57314715E+03</rscale>
<asrwt>0</asrwt>
<pdfrwt beam="1">0</pdfrwt>
<pdfrwt beam="2">  1        2 0.29863487E+00 0.57314715E+03</pdfrwt>
<totfact> 0.93371796E+00</totfact>
</mgrwt>
</event>
<event>
 5    1  0.2368666E-004  0.6713943E+03  0.7818608E-02  0.9767442E-01
         13   -1    0    0    0    0  0.00000000000E+00  0.00000000000E+00  0.10000000000E+04  0.10000000000E+04  0.00000000000E+00 0. -1.
          2   -1    0    0  501    0 -0.00000000000E+00 -0.00000000000E+00 -0.11269256442E+03  0.11269256442E+03  0.00000000000E+00 0. -1.
    9000006    2    1    2  501    0  0.00000000000E+00  0.00000000000E+00  0.88730743558E+03  0.11126925644E+04  0.67139426397E+03 0.  0.
         13    1    3    3    0    0  0.17461748581E+03 -0.15221814784E+03  0.40994741535E+02  0.23524922894E+03  0.00000000000E+00 0. -1.
          2    1    3    3  501    0 -0.17461748581E+03  0.15221814784E+03  0.84631269404E+03  0.87744333548E+03  0.00000000000E+00 0. -1.
<mgrwt>
<rscale>  0 0.67139426E+03</rscale>
<asrwt>0</asrwt>
<pdfrwt beam="1">0</pdfrwt>
<pdfrwt beam="2">  1        2 0.40979201E+00 0.67139426E+03</pdfrwt>
<totfact> 0.36522136E+00</totfact>
</mgrwt>
</event>
<event>
 5    1  0.2368666E-004  0.6516679E+03  0.7818608E-02  0.9803654E-01
         13   -1    0    0    0    0  0.00000000000E+00  0.00000000000E+00  0.10000000000E+04  0.10000000000E+04  0.00000000000E+00 0. -1.
          2   -1    0    0  501    0 -0.00000000000E+00 -0.00000000000E+00 -0.10616776621E+03  0.10616776621E+03  0.00000000000E+00 0. -1.
    9000006    2    1    2  501    0  0.00000000000E+00  0.00000000000E+00  0.89383223379E+03  0.11061677662E+04  0.65166790993E+03 0.  0.
         13    1    3    3    0    0  0.62168778825E+02 -0.28493901531E+03  0.69355706474E+03  0.75238062279E+03  0.00000000000E+00 0. -1.
          2    1    3    3  501    0 -0.62168778825E+02  0.28493901531E+03  0.20027516906E+03  0.35378714342E+03  0.00000000000E+00 0. -1.
<mgrwt>
<rscale>  0 0.65166791E+03</rscale>
<asrwt>0</asrwt>
<pdfrwt beam="1">0</pdfrwt>
<pdfrwt beam="2">  1        2 0.38606542E+00 0.65166791E+03</pdfrwt>
<totfact> 0.44884780E+00</totfact>
</mgrwt>
</event>
<event>
 5    1  0.2368666E-004  0.6474767E+03  0.7818608E-02  0.9811526E-01
         13   -1    0    0    0    0  0.00000000000E+00  0.00000000000E+00  0.10000000000E+04  0.10000000000E+04  0.00000000000E+00 0. -1.
          2   -1    0    0  501    0 -0.00000000000E+00 -0.00000000000E+00 -0.10480652198E+03  0.10480652198E+03  0.00000000000E+00 0. -1.
    9000006    2    1    2  501    0  0.00000000000E+00  0.00000000000E+00  0.89519347802E+03  0.11048065220E+04  0.64747670839E+03 0.  0.
         13    1    3    3    0    0 -0.14086495458E+03  0.25805253046E+03  0.67888092980E+03  0.73980629948E+03  0.00000000000E+00 0. -1.
          4    1    3    3  501    0  0.14086495458E+03 -0.25805253046E+03  0.21631254822E+03  0.36500022250E+03  0.00000000000E+00 0. -1.
<mgrwt>
<rscale>  0 0.64747671E+03</rscale>
<asrwt>0</asrwt>
<pdfrwt beam="1">0</pdfrwt>
<pdfrwt beam="2">  1        2 0.38111543E+00 0.64747671E+03</pdfrwt>
<totfact> 0.46833455E+00</totfact>
</mgrwt>
</event>
<event>
 5    1  0.2368666E-004  0.6568066E+03  0.7818608E-02  0.9794090E-01
         13   -1    0    0    0    0  0.00000000000E+00  0.00000000000E+00  0.10000000000E+04  0.10000000000E+04  0.00000000000E+00 0. -1.
          2   -1    0    0  501    0 -0.00000000000E+00 -0.00000000000E+00 -0.10784871837E+03  0.10784871837E+03  0.00000000000E+00 0. -1.
    9000006    2    1    2  501    0  0.00000000000E+00  0.00000000000E+00  0.89215128163E+03  0.11078487184E+04  0.65680657234E+03 0.  0.
         13    1    3    3    0    0  0.21698856834E+03  0.18427223143E+02  0.31454235019E+02  0.22002947585E+03  0.00000000000E+00 0. -1.
          2    1    3    3  501    0 -0.21698856834E+03 -0.18427223143E+02  0.86069704661E+03  0.88781924252E+03  0.00000000000E+00 0. -1.
<mgrwt>
<rscale>  0 0.65680657E+03</rscale>
<asrwt>0</asrwt>
<pdfrwt beam="1">0</pdfrwt>
<pdfrwt beam="2">  1        2 0.39217798E+00 0.65680657E+03</pdfrwt>
<totfact> 0.42579909E+00</totfact>
</mgrwt>
</event>
<event>
 5    1  0.2368666E-004  0.6521771E+03  0.7818608E-02  0.9802703E-01
         13   -1    0    0    0    0  0.00000000000E+00  0.00000000000E+00  0.10000000000E+04  0.10000000000E+04  0.00000000000E+00 0. -1.
          2   -1    0    0  501    0 -0.00000000000E+00 -0.00000000000E+00 -0.10633374944E+03  0.10633374944E+03  0.00000000000E+00 0. -1.
    9000006    2    1    2  501    0  0.00000000000E+00  0.00000000000E+00  0.89366625056E+03  0.11063337494E+04  0.65217712145E+03 0.  0.
         13    1    3    3    0    0  0.20163012518E+02  0.13941538085E+03  0.94572328837E+03  0.95615675161E+03  0.00000000000E+00 0. -1.
          4    1    3    3  501    0 -0.20163012518E+02 -0.13941538085E+03 -0.52057037804E+02  0.15017699783E+03  0.00000000000E+00 0. -1.
<mgrwt>
<rscale>  0 0.65217712E+03</rscale>
<asrwt>0</asrwt>
<pdfrwt beam="1">0</pdfrwt>
<pdfrwt beam="2">  1        2 0.38666900E+00 0.65217712E+03</pdfrwt>
<totfact> 0.44652269E+00</totfact>
</mgrwt>
</event>
<event>
 5    1  0.2368666E-004  0.6505414E+03  0.7818608E-02  0.9805764E-01
         13   -1    0    0    0    0  0.00000000000E+00  0.00000000000E+00  0.10000000000E+04  0.10000000000E+04  0.00000000000E+00 0. -1.
          2   -1    0    0  501    0 -0.00000000000E+00 -0.00000000000E+00 -0.10580104365E+03  0.10580104365E+03  0.00000000000E+00 0. -1.
    9000006    2    1    2  501    0  0.00000000000E+00  0.00000000000E+00  0.89419895635E+03  0.11058010436E+04  0.65054144725E+03 0.  0.
         13    1    3    3    0    0 -0.14849510177E+03  0.25218636894E+03  0.20579567971E+03  0.35777174528E+03  0.00000000000E+00 0. -1.
          2    1    3    3  501    0  0.14849510177E+03 -0.25218636894E+03  0.68840327664E+03  0.74802929837E+03  0.00000000000E+00 0. -1.
<mgrwt>
<rscale>  0 0.65054145E+03</rscale>
<asrwt>0</asrwt>
<pdfrwt beam="1">0</pdfrwt>
<pdfrwt beam="2">  1        2 0.38473188E+00 0.65054145E+03</pdfrwt>
<totfact> 0.45402382E+00</totfact>
</mgrwt>
</event>
<event>
 5    1  0.2368666E-004  0.6495884E+03  0.7818608E-02  0.9807552E-01
         13   -1    0    0    0    0  0.00000000000E+00  0.00000000000E+00  0.10000000000E+04  0.10000000000E+04  0.00000000000E+00 0. -1.
          2   -1    0    0  501    0 -0.00000000000E+00 -0.00000000000E+00 -0.10549125623E+03  0.10549125623E+03  0.00000000000E+00 0. -1.
    9000006    2    1    2  501    0  0.00000000000E+00  0.00000000000E+00  0.89450874377E+03  0.11054912562E+04  0.64958835037E+03 0.  0.
         13    1    3    3    0    0  0.14851346221E+03  0.25402967771E+03  0.21326661099E+03  0.36341432687E+03  0.00000000000E+00 0. -1.
          2    1    3    3  501    0 -0.14851346221E+03 -0.25402967771E+03  0.68124213278E+03  0.74207692936E+03  0.00000000000E+00 0. -1.
<mgrwt>
<rscale>  0 0.64958835E+03</rscale>
<asrwt>0</asrwt>
<pdfrwt beam="1">0</pdfrwt>
<pdfrwt beam="2">  1        2 0.38360538E+00 0.64958835E+03</pdfrwt>
<totfact> 0.45843836E+00</totfact>
</mgrwt>
</event>
<event>
 5    1  0.2368666E-004  0.7071325E+03  0.7818608E-02  0.9705112E-01
         13   -1    0    0    0    0  0.00000000000E+00  0.00000000000E+00  0.10000000000E+04  0.10000000000E+04  0.00000000000E+00 0. -1.
          2   -1    0    0  501    0 -0.00000000000E+00 -0.00000000000E+00 -0.12500910468E+03  0.12500910468E+03  0.00000000000E+00 0. -1.
    9000006    2    1    2  501    0  0.00000000000E+00  0.00000000000E+00  0.87499089532E+03  0.11250091047E+04  0.70713253263E+03 0.  0.
         13    1    3    3    0    0  0.17599685151E+03  0.21443306141E+03  0.78624527733E+03  0.83374940222E+03  0.00000000000E+00 0. -1.
          4    1    3    3  501    0 -0.17599685151E+03 -0.21443306141E+03  0.88745617990E+02  0.29125970246E+03  0.00000000000E+00 0. -1.
<mgrwt>
<rscale>  0 0.70713253E+03</rscale>
<asrwt>0</asrwt>
<pdfrwt beam="1">0</pdfrwt>
<pdfrwt beam="2">  1        2 0.45457952E+00 0.70713253E+03</pdfrwt>
<totfact> 0.24420937E+00</totfact>
</mgrwt>
</event>
<event>
 5    1  0.2368666E-004  0.6394976E+03  0.7818608E-02  0.9826688E-01
         13   -1    0    0    0    0  0.00000000000E+00  0.00000000000E+00  0.10000000000E+04  0.10000000000E+04  0.00000000000E+00 0. -1.
          2   -1    0    0  501    0 -0.00000000000E+00 -0.00000000000E+00 -0.10223929669E+03  0.10223929669E+03  0.00000000000E+00 0. -1.
    9000006    2    1    2  501    0  0.00000000000E+00  0.00000000000E+00  0.89776070331E+03  0.11022392967E+04  0.63949760497E+03 0.  0.
         13    1    3    3    0    0 -0.11918877013E+03  0.23075201805E+03  0.77035331784E+03  0.81295552834E+03  0.00000000000E+00 0. -1.
          4    1    3    3  501    0  0.11918877013E+03 -0.23075201805E+03  0.12740738547E+03  0.28928376835E+03  0.00000000000E+00 0. -1.
<mgrwt>
<rscale>  0 0.63949760E+03</rscale>
<asrwt>0</asrwt>
<pdfrwt beam="1">0</pdfrwt>
<pdfrwt beam="2">  1        2 0.37178004E+00 0.63949760E+03</pdfrwt>
<totfact> 0.50719629E+00</totfact>
</mgrwt>
</event>
<event>
 5    1  0.2368666E-004  0.6490765E+03  0.7818608E-02  0.9808514E-01
         13   -1    0    0    0    0  0.00000000000E+00  0.00000000000E+00  0.10000000000E+04  0.10000000000E+04  0.00000000000E+00 0. -1.
          2   -1    0    0  501    0 -0.00000000000E+00 -0.00000000000E+00 -0.10532506691E+03  0.10532506691E+03  0.00000000000E+00 0. -1.
    9000006    2    1    2  501    0  0.00000000000E+00  0.00000000000E+00  0.89467493309E+03  0.11053250669E+04  0.64907647287E+03 0.  0.
         13    1    3    3    0    0  0.28764527265E+02  0.23541905745E+03  0.82458523434E+03  0.85801534912E+03  0.00000000000E+00 0. -1.
          4    1    3    3  501    0 -0.28764527265E+02 -0.23541905745E+03  0.70089698754E+02  0.24730971779E+03  0.00000000000E+00 0. -1.
<mgrwt>
<rscale>  0 0.64907647E+03</rscale>
<asrwt>0</asrwt>
<pdfrwt beam="1">0</pdfrwt>
<pdfrwt beam="2">  1        2 0.38300105E+00 0.64907647E+03</pdfrwt>
<totfact> 0.46082261E+00</totfact>
</mgrwt>
</event>
<event>
 5    1  0.2368666E-004  0.6399515E+03  0.7818608E-02  0.9825819E-01
         13   -1    0    0    0    0  0.00000000000E+00  0.00000000000E+00  0.10000000000E+04  0.10000000000E+04  0.00000000000E+00 0. -1.
          2   -1    0    0  501    0 -0.00000000000E+00 -0.00000000000E+00 -0.10238449306E+03  0.10238449306E+03  0.00000000000E+00 0. -1.
    9000006    2    1    2  501    0  0.00000000000E+00  0.00000000000E+00  0.89761550694E+03  0.11023844931E+04  0.63995153896E+03 0.  0.
         13    1    3    3    0    0  0.27618171114E+02 -0.20533216156E+03  0.28758669616E+02  0.20916768638E+03  0.00000000000E+00 0. -1.
          4    1    3    3  501    0 -0.27618171114E+02  0.20533216156E+03  0.86885683733E+03  0.89321680667E+03  0.00000000000E+00 0. -1.
<mgrwt>
<rscale>  0 0.63995154E+03</rscale>
<asrwt>0</asrwt>
<pdfrwt beam="1">0</pdfrwt>
<pdfrwt beam="2">  1        2 0.37230803E+00 0.63995154E+03</pdfrwt>
<totfact> 0.50492202E+00</totfact>
</mgrwt>
</event>
<event>
 5    1  0.2368666E-004  0.6511184E+03  0.7818608E-02  0.9804683E-01
         13   -1    0    0    0    0  0.00000000000E+00  0.00000000000E+00  0.10000000000E+04  0.10000000000E+04  0.00000000000E+00 0. -1.
          2   -1    0    0  501    0 -0.00000000000E+00 -0.00000000000E+00 -0.10598877841E+03  0.10598877841E+03  0.00000000000E+00 0. -1.
    9000006    2    1    2  501    0  0.00000000000E+00  0.00000000000E+00  0.89401122159E+03  0.11059887784E+04  0.65111835611E+03 0.  0.
         13    1    3    3    0    0  0.44276127959E+01  0.31986472667E+03  0.54970737754E+03  0.63601198735E+03  0.00000000000E+00 0. -1.
          2    1    3    3  501    0 -0.44276127959E+01 -0.31986472667E+03  0.34430384404E+03  0.46997679107E+03  0.00000000000E+00 0. -1.
<mgrwt>
<rscale>  0 0.65111836E+03</rscale>
<asrwt>0</asrwt>
<pdfrwt beam="1">0</pdfrwt>
<pdfrwt beam="2">  1        2 0.38541455E+00 0.65111836E+03</pdfrwt>
<totfact> 0.45136736E+00</totfact>
</mgrwt>
</event>
<event>
 5    1  0.2368666E-004  0.6493919E+03  0.7818608E-02  0.9807921E-01
         13   -1    0    0    0    0  0.00000000000E+00  0.00000000000E+00  0.10000000000E+04  0.10000000000E+04  0.00000000000E+00 0. -1.
          2   -1    0    0  501    0 -0.00000000000E+00 -0.00000000000E+00 -0.10542747613E+03  0.10542747613E+03  0.00000000000E+00 0. -1.
    9000006    2    1    2  501    0  0.00000000000E+00  0.00000000000E+00  0.89457252387E+03  0.11054274761E+04  0.64939194985E+03 0.  0.
         13    1    3    3    0    0 -0.70202026377E+02  0.30546065230E+03  0.30291637409E+03  0.43588170907E+03  0.00000000000E+00 0. -1.
          4    1    3    3  501    0  0.70202026377E+02 -0.30546065230E+03  0.59165614978E+03  0.66954576706E+03  0.00000000000E+00 0. -1.
<mgrwt>
<rscale>  0 0.64939195E+03</rscale>
<asrwt>0</asrwt>
<pdfrwt beam="1">0</pdfrwt>
<pdfrwt beam="2">  1        2 0.38337345E+00 0.64939195E+03</pdfrwt>
<totfact> 0.45935206E+00</totfact>
</mgrwt>
</event>
<event>
 5    1  0.2368666E-004  0.6210589E+03  0.7818608E-02  0.9862654E-01
         13   -1    0    0    0    0  0.00000000000E+00  0.00000000000E+00  0.10000000000E+04  0.10000000000E+04  0.00000000000E+00 0. -1.
          2   -1    0    0  501    0 -0.00000000000E+00 -0.00000000000E+00 -0.96428554049E+02  0.96428554049E+02  0.00000000000E+00 0. -1.
    9000006    2    1    2  501    0  0.00000000000E+00  0.00000000000E+00  0.90357144595E+03  0.10964285540E+04  0.62105894744E+03 0.  0.
         13    1    3    3    0    0 -0.15679156866E+03  0.19214245137E+03  0.12185450588E+03  0.27631655438E+03  0.00000000000E+00 0. -1.
          2    1    3    3  501    0  0.15679156866E+03 -0.19214245137E+03  0.78171694007E+03  0.82011199967E+03  0.00000000000E+00 0. -1.
<mgrwt>
<rscale>  0 0.62105895E+03</rscale>
<asrwt>0</asrwt>
<pdfrwt beam="1">0</pdfrwt>
<pdfrwt beam="2">  1        2 0.35065003E+00 0.62105895E+03</pdfrwt>
<totfact> 0.60634338E+00</totfact>
</mgrwt>
</event>
<event>
 5    1  0.2368666E-004  0.5484226E+03  0.7818608E-02  0.1001860E+00
         13   -1    0    0    0    0  0.00000000000E+00  0.00000000000E+00  0.10000000000E+04  0.10000000000E+04  0.00000000000E+00 0. -1.
          2   -1    0    0  501    0 -0.00000000000E+00 -0.00000000000E+00 -0.75191846005E+02  0.75191846005E+02  0.00000000000E+00 0. -1.
    9000006    2    1    2  501    0  0.00000000000E+00  0.00000000000E+00  0.92480815400E+03  0.10751918460E+04  0.54842263267E+03 0.  0.
         13    1    3    3    0    0 -0.21394752422E+03 -0.43975662956E+02  0.78742705891E+03  0.81715896566E+03  0.00000000000E+00 0. -1.
          4    1    3    3  501    0  0.21394752422E+03  0.43975662956E+02  0.13738109509E+03  0.25803288035E+03  0.00000000000E+00 0. -1.
<mgrwt>
<rscale>  0 0.54842263E+03</rscale>
<asrwt>0</asrwt>
<pdfrwt beam="1">0</pdfrwt>
<pdfrwt beam="2">  1        2 0.27342547E+00 0.54842263E+03</pdfrwt>
<totfact> 0.11489698E+01</totfact>
</mgrwt>
</event>
<event>
 5    1  0.2368666E-004  0.6518085E+03  0.7818608E-02  0.9803392E-01
         13   -1    0    0    0    0  0.00000000000E+00  0.00000000000E+00  0.10000000000E+04  0.10000000000E+04  0.00000000000E+00 0. -1.
          2   -1    0    0  501    0 -0.00000000000E+00 -0.00000000000E+00 -0.10621359070E+03  0.10621359070E+03  0.00000000000E+00 0. -1.
    9000006    2    1    2  501    0  0.00000000000E+00  0.00000000000E+00  0.89378640930E+03  0.11062135907E+04  0.65180853231E+03 0.  0.
         13    1    3    3    0    0 -0.25892258359E+02  0.20967084035E+03  0.86804964547E+03  0.89338818961E+03  0.00000000000E+00 0. -1.
          2    1    3    3  501    0  0.25892258359E+02 -0.20967084035E+03  0.25736763830E+02  0.21282540108E+03  0.00000000000E+00 0. -1.
<mgrwt>
<rscale>  0 0.65180853E+03</rscale>
<asrwt>0</asrwt>
<pdfrwt beam="1">0</pdfrwt>
<pdfrwt beam="2">  1        2 0.38623205E+00 0.65180853E+03</pdfrwt>
<totfact> 0.44820479E+00</totfact>
</mgrwt>
</event>
<event>
 5    1  0.2368666E-004  0.6532714E+03  0.7818608E-02  0.9800660E-01
         13   -1    0    0    0    0  0.00000000000E+00  0.00000000000E+00  0.10000000000E+04  0.10000000000E+04  0.00000000000E+00 0. -1.
          2   -1    0    0  501    0 -0.00000000000E+00 -0.00000000000E+00 -0.10669089194E+03  0.10669089194E+03  0.00000000000E+00 0. -1.
    9000006    2    1    2  501    0  0.00000000000E+00  0.00000000000E+00  0.89330910806E+03  0.11066908919E+04  0.65327143499E+03 0.  0.
         13    1    3    3    0    0 -0.12492055931E+03  0.30178904064E+03  0.44153834685E+03  0.54921569800E+03  0.00000000000E+00 0. -1.
          4    1    3    3  501    0  0.12492055931E+03 -0.30178904064E+03  0.45177076120E+03  0.55747519394E+03  0.00000000000E+00 0. -1.
<mgrwt>
<rscale>  0 0.65327143E+03</rscale>
<asrwt>0</asrwt>
<pdfrwt beam="1">0</pdfrwt>
<pdfrwt beam="2">  1        2 0.38796770E+00 0.65327143E+03</pdfrwt>
<totfact> 0.44155676E+00</totfact>
</mgrwt>
</event>
<event>
 5    1  0.2368666E-004  0.6552159E+03  0.7818608E-02  0.9797041E-01
         13   -1    0    0    0    0  0.00000000000E+00  0.00000000000E+00  0.10000000000E+04  0.10000000000E+04  0.00000000000E+00 0. -1.
          2   -1    0    0  501    0 -0.00000000000E+00 -0.00000000000E+00 -0.10732695686E+03  0.10732695686E+03  0.00000000000E+00 0. -1.
    9000006    2    1    2  501    0  0.00000000000E+00  0.00000000000E+00  0.89267304314E+03  0.11073269569E+04  0.65521586325E+03 0.  0.
         13    1    3    3    0    0  0.11297779985E+03  0.15908426971E+03  0.15848746524E+01  0.19512636920E+03  0.00000000000E+00 0. -1.
          4    1    3    3  501    0 -0.11297779985E+03 -0.15908426971E+03  0.89108816848E+03  0.91220058767E+03  0.00000000000E+00 0. -1.
<mgrwt>
<rscale>  0 0.65521586E+03</rscale>
<asrwt>0</asrwt>
<pdfrwt beam="1">0</pdfrwt>
<pdfrwt beam="2">  1        2 0.39028067E+00 0.65521586E+03</pdfrwt>
<totfact> 0.43283608E+00</totfact>
</mgrwt>
</event>
<event>
 5    1  0.2368666E-004  0.6529906E+03  0.7818608E-02  0.9801184E-01
         13   -1    0    0    0    0  0.00000000000E+00  0.00000000000E+00  0.10000000000E+04  0.10000000000E+04  0.00000000000E+00 0. -1.
          2   -1    0    0  501    0 -0.00000000000E+00 -0.00000000000E+00 -0.10659918821E+03  0.10659918821E+03  0.00000000000E+00 0. -1.
    9000006    2    1    2  501    0  0.00000000000E+00  0.00000000000E+00  0.89340081179E+03  0.11065991882E+04  0.65299062233E+03 0.  0.
         13    1    3    3    0    0  0.14272485190E+03  0.18919554973E+03  0.66121722747E+02  0.24604353600E+03  0.00000000000E+00 0. -1.
          2    1    3    3  501    0 -0.14272485190E+03 -0.18919554973E+03  0.82727908904E+03  0.86055565221E+03  0.00000000000E+00 0. -1.
<mgrwt>
<rscale>  0 0.65299062E+03</rscale>
<asrwt>0</asrwt>
<pdfrwt beam="1">0</pdfrwt>
<pdfrwt beam="2">  1        2 0.38763423E+00 0.65299062E+03</pdfrwt>
<totfact> 0.44282707E+00</totfact>
</mgrwt>
</event>
<event>
 5    1  0.2368666E-004  0.6617569E+03  0.7818608E-02  0.9784965E-01
         13   -1    0    0    0    0  0.00000000000E+00  0.00000000000E+00  0.10000000000E+04  0.10000000000E+04  0.00000000000E+00 0. -1.
          2   -1    0    0  501    0 -0.00000000000E+00 -0.00000000000E+00 -0.10948053883E+03  0.10948053883E+03  0.00000000000E+00 0. -1.
    9000006    2    1    2  501    0  0.00000000000E+00  0.00000000000E+00  0.89051946117E+03  0.11094805388E+04  0.66175687025E+03 0.  0.
         13    1    3    3    0    0  0.10484530975E+03 -0.29411638158E+03  0.62879268153E+03  0.70205214995E+03  0.00000000000E+00 0. -1.
          2    1    3    3  501    0 -0.10484530975E+03  0.29411638158E+03  0.26172677963E+03  0.40742838889E+03  0.00000000000E+00 0. -1.
<mgrwt>
<rscale>  0 0.66175687E+03</rscale>
<asrwt>0</asrwt>
<pdfrwt beam="1">0</pdfrwt>
<pdfrwt beam="2">  1        2 0.39811189E+00 0.66175687E+03</pdfrwt>
<totfact> 0.40445281E+00</totfact>
</mgrwt>
</event>
<event>
 5    1  0.2368666E-004  0.6631700E+03  0.7818608E-02  0.9782376E-01
         13   -1    0    0    0    0  0.00000000000E+00  0.00000000000E+00  0.10000000000E+04  0.10000000000E+04  0.00000000000E+00 0. -1.
          2   -1    0    0  501    0 -0.00000000000E+00 -0.00000000000E+00 -0.10994861112E+03  0.10994861112E+03  0.00000000000E+00 0. -1.
    9000006    2    1    2  501    0  0.00000000000E+00  0.00000000000E+00  0.89005138888E+03  0.11099486111E+04  0.66316999666E+03 0.  0.
         13    1    3    3    0    0  0.11153145767E+03  0.69693176173E+02 -0.64429371621E+02  0.14644981660E+03  0.00000000000E+00 0. -1.
          2    1    3    3  501    0 -0.11153145767E+03 -0.69693176173E+02  0.95448076051E+03  0.96349879451E+03  0.00000000000E+00 0. -1.
<mgrwt>
<rscale>  0 0.66317000E+03</rscale>
<asrwt>0</asrwt>
<pdfrwt beam="1">0</pdfrwt>
<pdfrwt beam="2">  1        2 0.39981397E+00 0.66317000E+03</pdfrwt>
<totfact> 0.39851036E+00</totfact>
</mgrwt>
</event>
<event>
 5    1  0.2368666E-004  0.6257333E+03  0.7818608E-02  0.9853410E-01
         13   -1    0    0    0    0  0.00000000000E+00  0.00000000000E+00  0.10000000000E+04  0.10000000000E+04  0.00000000000E+00 0. -1.
          2   -1    0    0  501    0 -0.00000000000E+00 -0.00000000000E+00 -0.97885545806E+02  0.97885545806E+02  0.00000000000E+00 0. -1.
    9000006    2    1    2  501    0  0.00000000000E+00  0.00000000000E+00  0.90211445419E+03  0.10978855458E+04  0.62573331638E+03 0.  0.
         13    1    3    3    0    0  0.97968716419E+02  0.25128383291E+03  0.72927568383E+03  0.77755029233E+03  0.00000000000E+00 0. -1.
          4    1    3    3  501    0 -0.97968716419E+02 -0.25128383291E+03  0.17283877036E+03  0.32033525347E+03  0.00000000000E+00 0. -1.
<mgrwt>
<rscale>  0 0.62573332E+03</rscale>
<asrwt>0</asrwt>
<pdfrwt beam="1">0</pdfrwt>
<pdfrwt beam="2">  1        2 0.35594819E+00 0.62573332E+03</pdfrwt>
<totfact> 0.57992603E+00</totfact>
</mgrwt>
</event>
<event>
 5    1  0.2368666E-004  0.6350900E+03  0.7818608E-02  0.9835166E-01
         13   -1    0    0    0    0  0.00000000000E+00  0.00000000000E+00  0.10000000000E+04  0.10000000000E+04  0.00000000000E+00 0. -1.
          2   -1    0    0  501    0 -0.00000000000E+00 -0.00000000000E+00 -0.10083481368E+03  0.10083481368E+03  0.00000000000E+00 0. -1.
    9000006    2    1    2  501    0  0.00000000000E+00  0.00000000000E+00  0.89916518632E+03  0.11008348137E+04  0.63508995799E+03 0.  0.
         13    1    3    3    0    0 -0.31270458394E+03 -0.51002025782E+02  0.41283510036E+03  0.52040194422E+03  0.00000000000E+00 0. -1.
          2    1    3    3  501    0  0.31270458394E+03  0.51002025782E+02  0.48633008595E+03  0.58043286947E+03  0.00000000000E+00 0. -1.
<mgrwt>
<rscale>  0 0.63508996E+03</rscale>
<asrwt>0</asrwt>
<pdfrwt beam="1">0</pdfrwt>
<pdfrwt beam="2">  1        2 0.36667282E+00 0.63508996E+03</pdfrwt>
<totfact> 0.52968500E+00</totfact>
</mgrwt>
</event>
<event>
 5    1  0.2368666E-004  0.6466574E+03  0.7818608E-02  0.9813072E-01
         13   -1    0    0    0    0  0.00000000000E+00  0.00000000000E+00  0.10000000000E+04  0.10000000000E+04  0.00000000000E+00 0. -1.
          2   -1    0    0  501    0 -0.00000000000E+00 -0.00000000000E+00 -0.10454146038E+03  0.10454146038E+03  0.00000000000E+00 0. -1.
    9000006    2    1    2  501    0  0.00000000000E+00  0.00000000000E+00  0.89545853962E+03  0.11045414604E+04  0.64665743753E+03 0.  0.
         13    1    3    3    0    0  0.28589594259E+03 -0.92140025756E+02  0.65209413995E+03  0.71795058444E+03  0.00000000000E+00 0. -1.
          2    1    3    3  501    0 -0.28589594259E+03  0.92140025756E+02  0.24336439967E+03  0.38659087594E+03  0.00000000000E+00 0. -1.
<mgrwt>
<rscale>  0 0.64665744E+03</rscale>
<asrwt>0</asrwt>
<pdfrwt beam="1">0</pdfrwt>
<pdfrwt beam="2">  1        2 0.38015157E+00 0.64665744E+03</pdfrwt>
<totfact> 0.47221722E+00</totfact>
</mgrwt>
</event>
<event>
 5    1  0.2368666E-004  0.6536474E+03  0.7818608E-02  0.9799959E-01
         13   -1    0    0    0    0  0.00000000000E+00  0.00000000000E+00  0.10000000000E+04  0.10000000000E+04  0.00000000000E+00 0. -1.
          2   -1    0    0  501    0 -0.00000000000E+00 -0.00000000000E+00 -0.10681373503E+03  0.10681373503E+03  0.00000000000E+00 0. -1.
    9000006    2    1    2  501    0  0.00000000000E+00  0.00000000000E+00  0.89318626497E+03  0.11068137350E+04  0.65364741270E+03 0.  0.
         13    1    3    3    0    0 -0.51955402703E+02  0.12046267446E+03 -0.60272152906E+02  0.14437226958E+03  0.00000000000E+00 0. -1.
          4    1    3    3  501    0  0.51955402703E+02 -0.12046267446E+03  0.95345841787E+03  0.96244146545E+03  0.00000000000E+00 0. -1.
<mgrwt>
<rscale>  0 0.65364741E+03</rscale>
<asrwt>0</asrwt>
<pdfrwt beam="1">0</pdfrwt>
<pdfrwt beam="2">  1        2 0.38841440E+00 0.65364741E+03</pdfrwt>
<totfact> 0.43986026E+00</totfact>
</mgrwt>
</event>
<event>
 5    1  0.2368666E-004  0.6387267E+03  0.7818608E-02  0.9828166E-01
         13   -1    0    0    0    0  0.00000000000E+00  0.00000000000E+00  0.10000000000E+04  0.10000000000E+04  0.00000000000E+00 0. -1.
          2   -1    0    0  501    0 -0.00000000000E+00 -0.00000000000E+00 -0.10199294168E+03  0.10199294168E+03  0.00000000000E+00 0. -1.
    9000006    2    1    2  501    0  0.00000000000E+00  0.00000000000E+00  0.89800705832E+03  0.11019929417E+04  0.63872667606E+03 0.  0.
         13    1    3    3    0    0  0.16229781646E+03  0.27441115766E+03  0.48132128624E+03  0.57733200610E+03  0.00000000000E+00 0. -1.
          4    1    3    3  501    0 -0.16229781646E+03 -0.27441115766E+03  0.41668577208E+03  0.52466093558E+03  0.00000000000E+00 0. -1.
<mgrwt>
<rscale>  0 0.63872668E+03</rscale>
<asrwt>0</asrwt>
<pdfrwt beam="1">0</pdfrwt>
<pdfrwt beam="2">  1        2 0.37088421E+00 0.63872668E+03</pdfrwt>
<totfact> 0.51107652E+00</totfact>
</mgrwt>
</event>
<event>
 5    1  0.2368666E-004  0.6421614E+03  0.7818608E-02  0.9821600E-01
         13   -1    0    0    0    0  0.00000000000E+00  0.00000000000E+00  0.10000000000E+04  0.10000000000E+04  0.00000000000E+00 0. -1.
          2   -1    0    0  501    0 -0.00000000000E+00 -0.00000000000E+00 -0.10309281072E+03  0.10309281072E+03  0.00000000000E+00 0. -1.
    9000006    2    1    2  501    0  0.00000000000E+00  0.00000000000E+00  0.89690718928E+03  0.11030928107E+04  0.64216138382E+03 0.  0.
         13    1    3    3    0    0  0.58750066238E+02  0.30646040705E+03  0.31849961569E+03  0.44588289558E+03  0.00000000000E+00 0. -1.
          4    1    3    3  501    0 -0.58750066238E+02 -0.30646040705E+03  0.57840757359E+03  0.65720991514E+03  0.00000000000E+00 0. -1.
<mgrwt>
<rscale>  0 0.64216138E+03</rscale>
<asrwt>0</asrwt>
<pdfrwt beam="1">0</pdfrwt>
<pdfrwt beam="2">  1        2 0.37488374E+00 0.64216138E+03</pdfrwt>
<totfact> 0.49396049E+00</totfact>
</mgrwt>
</event>
<event>
 5    1  0.2368666E-004  0.5985375E+03  0.7818608E-02  0.9908445E-01
         13   -1    0    0    0    0  0.00000000000E+00  0.00000000000E+00  0.10000000000E+04  0.10000000000E+04  0.00000000000E+00 0. -1.
          2   -1    0    0  501    0 -0.00000000000E+00 -0.00000000000E+00 -0.89561770476E+02  0.89561770476E+02  0.00000000000E+00 0. -1.
    9000006    2    1    2  501    0  0.00000000000E+00  0.00000000000E+00  0.91043822952E+03  0.10895617705E+04  0.59853745238E+03 0.  0.
         13    1    3    3    0    0 -0.11605912243E+03  0.11822555295E+03  0.90890781627E+03  0.92388333665E+03  0.00000000000E+00 0. -1.
          2    1    3    3  501    0  0.11605912243E+03 -0.11822555295E+03  0.15304132575E+01  0.16567843383E+03  0.00000000000E+00 0. -1.
<mgrwt>
<rscale>  0 0.59853745E+03</rscale>
<asrwt>0</asrwt>
<pdfrwt beam="1">0</pdfrwt>
<pdfrwt beam="2">  1        2 0.32567985E+00 0.59853745E+03</pdfrwt>
<totfact> 0.74673748E+00</totfact>
</mgrwt>
</event>
<event>
 5    1  0.2368666E-004  0.6409080E+03  0.7818608E-02  0.9823991E-01
         13   -1    0    0    0    0  0.00000000000E+00  0.00000000000E+00  0.10000000000E+04  0.10000000000E+04  0.00000000000E+00 0. -1.
          2   -1    0    0  501    0 -0.00000000000E+00 -0.00000000000E+00 -0.10269076133E+03  0.10269076133E+03  0.00000000000E+00 0. -1.
    9000006    2    1    2  501    0  0.00000000000E+00  0.00000000000E+00  0.89730923867E+03  0.11026907613E+04  0.64090798506E+03 0.  0.
         13    1    3    3    0    0 -0.46536254561E+02  0.25108248587E+03  0.11555539312E+03  0.28028750700E+03  0.00000000000E+00 0. -1.
          4    1    3    3  501    0  0.46536254561E+02 -0.25108248587E+03  0.78175384555E+03  0.82240325433E+03  0.00000000000E+00 0. -1.
<mgrwt>
<rscale>  0 0.64090799E+03</rscale>
<asrwt>0</asrwt>
<pdfrwt beam="1">0</pdfrwt>
<pdfrwt beam="2">  1        2 0.37342174E+00 0.64090799E+03</pdfrwt>
<totfact> 0.50015538E+00</totfact>
</mgrwt>
</event>
<event>
 5    1  0.2368666E-004  0.6213667E+03  0.7818608E-02  0.9862042E-01
         13   -1    0    0    0    0  0.00000000000E+00  0.00000000000E+00  0.10000000000E+04  0.10000000000E+04  0.00000000000E+00 0. -1.
          2   -1    0    0  501    0 -0.00000000000E+00 -0.00000000000E+00 -0.96524135474E+02  0.96524135474E+02  0.00000000000E+00 0. -1.
    9000006    2    1    2  501    0  0.00000000000E+00  0.00000000000E+00  0.90347586453E+03  0.10965241355E+04  0.62136667266E+03 0.  0.
         13    1    3    3    0    0 -0.89471697667E+02 -0.29107584745E+03  0.34304343460E+03  0.45870375154E+03  0.00000000000E+00 0. -1.
          2    1    3    3  501    0  0.89471697667E+02  0.29107584745E+03  0.56043242993E+03  0.63782038394E+03  0.00000000000E+00 0. -1.
<mgrwt>
<rscale>  0 0.62136667E+03</rscale>
<asrwt>0</asrwt>
<pdfrwt beam="1">0</pdfrwt>
<pdfrwt beam="2">  1        2 0.35099760E+00 0.62136667E+03</pdfrwt>
<totfact> 0.60457664E+00</totfact>
</mgrwt>
</event>
<event>
 5    1  0.2368666E-004  0.6677396E+03  0.7818608E-02  0.9774050E-01
         13   -1    0    0    0    0  0.00000000000E+00  0.00000000000E+00  0.10000000000E+04  0.10000000000E+04  0.00000000000E+00 0. -1.
          2   -1    0    0  501    0 -0.00000000000E+00 -0.00000000000E+00 -0.11146902714E+03  0.11146902714E+03  0.00000000000E+00 0. -1.
    9000006    2    1    2  501    0  0.00000000000E+00  0.00000000000E+00  0.88853097286E+03  0.11114690271E+04  0.66773955144E+03 0.  0.
         13    1    3    3    0    0 -0.72102299779E+02 -0.31943028461E+03  0.33594879839E+03  0.46914394753E+03  0.00000000000E+00 0. -1.
          4    1    3    3  501    0  0.72102299779E+02  0.31943028461E+03  0.55258217447E+03  0.64232507961E+03  0.00000000000E+00 0. -1.
<mgrwt>
<rscale>  0 0.66773955E+03</rscale>
<asrwt>0</asrwt>
<pdfrwt beam="1">0</pdfrwt>
<pdfrwt beam="2">  1        2 0.40534277E+00 0.66773955E+03</pdfrwt>
<totfact> 0.37974440E+00</totfact>
</mgrwt>
</event>
<event>
 5    1  0.2368666E-004  0.6530433E+03  0.7818608E-02  0.9801085E-01
         13   -1    0    0    0    0  0.00000000000E+00  0.00000000000E+00  0.10000000000E+04  0.10000000000E+04  0.00000000000E+00 0. -1.
          2   -1    0    0  501    0 -0.00000000000E+00 -0.00000000000E+00 -0.10661638046E+03  0.10661638046E+03  0.00000000000E+00 0. -1.
    9000006    2    1    2  501    0  0.00000000000E+00  0.00000000000E+00  0.89338361954E+03  0.11066163805E+04  0.65304327715E+03 0.  0.
         13    1    3    3    0    0  0.10809875902E+03  0.30700691528E+03  0.40257505251E+03  0.51769224510E+03  0.00000000000E+00 0. -1.
          2    1    3    3  501    0 -0.10809875902E+03 -0.30700691528E+03  0.49080856704E+03  0.58892413536E+03  0.00000000000E+00 0. -1.
<mgrwt>
<rscale>  0 0.65304328E+03</rscale>
<asrwt>0</asrwt>
<pdfrwt beam="1">0</pdfrwt>
<pdfrwt beam="2">  1        2 0.38769675E+00 0.65304328E+03</pdfrwt>
<totfact> 0.44258866E+00</totfact>
</mgrwt>
</event>
<event>
 5    1  0.2368666E-004  0.6475426E+03  0.7818608E-02  0.9811401E-01
         13   -1    0    0    0    0  0.00000000000E+00  0.00000000000E+00  0.10000000000E+04  0.10000000000E+04  0.00000000000E+00 0. -1.
          2   -1    0    0  501    0 -0.00000000000E+00 -0.00000000000E+00 -0.10482786630E+03  0.10482786630E+03  0.00000000000E+00 0. -1.
    9000006    2    1    2  501    0  0.00000000000E+00  0.00000000000E+00  0.89517213370E+03  0.11048278663E+04  0.64754263581E+03 0.  0.
         13    1    3    3    0    0  0.12343499909E+03  0.99863205808E+02 -0.33845574764E+02  0.16234032711E+03  0.00000000000E+00 0. -1.
          2    1    3    3  501    0 -0.12343499909E+03 -0.99863205808E+02  0.92901770847E+03  0.94248753919E+03  0.00000000000E+00 0. -1.
<mgrwt>
<rscale>  0 0.64754264E+03</rscale>
<asrwt>0</asrwt>
<pdfrwt beam="1">0</pdfrwt>
<pdfrwt beam="2">  1        2 0.38119304E+00 0.64754264E+03</pdfrwt>
<totfact> 0.46802316E+00</totfact>
</mgrwt>
</event>
<event>
 5    1  0.2368666E-004  0.6594934E+03  0.7818608E-02  0.9789127E-01
         13   -1    0    0    0    0  0.00000000000E+00  0.00000000000E+00  0.10000000000E+04  0.10000000000E+04  0.00000000000E+00 0. -1.
          2   -1    0    0  501    0 -0.00000000000E+00 -0.00000000000E+00 -0.10873289055E+03  0.10873289055E+03  0.00000000000E+00 0. -1.
    9000006    2    1    2  501    0  0.00000000000E+00  0.00000000000E+00  0.89126710945E+03  0.11087328906E+04  0.65949341331E+03 0.  0.
         13    1    3    3    0    0  0.31884640039E+02  0.81085273257E+02  0.98029766442E+03  0.98416206119E+03  0.00000000000E+00 0. -1.
          2    1    3    3  501    0 -0.31884640039E+02 -0.81085273257E+02 -0.89030554972E+02  0.12457082936E+03  0.00000000000E+00 0. -1.
<mgrwt>
<rscale>  0 0.65949341E+03</rscale>
<asrwt>0</asrwt>
<pdfrwt beam="1">0</pdfrwt>
<pdfrwt beam="2">  1        2 0.39539316E+00 0.65949341E+03</pdfrwt>
<totfact> 0.41411007E+00</totfact>
</mgrwt>
</event>
<event>
 5    1  0.2368666E-004  0.6634738E+03  0.7818608E-02  0.9781820E-01
         13   -1    0    0    0    0  0.00000000000E+00  0.00000000000E+00  0.10000000000E+04  0.10000000000E+04  0.00000000000E+00 0. -1.
          2   -1    0    0  501    0 -0.00000000000E+00 -0.00000000000E+00 -0.11004937358E+03  0.11004937358E+03  0.00000000000E+00 0. -1.
    9000006    2    1    2  501    0  0.00000000000E+00  0.00000000000E+00  0.88995062642E+03  0.11100493736E+04  0.66347380832E+03 0.  0.
         13    1    3    3    0    0  0.78122327066E+02  0.32207588815E+03  0.46941600814E+03  0.57461932130E+03  0.00000000000E+00 0. -1.
          2    1    3    3  501    0 -0.78122327066E+02 -0.32207588815E+03  0.42053461828E+03  0.53543005228E+03  0.00000000000E+00 0. -1.
<mgrwt>
<rscale>  0 0.66347381E+03</rscale>
<asrwt>0</asrwt>
<pdfrwt beam="1">0</pdfrwt>
<pdfrwt beam="2">  1        2 0.40018038E+00 0.66347381E+03</pdfrwt>
<totfact> 0.39724143E+00</totfact>
</mgrwt>
</event>
<event>
 5    1  0.2368666E-004  0.6530485E+03  0.7818608E-02  0.9801076E-01
         13   -1    0    0    0    0  0.00000000000E+00  0.00000000000E+00  0.10000000000E+04  0.10000000000E+04  0.00000000000E+00 0. -1.
          2   -1    0    0  501    0 -0.00000000000E+00 -0.00000000000E+00 -0.10661808270E+03  0.10661808270E+03  0.00000000000E+00 0. -1.
    9000006    2    1    2  501    0  0.00000000000E+00  0.00000000000E+00  0.89338191730E+03  0.11066180827E+04  0.65304849039E+03 0.  0.
         13    1    3    3    0    0  0.20675248866E+03  0.10996394404E+03  0.61096368317E+02  0.24201534410E+03  0.00000000000E+00 0. -1.
          2    1    3    3  501    0 -0.20675248866E+03 -0.10996394404E+03  0.83228554898E+03  0.86460273860E+03  0.00000000000E+00 0. -1.
<mgrwt>
<rscale>  0 0.65304849E+03</rscale>
<asrwt>0</asrwt>
<pdfrwt beam="1">0</pdfrwt>
<pdfrwt beam="2">  1        2 0.38770294E+00 0.65304849E+03</pdfrwt>
<totfact> 0.44256507E+00</totfact>
</mgrwt>
</event>
<event>
 5    1  0.2368666E-004  0.6423791E+03  0.7818608E-02  0.9821185E-01
         13   -1    0    0    0    0  0.00000000000E+00  0.00000000000E+00  0.10000000000E+04  0.10000000000E+04  0.00000000000E+00 0. -1.
          2   -1    0    0  501    0 -0.00000000000E+00 -0.00000000000E+00 -0.10316273059E+03  0.10316273059E+03  0.00000000000E+00 0. -1.
    9000006    2    1    2  501    0  0.00000000000E+00  0.00000000000E+00  0.89683726941E+03  0.11031627306E+04  0.64237911109E+03 0.  0.
         13    1    3    3    0    0  0.19569924682E+02  0.31669903668E+03  0.53396520076E+03  0.62112808454E+03  0.00000000000E+00 0. -1.
          4    1    3    3  501    0 -0.19569924682E+02 -0.31669903668E+03  0.36287206865E+03  0.48203464605E+03  0.00000000000E+00 0. -1.
<mgrwt>
<rscale>  0 0.64237911E+03</rscale>
<asrwt>0</asrwt>
<pdfrwt beam="1">0</pdfrwt>
<pdfrwt beam="2">  1        2 0.37513799E+00 0.64237911E+03</pdfrwt>
<totfact> 0.49289034E+00</totfact>
</mgrwt>
</event>
<event>
 5    1  0.2368666E-004  0.6510678E+03  0.7818608E-02  0.9804778E-01
         13   -1    0    0    0    0  0.00000000000E+00  0.00000000000E+00  0.10000000000E+04  0.10000000000E+04  0.00000000000E+00 0. -1.
          2   -1    0    0  501    0 -0.00000000000E+00 -0.00000000000E+00 -0.10597230402E+03  0.10597230402E+03  0.00000000000E+00 0. -1.
    9000006    2    1    2  501    0  0.00000000000E+00  0.00000000000E+00  0.89402769598E+03  0.11059723040E+04  0.65106775076E+03 0.  0.
         13    1    3    3    0    0 -0.39644546877E+02 -0.98089800003E+02 -0.75952977369E+02  0.13023883343E+03  0.00000000000E+00 0. -1.
          4    1    3    3  501    0  0.39644546877E+02  0.98089800003E+02  0.96998067335E+03  0.97573347059E+03  0.00000000000E+00 0. -1.
<mgrwt>
<rscale>  0 0.65106775E+03</rscale>
<asrwt>0</asrwt>
<pdfrwt beam="1">0</pdfrwt>
<pdfrwt beam="2">  1        2 0.38535465E+00 0.65106775E+03</pdfrwt>
<totfact> 0.45159991E+00</totfact>
</mgrwt>
</event>
<event>
 5    1  0.2368666E-004  0.6407479E+03  0.7818608E-02  0.9824297E-01
         13   -1    0    0    0    0  0.00000000000E+00  0.00000000000E+00  0.10000000000E+04  0.10000000000E+04  0.00000000000E+00 0. -1.
          2   -1    0    0  501    0 -0.00000000000E+00 -0.00000000000E+00 -0.10263948261E+03  0.10263948261E+03  0.00000000000E+00 0. -1.
    9000006    2    1    2  501    0  0.00000000000E+00  0.00000000000E+00  0.89736051739E+03  0.11026394826E+04  0.64074794611E+03 0.  0.
         13    1    3    3    0    0 -0.22393041397E+03 -0.89916009750E+02  0.86032041471E+02  0.25618593105E+03  0.00000000000E+00 0. -1.
          2    1    3    3  501    0  0.22393041397E+03  0.89916009750E+02  0.81132847592E+03  0.84645355156E+03  0.00000000000E+00 0. -1.
<mgrwt>
<rscale>  0 0.64074795E+03</rscale>
<asrwt>0</asrwt>
<pdfrwt beam="1">0</pdfrwt>
<pdfrwt beam="2">  1        2 0.37323527E+00 0.64074795E+03</pdfrwt>
<totfact> 0.50095058E+00</totfact>
</mgrwt>
</event>
<event>
 5    1  0.2368666E-004  0.6576233E+03  0.7818608E-02  0.9792579E-01
         13   -1    0    0    0    0  0.00000000000E+00  0.00000000000E+00  0.10000000000E+04  0.10000000000E+04  0.00000000000E+00 0. -1.
          2   -1    0    0  501    0 -0.00000000000E+00 -0.00000000000E+00 -0.10811710530E+03  0.10811710530E+03  0.00000000000E+00 0. -1.
    9000006    2    1    2  501    0  0.00000000000E+00  0.00000000000E+00  0.89188289470E+03  0.11081171053E+04  0.65762331255E+03 0.  0.
         13    1    3    3    0    0 -0.28026961556E+03 -0.15886873434E+03  0.33510297760E+03  0.46484872566E+03  0.00000000000E+00 0. -1.
          2    1    3    3  501    0  0.28026961556E+03  0.15886873434E+03  0.55677991710E+03  0.64326837964E+03  0.00000000000E+00 0. -1.
<mgrwt>
<rscale>  0 0.65762331E+03</rscale>
<asrwt>0</asrwt>
<pdfrwt beam="1">0</pdfrwt>
<pdfrwt beam="2">  1        2 0.39315394E+00 0.65762331E+03</pdfrwt>
<totfact> 0.42221973E+00</totfact>
</mgrwt>
</event>
<event>
 5    1  0.2368666E-004  0.6562665E+03  0.7818608E-02  0.9795091E-01
         13   -1    0    0    0    0  0.00000000000E+00  0.00000000000E+00  0.10000000000E+04  0.10000000000E+04  0.00000000000E+00 0. -1.
          2   -1    0    0  501    0 -0.00000000000E+00 -0.00000000000E+00 -0.10767143506E+03  0.10767143506E+03  0.00000000000E+00 0. -1.
    9000006    2    1    2  501    0  0.00000000000E+00  0.00000000000E+00  0.89232856494E+03  0.11076714351E+04  0.65626651618E+03 0.  0.
         13    1    3    3    0    0  0.71083373816E+02 -0.16954296973E+03 -0.12585469602E+02  0.18427169794E+03  0.00000000000E+00 0. -1.
          4    1    3    3  501    0 -0.71083373816E+02  0.16954296973E+03  0.90491403454E+03  0.92339973712E+03  0.00000000000E+00 0. -1.
<mgrwt>
<rscale>  0 0.65626652E+03</rscale>
<asrwt>0</asrwt>
<pdfrwt beam="1">0</pdfrwt>
<pdfrwt beam="2">  1        2 0.39153332E+00 0.65626652E+03</pdfrwt>
<totfact> 0.42817843E+00</totfact>
</mgrwt>
</event>
<event>
 5    1  0.2368666E-004  0.6342408E+03  0.7818608E-02  0.9836808E-01
         13   -1    0    0    0    0  0.00000000000E+00  0.00000000000E+00  0.10000000000E+04  0.10000000000E+04  0.00000000000E+00 0. -1.
          2   -1    0    0  501    0 -0.00000000000E+00 -0.00000000000E+00 -0.10056534925E+03  0.10056534925E+03  0.00000000000E+00 0. -1.
    9000006    2    1    2  501    0  0.00000000000E+00  0.00000000000E+00  0.89943465075E+03  0.11005653493E+04  0.63424080365E+03 0.  0.
         13    1    3    3    0    0  0.11752487846E+03 -0.46088467601E+02 -0.55085214406E+02  0.13773389107E+03  0.00000000000E+00 0. -1.
          4    1    3    3  501    0 -0.11752487846E+03  0.46088467601E+02  0.95451986515E+03  0.96283145819E+03  0.00000000000E+00 0. -1.
<mgrwt>
<rscale>  0 0.63424080E+03</rscale>
<asrwt>0</asrwt>
<pdfrwt beam="1">0</pdfrwt>
<pdfrwt beam="2">  1        2 0.36569295E+00 0.63424080E+03</pdfrwt>
<totfact> 0.53410294E+00</totfact>
</mgrwt>
</event>
<event>
 5    1  0.2368666E-004  0.6442397E+03  0.7818608E-02  0.9817648E-01
         13   -1    0    0    0    0  0.00000000000E+00  0.00000000000E+00  0.10000000000E+04  0.10000000000E+04  0.00000000000E+00 0. -1.
          2   -1    0    0  501    0 -0.00000000000E+00 -0.00000000000E+00 -0.10376118964E+03  0.10376118964E+03  0.00000000000E+00 0. -1.
    9000006    2    1    2  501    0  0.00000000000E+00  0.00000000000E+00  0.89623881036E+03  0.11037611896E+04  0.64423967478E+03 0.  0.
         13    1    3    3    0    0 -0.16325626486E+03  0.26831300444E+03  0.57067219243E+03  0.65139176199E+03  0.00000000000E+00 0. -1.
          2    1    3    3  501    0  0.16325626486E+03 -0.26831300444E+03  0.32556661793E+03  0.45236942765E+03  0.00000000000E+00 0. -1.
<mgrwt>
<rscale>  0 0.64423967E+03</rscale>
<asrwt>0</asrwt>
<pdfrwt beam="1">0</pdfrwt>
<pdfrwt beam="2">  1        2 0.37731421E+00 0.64423967E+03</pdfrwt>
<totfact> 0.48381750E+00</totfact>
</mgrwt>
</event>
<event>
 5    1  0.2368666E-004  0.6458949E+03  0.7818608E-02  0.9814513E-01
         13   -1    0    0    0    0  0.00000000000E+00  0.00000000000E+00  0.10000000000E+04  0.10000000000E+04  0.00000000000E+00 0. -1.
          2   -1    0    0  501    0 -0.00000000000E+00 -0.00000000000E+00 -0.10429504530E+03  0.10429504530E+03  0.00000000000E+00 0. -1.
    9000006    2    1    2  501    0  0.00000000000E+00  0.00000000000E+00  0.89570495470E+03  0.11042950453E+04  0.64589486854E+03 0.  0.
         13    1    3    3    0    0  0.25635747162E+03  0.18519419519E+03  0.33601315164E+03  0.46143350687E+03  0.00000000000E+00 0. -1.
          2    1    3    3  501    0 -0.25635747162E+03 -0.18519419519E+03  0.55969180306E+03  0.64286153844E+03  0.00000000000E+00 0. -1.
<mgrwt>
<rscale>  0 0.64589487E+03</rscale>
<asrwt>0</asrwt>
<pdfrwt beam="1">0</pdfrwt>
<pdfrwt beam="2">  1        2 0.37925551E+00 0.64589487E+03</pdfrwt>
<totfact> 0.47585300E+00</totfact>
</mgrwt>
</event>
<event>
 5    1  0.2368666E-004  0.6412515E+03  0.7818608E-02  0.9823335E-01
         13   -1    0    0    0    0  0.00000000000E+00  0.00000000000E+00  0.10000000000E+04  0.10000000000E+04  0.00000000000E+00 0. -1.
          2   -1    0    0  501    0 -0.00000000000E+00 -0.00000000000E+00 -0.10280085766E+03  0.10280085766E+03  0.00000000000E+00 0. -1.
    9000006    2    1    2  501    0  0.00000000000E+00  0.00000000000E+00  0.89719914234E+03  0.11028008577E+04  0.64125145662E+03 0.  0.
         13    1    3    3    0    0  0.20668914695E+03 -0.17243214026E+03  0.14900703724E+03  0.30766271079E+03  0.00000000000E+00 0. -1.
          2    1    3    3  501    0 -0.20668914695E+03  0.17243214026E+03  0.74819210511E+03  0.79513814687E+03  0.00000000000E+00 0. -1.
<mgrwt>
<rscale>  0 0.64125146E+03</rscale>
<asrwt>0</asrwt>
<pdfrwt beam="1">0</pdfrwt>
<pdfrwt beam="2">  1        2 0.37382209E+00 0.64125146E+03</pdfrwt>
<totfact> 0.49845196E+00</totfact>
</mgrwt>
</event>
<event>
 5    1  0.2368666E-004  0.6571258E+03  0.7818608E-02  0.9793499E-01
         13   -1    0    0    0    0  0.00000000000E+00  0.00000000000E+00  0.10000000000E+04  0.10000000000E+04  0.00000000000E+00 0. -1.
          2   -1    0    0  501    0 -0.00000000000E+00 -0.00000000000E+00 -0.10795358447E+03  0.10795358447E+03  0.00000000000E+00 0. -1.
    9000006    2    1    2  501    0  0.00000000000E+00  0.00000000000E+00  0.89204641553E+03  0.11079535845E+04  0.65712581588E+03 0.  0.
         13    1    3    3    0    0 -0.10644263748E+03  0.15044976364E+03  0.90464523364E+03  0.92322703881E+03  0.00000000000E+00 0. -1.
          4    1    3    3  501    0  0.10644263748E+03 -0.15044976364E+03 -0.12598818111E+02  0.18472654566E+03  0.00000000000E+00 0. -1.
<mgrwt>
<rscale>  0 0.65712582E+03</rscale>
<asrwt>0</asrwt>
<pdfrwt beam="1">0</pdfrwt>
<pdfrwt beam="2">  1        2 0.39255932E+00 0.65712582E+03</pdfrwt>
<totfact> 0.42439729E+00</totfact>
</mgrwt>
</event>
<event>
 5    1  0.2368666E-004  0.6542349E+03  0.7818608E-02  0.9798865E-01
         13   -1    0    0    0    0  0.00000000000E+00  0.00000000000E+00  0.10000000000E+04  0.10000000000E+04  0.00000000000E+00 0. -1.
          2   -1    0    0  501    0 -0.00000000000E+00 -0.00000000000E+00 -0.10700582029E+03  0.10700582029E+03  0.00000000000E+00 0. -1.
    9000006    2    1    2  501    0  0.00000000000E+00  0.00000000000E+00  0.89299417971E+03  0.11070058203E+04  0.65423488226E+03 0.  0.
         13    1    3    3    0    0  0.42207508637E+02 -0.20024075833E+03  0.87831438216E+03  0.90183922569E+03  0.00000000000E+00 0. -1.
          2    1    3    3  501    0 -0.42207508637E+02  0.20024075833E+03  0.14679797545E+02  0.20516659460E+03  0.00000000000E+00 0. -1.
<mgrwt>
<rscale>  0 0.65423488E+03</rscale>
<asrwt>0</asrwt>
<pdfrwt beam="1">0</pdfrwt>
<pdfrwt beam="2">  1        2 0.38911289E+00 0.65423488E+03</pdfrwt>
<totfact> 0.43721932E+00</totfact>
</mgrwt>
</event>
<event>
 5    1  0.2368666E-004  0.6566487E+03  0.7818608E-02  0.9794383E-01
         13   -1    0    0    0    0  0.00000000000E+00  0.00000000000E+00  0.10000000000E+04  0.10000000000E+04  0.00000000000E+00 0. -1.
          2   -1    0    0  501    0 -0.00000000000E+00 -0.00000000000E+00 -0.10779686740E+03  0.10779686740E+03  0.00000000000E+00 0. -1.
    9000006    2    1    2  501    0  0.00000000000E+00  0.00000000000E+00  0.89220313260E+03  0.11077968674E+04  0.65664866527E+03 0.  0.
         13    1    3    3    0    0  0.12773226502E+03 -0.93357954743E+02 -0.39245126512E+02  0.16300742068E+03  0.00000000000E+00 0. -1.
          4    1    3    3  501    0 -0.12773226502E+03  0.93357954743E+02  0.93144825911E+03  0.94478944672E+03  0.00000000000E+00 0. -1.
<mgrwt>
<rscale>  0 0.65664867E+03</rscale>
<asrwt>0</asrwt>
<pdfrwt beam="1">0</pdfrwt>
<pdfrwt beam="2">  1        2 0.39198944E+00 0.65664867E+03</pdfrwt>
<totfact> 0.42649375E+00</totfact>
</mgrwt>
</event>
<event>
 5    1  0.2368666E-004  0.6320636E+03  0.7818608E-02  0.9841030E-01
         13   -1    0    0    0    0  0.00000000000E+00  0.00000000000E+00  0.10000000000E+04  0.10000000000E+04  0.00000000000E+00 0. -1.
          2   -1    0    0  501    0 -0.00000000000E+00 -0.00000000000E+00 -0.99876098426E+02  0.99876098426E+02  0.00000000000E+00 0. -1.
    9000006    2    1    2  501    0  0.00000000000E+00  0.00000000000E+00  0.90012390157E+03  0.10998760984E+04  0.63206359942E+03 0.  0.
         13    1    3    3    0    0 -0.23408162555E+03 -0.18031288998E+03  0.25497151184E+03  0.39027864092E+03  0.00000000000E+00 0. -1.
          4    1    3    3  501    0  0.23408162555E+03  0.18031288998E+03  0.64515238974E+03  0.70959745750E+03  0.00000000000E+00 0. -1.
<mgrwt>
<rscale>  0 0.63206360E+03</rscale>
<asrwt>0</asrwt>
<pdfrwt beam="1">0</pdfrwt>
<pdfrwt beam="2">  1        2 0.36318658E+00 0.63206360E+03</pdfrwt>
<totfact> 0.54555809E+00</totfact>
</mgrwt>
</event>
<event>
 5    1  0.2368666E-004  0.6529195E+03  0.7818608E-02  0.9801316E-01
         13   -1    0    0    0    0  0.00000000000E+00  0.00000000000E+00  0.10000000000E+04  0.10000000000E+04  0.00000000000E+00 0. -1.
          2   -1    0    0  501    0 -0.00000000000E+00 -0.00000000000E+00 -0.10657596123E+03  0.10657596123E+03  0.00000000000E+00 0. -1.
    9000006    2    1    2  501    0  0.00000000000E+00  0.00000000000E+00  0.89342403877E+03  0.11065759612E+04  0.65291947814E+03 0.  0.
         13    1    3    3    0    0  0.24243033933E+03 -0.10209242821E+03  0.77438822262E+03  0.81784622800E+03  0.00000000000E+00 0. -1.
          4    1    3    3  501    0 -0.24243033933E+03  0.10209242821E+03  0.11903581615E+03  0.28872973323E+03  0.00000000000E+00 0. -1.
<mgrwt>
<rscale>  0 0.65291948E+03</rscale>
<asrwt>0</asrwt>
<pdfrwt beam="1">0</pdfrwt>
<pdfrwt beam="2">  1        2 0.38754977E+00 0.65291948E+03</pdfrwt>
<totfact> 0.44314934E+00</totfact>
</mgrwt>
</event>
<event>
 5    1  0.2368666E-004  0.6600850E+03  0.7818608E-02  0.9788037E-01
         13   -1    0    0    0    0  0.00000000000E+00  0.00000000000E+00  0.10000000000E+04  0.10000000000E+04  0.00000000000E+00 0. -1.
          2   -1    0    0  501    0 -0.00000000000E+00 -0.00000000000E+00 -0.10892805173E+03  0.10892805173E+03  0.00000000000E+00 0. -1.
    9000006    2    1    2  501    0  0.00000000000E+00  0.00000000000E+00  0.89107194827E+03  0.11089280517E+04  0.66008499976E+03 0.  0.
         13    1    3    3    0    0 -0.23210912818E+03 -0.16062809453E+03  0.15820566919E+03  0.32358162170E+03  0.00000000000E+00 0. -1.
          4    1    3    3  501    0  0.23210912818E+03  0.16062809453E+03  0.73286627908E+03  0.78534643002E+03  0.00000000000E+00 0. -1.
<mgrwt>
<rscale>  0 0.66008500E+03</rscale>
<asrwt>0</asrwt>
<pdfrwt beam="1">0</pdfrwt>
<pdfrwt beam="2">  1        2 0.39610284E+00 0.66008500E+03</pdfrwt>
<totfact> 0.41156939E+00</totfact>
</mgrwt>
</event>
<event>
 5    1  0.2368666E-004  0.6474986E+03  0.7818608E-02  0.9811484E-01
         13   -1    0    0    0    0  0.00000000000E+00  0.00000000000E+00  0.10000000000E+04  0.10000000000E+04  0.00000000000E+00 0. -1.
          2   -1    0    0  501    0 -0.00000000000E+00 -0.00000000000E+00 -0.10481360209E+03  0.10481360209E+03  0.00000000000E+00 0. -1.
    9000006    2    1    2  501    0  0.00000000000E+00  0.00000000000E+00  0.89518639791E+03  0.11048136021E+04  0.64749857789E+03 0.  0.
         13    1    3    3    0    0 -0.22771943303E+03 -0.22692166704E+03  0.38230667564E+03  0.49950773506E+03  0.00000000000E+00 0. -1.
          2    1    3    3  501    0  0.22771943303E+03  0.22692166704E+03  0.51287972227E+03  0.60530586703E+03  0.00000000000E+00 0. -1.
<mgrwt>
<rscale>  0 0.64749858E+03</rscale>
<asrwt>0</asrwt>
<pdfrwt beam="1">0</pdfrwt>
<pdfrwt beam="2">  1        2 0.38114117E+00 0.64749858E+03</pdfrwt>
<totfact> 0.46823124E+00</totfact>
</mgrwt>
</event>
<event>
 5    1  0.2368666E-004  0.6533937E+03  0.7818608E-02  0.9800432E-01
         13   -1    0    0    0    0  0.00000000000E+00  0.00000000000E+00  0.10000000000E+04  0.10000000000E+04  0.00000000000E+00 0. -1.
          2   -1    0    0  501    0 -0.00000000000E+00 -0.00000000000E+00 -0.10673083468E+03  0.10673083468E+03  0.00000000000E+00 0. -1.
    9000006    2    1    2  501    0  0.00000000000E+00  0.00000000000E+00  0.89326916532E+03  0.11067308347E+04  0.65339370881E+03 0.  0.
         13    1    3    3    0    0 -0.22463636551E+03  0.11292775936E+03  0.93292931163E+02  0.26817484325E+03  0.00000000000E+00 0. -1.
          4    1    3    3  501    0  0.22463636551E+03 -0.11292775936E+03  0.79997623416E+03  0.83855599143E+03  0.00000000000E+00 0. -1.
<mgrwt>
<rscale>  0 0.65339371E+03</rscale>
<asrwt>0</asrwt>
<pdfrwt beam="1">0</pdfrwt>
<pdfrwt beam="2">  1        2 0.38811294E+00 0.65339371E+03</pdfrwt>
<totfact> 0.44100449E+00</totfact>
</mgrwt>
</event>
<event>
 5    1  0.2368666E-004  0.6594538E+03  0.7818608E-02  0.9789200E-01
         13   -1    0    0    0    0  0.00000000000E+00  0.00000000000E+00  0.10000000000E+04  0.10000000000E+04  0.00000000000E+00 0. -1.
          2   -1    0    0  501    0 -0.00000000000E+00 -0.00000000000E+00 -0.10871981518E+03  0.10871981518E+03  0.00000000000E+00 0. -1.
    9000006    2    1    2  501    0  0.00000000000E+00  0.00000000000E+00  0.89128018482E+03  0.11087198152E+04  0.65945375936E+03 0.  0.
         13    1    3    3    0    0  0.25160147257E+03 -0.14325233127E+02  0.88152504587E+02  0.26698197948E+03  0.00000000000E+00 0. -1.
          4    1    3    3  501    0 -0.25160147257E+03  0.14325233127E+02  0.80312768023E+03  0.84173783570E+03  0.00000000000E+00 0. -1.
<mgrwt>
<rscale>  0 0.65945376E+03</rscale>
<asrwt>0</asrwt>
<pdfrwt beam="1">0</pdfrwt>
<pdfrwt beam="2">  1        2 0.39534562E+00 0.65945376E+03</pdfrwt>
<totfact> 0.41428080E+00</totfact>
</mgrwt>
</event>
<event>
 5    1  0.2368666E-004  0.6569500E+03  0.7818608E-02  0.9793825E-01
         13   -1    0    0    0    0  0.00000000000E+00  0.00000000000E+00  0.10000000000E+04  0.10000000000E+04  0.00000000000E+00 0. -1.
          2   -1    0    0  501    0 -0.00000000000E+00 -0.00000000000E+00 -0.10789583267E+03  0.10789583267E+03  0.00000000000E+00 0. -1.
    9000006    2    1    2  501    0  0.00000000000E+00  0.00000000000E+00  0.89210416733E+03  0.11078958327E+04  0.65695002146E+03 0.  0.
         13    1    3    3    0    0  0.19823001240E+03 -0.51422664908E+02  0.87915896468E+03  0.90269591417E+03  0.00000000000E+00 0. -1.
          4    1    3    3  501    0 -0.19823001240E+03  0.51422664908E+02  0.12945202645E+02  0.20519991850E+03  0.00000000000E+00 0. -1.
<mgrwt>
<rscale>  0 0.65695002E+03</rscale>
<asrwt>0</asrwt>
<pdfrwt beam="1">0</pdfrwt>
<pdfrwt beam="2">  1        2 0.39234931E+00 0.65695002E+03</pdfrwt>
<totfact> 0.42516877E+00</totfact>
</mgrwt>
</event>
<event>
 5    1  0.2368666E-004  0.6541629E+03  0.7818608E-02  0.9798999E-01
         13   -1    0    0    0    0  0.00000000000E+00  0.00000000000E+00  0.10000000000E+04  0.10000000000E+04  0.00000000000E+00 0. -1.
          2   -1    0    0  501    0 -0.00000000000E+00 -0.00000000000E+00 -0.10698226257E+03  0.10698226257E+03  0.00000000000E+00 0. -1.
    9000006    2    1    2  501    0  0.00000000000E+00  0.00000000000E+00  0.89301773743E+03  0.11069822626E+04  0.65416286221E+03 0.  0.
         13    1    3    3    0    0 -0.14379942826E+03 -0.23937739127E+03  0.15832336432E+03  0.32100794182E+03  0.00000000000E+00 0. -1.
          2    1    3    3  501    0  0.14379942826E+03  0.23937739127E+03  0.73469437310E+03  0.78597432076E+03  0.00000000000E+00 0. -1.
<mgrwt>
<rscale>  0 0.65416286E+03</rscale>
<asrwt>0</asrwt>
<pdfrwt beam="1">0</pdfrwt>
<pdfrwt beam="2">  1        2 0.38902723E+00 0.65416286E+03</pdfrwt>
<totfact> 0.43754243E+00</totfact>
</mgrwt>
</event>
<event>
 5    1  0.2368666E-004  0.6512917E+03  0.7818608E-02  0.9804358E-01
         13   -1    0    0    0    0  0.00000000000E+00  0.00000000000E+00  0.10000000000E+04  0.10000000000E+04  0.00000000000E+00 0. -1.
          2   -1    0    0  501    0 -0.00000000000E+00 -0.00000000000E+00 -0.10604521071E+03  0.10604521071E+03  0.00000000000E+00 0. -1.
    9000006    2    1    2  501    0  0.00000000000E+00  0.00000000000E+00  0.89395478929E+03  0.11060452107E+04  0.65129167263E+03 0.  0.
         13    1    3    3    0    0 -0.19849815472E+03 -0.24933356058E+03  0.33335468617E+03  0.46118769352E+03  0.00000000000E+00 0. -1.
          4    1    3    3  501    0  0.19849815472E+03  0.24933356058E+03  0.56060010312E+03  0.64485751719E+03  0.00000000000E+00 0. -1.
<mgrwt>
<rscale>  0 0.65129167E+03</rscale>
<asrwt>0</asrwt>
<pdfrwt beam="1">0</pdfrwt>
<pdfrwt beam="2">  1        2 0.38561976E+00 0.65129167E+03</pdfrwt>
<totfact> 0.45057160E+00</totfact>
</mgrwt>
</event>
<event>
 5    1  0.2368666E-004  0.6499900E+03  0.7818608E-02  0.9806798E-01
         13   -1    0    0    0    0  0.00000000000E+00  0.00000000000E+00  0.10000000000E+04  0.10000000000E+04  0.00000000000E+00 0. -1.
          2   -1    0    0  501    0 -0.00000000000E+00 -0.00000000000E+00 -0.10562174809E+03  0.10562174809E+03  0.00000000000E+00 0. -1.
    9000006    2    1    2  501    0  0.00000000000E+00  0.00000000000E+00  0.89437825191E+03  0.11056217481E+04  0.64998999406E+03 0.  0.
         13    1    3    3    0    0 -0.13770863597E+03 -0.28473771003E+03  0.57428015501E+03  0.65561949969E+03  0.00000000000E+00 0. -1.
          4    1    3    3  501    0  0.13770863597E+03  0.28473771003E+03  0.32009809690E+03  0.45000224841E+03  0.00000000000E+00 0. -1.
<mgrwt>
<rscale>  0 0.64998999E+03</rscale>
<asrwt>0</asrwt>
<pdfrwt beam="1">0</pdfrwt>
<pdfrwt beam="2">  1        2 0.38407989E+00 0.64998999E+03</pdfrwt>
<totfact> 0.45657409E+00</totfact>
</mgrwt>
</event>
<event>
 5    1  0.2368666E-004  0.6295584E+03  0.7818608E-02  0.9845911E-01
         13   -1    0    0    0    0  0.00000000000E+00  0.00000000000E+00  0.10000000000E+04  0.10000000000E+04  0.00000000000E+00 0. -1.
          2   -1    0    0  501    0 -0.00000000000E+00 -0.00000000000E+00 -0.99085958150E+02  0.99085958150E+02  0.00000000000E+00 0. -1.
    9000006    2    1    2  501    0  0.00000000000E+00  0.00000000000E+00  0.90091404185E+03  0.10990859582E+04  0.62955844256E+03 0.  0.
         13    1    3    3    0    0  0.72218098662E+02 -0.26784015078E+03  0.19073576873E+03  0.33665105617E+03  0.00000000000E+00 0. -1.
          2    1    3    3  501    0 -0.72218098662E+02  0.26784015078E+03  0.71017827312E+03  0.76243490198E+03  0.00000000000E+00 0. -1.
<mgrwt>
<rscale>  0 0.62955844E+03</rscale>
<asrwt>0</asrwt>
<pdfrwt beam="1">0</pdfrwt>
<pdfrwt beam="2">  1        2 0.36031333E+00 0.62955844E+03</pdfrwt>
<totfact> 0.55896830E+00</totfact>
</mgrwt>
</event>
<event>
 5    1  0.2368666E-004  0.6486918E+03  0.7818608E-02  0.9809237E-01
         13   -1    0    0    0    0  0.00000000000E+00  0.00000000000E+00  0.10000000000E+04  0.10000000000E+04  0.00000000000E+00 0. -1.
          2   -1    0    0  501    0 -0.00000000000E+00 -0.00000000000E+00 -0.10520027039E+03  0.10520027039E+03  0.00000000000E+00 0. -1.
    9000006    2    1    2  501    0  0.00000000000E+00  0.00000000000E+00  0.89479972961E+03  0.11052002704E+04  0.64869182325E+03 0.  0.
         13    1    3    3    0    0 -0.69468678090E+02 -0.23993213784E+03  0.79990030435E+03  0.83799392892E+03  0.00000000000E+00 0. -1.
          4    1    3    3  501    0  0.69468678090E+02  0.23993213784E+03  0.94899425263E+02  0.26720634147E+03  0.00000000000E+00 0. -1.
<mgrwt>
<rscale>  0 0.64869182E+03</rscale>
<asrwt>0</asrwt>
<pdfrwt beam="1">0</pdfrwt>
<pdfrwt beam="2">  1        2 0.38254724E+00 0.64869182E+03</pdfrwt>
<totfact> 0.46262041E+00</totfact>
</mgrwt>
</event>
<event>
 5    1  0.2368666E-004  0.6513558E+03  0.7818608E-02  0.9804239E-01
         13   -1    0    0    0    0  0.00000000000E+00  0.00000000000E+00  0.10000000000E+04  0.10000000000E+04  0.00000000000E+00 0. -1.
          2   -1    0    0  501    0 -0.00000000000E+00 -0.00000000000E+00 -0.10606608233E+03  0.10606608233E+03  0.00000000000E+00 0. -1.
    9000006    2    1    2  501    0  0.00000000000E+00  0.00000000000E+00  0.89393391767E+03  0.11060660823E+04  0.65135576249E+03 0.  0.
         13    1    3    3    0    0  0.14370606658E+03  0.18411399702E+03  0.61544720547E+02  0.24153084710E+03  0.00000000000E+00 0. -1.
          2    1    3    3  501    0 -0.14370606658E+03 -0.18411399702E+03  0.83238919712E+03  0.86453523523E+03  0.00000000000E+00 0. -1.
<mgrwt>
<rscale>  0 0.65135576E+03</rscale>
<asrwt>0</asrwt>
<pdfrwt beam="1">0</pdfrwt>
<pdfrwt beam="2">  1        2 0.38569566E+00 0.65135576E+03</pdfrwt>
<totfact> 0.45027761E+00</totfact>
</mgrwt>
</event>
<event>
 5    1  0.2368666E-004  0.6572957E+03  0.7818608E-02  0.9793185E-01
         13   -1    0    0    0    0  0.00000000000E+00  0.00000000000E+00  0.10000000000E+04  0.10000000000E+04  0.00000000000E+00 0. -1.
          2   -1    0    0  501    0 -0.00000000000E+00 -0.00000000000E+00 -0.10800942278E+03  0.10800942278E+03  0.00000000000E+00 0. -1.
    9000006    2    1    2  501    0  0.00000000000E+00  0.00000000000E+00  0.89199057722E+03  0.11080094228E+04  0.65729574098E+03 0.  0.
         13    1    3    3    0    0 -0.24639047814E+03  0.67793218977E+02  0.79435120519E+03  0.83444474080E+03  0.00000000000E+00 0. -1.
          4    1    3    3  501    0  0.24639047814E+03 -0.67793218977E+02  0.97639372033E+02  0.27356468198E+03  0.00000000000E+00 0. -1.
<mgrwt>
<rscale>  0 0.65729574E+03</rscale>
<asrwt>0</asrwt>
<pdfrwt beam="1">0</pdfrwt>
<pdfrwt beam="2">  1        2 0.39276237E+00 0.65729574E+03</pdfrwt>
<totfact> 0.42365257E+00</totfact>
</mgrwt>
</event>
<event>
 5    1  0.2368666E-004  0.6417728E+03  0.7818608E-02  0.9822341E-01
         13   -1    0    0    0    0  0.00000000000E+00  0.00000000000E+00  0.10000000000E+04  0.10000000000E+04  0.00000000000E+00 0. -1.
          2   -1    0    0  501    0 -0.00000000000E+00 -0.00000000000E+00 -0.10296806689E+03  0.10296806689E+03  0.00000000000E+00 0. -1.
    9000006    2    1    2  501    0  0.00000000000E+00  0.00000000000E+00  0.89703193311E+03  0.11029680669E+04  0.64177275383E+03 0.  0.
         13    1    3    3    0    0  0.15704928332E+03  0.26619942988E+03  0.59677137170E+03  0.67205854205E+03  0.00000000000E+00 0. -1.
          4    1    3    3  501    0 -0.15704928332E+03 -0.26619942988E+03  0.30026056141E+03  0.43090952484E+03  0.00000000000E+00 0. -1.
<mgrwt>
<rscale>  0 0.64177275E+03</rscale>
<asrwt>0</asrwt>
<pdfrwt beam="1">0</pdfrwt>
<pdfrwt beam="2">  1        2 0.37443012E+00 0.64177275E+03</pdfrwt>
<totfact> 0.49587503E+00</totfact>
</mgrwt>
</event>
<event>
 5    1  0.2368666E-004  0.6535400E+03  0.7818608E-02  0.9800159E-01
         13   -1    0    0    0    0  0.00000000000E+00  0.00000000000E+00  0.10000000000E+04  0.10000000000E+04  0.00000000000E+00 0. -1.
          2   -1    0    0  501    0 -0.00000000000E+00 -0.00000000000E+00 -0.10677862778E+03  0.10677862778E+03  0.00000000000E+00 0. -1.
    9000006    2    1    2  501    0  0.00000000000E+00  0.00000000000E+00  0.89322137222E+03  0.11067786278E+04  0.65353998435E+03 0.  0.
         13    1    3    3    0    0 -0.94092442774E+02 -0.15318350661E+03  0.90872590583E+03  0.92633759851E+03  0.00000000000E+00 0. -1.
          2    1    3    3  501    0  0.94092442774E+02  0.15318350661E+03 -0.15504533611E+02  0.18044102928E+03  0.00000000000E+00 0. -1.
<mgrwt>
<rscale>  0 0.65353998E+03</rscale>
<asrwt>0</asrwt>
<pdfrwt beam="1">0</pdfrwt>
<pdfrwt beam="2">  1        2 0.38828674E+00 0.65353998E+03</pdfrwt>
<totfact> 0.44034450E+00</totfact>
</mgrwt>
</event>
<event>
 5    1  0.2368666E-004  0.6874499E+03  0.7818608E-02  0.9738938E-01
         13   -1    0    0    0    0  0.00000000000E+00  0.00000000000E+00  0.10000000000E+04  0.10000000000E+04  0.00000000000E+00 0. -1.
          2   -1    0    0  501    0 -0.00000000000E+00 -0.00000000000E+00 -0.11814685776E+03  0.11814685776E+03  0.00000000000E+00 0. -1.
    9000006    2    1    2  501    0  0.00000000000E+00  0.00000000000E+00  0.88185314224E+03  0.11181468578E+04  0.68744994804E+03 0.  0.
         13    1    3    3    0    0  0.18166197273E+03 -0.97619641030E+02  0.88819182705E+03  0.91181982227E+03  0.00000000000E+00 0. -1.
          4    1    3    3  501    0 -0.18166197273E+03  0.97619641030E+02 -0.63386848133E+01  0.20632703549E+03  0.00000000000E+00 0. -1.
<mgrwt>
<rscale>  0 0.68744995E+03</rscale>
<asrwt>0</asrwt>
<pdfrwt beam="1">0</pdfrwt>
<pdfrwt beam="2">  1        2 0.42962584E+00 0.68744995E+03</pdfrwt>
<totfact> 0.30631648E+00</totfact>
</mgrwt>
</event>
<event>
 5    1  0.2368666E-004  0.6522835E+03  0.7818608E-02  0.9802504E-01
         13   -1    0    0    0    0  0.00000000000E+00  0.00000000000E+00  0.10000000000E+04  0.10000000000E+04  0.00000000000E+00 0. -1.
          2   -1    0    0  501    0 -0.00000000000E+00 -0.00000000000E+00 -0.10636842668E+03  0.10636842668E+03  0.00000000000E+00 0. -1.
    9000006    2    1    2  501    0  0.00000000000E+00  0.00000000000E+00  0.89363157332E+03  0.11063684267E+04  0.65228345582E+03 0.  0.
         13    1    3    3    0    0 -0.25720568807E+03 -0.65286528416E+02  0.12521219503E+03  0.29341981963E+03  0.00000000000E+00 0. -1.
          2    1    3    3  501    0  0.25720568807E+03  0.65286528416E+02  0.76841937829E+03  0.81294860705E+03  0.00000000000E+00 0. -1.
<mgrwt>
<rscale>  0 0.65228346E+03</rscale>
<asrwt>0</asrwt>
<pdfrwt beam="1">0</pdfrwt>
<pdfrwt beam="2">  1        2 0.38679509E+00 0.65228346E+03</pdfrwt>
<totfact> 0.44603831E+00</totfact>
</mgrwt>
</event>
<event>
 5    1  0.2368666E-004  0.6419344E+03  0.7818608E-02  0.9822033E-01
         13   -1    0    0    0    0  0.00000000000E+00  0.00000000000E+00  0.10000000000E+04  0.10000000000E+04  0.00000000000E+00 0. -1.
          2   -1    0    0  501    0 -0.00000000000E+00 -0.00000000000E+00 -0.10301992880E+03  0.10301992880E+03  0.00000000000E+00 0. -1.
    9000006    2    1    2  501    0  0.00000000000E+00  0.00000000000E+00  0.89698007120E+03  0.11030199288E+04  0.64193435429E+03 0.  0.
         13    1    3    3    0    0  0.26648104954E+02  0.31213671136E+03  0.56852949799E+03  0.64912651938E+03  0.00000000000E+00 0. -1.
          2    1    3    3  501    0 -0.26648104954E+02 -0.31213671136E+03  0.32845057321E+03  0.45389340943E+03  0.00000000000E+00 0. -1.
<mgrwt>
<rscale>  0 0.64193435E+03</rscale>
<asrwt>0</asrwt>
<pdfrwt beam="1">0</pdfrwt>
<pdfrwt beam="2">  1        2 0.37461871E+00 0.64193435E+03</pdfrwt>
<totfact> 0.49507825E+00</totfact>
</mgrwt>
</event>
<event>
 5    1  0.2368666E-004  0.6532886E+03  0.7818608E-02  0.9800628E-01
         13   -1    0    0    0    0  0.00000000000E+00  0.00000000000E+00  0.10000000000E+04  0.10000000000E+04  0.00000000000E+00 0. -1.
          2   -1    0    0  501    0 -0.00000000000E+00 -0.00000000000E+00 -0.10669648364E+03  0.10669648364E+03  0.00000000000E+00 0. -1.
    9000006    2    1    2  501    0  0.00000000000E+00  0.00000000000E+00  0.89330351636E+03  0.11066964836E+04  0.65328855384E+03 0.  0.
         13    1    3    3    0    0 -0.14528834091E+03 -0.18454834892E+03  0.62102268130E+02  0.24294749803E+03  0.00000000000E+00 0. -1.
          4    1    3    3  501    0  0.14528834091E+03  0.18454834892E+03  0.83120124823E+03  0.86374898561E+03  0.00000000000E+00 0. -1.
<mgrwt>
<rscale>  0 0.65328855E+03</rscale>
<asrwt>0</asrwt>
<pdfrwt beam="1">0</pdfrwt>
<pdfrwt beam="2">  1        2 0.38798803E+00 0.65328855E+03</pdfrwt>
<totfact> 0.44147940E+00</totfact>
</mgrwt>
</event>
<event>
 5    1  0.2368666E-004  0.6436696E+03  0.7818608E-02  0.9818731E-01
         13   -1    0    0    0    0  0.00000000000E+00  0.00000000000E+00  0.10000000000E+04  0.10000000000E+04  0.00000000000E+00 0. -1.
          2   -1    0    0  501    0 -0.00000000000E+00 -0.00000000000E+00 -0.10357764083E+03  0.10357764083E+03  0.00000000000E+00 0. -1.
    9000006    2    1    2  501    0  0.00000000000E+00  0.00000000000E+00  0.89642235917E+03  0.11035776408E+04  0.64366960728E+03 0.  0.
         13    1    3    3    0    0  0.22375093151E+03 -0.66750415181E+02  0.68465546168E+02  0.24332617675E+03  0.00000000000E+00 0. -1.
          4    1    3    3  501    0 -0.22375093151E+03  0.66750415181E+02  0.82795681300E+03  0.86025146409E+03  0.00000000000E+00 0. -1.
<mgrwt>
<rscale>  0 0.64366961E+03</rscale>
<asrwt>0</asrwt>
<pdfrwt beam="1">0</pdfrwt>
<pdfrwt beam="2">  1        2 0.37664676E+00 0.64366961E+03</pdfrwt>
<totfact> 0.48658378E+00</totfact>
</mgrwt>
</event>
<event>
 5    1  0.2368666E-004  0.6581576E+03  0.7818608E-02  0.9791591E-01
         13   -1    0    0    0    0  0.00000000000E+00  0.00000000000E+00  0.10000000000E+04  0.10000000000E+04  0.00000000000E+00 0. -1.
          2   -1    0    0  501    0 -0.00000000000E+00 -0.00000000000E+00 -0.10829286534E+03  0.10829286534E+03  0.00000000000E+00 0. -1.
    9000006    2    1    2  501    0  0.00000000000E+00  0.00000000000E+00  0.89170713466E+03  0.11082928653E+04  0.65815762653E+03 0.  0.
         13    1    3    3    0    0 -0.28666348453E+03  0.15338330612E+03  0.53156015143E+03  0.62310399337E+03  0.00000000000E+00 0. -1.
          4    1    3    3  501    0  0.28666348453E+03 -0.15338330612E+03  0.36014698323E+03  0.48518887197E+03  0.00000000000E+00 0. -1.
<mgrwt>
<rscale>  0 0.65815763E+03</rscale>
<asrwt>0</asrwt>
<pdfrwt beam="1">0</pdfrwt>
<pdfrwt beam="2">  1        2 0.39379307E+00 0.65815763E+03</pdfrwt>
<totfact> 0.41989043E+00</totfact>
</mgrwt>
</event>
<event>
 5    1  0.2368666E-004  0.6425475E+03  0.7818608E-02  0.9820865E-01
         13   -1    0    0    0    0  0.00000000000E+00  0.00000000000E+00  0.10000000000E+04  0.10000000000E+04  0.00000000000E+00 0. -1.
          2   -1    0    0  501    0 -0.00000000000E+00 -0.00000000000E+00 -0.10321683781E+03  0.10321683781E+03  0.00000000000E+00 0. -1.
    9000006    2    1    2  501    0  0.00000000000E+00  0.00000000000E+00  0.89678316219E+03  0.11032168378E+04  0.64254754783E+03 0.  0.
         13    1    3    3    0    0 -0.20609587602E+03  0.11363893003E+03  0.72904890363E+02  0.24638270956E+03  0.00000000000E+00 0. -1.
          4    1    3    3  501    0  0.20609587602E+03 -0.11363893003E+03  0.82387827183E+03  0.85683412825E+03  0.00000000000E+00 0. -1.
<mgrwt>
<rscale>  0 0.64254755E+03</rscale>
<asrwt>0</asrwt>
<pdfrwt beam="1">0</pdfrwt>
<pdfrwt beam="2">  1        2 0.37533475E+00 0.64254755E+03</pdfrwt>
<totfact> 0.49206365E+00</totfact>
</mgrwt>
</event>
<event>
 5    1  0.2368666E-004  0.6459073E+03  0.7818608E-02  0.9814489E-01
         13   -1    0    0    0    0  0.00000000000E+00  0.00000000000E+00  0.10000000000E+04  0.10000000000E+04  0.00000000000E+00 0. -1.
          2   -1    0    0  501    0 -0.00000000000E+00 -0.00000000000E+00 -0.10429906910E+03  0.10429906910E+03  0.00000000000E+00 0. -1.
    9000006    2    1    2  501    0  0.00000000000E+00  0.00000000000E+00  0.89570093090E+03  0.11042990691E+04  0.64590732804E+03 0.  0.
         13    1    3    3    0    0 -0.10449476036E+02 -0.26258253625E+03  0.12690131811E+03  0.29182653141E+03  0.00000000000E+00 0. -1.
          2    1    3    3  501    0  0.10449476036E+02  0.26258253625E+03  0.76879961278E+03  0.81247253770E+03  0.00000000000E+00 0. -1.
<mgrwt>
<rscale>  0 0.64590733E+03</rscale>
<asrwt>0</asrwt>
<pdfrwt beam="1">0</pdfrwt>
<pdfrwt beam="2">  1        2 0.37927014E+00 0.64590733E+03</pdfrwt>
<totfact> 0.47579343E+00</totfact>
</mgrwt>
</event>
<event>
 5    1  0.2368666E-004  0.6463084E+03  0.7818608E-02  0.9813731E-01
         13   -1    0    0    0    0  0.00000000000E+00  0.00000000000E+00  0.10000000000E+04  0.10000000000E+04  0.00000000000E+00 0. -1.
          2   -1    0    0  501    0 -0.00000000000E+00 -0.00000000000E+00 -0.10442865273E+03  0.10442865273E+03  0.00000000000E+00 0. -1.
    9000006    2    1    2  501    0  0.00000000000E+00  0.00000000000E+00  0.89557134727E+03  0.11044286527E+04  0.64630844876E+03 0.  0.
         13    1    3    3    0    0  0.17717465828E+02 -0.31951101880E+03  0.37084194462E+03  0.48982134255E+03  0.00000000000E+00 0. -1.
          2    1    3    3  501    0 -0.17717465828E+02  0.31951101880E+03  0.52472940264E+03  0.61460731018E+03  0.00000000000E+00 0. -1.
<mgrwt>
<rscale>  0 0.64630845E+03</rscale>
<asrwt>0</asrwt>
<pdfrwt beam="1">0</pdfrwt>
<pdfrwt beam="2">  1        2 0.37974136E+00 0.64630845E+03</pdfrwt>
<totfact> 0.47387851E+00</totfact>
</mgrwt>
</event>
<event>
 5    1  0.2368666E-004  0.6630823E+03  0.7818608E-02  0.9782536E-01
         13   -1    0    0    0    0  0.00000000000E+00  0.00000000000E+00  0.10000000000E+04  0.10000000000E+04  0.00000000000E+00 0. -1.
          2   -1    0    0  501    0 -0.00000000000E+00 -0.00000000000E+00 -0.10991952048E+03  0.10991952048E+03  0.00000000000E+00 0. -1.
    9000006    2    1    2  501    0  0.00000000000E+00  0.00000000000E+00  0.89008047952E+03  0.11099195205E+04  0.66308225880E+03 0.  0.
         13    1    3    3    0    0  0.17556549019E+03 -0.23910684370E+03  0.69288852786E+03  0.75371734496E+03  0.00000000000E+00 0. -1.
          4    1    3    3  501    0 -0.17556549019E+03  0.23910684370E+03  0.19719195165E+03  0.35620217552E+03  0.00000000000E+00 0. -1.
<mgrwt>
<rscale>  0 0.66308226E+03</rscale>
<asrwt>0</asrwt>
<pdfrwt beam="1">0</pdfrwt>
<pdfrwt beam="2">  1        2 0.39970819E+00 0.66308226E+03</pdfrwt>
<totfact> 0.39887739E+00</totfact>
</mgrwt>
</event>
<event>
 5    1  0.2368666E-004  0.6502884E+03  0.7818608E-02  0.9806238E-01
         13   -1    0    0    0    0  0.00000000000E+00  0.00000000000E+00  0.10000000000E+04  0.10000000000E+04  0.00000000000E+00 0. -1.
          2   -1    0    0  501    0 -0.00000000000E+00 -0.00000000000E+00 -0.10571874124E+03  0.10571874124E+03  0.00000000000E+00 0. -1.
    9000006    2    1    2  501    0  0.00000000000E+00  0.00000000000E+00  0.89428125876E+03  0.11057187412E+04  0.65028837060E+03 0.  0.
         13    1    3    3    0    0 -0.16195262630E+03  0.10360033851E+03  0.89299941201E+03  0.91346025264E+03  0.00000000000E+00 0. -1.
          2    1    3    3  501    0  0.16195262630E+03 -0.10360033851E+03  0.12818467525E+01  0.19225848859E+03  0.00000000000E+00 0. -1.
<mgrwt>
<rscale>  0 0.65028837E+03</rscale>
<asrwt>0</asrwt>
<pdfrwt beam="1">0</pdfrwt>
<pdfrwt beam="2">  1        2 0.38443260E+00 0.65028837E+03</pdfrwt>
<totfact> 0.45519287E+00</totfact>
</mgrwt>
</event>
<event>
 5    1  0.2368666E-004  0.6535453E+03  0.7818608E-02  0.9800149E-01
         13   -1    0    0    0    0  0.00000000000E+00  0.00000000000E+00  0.10000000000E+04  0.10000000000E+04  0.00000000000E+00 0. -1.
          2   -1    0    0  501    0 -0.00000000000E+00 -0.00000000000E+00 -0.10678036161E+03  0.10678036161E+03  0.00000000000E+00 0. -1.
    9000006    2    1    2  501    0  0.00000000000E+00  0.00000000000E+00  0.89321963839E+03  0.11067803616E+04  0.65354529028E+03 0.  0.
         13    1    3    3    0    0 -0.18161111244E+03 -0.18364098472E+03  0.78562236481E+03  0.82698797302E+03  0.00000000000E+00 0. -1.
          2    1    3    3  501    0  0.18161111244E+03  0.18364098472E+03  0.10759727357E+03  0.27979238859E+03  0.00000000000E+00 0. -1.
<mgrwt>
<rscale>  0 0.65354529E+03</rscale>
<asrwt>0</asrwt>
<pdfrwt beam="1">0</pdfrwt>
<pdfrwt beam="2">  1        2 0.38829304E+00 0.65354529E+03</pdfrwt>
<totfact> 0.44032057E+00</totfact>
</mgrwt>
</event>
<event>
 5    1  0.2368666E-004  0.6530631E+03  0.7818608E-02  0.9801048E-01
         13   -1    0    0    0    0  0.00000000000E+00  0.00000000000E+00  0.10000000000E+04  0.10000000000E+04  0.00000000000E+00 0. -1.
          2   -1    0    0  501    0 -0.00000000000E+00 -0.00000000000E+00 -0.10662286588E+03  0.10662286588E+03  0.00000000000E+00 0. -1.
    9000006    2    1    2  501    0  0.00000000000E+00  0.00000000000E+00  0.89337713412E+03  0.11066228659E+04  0.65306313899E+03 0.  0.
         13    1    3    3    0    0 -0.26341650986E+03 -0.15690916348E+03  0.25637357879E+03  0.39967005786E+03  0.00000000000E+00 0. -1.
          2    1    3    3  501    0  0.26341650986E+03  0.15690916348E+03  0.63700355534E+03  0.70695280802E+03  0.00000000000E+00 0. -1.
<mgrwt>
<rscale>  0 0.65306314E+03</rscale>
<asrwt>0</asrwt>
<pdfrwt beam="1">0</pdfrwt>
<pdfrwt beam="2">  1        2 0.38772033E+00 0.65306314E+03</pdfrwt>
<totfact> 0.44249876E+00</totfact>
</mgrwt>
</event>
<event>
 5    1  0.2368666E-004  0.6558920E+03  0.7818608E-02  0.9795786E-01
         13   -1    0    0    0    0  0.00000000000E+00  0.00000000000E+00  0.10000000000E+04  0.10000000000E+04  0.00000000000E+00 0. -1.
          2   -1    0    0  501    0 -0.00000000000E+00 -0.00000000000E+00 -0.10754858370E+03  0.10754858370E+03  0.00000000000E+00 0. -1.
    9000006    2    1    2  501    0  0.00000000000E+00  0.00000000000E+00  0.89245141630E+03  0.11075485837E+04  0.65589201458E+03 0.  0.
         13    1    3    3    0    0  0.20596698733E+03 -0.13347608651E+02  0.15884021394E+02  0.20700932506E+03  0.00000000000E+00 0. -1.
          4    1    3    3  501    0 -0.20596698733E+03  0.13347608651E+02  0.87656739491E+03  0.90053925863E+03  0.00000000000E+00 0. -1.
<mgrwt>
<rscale>  0 0.65589201E+03</rscale>
<asrwt>0</asrwt>
<pdfrwt beam="1">0</pdfrwt>
<pdfrwt beam="2">  1        2 0.39108658E+00 0.65589201E+03</pdfrwt>
<totfact> 0.42983427E+00</totfact>
</mgrwt>
</event>
<event>
 5    1  0.2368666E-004  0.6352910E+03  0.7818608E-02  0.9834778E-01
         13   -1    0    0    0    0  0.00000000000E+00  0.00000000000E+00  0.10000000000E+04  0.10000000000E+04  0.00000000000E+00 0. -1.
          2   -1    0    0  501    0 -0.00000000000E+00 -0.00000000000E+00 -0.10089866383E+03  0.10089866383E+03  0.00000000000E+00 0. -1.
    9000006    2    1    2  501    0  0.00000000000E+00  0.00000000000E+00  0.89910133617E+03  0.11008986638E+04  0.63529100049E+03 0.  0.
         13    1    3    3    0    0  0.25212945463E+03  0.10596047528E+03  0.16958182630E+03  0.32179944068E+03  0.00000000000E+00 0. -1.
          2    1    3    3  501    0 -0.25212945463E+03 -0.10596047528E+03  0.72951950987E+03  0.77909922314E+03  0.00000000000E+00 0. -1.
<mgrwt>
<rscale>  0 0.63529100E+03</rscale>
<asrwt>0</asrwt>
<pdfrwt beam="1">0</pdfrwt>
<pdfrwt beam="2">  1        2 0.36690501E+00 0.63529100E+03</pdfrwt>
<totfact> 0.52864309E+00</totfact>
</mgrwt>
</event>
<event>
 5    1  0.2368666E-004  0.6301929E+03  0.7818608E-02  0.9844672E-01
         13   -1    0    0    0    0  0.00000000000E+00  0.00000000000E+00  0.10000000000E+04  0.10000000000E+04  0.00000000000E+00 0. -1.
          2   -1    0    0  501    0 -0.00000000000E+00 -0.00000000000E+00 -0.99285771288E+02  0.99285771288E+02  0.00000000000E+00 0. -1.
    9000006    2    1    2  501    0  0.00000000000E+00  0.00000000000E+00  0.90071422871E+03  0.10992857713E+04  0.63019289519E+03 0.  0.
         13    1    3    3    0    0 -0.22537907860E+03  0.59884718714E+01  0.66382307944E+02  0.23502808699E+03  0.00000000000E+00 0. -1.
          4    1    3    3  501    0  0.22537907860E+03 -0.59884718714E+01  0.83433192077E+03  0.86425768430E+03  0.00000000000E+00 0. -1.
<mgrwt>
<rscale>  0 0.63019290E+03</rscale>
<asrwt>0</asrwt>
<pdfrwt beam="1">0</pdfrwt>
<pdfrwt beam="2">  1        2 0.36103993E+00 0.63019290E+03</pdfrwt>
<totfact> 0.55554865E+00</totfact>
</mgrwt>
</event>
<event>
 5    1  0.2368666E-004  0.6440417E+03  0.7818608E-02  0.9818024E-01
         13   -1    0    0    0    0  0.00000000000E+00  0.00000000000E+00  0.10000000000E+04  0.10000000000E+04  0.00000000000E+00 0. -1.
          2   -1    0    0  501    0 -0.00000000000E+00 -0.00000000000E+00 -0.10369742490E+03  0.10369742490E+03  0.00000000000E+00 0. -1.
    9000006    2    1    2  501    0  0.00000000000E+00  0.00000000000E+00  0.89630257510E+03  0.11036974249E+04  0.64404169089E+03 0.  0.
         13    1    3    3    0    0  0.21961270202E+03  0.20679505133E+03  0.64130258062E+03  0.70870510937E+03  0.00000000000E+00 0. -1.
          2    1    3    3  501    0 -0.21961270202E+03 -0.20679505133E+03  0.25499999448E+03  0.39499231553E+03  0.00000000000E+00 0. -1.
<mgrwt>
<rscale>  0 0.64404169E+03</rscale>
<asrwt>0</asrwt>
<pdfrwt beam="1">0</pdfrwt>
<pdfrwt beam="2">  1        2 0.37708234E+00 0.64404169E+03</pdfrwt>
<totfact> 0.48477687E+00</totfact>
</mgrwt>
</event>
<event>
 5    1  0.2368666E-004  0.6499630E+03  0.7818608E-02  0.9806849E-01
         13   -1    0    0    0    0  0.00000000000E+00  0.00000000000E+00  0.10000000000E+04  0.10000000000E+04  0.00000000000E+00 0. -1.
          2   -1    0    0  501    0 -0.00000000000E+00 -0.00000000000E+00 -0.10561297011E+03  0.10561297011E+03  0.00000000000E+00 0. -1.
    9000006    2    1    2  501    0  0.00000000000E+00  0.00000000000E+00  0.89438702989E+03  0.11056129701E+04  0.64996298389E+03 0.  0.
         13    1    3    3    0    0 -0.10520423101E+02  0.10800337592E+03 -0.73884629558E+02  0.13127965188E+03  0.00000000000E+00 0. -1.
          2    1    3    3  501    0  0.10520423101E+02 -0.10800337592E+03  0.96827165945E+03  0.97433331823E+03  0.00000000000E+00 0. -1.
<mgrwt>
<rscale>  0 0.64996298E+03</rscale>
<asrwt>0</asrwt>
<pdfrwt beam="1">0</pdfrwt>
<pdfrwt beam="2">  1        2 0.38404797E+00 0.64996298E+03</pdfrwt>
<totfact> 0.45669928E+00</totfact>
</mgrwt>
</event>
<event>
 5    1  0.2368666E-004  0.6584377E+03  0.7818608E-02  0.9791074E-01
         13   -1    0    0    0    0  0.00000000000E+00  0.00000000000E+00  0.10000000000E+04  0.10000000000E+04  0.00000000000E+00 0. -1.
          2   -1    0    0  501    0 -0.00000000000E+00 -0.00000000000E+00 -0.10838505423E+03  0.10838505423E+03  0.00000000000E+00 0. -1.
    9000006    2    1    2  501    0  0.00000000000E+00  0.00000000000E+00  0.89161494577E+03  0.11083850542E+04  0.65843770922E+03 0.  0.
         13    1    3    3    0    0 -0.77455194522E+02 -0.31981036674E+03  0.46322645787E+03  0.56820483023E+03  0.00000000000E+00 0. -1.
          2    1    3    3  501    0  0.77455194522E+02  0.31981036674E+03  0.42838848790E+03  0.54018022400E+03  0.00000000000E+00 0. -1.
<mgrwt>
<rscale>  0 0.65843771E+03</rscale>
<asrwt>0</asrwt>
<pdfrwt beam="1">0</pdfrwt>
<pdfrwt beam="2">  1        2 0.39412830E+00 0.65843771E+03</pdfrwt>
<totfact> 0.41867339E+00</totfact>
</mgrwt>
</event>
<event>
 5    1  0.2368666E-004  0.5842280E+03  0.7818608E-02  0.9938679E-01
         13   -1    0    0    0    0  0.00000000000E+00  0.00000000000E+00  0.10000000000E+04  0.10000000000E+04  0.00000000000E+00 0. -1.
          2   -1    0    0  501    0 -0.00000000000E+00 -0.00000000000E+00 -0.85330589692E+02  0.85330589692E+02  0.00000000000E+00 0. -1.
    9000006    2    1    2  501    0  0.00000000000E+00  0.00000000000E+00  0.91466941031E+03  0.10853305897E+04  0.58422800238E+03 0.  0.
         13    1    3    3    0    0  0.23004090472E+03  0.13851167108E+03  0.67098262840E+03  0.72271847111E+03  0.00000000000E+00 0. -1.
          4    1    3    3  501    0 -0.23004090472E+03 -0.13851167108E+03  0.24368678191E+03  0.36261211858E+03  0.00000000000E+00 0. -1.
<mgrwt>
<rscale>  0 0.58422800E+03</rscale>
<asrwt>0</asrwt>
<pdfrwt beam="1">0</pdfrwt>
<pdfrwt beam="2">  1        2 0.31029371E+00 0.58422800E+03</pdfrwt>
<totfact> 0.84813603E+00</totfact>
</mgrwt>
</event>
<event>
 5    1  0.2368666E-004  0.6193788E+03  0.7818608E-02  0.9865997E-01
         13   -1    0    0    0    0  0.00000000000E+00  0.00000000000E+00  0.10000000000E+04  0.10000000000E+04  0.00000000000E+00 0. -1.
          2   -1    0    0  501    0 -0.00000000000E+00 -0.00000000000E+00 -0.95907530248E+02  0.95907530248E+02  0.00000000000E+00 0. -1.
    9000006    2    1    2  501    0  0.00000000000E+00  0.00000000000E+00  0.90409246975E+03  0.10959075302E+04  0.61937881865E+03 0.  0.
         13    1    3    3    0    0  0.85923250723E+02  0.15303429794E+03  0.57976951791E+00  0.17550680184E+03  0.00000000000E+00 0. -1.
          2    1    3    3  501    0 -0.85923250723E+02 -0.15303429794E+03  0.90351270023E+03  0.92040072840E+03  0.00000000000E+00 0. -1.
<mgrwt>
<rscale>  0 0.61937882E+03</rscale>
<asrwt>0</asrwt>
<pdfrwt beam="1">0</pdfrwt>
<pdfrwt beam="2">  1        2 0.34875539E+00 0.61937882E+03</pdfrwt>
<totfact> 0.61605884E+00</totfact>
</mgrwt>
</event>
<event>
 5    1  0.2368666E-004  0.6613680E+03  0.7818608E-02  0.9785679E-01
         13   -1    0    0    0    0  0.00000000000E+00  0.00000000000E+00  0.10000000000E+04  0.10000000000E+04  0.00000000000E+00 0. -1.
          2   -1    0    0  501    0 -0.00000000000E+00 -0.00000000000E+00 -0.10935190111E+03  0.10935190111E+03  0.00000000000E+00 0. -1.
    9000006    2    1    2  501    0  0.00000000000E+00  0.00000000000E+00  0.89064809889E+03  0.11093519011E+04  0.66136797960E+03 0.  0.
         13    1    3    3    0    0  0.11130105910E+03 -0.25770466146E+03  0.15213482804E+03  0.31928768250E+03  0.00000000000E+00 0. -1.
          2    1    3    3  501    0 -0.11130105910E+03  0.25770466146E+03  0.73851327085E+03  0.79006421861E+03  0.00000000000E+00 0. -1.
<mgrwt>
<rscale>  0 0.66136798E+03</rscale>
<asrwt>0</asrwt>
<pdfrwt beam="1">0</pdfrwt>
<pdfrwt beam="2">  1        2 0.39764412E+00 0.66136798E+03</pdfrwt>
<totfact> 0.40609983E+00</totfact>
</mgrwt>
</event>
<event>
 5    1  0.2368666E-004  0.6712199E+03  0.7818608E-02  0.9767757E-01
         13   -1    0    0    0    0  0.00000000000E+00  0.00000000000E+00  0.10000000000E+04  0.10000000000E+04  0.00000000000E+00 0. -1.
          2   -1    0    0  501    0 -0.00000000000E+00 -0.00000000000E+00 -0.11263403153E+03  0.11263403153E+03  0.00000000000E+00 0. -1.
    9000006    2    1    2  501    0  0.00000000000E+00  0.00000000000E+00  0.88736596847E+03  0.11126340315E+04  0.67121987912E+03 0.  0.
         13    1    3    3    0    0  0.23169694803E+03  0.12521458656E+03  0.98864668363E+02  0.28131191064E+03  0.00000000000E+00 0. -1.
          2    1    3    3  501    0 -0.23169694803E+03 -0.12521458656E+03  0.78850130011E+03  0.83132212089E+03  0.00000000000E+00 0. -1.
<mgrwt>
<rscale>  0 0.67121988E+03</rscale>
<asrwt>0</asrwt>
<pdfrwt beam="1">0</pdfrwt>
<pdfrwt beam="2">  1        2 0.40957916E+00 0.67121988E+03</pdfrwt>
<totfact> 0.36590466E+00</totfact>
</mgrwt>
</event>
<event>
 5    1  0.2368666E-004  0.6448954E+03  0.7818608E-02  0.9816405E-01
         13   -1    0    0    0    0  0.00000000000E+00  0.00000000000E+00  0.10000000000E+04  0.10000000000E+04  0.00000000000E+00 0. -1.
          2   -1    0    0  501    0 -0.00000000000E+00 -0.00000000000E+00 -0.10397253326E+03  0.10397253326E+03  0.00000000000E+00 0. -1.
    9000006    2    1    2  501    0  0.00000000000E+00  0.00000000000E+00  0.89602746674E+03  0.11039725333E+04  0.64489544350E+03 0.  0.
         13    1    3    3    0    0  0.94566737476E+02  0.30452486672E+03  0.53000947824E+03  0.61853723357E+03  0.00000000000E+00 0. -1.
          4    1    3    3  501    0 -0.94566737476E+02 -0.30452486672E+03  0.36601798850E+03  0.48543529969E+03  0.00000000000E+00 0. -1.
<mgrwt>
<rscale>  0 0.64489544E+03</rscale>
<asrwt>0</asrwt>
<pdfrwt beam="1">0</pdfrwt>
<pdfrwt beam="2">  1        2 0.37808274E+00 0.64489544E+03</pdfrwt>
<totfact> 0.48065009E+00</totfact>
</mgrwt>
</event>
<event>
 5    1  0.2368666E-004  0.6480793E+03  0.7818608E-02  0.9810390E-01
         13   -1    0    0    0    0  0.00000000000E+00  0.00000000000E+00  0.10000000000E+04  0.10000000000E+04  0.00000000000E+00 0. -1.
          2   -1    0    0  501    0 -0.00000000000E+00 -0.00000000000E+00 -0.10500167872E+03  0.10500167872E+03  0.00000000000E+00 0. -1.
    9000006    2    1    2  501    0  0.00000000000E+00  0.00000000000E+00  0.89499832128E+03  0.11050016787E+04  0.64807925045E+03 0.  0.
         13    1    3    3    0    0 -0.30116396660E+03  0.95738317697E+02  0.32530446982E+03  0.45352900496E+03  0.00000000000E+00 0. -1.
          4    1    3    3  501    0  0.30116396660E+03 -0.95738317697E+02  0.56969385146E+03  0.65147267375E+03  0.00000000000E+00 0. -1.
<mgrwt>
<rscale>  0 0.64807925E+03</rscale>
<asrwt>0</asrwt>
<pdfrwt beam="1">0</pdfrwt>
<pdfrwt beam="2">  1        2 0.38182509E+00 0.64807925E+03</pdfrwt>
<totfact> 0.46549443E+00</totfact>
</mgrwt>
</event>
<event>
 5    1  0.2368666E-004  0.5789280E+03  0.7818608E-02  0.9950115E-01
         13   -1    0    0    0    0  0.00000000000E+00  0.00000000000E+00  0.10000000000E+04  0.10000000000E+04  0.00000000000E+00 0. -1.
          2   -1    0    0  501    0 -0.00000000000E+00 -0.00000000000E+00 -0.83789402249E+02  0.83789402249E+02  0.00000000000E+00 0. -1.
    9000006    2    1    2  501    0  0.00000000000E+00  0.00000000000E+00  0.91621059775E+03  0.10837894022E+04  0.57892798256E+03 0.  0.
         13    1    3    3    0    0 -0.14563403464E+03  0.13054756405E+03  0.58616343102E+02  0.20417593934E+03  0.00000000000E+00 0. -1.
          2    1    3    3  501    0  0.14563403464E+03 -0.13054756405E+03  0.85759425465E+03  0.87961346291E+03  0.00000000000E+00 0. -1.
<mgrwt>
<rscale>  0 0.57892798E+03</rscale>
<asrwt>0</asrwt>
<pdfrwt beam="1">0</pdfrwt>
<pdfrwt beam="2">  1        2 0.30468938E+00 0.57892798E+03</pdfrwt>
<totfact> 0.88827437E+00</totfact>
</mgrwt>
</event>
<event>
 5    1  0.2368666E-004  0.6366155E+03  0.7818608E-02  0.9832224E-01
         13   -1    0    0    0    0  0.00000000000E+00  0.00000000000E+00  0.10000000000E+04  0.10000000000E+04  0.00000000000E+00 0. -1.
          2   -1    0    0  501    0 -0.00000000000E+00 -0.00000000000E+00 -0.10131982109E+03  0.10131982109E+03  0.00000000000E+00 0. -1.
    9000006    2    1    2  501    0  0.00000000000E+00  0.00000000000E+00  0.89868017891E+03  0.11013198211E+04  0.63661549176E+03 0.  0.
         13    1    3    3    0    0 -0.11313588218E+03  0.29391471279E+03  0.36941974321E+03  0.48544467543E+03  0.00000000000E+00 0. -1.
          4    1    3    3  501    0  0.11313588218E+03 -0.29391471279E+03  0.52926043571E+03  0.61587514566E+03  0.00000000000E+00 0. -1.
<mgrwt>
<rscale>  0 0.63661549E+03</rscale>
<asrwt>0</asrwt>
<pdfrwt beam="1">0</pdfrwt>
<pdfrwt beam="2">  1        2 0.36843649E+00 0.63661549E+03</pdfrwt>
<totfact> 0.52181767E+00</totfact>
</mgrwt>
</event>
<event>
 5    1  0.2368666E-004  0.6480951E+03  0.7818608E-02  0.9810360E-01
         13   -1    0    0    0    0  0.00000000000E+00  0.00000000000E+00  0.10000000000E+04  0.10000000000E+04  0.00000000000E+00 0. -1.
          2   -1    0    0  501    0 -0.00000000000E+00 -0.00000000000E+00 -0.10500682594E+03  0.10500682594E+03  0.00000000000E+00 0. -1.
    9000006    2    1    2  501    0  0.00000000000E+00  0.00000000000E+00  0.89499317406E+03  0.11050068259E+04  0.64809513482E+03 0.  0.
         13    1    3    3    0    0 -0.13173309628E+03  0.29170018663E+03  0.36115824467E+03  0.48257422769E+03  0.00000000000E+00 0. -1.
          4    1    3    3  501    0  0.13173309628E+03 -0.29170018663E+03  0.53383492939E+03  0.62243259826E+03  0.00000000000E+00 0. -1.
<mgrwt>
<rscale>  0 0.64809513E+03</rscale>
<asrwt>0</asrwt>
<pdfrwt beam="1">0</pdfrwt>
<pdfrwt beam="2">  1        2 0.38184381E+00 0.64809513E+03</pdfrwt>
<totfact> 0.46541974E+00</totfact>
</mgrwt>
</event>
<event>
 5    1  0.2368666E-004  0.6486487E+03  0.7818608E-02  0.9809318E-01
         13   -1    0    0    0    0  0.00000000000E+00  0.00000000000E+00  0.10000000000E+04  0.10000000000E+04  0.00000000000E+00 0. -1.
          2   -1    0    0  501    0 -0.00000000000E+00 -0.00000000000E+00 -0.10518628450E+03  0.10518628450E+03  0.00000000000E+00 0. -1.
    9000006    2    1    2  501    0  0.00000000000E+00  0.00000000000E+00  0.89481371550E+03  0.11051862845E+04  0.64864870152E+03 0.  0.
         13    1    3    3    0    0 -0.56431609510E+02  0.15837126387E+03  0.91995539190E+03  0.93519190911E+03  0.00000000000E+00 0. -1.
          2    1    3    3  501    0  0.56431609510E+02 -0.15837126387E+03 -0.25141676398E+02  0.16999437539E+03  0.00000000000E+00 0. -1.
<mgrwt>
<rscale>  0 0.64864870E+03</rscale>
<asrwt>0</asrwt>
<pdfrwt beam="1">0</pdfrwt>
<pdfrwt beam="2">  1        2 0.38249639E+00 0.64864870E+03</pdfrwt>
<totfact> 0.46282229E+00</totfact>
</mgrwt>
</event>
<event>
 5    1  0.2368666E-004  0.6496779E+03  0.7818608E-02  0.9807384E-01
         13   -1    0    0    0    0  0.00000000000E+00  0.00000000000E+00  0.10000000000E+04  0.10000000000E+04  0.00000000000E+00 0. -1.
          2   -1    0    0  501    0 -0.00000000000E+00 -0.00000000000E+00 -0.10552034063E+03  0.10552034063E+03  0.00000000000E+00 0. -1.
    9000006    2    1    2  501    0  0.00000000000E+00  0.00000000000E+00  0.89447965937E+03  0.11055203406E+04  0.64967789135E+03 0.  0.
         13    1    3    3    0    0  0.28487393034E+03 -0.16573578615E+02  0.18311477987E+03  0.33905583950E+03  0.00000000000E+00 0. -1.
          4    1    3    3  501    0 -0.28487393034E+03  0.16573578615E+02  0.71136487950E+03  0.76646450113E+03  0.00000000000E+00 0. -1.
<mgrwt>
<rscale>  0 0.64967789E+03</rscale>
<asrwt>0</asrwt>
<pdfrwt beam="1">0</pdfrwt>
<pdfrwt beam="2">  1        2 0.38371114E+00 0.64967789E+03</pdfrwt>
<totfact> 0.45802225E+00</totfact>
</mgrwt>
</event>
<event>
 5    1  0.2368666E-004  0.6184882E+03  0.7818608E-02  0.9867774E-01
         13   -1    0    0    0    0  0.00000000000E+00  0.00000000000E+00  0.10000000000E+04  0.10000000000E+04  0.00000000000E+00 0. -1.
          2   -1    0    0  501    0 -0.00000000000E+00 -0.00000000000E+00 -0.95631923175E+02  0.95631923175E+02  0.00000000000E+00 0. -1.
    9000006    2    1    2  501    0  0.00000000000E+00  0.00000000000E+00  0.90436807682E+03  0.10956319232E+04  0.61848823166E+03 0.  0.
         13    1    3    3    0    0 -0.14057267685E+03 -0.25108485576E+03  0.25154906712E+03  0.38220572397E+03  0.00000000000E+00 0. -1.
          2    1    3    3  501    0  0.14057267685E+03  0.25108485576E+03  0.65281900971E+03  0.71342619920E+03  0.00000000000E+00 0. -1.
<mgrwt>
<rscale>  0 0.61848823E+03</rscale>
<asrwt>0</asrwt>
<pdfrwt beam="1">0</pdfrwt>
<pdfrwt beam="2">  1        2 0.34775318E+00 0.61848823E+03</pdfrwt>
<totfact> 0.62125653E+00</totfact>
</mgrwt>
</event>
<event>
 5    1  0.2368666E-004  0.6008404E+03  0.7818608E-02  0.9903664E-01
         13   -1    0    0    0    0  0.00000000000E+00  0.00000000000E+00  0.10000000000E+04  0.10000000000E+04  0.00000000000E+00 0. -1.
          2   -1    0    0  501    0 -0.00000000000E+00 -0.00000000000E+00 -0.90252303920E+02  0.90252303920E+02  0.00000000000E+00 0. -1.
    9000006    2    1    2  501    0  0.00000000000E+00  0.00000000000E+00  0.90974769608E+03  0.10902523039E+04  0.60084042447E+03 0.  0.
         13    1    3    3    0    0 -0.16376419089E+03 -0.77128083863E+01 -0.19237301999E+01  0.16395700159E+03  0.00000000000E+00 0. -1.
          4    1    3    3  501    0  0.16376419089E+03  0.77128083863E+01  0.91167142628E+03  0.92629530233E+03  0.00000000000E+00 0. -1.
<mgrwt>
<rscale>  0 0.60084042E+03</rscale>
<asrwt>0</asrwt>
<pdfrwt beam="1">0</pdfrwt>
<pdfrwt beam="2">  1        2 0.32819089E+00 0.60084042E+03</pdfrwt>
<totfact> 0.73133999E+00</totfact>
</mgrwt>
</event>
<event>
 5    1  0.2368666E-004  0.6480909E+03  0.7818608E-02  0.9810368E-01
         13   -1    0    0    0    0  0.00000000000E+00  0.00000000000E+00  0.10000000000E+04  0.10000000000E+04  0.00000000000E+00 0. -1.
          2   -1    0    0  501    0 -0.00000000000E+00 -0.00000000000E+00 -0.10500544537E+03  0.10500544537E+03  0.00000000000E+00 0. -1.
    9000006    2    1    2  501    0  0.00000000000E+00  0.00000000000E+00  0.89499455463E+03  0.11050054454E+04  0.64809087440E+03 0.  0.
         13    1    3    3    0    0  0.76994109609E+02 -0.30365008736E+03  0.30613532123E+03  0.43800719557E+03  0.00000000000E+00 0. -1.
          4    1    3    3  501    0 -0.76994109609E+02  0.30365008736E+03  0.58885923340E+03  0.66699824980E+03  0.00000000000E+00 0. -1.
<mgrwt>
<rscale>  0 0.64809087E+03</rscale>
<asrwt>0</asrwt>
<pdfrwt beam="1">0</pdfrwt>
<pdfrwt beam="2">  1        2 0.38183879E+00 0.64809087E+03</pdfrwt>
<totfact> 0.46543977E+00</totfact>
</mgrwt>
</event>
<event>
 5    1  0.2368666E-004  0.6442501E+03  0.7818608E-02  0.9817629E-01
         13   -1    0    0    0    0  0.00000000000E+00  0.00000000000E+00  0.10000000000E+04  0.10000000000E+04  0.00000000000E+00 0. -1.
          2   -1    0    0  501    0 -0.00000000000E+00 -0.00000000000E+00 -0.10376454013E+03  0.10376454013E+03  0.00000000000E+00 0. -1.
    9000006    2    1    2  501    0  0.00000000000E+00  0.00000000000E+00  0.89623545987E+03  0.11037645401E+04  0.64425007608E+03 0.  0.
         13    1    3    3    0    0  0.40531273148E+02  0.31348595757E+03  0.34183639309E+03  0.46558388002E+03  0.00000000000E+00 0. -1.
          4    1    3    3  501    0 -0.40531273148E+02 -0.31348595757E+03  0.55439906678E+03  0.63818066011E+03  0.00000000000E+00 0. -1.
<mgrwt>
<rscale>  0 0.64425008E+03</rscale>
<asrwt>0</asrwt>
<pdfrwt beam="1">0</pdfrwt>
<pdfrwt beam="2">  1        2 0.37732640E+00 0.64425008E+03</pdfrwt>
<totfact> 0.48376713E+00</totfact>
</mgrwt>
</event>
<event>
 5    1  0.2368666E-004  0.6452462E+03  0.7818608E-02  0.9815741E-01
         13   -1    0    0    0    0  0.00000000000E+00  0.00000000000E+00  0.10000000000E+04  0.10000000000E+04  0.00000000000E+00 0. -1.
          2   -1    0    0  501    0 -0.00000000000E+00 -0.00000000000E+00 -0.10408565013E+03  0.10408565013E+03  0.00000000000E+00 0. -1.
    9000006    2    1    2  501    0  0.00000000000E+00  0.00000000000E+00  0.89591434987E+03  0.11040856501E+04  0.64524615498E+03 0.  0.
         13    1    3    3    0    0  0.29957328608E+03  0.41955034642E+02  0.25602861412E+03  0.39630169052E+03  0.00000000000E+00 0. -1.
          2    1    3    3  501    0 -0.29957328608E+03 -0.41955034642E+02  0.63988573575E+03  0.70778395961E+03  0.00000000000E+00 0. -1.
<mgrwt>
<rscale>  0 0.64524615E+03</rscale>
<asrwt>0</asrwt>
<pdfrwt beam="1">0</pdfrwt>
<pdfrwt beam="2">  1        2 0.37849407E+00 0.64524615E+03</pdfrwt>
<totfact> 0.47896258E+00</totfact>
</mgrwt>
</event>
<event>
 5    1  0.2368666E-004  0.6459016E+03  0.7818608E-02  0.9814500E-01
         13   -1    0    0    0    0  0.00000000000E+00  0.00000000000E+00  0.10000000000E+04  0.10000000000E+04  0.00000000000E+00 0. -1.
          2   -1    0    0  501    0 -0.00000000000E+00 -0.00000000000E+00 -0.10429723487E+03  0.10429723487E+03  0.00000000000E+00 0. -1.
    9000006    2    1    2  501    0  0.00000000000E+00  0.00000000000E+00  0.89570276513E+03  0.11042972349E+04  0.64590164846E+03 0.  0.
         13    1    3    3    0    0  0.13505351744E+03 -0.84352405870E+02  0.92822030504E+03  0.94177901635E+03  0.00000000000E+00 0. -1.
          2    1    3    3  501    0 -0.13505351744E+03  0.84352405870E+02 -0.32517539914E+02  0.16251821852E+03  0.00000000000E+00 0. -1.
<mgrwt>
<rscale>  0 0.64590165E+03</rscale>
<asrwt>0</asrwt>
<pdfrwt beam="1">0</pdfrwt>
<pdfrwt beam="2">  1        2 0.37926347E+00 0.64590165E+03</pdfrwt>
<totfact> 0.47582058E+00</totfact>
</mgrwt>
</event>
<event>
 5    1  0.2368666E-004  0.6421329E+03  0.7818608E-02  0.9821654E-01
         13   -1    0    0    0    0  0.00000000000E+00  0.00000000000E+00  0.10000000000E+04  0.10000000000E+04  0.00000000000E+00 0. -1.
          2   -1    0    0  501    0 -0.00000000000E+00 -0.00000000000E+00 -0.10308368054E+03  0.10308368054E+03  0.00000000000E+00 0. -1.
    9000006    2    1    2  501    0  0.00000000000E+00  0.00000000000E+00  0.89691631946E+03  0.11030836805E+04  0.64213294741E+03 0.  0.
         13    1    3    3    0    0 -0.48255499226E+02  0.18618613159E+03  0.68360958792E+01  0.19245934898E+03  0.00000000000E+00 0. -1.
          4    1    3    3  501    0  0.48255499226E+02 -0.18618613159E+03  0.89008022358E+03  0.91062433155E+03  0.00000000000E+00 0. -1.
<mgrwt>
<rscale>  0 0.64213295E+03</rscale>
<asrwt>0</asrwt>
<pdfrwt beam="1">0</pdfrwt>
<pdfrwt beam="2">  1        2 0.37485054E+00 0.64213295E+03</pdfrwt>
<totfact> 0.49410039E+00</totfact>
</mgrwt>
</event>
<event>
 5    1  0.2368666E-004  0.6316791E+03  0.7818608E-02  0.9841778E-01
         13   -1    0    0    0    0  0.00000000000E+00  0.00000000000E+00  0.10000000000E+04  0.10000000000E+04  0.00000000000E+00 0. -1.
          2   -1    0    0  501    0 -0.00000000000E+00 -0.00000000000E+00 -0.99754630101E+02  0.99754630101E+02  0.00000000000E+00 0. -1.
    9000006    2    1    2  501    0  0.00000000000E+00  0.00000000000E+00  0.90024536990E+03  0.10997546301E+04  0.63167912773E+03 0.  0.
         13    1    3    3    0    0 -0.29149574938E+03  0.94983069229E+02  0.31795466045E+03  0.44168622510E+03  0.00000000000E+00 0. -1.
          2    1    3    3  501    0  0.29149574938E+03 -0.94983069229E+02  0.58229070945E+03  0.65806840500E+03  0.00000000000E+00 0. -1.
<mgrwt>
<rscale>  0 0.63167913E+03</rscale>
<asrwt>0</asrwt>
<pdfrwt beam="1">0</pdfrwt>
<pdfrwt beam="2">  1        2 0.36274487E+00 0.63167913E+03</pdfrwt>
<totfact> 0.54760015E+00</totfact>
</mgrwt>
</event>
<event>
 5    1  0.2368666E-004  0.6296602E+03  0.7818608E-02  0.9845712E-01
         13   -1    0    0    0    0  0.00000000000E+00  0.00000000000E+00  0.10000000000E+04  0.10000000000E+04  0.00000000000E+00 0. -1.
          2   -1    0    0  501    0 -0.00000000000E+00 -0.00000000000E+00 -0.99117996918E+02  0.99117996918E+02  0.00000000000E+00 0. -1.
    9000006    2    1    2  501    0  0.00000000000E+00  0.00000000000E+00  0.90088200308E+03  0.10991179969E+04  0.62966021605E+03 0.  0.
         13    1    3    3    0    0 -0.10204296248E+03 -0.26067296748E+03  0.70191767389E+03  0.75567955053E+03  0.00000000000E+00 0. -1.
          4    1    3    3  501    0  0.10204296248E+03  0.26067296748E+03  0.19896432919E+03  0.34343844639E+03  0.00000000000E+00 0. -1.
<mgrwt>
<rscale>  0 0.62966022E+03</rscale>
<asrwt>0</asrwt>
<pdfrwt beam="1">0</pdfrwt>
<pdfrwt beam="2">  1        2 0.36042984E+00 0.62966022E+03</pdfrwt>
<totfact> 0.55841867E+00</totfact>
</mgrwt>
</event>
<event>
 5    1  0.2368666E-004  0.6529607E+03  0.7818608E-02  0.9801240E-01
         13   -1    0    0    0    0  0.00000000000E+00  0.00000000000E+00  0.10000000000E+04  0.10000000000E+04  0.00000000000E+00 0. -1.
          2   -1    0    0  501    0 -0.00000000000E+00 -0.00000000000E+00 -0.10658940627E+03  0.10658940627E+03  0.00000000000E+00 0. -1.
    9000006    2    1    2  501    0  0.00000000000E+00  0.00000000000E+00  0.89341059373E+03  0.11065894063E+04  0.65296066119E+03 0.  0.
         13    1    3    3    0    0 -0.27788812418E+03 -0.16928960689E+03  0.40159164942E+03  0.51687197007E+03  0.00000000000E+00 0. -1.
          4    1    3    3  501    0  0.27788812418E+03  0.16928960689E+03  0.49181894431E+03  0.58971743619E+03  0.00000000000E+00 0. -1.
<mgrwt>
<rscale>  0 0.65296066E+03</rscale>
<asrwt>0</asrwt>
<pdfrwt beam="1">0</pdfrwt>
<pdfrwt beam="2">  1        2 0.38759866E+00 0.65296066E+03</pdfrwt>
<totfact> 0.44296277E+00</totfact>
</mgrwt>
</event>
<event>
 5    1  0.2368666E-004  0.6397663E+03  0.7818608E-02  0.9826174E-01
         13   -1    0    0    0    0  0.00000000000E+00  0.00000000000E+00  0.10000000000E+04  0.10000000000E+04  0.00000000000E+00 0. -1.
          2   -1    0    0  501    0 -0.00000000000E+00 -0.00000000000E+00 -0.10232523406E+03  0.10232523406E+03  0.00000000000E+00 0. -1.
    9000006    2    1    2  501    0  0.00000000000E+00  0.00000000000E+00  0.89767476594E+03  0.11023252341E+04  0.63976631376E+03 0.  0.
         13    1    3    3    0    0 -0.13902991625E+03 -0.22904626605E+03  0.74991486221E+03  0.79634402752E+03  0.00000000000E+00 0. -1.
          4    1    3    3  501    0  0.13902991625E+03  0.22904626605E+03  0.14775990373E+03  0.30598120653E+03  0.00000000000E+00 0. -1.
<mgrwt>
<rscale>  0 0.63976631E+03</rscale>
<asrwt>0</asrwt>
<pdfrwt beam="1">0</pdfrwt>
<pdfrwt beam="2">  1        2 0.37209254E+00 0.63976631E+03</pdfrwt>
<totfact> 0.50584909E+00</totfact>
</mgrwt>
</event>
<event>
 5    1  0.2368666E-004  0.6444594E+03  0.7818608E-02  0.9817232E-01
         13   -1    0    0    0    0  0.00000000000E+00  0.00000000000E+00  0.10000000000E+04  0.10000000000E+04  0.00000000000E+00 0. -1.
          2   -1    0    0  501    0 -0.00000000000E+00 -0.00000000000E+00 -0.10383198394E+03  0.10383198394E+03  0.00000000000E+00 0. -1.
    9000006    2    1    2  501    0  0.00000000000E+00  0.00000000000E+00  0.89616801606E+03  0.11038319839E+04  0.64445941360E+03 0.  0.
         13    1    3    3    0    0 -0.12639595760E+03 -0.15907081711E+03  0.87646462365E+03  0.89970534035E+03  0.00000000000E+00 0. -1.
          4    1    3    3  501    0  0.12639595760E+03  0.15907081711E+03  0.19703392411E+02  0.20412664359E+03  0.00000000000E+00 0. -1.
<mgrwt>
<rscale>  0 0.64445941E+03</rscale>
<asrwt>0</asrwt>
<pdfrwt beam="1">0</pdfrwt>
<pdfrwt beam="2">  1        2 0.37757165E+00 0.64445941E+03</pdfrwt>
<totfact> 0.48275439E+00</totfact>
</mgrwt>
</event>
<event>
 5    1  0.2368666E-004  0.6476935E+03  0.7818608E-02  0.9811117E-01
         13   -1    0    0    0    0  0.00000000000E+00  0.00000000000E+00  0.10000000000E+04  0.10000000000E+04  0.00000000000E+00 0. -1.
          2   -1    0    0  501    0 -0.00000000000E+00 -0.00000000000E+00 -0.10487672198E+03  0.10487672198E+03  0.00000000000E+00 0. -1.
    9000006    2    1    2  501    0  0.00000000000E+00  0.00000000000E+00  0.89512327802E+03  0.11048767220E+04  0.64769351388E+03 0.  0.
         13    1    3    3    0    0 -0.81310666928E+02  0.20065886967E+03  0.36730647713E+02  0.21960088118E+03  0.00000000000E+00 0. -1.
          2    1    3    3  501    0  0.81310666928E+02 -0.20065886967E+03  0.85839263031E+03  0.88527584080E+03  0.00000000000E+00 0. -1.
<mgrwt>
<rscale>  0 0.64769351E+03</rscale>
<asrwt>0</asrwt>
<pdfrwt beam="1">0</pdfrwt>
<pdfrwt beam="2">  1        2 0.38137070E+00 0.64769351E+03</pdfrwt>
<totfact> 0.46731112E+00</totfact>
</mgrwt>
</event>
<event>
 5    1  0.2368666E-004  0.6740562E+03  0.7818608E-02  0.9762658E-01
         13   -1    0    0    0    0  0.00000000000E+00  0.00000000000E+00  0.10000000000E+04  0.10000000000E+04  0.00000000000E+00 0. -1.
          2   -1    0    0  501    0 -0.00000000000E+00 -0.00000000000E+00 -0.11358793535E+03  0.11358793535E+03  0.00000000000E+00 0. -1.
    9000006    2    1    2  501    0  0.00000000000E+00  0.00000000000E+00  0.88641206465E+03  0.11135879354E+04  0.67405618565E+03 0.  0.
         13    1    3    3    0    0  0.24701040645E+03  0.60124038111E+02  0.80875387067E+03  0.84776875631E+03  0.00000000000E+00 0. -1.
          4    1    3    3  501    0 -0.24701040645E+03 -0.60124038111E+02  0.77658193979E+02  0.26581917904E+03  0.00000000000E+00 0. -1.
<mgrwt>
<rscale>  0 0.67405619E+03</rscale>
<asrwt>0</asrwt>
<pdfrwt beam="1">0</pdfrwt>
<pdfrwt beam="2">  1        2 0.41304791E+00 0.67405619E+03</pdfrwt>
<totfact> 0.35491014E+00</totfact>
</mgrwt>
</event>
<event>
 5    1  0.2368666E-004  0.6436971E+03  0.7818608E-02  0.9818678E-01
         13   -1    0    0    0    0  0.00000000000E+00  0.00000000000E+00  0.10000000000E+04  0.10000000000E+04  0.00000000000E+00 0. -1.
          2   -1    0    0  501    0 -0.00000000000E+00 -0.00000000000E+00 -0.10358649873E+03  0.10358649873E+03  0.00000000000E+00 0. -1.
    9000006    2    1    2  501    0  0.00000000000E+00  0.00000000000E+00  0.89641350127E+03  0.11035864987E+04  0.64369712980E+03 0.  0.
         13    1    3    3    0    0  0.20357079726E+03  0.24846667520E+03  0.48291073019E+03  0.57998235448E+03  0.00000000000E+00 0. -1.
          2    1    3    3  501    0 -0.20357079726E+03 -0.24846667520E+03  0.41350277109E+03  0.52360414425E+03  0.00000000000E+00 0. -1.
<mgrwt>
<rscale>  0 0.64369713E+03</rscale>
<asrwt>0</asrwt>
<pdfrwt beam="1">0</pdfrwt>
<pdfrwt beam="2">  1        2 0.37667897E+00 0.64369713E+03</pdfrwt>
<totfact> 0.48644995E+00</totfact>
</mgrwt>
</event>
<event>
 5    1  0.2368666E-004  0.6557750E+03  0.7818608E-02  0.9796003E-01
         13   -1    0    0    0    0  0.00000000000E+00  0.00000000000E+00  0.10000000000E+04  0.10000000000E+04  0.00000000000E+00 0. -1.
          2   -1    0    0  501    0 -0.00000000000E+00 -0.00000000000E+00 -0.10751021705E+03  0.10751021705E+03  0.00000000000E+00 0. -1.
    9000006    2    1    2  501    0  0.00000000000E+00  0.00000000000E+00  0.89248978295E+03  0.11075102171E+04  0.65577501340E+03 0.  0.
         13    1    3    3    0    0 -0.26339057206E+03 -0.25283454184E+02  0.11921496814E+03  0.29021725506E+03  0.00000000000E+00 0. -1.
          2    1    3    3  501    0  0.26339057206E+03  0.25283454184E+02  0.77327481481E+03  0.81729296199E+03  0.00000000000E+00 0. -1.
<mgrwt>
<rscale>  0 0.65577501E+03</rscale>
<asrwt>0</asrwt>
<pdfrwt beam="1">0</pdfrwt>
<pdfrwt beam="2">  1        2 0.39094707E+00 0.65577501E+03</pdfrwt>
<totfact> 0.43035258E+00</totfact>
</mgrwt>
</event>
<event>
 5    1  0.2368666E-004  0.6587283E+03  0.7818608E-02  0.9790538E-01
         13   -1    0    0    0    0  0.00000000000E+00  0.00000000000E+00  0.10000000000E+04  0.10000000000E+04  0.00000000000E+00 0. -1.
          2   -1    0    0  501    0 -0.00000000000E+00 -0.00000000000E+00 -0.10848074313E+03  0.10848074313E+03  0.00000000000E+00 0. -1.
    9000006    2    1    2  501    0  0.00000000000E+00  0.00000000000E+00  0.89151925687E+03  0.11084807431E+04  0.65872829946E+03 0.  0.
         13    1    3    3    0    0 -0.17673686031E+03  0.49857482273E+01  0.91337269590E+03  0.93032814485E+03  0.00000000000E+00 0. -1.
          2    1    3    3  501    0  0.17673686031E+03 -0.49857482273E+01 -0.21853439028E+02  0.17815259828E+03  0.00000000000E+00 0. -1.
<mgrwt>
<rscale>  0 0.65872830E+03</rscale>
<asrwt>0</asrwt>
<pdfrwt beam="1">0</pdfrwt>
<pdfrwt beam="2">  1        2 0.39447626E+00 0.65872830E+03</pdfrwt>
<totfact> 0.41741354E+00</totfact>
</mgrwt>
</event>
<event>
 5    1  0.2368666E-004  0.6616410E+03  0.7818608E-02  0.9785178E-01
         13   -1    0    0    0    0  0.00000000000E+00  0.00000000000E+00  0.10000000000E+04  0.10000000000E+04  0.00000000000E+00 0. -1.
          2   -1    0    0  501    0 -0.00000000000E+00 -0.00000000000E+00 -0.10944219946E+03  0.10944219946E+03  0.00000000000E+00 0. -1.
    9000006    2    1    2  501    0  0.00000000000E+00  0.00000000000E+00  0.89055780054E+03  0.11094421995E+04  0.66164098864E+03 0.  0.
         13    1    3    3    0    0  0.65607820393E+02  0.19945020576E+03  0.16602319277E+02  0.21061910569E+03  0.00000000000E+00 0. -1.
          4    1    3    3  501    0 -0.65607820393E+02 -0.19945020576E+03  0.87395548126E+03  0.89882309377E+03  0.00000000000E+00 0. -1.
<mgrwt>
<rscale>  0 0.66164099E+03</rscale>
<asrwt>0</asrwt>
<pdfrwt beam="1">0</pdfrwt>
<pdfrwt beam="2">  1        2 0.39797247E+00 0.66164099E+03</pdfrwt>
<totfact> 0.40494306E+00</totfact>
</mgrwt>
</event>
<event>
 5    1  0.2368666E-004  0.6497347E+03  0.7818608E-02  0.9807277E-01
         13   -1    0    0    0    0  0.00000000000E+00  0.00000000000E+00  0.10000000000E+04  0.10000000000E+04  0.00000000000E+00 0. -1.
          2   -1    0    0  501    0 -0.00000000000E+00 -0.00000000000E+00 -0.10553879424E+03  0.10553879424E+03  0.00000000000E+00 0. -1.
    9000006    2    1    2  501    0  0.00000000000E+00  0.00000000000E+00  0.89446120576E+03  0.11055387942E+04  0.64973469735E+03 0.  0.
         13    1    3    3    0    0 -0.17857636717E+03  0.24413292333E+03  0.24555599491E+03  0.38959998691E+03  0.00000000000E+00 0. -1.
          4    1    3    3  501    0  0.17857636717E+03 -0.24413292333E+03  0.64890521085E+03  0.71593880732E+03  0.00000000000E+00 0. -1.
<mgrwt>
<rscale>  0 0.64973470E+03</rscale>
<asrwt>0</asrwt>
<pdfrwt beam="1">0</pdfrwt>
<pdfrwt beam="2">  1        2 0.38377824E+00 0.64973470E+03</pdfrwt>
<totfact> 0.45775841E+00</totfact>
</mgrwt>
</event>
<event>
 5    1  0.2368666E-004  0.6372451E+03  0.7818608E-02  0.9831012E-01
         13   -1    0    0    0    0  0.00000000000E+00  0.00000000000E+00  0.10000000000E+04  0.10000000000E+04  0.00000000000E+00 0. -1.
          2   -1    0    0  501    0 -0.00000000000E+00 -0.00000000000E+00 -0.10152033481E+03  0.10152033481E+03  0.00000000000E+00 0. -1.
    9000006    2    1    2  501    0  0.00000000000E+00  0.00000000000E+00  0.89847966519E+03  0.11015203348E+04  0.63724511707E+03 0.  0.
         13    1    3    3    0    0  0.18415325968E+02  0.22931372500E+03  0.68184390647E+02  0.23994378473E+03  0.00000000000E+00 0. -1.
          2    1    3    3  501    0 -0.18415325968E+02 -0.22931372500E+03  0.83029527455E+03  0.86157655007E+03  0.00000000000E+00 0. -1.
<mgrwt>
<rscale>  0 0.63724512E+03</rscale>
<asrwt>0</asrwt>
<pdfrwt beam="1">0</pdfrwt>
<pdfrwt beam="2">  1        2 0.36916563E+00 0.63724512E+03</pdfrwt>
<totfact> 0.51859658E+00</totfact>
</mgrwt>
</event>
<event>
 5    1  0.2368666E-004  0.6517207E+03  0.7818608E-02  0.9803556E-01
         13   -1    0    0    0    0  0.00000000000E+00  0.00000000000E+00  0.10000000000E+04  0.10000000000E+04  0.00000000000E+00 0. -1.
          2   -1    0    0  501    0 -0.00000000000E+00 -0.00000000000E+00 -0.10618495980E+03  0.10618495980E+03  0.00000000000E+00 0. -1.
    9000006    2    1    2  501    0  0.00000000000E+00  0.00000000000E+00  0.89381504020E+03  0.11061849598E+04  0.65172067573E+03 0.  0.
         13    1    3    3    0    0 -0.12044580257E+02 -0.30315225856E+03  0.64872993244E+03  0.71616819883E+03  0.00000000000E+00 0. -1.
          4    1    3    3  501    0  0.12044580257E+02  0.30315225856E+03  0.24508510777E+03  0.39001676096E+03  0.00000000000E+00 0. -1.
<mgrwt>
<rscale>  0 0.65172068E+03</rscale>
<asrwt>0</asrwt>
<pdfrwt beam="1">0</pdfrwt>
<pdfrwt beam="2">  1        2 0.38612794E+00 0.65172068E+03</pdfrwt>
<totfact> 0.44860644E+00</totfact>
</mgrwt>
</event>
<event>
 5    1  0.2368666E-004  0.6383817E+03  0.7818608E-02  0.9828828E-01
         13   -1    0    0    0    0  0.00000000000E+00  0.00000000000E+00  0.10000000000E+04  0.10000000000E+04  0.00000000000E+00 0. -1.
          2   -1    0    0  501    0 -0.00000000000E+00 -0.00000000000E+00 -0.10188279070E+03  0.10188279070E+03  0.00000000000E+00 0. -1.
    9000006    2    1    2  501    0  0.00000000000E+00  0.00000000000E+00  0.89811720930E+03  0.11018827907E+04  0.63838167486E+03 0.  0.
         13    1    3    3    0    0  0.20286894570E+03 -0.24558330159E+03  0.48425591917E+03  0.57962984948E+03  0.00000000000E+00 0. -1.
          2    1    3    3  501    0 -0.20286894570E+03  0.24558330159E+03  0.41386129013E+03  0.52225294122E+03  0.00000000000E+00 0. -1.
<mgrwt>
<rscale>  0 0.63838167E+03</rscale>
<asrwt>0</asrwt>
<pdfrwt beam="1">0</pdfrwt>
<pdfrwt beam="2">  1        2 0.37048366E+00 0.63838167E+03</pdfrwt>
<totfact> 0.51282024E+00</totfact>
</mgrwt>
</event>
<event>
 5    1  0.2368666E-004  0.6533360E+03  0.7818608E-02  0.9800539E-01
         13   -1    0    0    0    0  0.00000000000E+00  0.00000000000E+00  0.10000000000E+04  0.10000000000E+04  0.00000000000E+00 0. -1.
          2   -1    0    0  501    0 -0.00000000000E+00 -0.00000000000E+00 -0.10671197972E+03  0.10671197972E+03  0.00000000000E+00 0. -1.
    9000006    2    1    2  501    0  0.00000000000E+00  0.00000000000E+00  0.89328802028E+03  0.11067119797E+04  0.65333599233E+03 0.  0.
         13    1    3    3    0    0 -0.29142461605E+03  0.60616328367E+02  0.67459908317E+03  0.73735104876E+03  0.00000000000E+00 0. -1.
          2    1    3    3  501    0  0.29142461605E+03 -0.60616328367E+02  0.21868893712E+03  0.36936093096E+03  0.00000000000E+00 0. -1.
<mgrwt>
<rscale>  0 0.65333599E+03</rscale>
<asrwt>0</asrwt>
<pdfrwt beam="1">0</pdfrwt>
<pdfrwt beam="2">  1        2 0.38804438E+00 0.65333599E+03</pdfrwt>
<totfact> 0.44126511E+00</totfact>
</mgrwt>
</event>
<event>
 5    1  0.2368666E-004  0.6515963E+03  0.7818608E-02  0.9803788E-01
         13   -1    0    0    0    0  0.00000000000E+00  0.00000000000E+00  0.10000000000E+04  0.10000000000E+04  0.00000000000E+00 0. -1.
          2   -1    0    0  501    0 -0.00000000000E+00 -0.00000000000E+00 -0.10614443031E+03  0.10614443031E+03  0.00000000000E+00 0. -1.
    9000006    2    1    2  501    0  0.00000000000E+00  0.00000000000E+00  0.89385556969E+03  0.11061444303E+04  0.65159628699E+03 0.  0.
         13    1    3    3    0    0 -0.21673176696E+03 -0.13940316734E+01  0.85986439669E+03  0.88675892035E+03  0.00000000000E+00 0. -1.
          2    1    3    3  501    0  0.21673176696E+03  0.13940316734E+01  0.33991173009E+02  0.21938550995E+03  0.00000000000E+00 0. -1.
<mgrwt>
<rscale>  0 0.65159629E+03</rscale>
<asrwt>0</asrwt>
<pdfrwt beam="1">0</pdfrwt>
<pdfrwt beam="2">  1        2 0.38598056E+00 0.65159629E+03</pdfrwt>
<totfact> 0.44917557E+00</totfact>
</mgrwt>
</event>
<event>
 5    1  0.2368666E-004  0.6027975E+03  0.7818608E-02  0.9899619E-01
         13   -1    0    0    0    0  0.00000000000E+00  0.00000000000E+00  0.10000000000E+04  0.10000000000E+04  0.00000000000E+00 0. -1.
          2   -1    0    0  501    0 -0.00000000000E+00 -0.00000000000E+00 -0.90841211182E+02  0.90841211182E+02  0.00000000000E+00 0. -1.
    9000006    2    1    2  501    0  0.00000000000E+00  0.00000000000E+00  0.90915878882E+03  0.10908412112E+04  0.60279751553E+03 0.  0.
         13    1    3    3    0    0 -0.25554394980E+03 -0.96168018190E+02  0.22361051511E+03  0.35292018995E+03  0.00000000000E+00 0. -1.
          4    1    3    3  501    0  0.25554394980E+03  0.96168018190E+02  0.68554827370E+03  0.73792102123E+03  0.00000000000E+00 0. -1.
<mgrwt>
<rscale>  0 0.60279752E+03</rscale>
<asrwt>0</asrwt>
<pdfrwt beam="1">0</pdfrwt>
<pdfrwt beam="2">  1        2 0.33033237E+00 0.60279752E+03</pdfrwt>
<totfact> 0.71844734E+00</totfact>
</mgrwt>
</event>
<event>
 5    1  0.2368666E-004  0.6482294E+03  0.7818608E-02  0.9810107E-01
         13   -1    0    0    0    0  0.00000000000E+00  0.00000000000E+00  0.10000000000E+04  0.10000000000E+04  0.00000000000E+00 0. -1.
          2   -1    0    0  501    0 -0.00000000000E+00 -0.00000000000E+00 -0.10505032721E+03  0.10505032721E+03  0.00000000000E+00 0. -1.
    9000006    2    1    2  501    0  0.00000000000E+00  0.00000000000E+00  0.89494967279E+03  0.11050503272E+04  0.64822936437E+03 0.  0.
         13    1    3    3    0    0 -0.29847863476E+03 -0.11536824842E+03  0.35970240207E+03  0.48144069854E+03  0.00000000000E+00 0. -1.
          2    1    3    3  501    0  0.29847863476E+03  0.11536824842E+03  0.53524727072E+03  0.62360962867E+03  0.00000000000E+00 0. -1.
<mgrwt>
<rscale>  0 0.64822936E+03</rscale>
<asrwt>0</asrwt>
<pdfrwt beam="1">0</pdfrwt>
<pdfrwt beam="2">  1        2 0.38200200E+00 0.64822936E+03</pdfrwt>
<totfact> 0.46478890E+00</totfact>
</mgrwt>
</event>
<event>
 5    1  0.2368666E-004  0.6526706E+03  0.7818608E-02  0.9801781E-01
         13   -1    0    0    0    0  0.00000000000E+00  0.00000000000E+00  0.10000000000E+04  0.10000000000E+04  0.00000000000E+00 0. -1.
          2   -1    0    0  501    0 -0.00000000000E+00 -0.00000000000E+00 -0.10649473997E+03  0.10649473997E+03  0.00000000000E+00 0. -1.
    9000006    2    1    2  501    0  0.00000000000E+00  0.00000000000E+00  0.89350526003E+03  0.11064947400E+04  0.65267063660E+03 0.  0.
         13    1    3    3    0    0  0.18007192212E+03 -0.26315818695E+03  0.56441188319E+03  0.64825836083E+03  0.00000000000E+00 0. -1.
          2    1    3    3  501    0 -0.18007192212E+03  0.26315818695E+03  0.32909337684E+03  0.45823637914E+03  0.00000000000E+00 0. -1.
<mgrwt>
<rscale>  0 0.65267064E+03</rscale>
<asrwt>0</asrwt>
<pdfrwt beam="1">0</pdfrwt>
<pdfrwt beam="2">  1        2 0.38725442E+00 0.65267064E+03</pdfrwt>
<totfact> 0.44427795E+00</totfact>
</mgrwt>
</event>
<event>
 5    1  0.2368666E-004  0.6481139E+03  0.7818608E-02  0.9810325E-01
         13   -1    0    0    0    0  0.00000000000E+00  0.00000000000E+00  0.10000000000E+04  0.10000000000E+04  0.00000000000E+00 0. -1.
          2   -1    0    0  501    0 -0.00000000000E+00 -0.00000000000E+00 -0.10501291988E+03  0.10501291988E+03  0.00000000000E+00 0. -1.
    9000006    2    1    2  501    0  0.00000000000E+00  0.00000000000E+00  0.89498708012E+03  0.11050129199E+04  0.64811394022E+03 0.  0.
         13    1    3    3    0    0  0.32125626216E+03  0.42512059207E+02  0.44708039620E+03  0.55217184084E+03  0.00000000000E+00 0. -1.
          2    1    3    3  501    0 -0.32125626216E+03 -0.42512059207E+02  0.44790668393E+03  0.55284107903E+03  0.00000000000E+00 0. -1.
<mgrwt>
<rscale>  0 0.64811394E+03</rscale>
<asrwt>0</asrwt>
<pdfrwt beam="1">0</pdfrwt>
<pdfrwt beam="2">  1        2 0.38186597E+00 0.64811394E+03</pdfrwt>
<totfact> 0.46533132E+00</totfact>
</mgrwt>
</event>
<event>
 5    1  0.2368666E-004  0.6297302E+03  0.7818608E-02  0.9845575E-01
         13   -1    0    0    0    0  0.00000000000E+00  0.00000000000E+00  0.10000000000E+04  0.10000000000E+04  0.00000000000E+00 0. -1.
          2   -1    0    0  501    0 -0.00000000000E+00 -0.00000000000E+00 -0.99140036791E+02  0.99140036791E+02  0.00000000000E+00 0. -1.
    9000006    2    1    2  501    0  0.00000000000E+00  0.00000000000E+00  0.90085996321E+03  0.10991400368E+04  0.62973021776E+03 0.  0.
         13    1    3    3    0    0  0.21363419617E+03 -0.20058016189E+03  0.65147915893E+03  0.71435080012E+03  0.00000000000E+00 0. -1.
          2    1    3    3  501    0 -0.21363419617E+03  0.20058016189E+03  0.24938080428E+03  0.38478923667E+03  0.00000000000E+00 0. -1.
<mgrwt>
<rscale>  0 0.62973022E+03</rscale>
<asrwt>0</asrwt>
<pdfrwt beam="1">0</pdfrwt>
<pdfrwt beam="2">  1        2 0.36050998E+00 0.62973022E+03</pdfrwt>
<totfact> 0.55804087E+00</totfact>
</mgrwt>
</event>
<event>
 5    1  0.2368666E-004  0.6336436E+03  0.7818608E-02  0.9837964E-01
         13   -1    0    0    0    0  0.00000000000E+00  0.00000000000E+00  0.10000000000E+04  0.10000000000E+04  0.00000000000E+00 0. -1.
          2   -1    0    0  501    0 -0.00000000000E+00 -0.00000000000E+00 -0.10037603957E+03  0.10037603957E+03  0.00000000000E+00 0. -1.
    9000006    2    1    2  501    0  0.00000000000E+00  0.00000000000E+00  0.89962396043E+03  0.11003760396E+04  0.63364355775E+03 0.  0.
         13    1    3    3    0    0 -0.19682738715E+03  0.48170281806E+02  0.26873634249E+02  0.20441034367E+03  0.00000000000E+00 0. -1.
          2    1    3    3  501    0  0.19682738715E+03 -0.48170281806E+02  0.87275032618E+03  0.89596569590E+03  0.00000000000E+00 0. -1.
<mgrwt>
<rscale>  0 0.63364356E+03</rscale>
<asrwt>0</asrwt>
<pdfrwt beam="1">0</pdfrwt>
<pdfrwt beam="2">  1        2 0.36500455E+00 0.63364356E+03</pdfrwt>
<totfact> 0.53722696E+00</totfact>
</mgrwt>
</event>
<event>
 5    1  0.2368666E-004  0.5711420E+03  0.7818608E-02  0.9967155E-01
         13   -1    0    0    0    0  0.00000000000E+00  0.00000000000E+00  0.10000000000E+04  0.10000000000E+04  0.00000000000E+00 0. -1.
          2   -1    0    0  501    0 -0.00000000000E+00 -0.00000000000E+00 -0.81550808789E+02  0.81550808789E+02  0.00000000000E+00 0. -1.
    9000006    2    1    2  501    0  0.00000000000E+00  0.00000000000E+00  0.91844919121E+03  0.10815508088E+04  0.57114204464E+03 0.  0.
         13    1    3    3    0    0 -0.20436158273E+03  0.19238006567E+03  0.55901657365E+03  0.62551840563E+03  0.00000000000E+00 0. -1.
          2    1    3    3  501    0  0.20436158273E+03 -0.19238006567E+03  0.35943261756E+03  0.45603240316E+03  0.00000000000E+00 0. -1.
<mgrwt>
<rscale>  0 0.57114204E+03</rscale>
<asrwt>0</asrwt>
<pdfrwt beam="1">0</pdfrwt>
<pdfrwt beam="2">  1        2 0.29654902E+00 0.57114204E+03</pdfrwt>
<totfact> 0.94989546E+00</totfact>
</mgrwt>
</event>
<event>
 5    1  0.2368666E-004  0.6473630E+03  0.7818608E-02  0.9811740E-01
         13   -1    0    0    0    0  0.00000000000E+00  0.00000000000E+00  0.10000000000E+04  0.10000000000E+04  0.00000000000E+00 0. -1.
          2   -1    0    0  501    0 -0.00000000000E+00 -0.00000000000E+00 -0.10476969799E+03  0.10476969799E+03  0.00000000000E+00 0. -1.
    9000006    2    1    2  501    0  0.00000000000E+00  0.00000000000E+00  0.89523030201E+03  0.11047696980E+04  0.64736295228E+03 0.  0.
         13    1    3    3    0    0  0.12862741502E+03  0.29699737692E+03  0.45470187457E+03  0.55812744829E+03  0.00000000000E+00 0. -1.
          2    1    3    3  501    0 -0.12862741502E+03 -0.29699737692E+03  0.44052842743E+03  0.54664224971E+03  0.00000000000E+00 0. -1.
<mgrwt>
<rscale>  0 0.64736295E+03</rscale>
<asrwt>0</asrwt>
<pdfrwt beam="1">0</pdfrwt>
<pdfrwt beam="2">  1        2 0.38098152E+00 0.64736295E+03</pdfrwt>
<totfact> 0.46887221E+00</totfact>
</mgrwt>
</event>
<event>
 5    1  0.2368666E-004  0.6447750E+03  0.7818608E-02  0.9816633E-01
         13   -1    0    0    0    0  0.00000000000E+00  0.00000000000E+00  0.10000000000E+04  0.10000000000E+04  0.00000000000E+00 0. -1.
          2   -1    0    0  501    0 -0.00000000000E+00 -0.00000000000E+00 -0.10393369085E+03  0.10393369085E+03  0.00000000000E+00 0. -1.
    9000006    2    1    2  501    0  0.00000000000E+00  0.00000000000E+00  0.89606630915E+03  0.11039336909E+04  0.64477497114E+03 0.  0.
         13    1    3    3    0    0 -0.56318059365E+02  0.39239669808E+01  0.99147108867E+03  0.99307705693E+03  0.00000000000E+00 0. -1.
          4    1    3    3  501    0  0.56318059365E+02 -0.39239669808E+01 -0.95404779527E+02  0.11085663392E+03  0.00000000000E+00 0. -1.
<mgrwt>
<rscale>  0 0.64477497E+03</rscale>
<asrwt>0</asrwt>
<pdfrwt beam="1">0</pdfrwt>
<pdfrwt beam="2">  1        2 0.37794149E+00 0.64477497E+03</pdfrwt>
<totfact> 0.48123080E+00</totfact>
</mgrwt>
</event>
<event>
 5    1  0.2368666E-004  0.6462877E+03  0.7818608E-02  0.9813770E-01
         13   -1    0    0    0    0  0.00000000000E+00  0.00000000000E+00  0.10000000000E+04  0.10000000000E+04  0.00000000000E+00 0. -1.
          2   -1    0    0  501    0 -0.00000000000E+00 -0.00000000000E+00 -0.10442196183E+03  0.10442196183E+03  0.00000000000E+00 0. -1.
    9000006    2    1    2  501    0  0.00000000000E+00  0.00000000000E+00  0.89557803817E+03  0.11044219618E+04  0.64628774343E+03 0.  0.
         13    1    3    3    0    0  0.23705411739E+03  0.46611198995E+01  0.82298465318E+03  0.85645789154E+03  0.00000000000E+00 0. -1.
          4    1    3    3  501    0 -0.23705411739E+03 -0.46611198995E+01  0.72593384997E+02  0.24796407029E+03  0.00000000000E+00 0. -1.
<mgrwt>
<rscale>  0 0.64628774E+03</rscale>
<asrwt>0</asrwt>
<pdfrwt beam="1">0</pdfrwt>
<pdfrwt beam="2">  1        2 0.37971703E+00 0.64628774E+03</pdfrwt>
<totfact> 0.47397722E+00</totfact>
</mgrwt>
</event>
<event>
 5    1  0.2368666E-004  0.6320632E+03  0.7818608E-02  0.9841031E-01
         13   -1    0    0    0    0  0.00000000000E+00  0.00000000000E+00  0.10000000000E+04  0.10000000000E+04  0.00000000000E+00 0. -1.
          2   -1    0    0  501    0 -0.00000000000E+00 -0.00000000000E+00 -0.99875968195E+02  0.99875968195E+02  0.00000000000E+00 0. -1.
    9000006    2    1    2  501    0  0.00000000000E+00  0.00000000000E+00  0.90012403181E+03  0.10998759682E+04  0.63206318733E+03 0.  0.
         13    1    3    3    0    0 -0.24547953502E+03  0.11685641990E+03  0.73043646357E+03  0.77939274586E+03  0.00000000000E+00 0. -1.
          4    1    3    3  501    0  0.24547953502E+03 -0.11685641990E+03  0.16968756823E+03  0.32048322233E+03  0.00000000000E+00 0. -1.
<mgrwt>
<rscale>  0 0.63206319E+03</rscale>
<asrwt>0</asrwt>
<pdfrwt beam="1">0</pdfrwt>
<pdfrwt beam="2">  1        2 0.36318610E+00 0.63206319E+03</pdfrwt>
<totfact> 0.54556027E+00</totfact>
</mgrwt>
</event>
<event>
 5    1  0.2368666E-004  0.6552190E+03  0.7818608E-02  0.9797035E-01
         13   -1    0    0    0    0  0.00000000000E+00  0.00000000000E+00  0.10000000000E+04  0.10000000000E+04  0.00000000000E+00 0. -1.
          2   -1    0    0  501    0 -0.00000000000E+00 -0.00000000000E+00 -0.10732797801E+03  0.10732797801E+03  0.00000000000E+00 0. -1.
    9000006    2    1    2  501    0  0.00000000000E+00  0.00000000000E+00  0.89267202199E+03  0.11073279780E+04  0.65521898021E+03 0.  0.
         13    1    3    3    0    0  0.11818309771E+03 -0.30540772178E+03  0.43058559758E+03  0.54096679931E+03  0.00000000000E+00 0. -1.
          2    1    3    3  501    0 -0.11818309771E+03  0.30540772178E+03  0.46208642441E+03  0.56636117870E+03  0.00000000000E+00 0. -1.
<mgrwt>
<rscale>  0 0.65521898E+03</rscale>
<asrwt>0</asrwt>
<pdfrwt beam="1">0</pdfrwt>
<pdfrwt beam="2">  1        2 0.39028438E+00 0.65521898E+03</pdfrwt>
<totfact> 0.43282221E+00</totfact>
</mgrwt>
</event>
<event>
 5    1  0.2368666E-004  0.6498431E+03  0.7818608E-02  0.9807074E-01
         13   -1    0    0    0    0  0.00000000000E+00  0.00000000000E+00  0.10000000000E+04  0.10000000000E+04  0.00000000000E+00 0. -1.
          2   -1    0    0  501    0 -0.00000000000E+00 -0.00000000000E+00 -0.10557399771E+03  0.10557399771E+03  0.00000000000E+00 0. -1.
    9000006    2    1    2  501    0  0.00000000000E+00  0.00000000000E+00  0.89442600229E+03  0.11055739977E+04  0.64984305094E+03 0.  0.
         13    1    3    3    0    0  0.14244818568E+03 -0.26122608893E+03  0.22510817398E+03  0.37310085116E+03  0.00000000000E+00 0. -1.
          2    1    3    3  501    0 -0.14244818568E+03  0.26122608893E+03  0.66931782830E+03  0.73247314656E+03  0.00000000000E+00 0. -1.
<mgrwt>
<rscale>  0 0.64984305E+03</rscale>
<asrwt>0</asrwt>
<pdfrwt beam="1">0</pdfrwt>
<pdfrwt beam="2">  1        2 0.38390626E+00 0.64984305E+03</pdfrwt>
<totfact> 0.45725548E+00</totfact>
</mgrwt>
</event>
<event>
 5    1  0.2368666E-004  0.6469413E+03  0.7818608E-02  0.9812536E-01
         13   -1    0    0    0    0  0.00000000000E+00  0.00000000000E+00  0.10000000000E+04  0.10000000000E+04  0.00000000000E+00 0. -1.
          2   -1    0    0  501    0 -0.00000000000E+00 -0.00000000000E+00 -0.10463326678E+03  0.10463326678E+03  0.00000000000E+00 0. -1.
    9000006    2    1    2  501    0  0.00000000000E+00  0.00000000000E+00  0.89536673322E+03  0.11046332668E+04  0.64694131659E+03 0.  0.
         13    1    3    3    0    0 -0.28040600509E+03  0.11496131721E+03  0.64078337784E+03  0.70883493809E+03  0.00000000000E+00 0. -1.
          4    1    3    3  501    0  0.28040600509E+03 -0.11496131721E+03  0.25458335538E+03  0.39579832868E+03  0.00000000000E+00 0. -1.
<mgrwt>
<rscale>  0 0.64694132E+03</rscale>
<asrwt>0</asrwt>
<pdfrwt beam="1">0</pdfrwt>
<pdfrwt beam="2">  1        2 0.38048541E+00 0.64694132E+03</pdfrwt>
<totfact> 0.47086912E+00</totfact>
</mgrwt>
</event>
<event>
 5    1  0.2368666E-004  0.6410483E+03  0.7818608E-02  0.9823723E-01
         13   -1    0    0    0    0  0.00000000000E+00  0.00000000000E+00  0.10000000000E+04  0.10000000000E+04  0.00000000000E+00 0. -1.
          2   -1    0    0  501    0 -0.00000000000E+00 -0.00000000000E+00 -0.10273571549E+03  0.10273571549E+03  0.00000000000E+00 0. -1.
    9000006    2    1    2  501    0  0.00000000000E+00  0.00000000000E+00  0.89726428451E+03  0.11027357155E+04  0.64104825245E+03 0.  0.
         13    1    3    3    0    0  0.57329765050E+02 -0.28333126271E+03  0.68681969587E+03  0.74517420851E+03  0.00000000000E+00 0. -1.
          4    1    3    3  501    0 -0.57329765050E+02  0.28333126271E+03  0.21044458863E+03  0.35756150698E+03  0.00000000000E+00 0. -1.
<mgrwt>
<rscale>  0 0.64104825E+03</rscale>
<asrwt>0</asrwt>
<pdfrwt beam="1">0</pdfrwt>
<pdfrwt beam="2">  1        2 0.37358521E+00 0.64104825E+03</pdfrwt>
<totfact> 0.49945920E+00</totfact>
</mgrwt>
</event>
<event>
 5    1  0.2368666E-004  0.7001549E+03  0.7818608E-02  0.9716967E-01
         13   -1    0    0    0    0  0.00000000000E+00  0.00000000000E+00  0.10000000000E+04  0.10000000000E+04  0.00000000000E+00 0. -1.
          2   -1    0    0  501    0 -0.00000000000E+00 -0.00000000000E+00 -0.12255422816E+03  0.12255422816E+03  0.00000000000E+00 0. -1.
    9000006    2    1    2  501    0  0.00000000000E+00  0.00000000000E+00  0.87744577184E+03  0.11225542282E+04  0.70015492044E+03 0.  0.
         13    1    3    3    0    0 -0.18358577043E+03 -0.14380816684E+03  0.20113569570E+02  0.23407067231E+03  0.00000000000E+00 0. -1.
          2    1    3    3  501    0  0.18358577043E+03  0.14380816684E+03  0.85733220227E+03  0.88848355585E+03  0.00000000000E+00 0. -1.
<mgrwt>
<rscale>  0 0.70015492E+03</rscale>
<asrwt>0</asrwt>
<pdfrwt beam="1">0</pdfrwt>
<pdfrwt beam="2">  1        2 0.44565268E+00 0.70015492E+03</pdfrwt>
<totfact> 0.26502296E+00</totfact>
</mgrwt>
</event>
<event>
 5    1  0.2368666E-004  0.6396285E+03  0.7818608E-02  0.9826437E-01
         13   -1    0    0    0    0  0.00000000000E+00  0.00000000000E+00  0.10000000000E+04  0.10000000000E+04  0.00000000000E+00 0. -1.
          2   -1    0    0  501    0 -0.00000000000E+00 -0.00000000000E+00 -0.10228116482E+03  0.10228116482E+03  0.00000000000E+00 0. -1.
    9000006    2    1    2  501    0  0.00000000000E+00  0.00000000000E+00  0.89771883518E+03  0.11022811648E+04  0.63962853225E+03 0.  0.
         13    1    3    3    0    0  0.76932059326E+02  0.38382102973E+02 -0.81992626100E+02  0.11880453828E+03  0.00000000000E+00 0. -1.
          2    1    3    3  501    0 -0.76932059326E+02 -0.38382102973E+02  0.97971146128E+03  0.98347662654E+03  0.00000000000E+00 0. -1.
<mgrwt>
<rscale>  0 0.63962853E+03</rscale>
<asrwt>0</asrwt>
<pdfrwt beam="1">0</pdfrwt>
<pdfrwt beam="2">  1        2 0.37193229E+00 0.63962853E+03</pdfrwt>
<totfact> 0.50653953E+00</totfact>
</mgrwt>
</event>
<event>
 5    1  0.2368666E-004  0.6587729E+03  0.7818608E-02  0.9790455E-01
         13   -1    0    0    0    0  0.00000000000E+00  0.00000000000E+00  0.10000000000E+04  0.10000000000E+04  0.00000000000E+00 0. -1.
          2   -1    0    0  501    0 -0.00000000000E+00 -0.00000000000E+00 -0.10849541745E+03  0.10849541745E+03  0.00000000000E+00 0. -1.
    9000006    2    1    2  501    0  0.00000000000E+00  0.00000000000E+00  0.89150458255E+03  0.11084954175E+04  0.65877285145E+03 0.  0.
         13    1    3    3    0    0 -0.31854659682E+03 -0.51074940768E+02  0.55755578500E+03  0.64416538040E+03  0.00000000000E+00 0. -1.
          4    1    3    3  501    0  0.31854659682E+03  0.51074940768E+02  0.33394879755E+03  0.46433003705E+03  0.00000000000E+00 0. -1.
<mgrwt>
<rscale>  0 0.65877285E+03</rscale>
<asrwt>0</asrwt>
<pdfrwt beam="1">0</pdfrwt>
<pdfrwt beam="2">  1        2 0.39452962E+00 0.65877285E+03</pdfrwt>
<totfact> 0.41722063E+00</totfact>
</mgrwt>
</event>
<event>
 5    1  0.2368666E-004  0.6617530E+03  0.7818608E-02  0.9784972E-01
         13   -1    0    0    0    0  0.00000000000E+00  0.00000000000E+00  0.10000000000E+04  0.10000000000E+04  0.00000000000E+00 0. -1.
          2   -1    0    0  501    0 -0.00000000000E+00 -0.00000000000E+00 -0.10947924218E+03  0.10947924218E+03  0.00000000000E+00 0. -1.
    9000006    2    1    2  501    0  0.00000000000E+00  0.00000000000E+00  0.89052075782E+03  0.11094792422E+04  0.66175295141E+03 0.  0.
         13    1    3    3    0    0  0.99379455798E+02  0.30055662582E+03  0.60667105366E+03  0.68429549823E+03  0.00000000000E+00 0. -1.
          4    1    3    3  501    0 -0.99379455798E+02 -0.30055662582E+03  0.28384970417E+03  0.42518374394E+03  0.00000000000E+00 0. -1.
<mgrwt>
<rscale>  0 0.66175295E+03</rscale>
<asrwt>0</asrwt>
<pdfrwt beam="1">0</pdfrwt>
<pdfrwt beam="2">  1        2 0.39810717E+00 0.66175295E+03</pdfrwt>
<totfact> 0.40446938E+00</totfact>
</mgrwt>
</event>
<event>
 5    1  0.2368666E-004  0.6489633E+03  0.7818608E-02  0.9808726E-01
         13   -1    0    0    0    0  0.00000000000E+00  0.00000000000E+00  0.10000000000E+04  0.10000000000E+04  0.00000000000E+00 0. -1.
          2   -1    0    0  501    0 -0.00000000000E+00 -0.00000000000E+00 -0.10528833793E+03  0.10528833793E+03  0.00000000000E+00 0. -1.
    9000006    2    1    2  501    0  0.00000000000E+00  0.00000000000E+00  0.89471166207E+03  0.11052883379E+04  0.64896328998E+03 0.  0.
         13    1    3    3    0    0  0.30997139443E+03 -0.51558137139E+02  0.30953838736E+03  0.44108334827E+03  0.00000000000E+00 0. -1.
          4    1    3    3  501    0 -0.30997139443E+03  0.51558137139E+02  0.58517327471E+03  0.66420498967E+03  0.00000000000E+00 0. -1.
<mgrwt>
<rscale>  0 0.64896329E+03</rscale>
<asrwt>0</asrwt>
<pdfrwt beam="1">0</pdfrwt>
<pdfrwt beam="2">  1        2 0.38286749E+00 0.64896329E+03</pdfrwt>
<totfact> 0.46135106E+00</totfact>
</mgrwt>
</event>
<event>
 5    1  0.2368666E-004  0.6355673E+03  0.7818608E-02  0.9834245E-01
         13   -1    0    0    0    0  0.00000000000E+00  0.00000000000E+00  0.10000000000E+04  0.10000000000E+04  0.00000000000E+00 0. -1.
          2   -1    0    0  501    0 -0.00000000000E+00 -0.00000000000E+00 -0.10098643984E+03  0.10098643984E+03  0.00000000000E+00 0. -1.
    9000006    2    1    2  501    0  0.00000000000E+00  0.00000000000E+00  0.89901356016E+03  0.11009864398E+04  0.63556727366E+03 0.  0.
         13    1    3    3    0    0 -0.11880273573E+03  0.12765169959E+02  0.95960467893E+03  0.96701508747E+03  0.00000000000E+00 0. -1.
          4    1    3    3  501    0  0.11880273573E+03 -0.12765169959E+02 -0.60591118763E+02  0.13397135236E+03  0.00000000000E+00 0. -1.
<mgrwt>
<rscale>  0 0.63556727E+03</rscale>
<asrwt>0</asrwt>
<pdfrwt beam="1">0</pdfrwt>
<pdfrwt beam="2">  1        2 0.36722419E+00 0.63556727E+03</pdfrwt>
<totfact> 0.52721384E+00</totfact>
</mgrwt>
</event>
<event>
 5    1  0.2368666E-004  0.6323245E+03  0.7818608E-02  0.9840523E-01
         13   -1    0    0    0    0  0.00000000000E+00  0.00000000000E+00  0.10000000000E+04  0.10000000000E+04  0.00000000000E+00 0. -1.
          2   -1    0    0  501    0 -0.00000000000E+00 -0.00000000000E+00 -0.99958570776E+02  0.99958570776E+02  0.00000000000E+00 0. -1.
    9000006    2    1    2  501    0  0.00000000000E+00  0.00000000000E+00  0.90004142922E+03  0.10999585708E+04  0.63232450775E+03 0.  0.
         13    1    3    3    0    0  0.19017057539E+03  0.24980650299E+03  0.51488587827E+03  0.60305522493E+03  0.00000000000E+00 0. -1.
          4    1    3    3  501    0 -0.19017057539E+03 -0.24980650299E+03  0.38515555096E+03  0.49690334584E+03  0.00000000000E+00 0. -1.
<mgrwt>
<rscale>  0 0.63232451E+03</rscale>
<asrwt>0</asrwt>
<pdfrwt beam="1">0</pdfrwt>
<pdfrwt beam="2">  1        2 0.36348648E+00 0.63232451E+03</pdfrwt>
<totfact> 0.54417561E+00</totfact>
</mgrwt>
</event>
<event>
 5    1  0.2368666E-004  0.6424993E+03  0.7818608E-02  0.9820956E-01
         13   -1    0    0    0    0  0.00000000000E+00  0.00000000000E+00  0.10000000000E+04  0.10000000000E+04  0.00000000000E+00 0. -1.
          2   -1    0    0  501    0 -0.00000000000E+00 -0.00000000000E+00 -0.10320132919E+03  0.10320132919E+03  0.00000000000E+00 0. -1.
    9000006    2    1    2  501    0  0.00000000000E+00  0.00000000000E+00  0.89679867081E+03  0.11032013292E+04  0.64249927373E+03 0.  0.
         13    1    3    3    0    0 -0.29769329965E+03  0.88313336194E+02  0.58979043249E+03  0.66653829617E+03  0.00000000000E+00 0. -1.
          4    1    3    3  501    0  0.29769329965E+03 -0.88313336194E+02  0.30700823833E+03  0.43666303302E+03  0.00000000000E+00 0. -1.
<mgrwt>
<rscale>  0 0.64249927E+03</rscale>
<asrwt>0</asrwt>
<pdfrwt beam="1">0</pdfrwt>
<pdfrwt beam="2">  1        2 0.37527835E+00 0.64249927E+03</pdfrwt>
<totfact> 0.49230047E+00</totfact>
</mgrwt>
</event>
<event>
 5    1  0.2368666E-004  0.6467829E+03  0.7818608E-02  0.9812835E-01
         13   -1    0    0    0    0  0.00000000000E+00  0.00000000000E+00  0.10000000000E+04  0.10000000000E+04  0.00000000000E+00 0. -1.
          2   -1    0    0  501    0 -0.00000000000E+00 -0.00000000000E+00 -0.10458203467E+03  0.10458203467E+03  0.00000000000E+00 0. -1.
    9000006    2    1    2  501    0  0.00000000000E+00  0.00000000000E+00  0.89541796533E+03  0.11045820347E+04  0.64678291465E+03 0.  0.
         13    1    3    3    0    0 -0.11470495249E+02 -0.30254769268E+03  0.64179427595E+03  0.70962424652E+03  0.00000000000E+00 0. -1.
          4    1    3    3  501    0  0.11470495249E+02  0.30254769268E+03  0.25362368938E+03  0.39495778815E+03  0.00000000000E+00 0. -1.
<mgrwt>
<rscale>  0 0.64678291E+03</rscale>
<asrwt>0</asrwt>
<pdfrwt beam="1">0</pdfrwt>
<pdfrwt beam="2">  1        2 0.38029911E+00 0.64678291E+03</pdfrwt>
<totfact> 0.47162099E+00</totfact>
</mgrwt>
</event>
<event>
 5    1  0.2368666E-004  0.6394954E+03  0.7818608E-02  0.9826692E-01
         13   -1    0    0    0    0  0.00000000000E+00  0.00000000000E+00  0.10000000000E+04  0.10000000000E+04  0.00000000000E+00 0. -1.
          2   -1    0    0  501    0 -0.00000000000E+00 -0.00000000000E+00 -0.10223858104E+03  0.10223858104E+03  0.00000000000E+00 0. -1.
    9000006    2    1    2  501    0  0.00000000000E+00  0.00000000000E+00  0.89776141896E+03  0.11022385810E+04  0.63949536680E+03 0.  0.
         13    1    3    3    0    0 -0.18427002653E+03 -0.17920024782E+02 -0.45539599091E+00  0.18513988590E+03  0.00000000000E+00 0. -1.
          2    1    3    3  501    0  0.18427002653E+03  0.17920024782E+02  0.89821681495E+03  0.91709869514E+03  0.00000000000E+00 0. -1.
<mgrwt>
<rscale>  0 0.63949537E+03</rscale>
<asrwt>0</asrwt>
<pdfrwt beam="1">0</pdfrwt>
<pdfrwt beam="2">  1        2 0.37177744E+00 0.63949537E+03</pdfrwt>
<totfact> 0.50720753E+00</totfact>
</mgrwt>
</event>
<event>
 5    1  0.2368666E-004  0.6431908E+03  0.7818608E-02  0.9819641E-01
         13   -1    0    0    0    0  0.00000000000E+00  0.00000000000E+00  0.10000000000E+04  0.10000000000E+04  0.00000000000E+00 0. -1.
          2   -1    0    0  501    0 -0.00000000000E+00 -0.00000000000E+00 -0.10342359740E+03  0.10342359740E+03  0.00000000000E+00 0. -1.
    9000006    2    1    2  501    0  0.00000000000E+00  0.00000000000E+00  0.89657640260E+03  0.11034235974E+04  0.64319078787E+03 0.  0.
         13    1    3    3    0    0 -0.80898438109E+02 -0.84893274626E+02  0.96201390589E+03  0.96913475869E+03  0.00000000000E+00 0. -1.
          2    1    3    3  501    0  0.80898438109E+02  0.84893274626E+02 -0.65437503294E+02  0.13428883871E+03  0.00000000000E+00 0. -1.
<mgrwt>
<rscale>  0 0.64319079E+03</rscale>
<asrwt>0</asrwt>
<pdfrwt beam="1">0</pdfrwt>
<pdfrwt beam="2">  1        2 0.37608660E+00 0.64319079E+03</pdfrwt>
<totfact> 0.48891651E+00</totfact>
</mgrwt>
</event>
<event>
 5    1  0.2368666E-004  0.6460492E+03  0.7818608E-02  0.9814221E-01
         13   -1    0    0    0    0  0.00000000000E+00  0.00000000000E+00  0.10000000000E+04  0.10000000000E+04  0.00000000000E+00 0. -1.
          2   -1    0    0  501    0 -0.00000000000E+00 -0.00000000000E+00 -0.10434490140E+03  0.10434490140E+03  0.00000000000E+00 0. -1.
    9000006    2    1    2  501    0  0.00000000000E+00  0.00000000000E+00  0.89565509860E+03  0.11043449014E+04  0.64604922847E+03 0.  0.
         13    1    3    3    0    0  0.29224634604E+02  0.13619639295E+03 -0.50366728932E+02  0.14812273324E+03  0.00000000000E+00 0. -1.
          4    1    3    3  501    0 -0.29224634604E+02 -0.13619639295E+03  0.94602182753E+03  0.95622216816E+03  0.00000000000E+00 0. -1.
<mgrwt>
<rscale>  0 0.64604923E+03</rscale>
<asrwt>0</asrwt>
<pdfrwt beam="1">0</pdfrwt>
<pdfrwt beam="2">  1        2 0.37943681E+00 0.64604923E+03</pdfrwt>
<totfact> 0.47511534E+00</totfact>
</mgrwt>
</event>
<event>
 5    1  0.2368666E-004  0.6527380E+03  0.7818608E-02  0.9801655E-01
         13   -1    0    0    0    0  0.00000000000E+00  0.00000000000E+00  0.10000000000E+04  0.10000000000E+04  0.00000000000E+00 0. -1.
          2   -1    0    0  501    0 -0.00000000000E+00 -0.00000000000E+00 -0.10651673020E+03  0.10651673020E+03  0.00000000000E+00 0. -1.
    9000006    2    1    2  501    0  0.00000000000E+00  0.00000000000E+00  0.89348326980E+03  0.11065167302E+04  0.65273801850E+03 0.  0.
         13    1    3    3    0    0  0.70958788448E+02  0.90676150831E+02 -0.70943175321E+02  0.13524144377E+03  0.00000000000E+00 0. -1.
          4    1    3    3  501    0 -0.70958788448E+02 -0.90676150831E+02  0.96442644512E+03  0.97127528643E+03  0.00000000000E+00 0. -1.
<mgrwt>
<rscale>  0 0.65273802E+03</rscale>
<asrwt>0</asrwt>
<pdfrwt beam="1">0</pdfrwt>
<pdfrwt beam="2">  1        2 0.38733438E+00 0.65273802E+03</pdfrwt>
<totfact> 0.44397213E+00</totfact>
</mgrwt>
</event>
<event>
 5    1  0.2368666E-004  0.6617221E+03  0.7818608E-02  0.9785029E-01
         13   -1    0    0    0    0  0.00000000000E+00  0.00000000000E+00  0.10000000000E+04  0.10000000000E+04  0.00000000000E+00 0. -1.
          2   -1    0    0  501    0 -0.00000000000E+00 -0.00000000000E+00 -0.10946901971E+03  0.10946901971E+03  0.00000000000E+00 0. -1.
    9000006    2    1    2  501    0  0.00000000000E+00  0.00000000000E+00  0.89053098029E+03  0.11094690197E+04  0.66172205558E+03 0.  0.
         13    1    3    3    0    0  0.31130267079E+03  0.57494963120E+02  0.28397668474E+03  0.42527377194E+03  0.00000000000E+00 0. -1.
          2    1    3    3  501    0 -0.31130267079E+03 -0.57494963120E+02  0.60655429555E+03  0.68419524777E+03  0.00000000000E+00 0. -1.
<mgrwt>
<rscale>  0 0.66172206E+03</rscale>
<asrwt>0</asrwt>
<pdfrwt beam="1">0</pdfrwt>
<pdfrwt beam="2">  1        2 0.39807000E+00 0.66172206E+03</pdfrwt>
<totfact> 0.40460005E+00</totfact>
</mgrwt>
</event>
<event>
 5    1  0.2368666E-004  0.6410238E+03  0.7818608E-02  0.9823770E-01
         13   -1    0    0    0    0  0.00000000000E+00  0.00000000000E+00  0.10000000000E+04  0.10000000000E+04  0.00000000000E+00 0. -1.
          2   -1    0    0  501    0 -0.00000000000E+00 -0.00000000000E+00 -0.10272786816E+03  0.10272786816E+03  0.00000000000E+00 0. -1.
    9000006    2    1    2  501    0  0.00000000000E+00  0.00000000000E+00  0.89727213184E+03  0.11027278682E+04  0.64102376916E+03 0.  0.
         13    1    3    3    0    0  0.71534715042E+02  0.15132599401E+03 -0.21568423305E+02  0.16876601792E+03  0.00000000000E+00 0. -1.
          4    1    3    3  501    0 -0.71534715042E+02 -0.15132599401E+03  0.91884055515E+03  0.93396185024E+03  0.00000000000E+00 0. -1.
<mgrwt>
<rscale>  0 0.64102377E+03</rscale>
<asrwt>0</asrwt>
<pdfrwt beam="1">0</pdfrwt>
<pdfrwt beam="2">  1        2 0.37355667E+00 0.64102377E+03</pdfrwt>
<totfact> 0.49958067E+00</totfact>
</mgrwt>
</event>
<event>
 5    1  0.2368666E-004  0.6555833E+03  0.7818608E-02  0.9796359E-01
         13   -1    0    0    0    0  0.00000000000E+00  0.00000000000E+00  0.10000000000E+04  0.10000000000E+04  0.00000000000E+00 0. -1.
          2   -1    0    0  501    0 -0.00000000000E+00 -0.00000000000E+00 -0.10744736117E+03  0.10744736117E+03  0.00000000000E+00 0. -1.
    9000006    2    1    2  501    0  0.00000000000E+00  0.00000000000E+00  0.89255263883E+03  0.11074473612E+04  0.65558328584E+03 0.  0.
         13    1    3    3    0    0  0.27765783866E+03  0.76546245093E+01  0.74029838752E+03  0.79069221016E+03  0.00000000000E+00 0. -1.
          4    1    3    3  501    0 -0.27765783866E+03 -0.76546245093E+01  0.15225425132E+03  0.31675515101E+03  0.00000000000E+00 0. -1.
<mgrwt>
<rscale>  0 0.65558329E+03</rscale>
<asrwt>0</asrwt>
<pdfrwt beam="1">0</pdfrwt>
<pdfrwt beam="2">  1        2 0.39071850E+00 0.65558329E+03</pdfrwt>
<totfact> 0.43120293E+00</totfact>
</mgrwt>
</event>
<event>
 5    1  0.2368666E-004  0.6410473E+03  0.7818608E-02  0.9823725E-01
         13   -1    0    0    0    0  0.00000000000E+00  0.00000000000E+00  0.10000000000E+04  0.10000000000E+04  0.00000000000E+00 0. -1.
          2   -1    0    0  501    0 -0.00000000000E+00 -0.00000000000E+00 -0.10273542084E+03  0.10273542084E+03  0.00000000000E+00 0. -1.
    9000006    2    1    2  501    0  0.00000000000E+00  0.00000000000E+00  0.89726457916E+03  0.11027354208E+04  0.64104733316E+03 0.  0.
         13    1    3    3    0    0  0.31104368442E+03 -0.69073093564E+02  0.38864272835E+03  0.50255590353E+03  0.00000000000E+00 0. -1.
          2    1    3    3  501    0 -0.31104368442E+03  0.69073093564E+02  0.50862185081E+03  0.60017951731E+03  0.00000000000E+00 0. -1.
<mgrwt>
<rscale>  0 0.64104733E+03</rscale>
<asrwt>0</asrwt>
<pdfrwt beam="1">0</pdfrwt>
<pdfrwt beam="2">  1        2 0.37358414E+00 0.64104733E+03</pdfrwt>
<totfact> 0.49946376E+00</totfact>
</mgrwt>
</event>
<event>
 5    1  0.2368666E-004  0.6479047E+03  0.7818608E-02  0.9810719E-01
         13   -1    0    0    0    0  0.00000000000E+00  0.00000000000E+00  0.10000000000E+04  0.10000000000E+04  0.00000000000E+00 0. -1.
          2   -1    0    0  501    0 -0.00000000000E+00 -0.00000000000E+00 -0.10494511743E+03  0.10494511743E+03  0.00000000000E+00 0. -1.
    9000006    2    1    2  501    0  0.00000000000E+00  0.00000000000E+00  0.89505488257E+03  0.11049451174E+04  0.64790467643E+03 0.  0.
         13    1    3    3    0    0  0.22177166434E+02  0.14533942609E+03 -0.44772303961E+02  0.15368778315E+03  0.00000000000E+00 0. -1.
          4    1    3    3  501    0 -0.22177166434E+02 -0.14533942609E+03  0.93982718653E+03  0.95125733428E+03  0.00000000000E+00 0. -1.
<mgrwt>
<rscale>  0 0.64790468E+03</rscale>
<asrwt>0</asrwt>
<pdfrwt beam="1">0</pdfrwt>
<pdfrwt beam="2">  1        2 0.38161941E+00 0.64790468E+03</pdfrwt>
<totfact> 0.46631595E+00</totfact>
</mgrwt>
</event>
<event>
 5    1  0.2368666E-004  0.6583473E+03  0.7818608E-02  0.9791241E-01
         13   -1    0    0    0    0  0.00000000000E+00  0.00000000000E+00  0.10000000000E+04  0.10000000000E+04  0.00000000000E+00 0. -1.
          2   -1    0    0  501    0 -0.00000000000E+00 -0.00000000000E+00 -0.10835529158E+03  0.10835529158E+03  0.00000000000E+00 0. -1.
    9000006    2    1    2  501    0  0.00000000000E+00  0.00000000000E+00  0.89164470842E+03  0.11083552916E+04  0.65834729916E+03 0.  0.
         13    1    3    3    0    0 -0.21344632694E+03 -0.21690274747E+02  0.86611983645E+03  0.89229668474E+03  0.00000000000E+00 0. -1.
          4    1    3    3  501    0  0.21344632694E+03  0.21690274747E+02  0.25524871972E+02  0.21605860684E+03  0.00000000000E+00 0. -1.
<mgrwt>
<rscale>  0 0.65834730E+03</rscale>
<asrwt>0</asrwt>
<pdfrwt beam="1">0</pdfrwt>
<pdfrwt beam="2">  1        2 0.39402007E+00 0.65834730E+03</pdfrwt>
<totfact> 0.41906595E+00</totfact>
</mgrwt>
</event>
<event>
 5    1  0.2368666E-004  0.6504508E+03  0.7818608E-02  0.9805934E-01
         13   -1    0    0    0    0  0.00000000000E+00  0.00000000000E+00  0.10000000000E+04  0.10000000000E+04  0.00000000000E+00 0. -1.
          2   -1    0    0  501    0 -0.00000000000E+00 -0.00000000000E+00 -0.10577155210E+03  0.10577155210E+03  0.00000000000E+00 0. -1.
    9000006    2    1    2  501    0  0.00000000000E+00  0.00000000000E+00  0.89422844790E+03  0.11057715521E+04  0.65045077325E+03 0.  0.
         13    1    3    3    0    0 -0.14360472628E+03  0.64562560550E+02  0.93088798132E+03  0.94410967340E+03  0.00000000000E+00 0. -1.
          4    1    3    3  501    0  0.14360472628E+03 -0.64562560550E+02 -0.36659533428E+02  0.16166187871E+03  0.00000000000E+00 0. -1.
<mgrwt>
<rscale>  0 0.65045077E+03</rscale>
<asrwt>0</asrwt>
<pdfrwt beam="1">0</pdfrwt>
<pdfrwt beam="2">  1        2 0.38462464E+00 0.65045077E+03</pdfrwt>
<totfact> 0.45444241E+00</totfact>
</mgrwt>
</event>
<event>
 5    1  0.2368666E-004  0.6744103E+03  0.7818608E-02  0.9762023E-01
         13   -1    0    0    0    0  0.00000000000E+00  0.00000000000E+00  0.10000000000E+04  0.10000000000E+04  0.00000000000E+00 0. -1.
          2   -1    0    0  501    0 -0.00000000000E+00 -0.00000000000E+00 -0.11370732099E+03  0.11370732099E+03  0.00000000000E+00 0. -1.
    9000006    2    1    2  501    0  0.00000000000E+00  0.00000000000E+00  0.88629267901E+03  0.11137073210E+04  0.67441032315E+03 0.  0.
         13    1    3    3    0    0 -0.19128562947E+03  0.22182077741E+03  0.16724896440E+03  0.33729344112E+03  0.00000000000E+00 0. -1.
          2    1    3    3  501    0  0.19128562947E+03 -0.22182077741E+03  0.71904371461E+03  0.77641387987E+03  0.00000000000E+00 0. -1.
<mgrwt>
<rscale>  0 0.67441032E+03</rscale>
<asrwt>0</asrwt>
<pdfrwt beam="1">0</pdfrwt>
<pdfrwt beam="2">  1        2 0.41348204E+00 0.67441032E+03</pdfrwt>
<totfact> 0.35355516E+00</totfact>
</mgrwt>
</event>
<event>
 5    1  0.2368666E-004  0.6090477E+03  0.7818608E-02  0.9886811E-01
         13   -1    0    0    0    0  0.00000000000E+00  0.00000000000E+00  0.10000000000E+04  0.10000000000E+04  0.00000000000E+00 0. -1.
          2   -1    0    0  501    0 -0.00000000000E+00 -0.00000000000E+00 -0.92734789176E+02  0.92734789176E+02  0.00000000000E+00 0. -1.
    9000006    2    1    2  501    0  0.00000000000E+00  0.00000000000E+00  0.90726521082E+03  0.10927347892E+04  0.60904774583E+03 0.  0.
         13    1    3    3    0    0  0.28945409297E+03  0.70567592667E+02  0.34056673436E+03  0.45249216306E+03  0.00000000000E+00 0. -1.
          2    1    3    3  501    0 -0.28945409297E+03 -0.70567592667E+02  0.56669847646E+03  0.64024262612E+03  0.00000000000E+00 0. -1.
<mgrwt>
<rscale>  0 0.60904775E+03</rscale>
<asrwt>0</asrwt>
<pdfrwt beam="1">0</pdfrwt>
<pdfrwt beam="2">  1        2 0.33721813E+00 0.60904775E+03</pdfrwt>
<totfact> 0.67843466E+00</totfact>
</mgrwt>
</event>
<event>
 5    1  0.2368666E-004  0.6430978E+03  0.7818608E-02  0.9819818E-01
         13   -1    0    0    0    0  0.00000000000E+00  0.00000000000E+00  0.10000000000E+04  0.10000000000E+04  0.00000000000E+00 0. -1.
          4   -1    0    0  501    0 -0.00000000000E+00 -0.00000000000E+00 -0.10339369594E+03  0.10339369594E+03  0.00000000000E+00 0. -1.
    9000006    2    1    2  501    0  0.00000000000E+00  0.00000000000E+00  0.89660630406E+03  0.11033936959E+04  0.64309780264E+03 0.  0.
         13    1    3    3    0    0  0.25002811984E+03 -0.11603131937E+03  0.16421152481E+03  0.32084693027E+03  0.00000000000E+00 0. -1.
          2    1    3    3  501    0 -0.25002811984E+03  0.11603131937E+03  0.73239477925E+03  0.78254676567E+03  0.00000000000E+00 0. -1.
<mgrwt>
<rscale>  0 0.64309780E+03</rscale>
<asrwt>0</asrwt>
<pdfrwt beam="1">0</pdfrwt>
<pdfrwt beam="2">  1        4 0.37597787E+00 0.64309780E+03</pdfrwt>
<totfact> 0.46684029E-02</totfact>
</mgrwt>
</event>
<event>
 5    1  0.2368666E-004  0.6349512E+03  0.7818608E-02  0.9835434E-01
         13   -1    0    0    0    0  0.00000000000E+00  0.00000000000E+00  0.10000000000E+04  0.10000000000E+04  0.00000000000E+00 0. -1.
          2   -1    0    0  501    0 -0.00000000000E+00 -0.00000000000E+00 -0.10079075699E+03  0.10079075699E+03  0.00000000000E+00 0. -1.
    9000006    2    1    2  501    0  0.00000000000E+00  0.00000000000E+00  0.89920924301E+03  0.11007907570E+04  0.63495120124E+03 0.  0.
         13    1    3    3    0    0 -0.63001175143E+02 -0.59432807585E+02  0.97912229429E+03  0.98294550910E+03  0.00000000000E+00 0. -1.
          2    1    3    3  501    0  0.63001175143E+02  0.59432807585E+02 -0.79913051275E+02  0.11784524789E+03  0.00000000000E+00 0. -1.
<mgrwt>
<rscale>  0 0.63495120E+03</rscale>
<asrwt>0</asrwt>
<pdfrwt beam="1">0</pdfrwt>
<pdfrwt beam="2">  1        2 0.36651262E+00 0.63495120E+03</pdfrwt>
<totfact> 0.53040502E+00</totfact>
</mgrwt>
</event>
<event>
 5    1  0.2368666E-004  0.6569521E+03  0.7818608E-02  0.9793821E-01
         13   -1    0    0    0    0  0.00000000000E+00  0.00000000000E+00  0.10000000000E+04  0.10000000000E+04  0.00000000000E+00 0. -1.
          2   -1    0    0  501    0 -0.00000000000E+00 -0.00000000000E+00 -0.10789652474E+03  0.10789652474E+03  0.00000000000E+00 0. -1.
    9000006    2    1    2  501    0  0.00000000000E+00  0.00000000000E+00  0.89210347526E+03  0.11078965247E+04  0.65695212837E+03 0.  0.
         13    1    3    3    0    0  0.28997717518E+03  0.93585754617E+02  0.23915439032E+03  0.38734981348E+03  0.00000000000E+00 0. -1.
          2    1    3    3  501    0 -0.28997717518E+03 -0.93585754617E+02  0.65294908494E+03  0.72054671126E+03  0.00000000000E+00 0. -1.
<mgrwt>
<rscale>  0 0.65695213E+03</rscale>
<asrwt>0</asrwt>
<pdfrwt beam="1">0</pdfrwt>
<pdfrwt beam="2">  1        2 0.39235183E+00 0.65695213E+03</pdfrwt>
<totfact> 0.42515952E+00</totfact>
</mgrwt>
</event>
<event>
 5    1  0.2368666E-004  0.6478815E+03  0.7818608E-02  0.9810763E-01
         13   -1    0    0    0    0  0.00000000000E+00  0.00000000000E+00  0.10000000000E+04  0.10000000000E+04  0.00000000000E+00 0. -1.
          2   -1    0    0  501    0 -0.00000000000E+00 -0.00000000000E+00 -0.10493760459E+03  0.10493760459E+03  0.00000000000E+00 0. -1.
    9000006    2    1    2  501    0  0.00000000000E+00  0.00000000000E+00  0.89506239541E+03  0.11049376046E+04  0.64788148482E+03 0.  0.
         13    1    3    3    0    0  0.13843957944E+03  0.23604606919E+03  0.15186900883E+03  0.31296558881E+03  0.00000000000E+00 0. -1.
          4    1    3    3  501    0 -0.13843957944E+03 -0.23604606919E+03  0.74319338657E+03  0.79197201578E+03  0.00000000000E+00 0. -1.
<mgrwt>
<rscale>  0 0.64788148E+03</rscale>
<asrwt>0</asrwt>
<pdfrwt beam="1">0</pdfrwt>
<pdfrwt beam="2">  1        2 0.38159209E+00 0.64788148E+03</pdfrwt>
<totfact> 0.46642517E+00</totfact>
</mgrwt>
</event>
<event>
 5    1  0.2368666E-004  0.6504703E+03  0.7818608E-02  0.9805897E-01
         13   -1    0    0    0    0  0.00000000000E+00  0.00000000000E+00  0.10000000000E+04  0.10000000000E+04  0.00000000000E+00 0. -1.
          2   -1    0    0  501    0 -0.00000000000E+00 -0.00000000000E+00 -0.10577790569E+03  0.10577790569E+03  0.00000000000E+00 0. -1.
    9000006    2    1    2  501    0  0.00000000000E+00  0.00000000000E+00  0.89422209431E+03  0.11057779057E+04  0.65047030889E+03 0.  0.
         13    1    3    3    0    0  0.73150658131E+00  0.27503782252E+03  0.15202322465E+03  0.31425690088E+03  0.00000000000E+00 0. -1.
          4    1    3    3  501    0 -0.73150658131E+00 -0.27503782252E+03  0.74219886967E+03  0.79152100481E+03  0.00000000000E+00 0. -1.
<mgrwt>
<rscale>  0 0.65047031E+03</rscale>
<asrwt>0</asrwt>
<pdfrwt beam="1">0</pdfrwt>
<pdfrwt beam="2">  1        2 0.38464774E+00 0.65047031E+03</pdfrwt>
<totfact> 0.45435220E+00</totfact>
</mgrwt>
</event>
<event>
 5    1  0.2368666E-004  0.6453826E+03  0.7818608E-02  0.9815482E-01
         13   -1    0    0    0    0  0.00000000000E+00  0.00000000000E+00  0.10000000000E+04  0.10000000000E+04  0.00000000000E+00 0. -1.
          2   -1    0    0  501    0 -0.00000000000E+00 -0.00000000000E+00 -0.10412966937E+03  0.10412966937E+03  0.00000000000E+00 0. -1.
    9000006    2    1    2  501    0  0.00000000000E+00  0.00000000000E+00  0.89587033063E+03  0.11041296694E+04  0.64538258225E+03 0.  0.
         13    1    3    3    0    0  0.16287243661E+03 -0.16095746495E+03  0.58955561992E+02  0.23645400064E+03  0.00000000000E+00 0. -1.
          2    1    3    3  501    0 -0.16287243661E+03  0.16095746495E+03  0.83691476864E+03  0.86767566873E+03  0.00000000000E+00 0. -1.
<mgrwt>
<rscale>  0 0.64538258E+03</rscale>
<asrwt>0</asrwt>
<pdfrwt beam="1">0</pdfrwt>
<pdfrwt beam="2">  1        2 0.37865414E+00 0.64538258E+03</pdfrwt>
<totfact> 0.47830735E+00</totfact>
</mgrwt>
</event>
<event>
 5    1  0.2368666E-004  0.6487441E+03  0.7818608E-02  0.9809139E-01
         13   -1    0    0    0    0  0.00000000000E+00  0.00000000000E+00  0.10000000000E+04  0.10000000000E+04  0.00000000000E+00 0. -1.
          2   -1    0    0  501    0 -0.00000000000E+00 -0.00000000000E+00 -0.10521722602E+03  0.10521722602E+03  0.00000000000E+00 0. -1.
    9000006    2    1    2  501    0  0.00000000000E+00  0.00000000000E+00  0.89478277398E+03  0.11052172260E+04  0.64874409754E+03 0.  0.
         13    1    3    3    0    0 -0.19907704351E+03 -0.42092184976E+02  0.17031737364E+02  0.20418986597E+03  0.00000000000E+00 0. -1.
          2    1    3    3  501    0  0.19907704351E+03  0.42092184976E+02  0.87775103661E+03  0.90102736005E+03  0.00000000000E+00 0. -1.
<mgrwt>
<rscale>  0 0.64874410E+03</rscale>
<asrwt>0</asrwt>
<pdfrwt beam="1">0</pdfrwt>
<pdfrwt beam="2">  1        2 0.38260890E+00 0.64874410E+03</pdfrwt>
<totfact> 0.46237578E+00</totfact>
</mgrwt>
</event>
<event>
 5    1  0.2368666E-004  0.6532207E+03  0.7818608E-02  0.9800755E-01
         13   -1    0    0    0    0  0.00000000000E+00  0.00000000000E+00  0.10000000000E+04  0.10000000000E+04  0.00000000000E+00 0. -1.
          2   -1    0    0  501    0 -0.00000000000E+00 -0.00000000000E+00 -0.10667430895E+03  0.10667430895E+03  0.00000000000E+00 0. -1.
    9000006    2    1    2  501    0  0.00000000000E+00  0.00000000000E+00  0.89332569105E+03  0.11066743089E+04  0.65322066393E+03 0.  0.
         13    1    3    3    0    0  0.31679990681E+03  0.21248030853E+02  0.57636069520E+03  0.65803139039E+03  0.00000000000E+00 0. -1.
          2    1    3    3  501    0 -0.31679990681E+03 -0.21248030853E+02  0.31696499586E+03  0.44864291856E+03  0.00000000000E+00 0. -1.
<mgrwt>
<rscale>  0 0.65322066E+03</rscale>
<asrwt>0</asrwt>
<pdfrwt beam="1">0</pdfrwt>
<pdfrwt beam="2">  1        2 0.38790740E+00 0.65322066E+03</pdfrwt>
<totfact> 0.44178623E+00</totfact>
</mgrwt>
</event>
<event>
 5    1  0.2368666E-004  0.6146522E+03  0.7818608E-02  0.9875465E-01
         13   -1    0    0    0    0  0.00000000000E+00  0.00000000000E+00  0.10000000000E+04  0.10000000000E+04  0.00000000000E+00 0. -1.
          2   -1    0    0  501    0 -0.00000000000E+00 -0.00000000000E+00 -0.94449345989E+02  0.94449345989E+02  0.00000000000E+00 0. -1.
    9000006    2    1    2  501    0  0.00000000000E+00  0.00000000000E+00  0.90555065401E+03  0.10944493460E+04  0.61465224636E+03 0.  0.
         13    1    3    3    0    0  0.12078196888E+01  0.15846043043E+03  0.92164528745E+03  0.93516907707E+03  0.00000000000E+00 0. -1.
          2    1    3    3  501    0 -0.12078196888E+01 -0.15846043043E+03 -0.16094633437E+02  0.15928026892E+03  0.00000000000E+00 0. -1.
<mgrwt>
<rscale>  0 0.61465225E+03</rscale>
<asrwt>0</asrwt>
<pdfrwt beam="1">0</pdfrwt>
<pdfrwt beam="2">  1        2 0.34345289E+00 0.61465225E+03</pdfrwt>
<totfact> 0.64402720E+00</totfact>
</mgrwt>
</event>
<event>
 5    1  0.2368666E-004  0.6459607E+03  0.7818608E-02  0.9814388E-01
         13   -1    0    0    0    0  0.00000000000E+00  0.00000000000E+00  0.10000000000E+04  0.10000000000E+04  0.00000000000E+00 0. -1.
          2   -1    0    0  501    0 -0.00000000000E+00 -0.00000000000E+00 -0.10431630267E+03  0.10431630267E+03  0.00000000000E+00 0. -1.
    9000006    2    1    2  501    0  0.00000000000E+00  0.00000000000E+00  0.89568369733E+03  0.11043163027E+04  0.64596068817E+03 0.  0.
         13    1    3    3    0    0  0.19805104769E+03 -0.25321016392E+03  0.50126968143E+03  0.59549214783E+03  0.00000000000E+00 0. -1.
          4    1    3    3  501    0 -0.19805104769E+03  0.25321016392E+03  0.39441401591E+03  0.50882415484E+03  0.00000000000E+00 0. -1.
<mgrwt>
<rscale>  0 0.64596069E+03</rscale>
<asrwt>0</asrwt>
<pdfrwt beam="1">0</pdfrwt>
<pdfrwt beam="2">  1        2 0.37933281E+00 0.64596069E+03</pdfrwt>
<totfact> 0.47553835E+00</totfact>
</mgrwt>
</event>
<event>
 5    1  0.2368666E-004  0.6539303E+03  0.7818608E-02  0.9799432E-01
         13   -1    0    0    0    0  0.00000000000E+00  0.00000000000E+00  0.10000000000E+04  0.10000000000E+04  0.00000000000E+00 0. -1.
          2   -1    0    0  501    0 -0.00000000000E+00 -0.00000000000E+00 -0.10690620681E+03  0.10690620681E+03  0.00000000000E+00 0. -1.
    9000006    2    1    2  501    0  0.00000000000E+00  0.00000000000E+00  0.89309379319E+03  0.11069062068E+04  0.65393029235E+03 0.  0.
         13    1    3    3    0    0 -0.50197898722E+02 -0.23542369516E+03  0.82109639042E+03  0.85565380128E+03  0.00000000000E+00 0. -1.
          2    1    3    3  501    0  0.50197898722E+02  0.23542369516E+03  0.71997402766E+02  0.25125240553E+03  0.00000000000E+00 0. -1.
<mgrwt>
<rscale>  0 0.65393029E+03</rscale>
<asrwt>0</asrwt>
<pdfrwt beam="1">0</pdfrwt>
<pdfrwt beam="2">  1        2 0.38875066E+00 0.65393029E+03</pdfrwt>
<totfact> 0.43858709E+00</totfact>
</mgrwt>
</event>
<event>
 5    1  0.2368666E-004  0.6613050E+03  0.7818608E-02  0.9785794E-01
         13   -1    0    0    0    0  0.00000000000E+00  0.00000000000E+00  0.10000000000E+04  0.10000000000E+04  0.00000000000E+00 0. -1.
          2   -1    0    0  501    0 -0.00000000000E+00 -0.00000000000E+00 -0.10933107473E+03  0.10933107473E+03  0.00000000000E+00 0. -1.
    9000006    2    1    2  501    0  0.00000000000E+00  0.00000000000E+00  0.89066892527E+03  0.11093310747E+04  0.66130499690E+03 0.  0.
         13    1    3    3    0    0 -0.13772345944E+03 -0.28664055742E+03  0.59724220849E+03  0.67663048707E+03  0.00000000000E+00 0. -1.
          2    1    3    3  501    0  0.13772345944E+03  0.28664055742E+03  0.29342671678E+03  0.43270058766E+03  0.00000000000E+00 0. -1.
<mgrwt>
<rscale>  0 0.66130500E+03</rscale>
<asrwt>0</asrwt>
<pdfrwt beam="1">0</pdfrwt>
<pdfrwt beam="2">  1        2 0.39756838E+00 0.66130500E+03</pdfrwt>
<totfact> 0.40636705E+00</totfact>
</mgrwt>
</event>
<event>
 5    1  0.2368666E-004  0.6528012E+03  0.7818608E-02  0.9801537E-01
         13   -1    0    0    0    0  0.00000000000E+00  0.00000000000E+00  0.10000000000E+04  0.10000000000E+04  0.00000000000E+00 0. -1.
          2   -1    0    0  501    0 -0.00000000000E+00 -0.00000000000E+00 -0.10653735642E+03  0.10653735642E+03  0.00000000000E+00 0. -1.
    9000006    2    1    2  501    0  0.00000000000E+00  0.00000000000E+00  0.89346264358E+03  0.11065373564E+04  0.65280121453E+03 0.  0.
         13    1    3    3    0    0 -0.12721809911E+03  0.19682936199E+03  0.61646197063E+02  0.24233550317E+03  0.00000000000E+00 0. -1.
          4    1    3    3  501    0  0.12721809911E+03 -0.19682936199E+03  0.83181644651E+03  0.86420185326E+03  0.00000000000E+00 0. -1.
<mgrwt>
<rscale>  0 0.65280121E+03</rscale>
<asrwt>0</asrwt>
<pdfrwt beam="1">0</pdfrwt>
<pdfrwt beam="2">  1        2 0.38740939E+00 0.65280121E+03</pdfrwt>
<totfact> 0.44368545E+00</totfact>
</mgrwt>
</event>
<event>
 5    1  0.2368666E-004  0.6536295E+03  0.7818608E-02  0.9799992E-01
         13   -1    0    0    0    0  0.00000000000E+00  0.00000000000E+00  0.10000000000E+04  0.10000000000E+04  0.00000000000E+00 0. -1.
          2   -1    0    0  501    0 -0.00000000000E+00 -0.00000000000E+00 -0.10680786865E+03  0.10680786865E+03  0.00000000000E+00 0. -1.
    9000006    2    1    2  501    0  0.00000000000E+00  0.00000000000E+00  0.89319213135E+03  0.11068078686E+04  0.65362946276E+03 0.  0.
         13    1    3    3    0    0 -0.30222514432E+03  0.11296679380E+03  0.53468702465E+03  0.62449319347E+03  0.00000000000E+00 0. -1.
          2    1    3    3  501    0  0.30222514432E+03 -0.11296679380E+03  0.35850510671E+03  0.48231467518E+03  0.00000000000E+00 0. -1.
<mgrwt>
<rscale>  0 0.65362946E+03</rscale>
<asrwt>0</asrwt>
<pdfrwt beam="1">0</pdfrwt>
<pdfrwt beam="2">  1        2 0.38839307E+00 0.65362946E+03</pdfrwt>
<totfact> 0.43994114E+00</totfact>
</mgrwt>
</event>
<event>
 5    1  0.2368666E-004  0.6388937E+03  0.7818608E-02  0.9827846E-01
         13   -1    0    0    0    0  0.00000000000E+00  0.00000000000E+00  0.10000000000E+04  0.10000000000E+04  0.00000000000E+00 0. -1.
          2   -1    0    0  501    0 -0.00000000000E+00 -0.00000000000E+00 -0.10204628061E+03  0.10204628061E+03  0.00000000000E+00 0. -1.
    9000006    2    1    2  501    0  0.00000000000E+00  0.00000000000E+00  0.89795371939E+03  0.11020462806E+04  0.63889367069E+03 0.  0.
         13    1    3    3    0    0 -0.14884834219E+03  0.14153789312E+03  0.87099434867E+03  0.89488544495E+03  0.00000000000E+00 0. -1.
          2    1    3    3  501    0  0.14884834219E+03 -0.14153789312E+03  0.26959370716E+02  0.20716083566E+03  0.00000000000E+00 0. -1.
<mgrwt>
<rscale>  0 0.63889367E+03</rscale>
<asrwt>0</asrwt>
<pdfrwt beam="1">0</pdfrwt>
<pdfrwt beam="2">  1        2 0.37107817E+00 0.63889367E+03</pdfrwt>
<totfact> 0.51023411E+00</totfact>
</mgrwt>
</event>
<event>
 5    1  0.2368666E-004  0.6168178E+03  0.7818608E-02  0.9871116E-01
         13   -1    0    0    0    0  0.00000000000E+00  0.00000000000E+00  0.10000000000E+04  0.10000000000E+04  0.00000000000E+00 0. -1.
          2   -1    0    0  501    0 -0.00000000000E+00 -0.00000000000E+00 -0.95116037716E+02  0.95116037716E+02  0.00000000000E+00 0. -1.
    9000006    2    1    2  501    0  0.00000000000E+00  0.00000000000E+00  0.90488396228E+03  0.10951160377E+04  0.61681776147E+03 0.  0.
         13    1    3    3    0    0  0.38333414443E+02 -0.74628294983E+02 -0.74466306585E+02  0.11217871407E+03  0.00000000000E+00 0. -1.
          4    1    3    3  501    0 -0.38333414443E+02  0.74628294983E+02  0.97935026887E+03  0.98293732364E+03  0.00000000000E+00 0. -1.
<mgrwt>
<rscale>  0 0.61681776E+03</rscale>
<asrwt>0</asrwt>
<pdfrwt beam="1">0</pdfrwt>
<pdfrwt beam="2">  1        2 0.34587723E+00 0.61681776E+03</pdfrwt>
<totfact> 0.63109581E+00</totfact>
</mgrwt>
</event>
<event>
 5    1  0.2368666E-004  0.6497127E+03  0.7818608E-02  0.9807318E-01
         13   -1    0    0    0    0  0.00000000000E+00  0.00000000000E+00  0.10000000000E+04  0.10000000000E+04  0.00000000000E+00 0. -1.
          2   -1    0    0  501    0 -0.00000000000E+00 -0.00000000000E+00 -0.10553165977E+03  0.10553165977E+03  0.00000000000E+00 0. -1.
    9000006    2    1    2  501    0  0.00000000000E+00  0.00000000000E+00  0.89446834023E+03  0.11055316598E+04  0.64971273583E+03 0.  0.
         13    1    3    3    0    0 -0.22651812691E+03  0.13478833037E+03  0.12414504580E+03  0.29135948280E+03  0.00000000000E+00 0. -1.
          4    1    3    3  501    0  0.22651812691E+03 -0.13478833037E+03  0.77032329442E+03  0.81417217697E+03  0.00000000000E+00 0. -1.
<mgrwt>
<rscale>  0 0.64971274E+03</rscale>
<asrwt>0</asrwt>
<pdfrwt beam="1">0</pdfrwt>
<pdfrwt beam="2">  1        2 0.38375230E+00 0.64971274E+03</pdfrwt>
<totfact> 0.45786040E+00</totfact>
</mgrwt>
</event>
<event>
 5    1  0.2368666E-004  0.5815390E+03  0.7818608E-02  0.9944465E-01
         13   -1    0    0    0    0  0.00000000000E+00  0.00000000000E+00  0.10000000000E+04  0.10000000000E+04  0.00000000000E+00 0. -1.
          2   -1    0    0  501    0 -0.00000000000E+00 -0.00000000000E+00 -0.84546897650E+02  0.84546897650E+02  0.00000000000E+00 0. -1.
    9000006    2    1    2  501    0  0.00000000000E+00  0.00000000000E+00  0.91545310235E+03  0.10845468977E+04  0.58153898459E+03 0.  0.
         13    1    3    3    0    0 -0.17929006982E+03  0.17746393712E+03  0.72739562528E+03  0.76989789829E+03  0.00000000000E+00 0. -1.
          4    1    3    3  501    0  0.17929006982E+03 -0.17746393712E+03  0.18805747707E+03  0.31464899936E+03  0.00000000000E+00 0. -1.
<mgrwt>
<rscale>  0 0.58153898E+03</rscale>
<asrwt>0</asrwt>
<pdfrwt beam="1">0</pdfrwt>
<pdfrwt beam="2">  1        2 0.30744391E+00 0.58153898E+03</pdfrwt>
<totfact> 0.86832124E+00</totfact>
</mgrwt>
</event>
<event>
 5    1  0.2368666E-004  0.6471842E+03  0.7818608E-02  0.9812077E-01
         13   -1    0    0    0    0  0.00000000000E+00  0.00000000000E+00  0.10000000000E+04  0.10000000000E+04  0.00000000000E+00 0. -1.
          2   -1    0    0  501    0 -0.00000000000E+00 -0.00000000000E+00 -0.10471184170E+03  0.10471184170E+03  0.00000000000E+00 0. -1.
    9000006    2    1    2  501    0  0.00000000000E+00  0.00000000000E+00  0.89528815830E+03  0.11047118417E+04  0.64718418307E+03 0.  0.
         13    1    3    3    0    0  0.31439488527E+03  0.19687890912E+02  0.57400557342E+03  0.65476267093E+03  0.00000000000E+00 0. -1.
          4    1    3    3  501    0 -0.31439488527E+03 -0.19687890912E+02  0.32128258488E+03  0.44994917077E+03  0.00000000000E+00 0. -1.
<mgrwt>
<rscale>  0 0.64718418E+03</rscale>
<asrwt>0</asrwt>
<pdfrwt beam="1">0</pdfrwt>
<pdfrwt beam="2">  1        2 0.38077114E+00 0.64718418E+03</pdfrwt>
<totfact> 0.46971810E+00</totfact>
</mgrwt>
</event>
<event>
 5    1  0.2368666E-004  0.6479510E+03  0.7818608E-02  0.9810632E-01
         13   -1    0    0    0    0  0.00000000000E+00  0.00000000000E+00  0.10000000000E+04  0.10000000000E+04  0.00000000000E+00 0. -1.
          2   -1    0    0  501    0 -0.00000000000E+00 -0.00000000000E+00 -0.10496011938E+03  0.10496011938E+03  0.00000000000E+00 0. -1.
    9000006    2    1    2  501    0  0.00000000000E+00  0.00000000000E+00  0.89503988062E+03  0.11049601194E+04  0.64795098390E+03 0.  0.
         13    1    3    3    0    0  0.26026646079E+03 -0.18702271698E+03  0.36673784522E+03  0.48704494083E+03  0.00000000000E+00 0. -1.
          2    1    3    3  501    0 -0.26026646079E+03  0.18702271698E+03  0.52830203540E+03  0.61791517855E+03  0.00000000000E+00 0. -1.
<mgrwt>
<rscale>  0 0.64795098E+03</rscale>
<asrwt>0</asrwt>
<pdfrwt beam="1">0</pdfrwt>
<pdfrwt beam="2">  1        2 0.38167397E+00 0.64795098E+03</pdfrwt>
<totfact> 0.46609793E+00</totfact>
</mgrwt>
</event>
<event>
 5    1  0.2368666E-004  0.6623913E+03  0.7818608E-02  0.9783802E-01
         13   -1    0    0    0    0  0.00000000000E+00  0.00000000000E+00  0.10000000000E+04  0.10000000000E+04  0.00000000000E+00 0. -1.
          2   -1    0    0  501    0 -0.00000000000E+00 -0.00000000000E+00 -0.10969056854E+03  0.10969056854E+03  0.00000000000E+00 0. -1.
    9000006    2    1    2  501    0  0.00000000000E+00  0.00000000000E+00  0.89030943146E+03  0.11096905685E+04  0.66239133007E+03 0.  0.
         13    1    3    3    0    0  0.20428504146E+03  0.22961489660E+03  0.65193598065E+03  0.72074676674E+03  0.00000000000E+00 0. -1.
          2    1    3    3  501    0 -0.20428504146E+03 -0.22961489660E+03  0.23837345081E+03  0.38894380180E+03  0.00000000000E+00 0. -1.
<mgrwt>
<rscale>  0 0.66239133E+03</rscale>
<asrwt>0</asrwt>
<pdfrwt beam="1">0</pdfrwt>
<pdfrwt beam="2">  1        2 0.39887564E+00 0.66239133E+03</pdfrwt>
<totfact> 0.40177659E+00</totfact>
</mgrwt>
</event>
<event>
 5    1  0.2368666E-004  0.6561666E+03  0.7818608E-02  0.9795276E-01
         13   -1    0    0    0    0  0.00000000000E+00  0.00000000000E+00  0.10000000000E+04  0.10000000000E+04  0.00000000000E+00 0. -1.
          2   -1    0    0  501    0 -0.00000000000E+00 -0.00000000000E+00 -0.10763864154E+03  0.10763864154E+03  0.00000000000E+00 0. -1.
    9000006    2    1    2  501    0  0.00000000000E+00  0.00000000000E+00  0.89236135846E+03  0.11076386415E+04  0.65616656892E+03 0.  0.
         13    1    3    3    0    0  0.68989144147E+02  0.44425172993E+02 -0.90037472862E+02  0.12181890052E+03  0.00000000000E+00 0. -1.
          4    1    3    3  501    0 -0.68989144147E+02 -0.44425172993E+02  0.98239883132E+03  0.98581974102E+03  0.00000000000E+00 0. -1.
<mgrwt>
<rscale>  0 0.65616657E+03</rscale>
<asrwt>0</asrwt>
<pdfrwt beam="1">0</pdfrwt>
<pdfrwt beam="2">  1        2 0.39141407E+00 0.65616657E+03</pdfrwt>
<totfact> 0.42861987E+00</totfact>
</mgrwt>
</event>
<event>
 5    1  0.2368666E-004  0.6505416E+03  0.7818608E-02  0.9805764E-01
         13   -1    0    0    0    0  0.00000000000E+00  0.00000000000E+00  0.10000000000E+04  0.10000000000E+04  0.00000000000E+00 0. -1.
          2   -1    0    0  501    0 -0.00000000000E+00 -0.00000000000E+00 -0.10580107968E+03  0.10580107968E+03  0.00000000000E+00 0. -1.
    9000006    2    1    2  501    0  0.00000000000E+00  0.00000000000E+00  0.89419892032E+03  0.11058010797E+04  0.65054155804E+03 0.  0.
         13    1    3    3    0    0 -0.13569101559E+03  0.17366018245E+03  0.85374711553E+03  0.88173354703E+03  0.00000000000E+00 0. -1.
          4    1    3    3  501    0  0.13569101559E+03 -0.17366018245E+03  0.40451804787E+02  0.22406753266E+03  0.00000000000E+00 0. -1.
<mgrwt>
<rscale>  0 0.65054156E+03</rscale>
<asrwt>0</asrwt>
<pdfrwt beam="1">0</pdfrwt>
<pdfrwt beam="2">  1        2 0.38473201E+00 0.65054156E+03</pdfrwt>
<totfact> 0.45402331E+00</totfact>
</mgrwt>
</event>
<event>
 5    1  0.2368666E-004  0.6239028E+03  0.7818608E-02  0.9857020E-01
         13   -1    0    0    0    0  0.00000000000E+00  0.00000000000E+00  0.10000000000E+04  0.10000000000E+04  0.00000000000E+00 0. -1.
          2   -1    0    0  501    0 -0.00000000000E+00 -0.00000000000E+00 -0.97313667915E+02  0.97313667915E+02  0.00000000000E+00 0. -1.
    9000006    2    1    2  501    0  0.00000000000E+00  0.00000000000E+00  0.90268633208E+03  0.10973136679E+04  0.62390277420E+03 0.  0.
         13    1    3    3    0    0 -0.21466814918E+03  0.61609150368E+02  0.68283949125E+02  0.23353971695E+03  0.00000000000E+00 0. -1.
          4    1    3    3  501    0  0.21466814918E+03 -0.61609150368E+02  0.83440238296E+03  0.86377395097E+03  0.00000000000E+00 0. -1.
<mgrwt>
<rscale>  0 0.62390277E+03</rscale>
<asrwt>0</asrwt>
<pdfrwt beam="1">0</pdfrwt>
<pdfrwt beam="2">  1        2 0.35386863E+00 0.62390277E+03</pdfrwt>
<totfact> 0.59016489E+00</totfact>
</mgrwt>
</event>
<event>
 5    1  0.2368666E-004  0.6544220E+03  0.7818608E-02  0.9798517E-01
         13   -1    0    0    0    0  0.00000000000E+00  0.00000000000E+00  0.10000000000E+04  0.10000000000E+04  0.00000000000E+00 0. -1.
          2   -1    0    0  501    0 -0.00000000000E+00 -0.00000000000E+00 -0.10706702654E+03  0.10706702654E+03  0.00000000000E+00 0. -1.
    9000006    2    1    2  501    0  0.00000000000E+00  0.00000000000E+00  0.89293297346E+03  0.11070670265E+04  0.65442196338E+03 0.  0.
         13    1    3    3    0    0 -0.46318238556E+01  0.10463423087E+02 -0.10672845265E+03  0.10734011189E+03  0.00000000000E+00 0. -1.
          2    1    3    3  501    0  0.46318238556E+01 -0.10463423087E+02  0.99966142611E+03  0.99972691465E+03  0.00000000000E+00 0. -1.
<mgrwt>
<rscale>  0 0.65442196E+03</rscale>
<asrwt>0</asrwt>
<pdfrwt beam="1">0</pdfrwt>
<pdfrwt beam="2">  1        2 0.38933546E+00 0.65442196E+03</pdfrwt>
<totfact> 0.43638082E+00</totfact>
</mgrwt>
</event>
<event>
 5    1  0.2368666E-004  0.6251993E+03  0.7818608E-02  0.9854462E-01
         13   -1    0    0    0    0  0.00000000000E+00  0.00000000000E+00  0.10000000000E+04  0.10000000000E+04  0.00000000000E+00 0. -1.
          2   -1    0    0  501    0 -0.00000000000E+00 -0.00000000000E+00 -0.97718536672E+02  0.97718536672E+02  0.00000000000E+00 0. -1.
    9000006    2    1    2  501    0  0.00000000000E+00  0.00000000000E+00  0.90228146333E+03  0.10977185367E+04  0.62519928558E+03 0.  0.
         13    1    3    3    0    0  0.25489565549E+03  0.16569243147E+03  0.32340464386E+03  0.44386522808E+03  0.00000000000E+00 0. -1.
          4    1    3    3  501    0 -0.25489565549E+03 -0.16569243147E+03  0.57887681947E+03  0.65385330859E+03  0.00000000000E+00 0. -1.
<mgrwt>
<rscale>  0 0.62519929E+03</rscale>
<asrwt>0</asrwt>
<pdfrwt beam="1">0</pdfrwt>
<pdfrwt beam="2">  1        2 0.35534088E+00 0.62519929E+03</pdfrwt>
<totfact> 0.58289899E+00</totfact>
</mgrwt>
</event>
<event>
 5    1  0.2368666E-004  0.6502494E+03  0.7818608E-02  0.9806311E-01
         13   -1    0    0    0    0  0.00000000000E+00  0.00000000000E+00  0.10000000000E+04  0.10000000000E+04  0.00000000000E+00 0. -1.
          2   -1    0    0  501    0 -0.00000000000E+00 -0.00000000000E+00 -0.10570608204E+03  0.10570608204E+03  0.00000000000E+00 0. -1.
    9000006    2    1    2  501    0  0.00000000000E+00  0.00000000000E+00  0.89429391796E+03  0.11057060820E+04  0.65024943536E+03 0.  0.
         13    1    3    3    0    0 -0.17714538111E+03 -0.68434888655E+02 -0.15944519440E+01  0.18991145913E+03  0.00000000000E+00 0. -1.
          2    1    3    3  501    0  0.17714538111E+03  0.68434888655E+02  0.89588836990E+03  0.91579462291E+03  0.00000000000E+00 0. -1.
<mgrwt>
<rscale>  0 0.65024944E+03</rscale>
<asrwt>0</asrwt>
<pdfrwt beam="1">0</pdfrwt>
<pdfrwt beam="2">  1        2 0.38438656E+00 0.65024944E+03</pdfrwt>
<totfact> 0.45537293E+00</totfact>
</mgrwt>
</event>
<event>
 5    1  0.2368666E-004  0.6527013E+03  0.7818608E-02  0.9801724E-01
         13   -1    0    0    0    0  0.00000000000E+00  0.00000000000E+00  0.10000000000E+04  0.10000000000E+04  0.00000000000E+00 0. -1.
          2   -1    0    0  501    0 -0.00000000000E+00 -0.00000000000E+00 -0.10650475512E+03  0.10650475512E+03  0.00000000000E+00 0. -1.
    9000006    2    1    2  501    0  0.00000000000E+00  0.00000000000E+00  0.89349524488E+03  0.11065047551E+04  0.65270132564E+03 0.  0.
         13    1    3    3    0    0  0.19157680492E+03  0.33294149286E+01  0.89460693113E+03  0.91489579648E+03  0.00000000000E+00 0. -1.
          4    1    3    3  501    0 -0.19157680492E+03 -0.33294149286E+01 -0.11116862509E+01  0.19160895864E+03  0.00000000000E+00 0. -1.
<mgrwt>
<rscale>  0 0.65270133E+03</rscale>
<asrwt>0</asrwt>
<pdfrwt beam="1">0</pdfrwt>
<pdfrwt beam="2">  1        2 0.38729084E+00 0.65270133E+03</pdfrwt>
<totfact> 0.44413865E+00</totfact>
</mgrwt>
</event>
<event>
 5    1  0.2368666E-004  0.5932021E+03  0.7818608E-02  0.9919611E-01
         13   -1    0    0    0    0  0.00000000000E+00  0.00000000000E+00  0.10000000000E+04  0.10000000000E+04  0.00000000000E+00 0. -1.
          2   -1    0    0  501    0 -0.00000000000E+00 -0.00000000000E+00 -0.87972192579E+02  0.87972192579E+02  0.00000000000E+00 0. -1.
    9000006    2    1    2  501    0  0.00000000000E+00  0.00000000000E+00  0.91202780742E+03  0.10879721926E+04  0.59320213277E+03 0.  0.
         13    1    3    3    0    0  0.75242755569E+01 -0.12877747095E+03 -0.33829328295E+02  0.13335919616E+03  0.00000000000E+00 0. -1.
          4    1    3    3  501    0 -0.75242755569E+01  0.12877747095E+03  0.94585713572E+03  0.95461299642E+03  0.00000000000E+00 0. -1.
<mgrwt>
<rscale>  0 0.59320213E+03</rscale>
<asrwt>0</asrwt>
<pdfrwt beam="1">0</pdfrwt>
<pdfrwt beam="2">  1        2 0.31989956E+00 0.59320213E+03</pdfrwt>
<totfact> 0.78337881E+00</totfact>
</mgrwt>
</event>
<event>
 5    1  0.2368666E-004  0.6487276E+03  0.7818608E-02  0.9809170E-01
         13   -1    0    0    0    0  0.00000000000E+00  0.00000000000E+00  0.10000000000E+04  0.10000000000E+04  0.00000000000E+00 0. -1.
          2   -1    0    0  501    0 -0.00000000000E+00 -0.00000000000E+00 -0.10521187872E+03  0.10521187872E+03  0.00000000000E+00 0. -1.
    9000006    2    1    2  501    0  0.00000000000E+00  0.00000000000E+00  0.89478812128E+03  0.11052118787E+04  0.64872761223E+03 0.  0.
         13    1    3    3    0    0  0.66206683146E+02 -0.14143938708E+03  0.93173576150E+03  0.94473274229E+03  0.00000000000E+00 0. -1.
          4    1    3    3  501    0 -0.66206683146E+02  0.14143938708E+03 -0.36947640215E+02  0.16047913642E+03  0.00000000000E+00 0. -1.
<mgrwt>
<rscale>  0 0.64872761E+03</rscale>
<asrwt>0</asrwt>
<pdfrwt beam="1">0</pdfrwt>
<pdfrwt beam="2">  1        2 0.38258946E+00 0.64872761E+03</pdfrwt>
<totfact> 0.46245291E+00</totfact>
</mgrwt>
</event>
<event>
 5    1  0.2368666E-004  0.6634557E+03  0.7818608E-02  0.9781853E-01
         13   -1    0    0    0    0  0.00000000000E+00  0.00000000000E+00  0.10000000000E+04  0.10000000000E+04  0.00000000000E+00 0. -1.
          2   -1    0    0  501    0 -0.00000000000E+00 -0.00000000000E+00 -0.11004337944E+03  0.11004337944E+03  0.00000000000E+00 0. -1.
    9000006    2    1    2  501    0  0.00000000000E+00  0.00000000000E+00  0.88995662056E+03  0.11100433794E+04  0.66345573911E+03 0.  0.
         13    1    3    3    0    0 -0.16741250536E+03 -0.22980056729E+03  0.15903503641E+03  0.32577199155E+03  0.00000000000E+00 0. -1.
          2    1    3    3  501    0  0.16741250536E+03  0.22980056729E+03  0.73092158415E+03  0.78427138789E+03  0.00000000000E+00 0. -1.
<mgrwt>
<rscale>  0 0.66345574E+03</rscale>
<asrwt>0</asrwt>
<pdfrwt beam="1">0</pdfrwt>
<pdfrwt beam="2">  1        2 0.40015859E+00 0.66345574E+03</pdfrwt>
<totfact> 0.39731682E+00</totfact>
</mgrwt>
</event>
<event>
 5    1  0.2368666E-004  0.5824382E+03  0.7818608E-02  0.9942526E-01
         13   -1    0    0    0    0  0.00000000000E+00  0.00000000000E+00  0.10000000000E+04  0.10000000000E+04  0.00000000000E+00 0. -1.
          2   -1    0    0  501    0 -0.00000000000E+00 -0.00000000000E+00 -0.84808557815E+02  0.84808557815E+02  0.00000000000E+00 0. -1.
    9000006    2    1    2  501    0  0.00000000000E+00  0.00000000000E+00  0.91519144218E+03  0.10848085578E+04  0.58243817806E+03 0.  0.
         13    1    3    3    0    0 -0.72326599121E+02  0.19367476620E+03  0.75584034086E+02  0.22012268900E+03  0.00000000000E+00 0. -1.
          4    1    3    3  501    0  0.72326599121E+02 -0.19367476620E+03  0.83960740810E+03  0.86468586882E+03  0.00000000000E+00 0. -1.
<mgrwt>
<rscale>  0 0.58243818E+03</rscale>
<asrwt>0</asrwt>
<pdfrwt beam="1">0</pdfrwt>
<pdfrwt beam="2">  1        2 0.30839541E+00 0.58243818E+03</pdfrwt>
<totfact> 0.86153056E+00</totfact>
</mgrwt>
</event>
<event>
 5    1  0.2368666E-004  0.6490435E+03  0.7818608E-02  0.9808576E-01
         13   -1    0    0    0    0  0.00000000000E+00  0.00000000000E+00  0.10000000000E+04  0.10000000000E+04  0.00000000000E+00 0. -1.
          2   -1    0    0  501    0 -0.00000000000E+00 -0.00000000000E+00 -0.10531436505E+03  0.10531436505E+03  0.00000000000E+00 0. -1.
    9000006    2    1    2  501    0  0.00000000000E+00  0.00000000000E+00  0.89468563495E+03  0.11053143651E+04  0.64904349639E+03 0.  0.
         13    1    3    3    0    0  0.19346827083E+03 -0.28144405895E+02  0.88845424156E+03  0.90971040378E+03  0.00000000000E+00 0. -1.
          2    1    3    3  501    0 -0.19346827083E+03  0.28144405895E+02  0.62313933885E+01  0.19560396127E+03  0.00000000000E+00 0. -1.
<mgrwt>
<rscale>  0 0.64904350E+03</rscale>
<asrwt>0</asrwt>
<pdfrwt beam="1">0</pdfrwt>
<pdfrwt beam="2">  1        2 0.38296214E+00 0.64904350E+03</pdfrwt>
<totfact> 0.46097653E+00</totfact>
</mgrwt>
</event>
<event>
 5    1  0.2368666E-004  0.6463816E+03  0.7818608E-02  0.9813593E-01
         13   -1    0    0    0    0  0.00000000000E+00  0.00000000000E+00  0.10000000000E+04  0.10000000000E+04  0.00000000000E+00 0. -1.
          2   -1    0    0  501    0 -0.00000000000E+00 -0.00000000000E+00 -0.10445228493E+03  0.10445228493E+03  0.00000000000E+00 0. -1.
    9000006    2    1    2  501    0  0.00000000000E+00  0.00000000000E+00  0.89554771507E+03  0.11044522849E+04  0.64638157440E+03 0.  0.
         13    1    3    3    0    0 -0.14964692323E+02  0.44947826889E+02 -0.98487539460E+02  0.10928881273E+03  0.00000000000E+00 0. -1.
          2    1    3    3  501    0  0.14964692323E+02 -0.44947826889E+02  0.99403525453E+03  0.99516347220E+03  0.00000000000E+00 0. -1.
<mgrwt>
<rscale>  0 0.64638157E+03</rscale>
<asrwt>0</asrwt>
<pdfrwt beam="1">0</pdfrwt>
<pdfrwt beam="2">  1        2 0.37982729E+00 0.64638157E+03</pdfrwt>
<totfact> 0.47353005E+00</totfact>
</mgrwt>
</event>
<event>
 5    1  0.2368666E-004  0.6612735E+03  0.7818608E-02  0.9785852E-01
         13   -1    0    0    0    0  0.00000000000E+00  0.00000000000E+00  0.10000000000E+04  0.10000000000E+04  0.00000000000E+00 0. -1.
          2   -1    0    0  501    0 -0.00000000000E+00 -0.00000000000E+00 -0.10932066163E+03  0.10932066163E+03  0.00000000000E+00 0. -1.
    9000006    2    1    2  501    0  0.00000000000E+00  0.00000000000E+00  0.89067933837E+03  0.11093206616E+04  0.66127350358E+03 0.  0.
         13    1    3    3    0    0 -0.25717524681E+03  0.19471369544E+03  0.56709956233E+03  0.65242198335E+03  0.00000000000E+00 0. -1.
          2    1    3    3  501    0  0.25717524681E+03 -0.19471369544E+03  0.32357977604E+03  0.45689867829E+03  0.00000000000E+00 0. -1.
<mgrwt>
<rscale>  0 0.66127350E+03</rscale>
<asrwt>0</asrwt>
<pdfrwt beam="1">0</pdfrwt>
<pdfrwt beam="2">  1        2 0.39753052E+00 0.66127350E+03</pdfrwt>
<totfact> 0.40650072E+00</totfact>
</mgrwt>
</event>
<event>
 5    1  0.2368666E-004  0.5737985E+03  0.7818608E-02  0.9961308E-01
         13   -1    0    0    0    0  0.00000000000E+00  0.00000000000E+00  0.10000000000E+04  0.10000000000E+04  0.00000000000E+00 0. -1.
          2   -1    0    0  501    0 -0.00000000000E+00 -0.00000000000E+00 -0.82311169118E+02  0.82311169118E+02  0.00000000000E+00 0. -1.
    9000006    2    1    2  501    0  0.00000000000E+00  0.00000000000E+00  0.91768883088E+03  0.10823111691E+04  0.57379846329E+03 0.  0.
         13    1    3    3    0    0  0.12203417234E+02 -0.26609366847E+03  0.25783648051E+03  0.37072147830E+03  0.00000000000E+00 0. -1.
          2    1    3    3  501    0 -0.12203417234E+02  0.26609366847E+03  0.65985235037E+03  0.71158969082E+03  0.00000000000E+00 0. -1.
<mgrwt>
<rscale>  0 0.57379846E+03</rscale>
<asrwt>0</asrwt>
<pdfrwt beam="1">0</pdfrwt>
<pdfrwt beam="2">  1        2 0.29931397E+00 0.57379846E+03</pdfrwt>
<totfact> 0.92850945E+00</totfact>
</mgrwt>
</event>
<event>
 5    1  0.2368666E-004  0.6520316E+03  0.7818608E-02  0.9802974E-01
         13   -1    0    0    0    0  0.00000000000E+00  0.00000000000E+00  0.10000000000E+04  0.10000000000E+04  0.00000000000E+00 0. -1.
          2   -1    0    0  501    0 -0.00000000000E+00 -0.00000000000E+00 -0.10628630745E+03  0.10628630745E+03  0.00000000000E+00 0. -1.
    9000006    2    1    2  501    0  0.00000000000E+00  0.00000000000E+00  0.89371369255E+03  0.11062863074E+04  0.65203161716E+03 0.  0.
         13    1    3    3    0    0 -0.12284084503E+03 -0.29065159287E+03  0.58592306779E+03  0.66548783837E+03  0.00000000000E+00 0. -1.
          2    1    3    3  501    0  0.12284084503E+03  0.29065159287E+03  0.30779062476E+03  0.44079846907E+03  0.00000000000E+00 0. -1.
<mgrwt>
<rscale>  0 0.65203162E+03</rscale>
<asrwt>0</asrwt>
<pdfrwt beam="1">0</pdfrwt>
<pdfrwt beam="2">  1        2 0.38649648E+00 0.65203162E+03</pdfrwt>
<totfact> 0.44718615E+00</totfact>
</mgrwt>
</event>
<event>
 5    1  0.2368666E-004  0.6587764E+03  0.7818608E-02  0.9790449E-01
         13   -1    0    0    0    0  0.00000000000E+00  0.00000000000E+00  0.10000000000E+04  0.10000000000E+04  0.00000000000E+00 0. -1.
          2   -1    0    0  501    0 -0.00000000000E+00 -0.00000000000E+00 -0.10849659689E+03  0.10849659689E+03  0.00000000000E+00 0. -1.
    9000006    2    1    2  501    0  0.00000000000E+00  0.00000000000E+00  0.89150340311E+03  0.11084965969E+04  0.65877643215E+03 0.  0.
         13    1    3    3    0    0  0.16258387333E+03 -0.27246813374E+03  0.59459051599E+03  0.67395124562E+03  0.00000000000E+00 0. -1.
          4    1    3    3  501    0 -0.16258387333E+03  0.27246813374E+03  0.29691288712E+03  0.43454535127E+03  0.00000000000E+00 0. -1.
<mgrwt>
<rscale>  0 0.65877643E+03</rscale>
<asrwt>0</asrwt>
<pdfrwt beam="1">0</pdfrwt>
<pdfrwt beam="2">  1        2 0.39453391E+00 0.65877643E+03</pdfrwt>
<totfact> 0.41720513E+00</totfact>
</mgrwt>
</event>
<event>
 5    1  0.2368666E-004  0.6264424E+03  0.7818608E-02  0.9852016E-01
         13   -1    0    0    0    0  0.00000000000E+00  0.00000000000E+00  0.10000000000E+04  0.10000000000E+04  0.00000000000E+00 0. -1.
          2   -1    0    0  501    0 -0.00000000000E+00 -0.00000000000E+00 -0.98107533333E+02  0.98107533333E+02  0.00000000000E+00 0. -1.
    9000006    2    1    2  501    0  0.00000000000E+00  0.00000000000E+00  0.90189246667E+03  0.10981075333E+04  0.62644244215E+03 0.  0.
         13    1    3    3    0    0  0.30751698179E+03  0.58162594649E+02  0.42891564862E+03  0.53095971141E+03  0.00000000000E+00 0. -1.
          4    1    3    3  501    0 -0.30751698179E+03 -0.58162594649E+02  0.47297681805E+03  0.56714782193E+03  0.00000000000E+00 0. -1.
<mgrwt>
<rscale>  0 0.62644244E+03</rscale>
<asrwt>0</asrwt>
<pdfrwt beam="1">0</pdfrwt>
<pdfrwt beam="2">  1        2 0.35675542E+00 0.62644244E+03</pdfrwt>
<totfact> 0.57599615E+00</totfact>
</mgrwt>
</event>
<event>
 5    1  0.2368666E-004  0.6416102E+03  0.7818608E-02  0.9822651E-01
         13   -1    0    0    0    0  0.00000000000E+00  0.00000000000E+00  0.10000000000E+04  0.10000000000E+04  0.00000000000E+00 0. -1.
          2   -1    0    0  501    0 -0.00000000000E+00 -0.00000000000E+00 -0.10291592486E+03  0.10291592486E+03  0.00000000000E+00 0. -1.
    9000006    2    1    2  501    0  0.00000000000E+00  0.00000000000E+00  0.89708407514E+03  0.11029159249E+04  0.64161023952E+03 0.  0.
         13    1    3    3    0    0 -0.29741110469E+03 -0.28722320574E+02  0.24779927166E+03  0.38817884529E+03  0.00000000000E+00 0. -1.
          4    1    3    3  501    0  0.29741110469E+03  0.28722320574E+02  0.64928480348E+03  0.71473707958E+03  0.00000000000E+00 0. -1.
<mgrwt>
<rscale>  0 0.64161024E+03</rscale>
<asrwt>0</asrwt>
<pdfrwt beam="1">0</pdfrwt>
<pdfrwt beam="2">  1        2 0.37424052E+00 0.64161024E+03</pdfrwt>
<totfact> 0.49667731E+00</totfact>
</mgrwt>
</event>
<event>
 5    1  0.2368666E-004  0.6343837E+03  0.7818608E-02  0.9836531E-01
         13   -1    0    0    0    0  0.00000000000E+00  0.00000000000E+00  0.10000000000E+04  0.10000000000E+04  0.00000000000E+00 0. -1.
          2   -1    0    0  501    0 -0.00000000000E+00 -0.00000000000E+00 -0.10061067923E+03  0.10061067923E+03  0.00000000000E+00 0. -1.
    9000006    2    1    2  501    0  0.00000000000E+00  0.00000000000E+00  0.89938932077E+03  0.11006106792E+04  0.63438373003E+03 0.  0.
         13    1    3    3    0    0  0.20263928297E+03 -0.23865126246E+03  0.53804965504E+03  0.62250665487E+03  0.00000000000E+00 0. -1.
          4    1    3    3  501    0 -0.20263928297E+03  0.23865126246E+03  0.36133966573E+03  0.47810402436E+03  0.00000000000E+00 0. -1.
<mgrwt>
<rscale>  0 0.63438373E+03</rscale>
<asrwt>0</asrwt>
<pdfrwt beam="1">0</pdfrwt>
<pdfrwt beam="2">  1        2 0.36585779E+00 0.63438373E+03</pdfrwt>
<totfact> 0.53335738E+00</totfact>
</mgrwt>
</event>
<event>
 5    1  0.2368666E-004  0.6508848E+03  0.7818608E-02  0.9805120E-01
         13   -1    0    0    0    0  0.00000000000E+00  0.00000000000E+00  0.10000000000E+04  0.10000000000E+04  0.00000000000E+00 0. -1.
          2   -1    0    0  501    0 -0.00000000000E+00 -0.00000000000E+00 -0.10591274922E+03  0.10591274922E+03  0.00000000000E+00 0. -1.
    9000006    2    1    2  501    0  0.00000000000E+00  0.00000000000E+00  0.89408725078E+03  0.11059127492E+04  0.65088478004E+03 0.  0.
         13    1    3    3    0    0 -0.31172401878E+03 -0.81631978540E+02  0.52448017926E+03  0.61556080304E+03  0.00000000000E+00 0. -1.
          4    1    3    3  501    0  0.31172401878E+03  0.81631978540E+02  0.36960707152E+03  0.49035194618E+03  0.00000000000E+00 0. -1.
<mgrwt>
<rscale>  0 0.65088478E+03</rscale>
<asrwt>0</asrwt>
<pdfrwt beam="1">0</pdfrwt>
<pdfrwt beam="2">  1        2 0.38513808E+00 0.65088478E+03</pdfrwt>
<totfact> 0.45244148E+00</totfact>
</mgrwt>
</event>
<event>
 5    1  0.2368666E-004  0.6585814E+03  0.7818608E-02  0.9790809E-01
         13   -1    0    0    0    0  0.00000000000E+00  0.00000000000E+00  0.10000000000E+04  0.10000000000E+04  0.00000000000E+00 0. -1.
          2   -1    0    0  501    0 -0.00000000000E+00 -0.00000000000E+00 -0.10843237900E+03  0.10843237900E+03  0.00000000000E+00 0. -1.
    9000006    2    1    2  501    0  0.00000000000E+00  0.00000000000E+00  0.89156762100E+03  0.11084323790E+04  0.65858144219E+03 0.  0.
         13    1    3    3    0    0 -0.23380375423E+03 -0.10260715817E+03  0.79576308744E+03  0.83572203257E+03  0.00000000000E+00 0. -1.
          4    1    3    3  501    0  0.23380375423E+03  0.10260715817E+03  0.95804533564E+02  0.27271034643E+03  0.00000000000E+00 0. -1.
<mgrwt>
<rscale>  0 0.65858144E+03</rscale>
<asrwt>0</asrwt>
<pdfrwt beam="1">0</pdfrwt>
<pdfrwt beam="2">  1        2 0.39430039E+00 0.65858144E+03</pdfrwt>
<totfact> 0.41804988E+00</totfact>
</mgrwt>
</event>
<event>
 5    1  0.2368666E-004  0.6482084E+03  0.7818608E-02  0.9810147E-01
         13   -1    0    0    0    0  0.00000000000E+00  0.00000000000E+00  0.10000000000E+04  0.10000000000E+04  0.00000000000E+00 0. -1.
          2   -1    0    0  501    0 -0.00000000000E+00 -0.00000000000E+00 -0.10504353562E+03  0.10504353562E+03  0.00000000000E+00 0. -1.
    9000006    2    1    2  501    0  0.00000000000E+00  0.00000000000E+00  0.89495646438E+03  0.11050435356E+04  0.64820840977E+03 0.  0.
         13    1    3    3    0    0  0.19977790681E+03 -0.24820106083E+03  0.34621231650E+03  0.47050817925E+03  0.00000000000E+00 0. -1.
          4    1    3    3  501    0 -0.19977790681E+03  0.24820106083E+03  0.54874414788E+03  0.63453535637E+03  0.00000000000E+00 0. -1.
<mgrwt>
<rscale>  0 0.64820841E+03</rscale>
<asrwt>0</asrwt>
<pdfrwt beam="1">0</pdfrwt>
<pdfrwt beam="2">  1        2 0.38197730E+00 0.64820841E+03</pdfrwt>
<totfact> 0.46488733E+00</totfact>
</mgrwt>
</event>
<event>
 5    1  0.2368666E-004  0.6645488E+03  0.7818608E-02  0.9779856E-01
         13   -1    0    0    0    0  0.00000000000E+00  0.00000000000E+00  0.10000000000E+04  0.10000000000E+04  0.00000000000E+00 0. -1.
          2   -1    0    0  501    0 -0.00000000000E+00 -0.00000000000E+00 -0.11040627468E+03  0.11040627468E+03  0.00000000000E+00 0. -1.
    9000006    2    1    2  501    0  0.00000000000E+00  0.00000000000E+00  0.88959372532E+03  0.11104062747E+04  0.66454879334E+03 0.  0.
         13    1    3    3    0    0 -0.95455502868E+02  0.31804158994E+03  0.42474106741E+03  0.53913558619E+03  0.00000000000E+00 0. -1.
          4    1    3    3  501    0  0.95455502868E+02 -0.31804158994E+03  0.46485265791E+03  0.57127068849E+03  0.00000000000E+00 0. -1.
<mgrwt>
<rscale>  0 0.66454879E+03</rscale>
<asrwt>0</asrwt>
<pdfrwt beam="1">0</pdfrwt>
<pdfrwt beam="2">  1        2 0.40147821E+00 0.66454879E+03</pdfrwt>
<totfact> 0.39277599E+00</totfact>
</mgrwt>
</event>
<event>
 5    1  0.2368666E-004  0.6488379E+03  0.7818608E-02  0.9808962E-01
         13   -1    0    0    0    0  0.00000000000E+00  0.00000000000E+00  0.10000000000E+04  0.10000000000E+04  0.00000000000E+00 0. -1.
          2   -1    0    0  501    0 -0.00000000000E+00 -0.00000000000E+00 -0.10524766910E+03  0.10524766910E+03  0.00000000000E+00 0. -1.
    9000006    2    1    2  501    0  0.00000000000E+00  0.00000000000E+00  0.89475233090E+03  0.11052476691E+04  0.64883794309E+03 0.  0.
         13    1    3    3    0    0  0.13249957837E+03  0.12959328555E+03 -0.61868547691E+01  0.18544226892E+03  0.00000000000E+00 0. -1.
          4    1    3    3  501    0 -0.13249957837E+03 -0.12959328555E+03  0.90093918567E+03  0.91980540018E+03  0.00000000000E+00 0. -1.
<mgrwt>
<rscale>  0 0.64883794E+03</rscale>
<asrwt>0</asrwt>
<pdfrwt beam="1">0</pdfrwt>
<pdfrwt beam="2">  1        2 0.38271960E+00 0.64883794E+03</pdfrwt>
<totfact> 0.46193684E+00</totfact>
</mgrwt>
</event>
<event>
 5    1  0.2368666E-004  0.6390196E+03  0.7818608E-02  0.9827604E-01
         13   -1    0    0    0    0  0.00000000000E+00  0.00000000000E+00  0.10000000000E+04  0.10000000000E+04  0.00000000000E+00 0. -1.
          2   -1    0    0  501    0 -0.00000000000E+00 -0.00000000000E+00 -0.10208651314E+03  0.10208651314E+03  0.00000000000E+00 0. -1.
    9000006    2    1    2  501    0  0.00000000000E+00  0.00000000000E+00  0.89791348686E+03  0.11020865131E+04  0.63901960264E+03 0.  0.
         13    1    3    3    0    0 -0.13385237209E+03 -0.12925984790E+03  0.10052967105E+01  0.18607948950E+03  0.00000000000E+00 0. -1.
          4    1    3    3  501    0  0.13385237209E+03  0.12925984790E+03  0.89690819015E+03  0.91600702364E+03  0.00000000000E+00 0. -1.
<mgrwt>
<rscale>  0 0.63901960E+03</rscale>
<asrwt>0</asrwt>
<pdfrwt beam="1">0</pdfrwt>
<pdfrwt beam="2">  1        2 0.37122447E+00 0.63901960E+03</pdfrwt>
<totfact> 0.50959953E+00</totfact>
</mgrwt>
</event>
<event>
 5    1  0.2368666E-004  0.6737386E+03  0.7818608E-02  0.9763227E-01
         13   -1    0    0    0    0  0.00000000000E+00  0.00000000000E+00  0.10000000000E+04  0.10000000000E+04  0.00000000000E+00 0. -1.
          2   -1    0    0  501    0 -0.00000000000E+00 -0.00000000000E+00 -0.11348094182E+03  0.11348094182E+03  0.00000000000E+00 0. -1.
    9000006    2    1    2  501    0  0.00000000000E+00  0.00000000000E+00  0.88651905818E+03  0.11134809418E+04  0.67373864909E+03 0.  0.
         13    1    3    3    0    0  0.87006692460E+02 -0.39963694810E+02 -0.90520057392E+02  0.13176168725E+03  0.00000000000E+00 0. -1.
          4    1    3    3  501    0 -0.87006692460E+02  0.39963694810E+02  0.97703911557E+03  0.98171925457E+03  0.00000000000E+00 0. -1.
<mgrwt>
<rscale>  0 0.67373865E+03</rscale>
<asrwt>0</asrwt>
<pdfrwt beam="1">0</pdfrwt>
<pdfrwt beam="2">  1        2 0.41265884E+00 0.67373865E+03</pdfrwt>
<totfact> 0.35612841E+00</totfact>
</mgrwt>
</event>
<event>
 5    1  0.2368666E-004  0.6423152E+03  0.7818608E-02  0.9821307E-01
         13   -1    0    0    0    0  0.00000000000E+00  0.00000000000E+00  0.10000000000E+04  0.10000000000E+04  0.00000000000E+00 0. -1.
          2   -1    0    0  501    0 -0.00000000000E+00 -0.00000000000E+00 -0.10314219593E+03  0.10314219593E+03  0.00000000000E+00 0. -1.
    9000006    2    1    2  501    0  0.00000000000E+00  0.00000000000E+00  0.89685780407E+03  0.11031421959E+04  0.64231517475E+03 0.  0.
         13    1    3    3    0    0 -0.12685355871E+03  0.10280732111E+03  0.92339232444E+03  0.93771773763E+03  0.00000000000E+00 0. -1.
          4    1    3    3  501    0  0.12685355871E+03 -0.10280732111E+03 -0.26534520367E+02  0.16542445830E+03  0.00000000000E+00 0. -1.
<mgrwt>
<rscale>  0 0.64231517E+03</rscale>
<asrwt>0</asrwt>
<pdfrwt beam="1">0</pdfrwt>
<pdfrwt beam="2">  1        2 0.37506332E+00 0.64231517E+03</pdfrwt>
<totfact> 0.49320441E+00</totfact>
</mgrwt>
</event>
<event>
 5    1  0.2368666E-004  0.6535429E+03  0.7818608E-02  0.9800154E-01
         13   -1    0    0    0    0  0.00000000000E+00  0.00000000000E+00  0.10000000000E+04  0.10000000000E+04  0.00000000000E+00 0. -1.
          2   -1    0    0  501    0 -0.00000000000E+00 -0.00000000000E+00 -0.10677956653E+03  0.10677956653E+03  0.00000000000E+00 0. -1.
    9000006    2    1    2  501    0  0.00000000000E+00  0.00000000000E+00  0.89322043347E+03  0.11067795665E+04  0.65354285715E+03 0.  0.
         13    1    3    3    0    0  0.89915488284E+02 -0.13476587342E+03  0.92719920161E+03  0.94124651136E+03  0.00000000000E+00 0. -1.
          4    1    3    3  501    0 -0.89915488284E+02  0.13476587342E+03 -0.33978768144E+02  0.16553305518E+03  0.00000000000E+00 0. -1.
<mgrwt>
<rscale>  0 0.65354286E+03</rscale>
<asrwt>0</asrwt>
<pdfrwt beam="1">0</pdfrwt>
<pdfrwt beam="2">  1        2 0.38829015E+00 0.65354286E+03</pdfrwt>
<totfact> 0.44033154E+00</totfact>
</mgrwt>
</event>
<event>
 5    1  0.2368666E-004  0.6542087E+03  0.7818608E-02  0.9798914E-01
         13   -1    0    0    0    0  0.00000000000E+00  0.00000000000E+00  0.10000000000E+04  0.10000000000E+04  0.00000000000E+00 0. -1.
          2   -1    0    0  501    0 -0.00000000000E+00 -0.00000000000E+00 -0.10699724907E+03  0.10699724907E+03  0.00000000000E+00 0. -1.
    9000006    2    1    2  501    0  0.00000000000E+00  0.00000000000E+00  0.89300275093E+03  0.11069972491E+04  0.65420867947E+03 0.  0.
         13    1    3    3    0    0  0.17937155970E+03 -0.98458040727E+02  0.14666412752E+02  0.20514201392E+03  0.00000000000E+00 0. -1.
          2    1    3    3  501    0 -0.17937155970E+03  0.98458040727E+02  0.87833633818E+03  0.90185523515E+03  0.00000000000E+00 0. -1.
<mgrwt>
<rscale>  0 0.65420868E+03</rscale>
<asrwt>0</asrwt>
<pdfrwt beam="1">0</pdfrwt>
<pdfrwt beam="2">  1        2 0.38908173E+00 0.65420868E+03</pdfrwt>
<totfact> 0.43733686E+00</totfact>
</mgrwt>
</event>
<event>
 5    1  0.2368666E-004  0.6613512E+03  0.7818608E-02  0.9785710E-01
         13   -1    0    0    0    0  0.00000000000E+00  0.00000000000E+00  0.10000000000E+04  0.10000000000E+04  0.00000000000E+00 0. -1.
          2   -1    0    0  501    0 -0.00000000000E+00 -0.00000000000E+00 -0.10934634820E+03  0.10934634820E+03  0.00000000000E+00 0. -1.
    9000006    2    1    2  501    0  0.00000000000E+00  0.00000000000E+00  0.89065365180E+03  0.11093463482E+04  0.66135118719E+03 0.  0.
         13    1    3    3    0    0 -0.18156594202E+03 -0.19789927701E+03  0.76892052754E+03  0.81447473430E+03  0.00000000000E+00 0. -1.
          4    1    3    3  501    0  0.18156594202E+03  0.19789927701E+03  0.12173312426E+03  0.29487161390E+03  0.00000000000E+00 0. -1.
<mgrwt>
<rscale>  0 0.66135119E+03</rscale>
<asrwt>0</asrwt>
<pdfrwt beam="1">0</pdfrwt>
<pdfrwt beam="2">  1        2 0.39762392E+00 0.66135119E+03</pdfrwt>
<totfact> 0.40617106E+00</totfact>
</mgrwt>
</event>
<event>
 5    1  0.2368666E-004  0.6522895E+03  0.7818608E-02  0.9802493E-01
         13   -1    0    0    0    0  0.00000000000E+00  0.00000000000E+00  0.10000000000E+04  0.10000000000E+04  0.00000000000E+00 0. -1.
          2   -1    0    0  501    0 -0.00000000000E+00 -0.00000000000E+00 -0.10637038586E+03  0.10637038586E+03  0.00000000000E+00 0. -1.
    9000006    2    1    2  501    0  0.00000000000E+00  0.00000000000E+00  0.89362961414E+03  0.11063703859E+04  0.65228946291E+03 0.  0.
         13    1    3    3    0    0  0.16352622607E+03 -0.61926458911E+02  0.91377463596E+03  0.93035466261E+03  0.00000000000E+00 0. -1.
          4    1    3    3  501    0 -0.16352622607E+03  0.61926458911E+02 -0.20145021811E+02  0.17601572325E+03  0.00000000000E+00 0. -1.
<mgrwt>
<rscale>  0 0.65228946E+03</rscale>
<asrwt>0</asrwt>
<pdfrwt beam="1">0</pdfrwt>
<pdfrwt beam="2">  1        2 0.38680222E+00 0.65228946E+03</pdfrwt>
<totfact> 0.44601096E+00</totfact>
</mgrwt>
</event>
<event>
 5    1  0.2368666E-004  0.6740444E+03  0.7818608E-02  0.9762679E-01
         13   -1    0    0    0    0  0.00000000000E+00  0.00000000000E+00  0.10000000000E+04  0.10000000000E+04  0.00000000000E+00 0. -1.
          2   -1    0    0  501    0 -0.00000000000E+00 -0.00000000000E+00 -0.11358396991E+03  0.11358396991E+03  0.00000000000E+00 0. -1.
    9000006    2    1    2  501    0  0.00000000000E+00  0.00000000000E+00  0.88641603009E+03  0.11135839699E+04  0.67404441962E+03 0.  0.
         13    1    3    3    0    0  0.22856975638E+03  0.37754704983E+02  0.84759775460E+03  0.87868737608E+03  0.00000000000E+00 0. -1.
          4    1    3    3  501    0 -0.22856975638E+03 -0.37754704983E+02  0.38818275494E+02  0.23489659383E+03  0.00000000000E+00 0. -1.
<mgrwt>
<rscale>  0 0.67404442E+03</rscale>
<asrwt>0</asrwt>
<pdfrwt beam="1">0</pdfrwt>
<pdfrwt beam="2">  1        2 0.41303349E+00 0.67404442E+03</pdfrwt>
<totfact> 0.35495523E+00</totfact>
</mgrwt>
</event>
<event>
 5    1  0.2368666E-004  0.6814853E+03  0.7818608E-02  0.9749429E-01
         13   -1    0    0    0    0  0.00000000000E+00  0.00000000000E+00  0.10000000000E+04  0.10000000000E+04  0.00000000000E+00 0. -1.
          2   -1    0    0  501    0 -0.00000000000E+00 -0.00000000000E+00 -0.11610555753E+03  0.11610555753E+03  0.00000000000E+00 0. -1.
    9000006    2    1    2  501    0  0.00000000000E+00  0.00000000000E+00  0.88389444247E+03  0.11161055575E+04  0.68148531175E+03 0.  0.
         13    1    3    3    0    0  0.31832520572E+03 -0.99513777930E+02  0.32763678778E+03  0.46752517933E+03  0.00000000000E+00 0. -1.
          4    1    3    3  501    0 -0.31832520572E+03  0.99513777930E+02  0.55625765468E+03  0.64858037820E+03  0.00000000000E+00 0. -1.
<mgrwt>
<rscale>  0 0.68148531E+03</rscale>
<asrwt>0</asrwt>
<pdfrwt beam="1">0</pdfrwt>
<pdfrwt beam="2">  1        2 0.42220292E+00 0.68148531E+03</pdfrwt>
<totfact> 0.32729253E+00</totfact>
</mgrwt>
</event>
<event>
 5    1  0.2368666E-004  0.6392128E+03  0.7818608E-02  0.9827234E-01
         13   -1    0    0    0    0  0.00000000000E+00  0.00000000000E+00  0.10000000000E+04  0.10000000000E+04  0.00000000000E+00 0. -1.
          2   -1    0    0  501    0 -0.00000000000E+00 -0.00000000000E+00 -0.10214823700E+03  0.10214823700E+03  0.00000000000E+00 0. -1.
    9000006    2    1    2  501    0  0.00000000000E+00  0.00000000000E+00  0.89785176300E+03  0.11021482370E+04  0.63921275643E+03 0.  0.
         13    1    3    3    0    0 -0.11191077609E+03 -0.41674932513E+02  0.96008713073E+03  0.96748546263E+03  0.00000000000E+00 0. -1.
          2    1    3    3  501    0  0.11191077609E+03  0.41674932513E+02 -0.62235367722E+02  0.13466277437E+03  0.00000000000E+00 0. -1.
<mgrwt>
<rscale>  0 0.63921276E+03</rscale>
<asrwt>0</asrwt>
<pdfrwt beam="1">0</pdfrwt>
<pdfrwt beam="2">  1        2 0.37144892E+00 0.63921276E+03</pdfrwt>
<totfact> 0.50862738E+00</totfact>
</mgrwt>
</event>
<event>
 5    1  0.2368666E-004  0.6493374E+03  0.7818608E-02  0.9808023E-01
         13   -1    0    0    0    0  0.00000000000E+00  0.00000000000E+00  0.10000000000E+04  0.10000000000E+04  0.00000000000E+00 0. -1.
          2   -1    0    0  501    0 -0.00000000000E+00 -0.00000000000E+00 -0.10540976093E+03  0.10540976093E+03  0.00000000000E+00 0. -1.
    9000006    2    1    2  501    0  0.00000000000E+00  0.00000000000E+00  0.89459023907E+03  0.11054097609E+04  0.64933738822E+03 0.  0.
         13    1    3    3    0    0  0.45382126787E+02  0.17979324575E+03 -0.63929105013E+01  0.18554249635E+03  0.00000000000E+00 0. -1.
          2    1    3    3  501    0 -0.45382126787E+02 -0.17979324575E+03  0.90098314957E+03  0.91986726458E+03  0.00000000000E+00 0. -1.
<mgrwt>
<rscale>  0 0.64933739E+03</rscale>
<asrwt>0</asrwt>
<pdfrwt beam="1">0</pdfrwt>
<pdfrwt beam="2">  1        2 0.38330903E+00 0.64933739E+03</pdfrwt>
<totfact> 0.45960613E+00</totfact>
</mgrwt>
</event>
<event>
 5    1  0.2368666E-004  0.6517575E+03  0.7818608E-02  0.9803487E-01
         13   -1    0    0    0    0  0.00000000000E+00  0.00000000000E+00  0.10000000000E+04  0.10000000000E+04  0.00000000000E+00 0. -1.
          2   -1    0    0  501    0 -0.00000000000E+00 -0.00000000000E+00 -0.10619697215E+03  0.10619697215E+03  0.00000000000E+00 0. -1.
    9000006    2    1    2  501    0  0.00000000000E+00  0.00000000000E+00  0.89380302785E+03  0.11061969722E+04  0.65175753820E+03 0.  0.
         13    1    3    3    0    0 -0.21738552099E+03 -0.14918480823E+03  0.77197916652E+03  0.81576001697E+03  0.00000000000E+00 0. -1.
          2    1    3    3  501    0  0.21738552099E+03  0.14918480823E+03  0.12182386132E+03  0.29043695518E+03  0.00000000000E+00 0. -1.
<mgrwt>
<rscale>  0 0.65175754E+03</rscale>
<asrwt>0</asrwt>
<pdfrwt beam="1">0</pdfrwt>
<pdfrwt beam="2">  1        2 0.38617162E+00 0.65175754E+03</pdfrwt>
<totfact> 0.44843789E+00</totfact>
</mgrwt>
</event>
<event>
 5    1  0.2368666E-004  0.6278942E+03  0.7818608E-02  0.9849167E-01
         13   -1    0    0    0    0  0.00000000000E+00  0.00000000000E+00  0.10000000000E+04  0.10000000000E+04  0.00000000000E+00 0. -1.
          2   -1    0    0  501    0 -0.00000000000E+00 -0.00000000000E+00 -0.98562765937E+02  0.98562765937E+02  0.00000000000E+00 0. -1.
    9000006    2    1    2  501    0  0.00000000000E+00  0.00000000000E+00  0.90143723406E+03  0.10985627659E+04  0.62789415012E+03 0.  0.
         13    1    3    3    0    0 -0.62748366044E+02 -0.30594041781E+03  0.39468038259E+03  0.50329862020E+03  0.00000000000E+00 0. -1.
          4    1    3    3  501    0  0.62748366044E+02  0.30594041781E+03  0.50675685147E+03  0.59526414574E+03  0.00000000000E+00 0. -1.
<mgrwt>
<rscale>  0 0.62789415E+03</rscale>
<asrwt>0</asrwt>
<pdfrwt beam="1">0</pdfrwt>
<pdfrwt beam="2">  1        2 0.35841081E+00 0.62789415E+03</pdfrwt>
<totfact> 0.56801468E+00</totfact>
</mgrwt>
</event>
<event>
 5    1  0.2368666E-004  0.6480692E+03  0.7818608E-02  0.9810409E-01
         13   -1    0    0    0    0  0.00000000000E+00  0.00000000000E+00  0.10000000000E+04  0.10000000000E+04  0.00000000000E+00 0. -1.
          2   -1    0    0  501    0 -0.00000000000E+00 -0.00000000000E+00 -0.10499840795E+03  0.10499840795E+03  0.00000000000E+00 0. -1.
    9000006    2    1    2  501    0  0.00000000000E+00  0.00000000000E+00  0.89500159205E+03  0.11049984080E+04  0.64806915665E+03 0.  0.
         13    1    3    3    0    0  0.28267748194E+03  0.15778389190E+03  0.47137730989E+03  0.57183816208E+03  0.00000000000E+00 0. -1.
          2    1    3    3  501    0 -0.28267748194E+03 -0.15778389190E+03  0.42362428216E+03  0.53316024587E+03  0.00000000000E+00 0. -1.
<mgrwt>
<rscale>  0 0.64806916E+03</rscale>
<asrwt>0</asrwt>
<pdfrwt beam="1">0</pdfrwt>
<pdfrwt beam="2">  1        2 0.38181320E+00 0.64806916E+03</pdfrwt>
<totfact> 0.46554190E+00</totfact>
</mgrwt>
</event>
<event>
 5    1  0.2368666E-004  0.6591440E+03  0.7818608E-02  0.9789771E-01
         13   -1    0    0    0    0  0.00000000000E+00  0.00000000000E+00  0.10000000000E+04  0.10000000000E+04  0.00000000000E+00 0. -1.
          2   -1    0    0  501    0 -0.00000000000E+00 -0.00000000000E+00 -0.10861770201E+03  0.10861770201E+03  0.00000000000E+00 0. -1.
    9000006    2    1    2  501    0  0.00000000000E+00  0.00000000000E+00  0.89138229799E+03  0.11086177020E+04  0.65914399644E+03 0.  0.
         13    1    3    3    0    0  0.95511268735E+02 -0.26566041117E+03  0.73171318405E+03  0.78428441284E+03  0.00000000000E+00 0. -1.
          4    1    3    3  501    0 -0.95511268735E+02  0.26566041117E+03  0.15966911394E+03  0.32433328917E+03  0.00000000000E+00 0. -1.
<mgrwt>
<rscale>  0 0.65914400E+03</rscale>
<asrwt>0</asrwt>
<pdfrwt beam="1">0</pdfrwt>
<pdfrwt beam="2">  1        2 0.39497429E+00 0.65914400E+03</pdfrwt>
<totfact> 0.41561626E+00</totfact>
</mgrwt>
</event>
<event>
 5    1  0.2368666E-004  0.6472946E+03  0.7818608E-02  0.9811869E-01
         13   -1    0    0    0    0  0.00000000000E+00  0.00000000000E+00  0.10000000000E+04  0.10000000000E+04  0.00000000000E+00 0. -1.
          2   -1    0    0  501    0 -0.00000000000E+00 -0.00000000000E+00 -0.10474757307E+03  0.10474757307E+03  0.00000000000E+00 0. -1.
    9000006    2    1    2  501    0  0.00000000000E+00  0.00000000000E+00  0.89525242693E+03  0.11047475731E+04  0.64729459467E+03 0.  0.
         13    1    3    3    0    0 -0.11021578731E+03 -0.14553258648E+03 -0.84862821986E+01  0.18275467295E+03  0.00000000000E+00 0. -1.
          4    1    3    3  501    0  0.11021578731E+03  0.14553258648E+03  0.90373870913E+03  0.92199290012E+03  0.00000000000E+00 0. -1.
<mgrwt>
<rscale>  0 0.64729459E+03</rscale>
<asrwt>0</asrwt>
<pdfrwt beam="1">0</pdfrwt>
<pdfrwt beam="2">  1        2 0.38090107E+00 0.64729459E+03</pdfrwt>
<totfact> 0.46919552E+00</totfact>
</mgrwt>
</event>
<event>
 5    1  0.2368666E-004  0.6593466E+03  0.7818608E-02  0.9789397E-01
         13   -1    0    0    0    0  0.00000000000E+00  0.00000000000E+00  0.10000000000E+04  0.10000000000E+04  0.00000000000E+00 0. -1.
          2   -1    0    0  501    0 -0.00000000000E+00 -0.00000000000E+00 -0.10868449519E+03  0.10868449519E+03  0.00000000000E+00 0. -1.
    9000006    2    1    2  501    0  0.00000000000E+00  0.00000000000E+00  0.89131550481E+03  0.11086844952E+04  0.65934663171E+03 0.  0.
         13    1    3    3    0    0  0.27536665215E+03 -0.13166018630E+02  0.74965115725E+03  0.79873462096E+03  0.00000000000E+00 0. -1.
          2    1    3    3  501    0 -0.27536665215E+03  0.13166018630E+02  0.14166434756E+03  0.30994987423E+03  0.00000000000E+00 0. -1.
<mgrwt>
<rscale>  0 0.65934663E+03</rscale>
<asrwt>0</asrwt>
<pdfrwt beam="1">0</pdfrwt>
<pdfrwt beam="2">  1        2 0.39521718E+00 0.65934663E+03</pdfrwt>
<totfact> 0.41474228E+00</totfact>
</mgrwt>
</event>
<event>
 5    1  0.2368666E-004  0.6458567E+03  0.7818608E-02  0.9814585E-01
         13   -1    0    0    0    0  0.00000000000E+00  0.00000000000E+00  0.10000000000E+04  0.10000000000E+04  0.00000000000E+00 0. -1.
          2   -1    0    0  501    0 -0.00000000000E+00 -0.00000000000E+00 -0.10428270825E+03  0.10428270825E+03  0.00000000000E+00 0. -1.
    9000006    2    1    2  501    0  0.00000000000E+00  0.00000000000E+00  0.89571729175E+03  0.11042827082E+04  0.64585666597E+03 0.  0.
         13    1    3    3    0    0 -0.29060385032E+03 -0.12710009049E+03  0.55154722951E+03  0.63624631803E+03  0.00000000000E+00 0. -1.
          4    1    3    3  501    0  0.29060385032E+03  0.12710009049E+03  0.34417006225E+03  0.46803639022E+03  0.00000000000E+00 0. -1.
<mgrwt>
<rscale>  0 0.64585667E+03</rscale>
<asrwt>0</asrwt>
<pdfrwt beam="1">0</pdfrwt>
<pdfrwt beam="2">  1        2 0.37921065E+00 0.64585667E+03</pdfrwt>
<totfact> 0.47603570E+00</totfact>
</mgrwt>
</event>
<event>
 5    1  0.2368666E-004  0.6221389E+03  0.7818608E-02  0.9860510E-01
         13   -1    0    0    0    0  0.00000000000E+00  0.00000000000E+00  0.10000000000E+04  0.10000000000E+04  0.00000000000E+00 0. -1.
          2   -1    0    0  501    0 -0.00000000000E+00 -0.00000000000E+00 -0.96764191637E+02  0.96764191637E+02  0.00000000000E+00 0. -1.
    9000006    2    1    2  501    0  0.00000000000E+00  0.00000000000E+00  0.90323580836E+03  0.10967641916E+04  0.62213886436E+03 0.  0.
         13    1    3    3    0    0 -0.17058006437E+03  0.98461627884E+02  0.87607602965E+03  0.89794290479E+03  0.00000000000E+00 0. -1.
          4    1    3    3  501    0  0.17058006437E+03 -0.98461627884E+02  0.27159778710E+02  0.19882128685E+03  0.00000000000E+00 0. -1.
<mgrwt>
<rscale>  0 0.62213886E+03</rscale>
<asrwt>0</asrwt>
<pdfrwt beam="1">0</pdfrwt>
<pdfrwt beam="2">  1        2 0.35187053E+00 0.62213886E+03</pdfrwt>
<totfact> 0.60016053E+00</totfact>
</mgrwt>
</event>
<event>
 5    1  0.2368666E-004  0.6484828E+03  0.7818608E-02  0.9809630E-01
         13   -1    0    0    0    0  0.00000000000E+00  0.00000000000E+00  0.10000000000E+04  0.10000000000E+04  0.00000000000E+00 0. -1.
          2   -1    0    0  501    0 -0.00000000000E+00 -0.00000000000E+00 -0.10513248337E+03  0.10513248337E+03  0.00000000000E+00 0. -1.
    9000006    2    1    2  501    0  0.00000000000E+00  0.00000000000E+00  0.89486751663E+03  0.11051324834E+04  0.64848279350E+03 0.  0.
         13    1    3    3    0    0  0.10199666461E+03 -0.11712349248E+03  0.93248604608E+03  0.94533140127E+03  0.00000000000E+00 0. -1.
          2    1    3    3  501    0 -0.10199666461E+03  0.11712349248E+03 -0.37618529450E+02  0.15980108210E+03  0.00000000000E+00 0. -1.
<mgrwt>
<rscale>  0 0.64848279E+03</rscale>
<asrwt>0</asrwt>
<pdfrwt beam="1">0</pdfrwt>
<pdfrwt beam="2">  1        2 0.38230075E+00 0.64848279E+03</pdfrwt>
<totfact> 0.46359961E+00</totfact>
</mgrwt>
</event>
<event>
 5    1  0.2368666E-004  0.6613457E+03  0.7818608E-02  0.9785720E-01
         13   -1    0    0    0    0  0.00000000000E+00  0.00000000000E+00  0.10000000000E+04  0.10000000000E+04  0.00000000000E+00 0. -1.
          2   -1    0    0  501    0 -0.00000000000E+00 -0.00000000000E+00 -0.10934453714E+03  0.10934453714E+03  0.00000000000E+00 0. -1.
    9000006    2    1    2  501    0  0.00000000000E+00  0.00000000000E+00  0.89065546286E+03  0.11093445371E+04  0.66134571032E+03 0.  0.
         13    1    3    3    0    0 -0.28288807964E+03 -0.19099056404E+02  0.15990212990E+03  0.32551364135E+03  0.00000000000E+00 0. -1.
          4    1    3    3  501    0  0.28288807964E+03  0.19099056404E+02  0.73075333296E+03  0.78383089579E+03  0.00000000000E+00 0. -1.
<mgrwt>
<rscale>  0 0.66134571E+03</rscale>
<asrwt>0</asrwt>
<pdfrwt beam="1">0</pdfrwt>
<pdfrwt beam="2">  1        2 0.39761734E+00 0.66134571E+03</pdfrwt>
<totfact> 0.40619430E+00</totfact>
</mgrwt>
</event>
<event>
 5    1  0.2368666E-004  0.6656105E+03  0.7818608E-02  0.9777920E-01
         13   -1    0    0    0    0  0.00000000000E+00  0.00000000000E+00  0.10000000000E+04  0.10000000000E+04  0.00000000000E+00 0. -1.
          2   -1    0    0  501    0 -0.00000000000E+00 -0.00000000000E+00 -0.11075933021E+03  0.11075933021E+03  0.00000000000E+00 0. -1.
    9000006    2    1    2  501    0  0.00000000000E+00  0.00000000000E+00  0.88924066979E+03  0.11107593302E+04  0.66561048732E+03 0.  0.
         13    1    3    3    0    0 -0.12250981835E+03  0.20799200449E+03  0.82695009394E+03  0.86146142536E+03  0.00000000000E+00 0. -1.
          2    1    3    3  501    0  0.12250981835E+03 -0.20799200449E+03  0.62290575854E+02  0.24929790485E+03  0.00000000000E+00 0. -1.
<mgrwt>
<rscale>  0 0.66561049E+03</rscale>
<asrwt>0</asrwt>
<pdfrwt beam="1">0</pdfrwt>
<pdfrwt beam="2">  1        2 0.40276205E+00 0.66561049E+03</pdfrwt>
<totfact> 0.38840302E+00</totfact>
</mgrwt>
</event>
<event>
 5    1  0.2368666E-004  0.6500249E+03  0.7818608E-02  0.9806732E-01
         13   -1    0    0    0    0  0.00000000000E+00  0.00000000000E+00  0.10000000000E+04  0.10000000000E+04  0.00000000000E+00 0. -1.
          2   -1    0    0  501    0 -0.00000000000E+00 -0.00000000000E+00 -0.10563310110E+03  0.10563310110E+03  0.00000000000E+00 0. -1.
    9000006    2    1    2  501    0  0.00000000000E+00  0.00000000000E+00  0.89436689890E+03  0.11056331011E+04  0.65002492598E+03 0.  0.
         13    1    3    3    0    0 -0.17653365505E+03 -0.26312545495E+03  0.57023764235E+03  0.65235734468E+03  0.00000000000E+00 0. -1.
          2    1    3    3  501    0  0.17653365505E+03  0.26312545495E+03  0.32412925655E+03  0.45327575642E+03  0.00000000000E+00 0. -1.
<mgrwt>
<rscale>  0 0.65002493E+03</rscale>
<asrwt>0</asrwt>
<pdfrwt beam="1">0</pdfrwt>
<pdfrwt beam="2">  1        2 0.38412118E+00 0.65002493E+03</pdfrwt>
<totfact> 0.45641223E+00</totfact>
</mgrwt>
</event>
<event>
 5    1  0.2368666E-004  0.6438018E+03  0.7818608E-02  0.9818480E-01
         13   -1    0    0    0    0  0.00000000000E+00  0.00000000000E+00  0.10000000000E+04  0.10000000000E+04  0.00000000000E+00 0. -1.
          2   -1    0    0  501    0 -0.00000000000E+00 -0.00000000000E+00 -0.10362019296E+03  0.10362019296E+03  0.00000000000E+00 0. -1.
    9000006    2    1    2  501    0  0.00000000000E+00  0.00000000000E+00  0.89637980704E+03  0.11036201930E+04  0.64380181098E+03 0.  0.
         13    1    3    3    0    0 -0.16647683492E+03  0.31522603118E+02 -0.20993982156E+02  0.17073066028E+03  0.00000000000E+00 0. -1.
          2    1    3    3  501    0  0.16647683492E+03 -0.31522603118E+02  0.91737378920E+03  0.93288953268E+03  0.00000000000E+00 0. -1.
<mgrwt>
<rscale>  0 0.64380181E+03</rscale>
<asrwt>0</asrwt>
<pdfrwt beam="1">0</pdfrwt>
<pdfrwt beam="2">  1        2 0.37680150E+00 0.64380181E+03</pdfrwt>
<totfact> 0.48594119E+00</totfact>
</mgrwt>
</event>
<event>
 5    1  0.2368666E-004  0.6472643E+03  0.7818608E-02  0.9811926E-01
         13   -1    0    0    0    0  0.00000000000E+00  0.00000000000E+00  0.10000000000E+04  0.10000000000E+04  0.00000000000E+00 0. -1.
          2   -1    0    0  501    0 -0.00000000000E+00 -0.00000000000E+00 -0.10473775404E+03  0.10473775404E+03  0.00000000000E+00 0. -1.
    9000006    2    1    2  501    0  0.00000000000E+00  0.00000000000E+00  0.89526224596E+03  0.11047377540E+04  0.64726425528E+03 0.  0.
         13    1    3    3    0    0 -0.17080475285E+03  0.25016151023E+03  0.64210453662E+03  0.70996709835E+03  0.00000000000E+00 0. -1.
          2    1    3    3  501    0  0.17080475285E+03 -0.25016151023E+03  0.25315770934E+03  0.39477065569E+03  0.00000000000E+00 0. -1.
<mgrwt>
<rscale>  0 0.64726426E+03</rscale>
<asrwt>0</asrwt>
<pdfrwt beam="1">0</pdfrwt>
<pdfrwt beam="2">  1        2 0.38086536E+00 0.64726426E+03</pdfrwt>
<totfact> 0.46933907E+00</totfact>
</mgrwt>
</event>
<event>
 5    1  0.2368666E-004  0.6528220E+03  0.7818608E-02  0.9801498E-01
         13   -1    0    0    0    0  0.00000000000E+00  0.00000000000E+00  0.10000000000E+04  0.10000000000E+04  0.00000000000E+00 0. -1.
          2   -1    0    0  501    0 -0.00000000000E+00 -0.00000000000E+00 -0.10654415067E+03  0.10654415067E+03  0.00000000000E+00 0. -1.
    9000006    2    1    2  501    0  0.00000000000E+00  0.00000000000E+00  0.89345584933E+03  0.11065441507E+04  0.65282202987E+03 0.  0.
         13    1    3    3    0    0 -0.68790811399E+02  0.31376107960E+03  0.54506751886E+03  0.63267431663E+03  0.00000000000E+00 0. -1.
          2    1    3    3  501    0  0.68790811399E+02 -0.31376107960E+03  0.34838833047E+03  0.47386983404E+03  0.00000000000E+00 0. -1.
<mgrwt>
<rscale>  0 0.65282203E+03</rscale>
<asrwt>0</asrwt>
<pdfrwt beam="1">0</pdfrwt>
<pdfrwt beam="2">  1        2 0.38743409E+00 0.65282203E+03</pdfrwt>
<totfact> 0.44359106E+00</totfact>
</mgrwt>
</event>
<event>
 5    1  0.2368666E-004  0.6894860E+03  0.7818608E-02  0.9735383E-01
         13   -1    0    0    0    0  0.00000000000E+00  0.00000000000E+00  0.10000000000E+04  0.10000000000E+04  0.00000000000E+00 0. -1.
          2   -1    0    0  501    0 -0.00000000000E+00 -0.00000000000E+00 -0.11884774862E+03  0.11884774862E+03  0.00000000000E+00 0. -1.
    9000006    2    1    2  501    0  0.00000000000E+00  0.00000000000E+00  0.88115225138E+03  0.11188477486E+04  0.68948603648E+03 0.  0.
         13    1    3    3    0    0  0.11598930582E+03  0.30219198634E+03  0.63308816056E+03  0.71103736521E+03  0.00000000000E+00 0. -1.
          4    1    3    3  501    0 -0.11598930582E+03 -0.30219198634E+03  0.24806409081E+03  0.40781038342E+03  0.00000000000E+00 0. -1.
<mgrwt>
<rscale>  0 0.68948604E+03</rscale>
<asrwt>0</asrwt>
<pdfrwt beam="1">0</pdfrwt>
<pdfrwt beam="2">  1        2 0.43217454E+00 0.68948604E+03</pdfrwt>
<totfact> 0.29939356E+00</totfact>
</mgrwt>
</event>
<event>
 5    1  0.2368666E-004  0.6474475E+03  0.7818608E-02  0.9811581E-01
         13   -1    0    0    0    0  0.00000000000E+00  0.00000000000E+00  0.10000000000E+04  0.10000000000E+04  0.00000000000E+00 0. -1.
          2   -1    0    0  501    0 -0.00000000000E+00 -0.00000000000E+00 -0.10479705653E+03  0.10479705653E+03  0.00000000000E+00 0. -1.
    9000006    2    1    2  501    0  0.00000000000E+00  0.00000000000E+00  0.89520294347E+03  0.11047970565E+04  0.64744746978E+03 0.  0.
         13    1    3    3    0    0  0.20440894523E+03 -0.11727296345E+03  0.68871228708E+02  0.24551824982E+03  0.00000000000E+00 0. -1.
          4    1    3    3  501    0 -0.20440894523E+03  0.11727296345E+03  0.82633171476E+03  0.85927880671E+03  0.00000000000E+00 0. -1.
<mgrwt>
<rscale>  0 0.64744747E+03</rscale>
<asrwt>0</asrwt>
<pdfrwt beam="1">0</pdfrwt>
<pdfrwt beam="2">  1        2 0.38108101E+00 0.64744747E+03</pdfrwt>
<totfact> 0.46847270E+00</totfact>
</mgrwt>
</event>
<event>
 5    1  0.2368666E-004  0.6444426E+03  0.7818608E-02  0.9817264E-01
         13   -1    0    0    0    0  0.00000000000E+00  0.00000000000E+00  0.10000000000E+04  0.10000000000E+04  0.00000000000E+00 0. -1.
          2   -1    0    0  501    0 -0.00000000000E+00 -0.00000000000E+00 -0.10382655568E+03  0.10382655568E+03  0.00000000000E+00 0. -1.
    9000006    2    1    2  501    0  0.00000000000E+00  0.00000000000E+00  0.89617344432E+03  0.11038265557E+04  0.64444256743E+03 0.  0.
         13    1    3    3    0    0 -0.26823041563E+03  0.12307515444E+03  0.66964303951E+03  0.73179016792E+03  0.00000000000E+00 0. -1.
          4    1    3    3  501    0  0.26823041563E+03 -0.12307515444E+03  0.22653040482E+03  0.37203638776E+03  0.00000000000E+00 0. -1.
<mgrwt>
<rscale>  0 0.64444257E+03</rscale>
<asrwt>0</asrwt>
<pdfrwt beam="1">0</pdfrwt>
<pdfrwt beam="2">  1        2 0.37755191E+00 0.64444257E+03</pdfrwt>
<totfact> 0.48283583E+00</totfact>
</mgrwt>
</event>
<event>
 5    1  0.2368666E-004  0.6512732E+03  0.7818608E-02  0.9804393E-01
         13   -1    0    0    0    0  0.00000000000E+00  0.00000000000E+00  0.10000000000E+04  0.10000000000E+04  0.00000000000E+00 0. -1.
          2   -1    0    0  501    0 -0.00000000000E+00 -0.00000000000E+00 -0.10603919743E+03  0.10603919743E+03  0.00000000000E+00 0. -1.
    9000006    2    1    2  501    0  0.00000000000E+00  0.00000000000E+00  0.89396080257E+03  0.11060391974E+04  0.65127320666E+03 0.  0.
         13    1    3    3    0    0 -0.15468991032E+03  0.45626992256E+02  0.92740959722E+03  0.94132850366E+03  0.00000000000E+00 0. -1.
          4    1    3    3  501    0  0.15468991032E+03 -0.45626992256E+02 -0.33448794652E+02  0.16471069377E+03  0.00000000000E+00 0. -1.
<mgrwt>
<rscale>  0 0.65127321E+03</rscale>
<asrwt>0</asrwt>
<pdfrwt beam="1">0</pdfrwt>
<pdfrwt beam="2">  1        2 0.38559789E+00 0.65127321E+03</pdfrwt>
<totfact> 0.45065633E+00</totfact>
</mgrwt>
</event>
<event>
 5    1  0.2368666E-004  0.6502717E+03  0.7818608E-02  0.9806269E-01
         13   -1    0    0    0    0  0.00000000000E+00  0.00000000000E+00  0.10000000000E+04  0.10000000000E+04  0.00000000000E+00 0. -1.
          2   -1    0    0  501    0 -0.00000000000E+00 -0.00000000000E+00 -0.10571333585E+03  0.10571333585E+03  0.00000000000E+00 0. -1.
    9000006    2    1    2  501    0  0.00000000000E+00  0.00000000000E+00  0.89428666415E+03  0.11057133358E+04  0.65027174581E+03 0.  0.
         13    1    3    3    0    0  0.74856173093E+02  0.84908957942E+02 -0.71127009992E+02  0.13368630947E+03  0.00000000000E+00 0. -1.
          4    1    3    3  501    0 -0.74856173093E+02 -0.84908957942E+02  0.96541367414E+03  0.97202702638E+03  0.00000000000E+00 0. -1.
<mgrwt>
<rscale>  0 0.65027175E+03</rscale>
<asrwt>0</asrwt>
<pdfrwt beam="1">0</pdfrwt>
<pdfrwt beam="2">  1        2 0.38441294E+00 0.65027175E+03</pdfrwt>
<totfact> 0.45526974E+00</totfact>
</mgrwt>
</event>
<event>
 5    1  0.2368666E-004  0.6387798E+03  0.7818608E-02  0.9828064E-01
         13   -1    0    0    0    0  0.00000000000E+00  0.00000000000E+00  0.10000000000E+04  0.10000000000E+04  0.00000000000E+00 0. -1.
          2   -1    0    0  501    0 -0.00000000000E+00 -0.00000000000E+00 -0.10200991015E+03  0.10200991015E+03  0.00000000000E+00 0. -1.
    9000006    2    1    2  501    0  0.00000000000E+00  0.00000000000E+00  0.89799008985E+03  0.11020099102E+04  0.63877980604E+03 0.  0.
         13    1    3    3    0    0 -0.71758505320E+02  0.83489318164E+02  0.96623301731E+03  0.97248444361E+03  0.00000000000E+00 0. -1.
          2    1    3    3  501    0  0.71758505320E+02 -0.83489318164E+02 -0.68242927461E+02  0.12952546654E+03  0.00000000000E+00 0. -1.
<mgrwt>
<rscale>  0 0.63877981E+03</rscale>
<asrwt>0</asrwt>
<pdfrwt beam="1">0</pdfrwt>
<pdfrwt beam="2">  1        2 0.37094591E+00 0.63877981E+03</pdfrwt>
<totfact> 0.51080839E+00</totfact>
</mgrwt>
</event>
<event>
 5    1  0.2368666E-004  0.6523832E+03  0.7818608E-02  0.9802318E-01
         13   -1    0    0    0    0  0.00000000000E+00  0.00000000000E+00  0.10000000000E+04  0.10000000000E+04  0.00000000000E+00 0. -1.
          4   -1    0    0  501    0 -0.00000000000E+00 -0.00000000000E+00 -0.10640096399E+03  0.10640096399E+03  0.00000000000E+00 0. -1.
    9000006    2    1    2  501    0  0.00000000000E+00  0.00000000000E+00  0.89359903601E+03  0.11064009640E+04  0.65238321252E+03 0.  0.
         13    1    3    3    0    0  0.10809031303E+03 -0.15272250964E+03 -0.63467900405E+01  0.18721101054E+03  0.00000000000E+00 0. -1.
          2    1    3    3  501    0 -0.10809031303E+03  0.15272250964E+03  0.89994582605E+03  0.91918995346E+03  0.00000000000E+00 0. -1.
<mgrwt>
<rscale>  0 0.65238321E+03</rscale>
<asrwt>0</asrwt>
<pdfrwt beam="1">0</pdfrwt>
<pdfrwt beam="2">  1        4 0.38691341E+00 0.65238321E+03</pdfrwt>
<totfact> 0.39399937E-02</totfact>
</mgrwt>
</event>
<event>
 5    1  0.2368666E-004  0.6487595E+03  0.7818608E-02  0.9809110E-01
         13   -1    0    0    0    0  0.00000000000E+00  0.00000000000E+00  0.10000000000E+04  0.10000000000E+04  0.00000000000E+00 0. -1.
          2   -1    0    0  501    0 -0.00000000000E+00 -0.00000000000E+00 -0.10522220878E+03  0.10522220878E+03  0.00000000000E+00 0. -1.
    9000006    2    1    2  501    0  0.00000000000E+00  0.00000000000E+00  0.89477779122E+03  0.11052222088E+04  0.64875945861E+03 0.  0.
         13    1    3    3    0    0 -0.58376368443E+02  0.91002513579E+02  0.96840148649E+03  0.97441813248E+03  0.00000000000E+00 0. -1.
          2    1    3    3  501    0  0.58376368443E+02 -0.91002513579E+02 -0.73623695277E+02  0.13080407630E+03  0.00000000000E+00 0. -1.
<mgrwt>
<rscale>  0 0.64875946E+03</rscale>
<asrwt>0</asrwt>
<pdfrwt beam="1">0</pdfrwt>
<pdfrwt beam="2">  1        2 0.38262702E+00 0.64875946E+03</pdfrwt>
<totfact> 0.46230391E+00</totfact>
</mgrwt>
</event>
<event>
 5    1  0.2368666E-004  0.6415054E+03  0.7818608E-02  0.9822850E-01
         13   -1    0    0    0    0  0.00000000000E+00  0.00000000000E+00  0.10000000000E+04  0.10000000000E+04  0.00000000000E+00 0. -1.
          2   -1    0    0  501    0 -0.00000000000E+00 -0.00000000000E+00 -0.10288230903E+03  0.10288230903E+03  0.00000000000E+00 0. -1.
    9000006    2    1    2  501    0  0.00000000000E+00  0.00000000000E+00  0.89711769097E+03  0.11028823090E+04  0.64150544511E+03 0.  0.
         13    1    3    3    0    0 -0.86202826717E+02 -0.22370775888E+03  0.82217024903E+02  0.25344768277E+03  0.00000000000E+00 0. -1.
          2    1    3    3  501    0  0.86202826717E+02  0.22370775888E+03  0.81490066607E+03  0.84943462626E+03  0.00000000000E+00 0. -1.
<mgrwt>
<rscale>  0 0.64150545E+03</rscale>
<asrwt>0</asrwt>
<pdfrwt beam="1">0</pdfrwt>
<pdfrwt beam="2">  1        2 0.37411828E+00 0.64150545E+03</pdfrwt>
<totfact> 0.49719516E+00</totfact>
</mgrwt>
</event>
<event>
 5    1  0.2368666E-004  0.6345544E+03  0.7818608E-02  0.9836201E-01
         13   -1    0    0    0    0  0.00000000000E+00  0.00000000000E+00  0.10000000000E+04  0.10000000000E+04  0.00000000000E+00 0. -1.
          2   -1    0    0  501    0 -0.00000000000E+00 -0.00000000000E+00 -0.10066483008E+03  0.10066483008E+03  0.00000000000E+00 0. -1.
    9000006    2    1    2  501    0  0.00000000000E+00  0.00000000000E+00  0.89933516992E+03  0.11006648301E+04  0.63455442660E+03 0.  0.
         13    1    3    3    0    0  0.49729134130E+01  0.17623485775E+03 -0.78762576087E+01  0.17648084992E+03  0.00000000000E+00 0. -1.
          4    1    3    3  501    0 -0.49729134130E+01 -0.17623485775E+03  0.90721142753E+03  0.92418398016E+03  0.00000000000E+00 0. -1.
<mgrwt>
<rscale>  0 0.63455443E+03</rscale>
<asrwt>0</asrwt>
<pdfrwt beam="1">0</pdfrwt>
<pdfrwt beam="2">  1        2 0.36605470E+00 0.63455443E+03</pdfrwt>
<totfact> 0.53246800E+00</totfact>
</mgrwt>
</event>
<event>
 5    1  0.2368666E-004  0.6317326E+03  0.7818608E-02  0.9841673E-01
         13   -1    0    0    0    0  0.00000000000E+00  0.00000000000E+00  0.10000000000E+04  0.10000000000E+04  0.00000000000E+00 0. -1.
          2   -1    0    0  501    0 -0.00000000000E+00 -0.00000000000E+00 -0.99771534639E+02  0.99771534639E+02  0.00000000000E+00 0. -1.
    9000006    2    1    2  501    0  0.00000000000E+00  0.00000000000E+00  0.90022846536E+03  0.10997715346E+04  0.63173264800E+03 0.  0.
         13    1    3    3    0    0 -0.13556704748E+03  0.55855413509E+02 -0.36938436594E+02  0.15120416555E+03  0.00000000000E+00 0. -1.
          2    1    3    3  501    0  0.13556704748E+03 -0.55855413509E+02  0.93716690196E+03  0.94856736909E+03  0.00000000000E+00 0. -1.
<mgrwt>
<rscale>  0 0.63173265E+03</rscale>
<asrwt>0</asrwt>
<pdfrwt beam="1">0</pdfrwt>
<pdfrwt beam="2">  1        2 0.36280635E+00 0.63173265E+03</pdfrwt>
<totfact> 0.54731554E+00</totfact>
</mgrwt>
</event>
<event>
 5    1  0.2368666E-004  0.6487724E+03  0.7818608E-02  0.9809085E-01
         13   -1    0    0    0    0  0.00000000000E+00  0.00000000000E+00  0.10000000000E+04  0.10000000000E+04  0.00000000000E+00 0. -1.
          2   -1    0    0  501    0 -0.00000000000E+00 -0.00000000000E+00 -0.10522642194E+03  0.10522642194E+03  0.00000000000E+00 0. -1.
    9000006    2    1    2  501    0  0.00000000000E+00  0.00000000000E+00  0.89477357806E+03  0.11052264219E+04  0.64877244682E+03 0.  0.
         13    1    3    3    0    0  0.24586851374E+03  0.20923590451E+03  0.39363849385E+03  0.50909945357E+03  0.00000000000E+00 0. -1.
          4    1    3    3  501    0 -0.24586851374E+03 -0.20923590451E+03  0.50113508421E+03  0.59612696837E+03  0.00000000000E+00 0. -1.
<mgrwt>
<rscale>  0 0.64877245E+03</rscale>
<asrwt>0</asrwt>
<pdfrwt beam="1">0</pdfrwt>
<pdfrwt beam="2">  1        2 0.38264234E+00 0.64877245E+03</pdfrwt>
<totfact> 0.46224315E+00</totfact>
</mgrwt>
</event>
<event>
 5    1  0.2368666E-004  0.7419957E+03  0.7818608E-02  0.9647992E-01
         13   -1    0    0    0    0  0.00000000000E+00  0.00000000000E+00  0.10000000000E+04  0.10000000000E+04  0.00000000000E+00 0. -1.
          2   -1    0    0  501    0 -0.00000000000E+00 -0.00000000000E+00 -0.13763941660E+03  0.13763941660E+03  0.00000000000E+00 0. -1.
    9000006    2    1    2  501    0  0.00000000000E+00  0.00000000000E+00  0.86236058340E+03  0.11376394166E+04  0.74199573206E+03 0.  0.
         13    1    3    3    0    0 -0.41586181504E+02 -0.36863005820E+03  0.43835310244E+03  0.57425688739E+03  0.00000000000E+00 0. -1.
          2    1    3    3  501    0  0.41586181504E+02  0.36863005820E+03  0.42400748097E+03  0.56338252921E+03  0.00000000000E+00 0. -1.
<mgrwt>
<rscale>  0 0.74199573E+03</rscale>
<asrwt>0</asrwt>
<pdfrwt beam="1">0</pdfrwt>
<pdfrwt beam="2">  1        2 0.50050802E+00 0.74199573E+03</pdfrwt>
<totfact> 0.15801448E+00</totfact>
</mgrwt>
</event>
<event>
 5    1  0.2368666E-004  0.6635141E+03  0.7818608E-02  0.9781746E-01
         13   -1    0    0    0    0  0.00000000000E+00  0.00000000000E+00  0.10000000000E+04  0.10000000000E+04  0.00000000000E+00 0. -1.
          2   -1    0    0  501    0 -0.00000000000E+00 -0.00000000000E+00 -0.11006273131E+03  0.11006273131E+03  0.00000000000E+00 0. -1.
    9000006    2    1    2  501    0  0.00000000000E+00  0.00000000000E+00  0.88993726869E+03  0.11100627313E+04  0.66351407313E+03 0.  0.
         13    1    3    3    0    0 -0.12029501653E+03  0.11720634263E+03 -0.33682066775E+02  0.17129710848E+03  0.00000000000E+00 0. -1.
          4    1    3    3  501    0  0.12029501653E+03 -0.11720634263E+03  0.92361933547E+03  0.93876562283E+03  0.00000000000E+00 0. -1.
<mgrwt>
<rscale>  0 0.66351407E+03</rscale>
<asrwt>0</asrwt>
<pdfrwt beam="1">0</pdfrwt>
<pdfrwt beam="2">  1        2 0.40022896E+00 0.66351407E+03</pdfrwt>
<totfact> 0.39707349E+00</totfact>
</mgrwt>
</event>
<event>
 5    1  0.2368666E-004  0.6545048E+03  0.7818608E-02  0.9798363E-01
         13   -1    0    0    0    0  0.00000000000E+00  0.00000000000E+00  0.10000000000E+04  0.10000000000E+04  0.00000000000E+00 0. -1.
          2   -1    0    0  501    0 -0.00000000000E+00 -0.00000000000E+00 -0.10709414610E+03  0.10709414610E+03  0.00000000000E+00 0. -1.
    9000006    2    1    2  501    0  0.00000000000E+00  0.00000000000E+00  0.89290585390E+03  0.11070941461E+04  0.65450483909E+03 0.  0.
         13    1    3    3    0    0 -0.11446240734E+03  0.18481680373E+03  0.32691256628E+02  0.21983542002E+03  0.00000000000E+00 0. -1.
          4    1    3    3  501    0  0.11446240734E+03 -0.18481680373E+03  0.86021459727E+03  0.88725872608E+03  0.00000000000E+00 0. -1.
<mgrwt>
<rscale>  0 0.65450484E+03</rscale>
<asrwt>0</asrwt>
<pdfrwt beam="1">0</pdfrwt>
<pdfrwt beam="2">  1        2 0.38943408E+00 0.65450484E+03</pdfrwt>
<totfact> 0.43600976E+00</totfact>
</mgrwt>
</event>
<event>
 5    1  0.2368666E-004  0.6485815E+03  0.7818608E-02  0.9809445E-01
         13   -1    0    0    0    0  0.00000000000E+00  0.00000000000E+00  0.10000000000E+04  0.10000000000E+04  0.00000000000E+00 0. -1.
          2   -1    0    0  501    0 -0.00000000000E+00 -0.00000000000E+00 -0.10516449113E+03  0.10516449113E+03  0.00000000000E+00 0. -1.
    9000006    2    1    2  501    0  0.00000000000E+00  0.00000000000E+00  0.89483550887E+03  0.11051644911E+04  0.64858150183E+03 0.  0.
         13    1    3    3    0    0 -0.12791064706E+02  0.32403237586E+03  0.44405303236E+03  0.54985787936E+03  0.00000000000E+00 0. -1.
          2    1    3    3  501    0  0.12791064706E+02 -0.32403237586E+03  0.45078247651E+03  0.55530661177E+03  0.00000000000E+00 0. -1.
<mgrwt>
<rscale>  0 0.64858150E+03</rscale>
<asrwt>0</asrwt>
<pdfrwt beam="1">0</pdfrwt>
<pdfrwt beam="2">  1        2 0.38241714E+00 0.64858150E+03</pdfrwt>
<totfact> 0.46313701E+00</totfact>
</mgrwt>
</event>
<event>
 5    1  0.2368666E-004  0.6403249E+03  0.7818608E-02  0.9825105E-01
         13   -1    0    0    0    0  0.00000000000E+00  0.00000000000E+00  0.10000000000E+04  0.10000000000E+04  0.00000000000E+00 0. -1.
          2   -1    0    0  501    0 -0.00000000000E+00 -0.00000000000E+00 -0.10250399436E+03  0.10250399436E+03  0.00000000000E+00 0. -1.
    9000006    2    1    2  501    0  0.00000000000E+00  0.00000000000E+00  0.89749600564E+03  0.11025039944E+04  0.64032489989E+03 0.  0.
         13    1    3    3    0    0 -0.11580368023E+00 -0.22886954574E+03  0.83422375266E+03  0.86504945054E+03  0.00000000000E+00 0. -1.
          2    1    3    3  501    0  0.11580368023E+00  0.22886954574E+03  0.63272252983E+02  0.23745454381E+03  0.00000000000E+00 0. -1.
<mgrwt>
<rscale>  0 0.64032490E+03</rscale>
<asrwt>0</asrwt>
<pdfrwt beam="1">0</pdfrwt>
<pdfrwt beam="2">  1        2 0.37274258E+00 0.64032490E+03</pdfrwt>
<totfact> 0.50305723E+00</totfact>
</mgrwt>
</event>
<event>
 5    1  0.2368666E-004  0.6464691E+03  0.7818608E-02  0.9813427E-01
         13   -1    0    0    0    0  0.00000000000E+00  0.00000000000E+00  0.10000000000E+04  0.10000000000E+04  0.00000000000E+00 0. -1.
          2   -1    0    0  501    0 -0.00000000000E+00 -0.00000000000E+00 -0.10448058746E+03  0.10448058746E+03  0.00000000000E+00 0. -1.
    9000006    2    1    2  501    0  0.00000000000E+00  0.00000000000E+00  0.89551941254E+03  0.11044805875E+04  0.64646914067E+03 0.  0.
         13    1    3    3    0    0 -0.30533545713E+03  0.20502282582E+02  0.62556086696E+03  0.69640252961E+03  0.00000000000E+00 0. -1.
          2    1    3    3  501    0  0.30533545713E+03 -0.20502282582E+02  0.26995854558E+03  0.40807805786E+03  0.00000000000E+00 0. -1.
<mgrwt>
<rscale>  0 0.64646914E+03</rscale>
<asrwt>0</asrwt>
<pdfrwt beam="1">0</pdfrwt>
<pdfrwt beam="2">  1        2 0.37993021E+00 0.64646914E+03</pdfrwt>
<totfact> 0.47311302E+00</totfact>
</mgrwt>
</event>
<event>
 5    1  0.2368666E-004  0.6679914E+03  0.7818608E-02  0.9773593E-01
         13   -1    0    0    0    0  0.00000000000E+00  0.00000000000E+00  0.10000000000E+04  0.10000000000E+04  0.00000000000E+00 0. -1.
          2   -1    0    0  501    0 -0.00000000000E+00 -0.00000000000E+00 -0.11155314170E+03  0.11155314170E+03  0.00000000000E+00 0. -1.
    9000006    2    1    2  501    0  0.00000000000E+00  0.00000000000E+00  0.88844685830E+03  0.11115531417E+04  0.66799144215E+03 0.  0.
         13    1    3    3    0    0  0.16742428710E+03 -0.19594140953E+03  0.90724407804E+02  0.27323039006E+03  0.00000000000E+00 0. -1.
          2    1    3    3  501    0 -0.16742428710E+03  0.19594140953E+03  0.79772245050E+03  0.83832275164E+03  0.00000000000E+00 0. -1.
<mgrwt>
<rscale>  0 0.66799144E+03</rscale>
<asrwt>0</asrwt>
<pdfrwt beam="1">0</pdfrwt>
<pdfrwt beam="2">  1        2 0.40564864E+00 0.66799144E+03</pdfrwt>
<totfact> 0.37872970E+00</totfact>
</mgrwt>
</event>
<event>
 5    1  0.2368666E-004  0.6481912E+03  0.7818608E-02  0.9810179E-01
         13   -1    0    0    0    0  0.00000000000E+00  0.00000000000E+00  0.10000000000E+04  0.10000000000E+04  0.00000000000E+00 0. -1.
          2   -1    0    0  501    0 -0.00000000000E+00 -0.00000000000E+00 -0.10503796153E+03  0.10503796153E+03  0.00000000000E+00 0. -1.
    9000006    2    1    2  501    0  0.00000000000E+00  0.00000000000E+00  0.89496203847E+03  0.11050379615E+04  0.64819121108E+03 0.  0.
         13    1    3    3    0    0  0.15798358257E+03  0.28290623456E+03  0.43627440732E+03  0.54344282901E+03  0.00000000000E+00 0. -1.
          2    1    3    3  501    0 -0.15798358257E+03 -0.28290623456E+03  0.45868763114E+03  0.56159513253E+03  0.00000000000E+00 0. -1.
<mgrwt>
<rscale>  0 0.64819121E+03</rscale>
<asrwt>0</asrwt>
<pdfrwt beam="1">0</pdfrwt>
<pdfrwt beam="2">  1        2 0.38195703E+00 0.64819121E+03</pdfrwt>
<totfact> 0.46496814E+00</totfact>
</mgrwt>
</event>
<event>
 5    1  0.2368666E-004  0.6446934E+03  0.7818608E-02  0.9816788E-01
         13   -1    0    0    0    0  0.00000000000E+00  0.00000000000E+00  0.10000000000E+04  0.10000000000E+04  0.00000000000E+00 0. -1.
          2   -1    0    0  501    0 -0.00000000000E+00 -0.00000000000E+00 -0.10390738721E+03  0.10390738721E+03  0.00000000000E+00 0. -1.
    9000006    2    1    2  501    0  0.00000000000E+00  0.00000000000E+00  0.89609261279E+03  0.11039073872E+04  0.64469337583E+03 0.  0.
         13    1    3    3    0    0  0.31910567164E+03 -0.88409574924E+01  0.52463783357E+03  0.61412657378E+03  0.00000000000E+00 0. -1.
          4    1    3    3  501    0 -0.31910567164E+03  0.88409574924E+01  0.37145477922E+03  0.48978081343E+03  0.00000000000E+00 0. -1.
<mgrwt>
<rscale>  0 0.64469338E+03</rscale>
<asrwt>0</asrwt>
<pdfrwt beam="1">0</pdfrwt>
<pdfrwt beam="2">  1        2 0.37784584E+00 0.64469338E+03</pdfrwt>
<totfact> 0.48162441E+00</totfact>
</mgrwt>
</event>
<event>
 5    1  0.2368666E-004  0.6684428E+03  0.7818608E-02  0.9772775E-01
         13   -1    0    0    0    0  0.00000000000E+00  0.00000000000E+00  0.10000000000E+04  0.10000000000E+04  0.00000000000E+00 0. -1.
          2   -1    0    0  501    0 -0.00000000000E+00 -0.00000000000E+00 -0.11170393597E+03  0.11170393597E+03  0.00000000000E+00 0. -1.
    9000006    2    1    2  501    0  0.00000000000E+00  0.00000000000E+00  0.88829606403E+03  0.11117039360E+04  0.66844277531E+03 0.  0.
         13    1    3    3    0    0 -0.21644162747E+03  0.14984762316E+03  0.10167892813E+03  0.28220540869E+03  0.00000000000E+00 0. -1.
          2    1    3    3  501    0  0.21644162747E+03 -0.14984762316E+03  0.78661713590E+03  0.82949852728E+03  0.00000000000E+00 0. -1.
<mgrwt>
<rscale>  0 0.66844278E+03</rscale>
<asrwt>0</asrwt>
<pdfrwt beam="1">0</pdfrwt>
<pdfrwt beam="2">  1        2 0.40619699E+00 0.66844278E+03</pdfrwt>
<totfact> 0.37691671E+00</totfact>
</mgrwt>
</event>
<event>
 5    1  0.2368666E-004  0.6493309E+03  0.7818608E-02  0.9808036E-01
         13   -1    0    0    0    0  0.00000000000E+00  0.00000000000E+00  0.10000000000E+04  0.10000000000E+04  0.00000000000E+00 0. -1.
          2   -1    0    0  501    0 -0.00000000000E+00 -0.00000000000E+00 -0.10540764450E+03  0.10540764450E+03  0.00000000000E+00 0. -1.
    9000006    2    1    2  501    0  0.00000000000E+00  0.00000000000E+00  0.89459235550E+03  0.11054076445E+04  0.64933086942E+03 0.  0.
         13    1    3    3    0    0  0.20505174263E+03 -0.20624868771E+03  0.20164034251E+03  0.35389767739E+03  0.00000000000E+00 0. -1.
          2    1    3    3  501    0 -0.20505174263E+03  0.20624868771E+03  0.69295201300E+03  0.75150996710E+03  0.00000000000E+00 0. -1.
<mgrwt>
<rscale>  0 0.64933087E+03</rscale>
<asrwt>0</asrwt>
<pdfrwt beam="1">0</pdfrwt>
<pdfrwt beam="2">  1        2 0.38330133E+00 0.64933087E+03</pdfrwt>
<totfact> 0.45963650E+00</totfact>
</mgrwt>
</event>
<event>
 5    1  0.2368666E-004  0.6483691E+03  0.7818608E-02  0.9809844E-01
         13   -1    0    0    0    0  0.00000000000E+00  0.00000000000E+00  0.10000000000E+04  0.10000000000E+04  0.00000000000E+00 0. -1.
          2   -1    0    0  501    0 -0.00000000000E+00 -0.00000000000E+00 -0.10509562743E+03  0.10509562743E+03  0.00000000000E+00 0. -1.
    9000006    2    1    2  501    0  0.00000000000E+00  0.00000000000E+00  0.89490437257E+03  0.11050956274E+04  0.64836911534E+03 0.  0.
         13    1    3    3    0    0 -0.24189621419E+03 -0.20969008764E+03  0.53456000835E+03  0.62308756514E+03  0.00000000000E+00 0. -1.
          4    1    3    3  501    0  0.24189621419E+03  0.20969008764E+03  0.36034436421E+03  0.48200806229E+03  0.00000000000E+00 0. -1.
<mgrwt>
<rscale>  0 0.64836912E+03</rscale>
<asrwt>0</asrwt>
<pdfrwt beam="1">0</pdfrwt>
<pdfrwt beam="2">  1        2 0.38216672E+00 0.64836912E+03</pdfrwt>
<totfact> 0.46413279E+00</totfact>
</mgrwt>
</event>
<event>
 5    1  0.2368666E-004  0.6409154E+03  0.7818608E-02  0.9823977E-01
         13   -1    0    0    0    0  0.00000000000E+00  0.00000000000E+00  0.10000000000E+04  0.10000000000E+04  0.00000000000E+00 0. -1.
          2   -1    0    0  501    0 -0.00000000000E+00 -0.00000000000E+00 -0.10269313339E+03  0.10269313339E+03  0.00000000000E+00 0. -1.
    9000006    2    1    2  501    0  0.00000000000E+00  0.00000000000E+00  0.89730686661E+03  0.11026931334E+04  0.64091538722E+03 0.  0.
         13    1    3    3    0    0 -0.19935984062E+03 -0.24893816666E+03  0.50247438442E+03  0.59514289365E+03  0.00000000000E+00 0. -1.
          2    1    3    3  501    0  0.19935984062E+03  0.24893816666E+03  0.39483248219E+03  0.50755023974E+03  0.00000000000E+00 0. -1.
<mgrwt>
<rscale>  0 0.64091539E+03</rscale>
<asrwt>0</asrwt>
<pdfrwt beam="1">0</pdfrwt>
<pdfrwt beam="2">  1        2 0.37343036E+00 0.64091539E+03</pdfrwt>
<totfact> 0.50011862E+00</totfact>
</mgrwt>
</event>
<event>
 5    1  0.2368666E-004  0.6429325E+03  0.7818608E-02  0.9820132E-01
         13   -1    0    0    0    0  0.00000000000E+00  0.00000000000E+00  0.10000000000E+04  0.10000000000E+04  0.00000000000E+00 0. -1.
          2   -1    0    0  501    0 -0.00000000000E+00 -0.00000000000E+00 -0.10334056539E+03  0.10334056539E+03  0.00000000000E+00 0. -1.
    9000006    2    1    2  501    0  0.00000000000E+00  0.00000000000E+00  0.89665943461E+03  0.11033405654E+04  0.64293254823E+03 0.  0.
         13    1    3    3    0    0 -0.29650300827E+03  0.22905584382E+02  0.23883913894E+03  0.38142212048E+03  0.00000000000E+00 0. -1.
          2    1    3    3  501    0  0.29650300827E+03 -0.22905584382E+02  0.65782029567E+03  0.72191844491E+03  0.00000000000E+00 0. -1.
<mgrwt>
<rscale>  0 0.64293255E+03</rscale>
<asrwt>0</asrwt>
<pdfrwt beam="1">0</pdfrwt>
<pdfrwt beam="2">  1        2 0.37578467E+00 0.64293255E+03</pdfrwt>
<totfact> 0.49017812E+00</totfact>
</mgrwt>
</event>
<event>
 5    1  0.2368666E-004  0.6469754E+03  0.7818608E-02  0.9812471E-01
         13   -1    0    0    0    0  0.00000000000E+00  0.00000000000E+00  0.10000000000E+04  0.10000000000E+04  0.00000000000E+00 0. -1.
          2   -1    0    0  501    0 -0.00000000000E+00 -0.00000000000E+00 -0.10464429909E+03  0.10464429909E+03  0.00000000000E+00 0. -1.
    9000006    2    1    2  501    0  0.00000000000E+00  0.00000000000E+00  0.89535570091E+03  0.11046442991E+04  0.64697542177E+03 0.  0.
         13    1    3    3    0    0 -0.22798308328E+03 -0.22949075519E+03  0.45009616346E+03  0.55428228309E+03  0.00000000000E+00 0. -1.
          2    1    3    3  501    0  0.22798308328E+03  0.22949075519E+03  0.44525953744E+03  0.55036201601E+03  0.00000000000E+00 0. -1.
<mgrwt>
<rscale>  0 0.64697542E+03</rscale>
<asrwt>0</asrwt>
<pdfrwt beam="1">0</pdfrwt>
<pdfrwt beam="2">  1        2 0.38052553E+00 0.64697542E+03</pdfrwt>
<totfact> 0.47070736E+00</totfact>
</mgrwt>
</event>
<event>
 5    1  0.2368666E-004  0.6452061E+03  0.7818608E-02  0.9815816E-01
         13   -1    0    0    0    0  0.00000000000E+00  0.00000000000E+00  0.10000000000E+04  0.10000000000E+04  0.00000000000E+00 0. -1.
          2   -1    0    0  501    0 -0.00000000000E+00 -0.00000000000E+00 -0.10407271957E+03  0.10407271957E+03  0.00000000000E+00 0. -1.
    9000006    2    1    2  501    0  0.00000000000E+00  0.00000000000E+00  0.89592728043E+03  0.11040727196E+04  0.64520607428E+03 0.  0.
         13    1    3    3    0    0 -0.22181453285E+03 -0.20036712517E+03  0.65560451034E+03  0.72053171048E+03  0.00000000000E+00 0. -1.
          4    1    3    3  501    0  0.22181453285E+03  0.20036712517E+03  0.24032277009E+03  0.38354100909E+03  0.00000000000E+00 0. -1.
<mgrwt>
<rscale>  0 0.64520607E+03</rscale>
<asrwt>0</asrwt>
<pdfrwt beam="1">0</pdfrwt>
<pdfrwt beam="2">  1        2 0.37844705E+00 0.64520607E+03</pdfrwt>
<totfact> 0.47915521E+00</totfact>
</mgrwt>
</event>
<event>
 5    1  0.2368666E-004  0.6540312E+03  0.7818608E-02  0.9799244E-01
         13   -1    0    0    0    0  0.00000000000E+00  0.00000000000E+00  0.10000000000E+04  0.10000000000E+04  0.00000000000E+00 0. -1.
          2   -1    0    0  501    0 -0.00000000000E+00 -0.00000000000E+00 -0.10693919980E+03  0.10693919980E+03  0.00000000000E+00 0. -1.
    9000006    2    1    2  501    0  0.00000000000E+00  0.00000000000E+00  0.89306080020E+03  0.11069391998E+04  0.65403119131E+03 0.  0.
         13    1    3    3    0    0  0.19088000222E+02 -0.28722070916E+03  0.18389966907E+03  0.34158333655E+03  0.00000000000E+00 0. -1.
          4    1    3    3  501    0 -0.19088000222E+02  0.28722070916E+03  0.70916113112E+03  0.76535586325E+03  0.00000000000E+00 0. -1.
<mgrwt>
<rscale>  0 0.65403119E+03</rscale>
<asrwt>0</asrwt>
<pdfrwt beam="1">0</pdfrwt>
<pdfrwt beam="2">  1        2 0.38887064E+00 0.65403119E+03</pdfrwt>
<totfact> 0.43813364E+00</totfact>
</mgrwt>
</event>
<event>
 5    1  0.2368666E-004  0.6485025E+03  0.7818608E-02  0.9809593E-01
         13   -1    0    0    0    0  0.00000000000E+00  0.00000000000E+00  0.10000000000E+04  0.10000000000E+04  0.00000000000E+00 0. -1.
          2   -1    0    0  501    0 -0.00000000000E+00 -0.00000000000E+00 -0.10513886530E+03  0.10513886530E+03  0.00000000000E+00 0. -1.
    9000006    2    1    2  501    0  0.00000000000E+00  0.00000000000E+00  0.89486113470E+03  0.11051388653E+04  0.64850247586E+03 0.  0.
         13    1    3    3    0    0 -0.24169333994E+03 -0.82746206468E+02  0.10713019552E+03  0.27701892363E+03  0.00000000000E+00 0. -1.
          2    1    3    3  501    0  0.24169333994E+03  0.82746206468E+02  0.78773093918E+03  0.82811994167E+03  0.00000000000E+00 0. -1.
<mgrwt>
<rscale>  0 0.64850248E+03</rscale>
<asrwt>0</asrwt>
<pdfrwt beam="1">0</pdfrwt>
<pdfrwt beam="2">  1        2 0.38232395E+00 0.64850248E+03</pdfrwt>
<totfact> 0.46350734E+00</totfact>
</mgrwt>
</event>
<event>
 5    1  0.2368666E-004  0.6558225E+03  0.7818608E-02  0.9795915E-01
         13   -1    0    0    0    0  0.00000000000E+00  0.00000000000E+00  0.10000000000E+04  0.10000000000E+04  0.00000000000E+00 0. -1.
          2   -1    0    0  501    0 -0.00000000000E+00 -0.00000000000E+00 -0.10752579353E+03  0.10752579353E+03  0.00000000000E+00 0. -1.
    9000006    2    1    2  501    0  0.00000000000E+00  0.00000000000E+00  0.89247420647E+03  0.11075257935E+04  0.65582251725E+03 0.  0.
         13    1    3    3    0    0  0.73775565260E+02  0.10610073457E+03  0.95518303611E+03  0.96388527968E+03  0.00000000000E+00 0. -1.
          2    1    3    3  501    0 -0.73775565260E+02 -0.10610073457E+03 -0.62708829640E+02  0.14364051386E+03  0.00000000000E+00 0. -1.
<mgrwt>
<rscale>  0 0.65582252E+03</rscale>
<asrwt>0</asrwt>
<pdfrwt beam="1">0</pdfrwt>
<pdfrwt beam="2">  1        2 0.39100371E+00 0.65582252E+03</pdfrwt>
<totfact> 0.43014208E+00</totfact>
</mgrwt>
</event>
<event>
 5    1  0.2368666E-004  0.6508353E+03  0.7818608E-02  0.9805213E-01
         13   -1    0    0    0    0  0.00000000000E+00  0.00000000000E+00  0.10000000000E+04  0.10000000000E+04  0.00000000000E+00 0. -1.
          2   -1    0    0  501    0 -0.00000000000E+00 -0.00000000000E+00 -0.10589664915E+03  0.10589664915E+03  0.00000000000E+00 0. -1.
    9000006    2    1    2  501    0  0.00000000000E+00  0.00000000000E+00  0.89410335085E+03  0.11058966492E+04  0.65083530683E+03 0.  0.
         13    1    3    3    0    0  0.14252350295E+03  0.28950093022E+03  0.37550540719E+03  0.49510407827E+03  0.00000000000E+00 0. -1.
          4    1    3    3  501    0 -0.14252350295E+03 -0.28950093022E+03  0.51859794365E+03  0.61079257089E+03  0.00000000000E+00 0. -1.
<mgrwt>
<rscale>  0 0.65083531E+03</rscale>
<asrwt>0</asrwt>
<pdfrwt beam="1">0</pdfrwt>
<pdfrwt beam="2">  1        2 0.38507954E+00 0.65083531E+03</pdfrwt>
<totfact> 0.45266923E+00</totfact>
</mgrwt>
</event>
<event>
 5    1  0.2368666E-004  0.6406172E+03  0.7818608E-02  0.9824546E-01
         13   -1    0    0    0    0  0.00000000000E+00  0.00000000000E+00  0.10000000000E+04  0.10000000000E+04  0.00000000000E+00 0. -1.
          2   -1    0    0  501    0 -0.00000000000E+00 -0.00000000000E+00 -0.10259760270E+03  0.10259760270E+03  0.00000000000E+00 0. -1.
    9000006    2    1    2  501    0  0.00000000000E+00  0.00000000000E+00  0.89740239730E+03  0.11025976027E+04  0.64061721083E+03 0.  0.
         13    1    3    3    0    0  0.15067285744E+03  0.96759159266E+02  0.90580463894E+03  0.92333454868E+03  0.00000000000E+00 0. -1.
          4    1    3    3  501    0 -0.15067285744E+03 -0.96759159266E+02 -0.84022416406E+01  0.17926305402E+03  0.00000000000E+00 0. -1.
<mgrwt>
<rscale>  0 0.64061721E+03</rscale>
<asrwt>0</asrwt>
<pdfrwt beam="1">0</pdfrwt>
<pdfrwt beam="2">  1        2 0.37308298E+00 0.64061721E+03</pdfrwt>
<totfact> 0.50160089E+00</totfact>
</mgrwt>
</event>
<event>
 5    1  0.2368666E-004  0.6552867E+03  0.7818608E-02  0.9796909E-01
         13   -1    0    0    0    0  0.00000000000E+00  0.00000000000E+00  0.10000000000E+04  0.10000000000E+04  0.00000000000E+00 0. -1.
          2   -1    0    0  501    0 -0.00000000000E+00 -0.00000000000E+00 -0.10735017744E+03  0.10735017744E+03  0.00000000000E+00 0. -1.
    9000006    2    1    2  501    0  0.00000000000E+00  0.00000000000E+00  0.89264982256E+03  0.11073501774E+04  0.65528673857E+03 0.  0.
         13    1    3    3    0    0  0.18687097410E+03  0.22825961215E+03  0.68725435634E+03  0.74789154415E+03  0.00000000000E+00 0. -1.
          4    1    3    3  501    0 -0.18687097410E+03 -0.22825961215E+03  0.20539546622E+03  0.35945863328E+03  0.00000000000E+00 0. -1.
<mgrwt>
<rscale>  0 0.65528674E+03</rscale>
<asrwt>0</asrwt>
<pdfrwt beam="1">0</pdfrwt>
<pdfrwt beam="2">  1        2 0.39036510E+00 0.65528674E+03</pdfrwt>
<totfact> 0.43252069E+00</totfact>
</mgrwt>
</event>
<event>
 5    1  0.2368666E-004  0.6476858E+03  0.7818608E-02  0.9811131E-01
         13   -1    0    0    0    0  0.00000000000E+00  0.00000000000E+00  0.10000000000E+04  0.10000000000E+04  0.00000000000E+00 0. -1.
          2   -1    0    0  501    0 -0.00000000000E+00 -0.00000000000E+00 -0.10487421084E+03  0.10487421084E+03  0.00000000000E+00 0. -1.
    9000006    2    1    2  501    0  0.00000000000E+00  0.00000000000E+00  0.89512578916E+03  0.11048742108E+04  0.64768575973E+03 0.  0.
         13    1    3    3    0    0 -0.57038052835E+00  0.16454216139E+03 -0.28251552252E+02  0.16695088623E+03  0.00000000000E+00 0. -1.
          2    1    3    3  501    0  0.57038052835E+00 -0.16454216139E+03  0.92337734141E+03  0.93792332461E+03  0.00000000000E+00 0. -1.
<mgrwt>
<rscale>  0 0.64768576E+03</rscale>
<asrwt>0</asrwt>
<pdfrwt beam="1">0</pdfrwt>
<pdfrwt beam="2">  1        2 0.38136157E+00 0.64768576E+03</pdfrwt>
<totfact> 0.46734769E+00</totfact>
</mgrwt>
</event>
<event>
 5    1  0.2368666E-004  0.6493134E+03  0.7818608E-02  0.9808068E-01
         13   -1    0    0    0    0  0.00000000000E+00  0.00000000000E+00  0.10000000000E+04  0.10000000000E+04  0.00000000000E+00 0. -1.
          2   -1    0    0  501    0 -0.00000000000E+00 -0.00000000000E+00 -0.10540198596E+03  0.10540198596E+03  0.00000000000E+00 0. -1.
    9000006    2    1    2  501    0  0.00000000000E+00  0.00000000000E+00  0.89459801404E+03  0.11054019860E+04  0.64931344036E+03 0.  0.
         13    1    3    3    0    0 -0.29322342549E+02 -0.32127375996E+03  0.38532175125E+03  0.50254301369E+03  0.00000000000E+00 0. -1.
          2    1    3    3  501    0  0.29322342549E+02  0.32127375996E+03  0.50927626279E+03  0.60285897227E+03  0.00000000000E+00 0. -1.
<mgrwt>
<rscale>  0 0.64931344E+03</rscale>
<asrwt>0</asrwt>
<pdfrwt beam="1">0</pdfrwt>
<pdfrwt beam="2">  1        2 0.38328076E+00 0.64931344E+03</pdfrwt>
<totfact> 0.45971769E+00</totfact>
</mgrwt>
</event>
<event>
 5    1  0.2368666E-004  0.6584907E+03  0.7818608E-02  0.9790976E-01
         13   -1    0    0    0    0  0.00000000000E+00  0.00000000000E+00  0.10000000000E+04  0.10000000000E+04  0.00000000000E+00 0. -1.
          2   -1    0    0  501    0 -0.00000000000E+00 -0.00000000000E+00 -0.10840248735E+03  0.10840248735E+03  0.00000000000E+00 0. -1.
    9000006    2    1    2  501    0  0.00000000000E+00  0.00000000000E+00  0.89159751265E+03  0.11084024873E+04  0.65849066006E+03 0.  0.
         13    1    3    3    0    0  0.37417385762E+01 -0.29337962029E+03  0.69725629568E+03  0.75647335979E+03  0.00000000000E+00 0. -1.
          4    1    3    3  501    0 -0.37417385762E+01  0.29337962029E+03  0.19434121697E+03  0.35192912755E+03  0.00000000000E+00 0. -1.
<mgrwt>
<rscale>  0 0.65849066E+03</rscale>
<asrwt>0</asrwt>
<pdfrwt beam="1">0</pdfrwt>
<pdfrwt beam="2">  1        2 0.39419169E+00 0.65849066E+03</pdfrwt>
<totfact> 0.41844361E+00</totfact>
</mgrwt>
</event>
<event>
 5    1  0.2368666E-004  0.6340879E+03  0.7818608E-02  0.9837104E-01
         13   -1    0    0    0    0  0.00000000000E+00  0.00000000000E+00  0.10000000000E+04  0.10000000000E+04  0.00000000000E+00 0. -1.
          2   -1    0    0  501    0 -0.00000000000E+00 -0.00000000000E+00 -0.10051688073E+03  0.10051688073E+03  0.00000000000E+00 0. -1.
    9000006    2    1    2  501    0  0.00000000000E+00  0.00000000000E+00  0.89948311927E+03  0.11005168807E+04  0.63408794572E+03 0.  0.
         13    1    3    3    0    0 -0.32172074537E+02  0.28238158205E+03  0.20587734804E+03  0.35094142345E+03  0.00000000000E+00 0. -1.
          2    1    3    3  501    0  0.32172074537E+02 -0.28238158205E+03  0.69360577123E+03  0.74957545727E+03  0.00000000000E+00 0. -1.
<mgrwt>
<rscale>  0 0.63408795E+03</rscale>
<asrwt>0</asrwt>
<pdfrwt beam="1">0</pdfrwt>
<pdfrwt beam="2">  1        2 0.36551670E+00 0.63408795E+03</pdfrwt>
<totfact> 0.53490118E+00</totfact>
</mgrwt>
</event>
<event>
 5    1  0.2368666E-004  0.6431745E+03  0.7818608E-02  0.9819672E-01
         13   -1    0    0    0    0  0.00000000000E+00  0.00000000000E+00  0.10000000000E+04  0.10000000000E+04  0.00000000000E+00 0. -1.
          2   -1    0    0  501    0 -0.00000000000E+00 -0.00000000000E+00 -0.10341836747E+03  0.10341836747E+03  0.00000000000E+00 0. -1.
    9000006    2    1    2  501    0  0.00000000000E+00  0.00000000000E+00  0.89658163253E+03  0.11034183675E+04  0.64317452522E+03 0.  0.
         13    1    3    3    0    0  0.22790995645E+03 -0.18547063220E+03  0.22410648325E+03  0.36954839939E+03  0.00000000000E+00 0. -1.
          4    1    3    3  501    0 -0.22790995645E+03  0.18547063220E+03  0.67247514928E+03  0.73386996809E+03  0.00000000000E+00 0. -1.
<mgrwt>
<rscale>  0 0.64317453E+03</rscale>
<asrwt>0</asrwt>
<pdfrwt beam="1">0</pdfrwt>
<pdfrwt beam="2">  1        2 0.37606758E+00 0.64317453E+03</pdfrwt>
<totfact> 0.48899588E+00</totfact>
</mgrwt>
</event>
<event>
 5    1  0.2368666E-004  0.6555672E+03  0.7818608E-02  0.9796388E-01
         13   -1    0    0    0    0  0.00000000000E+00  0.00000000000E+00  0.10000000000E+04  0.10000000000E+04  0.00000000000E+00 0. -1.
          2   -1    0    0  501    0 -0.00000000000E+00 -0.00000000000E+00 -0.10744208961E+03  0.10744208961E+03  0.00000000000E+00 0. -1.
    9000006    2    1    2  501    0  0.00000000000E+00  0.00000000000E+00  0.89255791039E+03  0.11074420896E+04  0.65556720359E+03 0.  0.
         13    1    3    3    0    0 -0.14144565533E+03  0.20331209572E+03  0.83575677372E+02  0.26139543899E+03  0.00000000000E+00 0. -1.
          4    1    3    3  501    0  0.14144565533E+03 -0.20331209572E+03  0.80898223302E+03  0.84604665062E+03  0.00000000000E+00 0. -1.
<mgrwt>
<rscale>  0 0.65556720E+03</rscale>
<asrwt>0</asrwt>
<pdfrwt beam="1">0</pdfrwt>
<pdfrwt beam="2">  1        2 0.39069933E+00 0.65556720E+03</pdfrwt>
<totfact> 0.43127432E+00</totfact>
</mgrwt>
</event>
<event>
 5    1  0.2368666E-004  0.7040228E+03  0.7818608E-02  0.9710377E-01
         13   -1    0    0    0    0  0.00000000000E+00  0.00000000000E+00  0.10000000000E+04  0.10000000000E+04  0.00000000000E+00 0. -1.
          2   -1    0    0  501    0 -0.00000000000E+00 -0.00000000000E+00 -0.12391202826E+03  0.12391202826E+03  0.00000000000E+00 0. -1.
    9000006    2    1    2  501    0  0.00000000000E+00  0.00000000000E+00  0.87608797174E+03  0.11239120283E+04  0.70402280718E+03 0.  0.
         13    1    3    3    0    0 -0.92999305189E+02 -0.29829588429E+03  0.69685381663E+03  0.76369794232E+03  0.00000000000E+00 0. -1.
          4    1    3    3  501    0  0.92999305189E+02  0.29829588429E+03  0.17923415511E+03  0.36021408594E+03  0.00000000000E+00 0. -1.
<mgrwt>
<rscale>  0 0.70402281E+03</rscale>
<asrwt>0</asrwt>
<pdfrwt beam="1">0</pdfrwt>
<pdfrwt beam="2">  1        2 0.45059014E+00 0.70402281E+03</pdfrwt>
<totfact> 0.25332717E+00</totfact>
</mgrwt>
</event>
<event>
 5    1  0.2368666E-004  0.6083498E+03  0.7818608E-02  0.9888233E-01
         13   -1    0    0    0    0  0.00000000000E+00  0.00000000000E+00  0.10000000000E+04  0.10000000000E+04  0.00000000000E+00 0. -1.
          2   -1    0    0  501    0 -0.00000000000E+00 -0.00000000000E+00 -0.92522378781E+02  0.92522378781E+02  0.00000000000E+00 0. -1.
    9000006    2    1    2  501    0  0.00000000000E+00  0.00000000000E+00  0.90747762122E+03  0.10925223788E+04  0.60834982956E+03 0.  0.
         13    1    3    3    0    0 -0.16499769063E+03  0.24375826396E+03  0.31602818654E+03  0.43187514845E+03  0.00000000000E+00 0. -1.
          2    1    3    3  501    0  0.16499769063E+03 -0.24375826396E+03  0.59144943468E+03  0.66064723033E+03  0.00000000000E+00 0. -1.
<mgrwt>
<rscale>  0 0.60834983E+03</rscale>
<asrwt>0</asrwt>
<pdfrwt beam="1">0</pdfrwt>
<pdfrwt beam="2">  1        2 0.33644572E+00 0.60834983E+03</pdfrwt>
<totfact> 0.68281596E+00</totfact>
</mgrwt>
</event>
<event>
 5    1  0.2368666E-004  0.5836844E+03  0.7818608E-02  0.9939846E-01
         13   -1    0    0    0    0  0.00000000000E+00  0.00000000000E+00  0.10000000000E+04  0.10000000000E+04  0.00000000000E+00 0. -1.
          2   -1    0    0  501    0 -0.00000000000E+00 -0.00000000000E+00 -0.85171866447E+02  0.85171866447E+02  0.00000000000E+00 0. -1.
    9000006    2    1    2  501    0  0.00000000000E+00  0.00000000000E+00  0.91482813355E+03  0.10851718664E+04  0.58368438885E+03 0.  0.
         13    1    3    3    0    0  0.22412474368E+03  0.12769389753E+03  0.20362306301E+03  0.32863351014E+03  0.00000000000E+00 0. -1.
          2    1    3    3  501    0 -0.22412474368E+03 -0.12769389753E+03  0.71120507054E+03  0.75653835631E+03  0.00000000000E+00 0. -1.
<mgrwt>
<rscale>  0 0.58368439E+03</rscale>
<asrwt>0</asrwt>
<pdfrwt beam="1">0</pdfrwt>
<pdfrwt beam="2">  1        2 0.30971653E+00 0.58368439E+03</pdfrwt>
<totfact> 0.85218715E+00</totfact>
</mgrwt>
</event>
<event>
 5    1  0.2368666E-004  0.6482977E+03  0.7818608E-02  0.9809979E-01
         13   -1    0    0    0    0  0.00000000000E+00  0.00000000000E+00  0.10000000000E+04  0.10000000000E+04  0.00000000000E+00 0. -1.
          2   -1    0    0  501    0 -0.00000000000E+00 -0.00000000000E+00 -0.10507248468E+03  0.10507248468E+03  0.00000000000E+00 0. -1.
    9000006    2    1    2  501    0  0.00000000000E+00  0.00000000000E+00  0.89492751532E+03  0.11050724847E+04  0.64829772382E+03 0.  0.
         13    1    3    3    0    0  0.29026891457E+03  0.11123096710E+03  0.29082713544E+03  0.42568626184E+03  0.00000000000E+00 0. -1.
          2    1    3    3  501    0 -0.29026891457E+03 -0.11123096710E+03  0.60410037989E+03  0.67938622284E+03  0.00000000000E+00 0. -1.
<mgrwt>
<rscale>  0 0.64829772E+03</rscale>
<asrwt>0</asrwt>
<pdfrwt beam="1">0</pdfrwt>
<pdfrwt beam="2">  1        2 0.38208257E+00 0.64829772E+03</pdfrwt>
<totfact> 0.46446787E+00</totfact>
</mgrwt>
</event>
<event>
 5    1  0.2368666E-004  0.5194229E+03  0.7818608E-02  0.1008830E+00
         13   -1    0    0    0    0  0.00000000000E+00  0.00000000000E+00  0.10000000000E+04  0.10000000000E+04  0.00000000000E+00 0. -1.
          2   -1    0    0  501    0 -0.00000000000E+00 -0.00000000000E+00 -0.67450037196E+02  0.67450037196E+02  0.00000000000E+00 0. -1.
    9000006    2    1    2  501    0  0.00000000000E+00  0.00000000000E+00  0.93254996280E+03  0.10674500372E+04  0.51942289975E+03 0.  0.
         13    1    3    3    0    0 -0.12555052870E+03 -0.72172336323E+02  0.90932358820E+03  0.92078291114E+03  0.00000000000E+00 0. -1.
          2    1    3    3  501    0  0.12555052870E+03  0.72172336323E+02  0.23226374600E+02  0.14666712605E+03  0.00000000000E+00 0. -1.
<mgrwt>
<rscale>  0 0.51942290E+03</rscale>
<asrwt>0</asrwt>
<pdfrwt beam="1">0</pdfrwt>
<pdfrwt beam="2">  1        2 0.24527338E+00 0.51942290E+03</pdfrwt>
<totfact> 0.14496535E+01</totfact>
</mgrwt>
</event>
<event>
 5    1  0.2368666E-004  0.6475722E+03  0.7818608E-02  0.9811346E-01
         13   -1    0    0    0    0  0.00000000000E+00  0.00000000000E+00  0.10000000000E+04  0.10000000000E+04  0.00000000000E+00 0. -1.
          2   -1    0    0  501    0 -0.00000000000E+00 -0.00000000000E+00 -0.10483742967E+03  0.10483742967E+03  0.00000000000E+00 0. -1.
    9000006    2    1    2  501    0  0.00000000000E+00  0.00000000000E+00  0.89516257033E+03  0.11048374297E+04  0.64757217255E+03 0.  0.
         13    1    3    3    0    0 -0.12525156276E+03 -0.48835816967E+02  0.95013366258E+03  0.95959724247E+03  0.00000000000E+00 0. -1.
          2    1    3    3  501    0  0.12525156276E+03  0.48835816967E+02 -0.54971092244E+02  0.14524018719E+03  0.00000000000E+00 0. -1.
<mgrwt>
<rscale>  0 0.64757217E+03</rscale>
<asrwt>0</asrwt>
<pdfrwt beam="1">0</pdfrwt>
<pdfrwt beam="2">  1        2 0.38122782E+00 0.64757217E+03</pdfrwt>
<totfact> 0.46788370E+00</totfact>
</mgrwt>
</event>
<event>
 5    1  0.2368666E-004  0.6411280E+03  0.7818608E-02  0.9823571E-01
         13   -1    0    0    0    0  0.00000000000E+00  0.00000000000E+00  0.10000000000E+04  0.10000000000E+04  0.00000000000E+00 0. -1.
          2   -1    0    0  501    0 -0.00000000000E+00 -0.00000000000E+00 -0.10276127099E+03  0.10276127099E+03  0.00000000000E+00 0. -1.
    9000006    2    1    2  501    0  0.00000000000E+00  0.00000000000E+00  0.89723872901E+03  0.11027612710E+04  0.64112797784E+03 0.  0.
         13    1    3    3    0    0 -0.16686054565E+03  0.15896586417E+03  0.83187684814E+03  0.86321010080E+03  0.00000000000E+00 0. -1.
          4    1    3    3  501    0  0.16686054565E+03 -0.15896586417E+03  0.65361880871E+02  0.23955117019E+03  0.00000000000E+00 0. -1.
<mgrwt>
<rscale>  0 0.64112798E+03</rscale>
<asrwt>0</asrwt>
<pdfrwt beam="1">0</pdfrwt>
<pdfrwt beam="2">  1        2 0.37367814E+00 0.64112798E+03</pdfrwt>
<totfact> 0.49906384E+00</totfact>
</mgrwt>
</event>
<event>
 5    1  0.2368666E-004  0.6559288E+03  0.7818608E-02  0.9795717E-01
         13   -1    0    0    0    0  0.00000000000E+00  0.00000000000E+00  0.10000000000E+04  0.10000000000E+04  0.00000000000E+00 0. -1.
          2   -1    0    0  501    0 -0.00000000000E+00 -0.00000000000E+00 -0.10756064189E+03  0.10756064189E+03  0.00000000000E+00 0. -1.
    9000006    2    1    2  501    0  0.00000000000E+00  0.00000000000E+00  0.89243935811E+03  0.11075606419E+04  0.65592878238E+03 0.  0.
         13    1    3    3    0    0 -0.35986773043E+02  0.19002284300E+03 -0.10259060699E+01  0.19340315710E+03  0.00000000000E+00 0. -1.
          4    1    3    3  501    0  0.35986773043E+02 -0.19002284300E+03  0.89346526418E+03  0.91415748479E+03  0.00000000000E+00 0. -1.
<mgrwt>
<rscale>  0 0.65592878E+03</rscale>
<asrwt>0</asrwt>
<pdfrwt beam="1">0</pdfrwt>
<pdfrwt beam="2">  1        2 0.39113043E+00 0.65592878E+03</pdfrwt>
<totfact> 0.42967149E+00</totfact>
</mgrwt>
</event>
<event>
 5    1  0.2368666E-004  0.5630463E+03  0.7818608E-02  0.9985185E-01
         13   -1    0    0    0    0  0.00000000000E+00  0.00000000000E+00  0.10000000000E+04  0.10000000000E+04  0.00000000000E+00 0. -1.
          2   -1    0    0  501    0 -0.00000000000E+00 -0.00000000000E+00 -0.79255270247E+02  0.79255270247E+02  0.00000000000E+00 0. -1.
    9000006    2    1    2  501    0  0.00000000000E+00  0.00000000000E+00  0.92074472975E+03  0.10792552702E+04  0.56304625120E+03 0.  0.
         13    1    3    3    0    0 -0.17111799451E+03  0.60287531353E+02  0.47747955931E+02  0.18760549506E+03  0.00000000000E+00 0. -1.
          4    1    3    3  501    0  0.17111799451E+03 -0.60287531353E+02  0.87299677382E+03  0.89164977518E+03  0.00000000000E+00 0. -1.
<mgrwt>
<rscale>  0 0.56304625E+03</rscale>
<asrwt>0</asrwt>
<pdfrwt beam="1">0</pdfrwt>
<pdfrwt beam="2">  1        2 0.28820159E+00 0.56304625E+03</pdfrwt>
<totfact> 0.10174470E+01</totfact>
</mgrwt>
</event>
<event>
 5    1  0.2368666E-004  0.6469179E+03  0.7818608E-02  0.9812580E-01
         13   -1    0    0    0    0  0.00000000000E+00  0.00000000000E+00  0.10000000000E+04  0.10000000000E+04  0.00000000000E+00 0. -1.
          2   -1    0    0  501    0 -0.00000000000E+00 -0.00000000000E+00 -0.10462569103E+03  0.10462569103E+03  0.00000000000E+00 0. -1.
    9000006    2    1    2  501    0  0.00000000000E+00  0.00000000000E+00  0.89537430897E+03  0.11046256910E+04  0.64691789597E+03 0.  0.
         13    1    3    3    0    0  0.15645654660E+03 -0.13595809056E+03  0.87169736905E+03  0.89600198470E+03  0.00000000000E+00 0. -1.
          2    1    3    3  501    0 -0.15645654660E+03  0.13595809056E+03  0.23676939914E+02  0.20862370634E+03  0.00000000000E+00 0. -1.
<mgrwt>
<rscale>  0 0.64691790E+03</rscale>
<asrwt>0</asrwt>
<pdfrwt beam="1">0</pdfrwt>
<pdfrwt beam="2">  1        2 0.38045786E+00 0.64691790E+03</pdfrwt>
<totfact> 0.47098023E+00</totfact>
</mgrwt>
</event>
<event>
 5    1  0.2368666E-004  0.6559527E+03  0.7818608E-02  0.9795673E-01
         13   -1    0    0    0    0  0.00000000000E+00  0.00000000000E+00  0.10000000000E+04  0.10000000000E+04  0.00000000000E+00 0. -1.
          2   -1    0    0  501    0 -0.00000000000E+00 -0.00000000000E+00 -0.10756849111E+03  0.10756849111E+03  0.00000000000E+00 0. -1.
    9000006    2    1    2  501    0  0.00000000000E+00  0.00000000000E+00  0.89243150889E+03  0.11075684911E+04  0.65595271509E+03 0.  0.
         13    1    3    3    0    0 -0.31057041717E+03 -0.10303061149E+03  0.48394129122E+03  0.58418187602E+03  0.00000000000E+00 0. -1.
          4    1    3    3  501    0  0.31057041717E+03  0.10303061149E+03  0.40849021767E+03  0.52338661509E+03  0.00000000000E+00 0. -1.
<mgrwt>
<rscale>  0 0.65595272E+03</rscale>
<asrwt>0</asrwt>
<pdfrwt beam="1">0</pdfrwt>
<pdfrwt beam="2">  1        2 0.39115897E+00 0.65595272E+03</pdfrwt>
<totfact> 0.42956556E+00</totfact>
</mgrwt>
</event>
<event>
 5    1  0.2368666E-004  0.6542640E+03  0.7818608E-02  0.9798811E-01
         13   -1    0    0    0    0  0.00000000000E+00  0.00000000000E+00  0.10000000000E+04  0.10000000000E+04  0.00000000000E+00 0. -1.
          2   -1    0    0  501    0 -0.00000000000E+00 -0.00000000000E+00 -0.10701533891E+03  0.10701533891E+03  0.00000000000E+00 0. -1.
    9000006    2    1    2  501    0  0.00000000000E+00  0.00000000000E+00  0.89298466109E+03  0.11070153389E+04  0.65426398008E+03 0.  0.
         13    1    3    3    0    0  0.70746271129E+02  0.19336276325E+03  0.87661066406E+03  0.90046679530E+03  0.00000000000E+00 0. -1.
          4    1    3    3  501    0 -0.70746271129E+02 -0.19336276325E+03  0.16373997031E+02  0.20654854361E+03  0.00000000000E+00 0. -1.
<mgrwt>
<rscale>  0 0.65426398E+03</rscale>
<asrwt>0</asrwt>
<pdfrwt beam="1">0</pdfrwt>
<pdfrwt beam="2">  1        2 0.38914751E+00 0.65426398E+03</pdfrwt>
<totfact> 0.43708882E+00</totfact>
</mgrwt>
</event>
<event>
 5    1  0.2368666E-004  0.6429651E+03  0.7818608E-02  0.9820070E-01
         13   -1    0    0    0    0  0.00000000000E+00  0.00000000000E+00  0.10000000000E+04  0.10000000000E+04  0.00000000000E+00 0. -1.
          2   -1    0    0  501    0 -0.00000000000E+00 -0.00000000000E+00 -0.10335103318E+03  0.10335103318E+03  0.00000000000E+00 0. -1.
    9000006    2    1    2  501    0  0.00000000000E+00  0.00000000000E+00  0.89664896682E+03  0.11033510332E+04  0.64296511003E+03 0.  0.
         13    1    3    3    0    0 -0.17663035113E+03  0.17197905557E+03  0.94238686440E+02  0.26392424390E+03  0.00000000000E+00 0. -1.
          2    1    3    3  501    0  0.17663035113E+03 -0.17197905557E+03  0.80241028038E+03  0.83942678928E+03  0.00000000000E+00 0. -1.
<mgrwt>
<rscale>  0 0.64296511E+03</rscale>
<asrwt>0</asrwt>
<pdfrwt beam="1">0</pdfrwt>
<pdfrwt beam="2">  1        2 0.37582273E+00 0.64296511E+03</pdfrwt>
<totfact> 0.49001890E+00</totfact>
</mgrwt>
</event>
<event>
 5    1  0.2368666E-004  0.6399399E+03  0.7818608E-02  0.9825841E-01
         13   -1    0    0    0    0  0.00000000000E+00  0.00000000000E+00  0.10000000000E+04  0.10000000000E+04  0.00000000000E+00 0. -1.
          2   -1    0    0  501    0 -0.00000000000E+00 -0.00000000000E+00 -0.10238077428E+03  0.10238077428E+03  0.00000000000E+00 0. -1.
    9000006    2    1    2  501    0  0.00000000000E+00  0.00000000000E+00  0.89761922572E+03  0.11023807743E+04  0.63993991679E+03 0.  0.
         13    1    3    3    0    0  0.27453836973E+03  0.16273916850E+03  0.40932334523E+03  0.51903849025E+03  0.00000000000E+00 0. -1.
          4    1    3    3  501    0 -0.27453836973E+03 -0.16273916850E+03  0.48829588050E+03  0.58334228402E+03  0.00000000000E+00 0. -1.
<mgrwt>
<rscale>  0 0.63993992E+03</rscale>
<asrwt>0</asrwt>
<pdfrwt beam="1">0</pdfrwt>
<pdfrwt beam="2">  1        2 0.37229451E+00 0.63993992E+03</pdfrwt>
<totfact> 0.50498015E+00</totfact>
</mgrwt>
</event>
<event>
 5    1  0.2368666E-004  0.6512251E+03  0.7818608E-02  0.9804483E-01
         13   -1    0    0    0    0  0.00000000000E+00  0.00000000000E+00  0.10000000000E+04  0.10000000000E+04  0.00000000000E+00 0. -1.
          2   -1    0    0  501    0 -0.00000000000E+00 -0.00000000000E+00 -0.10602352690E+03  0.10602352690E+03  0.00000000000E+00 0. -1.
    9000006    2    1    2  501    0  0.00000000000E+00  0.00000000000E+00  0.89397647310E+03  0.11060235269E+04  0.65122508213E+03 0.  0.
         13    1    3    3    0    0  0.22821397573E+03 -0.21039045622E+03  0.61406681142E+03  0.68805800023E+03  0.00000000000E+00 0. -1.
          2    1    3    3  501    0 -0.22821397573E+03  0.21039045622E+03  0.27990966168E+03  0.41796552667E+03  0.00000000000E+00 0. -1.
<mgrwt>
<rscale>  0 0.65122508E+03</rscale>
<asrwt>0</asrwt>
<pdfrwt beam="1">0</pdfrwt>
<pdfrwt beam="2">  1        2 0.38554091E+00 0.65122508E+03</pdfrwt>
<totfact> 0.45087722E+00</totfact>
</mgrwt>
</event>
<event>
 5    1  0.2368666E-004  0.6485596E+03  0.7818608E-02  0.9809486E-01
         13   -1    0    0    0    0  0.00000000000E+00  0.00000000000E+00  0.10000000000E+04  0.10000000000E+04  0.00000000000E+00 0. -1.
          2   -1    0    0  501    0 -0.00000000000E+00 -0.00000000000E+00 -0.10515739976E+03  0.10515739976E+03  0.00000000000E+00 0. -1.
    9000006    2    1    2  501    0  0.00000000000E+00  0.00000000000E+00  0.89484260024E+03  0.11051573998E+04  0.64855963415E+03 0.  0.
         13    1    3    3    0    0 -0.60551420735E+02 -0.29857652552E+03  0.63673598249E+03  0.70586622496E+03  0.00000000000E+00 0. -1.
          4    1    3    3  501    0  0.60551420735E+02  0.29857652552E+03  0.25810661775E+03  0.39929117480E+03  0.00000000000E+00 0. -1.
<mgrwt>
<rscale>  0 0.64855963E+03</rscale>
<asrwt>0</asrwt>
<pdfrwt beam="1">0</pdfrwt>
<pdfrwt beam="2">  1        2 0.38239135E+00 0.64855963E+03</pdfrwt>
<totfact> 0.46323947E+00</totfact>
</mgrwt>
</event>
<event>
 5    1  0.2368666E-004  0.6364621E+03  0.7818608E-02  0.9832519E-01
         13   -1    0    0    0    0  0.00000000000E+00  0.00000000000E+00  0.10000000000E+04  0.10000000000E+04  0.00000000000E+00 0. -1.
          2   -1    0    0  501    0 -0.00000000000E+00 -0.00000000000E+00 -0.10127098817E+03  0.10127098817E+03  0.00000000000E+00 0. -1.
    9000006    2    1    2  501    0  0.00000000000E+00  0.00000000000E+00  0.89872901183E+03  0.11012709882E+04  0.63646205912E+03 0.  0.
         13    1    3    3    0    0  0.16176806886E+03 -0.21103276230E+03  0.14684743497E+03  0.30375632343E+03  0.00000000000E+00 0. -1.
          2    1    3    3  501    0 -0.16176806886E+03  0.21103276230E+03  0.75188157685E+03  0.79751466474E+03  0.00000000000E+00 0. -1.
<mgrwt>
<rscale>  0 0.63646206E+03</rscale>
<asrwt>0</asrwt>
<pdfrwt beam="1">0</pdfrwt>
<pdfrwt beam="2">  1        2 0.36825892E+00 0.63646206E+03</pdfrwt>
<totfact> 0.52260490E+00</totfact>
</mgrwt>
</event>
<event>
 5    1  0.2368666E-004  0.6427261E+03  0.7818608E-02  0.9820525E-01
         13   -1    0    0    0    0  0.00000000000E+00  0.00000000000E+00  0.10000000000E+04  0.10000000000E+04  0.00000000000E+00 0. -1.
          2   -1    0    0  501    0 -0.00000000000E+00 -0.00000000000E+00 -0.10327420165E+03  0.10327420165E+03  0.00000000000E+00 0. -1.
    9000006    2    1    2  501    0  0.00000000000E+00  0.00000000000E+00  0.89672579835E+03  0.11032742016E+04  0.64272607430E+03 0.  0.
         13    1    3    3    0    0  0.18686169246E+02 -0.38514597788E+02 -0.98358038164E+02  0.10726999038E+03  0.00000000000E+00 0. -1.
          2    1    3    3  501    0 -0.18686169246E+02  0.38514597788E+02  0.99508383652E+03  0.99600421127E+03  0.00000000000E+00 0. -1.
<mgrwt>
<rscale>  0 0.64272607E+03</rscale>
<asrwt>0</asrwt>
<pdfrwt beam="1">0</pdfrwt>
<pdfrwt beam="2">  1        2 0.37554334E+00 0.64272607E+03</pdfrwt>
<totfact> 0.49118860E+00</totfact>
</mgrwt>
</event>
<event>
 5    1  0.2368666E-004  0.6447464E+03  0.7818608E-02  0.9816687E-01
         13   -1    0    0    0    0  0.00000000000E+00  0.00000000000E+00  0.10000000000E+04  0.10000000000E+04  0.00000000000E+00 0. -1.
          2   -1    0    0  501    0 -0.00000000000E+00 -0.00000000000E+00 -0.10392447295E+03  0.10392447295E+03  0.00000000000E+00 0. -1.
    9000006    2    1    2  501    0  0.00000000000E+00  0.00000000000E+00  0.89607552705E+03  0.11039244730E+04  0.64474637790E+03 0.  0.
         13    1    3    3    0    0  0.11780571672E+02 -0.13795727701E+03  0.94649651132E+03  0.95657024734E+03  0.00000000000E+00 0. -1.
          2    1    3    3  501    0 -0.11780571672E+02  0.13795727701E+03 -0.50420984276E+02  0.14735422561E+03  0.00000000000E+00 0. -1.
<mgrwt>
<rscale>  0 0.64474638E+03</rscale>
<asrwt>0</asrwt>
<pdfrwt beam="1">0</pdfrwt>
<pdfrwt beam="2">  1        2 0.37790797E+00 0.64474638E+03</pdfrwt>
<totfact> 0.48136870E+00</totfact>
</mgrwt>
</event>
<event>
 5    1  0.2368666E-004  0.6659680E+03  0.7818608E-02  0.9777269E-01
         13   -1    0    0    0    0  0.00000000000E+00  0.00000000000E+00  0.10000000000E+04  0.10000000000E+04  0.00000000000E+00 0. -1.
          2   -1    0    0  501    0 -0.00000000000E+00 -0.00000000000E+00 -0.11087832775E+03  0.11087832775E+03  0.00000000000E+00 0. -1.
    9000006    2    1    2  501    0  0.00000000000E+00  0.00000000000E+00  0.88912167225E+03  0.11108783277E+04  0.66596795042E+03 0.  0.
         13    1    3    3    0    0  0.48467746139E+02  0.15217852764E+03  0.93194127809E+03  0.94552735153E+03  0.00000000000E+00 0. -1.
          4    1    3    3  501    0 -0.48467746139E+02 -0.15217852764E+03 -0.42819605836E+02  0.16535097621E+03  0.00000000000E+00 0. -1.
<mgrwt>
<rscale>  0 0.66596795E+03</rscale>
<asrwt>0</asrwt>
<pdfrwt beam="1">0</pdfrwt>
<pdfrwt beam="2">  1        2 0.40319477E+00 0.66596795E+03</pdfrwt>
<totfact> 0.38693897E+00</totfact>
</mgrwt>
</event>
<event>
 5    1  0.2368666E-004  0.6541301E+03  0.7818608E-02  0.9799060E-01
         13   -1    0    0    0    0  0.00000000000E+00  0.00000000000E+00  0.10000000000E+04  0.10000000000E+04  0.00000000000E+00 0. -1.
          2   -1    0    0  501    0 -0.00000000000E+00 -0.00000000000E+00 -0.10697153070E+03  0.10697153070E+03  0.00000000000E+00 0. -1.
    9000006    2    1    2  501    0  0.00000000000E+00  0.00000000000E+00  0.89302846930E+03  0.11069715307E+04  0.65413005037E+03 0.  0.
         13    1    3    3    0    0 -0.25574691065E+03  0.85715565067E+02  0.13347486114E+03  0.30094713648E+03  0.00000000000E+00 0. -1.
          2    1    3    3  501    0  0.25574691065E+03 -0.85715565067E+02  0.75955360816E+03  0.80602439422E+03  0.00000000000E+00 0. -1.
<mgrwt>
<rscale>  0 0.65413005E+03</rscale>
<asrwt>0</asrwt>
<pdfrwt beam="1">0</pdfrwt>
<pdfrwt beam="2">  1        2 0.38898820E+00 0.65413005E+03</pdfrwt>
<totfact> 0.43768970E+00</totfact>
</mgrwt>
</event>
<event>
 5    1  0.2368666E-004  0.6361538E+03  0.7818608E-02  0.9833113E-01
         13   -1    0    0    0    0  0.00000000000E+00  0.00000000000E+00  0.10000000000E+04  0.10000000000E+04  0.00000000000E+00 0. -1.
          2   -1    0    0  501    0 -0.00000000000E+00 -0.00000000000E+00 -0.10117292847E+03  0.10117292847E+03  0.00000000000E+00 0. -1.
    9000006    2    1    2  501    0  0.00000000000E+00  0.00000000000E+00  0.89882707153E+03  0.11011729285E+04  0.63615384452E+03 0.  0.
         13    1    3    3    0    0  0.18897839449E+03  0.46707856347E+02  0.13980516936E+02  0.19516637077E+03  0.00000000000E+00 0. -1.
          2    1    3    3  501    0 -0.18897839449E+03 -0.46707856347E+02  0.88484655459E+03  0.90600655770E+03  0.00000000000E+00 0. -1.
<mgrwt>
<rscale>  0 0.63615384E+03</rscale>
<asrwt>0</asrwt>
<pdfrwt beam="1">0</pdfrwt>
<pdfrwt beam="2">  1        2 0.36790233E+00 0.63615384E+03</pdfrwt>
<totfact> 0.52418902E+00</totfact>
</mgrwt>
</event>
<event>
 5    1  0.2368666E-004  0.6434965E+03  0.7818608E-02  0.9819060E-01
         13   -1    0    0    0    0  0.00000000000E+00  0.00000000000E+00  0.10000000000E+04  0.10000000000E+04  0.00000000000E+00 0. -1.
          2   -1    0    0  501    0 -0.00000000000E+00 -0.00000000000E+00 -0.10352195237E+03  0.10352195237E+03  0.00000000000E+00 0. -1.
    9000006    2    1    2  501    0  0.00000000000E+00  0.00000000000E+00  0.89647804763E+03  0.11035219524E+04  0.64349654969E+03 0.  0.
         13    1    3    3    0    0 -0.11654639170E+03  0.23597394626E+03  0.13084559597E+03  0.29391722426E+03  0.00000000000E+00 0. -1.
          2    1    3    3  501    0  0.11654639170E+03 -0.23597394626E+03  0.76563245167E+03  0.80960472811E+03  0.00000000000E+00 0. -1.
<mgrwt>
<rscale>  0 0.64349655E+03</rscale>
<asrwt>0</asrwt>
<pdfrwt beam="1">0</pdfrwt>
<pdfrwt beam="2">  1        2 0.37644426E+00 0.64349655E+03</pdfrwt>
<totfact> 0.48742591E+00</totfact>
</mgrwt>
</event>
<event>
 5    1  0.2368666E-004  0.6496776E+03  0.7818608E-02  0.9807384E-01
         13   -1    0    0    0    0  0.00000000000E+00  0.00000000000E+00  0.10000000000E+04  0.10000000000E+04  0.00000000000E+00 0. -1.
          2   -1    0    0  501    0 -0.00000000000E+00 -0.00000000000E+00 -0.10552026118E+03  0.10552026118E+03  0.00000000000E+00 0. -1.
    9000006    2    1    2  501    0  0.00000000000E+00  0.00000000000E+00  0.89447973882E+03  0.11055202612E+04  0.64967764679E+03 0.  0.
         13    1    3    3    0    0 -0.20745725745E+03 -0.10882181976E+03  0.64314852931E+02  0.24293435828E+03  0.00000000000E+00 0. -1.
          2    1    3    3  501    0  0.20745725745E+03  0.10882181976E+03  0.83016488589E+03  0.86258590290E+03  0.00000000000E+00 0. -1.
<mgrwt>
<rscale>  0 0.64967765E+03</rscale>
<asrwt>0</asrwt>
<pdfrwt beam="1">0</pdfrwt>
<pdfrwt beam="2">  1        2 0.38371085E+00 0.64967765E+03</pdfrwt>
<totfact> 0.45802338E+00</totfact>
</mgrwt>
</event>
<event>
 5    1  0.2368666E-004  0.6652868E+03  0.7818608E-02  0.9778510E-01
         13   -1    0    0    0    0  0.00000000000E+00  0.00000000000E+00  0.10000000000E+04  0.10000000000E+04  0.00000000000E+00 0. -1.
          2   -1    0    0  501    0 -0.00000000000E+00 -0.00000000000E+00 -0.11065164509E+03  0.11065164509E+03  0.00000000000E+00 0. -1.
    9000006    2    1    2  501    0  0.00000000000E+00  0.00000000000E+00  0.88934835491E+03  0.11106516451E+04  0.66528684067E+03 0.  0.
         13    1    3    3    0    0  0.89631993224E+02  0.53996412924E+02  0.97180834531E+03  0.97742568353E+03  0.00000000000E+00 0. -1.
          2    1    3    3  501    0 -0.89631993224E+02 -0.53996412924E+02 -0.82459990397E+02  0.13322596156E+03  0.00000000000E+00 0. -1.
<mgrwt>
<rscale>  0 0.66528684E+03</rscale>
<asrwt>0</asrwt>
<pdfrwt beam="1">0</pdfrwt>
<pdfrwt beam="2">  1        2 0.40237047E+00 0.66528684E+03</pdfrwt>
<totfact> 0.38973216E+00</totfact>
</mgrwt>
</event>
<event>
 5    1  0.2368666E-004  0.6599154E+03  0.7818608E-02  0.9788349E-01
         13   -1    0    0    0    0  0.00000000000E+00  0.00000000000E+00  0.10000000000E+04  0.10000000000E+04  0.00000000000E+00 0. -1.
          2   -1    0    0  501    0 -0.00000000000E+00 -0.00000000000E+00 -0.10887209366E+03  0.10887209366E+03  0.00000000000E+00 0. -1.
    9000006    2    1    2  501    0  0.00000000000E+00  0.00000000000E+00  0.89112790634E+03  0.11088720937E+04  0.65991542992E+03 0.  0.
         13    1    3    3    0    0 -0.13252838335E+02  0.30162025989E+02  0.99722939000E+03  0.99777344213E+03  0.00000000000E+00 0. -1.
          4    1    3    3  501    0  0.13252838335E+02 -0.30162025989E+02 -0.10610148367E+03  0.11109865153E+03  0.00000000000E+00 0. -1.
<mgrwt>
<rscale>  0 0.65991543E+03</rscale>
<asrwt>0</asrwt>
<pdfrwt beam="1">0</pdfrwt>
<pdfrwt beam="2">  1        2 0.39589936E+00 0.65991543E+03</pdfrwt>
<totfact> 0.41229644E+00</totfact>
</mgrwt>
</event>
<event>
 5    1  0.2368666E-004  0.6456181E+03  0.7818608E-02  0.9815036E-01
         13   -1    0    0    0    0  0.00000000000E+00  0.00000000000E+00  0.10000000000E+04  0.10000000000E+04  0.00000000000E+00 0. -1.
          2   -1    0    0  501    0 -0.00000000000E+00 -0.00000000000E+00 -0.10420567992E+03  0.10420567992E+03  0.00000000000E+00 0. -1.
    9000006    2    1    2  501    0  0.00000000000E+00  0.00000000000E+00  0.89579432008E+03  0.11042056799E+04  0.64561809119E+03 0.  0.
         13    1    3    3    0    0  0.18257771759E+03  0.14711297908E+03  0.82737291625E+03  0.85995511169E+03  0.00000000000E+00 0. -1.
          4    1    3    3  501    0 -0.18257771759E+03 -0.14711297908E+03  0.68421403826E+02  0.24425056823E+03  0.00000000000E+00 0. -1.
<mgrwt>
<rscale>  0 0.64561809E+03</rscale>
<asrwt>0</asrwt>
<pdfrwt beam="1">0</pdfrwt>
<pdfrwt beam="2">  1        2 0.37893054E+00 0.64561809E+03</pdfrwt>
<totfact> 0.47717785E+00</totfact>
</mgrwt>
</event>
<event>
 5    1  0.2368666E-004  0.6441116E+03  0.7818608E-02  0.9817892E-01
         13   -1    0    0    0    0  0.00000000000E+00  0.00000000000E+00  0.10000000000E+04  0.10000000000E+04  0.00000000000E+00 0. -1.
          2   -1    0    0  501    0 -0.00000000000E+00 -0.00000000000E+00 -0.10371992723E+03  0.10371992723E+03  0.00000000000E+00 0. -1.
    9000006    2    1    2  501    0  0.00000000000E+00  0.00000000000E+00  0.89628007277E+03  0.11037199272E+04  0.64411156558E+03 0.  0.
         13    1    3    3    0    0  0.19360716475E+03 -0.17347066568E+03  0.77391418677E+03  0.81640613335E+03  0.00000000000E+00 0. -1.
          2    1    3    3  501    0 -0.19360716475E+03  0.17347066568E+03  0.12236588600E+03  0.28731379388E+03  0.00000000000E+00 0. -1.
<mgrwt>
<rscale>  0 0.64411157E+03</rscale>
<asrwt>0</asrwt>
<pdfrwt beam="1">0</pdfrwt>
<pdfrwt beam="2">  1        2 0.37716417E+00 0.64411157E+03</pdfrwt>
<totfact> 0.48443811E+00</totfact>
</mgrwt>
</event>
<event>
 5    1  0.2368666E-004  0.6503080E+03  0.7818608E-02  0.9806201E-01
         13   -1    0    0    0    0  0.00000000000E+00  0.00000000000E+00  0.10000000000E+04  0.10000000000E+04  0.00000000000E+00 0. -1.
          2   -1    0    0  501    0 -0.00000000000E+00 -0.00000000000E+00 -0.10572511037E+03  0.10572511037E+03  0.00000000000E+00 0. -1.
    9000006    2    1    2  501    0  0.00000000000E+00  0.00000000000E+00  0.89427488963E+03  0.11057251104E+04  0.65030795895E+03 0.  0.
         13    1    3    3    0    0  0.17636099396E+03 -0.19233124439E+03  0.77697392672E+03  0.81962368839E+03  0.00000000000E+00 0. -1.
          4    1    3    3  501    0 -0.17636099396E+03  0.19233124439E+03  0.11730096291E+03  0.28610142198E+03  0.00000000000E+00 0. -1.
<mgrwt>
<rscale>  0 0.65030796E+03</rscale>
<asrwt>0</asrwt>
<pdfrwt beam="1">0</pdfrwt>
<pdfrwt beam="2">  1        2 0.38445576E+00 0.65030796E+03</pdfrwt>
<totfact> 0.45510230E+00</totfact>
</mgrwt>
</event>
<event>
 5    1  0.2368666E-004  0.6495593E+03  0.7818608E-02  0.9807607E-01
         13   -1    0    0    0    0  0.00000000000E+00  0.00000000000E+00  0.10000000000E+04  0.10000000000E+04  0.00000000000E+00 0. -1.
          2   -1    0    0  501    0 -0.00000000000E+00 -0.00000000000E+00 -0.10548181350E+03  0.10548181350E+03  0.00000000000E+00 0. -1.
    9000006    2    1    2  501    0  0.00000000000E+00  0.00000000000E+00  0.89451818650E+03  0.11054818135E+04  0.64955927673E+03 0.  0.
         13    1    3    3    0    0 -0.11503914063E+03 -0.10406953732E+03  0.93287317311E+03  0.94568326071E+03  0.00000000000E+00 0. -1.
          4    1    3    3  501    0  0.11503914063E+03  0.10406953732E+03 -0.38354986607E+02  0.15979855279E+03  0.00000000000E+00 0. -1.
<mgrwt>
<rscale>  0 0.64955928E+03</rscale>
<asrwt>0</asrwt>
<pdfrwt beam="1">0</pdfrwt>
<pdfrwt beam="2">  1        2 0.38357104E+00 0.64955928E+03</pdfrwt>
<totfact> 0.45857353E+00</totfact>
</mgrwt>
</event>
<event>
 5    1  0.2368666E-004  0.6483723E+03  0.7818608E-02  0.9809838E-01
         13   -1    0    0    0    0  0.00000000000E+00  0.00000000000E+00  0.10000000000E+04  0.10000000000E+04  0.00000000000E+00 0. -1.
          2   -1    0    0  501    0 -0.00000000000E+00 -0.00000000000E+00 -0.10509666056E+03  0.10509666056E+03  0.00000000000E+00 0. -1.
    9000006    2    1    2  501    0  0.00000000000E+00  0.00000000000E+00  0.89490333944E+03  0.11050966606E+04  0.64837230219E+03 0.  0.
         13    1    3    3    0    0  0.59457608648E+02  0.53317454968E+02 -0.88068128687E+02  0.11888630502E+03  0.00000000000E+00 0. -1.
          2    1    3    3  501    0 -0.59457608648E+02 -0.53317454968E+02  0.98297146813E+03  0.98621035554E+03  0.00000000000E+00 0. -1.
<mgrwt>
<rscale>  0 0.64837230E+03</rscale>
<asrwt>0</asrwt>
<pdfrwt beam="1">0</pdfrwt>
<pdfrwt beam="2">  1        2 0.38217048E+00 0.64837230E+03</pdfrwt>
<totfact> 0.46411784E+00</totfact>
</mgrwt>
</event>
<event>
 5    1  0.2368666E-004  0.6217539E+03  0.7818608E-02  0.9861274E-01
         13   -1    0    0    0    0  0.00000000000E+00  0.00000000000E+00  0.10000000000E+04  0.10000000000E+04  0.00000000000E+00 0. -1.
          2   -1    0    0  501    0 -0.00000000000E+00 -0.00000000000E+00 -0.96644477695E+02  0.96644477695E+02  0.00000000000E+00 0. -1.
    9000006    2    1    2  501    0  0.00000000000E+00  0.00000000000E+00  0.90335552231E+03  0.10966444777E+04  0.62175389888E+03 0.  0.
         13    1    3    3    0    0 -0.82913212589E+02  0.29744351545E+03  0.51520444186E+03  0.60065203123E+03  0.00000000000E+00 0. -1.
          2    1    3    3  501    0  0.82913212589E+02 -0.29744351545E+03  0.38815108044E+03  0.49599244647E+03  0.00000000000E+00 0. -1.
<mgrwt>
<rscale>  0 0.62175390E+03</rscale>
<asrwt>0</asrwt>
<pdfrwt beam="1">0</pdfrwt>
<pdfrwt beam="2">  1        2 0.35143521E+00 0.62175390E+03</pdfrwt>
<totfact> 0.60235904E+00</totfact>
</mgrwt>
</event>
<event>
 5    1  0.2368666E-004  0.6496705E+03  0.7818608E-02  0.9807398E-01
         13   -1    0    0    0    0  0.00000000000E+00  0.00000000000E+00  0.10000000000E+04  0.10000000000E+04  0.00000000000E+00 0. -1.
          2   -1    0    0  501    0 -0.00000000000E+00 -0.00000000000E+00 -0.10551794117E+03  0.10551794117E+03  0.00000000000E+00 0. -1.
    9000006    2    1    2  501    0  0.00000000000E+00  0.00000000000E+00  0.89448205883E+03  0.11055179412E+04  0.64967050471E+03 0.  0.
         13    1    3    3    0    0  0.15261721421E+03 -0.21788431542E+03  0.76446408745E+03  0.80942629682E+03  0.00000000000E+00 0. -1.
          2    1    3    3  501    0 -0.15261721421E+03  0.21788431542E+03  0.13001797137E+03  0.29609164435E+03  0.00000000000E+00 0. -1.
<mgrwt>
<rscale>  0 0.64967050E+03</rscale>
<asrwt>0</asrwt>
<pdfrwt beam="1">0</pdfrwt>
<pdfrwt beam="2">  1        2 0.38370241E+00 0.64967050E+03</pdfrwt>
<totfact> 0.45805656E+00</totfact>
</mgrwt>
</event>
<event>
 5    1  0.2368666E-004  0.6547834E+03  0.7818608E-02  0.9797845E-01
         13   -1    0    0    0    0  0.00000000000E+00  0.00000000000E+00  0.10000000000E+04  0.10000000000E+04  0.00000000000E+00 0. -1.
          2   -1    0    0  501    0 -0.00000000000E+00 -0.00000000000E+00 -0.10718531112E+03  0.10718531112E+03  0.00000000000E+00 0. -1.
    9000006    2    1    2  501    0  0.00000000000E+00  0.00000000000E+00  0.89281468888E+03  0.11071853111E+04  0.65478335689E+03 0.  0.
         13    1    3    3    0    0 -0.13540277592E+03  0.63679586218E+02 -0.45984849694E+02  0.15653628279E+03  0.00000000000E+00 0. -1.
          2    1    3    3  501    0  0.13540277592E+03 -0.63679586218E+02  0.93879953858E+03  0.95064902833E+03  0.00000000000E+00 0. -1.
<mgrwt>
<rscale>  0 0.65478336E+03</rscale>
<asrwt>0</asrwt>
<pdfrwt beam="1">0</pdfrwt>
<pdfrwt beam="2">  1        2 0.38976559E+00 0.65478336E+03</pdfrwt>
<totfact> 0.43476450E+00</totfact>
</mgrwt>
</event>
<event>
 5    1  0.2368666E-004  0.6449516E+03  0.7818608E-02  0.9816298E-01
         13   -1    0    0    0    0  0.00000000000E+00  0.00000000000E+00  0.10000000000E+04  0.10000000000E+04  0.00000000000E+00 0. -1.
          2   -1    0    0  501    0 -0.00000000000E+00 -0.00000000000E+00 -0.10399065244E+03  0.10399065244E+03  0.00000000000E+00 0. -1.
    9000006    2    1    2  501    0  0.00000000000E+00  0.00000000000E+00  0.89600934756E+03  0.11039906524E+04  0.64495163365E+03 0.  0.
         13    1    3    3    0    0 -0.14750688586E+03  0.28160984750E+03  0.54063291675E+03  0.62717329205E+03  0.00000000000E+00 0. -1.
          4    1    3    3  501    0  0.14750688586E+03 -0.28160984750E+03  0.35537643081E+03  0.47681736038E+03  0.00000000000E+00 0. -1.
<mgrwt>
<rscale>  0 0.64495163E+03</rscale>
<asrwt>0</asrwt>
<pdfrwt beam="1">0</pdfrwt>
<pdfrwt beam="2">  1        2 0.37814862E+00 0.64495163E+03</pdfrwt>
<totfact> 0.48037942E+00</totfact>
</mgrwt>
</event>
<event>
 5    1  0.2368666E-004  0.6521927E+03  0.7818608E-02  0.9802673E-01
         13   -1    0    0    0    0  0.00000000000E+00  0.00000000000E+00  0.10000000000E+04  0.10000000000E+04  0.00000000000E+00 0. -1.
          2   -1    0    0  501    0 -0.00000000000E+00 -0.00000000000E+00 -0.10633883571E+03  0.10633883571E+03  0.00000000000E+00 0. -1.
    9000006    2    1    2  501    0  0.00000000000E+00  0.00000000000E+00  0.89366116429E+03  0.11063388357E+04  0.65219271909E+03 0.  0.
         13    1    3    3    0    0 -0.22679411076E+03  0.23190113355E+03  0.38993037955E+03  0.50720745787E+03  0.00000000000E+00 0. -1.
          4    1    3    3  501    0  0.22679411076E+03 -0.23190113355E+03  0.50373078474E+03  0.59913137784E+03  0.00000000000E+00 0. -1.
<mgrwt>
<rscale>  0 0.65219272E+03</rscale>
<asrwt>0</asrwt>
<pdfrwt beam="1">0</pdfrwt>
<pdfrwt beam="2">  1        2 0.38668749E+00 0.65219272E+03</pdfrwt>
<totfact> 0.44645162E+00</totfact>
</mgrwt>
</event>
<event>
 5    1  0.2368666E-004  0.6491159E+03  0.7818608E-02  0.9808440E-01
         13   -1    0    0    0    0  0.00000000000E+00  0.00000000000E+00  0.10000000000E+04  0.10000000000E+04  0.00000000000E+00 0. -1.
          2   -1    0    0  501    0 -0.00000000000E+00 -0.00000000000E+00 -0.10533785937E+03  0.10533785937E+03  0.00000000000E+00 0. -1.
    9000006    2    1    2  501    0  0.00000000000E+00  0.00000000000E+00  0.89466214063E+03  0.11053378594E+04  0.64911588911E+03 0.  0.
         13    1    3    3    0    0  0.18515396882E+03 -0.49813533117E+02  0.14140347096E+01  0.19174300443E+03  0.00000000000E+00 0. -1.
          4    1    3    3  501    0 -0.18515396882E+03  0.49813533117E+02  0.89324810592E+03  0.91359485494E+03  0.00000000000E+00 0. -1.
<mgrwt>
<rscale>  0 0.64911589E+03</rscale>
<asrwt>0</asrwt>
<pdfrwt beam="1">0</pdfrwt>
<pdfrwt beam="2">  1        2 0.38304757E+00 0.64911589E+03</pdfrwt>
<totfact> 0.46063868E+00</totfact>
</mgrwt>
</event>
<event>
 5    1  0.2368666E-004  0.6457312E+03  0.7818608E-02  0.9814822E-01
         13   -1    0    0    0    0  0.00000000000E+00  0.00000000000E+00  0.10000000000E+04  0.10000000000E+04  0.00000000000E+00 0. -1.
          2   -1    0    0  501    0 -0.00000000000E+00 -0.00000000000E+00 -0.10424220412E+03  0.10424220412E+03  0.00000000000E+00 0. -1.
    9000006    2    1    2  501    0  0.00000000000E+00  0.00000000000E+00  0.89575779588E+03  0.11042422041E+04  0.64573122620E+03 0.  0.
         13    1    3    3    0    0  0.24657678324E+03 -0.11817157772E+03  0.74148049259E+03  0.79028979034E+03  0.00000000000E+00 0. -1.
          4    1    3    3  501    0 -0.24657678324E+03  0.11817157772E+03  0.15427730328E+03  0.31395241379E+03  0.00000000000E+00 0. -1.
<mgrwt>
<rscale>  0 0.64573123E+03</rscale>
<asrwt>0</asrwt>
<pdfrwt beam="1">0</pdfrwt>
<pdfrwt beam="2">  1        2 0.37906336E+00 0.64573123E+03</pdfrwt>
<totfact> 0.47663597E+00</totfact>
</mgrwt>
</event>
<event>
 5    1  0.2368666E-004  0.6540994E+03  0.7818608E-02  0.9799117E-01
         13   -1    0    0    0    0  0.00000000000E+00  0.00000000000E+00  0.10000000000E+04  0.10000000000E+04  0.00000000000E+00 0. -1.
          2   -1    0    0  501    0 -0.00000000000E+00 -0.00000000000E+00 -0.10696151565E+03  0.10696151565E+03  0.00000000000E+00 0. -1.
    9000006    2    1    2  501    0  0.00000000000E+00  0.00000000000E+00  0.89303848435E+03  0.11069615157E+04  0.65409942870E+03 0.  0.
         13    1    3    3    0    0 -0.10843817265E+03  0.25383330028E+03  0.14965224806E+03  0.31398403935E+03  0.00000000000E+00 0. -1.
          4    1    3    3  501    0  0.10843817265E+03 -0.25383330028E+03  0.74338623629E+03  0.79297747630E+03  0.00000000000E+00 0. -1.
<mgrwt>
<rscale>  0 0.65409943E+03</rscale>
<asrwt>0</asrwt>
<pdfrwt beam="1">0</pdfrwt>
<pdfrwt beam="2">  1        2 0.38895179E+00 0.65409943E+03</pdfrwt>
<totfact> 0.43782718E+00</totfact>
</mgrwt>
</event>
<event>
 5    1  0.2368666E-004  0.6346737E+03  0.7818608E-02  0.9835971E-01
         13   -1    0    0    0    0  0.00000000000E+00  0.00000000000E+00  0.10000000000E+04  0.10000000000E+04  0.00000000000E+00 0. -1.
          2   -1    0    0  501    0 -0.00000000000E+00 -0.00000000000E+00 -0.10070267640E+03  0.10070267640E+03  0.00000000000E+00 0. -1.
    9000006    2    1    2  501    0  0.00000000000E+00  0.00000000000E+00  0.89929732360E+03  0.11007026764E+04  0.63467370009E+03 0.  0.
         13    1    3    3    0    0  0.13613415560E+03  0.49197754325E+02  0.93940964358E+03  0.95049639968E+03  0.00000000000E+00 0. -1.
          4    1    3    3  501    0 -0.13613415560E+03 -0.49197754325E+02 -0.40112319977E+02  0.15020627672E+03  0.00000000000E+00 0. -1.
<mgrwt>
<rscale>  0 0.63467370E+03</rscale>
<asrwt>0</asrwt>
<pdfrwt beam="1">0</pdfrwt>
<pdfrwt beam="2">  1        2 0.36619232E+00 0.63467370E+03</pdfrwt>
<totfact> 0.53184721E+00</totfact>
</mgrwt>
</event>
<event>
 5    1  0.2368666E-004  0.6482237E+03  0.7818608E-02  0.9810118E-01
         13   -1    0    0    0    0  0.00000000000E+00  0.00000000000E+00  0.10000000000E+04  0.10000000000E+04  0.00000000000E+00 0. -1.
          2   -1    0    0  501    0 -0.00000000000E+00 -0.00000000000E+00 -0.10504849043E+03  0.10504849043E+03  0.00000000000E+00 0. -1.
    9000006    2    1    2  501    0  0.00000000000E+00  0.00000000000E+00  0.89495150957E+03  0.11050484904E+04  0.64822369729E+03 0.  0.
         13    1    3    3    0    0 -0.10280753519E+03 -0.20715036512E+03  0.60355540787E+02  0.23900513460E+03  0.00000000000E+00 0. -1.
          4    1    3    3  501    0  0.10280753519E+03  0.20715036512E+03  0.83459596878E+03  0.86604335583E+03  0.00000000000E+00 0. -1.
<mgrwt>
<rscale>  0 0.64822370E+03</rscale>
<asrwt>0</asrwt>
<pdfrwt beam="1">0</pdfrwt>
<pdfrwt beam="2">  1        2 0.38199532E+00 0.64822370E+03</pdfrwt>
<totfact> 0.46481552E+00</totfact>
</mgrwt>
</event>
<event>
 5    1  0.2368666E-004  0.6556115E+03  0.7818608E-02  0.9796306E-01
         13   -1    0    0    0    0  0.00000000000E+00  0.00000000000E+00  0.10000000000E+04  0.10000000000E+04  0.00000000000E+00 0. -1.
          2   -1    0    0  501    0 -0.00000000000E+00 -0.00000000000E+00 -0.10745662145E+03  0.10745662145E+03  0.00000000000E+00 0. -1.
    9000006    2    1    2  501    0  0.00000000000E+00  0.00000000000E+00  0.89254337855E+03  0.11074566214E+04  0.65561153573E+03 0.  0.
         13    1    3    3    0    0 -0.13110191979E+03  0.13591872733E+03  0.89888493621E+03  0.91850734475E+03  0.00000000000E+00 0. -1.
          2    1    3    3  501    0  0.13110191979E+03 -0.13591872733E+03 -0.63415576532E+01  0.18894927670E+03  0.00000000000E+00 0. -1.
<mgrwt>
<rscale>  0 0.65561154E+03</rscale>
<asrwt>0</asrwt>
<pdfrwt beam="1">0</pdfrwt>
<pdfrwt beam="2">  1        2 0.39075217E+00 0.65561154E+03</pdfrwt>
<totfact> 0.43107756E+00</totfact>
</mgrwt>
</event>
<event>
 5    1  0.2368666E-004  0.6056419E+03  0.7818608E-02  0.9893769E-01
         13   -1    0    0    0    0  0.00000000000E+00  0.00000000000E+00  0.10000000000E+04  0.10000000000E+04  0.00000000000E+00 0. -1.
          2   -1    0    0  501    0 -0.00000000000E+00 -0.00000000000E+00 -0.91700539137E+02  0.91700539137E+02  0.00000000000E+00 0. -1.
    9000006    2    1    2  501    0  0.00000000000E+00  0.00000000000E+00  0.90829946086E+03  0.10917005391E+04  0.60564193757E+03 0.  0.
         13    1    3    3    0    0  0.21774777203E+03 -0.21032963962E+03  0.44167565884E+03  0.53547178930E+03  0.00000000000E+00 0. -1.
          4    1    3    3  501    0 -0.21774777203E+03  0.21032963962E+03  0.46662380203E+03  0.55622874984E+03  0.00000000000E+00 0. -1.
<mgrwt>
<rscale>  0 0.60564194E+03</rscale>
<asrwt>0</asrwt>
<pdfrwt beam="1">0</pdfrwt>
<pdfrwt beam="2">  1        2 0.33345721E+00 0.60564194E+03</pdfrwt>
<totfact> 0.70002038E+00</totfact>
</mgrwt>
</event>
<event>
 5    1  0.2368666E-004  0.6500103E+03  0.7818608E-02  0.9806760E-01
         13   -1    0    0    0    0  0.00000000000E+00  0.00000000000E+00  0.10000000000E+04  0.10000000000E+04  0.00000000000E+00 0. -1.
          2   -1    0    0  501    0 -0.00000000000E+00 -0.00000000000E+00 -0.10562835291E+03  0.10562835291E+03  0.00000000000E+00 0. -1.
    9000006    2    1    2  501    0  0.00000000000E+00  0.00000000000E+00  0.89437164709E+03  0.11056283529E+04  0.65001031658E+03 0.  0.
         13    1    3    3    0    0  0.18079248114E+03  0.20600266506E+03  0.74426814407E+03  0.79313182354E+03  0.00000000000E+00 0. -1.
          4    1    3    3  501    0 -0.18079248114E+03 -0.20600266506E+03  0.15010350302E+03  0.31249652937E+03  0.00000000000E+00 0. -1.
<mgrwt>
<rscale>  0 0.65001032E+03</rscale>
<asrwt>0</asrwt>
<pdfrwt beam="1">0</pdfrwt>
<pdfrwt beam="2">  1        2 0.38410391E+00 0.65001032E+03</pdfrwt>
<totfact> 0.45647992E+00</totfact>
</mgrwt>
</event>
<event>
 5    1  0.2368666E-004  0.6621959E+03  0.7818608E-02  0.9784160E-01
         13   -1    0    0    0    0  0.00000000000E+00  0.00000000000E+00  0.10000000000E+04  0.10000000000E+04  0.00000000000E+00 0. -1.
          2   -1    0    0  501    0 -0.00000000000E+00 -0.00000000000E+00 -0.10962585626E+03  0.10962585626E+03  0.00000000000E+00 0. -1.
    9000006    2    1    2  501    0  0.00000000000E+00  0.00000000000E+00  0.89037414374E+03  0.11096258563E+04  0.66219591136E+03 0.  0.
         13    1    3    3    0    0  0.11265080653E+03 -0.30560090637E+03  0.34543523991E+03  0.47477112713E+03  0.00000000000E+00 0. -1.
          4    1    3    3  501    0 -0.11265080653E+03  0.30560090637E+03  0.54493890384E+03  0.63485472913E+03  0.00000000000E+00 0. -1.
<mgrwt>
<rscale>  0 0.66219591E+03</rscale>
<asrwt>0</asrwt>
<pdfrwt beam="1">0</pdfrwt>
<pdfrwt beam="2">  1        2 0.39864032E+00 0.66219591E+03</pdfrwt>
<totfact> 0.40259946E+00</totfact>
</mgrwt>
</event>
<event>
 5    1  0.2368666E-004  0.5745796E+03  0.7818608E-02  0.9959595E-01
         13   -1    0    0    0    0  0.00000000000E+00  0.00000000000E+00  0.10000000000E+04  0.10000000000E+04  0.00000000000E+00 0. -1.
          2   -1    0    0  501    0 -0.00000000000E+00 -0.00000000000E+00 -0.82535437667E+02  0.82535437667E+02  0.00000000000E+00 0. -1.
    9000006    2    1    2  501    0  0.00000000000E+00  0.00000000000E+00  0.91746456233E+03  0.10825354377E+04  0.57457962953E+03 0.  0.
         13    1    3    3    0    0 -0.14404868806E+03  0.20039745858E+03  0.73579795592E+03  0.77608491666E+03  0.00000000000E+00 0. -1.
          4    1    3    3  501    0  0.14404868806E+03 -0.20039745858E+03  0.18166660641E+03  0.30645052100E+03  0.00000000000E+00 0. -1.
<mgrwt>
<rscale>  0 0.57457963E+03</rscale>
<asrwt>0</asrwt>
<pdfrwt beam="1">0</pdfrwt>
<pdfrwt beam="2">  1        2 0.30012950E+00 0.57457963E+03</pdfrwt>
<totfact> 0.92229229E+00</totfact>
</mgrwt>
</event>
<event>
 5    1  0.2368666E-004  0.6646239E+03  0.7818608E-02  0.9779719E-01
         13   -1    0    0    0    0  0.00000000000E+00  0.00000000000E+00  0.10000000000E+04  0.10000000000E+04  0.00000000000E+00 0. -1.
          2   -1    0    0  501    0 -0.00000000000E+00 -0.00000000000E+00 -0.11043124624E+03  0.11043124624E+03  0.00000000000E+00 0. -1.
    9000006    2    1    2  501    0  0.00000000000E+00  0.00000000000E+00  0.88956875376E+03  0.11104312462E+04  0.66462394250E+03 0.  0.
         13    1    3    3    0    0 -0.58161047907E+02  0.22856523311E+03  0.83592382495E+03  0.86855823892E+03  0.00000000000E+00 0. -1.
          2    1    3    3  501    0  0.58161047907E+02 -0.22856523311E+03  0.53644928813E+02  0.24187300731E+03  0.00000000000E+00 0. -1.
<mgrwt>
<rscale>  0 0.66462394E+03</rscale>
<asrwt>0</asrwt>
<pdfrwt beam="1">0</pdfrwt>
<pdfrwt beam="2">  1        2 0.40156901E+00 0.66462394E+03</pdfrwt>
<totfact> 0.39246524E+00</totfact>
</mgrwt>
</event>
<event>
 5    1  0.2368666E-004  0.6437486E+03  0.7818608E-02  0.9818581E-01
         13   -1    0    0    0    0  0.00000000000E+00  0.00000000000E+00  0.10000000000E+04  0.10000000000E+04  0.00000000000E+00 0. -1.
          4   -1    0    0  501    0 -0.00000000000E+00 -0.00000000000E+00 -0.10360306331E+03  0.10360306331E+03  0.00000000000E+00 0. -1.
    9000006    2    1    2  501    0  0.00000000000E+00  0.00000000000E+00  0.89639693669E+03  0.11036030633E+04  0.64374859475E+03 0.  0.
         13    1    3    3    0    0 -0.19848000066E+03 -0.25225921758E+03  0.40712441114E+03  0.51843930181E+03  0.00000000000E+00 0. -1.
          2    1    3    3  501    0  0.19848000066E+03  0.25225921758E+03  0.48927252555E+03  0.58516376150E+03  0.00000000000E+00 0. -1.
<mgrwt>
<rscale>  0 0.64374859E+03</rscale>
<asrwt>0</asrwt>
<pdfrwt beam="1">0</pdfrwt>
<pdfrwt beam="2">  1        4 0.37673921E+00 0.64374859E+03</pdfrwt>
<totfact> 0.46139843E-02</totfact>
</mgrwt>
</event>
<event>
 5    1  0.2368666E-004  0.6233831E+03  0.7818608E-02  0.9858047E-01
         13   -1    0    0    0    0  0.00000000000E+00  0.00000000000E+00  0.10000000000E+04  0.10000000000E+04  0.00000000000E+00 0. -1.
          2   -1    0    0  501    0 -0.00000000000E+00 -0.00000000000E+00 -0.97151610171E+02  0.97151610171E+02  0.00000000000E+00 0. -1.
    9000006    2    1    2  501    0  0.00000000000E+00  0.00000000000E+00  0.90284838983E+03  0.10971516102E+04  0.62338306095E+03 0.  0.
         13    1    3    3    0    0 -0.16112156482E+03  0.55575855557E+02 -0.78732765465E+01  0.17061894049E+03  0.00000000000E+00 0. -1.
          2    1    3    3  501    0  0.16112156482E+03 -0.55575855557E+02  0.91072166638E+03  0.92653266968E+03  0.00000000000E+00 0. -1.
<mgrwt>
<rscale>  0 0.62338306E+03</rscale>
<asrwt>0</asrwt>
<pdfrwt beam="1">0</pdfrwt>
<pdfrwt beam="2">  1        2 0.35327933E+00 0.62338306E+03</pdfrwt>
<totfact> 0.59309672E+00</totfact>
</mgrwt>
</event>
<event>
 5    1  0.2368666E-004  0.6533446E+03  0.7818608E-02  0.9800524E-01
         13   -1    0    0    0    0  0.00000000000E+00  0.00000000000E+00  0.10000000000E+04  0.10000000000E+04  0.00000000000E+00 0. -1.
          2   -1    0    0  501    0 -0.00000000000E+00 -0.00000000000E+00 -0.10671477975E+03  0.10671477975E+03  0.00000000000E+00 0. -1.
    9000006    2    1    2  501    0  0.00000000000E+00  0.00000000000E+00  0.89328522025E+03  0.11067147798E+04  0.65334456377E+03 0.  0.
         13    1    3    3    0    0 -0.10471351730E+03 -0.24040241513E+03  0.77665992313E+03  0.81973097910E+03  0.00000000000E+00 0. -1.
          4    1    3    3  501    0  0.10471351730E+03  0.24040241513E+03  0.11662529712E+03  0.28698380065E+03  0.00000000000E+00 0. -1.
<mgrwt>
<rscale>  0 0.65334456E+03</rscale>
<asrwt>0</asrwt>
<pdfrwt beam="1">0</pdfrwt>
<pdfrwt beam="2">  1        2 0.38805456E+00 0.65334456E+03</pdfrwt>
<totfact> 0.44122640E+00</totfact>
</mgrwt>
</event>
<event>
 5    1  0.2368666E-004  0.6155409E+03  0.7818608E-02  0.9873678E-01
         13   -1    0    0    0    0  0.00000000000E+00  0.00000000000E+00  0.10000000000E+04  0.10000000000E+04  0.00000000000E+00 0. -1.
          2   -1    0    0  501    0 -0.00000000000E+00 -0.00000000000E+00 -0.94722655981E+02  0.94722655981E+02  0.00000000000E+00 0. -1.
    9000006    2    1    2  501    0  0.00000000000E+00  0.00000000000E+00  0.90527734402E+03  0.10947226560E+04  0.61554091978E+03 0.  0.
         13    1    3    3    0    0  0.11020687274E+03  0.27886446663E+03  0.57600507975E+03  0.64937877810E+03  0.00000000000E+00 0. -1.
          4    1    3    3  501    0 -0.11020687274E+03 -0.27886446663E+03  0.32927226427E+03  0.44534387788E+03  0.00000000000E+00 0. -1.
<mgrwt>
<rscale>  0 0.61554092E+03</rscale>
<asrwt>0</asrwt>
<pdfrwt beam="1">0</pdfrwt>
<pdfrwt beam="2">  1        2 0.34444675E+00 0.61554092E+03</pdfrwt>
<totfact> 0.63869628E+00</totfact>
</mgrwt>
</event>
<event>
 5    1  0.2368666E-004  0.6159632E+03  0.7818608E-02  0.9872830E-01
         13   -1    0    0    0    0  0.00000000000E+00  0.00000000000E+00  0.10000000000E+04  0.10000000000E+04  0.00000000000E+00 0. -1.
          2   -1    0    0  501    0 -0.00000000000E+00 -0.00000000000E+00 -0.94852666528E+02  0.94852666528E+02  0.00000000000E+00 0. -1.
    9000006    2    1    2  501    0  0.00000000000E+00  0.00000000000E+00  0.90514733347E+03  0.10948526665E+04  0.61596320191E+03 0.  0.
         13    1    3    3    0    0 -0.11387499583E+03 -0.26495646458E+03  0.64469794953E+03  0.70626120446E+03  0.00000000000E+00 0. -1.
          2    1    3    3  501    0  0.11387499583E+03  0.26495646458E+03  0.26044938394E+03  0.38859146207E+03  0.00000000000E+00 0. -1.
<mgrwt>
<rscale>  0 0.61596320E+03</rscale>
<asrwt>0</asrwt>
<pdfrwt beam="1">0</pdfrwt>
<pdfrwt beam="2">  1        2 0.34491951E+00 0.61596320E+03</pdfrwt>
<totfact> 0.63617495E+00</totfact>
</mgrwt>
</event>
<event>
 5    1  0.2368666E-004  0.6631219E+03  0.7818608E-02  0.9782464E-01
         13   -1    0    0    0    0  0.00000000000E+00  0.00000000000E+00  0.10000000000E+04  0.10000000000E+04  0.00000000000E+00 0. -1.
          2   -1    0    0  501    0 -0.00000000000E+00 -0.00000000000E+00 -0.10993265366E+03  0.10993265366E+03  0.00000000000E+00 0. -1.
    9000006    2    1    2  501    0  0.00000000000E+00  0.00000000000E+00  0.89006734634E+03  0.11099326537E+04  0.66312187012E+03 0.  0.
         13    1    3    3    0    0  0.89604658144E+02  0.26270665678E+03  0.14148540315E+03  0.31154759120E+03  0.00000000000E+00 0. -1.
          2    1    3    3  501    0 -0.89604658144E+02 -0.26270665678E+03  0.74858194319E+03  0.79838506245E+03  0.00000000000E+00 0. -1.
<mgrwt>
<rscale>  0 0.66312187E+03</rscale>
<asrwt>0</asrwt>
<pdfrwt beam="1">0</pdfrwt>
<pdfrwt beam="2">  1        2 0.39975595E+00 0.66312187E+03</pdfrwt>
<totfact> 0.39871165E+00</totfact>
</mgrwt>
</event>
<event>
 5    1  0.2368666E-004  0.6450632E+03  0.7818608E-02  0.9816087E-01
         13   -1    0    0    0    0  0.00000000000E+00  0.00000000000E+00  0.10000000000E+04  0.10000000000E+04  0.00000000000E+00 0. -1.
          4   -1    0    0  501    0 -0.00000000000E+00 -0.00000000000E+00 -0.10402664494E+03  0.10402664494E+03  0.00000000000E+00 0. -1.
    9000006    2    1    2  501    0  0.00000000000E+00  0.00000000000E+00  0.89597335506E+03  0.11040266449E+04  0.64506323701E+03 0.  0.
         13    1    3    3    0    0 -0.31996148176E+02  0.30556333855E+03  0.61597503250E+03  0.68834435279E+03  0.00000000000E+00 0. -1.
          2    1    3    3  501    0  0.31996148176E+02 -0.30556333855E+03  0.27999832257E+03  0.41568229214E+03  0.00000000000E+00 0. -1.
<mgrwt>
<rscale>  0 0.64506324E+03</rscale>
<asrwt>0</asrwt>
<pdfrwt beam="1">0</pdfrwt>
<pdfrwt beam="2">  1        4 0.37827951E+00 0.64506324E+03</pdfrwt>
<totfact> 0.45056458E-02</totfact>
</mgrwt>
</event>
<event>
 5    1  0.2368666E-004  0.6529866E+03  0.7818608E-02  0.9801191E-01
         13   -1    0    0    0    0  0.00000000000E+00  0.00000000000E+00  0.10000000000E+04  0.10000000000E+04  0.00000000000E+00 0. -1.
          2   -1    0    0  501    0 -0.00000000000E+00 -0.00000000000E+00 -0.10659786814E+03  0.10659786814E+03  0.00000000000E+00 0. -1.
    9000006    2    1    2  501    0  0.00000000000E+00  0.00000000000E+00  0.89340213186E+03  0.11065978681E+04  0.65298657916E+03 0.  0.
         13    1    3    3    0    0 -0.48851857174E+02  0.22398335817E+03  0.84066328325E+03  0.87136089222E+03  0.00000000000E+00 0. -1.
          2    1    3    3  501    0  0.48851857174E+02 -0.22398335817E+03  0.52738848610E+02  0.23523697592E+03  0.00000000000E+00 0. -1.
<mgrwt>
<rscale>  0 0.65298658E+03</rscale>
<asrwt>0</asrwt>
<pdfrwt beam="1">0</pdfrwt>
<pdfrwt beam="2">  1        2 0.38762943E+00 0.65298658E+03</pdfrwt>
<totfact> 0.44284538E+00</totfact>
</mgrwt>
</event>
<event>
 5    1  0.2368666E-004  0.6385547E+03  0.7818608E-02  0.9828496E-01
         13   -1    0    0    0    0  0.00000000000E+00  0.00000000000E+00  0.10000000000E+04  0.10000000000E+04  0.00000000000E+00 0. -1.
          2   -1    0    0  501    0 -0.00000000000E+00 -0.00000000000E+00 -0.10193803262E+03  0.10193803262E+03  0.00000000000E+00 0. -1.
    9000006    2    1    2  501    0  0.00000000000E+00  0.00000000000E+00  0.89806196738E+03  0.11019380326E+04  0.63855472004E+03 0.  0.
         13    1    3    3    0    0  0.28136957407E+03  0.14943085419E+03  0.41284874656E+03  0.52148106862E+03  0.00000000000E+00 0. -1.
          4    1    3    3  501    0 -0.28136957407E+03 -0.14943085419E+03  0.48521322082E+03  0.58045696400E+03  0.00000000000E+00 0. -1.
<mgrwt>
<rscale>  0 0.63855472E+03</rscale>
<asrwt>0</asrwt>
<pdfrwt beam="1">0</pdfrwt>
<pdfrwt beam="2">  1        2 0.37068454E+00 0.63855472E+03</pdfrwt>
<totfact> 0.51194507E+00</totfact>
</mgrwt>
</event>
<event>
 5    1  0.2368666E-004  0.6155989E+03  0.7818608E-02  0.9873562E-01
         13   -1    0    0    0    0  0.00000000000E+00  0.00000000000E+00  0.10000000000E+04  0.10000000000E+04  0.00000000000E+00 0. -1.
          2   -1    0    0  501    0 -0.00000000000E+00 -0.00000000000E+00 -0.94740498499E+02  0.94740498499E+02  0.00000000000E+00 0. -1.
    9000006    2    1    2  501    0  0.00000000000E+00  0.00000000000E+00  0.90525950150E+03  0.10947404985E+04  0.61559889051E+03 0.  0.
         13    1    3    3    0    0  0.11673363876E+03  0.23447271646E+03  0.16513135855E+03  0.30963294844E+03  0.00000000000E+00 0. -1.
          2    1    3    3  501    0 -0.11673363876E+03 -0.23447271646E+03  0.74012814295E+03  0.78510755006E+03  0.00000000000E+00 0. -1.
<mgrwt>
<rscale>  0 0.61559889E+03</rscale>
<asrwt>0</asrwt>
<pdfrwt beam="1">0</pdfrwt>
<pdfrwt beam="2">  1        2 0.34451163E+00 0.61559889E+03</pdfrwt>
<totfact> 0.63834971E+00</totfact>
</mgrwt>
</event>
<event>
 5    1  0.2368666E-004  0.6189033E+03  0.7818608E-02  0.9866946E-01
         13   -1    0    0    0    0  0.00000000000E+00  0.00000000000E+00  0.10000000000E+04  0.10000000000E+04  0.00000000000E+00 0. -1.
          4   -1    0    0  501    0 -0.00000000000E+00 -0.00000000000E+00 -0.95760328096E+02  0.95760328096E+02  0.00000000000E+00 0. -1.
    9000006    2    1    2  501    0  0.00000000000E+00  0.00000000000E+00  0.90423967190E+03  0.10957603281E+04  0.61890331425E+03 0.  0.
         13    1    3    3    0    0 -0.12504381495E+03 -0.21523516248E+03  0.12662842519E+03  0.27927923104E+03  0.00000000000E+00 0. -1.
          4    1    3    3  501    0  0.12504381495E+03  0.21523516248E+03  0.77761124672E+03  0.81648109706E+03  0.00000000000E+00 0. -1.
<mgrwt>
<rscale>  0 0.61890331E+03</rscale>
<asrwt>0</asrwt>
<pdfrwt beam="1">0</pdfrwt>
<pdfrwt beam="2">  1        4 0.34822011E+00 0.61890331E+03</pdfrwt>
<totfact> 0.70993379E-02</totfact>
</mgrwt>
</event>
<event>
 5    1  0.2368666E-004  0.6849433E+03  0.7818608E-02  0.9743333E-01
         13   -1    0    0    0    0  0.00000000000E+00  0.00000000000E+00  0.10000000000E+04  0.10000000000E+04  0.00000000000E+00 0. -1.
          2   -1    0    0  501    0 -0.00000000000E+00 -0.00000000000E+00 -0.11728681816E+03  0.11728681816E+03  0.00000000000E+00 0. -1.
    9000006    2    1    2  501    0  0.00000000000E+00  0.00000000000E+00  0.88271318184E+03  0.11172868182E+04  0.68494326234E+03 0.  0.
         13    1    3    3    0    0 -0.67260035972E+02 -0.27163148343E+03  0.76340916663E+03  0.81308125727E+03  0.00000000000E+00 0. -1.
          4    1    3    3  501    0  0.67260035972E+02  0.27163148343E+03  0.11930401521E+03  0.30420556089E+03  0.00000000000E+00 0. -1.
<mgrwt>
<rscale>  0 0.68494326E+03</rscale>
<asrwt>0</asrwt>
<pdfrwt beam="1">0</pdfrwt>
<pdfrwt beam="2">  1        2 0.42649842E+00 0.68494326E+03</pdfrwt>
<totfact> 0.31500457E+00</totfact>
</mgrwt>
</event>
<event>
 5    1  0.2368666E-004  0.6531918E+03  0.7818608E-02  0.9800808E-01
         13   -1    0    0    0    0  0.00000000000E+00  0.00000000000E+00  0.10000000000E+04  0.10000000000E+04  0.00000000000E+00 0. -1.
          2   -1    0    0  501    0 -0.00000000000E+00 -0.00000000000E+00 -0.10666488648E+03  0.10666488648E+03  0.00000000000E+00 0. -1.
    9000006    2    1    2  501    0  0.00000000000E+00  0.00000000000E+00  0.89333511352E+03  0.11066648865E+04  0.65319181402E+03 0.  0.
         13    1    3    3    0    0 -0.22166476883E+03  0.10384090859E+03  0.81297926027E+03  0.84903090737E+03  0.00000000000E+00 0. -1.
          4    1    3    3  501    0  0.22166476883E+03 -0.10384090859E+03  0.80355853250E+02  0.25763397910E+03  0.00000000000E+00 0. -1.
<mgrwt>
<rscale>  0 0.65319181E+03</rscale>
<asrwt>0</asrwt>
<pdfrwt beam="1">0</pdfrwt>
<pdfrwt beam="2">  1        2 0.38787313E+00 0.65319181E+03</pdfrwt>
<totfact> 0.44191666E+00</totfact>
</mgrwt>
</event>
<event>
 5    1  0.2368666E-004  0.6210827E+03  0.7818608E-02  0.9862606E-01
         13   -1    0    0    0    0  0.00000000000E+00  0.00000000000E+00  0.10000000000E+04  0.10000000000E+04  0.00000000000E+00 0. -1.
          2   -1    0    0  501    0 -0.00000000000E+00 -0.00000000000E+00 -0.96435926013E+02  0.96435926013E+02  0.00000000000E+00 0. -1.
    9000006    2    1    2  501    0  0.00000000000E+00  0.00000000000E+00  0.90356407399E+03  0.10964359260E+04  0.62108268697E+03 0.  0.
         13    1    3    3    0    0 -0.24426355018E+02 -0.30458465385E+03  0.54955614052E+03  0.62879281943E+03  0.00000000000E+00 0. -1.
          2    1    3    3  501    0  0.24426355018E+02  0.30458465385E+03  0.35400793347E+03  0.46764310659E+03  0.00000000000E+00 0. -1.
<mgrwt>
<rscale>  0 0.62108269E+03</rscale>
<asrwt>0</asrwt>
<pdfrwt beam="1">0</pdfrwt>
<pdfrwt beam="2">  1        2 0.35067683E+00 0.62108269E+03</pdfrwt>
<totfact> 0.60620694E+00</totfact>
</mgrwt>
</event>
<event>
 5    1  0.2368666E-004  0.6489353E+03  0.7818608E-02  0.9808779E-01
         13   -1    0    0    0    0  0.00000000000E+00  0.00000000000E+00  0.10000000000E+04  0.10000000000E+04  0.00000000000E+00 0. -1.
          2   -1    0    0  501    0 -0.00000000000E+00 -0.00000000000E+00 -0.10527925122E+03  0.10527925122E+03  0.00000000000E+00 0. -1.
    9000006    2    1    2  501    0  0.00000000000E+00  0.00000000000E+00  0.89472074878E+03  0.11052792512E+04  0.64893528560E+03 0.  0.
         13    1    3    3    0    0 -0.23249671361E+02 -0.32183342161E+03  0.50541874715E+03  0.59963773101E+03  0.00000000000E+00 0. -1.
          4    1    3    3  501    0  0.23249671361E+02  0.32183342161E+03  0.38930200163E+03  0.50564152021E+03  0.00000000000E+00 0. -1.
<mgrwt>
<rscale>  0 0.64893529E+03</rscale>
<asrwt>0</asrwt>
<pdfrwt beam="1">0</pdfrwt>
<pdfrwt beam="2">  1        2 0.38283445E+00 0.64893529E+03</pdfrwt>
<totfact> 0.46148188E+00</totfact>
</mgrwt>
</event>
<event>
 5    1  0.2368666E-004  0.6472501E+03  0.7818608E-02  0.9811953E-01
         13   -1    0    0    0    0  0.00000000000E+00  0.00000000000E+00  0.10000000000E+04  0.10000000000E+04  0.00000000000E+00 0. -1.
          2   -1    0    0  501    0 -0.00000000000E+00 -0.00000000000E+00 -0.10473316980E+03  0.10473316980E+03  0.00000000000E+00 0. -1.
    9000006    2    1    2  501    0  0.00000000000E+00  0.00000000000E+00  0.89526683020E+03  0.11047331698E+04  0.64725009015E+03 0.  0.
         13    1    3    3    0    0 -0.54539151175E+02 -0.28777565039E+03  0.21271388662E+03  0.36198969810E+03  0.00000000000E+00 0. -1.
          4    1    3    3  501    0  0.54539151175E+02  0.28777565039E+03  0.68255294358E+03  0.74274347170E+03  0.00000000000E+00 0. -1.
<mgrwt>
<rscale>  0 0.64725009E+03</rscale>
<asrwt>0</asrwt>
<pdfrwt beam="1">0</pdfrwt>
<pdfrwt beam="2">  1        2 0.38084869E+00 0.64725009E+03</pdfrwt>
<totfact> 0.46940611E+00</totfact>
</mgrwt>
</event>
<event>
 5    1  0.2368666E-004  0.6435286E+03  0.7818608E-02  0.9818999E-01
         13   -1    0    0    0    0  0.00000000000E+00  0.00000000000E+00  0.10000000000E+04  0.10000000000E+04  0.00000000000E+00 0. -1.
          2   -1    0    0  501    0 -0.00000000000E+00 -0.00000000000E+00 -0.10353227866E+03  0.10353227866E+03  0.00000000000E+00 0. -1.
    9000006    2    1    2  501    0  0.00000000000E+00  0.00000000000E+00  0.89646772134E+03  0.11035322787E+04  0.64352864321E+03 0.  0.
         13    1    3    3    0    0 -0.25293540637E+03 -0.87953948910E+01  0.78895417678E+03  0.82855438676E+03  0.00000000000E+00 0. -1.
          4    1    3    3  501    0  0.25293540637E+03  0.87953948910E+01  0.10751354456E+03  0.27497789189E+03  0.00000000000E+00 0. -1.
<mgrwt>
<rscale>  0 0.64352864E+03</rscale>
<asrwt>0</asrwt>
<pdfrwt beam="1">0</pdfrwt>
<pdfrwt beam="2">  1        2 0.37648181E+00 0.64352864E+03</pdfrwt>
<totfact> 0.48726965E+00</totfact>
</mgrwt>
</event>
<event>
 5    1  0.2368666E-004  0.6486634E+03  0.7818608E-02  0.9809291E-01
         13   -1    0    0    0    0  0.00000000000E+00  0.00000000000E+00  0.10000000000E+04  0.10000000000E+04  0.00000000000E+00 0. -1.
          2   -1    0    0  501    0 -0.00000000000E+00 -0.00000000000E+00 -0.10519103741E+03  0.10519103741E+03  0.00000000000E+00 0. -1.
    9000006    2    1    2  501    0  0.00000000000E+00  0.00000000000E+00  0.89480896259E+03  0.11051910374E+04  0.64866335618E+03 0.  0.
         13    1    3    3    0    0  0.16230140690E+03 -0.25438924146E+03  0.64997307399E+03  0.71660353736E+03  0.00000000000E+00 0. -1.
          4    1    3    3  501    0 -0.16230140690E+03  0.25438924146E+03  0.24483588860E+03  0.38858750005E+03  0.00000000000E+00 0. -1.
<mgrwt>
<rscale>  0 0.64866336E+03</rscale>
<asrwt>0</asrwt>
<pdfrwt beam="1">0</pdfrwt>
<pdfrwt beam="2">  1        2 0.38251367E+00 0.64866336E+03</pdfrwt>
<totfact> 0.46275367E+00</totfact>
</mgrwt>
</event>
<event>
 5    1  0.2368666E-004  0.6642682E+03  0.7818608E-02  0.9780368E-01
         13   -1    0    0    0    0  0.00000000000E+00  0.00000000000E+00  0.10000000000E+04  0.10000000000E+04  0.00000000000E+00 0. -1.
          2   -1    0    0  501    0 -0.00000000000E+00 -0.00000000000E+00 -0.11031307490E+03  0.11031307490E+03  0.00000000000E+00 0. -1.
    9000006    2    1    2  501    0  0.00000000000E+00  0.00000000000E+00  0.88968692510E+03  0.11103130749E+04  0.66426824371E+03 0.  0.
         13    1    3    3    0    0 -0.21761985058E+03  0.15941633422E+03  0.76870211605E+03  0.81466245170E+03  0.00000000000E+00 0. -1.
          4    1    3    3  501    0  0.21761985058E+03 -0.15941633422E+03  0.12098480905E+03  0.29565062320E+03  0.00000000000E+00 0. -1.
<mgrwt>
<rscale>  0 0.66426824E+03</rscale>
<asrwt>0</asrwt>
<pdfrwt beam="1">0</pdfrwt>
<pdfrwt beam="2">  1        2 0.40113930E+00 0.66426824E+03</pdfrwt>
<totfact> 0.39393771E+00</totfact>
</mgrwt>
</event>
<event>
 5    1  0.2368666E-004  0.6356936E+03  0.7818608E-02  0.9834001E-01
         13   -1    0    0    0    0  0.00000000000E+00  0.00000000000E+00  0.10000000000E+04  0.10000000000E+04  0.00000000000E+00 0. -1.
          2   -1    0    0  501    0 -0.00000000000E+00 -0.00000000000E+00 -0.10102659455E+03  0.10102659455E+03  0.00000000000E+00 0. -1.
    9000006    2    1    2  501    0  0.00000000000E+00  0.00000000000E+00  0.89897340545E+03  0.11010265946E+04  0.63569361977E+03 0.  0.
         13    1    3    3    0    0  0.22791105352E+03  0.12032283326E+03  0.77168475456E+03  0.81358367298E+03  0.00000000000E+00 0. -1.
          4    1    3    3  501    0 -0.22791105352E+03 -0.12032283326E+03  0.12728865089E+03  0.28744292158E+03  0.00000000000E+00 0. -1.
<mgrwt>
<rscale>  0 0.63569362E+03</rscale>
<asrwt>0</asrwt>
<pdfrwt beam="1">0</pdfrwt>
<pdfrwt beam="2">  1        2 0.36737021E+00 0.63569362E+03</pdfrwt>
<totfact> 0.52656118E+00</totfact>
</mgrwt>
</event>
<event>
 5    1  0.2368666E-004  0.7033484E+03  0.7818608E-02  0.9711523E-01
         13   -1    0    0    0    0  0.00000000000E+00  0.00000000000E+00  0.10000000000E+04  0.10000000000E+04  0.00000000000E+00 0. -1.
          2   -1    0    0  501    0 -0.00000000000E+00 -0.00000000000E+00 -0.12367473177E+03  0.12367473177E+03  0.00000000000E+00 0. -1.
    9000006    2    1    2  501    0  0.00000000000E+00  0.00000000000E+00  0.87632526823E+03  0.11236747318E+04  0.70334836823E+03 0.  0.
         13    1    3    3    0    0  0.30718529057E+03  0.57484279659E+02  0.18051905562E+03  0.36090770925E+03  0.00000000000E+00 0. -1.
          2    1    3    3  501    0 -0.30718529057E+03 -0.57484279659E+02  0.69580621261E+03  0.76276702253E+03  0.00000000000E+00 0. -1.
<mgrwt>
<rscale>  0 0.70334837E+03</rscale>
<asrwt>0</asrwt>
<pdfrwt beam="1">0</pdfrwt>
<pdfrwt beam="2">  1        2 0.44972725E+00 0.70334837E+03</pdfrwt>
<totfact> 0.25533795E+00</totfact>
</mgrwt>
</event>
<event>
 5    1  0.2368666E-004  0.6605102E+03  0.7818608E-02  0.9787255E-01
         13   -1    0    0    0    0  0.00000000000E+00  0.00000000000E+00  0.10000000000E+04  0.10000000000E+04  0.00000000000E+00 0. -1.
          2   -1    0    0  501    0 -0.00000000000E+00 -0.00000000000E+00 -0.10906841524E+03  0.10906841524E+03  0.00000000000E+00 0. -1.
    9000006    2    1    2  501    0  0.00000000000E+00  0.00000000000E+00  0.89093158476E+03  0.11090684152E+04  0.66051015206E+03 0.  0.
         13    1    3    3    0    0  0.97733543633E+02  0.25481094558E+02  0.97343080200E+03  0.97865655774E+03  0.00000000000E+00 0. -1.
          4    1    3    3  501    0 -0.97733543633E+02 -0.25481094558E+02 -0.82499217243E+02  0.13041185750E+03  0.00000000000E+00 0. -1.
<mgrwt>
<rscale>  0 0.66051015E+03</rscale>
<asrwt>0</asrwt>
<pdfrwt beam="1">0</pdfrwt>
<pdfrwt beam="2">  1        2 0.39661326E+00 0.66051015E+03</pdfrwt>
<totfact> 0.40975078E+00</totfact>
</mgrwt>
</event>
<event>
 5    1  0.2368666E-004  0.6444410E+03  0.7818608E-02  0.9817267E-01
         13   -1    0    0    0    0  0.00000000000E+00  0.00000000000E+00  0.10000000000E+04  0.10000000000E+04  0.00000000000E+00 0. -1.
          2   -1    0    0  501    0 -0.00000000000E+00 -0.00000000000E+00 -0.10382603495E+03  0.10382603495E+03  0.00000000000E+00 0. -1.
    9000006    2    1    2  501    0  0.00000000000E+00  0.00000000000E+00  0.89617396505E+03  0.11038260350E+04  0.64444095138E+03 0.  0.
         13    1    3    3    0    0  0.97737895745E+02 -0.19470046335E+03  0.85473861650E+03  0.88206522957E+03  0.00000000000E+00 0. -1.
          2    1    3    3  501    0 -0.97737895745E+02  0.19470046335E+03  0.41435348549E+02  0.22176080538E+03  0.00000000000E+00 0. -1.
<mgrwt>
<rscale>  0 0.64444095E+03</rscale>
<asrwt>0</asrwt>
<pdfrwt beam="1">0</pdfrwt>
<pdfrwt beam="2">  1        2 0.37755001E+00 0.64444095E+03</pdfrwt>
<totfact> 0.48284364E+00</totfact>
</mgrwt>
</event>
<event>
 5    1  0.2368666E-004  0.6512642E+03  0.7818608E-02  0.9804410E-01
         13   -1    0    0    0    0  0.00000000000E+00  0.00000000000E+00  0.10000000000E+04  0.10000000000E+04  0.00000000000E+00 0. -1.
          2   -1    0    0  501    0 -0.00000000000E+00 -0.00000000000E+00 -0.10603627707E+03  0.10603627707E+03  0.00000000000E+00 0. -1.
    9000006    2    1    2  501    0  0.00000000000E+00  0.00000000000E+00  0.89396372293E+03  0.11060362771E+04  0.65126423844E+03 0.  0.
         13    1    3    3    0    0 -0.11041214508E+03  0.19758278559E+03  0.49398603702E+02  0.23166791101E+03  0.00000000000E+00 0. -1.
          2    1    3    3  501    0  0.11041214508E+03 -0.19758278559E+03  0.84456511923E+03  0.87436836606E+03  0.00000000000E+00 0. -1.
<mgrwt>
<rscale>  0 0.65126424E+03</rscale>
<asrwt>0</asrwt>
<pdfrwt beam="1">0</pdfrwt>
<pdfrwt beam="2">  1        2 0.38558728E+00 0.65126424E+03</pdfrwt>
<totfact> 0.45069749E+00</totfact>
</mgrwt>
</event>
<event>
 5    1  0.2368666E-004  0.6273097E+03  0.7818608E-02  0.9850313E-01
         13   -1    0    0    0    0  0.00000000000E+00  0.00000000000E+00  0.10000000000E+04  0.10000000000E+04  0.00000000000E+00 0. -1.
          2   -1    0    0  501    0 -0.00000000000E+00 -0.00000000000E+00 -0.98379363098E+02  0.98379363098E+02  0.00000000000E+00 0. -1.
    9000006    2    1    2  501    0  0.00000000000E+00  0.00000000000E+00  0.90162063690E+03  0.10983793631E+04  0.62730969416E+03 0.  0.
         13    1    3    3    0    0  0.40949521950E+02 -0.65010130929E+02  0.98326826453E+03  0.98626551217E+03  0.00000000000E+00 0. -1.
          2    1    3    3  501    0 -0.40949521950E+02  0.65010130929E+02 -0.81647627630E+02  0.11211385092E+03  0.00000000000E+00 0. -1.
<mgrwt>
<rscale>  0 0.62730969E+03</rscale>
<asrwt>0</asrwt>
<pdfrwt beam="1">0</pdfrwt>
<pdfrwt beam="2">  1        2 0.35774389E+00 0.62730969E+03</pdfrwt>
<totfact> 0.57121777E+00</totfact>
</mgrwt>
</event>
<event>
 5    1  0.2368666E-004  0.6493109E+03  0.7818608E-02  0.9808073E-01
         13   -1    0    0    0    0  0.00000000000E+00  0.00000000000E+00  0.10000000000E+04  0.10000000000E+04  0.00000000000E+00 0. -1.
          2   -1    0    0  501    0 -0.00000000000E+00 -0.00000000000E+00 -0.10540115886E+03  0.10540115886E+03  0.00000000000E+00 0. -1.
    9000006    2    1    2  501    0  0.00000000000E+00  0.00000000000E+00  0.89459884114E+03  0.11054011589E+04  0.64931089273E+03 0.  0.
         13    1    3    3    0    0  0.24072764094E+03 -0.21061414176E+03  0.54197987819E+03  0.62932527534E+03  0.00000000000E+00 0. -1.
          2    1    3    3  501    0 -0.24072764094E+03  0.21061414176E+03  0.35261896296E+03  0.47607588351E+03  0.00000000000E+00 0. -1.
<mgrwt>
<rscale>  0 0.64931089E+03</rscale>
<asrwt>0</asrwt>
<pdfrwt beam="1">0</pdfrwt>
<pdfrwt beam="2">  1        2 0.38327775E+00 0.64931089E+03</pdfrwt>
<totfact> 0.45972955E+00</totfact>
</mgrwt>
</event>
<event>
 5    1  0.2368666E-004  0.6512292E+03  0.7818608E-02  0.9804475E-01
         13   -1    0    0    0    0  0.00000000000E+00  0.00000000000E+00  0.10000000000E+04  0.10000000000E+04  0.00000000000E+00 0. -1.
          2   -1    0    0  501    0 -0.00000000000E+00 -0.00000000000E+00 -0.10602487549E+03  0.10602487549E+03  0.00000000000E+00 0. -1.
    9000006    2    1    2  501    0  0.00000000000E+00  0.00000000000E+00  0.89397512451E+03  0.11060248755E+04  0.65122922382E+03 0.  0.
         13    1    3    3    0    0 -0.46089530087E+02  0.21703963222E+03  0.42240335844E+02  0.22586432368E+03  0.00000000000E+00 0. -1.
          2    1    3    3  501    0  0.46089530087E+02 -0.21703963222E+03  0.85173478867E+03  0.88016055181E+03  0.00000000000E+00 0. -1.
<mgrwt>
<rscale>  0 0.65122922E+03</rscale>
<asrwt>0</asrwt>
<pdfrwt beam="1">0</pdfrwt>
<pdfrwt beam="2">  1        2 0.38554581E+00 0.65122922E+03</pdfrwt>
<totfact> 0.45085820E+00</totfact>
</mgrwt>
</event>
<event>
 5    1  0.2368666E-004  0.6528429E+03  0.7818608E-02  0.9801459E-01
         13   -1    0    0    0    0  0.00000000000E+00  0.00000000000E+00  0.10000000000E+04  0.10000000000E+04  0.00000000000E+00 0. -1.
          2   -1    0    0  501    0 -0.00000000000E+00 -0.00000000000E+00 -0.10655095223E+03  0.10655095223E+03  0.00000000000E+00 0. -1.
    9000006    2    1    2  501    0  0.00000000000E+00  0.00000000000E+00  0.89344904777E+03  0.11065509522E+04  0.65284286693E+03 0.  0.
         13    1    3    3    0    0 -0.30923787009E+03 -0.50740756332E+02  0.29185679371E+03  0.42823249840E+03  0.00000000000E+00 0. -1.
          2    1    3    3  501    0  0.30923787009E+03  0.50740756332E+02  0.60159225407E+03  0.67831845383E+03  0.00000000000E+00 0. -1.
<mgrwt>
<rscale>  0 0.65284287E+03</rscale>
<asrwt>0</asrwt>
<pdfrwt beam="1">0</pdfrwt>
<pdfrwt beam="2">  1        2 0.38745883E+00 0.65284287E+03</pdfrwt>
<totfact> 0.44349658E+00</totfact>
</mgrwt>
</event>
<event>
 5    1  0.2368666E-004  0.6489385E+03  0.7818608E-02  0.9808773E-01
         13   -1    0    0    0    0  0.00000000000E+00  0.00000000000E+00  0.10000000000E+04  0.10000000000E+04  0.00000000000E+00 0. -1.
          2   -1    0    0  501    0 -0.00000000000E+00 -0.00000000000E+00 -0.10528030394E+03  0.10528030394E+03  0.00000000000E+00 0. -1.
    9000006    2    1    2  501    0  0.00000000000E+00  0.00000000000E+00  0.89471969606E+03  0.11052803039E+04  0.64893853003E+03 0.  0.
         13    1    3    3    0    0  0.36664960787E+02 -0.20571444173E+03  0.87014633122E+03  0.89488400847E+03  0.00000000000E+00 0. -1.
          2    1    3    3  501    0 -0.36664960787E+02  0.20571444173E+03  0.24573364842E+02  0.21039629547E+03  0.00000000000E+00 0. -1.
<mgrwt>
<rscale>  0 0.64893853E+03</rscale>
<asrwt>0</asrwt>
<pdfrwt beam="1">0</pdfrwt>
<pdfrwt beam="2">  1        2 0.38283828E+00 0.64893853E+03</pdfrwt>
<totfact> 0.46146673E+00</totfact>
</mgrwt>
</event>
<event>
 5    1  0.2368666E-004  0.6065488E+03  0.7818608E-02  0.9891912E-01
         13   -1    0    0    0    0  0.00000000000E+00  0.00000000000E+00  0.10000000000E+04  0.10000000000E+04  0.00000000000E+00 0. -1.
          2   -1    0    0  501    0 -0.00000000000E+00 -0.00000000000E+00 -0.91975351534E+02  0.91975351534E+02  0.00000000000E+00 0. -1.
    9000006    2    1    2  501    0  0.00000000000E+00  0.00000000000E+00  0.90802464847E+03  0.10919753515E+04  0.60654876649E+03 0.  0.
         13    1    3    3    0    0  0.25504021387E+03 -0.20932699470E+02  0.16098931646E+03  0.30232639417E+03  0.00000000000E+00 0. -1.
          4    1    3    3  501    0 -0.25504021387E+03  0.20932699470E+02  0.74703533201E+03  0.78964895736E+03  0.00000000000E+00 0. -1.
<mgrwt>
<rscale>  0 0.60654877E+03</rscale>
<asrwt>0</asrwt>
<pdfrwt beam="1">0</pdfrwt>
<pdfrwt beam="2">  1        2 0.33445653E+00 0.60654877E+03</pdfrwt>
<totfact> 0.69422242E+00</totfact>
</mgrwt>
</event>
<event>
 5    1  0.2368666E-004  0.6261004E+03  0.7818608E-02  0.9852688E-01
         13   -1    0    0    0    0  0.00000000000E+00  0.00000000000E+00  0.10000000000E+04  0.10000000000E+04  0.00000000000E+00 0. -1.
          2   -1    0    0  501    0 -0.00000000000E+00 -0.00000000000E+00 -0.98000415812E+02  0.98000415812E+02  0.00000000000E+00 0. -1.
    9000006    2    1    2  501    0  0.00000000000E+00  0.00000000000E+00  0.90199958419E+03  0.10980004158E+04  0.62610036196E+03 0.  0.
         13    1    3    3    0    0  0.57119027480E+02 -0.71090603420E+02  0.97618917090E+03  0.98043957212E+03  0.00000000000E+00 0. -1.
          4    1    3    3  501    0 -0.57119027480E+02  0.71090603420E+02 -0.74189586708E+02  0.11756084370E+03  0.00000000000E+00 0. -1.
<mgrwt>
<rscale>  0 0.62610036E+03</rscale>
<asrwt>0</asrwt>
<pdfrwt beam="1">0</pdfrwt>
<pdfrwt beam="2">  1        2 0.35636590E+00 0.62610036E+03</pdfrwt>
<totfact> 0.57788938E+00</totfact>
</mgrwt>
</event>
<event>
 5    1  0.2368666E-004  0.6599967E+03  0.7818608E-02  0.9788200E-01
         13   -1    0    0    0    0  0.00000000000E+00  0.00000000000E+00  0.10000000000E+04  0.10000000000E+04  0.00000000000E+00 0. -1.
          2   -1    0    0  501    0 -0.00000000000E+00 -0.00000000000E+00 -0.10889889804E+03  0.10889889804E+03  0.00000000000E+00 0. -1.
    9000006    2    1    2  501    0  0.00000000000E+00  0.00000000000E+00  0.89110110196E+03  0.11088988980E+04  0.65999666072E+03 0.  0.
         13    1    3    3    0    0 -0.21221196143E+01  0.31498485640E+02  0.99745696852E+03  0.99795644295E+03  0.00000000000E+00 0. -1.
          4    1    3    3  501    0  0.21221196143E+01 -0.31498485640E+02 -0.10635586656E+03  0.11094245509E+03  0.00000000000E+00 0. -1.
<mgrwt>
<rscale>  0 0.65999666E+03</rscale>
<asrwt>0</asrwt>
<pdfrwt beam="1">0</pdfrwt>
<pdfrwt beam="2">  1        2 0.39599683E+00 0.65999666E+03</pdfrwt>
<totfact> 0.41194803E+00</totfact>
</mgrwt>
</event>
<event>
 5    1  0.2368666E-004  0.6508624E+03  0.7818608E-02  0.9805162E-01
         13   -1    0    0    0    0  0.00000000000E+00  0.00000000000E+00  0.10000000000E+04  0.10000000000E+04  0.00000000000E+00 0. -1.
          2   -1    0    0  501    0 -0.00000000000E+00 -0.00000000000E+00 -0.10590547694E+03  0.10590547694E+03  0.00000000000E+00 0. -1.
    9000006    2    1    2  501    0  0.00000000000E+00  0.00000000000E+00  0.89409452306E+03  0.11059054769E+04  0.65086243383E+03 0.  0.
         13    1    3    3    0    0 -0.16620094602E+03 -0.14614043307E+03  0.85244654691E+03  0.88070704322E+03  0.00000000000E+00 0. -1.
          4    1    3    3  501    0  0.16620094602E+03  0.14614043307E+03  0.41647976148E+02  0.22519843373E+03  0.00000000000E+00 0. -1.
<mgrwt>
<rscale>  0 0.65086243E+03</rscale>
<asrwt>0</asrwt>
<pdfrwt beam="1">0</pdfrwt>
<pdfrwt beam="2">  1        2 0.38511164E+00 0.65086243E+03</pdfrwt>
<totfact> 0.45254434E+00</totfact>
</mgrwt>
</event>
<event>
 5    1  0.2368666E-004  0.6458465E+03  0.7818608E-02  0.9814604E-01
         13   -1    0    0    0    0  0.00000000000E+00  0.00000000000E+00  0.10000000000E+04  0.10000000000E+04  0.00000000000E+00 0. -1.
          2   -1    0    0  501    0 -0.00000000000E+00 -0.00000000000E+00 -0.10427943456E+03  0.10427943456E+03  0.00000000000E+00 0. -1.
    9000006    2    1    2  501    0  0.00000000000E+00  0.00000000000E+00  0.89572056544E+03  0.11042794346E+04  0.64584652841E+03 0.  0.
         13    1    3    3    0    0 -0.15924744950E+03  0.11287746828E+03  0.88771338566E+03  0.90892030899E+03  0.00000000000E+00 0. -1.
          2    1    3    3  501    0  0.15924744950E+03 -0.11287746828E+03  0.80071797706E+01  0.19535912557E+03  0.00000000000E+00 0. -1.
<mgrwt>
<rscale>  0 0.64584653E+03</rscale>
<asrwt>0</asrwt>
<pdfrwt beam="1">0</pdfrwt>
<pdfrwt beam="2">  1        2 0.37919874E+00 0.64584653E+03</pdfrwt>
<totfact> 0.47608419E+00</totfact>
</mgrwt>
</event>
<event>
 5    1  0.2368666E-004  0.6620347E+03  0.7818608E-02  0.9784455E-01
         13   -1    0    0    0    0  0.00000000000E+00  0.00000000000E+00  0.10000000000E+04  0.10000000000E+04  0.00000000000E+00 0. -1.
          2   -1    0    0  501    0 -0.00000000000E+00 -0.00000000000E+00 -0.10957250095E+03  0.10957250095E+03  0.00000000000E+00 0. -1.
    9000006    2    1    2  501    0  0.00000000000E+00  0.00000000000E+00  0.89042749905E+03  0.11095725010E+04  0.66203474517E+03 0.  0.
         13    1    3    3    0    0  0.18577789076E+03 -0.23117692959E+03  0.19879961452E+03  0.35703989161E+03  0.00000000000E+00 0. -1.
          2    1    3    3  501    0 -0.18577789076E+03  0.23117692959E+03  0.69162788452E+03  0.75253260934E+03  0.00000000000E+00 0. -1.
<mgrwt>
<rscale>  0 0.66203475E+03</rscale>
<asrwt>0</asrwt>
<pdfrwt beam="1">0</pdfrwt>
<pdfrwt beam="2">  1        2 0.39844630E+00 0.66203475E+03</pdfrwt>
<totfact> 0.40327905E+00</totfact>
</mgrwt>
</event>
<event>
 5    1  0.2368666E-004  0.6426503E+03  0.7818608E-02  0.9820669E-01
         13   -1    0    0    0    0  0.00000000000E+00  0.00000000000E+00  0.10000000000E+04  0.10000000000E+04  0.00000000000E+00 0. -1.
          2   -1    0    0  501    0 -0.00000000000E+00 -0.00000000000E+00 -0.10324984383E+03  0.10324984383E+03  0.00000000000E+00 0. -1.
    9000006    2    1    2  501    0  0.00000000000E+00  0.00000000000E+00  0.89675015617E+03  0.11032498438E+04  0.64265027450E+03 0.  0.
         13    1    3    3    0    0  0.24628137096E+03 -0.19634003791E+03  0.55757134830E+03  0.64038248931E+03  0.00000000000E+00 0. -1.
          4    1    3    3  501    0 -0.24628137096E+03  0.19634003791E+03  0.33917880787E+03  0.46286735452E+03  0.00000000000E+00 0. -1.
<mgrwt>
<rscale>  0 0.64265027E+03</rscale>
<asrwt>0</asrwt>
<pdfrwt beam="1">0</pdfrwt>
<pdfrwt beam="2">  1        2 0.37545477E+00 0.64265027E+03</pdfrwt>
<totfact> 0.49155999E+00</totfact>
</mgrwt>
</event>
<event>
 5    1  0.2368666E-004  0.6207541E+03  0.7818608E-02  0.9863259E-01
         13   -1    0    0    0    0  0.00000000000E+00  0.00000000000E+00  0.10000000000E+04  0.10000000000E+04  0.00000000000E+00 0. -1.
          2   -1    0    0  501    0 -0.00000000000E+00 -0.00000000000E+00 -0.96333928036E+02  0.96333928036E+02  0.00000000000E+00 0. -1.
    9000006    2    1    2  501    0  0.00000000000E+00  0.00000000000E+00  0.90366607196E+03  0.10963339280E+04  0.62075414791E+03 0.  0.
         13    1    3    3    0    0  0.16597076294E+03 -0.26223508033E+03  0.44385673766E+03  0.54159240677E+03  0.00000000000E+00 0. -1.
          2    1    3    3  501    0 -0.16597076294E+03  0.26223508033E+03  0.45980933430E+03  0.55474152127E+03  0.00000000000E+00 0. -1.
<mgrwt>
<rscale>  0 0.62075415E+03</rscale>
<asrwt>0</asrwt>
<pdfrwt beam="1">0</pdfrwt>
<pdfrwt beam="2">  1        2 0.35030593E+00 0.62075415E+03</pdfrwt>
<totfact> 0.60809718E+00</totfact>
</mgrwt>
</event>
<event>
 5    1  0.2368666E-004  0.6989299E+03  0.7818608E-02  0.9719064E-01
         13   -1    0    0    0    0  0.00000000000E+00  0.00000000000E+00  0.10000000000E+04  0.10000000000E+04  0.00000000000E+00 0. -1.
          2   -1    0    0  501    0 -0.00000000000E+00 -0.00000000000E+00 -0.12212574415E+03  0.12212574415E+03  0.00000000000E+00 0. -1.
    9000006    2    1    2  501    0  0.00000000000E+00  0.00000000000E+00  0.87787425585E+03  0.11221257442E+04  0.69892987962E+03 0.  0.
         13    1    3    3    0    0  0.25449697753E+02 -0.33638471129E+03  0.29246403242E+03  0.44647236350E+03  0.00000000000E+00 0. -1.
          4    1    3    3  501    0 -0.25449697753E+02  0.33638471129E+03  0.58541022342E+03  0.67565338066E+03  0.00000000000E+00 0. -1.
<mgrwt>
<rscale>  0 0.69892988E+03</rscale>
<asrwt>0</asrwt>
<pdfrwt beam="1">0</pdfrwt>
<pdfrwt beam="2">  1        2 0.44409455E+00 0.69892988E+03</pdfrwt>
<totfact> 0.26881064E+00</totfact>
</mgrwt>
</event>
<event>
 5    1  0.2368666E-004  0.6665166E+03  0.7818608E-02  0.9776271E-01
         13   -1    0    0    0    0  0.00000000000E+00  0.00000000000E+00  0.10000000000E+04  0.10000000000E+04  0.00000000000E+00 0. -1.
          2   -1    0    0  501    0 -0.00000000000E+00 -0.00000000000E+00 -0.11106109350E+03  0.11106109350E+03  0.00000000000E+00 0. -1.
    9000006    2    1    2  501    0  0.00000000000E+00  0.00000000000E+00  0.88893890650E+03  0.11110610935E+04  0.66651659694E+03 0.  0.
         13    1    3    3    0    0  0.19034359887E+03 -0.24343518758E+03  0.65247136928E+03  0.72194893442E+03  0.00000000000E+00 0. -1.
          4    1    3    3  501    0 -0.19034359887E+03  0.24343518758E+03  0.23646753722E+03  0.38911215908E+03  0.00000000000E+00 0. -1.
<mgrwt>
<rscale>  0 0.66651660E+03</rscale>
<asrwt>0</asrwt>
<pdfrwt beam="1">0</pdfrwt>
<pdfrwt beam="2">  1        2 0.40385937E+00 0.66651660E+03</pdfrwt>
<totfact> 0.38470000E+00</totfact>
</mgrwt>
</event>
<event>
 5    1  0.2368666E-004  0.6397284E+03  0.7818608E-02  0.9826246E-01
         13   -1    0    0    0    0  0.00000000000E+00  0.00000000000E+00  0.10000000000E+04  0.10000000000E+04  0.00000000000E+00 0. -1.
          2   -1    0    0  501    0 -0.00000000000E+00 -0.00000000000E+00 -0.10231312218E+03  0.10231312218E+03  0.00000000000E+00 0. -1.
    9000006    2    1    2  501    0  0.00000000000E+00  0.00000000000E+00  0.89768687782E+03  0.11023131222E+04  0.63972844920E+03 0.  0.
         13    1    3    3    0    0  0.23259642667E+03  0.80747488459E+02  0.80067515588E+03  0.83767652458E+03  0.00000000000E+00 0. -1.
          4    1    3    3  501    0 -0.23259642667E+03 -0.80747488459E+02  0.97011721943E+02  0.26463659760E+03  0.00000000000E+00 0. -1.
<mgrwt>
<rscale>  0 0.63972845E+03</rscale>
<asrwt>0</asrwt>
<pdfrwt beam="1">0</pdfrwt>
<pdfrwt beam="2">  1        2 0.37204850E+00 0.63972845E+03</pdfrwt>
<totfact> 0.50603876E+00</totfact>
</mgrwt>
</event>
<event>
 5    1  0.2368666E-004  0.6446737E+03  0.7818608E-02  0.9816825E-01
         13   -1    0    0    0    0  0.00000000000E+00  0.00000000000E+00  0.10000000000E+04  0.10000000000E+04  0.00000000000E+00 0. -1.
          2   -1    0    0  501    0 -0.00000000000E+00 -0.00000000000E+00 -0.10390103712E+03  0.10390103712E+03  0.00000000000E+00 0. -1.
    9000006    2    1    2  501    0  0.00000000000E+00  0.00000000000E+00  0.89609896288E+03  0.11039010371E+04  0.64467367595E+03 0.  0.
         13    1    3    3    0    0  0.84800560818E+02 -0.29635453108E+03  0.60944515411E+03  0.68296452255E+03  0.00000000000E+00 0. -1.
          4    1    3    3  501    0 -0.84800560818E+02  0.29635453108E+03  0.28665380878E+03  0.42093651456E+03  0.00000000000E+00 0. -1.
<mgrwt>
<rscale>  0 0.64467368E+03</rscale>
<asrwt>0</asrwt>
<pdfrwt beam="1">0</pdfrwt>
<pdfrwt beam="2">  1        2 0.37782275E+00 0.64467368E+03</pdfrwt>
<totfact> 0.48171948E+00</totfact>
</mgrwt>
</event>
<event>
 5    1  0.2368666E-004  0.6605722E+03  0.7818608E-02  0.9787141E-01
         13   -1    0    0    0    0  0.00000000000E+00  0.00000000000E+00  0.10000000000E+04  0.10000000000E+04  0.00000000000E+00 0. -1.
          2   -1    0    0  501    0 -0.00000000000E+00 -0.00000000000E+00 -0.10908889477E+03  0.10908889477E+03  0.00000000000E+00 0. -1.
    9000006    2    1    2  501    0  0.00000000000E+00  0.00000000000E+00  0.89091110523E+03  0.11090888948E+04  0.66057216040E+03 0.  0.
         13    1    3    3    0    0  0.16232002437E+03  0.15609230173E+03  0.85111758728E+03  0.88040544316E+03  0.00000000000E+00 0. -1.
          2    1    3    3  501    0 -0.16232002437E+03 -0.15609230173E+03  0.39793517951E+02  0.22868345161E+03  0.00000000000E+00 0. -1.
<mgrwt>
<rscale>  0 0.66057216E+03</rscale>
<asrwt>0</asrwt>
<pdfrwt beam="1">0</pdfrwt>
<pdfrwt beam="2">  1        2 0.39668773E+00 0.66057216E+03</pdfrwt>
<totfact> 0.40948604E+00</totfact>
</mgrwt>
</event>
<event>
 5    1  0.2368666E-004  0.5258429E+03  0.7818608E-02  0.1007245E+00
         13   -1    0    0    0    0  0.00000000000E+00  0.00000000000E+00  0.10000000000E+04  0.10000000000E+04  0.00000000000E+00 0. -1.
          2   -1    0    0  501    0 -0.00000000000E+00 -0.00000000000E+00 -0.69127685895E+02  0.69127685895E+02  0.00000000000E+00 0. -1.
    9000006    2    1    2  501    0  0.00000000000E+00  0.00000000000E+00  0.93087231411E+03  0.10691276859E+04  0.52584288868E+03 0.  0.
         13    1    3    3    0    0 -0.37309356810E+02 -0.62912262977E+02  0.97889797103E+03  0.98162680212E+03  0.00000000000E+00 0. -1.
          4    1    3    3  501    0  0.37309356810E+02  0.62912262977E+02 -0.48025656930E+02  0.87500883778E+02  0.00000000000E+00 0. -1.
<mgrwt>
<rscale>  0 0.52584289E+03</rscale>
<asrwt>0</asrwt>
<pdfrwt beam="1">0</pdfrwt>
<pdfrwt beam="2">  1        2 0.25137393E+00 0.52584289E+03</pdfrwt>
<totfact> 0.13781892E+01</totfact>
</mgrwt>
</event>
<event>
 5    1  0.2368666E-004  0.6413356E+03  0.7818608E-02  0.9823175E-01
         13   -1    0    0    0    0  0.00000000000E+00  0.00000000000E+00  0.10000000000E+04  0.10000000000E+04  0.00000000000E+00 0. -1.
          2   -1    0    0  501    0 -0.00000000000E+00 -0.00000000000E+00 -0.10282782695E+03  0.10282782695E+03  0.00000000000E+00 0. -1.
    9000006    2    1    2  501    0  0.00000000000E+00  0.00000000000E+00  0.89717217305E+03  0.11028278269E+04  0.64133556567E+03 0.  0.
         13    1    3    3    0    0 -0.25321246782E+02 -0.20882074249E+03  0.86478327937E+03  0.88999853276E+03  0.00000000000E+00 0. -1.
          4    1    3    3  501    0  0.25321246782E+02  0.20882074249E+03  0.32388893678E+02  0.21282929419E+03  0.00000000000E+00 0. -1.
<mgrwt>
<rscale>  0 0.64133557E+03</rscale>
<asrwt>0</asrwt>
<pdfrwt beam="1">0</pdfrwt>
<pdfrwt beam="2">  1        2 0.37392016E+00 0.64133557E+03</pdfrwt>
<totfact> 0.49803550E+00</totfact>
</mgrwt>
</event>
<event>
 5    1  0.2368666E-004  0.6432947E+03  0.7818608E-02  0.9819443E-01
         13   -1    0    0    0    0  0.00000000000E+00  0.00000000000E+00  0.10000000000E+04  0.10000000000E+04  0.00000000000E+00 0. -1.
          2   -1    0    0  501    0 -0.00000000000E+00 -0.00000000000E+00 -0.10345702550E+03  0.10345702550E+03  0.00000000000E+00 0. -1.
    9000006    2    1    2  501    0  0.00000000000E+00  0.00000000000E+00  0.89654297450E+03  0.11034570255E+04  0.64329472406E+03 0.  0.
         13    1    3    3    0    0 -0.11156333837E+03 -0.29746726407E+03  0.53444608320E+03  0.62174413347E+03  0.00000000000E+00 0. -1.
          2    1    3    3  501    0  0.11156333837E+03  0.29746726407E+03  0.36209689130E+03  0.48171289203E+03  0.00000000000E+00 0. -1.
<mgrwt>
<rscale>  0 0.64329472E+03</rscale>
<asrwt>0</asrwt>
<pdfrwt beam="1">0</pdfrwt>
<pdfrwt beam="2">  1        2 0.37620816E+00 0.64329472E+03</pdfrwt>
<totfact> 0.48840943E+00</totfact>
</mgrwt>
</event>
<event>
 5    1  0.2368666E-004  0.6479850E+03  0.7818608E-02  0.9810568E-01
         13   -1    0    0    0    0  0.00000000000E+00  0.00000000000E+00  0.10000000000E+04  0.10000000000E+04  0.00000000000E+00 0. -1.
          2   -1    0    0  501    0 -0.00000000000E+00 -0.00000000000E+00 -0.10497114465E+03  0.10497114465E+03  0.00000000000E+00 0. -1.
    9000006    2    1    2  501    0  0.00000000000E+00  0.00000000000E+00  0.89502885535E+03  0.11049711447E+04  0.64798501418E+03 0.  0.
         13    1    3    3    0    0 -0.12789441523E+03  0.27463065772E+03  0.25165521120E+03  0.39383921203E+03  0.00000000000E+00 0. -1.
          4    1    3    3  501    0  0.12789441523E+03 -0.27463065772E+03  0.64337364414E+03  0.71113193262E+03  0.00000000000E+00 0. -1.
<mgrwt>
<rscale>  0 0.64798501E+03</rscale>
<asrwt>0</asrwt>
<pdfrwt beam="1">0</pdfrwt>
<pdfrwt beam="2">  1        2 0.38171406E+00 0.64798501E+03</pdfrwt>
<totfact> 0.46593776E+00</totfact>
</mgrwt>
</event>
<event>
 5    1  0.2368666E-004  0.6590006E+03  0.7818608E-02  0.9790035E-01
         13   -1    0    0    0    0  0.00000000000E+00  0.00000000000E+00  0.10000000000E+04  0.10000000000E+04  0.00000000000E+00 0. -1.
          2   -1    0    0  501    0 -0.00000000000E+00 -0.00000000000E+00 -0.10857045835E+03  0.10857045835E+03  0.00000000000E+00 0. -1.
    9000006    2    1    2  501    0  0.00000000000E+00  0.00000000000E+00  0.89142954165E+03  0.11085704583E+04  0.65900063232E+03 0.  0.
         13    1    3    3    0    0  0.13137207275E+03 -0.53141022063E+02 -0.54687575192E+02  0.15189904741E+03  0.00000000000E+00 0. -1.
          4    1    3    3  501    0 -0.13137207275E+03  0.53141022063E+02  0.94611711684E+03  0.95667141094E+03  0.00000000000E+00 0. -1.
<mgrwt>
<rscale>  0 0.65900063E+03</rscale>
<asrwt>0</asrwt>
<pdfrwt beam="1">0</pdfrwt>
<pdfrwt beam="2">  1        2 0.39480250E+00 0.65900063E+03</pdfrwt>
<totfact> 0.41623544E+00</totfact>
</mgrwt>
</event>
<event>
 5    1  0.2368666E-004  0.6488626E+03  0.7818608E-02  0.9808916E-01
         13   -1    0    0    0    0  0.00000000000E+00  0.00000000000E+00  0.10000000000E+04  0.10000000000E+04  0.00000000000E+00 0. -1.
          2   -1    0    0  501    0 -0.00000000000E+00 -0.00000000000E+00 -0.10525565869E+03  0.10525565869E+03  0.00000000000E+00 0. -1.
    9000006    2    1    2  501    0  0.00000000000E+00  0.00000000000E+00  0.89474434131E+03  0.11052556587E+04  0.64886257001E+03 0.  0.
         13    1    3    3    0    0 -0.85526059018E+02  0.19595125775E+02  0.97940594782E+03  0.98332837158E+03  0.00000000000E+00 0. -1.
          2    1    3    3  501    0  0.85526059018E+02 -0.19595125775E+02 -0.84661606509E+02  0.12192728711E+03  0.00000000000E+00 0. -1.
<mgrwt>
<rscale>  0 0.64886257E+03</rscale>
<asrwt>0</asrwt>
<pdfrwt beam="1">0</pdfrwt>
<pdfrwt beam="2">  1        2 0.38274866E+00 0.64886257E+03</pdfrwt>
<totfact> 0.46182171E+00</totfact>
</mgrwt>
</event>
<event>
 5    1  0.2368666E-004  0.6463701E+03  0.7818608E-02  0.9813614E-01
         13   -1    0    0    0    0  0.00000000000E+00  0.00000000000E+00  0.10000000000E+04  0.10000000000E+04  0.00000000000E+00 0. -1.
          2   -1    0    0  501    0 -0.00000000000E+00 -0.00000000000E+00 -0.10444859032E+03  0.10444859032E+03  0.00000000000E+00 0. -1.
    9000006    2    1    2  501    0  0.00000000000E+00  0.00000000000E+00  0.89555140968E+03  0.11044485903E+04  0.64637014262E+03 0.  0.
         13    1    3    3    0    0  0.18982374673E+03  0.25297445339E+03  0.56136800454E+03  0.64433156481E+03  0.00000000000E+00 0. -1.
          2    1    3    3  501    0 -0.18982374673E+03 -0.25297445339E+03  0.33418340514E+03  0.46011702551E+03  0.00000000000E+00 0. -1.
<mgrwt>
<rscale>  0 0.64637014E+03</rscale>
<asrwt>0</asrwt>
<pdfrwt beam="1">0</pdfrwt>
<pdfrwt beam="2">  1        2 0.37981386E+00 0.64637014E+03</pdfrwt>
<totfact> 0.47358451E+00</totfact>
</mgrwt>
</event>
<event>
 5    1  0.2368666E-004  0.6488976E+03  0.7818608E-02  0.9808850E-01
         13   -1    0    0    0    0  0.00000000000E+00  0.00000000000E+00  0.10000000000E+04  0.10000000000E+04  0.00000000000E+00 0. -1.
          2   -1    0    0  501    0 -0.00000000000E+00 -0.00000000000E+00 -0.10526700811E+03  0.10526700811E+03  0.00000000000E+00 0. -1.
    9000006    2    1    2  501    0  0.00000000000E+00  0.00000000000E+00  0.89473299189E+03  0.11052670081E+04  0.64889755159E+03 0.  0.
         13    1    3    3    0    0 -0.10340484155E+03 -0.66605337076E+02  0.95874851534E+03  0.96660620102E+03  0.00000000000E+00 0. -1.
          4    1    3    3  501    0  0.10340484155E+03  0.66605337076E+02 -0.64015523450E+02  0.13866080710E+03  0.00000000000E+00 0. -1.
<mgrwt>
<rscale>  0 0.64889755E+03</rscale>
<asrwt>0</asrwt>
<pdfrwt beam="1">0</pdfrwt>
<pdfrwt beam="2">  1        2 0.38278993E+00 0.64889755E+03</pdfrwt>
<totfact> 0.46165820E+00</totfact>
</mgrwt>
</event>
<event>
 5    1  0.2368666E-004  0.6490372E+03  0.7818608E-02  0.9808587E-01
         13   -1    0    0    0    0  0.00000000000E+00  0.00000000000E+00  0.10000000000E+04  0.10000000000E+04  0.00000000000E+00 0. -1.
          2   -1    0    0  501    0 -0.00000000000E+00 -0.00000000000E+00 -0.10531232887E+03  0.10531232887E+03  0.00000000000E+00 0. -1.
    9000006    2    1    2  501    0  0.00000000000E+00  0.00000000000E+00  0.89468767113E+03  0.11053123289E+04  0.64903722197E+03 0.  0.
         13    1    3    3    0    0  0.54419907471E+02 -0.13447104224E+03  0.94170874110E+03  0.95281653040E+03  0.00000000000E+00 0. -1.
          4    1    3    3  501    0 -0.54419907471E+02  0.13447104224E+03 -0.47021069979E+02  0.15249579847E+03  0.00000000000E+00 0. -1.
<mgrwt>
<rscale>  0 0.64903722E+03</rscale>
<asrwt>0</asrwt>
<pdfrwt beam="1">0</pdfrwt>
<pdfrwt beam="2">  1        2 0.38295473E+00 0.64903722E+03</pdfrwt>
<totfact> 0.46100582E+00</totfact>
</mgrwt>
</event>
<event>
 5    1  0.2368666E-004  0.6488602E+03  0.7818608E-02  0.9808920E-01
         13   -1    0    0    0    0  0.00000000000E+00  0.00000000000E+00  0.10000000000E+04  0.10000000000E+04  0.00000000000E+00 0. -1.
          2   -1    0    0  501    0 -0.00000000000E+00 -0.00000000000E+00 -0.10525489076E+03  0.10525489076E+03  0.00000000000E+00 0. -1.
    9000006    2    1    2  501    0  0.00000000000E+00  0.00000000000E+00  0.89474510924E+03  0.11052548908E+04  0.64886020301E+03 0.  0.
         13    1    3    3    0    0 -0.15477063889E+03  0.18622352518E+03  0.79577792051E+02  0.25488384998E+03  0.00000000000E+00 0. -1.
          4    1    3    3  501    0  0.15477063889E+03 -0.18622352518E+03  0.81516731719E+03  0.85037104078E+03  0.00000000000E+00 0. -1.
<mgrwt>
<rscale>  0 0.64886020E+03</rscale>
<asrwt>0</asrwt>
<pdfrwt beam="1">0</pdfrwt>
<pdfrwt beam="2">  1        2 0.38274586E+00 0.64886020E+03</pdfrwt>
<totfact> 0.46183277E+00</totfact>
</mgrwt>
</event>
<event>
 5    1  0.2368666E-004  0.6463659E+03  0.7818608E-02  0.9813622E-01
         13   -1    0    0    0    0  0.00000000000E+00  0.00000000000E+00  0.10000000000E+04  0.10000000000E+04  0.00000000000E+00 0. -1.
          2   -1    0    0  501    0 -0.00000000000E+00 -0.00000000000E+00 -0.10444721672E+03  0.10444721672E+03  0.00000000000E+00 0. -1.
    9000006    2    1    2  501    0  0.00000000000E+00  0.00000000000E+00  0.89555278328E+03  0.11044472167E+04  0.64636589241E+03 0.  0.
         13    1    3    3    0    0  0.23809010311E+03  0.15386612010E+02  0.82027192568E+03  0.85426557761E+03  0.00000000000E+00 0. -1.
          2    1    3    3  501    0 -0.23809010311E+03 -0.15386612010E+02  0.75280857602E+02  0.25018163911E+03  0.00000000000E+00 0. -1.
<mgrwt>
<rscale>  0 0.64636589E+03</rscale>
<asrwt>0</asrwt>
<pdfrwt beam="1">0</pdfrwt>
<pdfrwt beam="2">  1        2 0.37980886E+00 0.64636589E+03</pdfrwt>
<totfact> 0.47360476E+00</totfact>
</mgrwt>
</event>
<event>
 5    1  0.2368666E-004  0.6566406E+03  0.7818608E-02  0.9794398E-01
         13   -1    0    0    0    0  0.00000000000E+00  0.00000000000E+00  0.10000000000E+04  0.10000000000E+04  0.00000000000E+00 0. -1.
          2   -1    0    0  501    0 -0.00000000000E+00 -0.00000000000E+00 -0.10779420982E+03  0.10779420982E+03  0.00000000000E+00 0. -1.
    9000006    2    1    2  501    0  0.00000000000E+00  0.00000000000E+00  0.89220579018E+03  0.11077942098E+04  0.65664057084E+03 0.  0.
         13    1    3    3    0    0  0.15491935727E+03  0.50905789114E+01 -0.42179650325E+02  0.16063948503E+03  0.00000000000E+00 0. -1.
          4    1    3    3  501    0 -0.15491935727E+03 -0.50905789114E+01  0.93438544051E+03  0.94715472478E+03  0.00000000000E+00 0. -1.
<mgrwt>
<rscale>  0 0.65664057E+03</rscale>
<asrwt>0</asrwt>
<pdfrwt beam="1">0</pdfrwt>
<pdfrwt beam="2">  1        2 0.39197977E+00 0.65664057E+03</pdfrwt>
<totfact> 0.42652938E+00</totfact>
</mgrwt>
</event>
<event>
 5    1  0.2368666E-004  0.6561326E+03  0.7818608E-02  0.9795339E-01
         13   -1    0    0    0    0  0.00000000000E+00  0.00000000000E+00  0.10000000000E+04  0.10000000000E+04  0.00000000000E+00 0. -1.
          2   -1    0    0  501    0 -0.00000000000E+00 -0.00000000000E+00 -0.10762748621E+03  0.10762748621E+03  0.00000000000E+00 0. -1.
    9000006    2    1    2  501    0  0.00000000000E+00  0.00000000000E+00  0.89237251379E+03  0.11076274862E+04  0.65613256653E+03 0.  0.
         13    1    3    3    0    0  0.20960552167E+03  0.18296887328E+03  0.15274827633E+03  0.31740214118E+03  0.00000000000E+00 0. -1.
          4    1    3    3  501    0 -0.20960552167E+03 -0.18296887328E+03  0.73962423745E+03  0.79022534503E+03  0.00000000000E+00 0. -1.
<mgrwt>
<rscale>  0 0.65613257E+03</rscale>
<asrwt>0</asrwt>
<pdfrwt beam="1">0</pdfrwt>
<pdfrwt beam="2">  1        2 0.39137350E+00 0.65613257E+03</pdfrwt>
<totfact> 0.42877013E+00</totfact>
</mgrwt>
</event>
<event>
 5    1  0.2368666E-004  0.6591914E+03  0.7818608E-02  0.9789683E-01
         13   -1    0    0    0    0  0.00000000000E+00  0.00000000000E+00  0.10000000000E+04  0.10000000000E+04  0.00000000000E+00 0. -1.
          2   -1    0    0  501    0 -0.00000000000E+00 -0.00000000000E+00 -0.10863332328E+03  0.10863332328E+03  0.00000000000E+00 0. -1.
    9000006    2    1    2  501    0  0.00000000000E+00  0.00000000000E+00  0.89136667672E+03  0.11086333233E+04  0.65919139338E+03 0.  0.
         13    1    3    3    0    0  0.67923665939E+02  0.16305467044E+03  0.91367604785E+03  0.93059355809E+03  0.00000000000E+00 0. -1.
          4    1    3    3  501    0 -0.67923665939E+02 -0.16305467044E+03 -0.22309371127E+02  0.17803976519E+03  0.00000000000E+00 0. -1.
<mgrwt>
<rscale>  0 0.65919139E+03</rscale>
<asrwt>0</asrwt>
<pdfrwt beam="1">0</pdfrwt>
<pdfrwt beam="2">  1        2 0.39503110E+00 0.65919139E+03</pdfrwt>
<totfact> 0.41541171E+00</totfact>
</mgrwt>
</event>
<event>
 5    1  0.2368666E-004  0.6541859E+03  0.7818608E-02  0.9798956E-01
         13   -1    0    0    0    0  0.00000000000E+00  0.00000000000E+00  0.10000000000E+04  0.10000000000E+04  0.00000000000E+00 0. -1.
          2   -1    0    0  501    0 -0.00000000000E+00 -0.00000000000E+00 -0.10698978860E+03  0.10698978860E+03  0.00000000000E+00 0. -1.
    9000006    2    1    2  501    0  0.00000000000E+00  0.00000000000E+00  0.89301021140E+03  0.11069897886E+04  0.65418587146E+03 0.  0.
         13    1    3    3    0    0 -0.84511808607E+02  0.10487578600E+03 -0.57886417230E+02  0.14660154700E+03  0.00000000000E+00 0. -1.
          4    1    3    3  501    0  0.84511808607E+02 -0.10487578600E+03  0.95089662863E+03  0.96038824161E+03  0.00000000000E+00 0. -1.
<mgrwt>
<rscale>  0 0.65418587E+03</rscale>
<asrwt>0</asrwt>
<pdfrwt beam="1">0</pdfrwt>
<pdfrwt beam="2">  1        2 0.38905460E+00 0.65418587E+03</pdfrwt>
<totfact> 0.43743918E+00</totfact>
</mgrwt>
</event>
<event>
 5    1  0.2368666E-004  0.6207220E+03  0.7818608E-02  0.9863323E-01
         13   -1    0    0    0    0  0.00000000000E+00  0.00000000000E+00  0.10000000000E+04  0.10000000000E+04  0.00000000000E+00 0. -1.
          2   -1    0    0  501    0 -0.00000000000E+00 -0.00000000000E+00 -0.96323953892E+02  0.96323953892E+02  0.00000000000E+00 0. -1.
    9000006    2    1    2  501    0  0.00000000000E+00  0.00000000000E+00  0.90367604611E+03  0.10963239539E+04  0.62072201151E+03 0.  0.
         13    1    3    3    0    0 -0.26143265370E+03 -0.12374262197E+03  0.25307346252E+03  0.38432466268E+03  0.00000000000E+00 0. -1.
          2    1    3    3  501    0  0.26143265370E+03  0.12374262197E+03  0.65060258359E+03  0.71199929121E+03  0.00000000000E+00 0. -1.
<mgrwt>
<rscale>  0 0.62072201E+03</rscale>
<asrwt>0</asrwt>
<pdfrwt beam="1">0</pdfrwt>
<pdfrwt beam="2">  1        2 0.35026966E+00 0.62072201E+03</pdfrwt>
<totfact> 0.60828232E+00</totfact>
</mgrwt>
</event>
<event>
 5    1  0.2368666E-004  0.6663997E+03  0.7818608E-02  0.9776484E-01
         13   -1    0    0    0    0  0.00000000000E+00  0.00000000000E+00  0.10000000000E+04  0.10000000000E+04  0.00000000000E+00 0. -1.
          2   -1    0    0  501    0 -0.00000000000E+00 -0.00000000000E+00 -0.11102213547E+03  0.11102213547E+03  0.00000000000E+00 0. -1.
    9000006    2    1    2  501    0  0.00000000000E+00  0.00000000000E+00  0.88897786453E+03  0.11110221355E+04  0.66639968629E+03 0.  0.
         13    1    3    3    0    0 -0.15451180792E+03  0.49294507661E+02 -0.40773324601E+02  0.16723131068E+03  0.00000000000E+00 0. -1.
          4    1    3    3  501    0  0.15451180792E+03 -0.49294507661E+02  0.92975118913E+03  0.94379082479E+03  0.00000000000E+00 0. -1.
<mgrwt>
<rscale>  0 0.66639969E+03</rscale>
<asrwt>0</asrwt>
<pdfrwt beam="1">0</pdfrwt>
<pdfrwt beam="2">  1        2 0.40371771E+00 0.66639969E+03</pdfrwt>
<totfact> 0.38517628E+00</totfact>
</mgrwt>
</event>
<event>
 5    1  0.2368666E-004  0.6426174E+03  0.7818608E-02  0.9820731E-01
         13   -1    0    0    0    0  0.00000000000E+00  0.00000000000E+00  0.10000000000E+04  0.10000000000E+04  0.00000000000E+00 0. -1.
          2   -1    0    0  501    0 -0.00000000000E+00 -0.00000000000E+00 -0.10323929254E+03  0.10323929254E+03  0.00000000000E+00 0. -1.
    9000006    2    1    2  501    0  0.00000000000E+00  0.00000000000E+00  0.89676070746E+03  0.11032392925E+04  0.64261743686E+03 0.  0.
         13    1    3    3    0    0  0.30677403867E+03  0.25273108609E+02  0.60656979743E+03  0.68020288148E+03  0.00000000000E+00 0. -1.
          2    1    3    3  501    0 -0.30677403867E+03 -0.25273108609E+02  0.29019091003E+03  0.42303641106E+03  0.00000000000E+00 0. -1.
<mgrwt>
<rscale>  0 0.64261744E+03</rscale>
<asrwt>0</asrwt>
<pdfrwt beam="1">0</pdfrwt>
<pdfrwt beam="2">  1        2 0.37541640E+00 0.64261744E+03</pdfrwt>
<totfact> 0.49172094E+00</totfact>
</mgrwt>
</event>
<event>
 5    1  0.2368666E-004  0.6785112E+03  0.7818608E-02  0.9754703E-01
         13   -1    0    0    0    0  0.00000000000E+00  0.00000000000E+00  0.10000000000E+04  0.10000000000E+04  0.00000000000E+00 0. -1.
          2   -1    0    0  501    0 -0.00000000000E+00 -0.00000000000E+00 -0.11509434597E+03  0.11509434597E+03  0.00000000000E+00 0. -1.
    9000006    2    1    2  501    0  0.00000000000E+00  0.00000000000E+00  0.88490565403E+03  0.11150943460E+04  0.67851115235E+03 0.  0.
         13    1    3    3    0    0 -0.24565048256E+03 -0.23295900484E+03  0.47846967418E+03  0.58612906994E+03  0.00000000000E+00 0. -1.
          4    1    3    3  501    0  0.24565048256E+03  0.23295900484E+03  0.40643597986E+03  0.52896527603E+03  0.00000000000E+00 0. -1.
<mgrwt>
<rscale>  0 0.67851115E+03</rscale>
<asrwt>0</asrwt>
<pdfrwt beam="1">0</pdfrwt>
<pdfrwt beam="2">  1        2 0.41852578E+00 0.67851115E+03</pdfrwt>
<totfact> 0.33814696E+00</totfact>
</mgrwt>
</event>
<event>
 5    1  0.2368666E-004  0.6355212E+03  0.7818608E-02  0.9834333E-01
         13   -1    0    0    0    0  0.00000000000E+00  0.00000000000E+00  0.10000000000E+04  0.10000000000E+04  0.00000000000E+00 0. -1.
          2   -1    0    0  501    0 -0.00000000000E+00 -0.00000000000E+00 -0.10097180784E+03  0.10097180784E+03  0.00000000000E+00 0. -1.
    9000006    2    1    2  501    0  0.00000000000E+00  0.00000000000E+00  0.89902819216E+03  0.11009718078E+04  0.63552122810E+03 0.  0.
         13    1    3    3    0    0  0.67574533153E+02 -0.26761364517E+03  0.17676041352E+03  0.32776153587E+03  0.00000000000E+00 0. -1.
          4    1    3    3  501    0 -0.67574533153E+02  0.26761364517E+03  0.72226777864E+03  0.77321027197E+03  0.00000000000E+00 0. -1.
<mgrwt>
<rscale>  0 0.63552123E+03</rscale>
<asrwt>0</asrwt>
<pdfrwt beam="1">0</pdfrwt>
<pdfrwt beam="2">  1        2 0.36717098E+00 0.63552123E+03</pdfrwt>
<totfact> 0.52745184E+00</totfact>
</mgrwt>
</event>
<event>
 5    1  0.2368666E-004  0.6410074E+03  0.7818608E-02  0.9823801E-01
         13   -1    0    0    0    0  0.00000000000E+00  0.00000000000E+00  0.10000000000E+04  0.10000000000E+04  0.00000000000E+00 0. -1.
          2   -1    0    0  501    0 -0.00000000000E+00 -0.00000000000E+00 -0.10272261595E+03  0.10272261595E+03  0.00000000000E+00 0. -1.
    9000006    2    1    2  501    0  0.00000000000E+00  0.00000000000E+00  0.89727738405E+03  0.11027226159E+04  0.64100738202E+03 0.  0.
         13    1    3    3    0    0 -0.23176044291E+03 -0.17474590103E+03  0.68245716519E+03  0.74161770148E+03  0.00000000000E+00 0. -1.
          2    1    3    3  501    0  0.23176044291E+03  0.17474590103E+03  0.21482021886E+03  0.36110491447E+03  0.00000000000E+00 0. -1.
<mgrwt>
<rscale>  0 0.64100738E+03</rscale>
<asrwt>0</asrwt>
<pdfrwt beam="1">0</pdfrwt>
<pdfrwt beam="2">  1        2 0.37353757E+00 0.64100738E+03</pdfrwt>
<totfact> 0.49966198E+00</totfact>
</mgrwt>
</event>
<event>
 5    1  0.2368666E-004  0.6491587E+03  0.7818608E-02  0.9808359E-01
         13   -1    0    0    0    0  0.00000000000E+00  0.00000000000E+00  0.10000000000E+04  0.10000000000E+04  0.00000000000E+00 0. -1.
          2   -1    0    0  501    0 -0.00000000000E+00 -0.00000000000E+00 -0.10535176090E+03  0.10535176090E+03  0.00000000000E+00 0. -1.
    9000006    2    1    2  501    0  0.00000000000E+00  0.00000000000E+00  0.89464823910E+03  0.11053517609E+04  0.64915871990E+03 0.  0.
         13    1    3    3    0    0 -0.18792228629E+03  0.35705506526E+02  0.82135429324E+00  0.19128602537E+03  0.00000000000E+00 0. -1.
          4    1    3    3  501    0  0.18792228629E+03 -0.35705506526E+02  0.89382688480E+03  0.91406573553E+03  0.00000000000E+00 0. -1.
<mgrwt>
<rscale>  0 0.64915872E+03</rscale>
<asrwt>0</asrwt>
<pdfrwt beam="1">0</pdfrwt>
<pdfrwt beam="2">  1        2 0.38309812E+00 0.64915872E+03</pdfrwt>
<totfact> 0.46043888E+00</totfact>
</mgrwt>
</event>
<event>
 5    1  0.2368666E-004  0.6469771E+03  0.7818608E-02  0.9812468E-01
         13   -1    0    0    0    0  0.00000000000E+00  0.00000000000E+00  0.10000000000E+04  0.10000000000E+04  0.00000000000E+00 0. -1.
          2   -1    0    0  501    0 -0.00000000000E+00 -0.00000000000E+00 -0.10464485504E+03  0.10464485504E+03  0.00000000000E+00 0. -1.
    9000006    2    1    2  501    0  0.00000000000E+00  0.00000000000E+00  0.89535514496E+03  0.11046448550E+04  0.64697714036E+03 0.  0.
         13    1    3    3    0    0 -0.12387374801E+03 -0.69940724541E+02 -0.48373835907E+02  0.15025457861E+03  0.00000000000E+00 0. -1.
          4    1    3    3  501    0  0.12387374801E+03  0.69940724541E+02  0.94372898087E+03  0.95439027642E+03  0.00000000000E+00 0. -1.
<mgrwt>
<rscale>  0 0.64697714E+03</rscale>
<asrwt>0</asrwt>
<pdfrwt beam="1">0</pdfrwt>
<pdfrwt beam="2">  1        2 0.38052755E+00 0.64697714E+03</pdfrwt>
<totfact> 0.47069921E+00</totfact>
</mgrwt>
</event>
<event>
 5    1  0.2368666E-004  0.6492369E+03  0.7818608E-02  0.9808212E-01
         13   -1    0    0    0    0  0.00000000000E+00  0.00000000000E+00  0.10000000000E+04  0.10000000000E+04  0.00000000000E+00 0. -1.
          2   -1    0    0  501    0 -0.00000000000E+00 -0.00000000000E+00 -0.10537715123E+03  0.10537715123E+03  0.00000000000E+00 0. -1.
    9000006    2    1    2  501    0  0.00000000000E+00  0.00000000000E+00  0.89462284877E+03  0.11053771512E+04  0.64923694051E+03 0.  0.
         13    1    3    3    0    0 -0.87487951322E+02 -0.21798887313E+03  0.65827871169E+02  0.24393974472E+03  0.00000000000E+00 0. -1.
          2    1    3    3  501    0  0.87487951322E+02  0.21798887313E+03  0.82879497760E+03  0.86143740651E+03  0.00000000000E+00 0. -1.
<mgrwt>
<rscale>  0 0.64923694E+03</rscale>
<asrwt>0</asrwt>
<pdfrwt beam="1">0</pdfrwt>
<pdfrwt beam="2">  1        2 0.38319045E+00 0.64923694E+03</pdfrwt>
<totfact> 0.46007417E+00</totfact>
</mgrwt>
</event>
<event>
 5    1  0.2368666E-004  0.6479512E+03  0.7818608E-02  0.9810631E-01
         13   -1    0    0    0    0  0.00000000000E+00  0.00000000000E+00  0.10000000000E+04  0.10000000000E+04  0.00000000000E+00 0. -1.
          2   -1    0    0  501    0 -0.00000000000E+00 -0.00000000000E+00 -0.10496018397E+03  0.10496018397E+03  0.00000000000E+00 0. -1.
    9000006    2    1    2  501    0  0.00000000000E+00  0.00000000000E+00  0.89503981603E+03  0.11049601840E+04  0.64795118327E+03 0.  0.
         13    1    3    3    0    0  0.74228933011E+02  0.81478737543E+02  0.96704335787E+03  0.97330446171E+03  0.00000000000E+00 0. -1.
          2    1    3    3  501    0 -0.74228933011E+02 -0.81478737543E+02 -0.72003541847E+02  0.13165572227E+03  0.00000000000E+00 0. -1.
<mgrwt>
<rscale>  0 0.64795118E+03</rscale>
<asrwt>0</asrwt>
<pdfrwt beam="1">0</pdfrwt>
<pdfrwt beam="2">  1        2 0.38167420E+00 0.64795118E+03</pdfrwt>
<totfact> 0.46609699E+00</totfact>
</mgrwt>
</event>
<event>
 5    1  0.2368666E-004  0.6508257E+03  0.7818608E-02  0.9805231E-01
         13   -1    0    0    0    0  0.00000000000E+00  0.00000000000E+00  0.10000000000E+04  0.10000000000E+04  0.00000000000E+00 0. -1.
          2   -1    0    0  501    0 -0.00000000000E+00 -0.00000000000E+00 -0.10589353409E+03  0.10589353409E+03  0.00000000000E+00 0. -1.
    9000006    2    1    2  501    0  0.00000000000E+00  0.00000000000E+00  0.89410646591E+03  0.11058935341E+04  0.65082573424E+03 0.  0.
         13    1    3    3    0    0 -0.44426867896E+02  0.10548407705E+02 -0.10042278348E+03  0.11031659412E+03  0.00000000000E+00 0. -1.
          2    1    3    3  501    0  0.44426867896E+02 -0.10548407705E+02  0.99452924939E+03  0.99557693997E+03  0.00000000000E+00 0. -1.
<mgrwt>
<rscale>  0 0.65082573E+03</rscale>
<asrwt>0</asrwt>
<pdfrwt beam="1">0</pdfrwt>
<pdfrwt beam="2">  1        2 0.38506821E+00 0.65082573E+03</pdfrwt>
<totfact> 0.45271331E+00</totfact>
</mgrwt>
</event>
<event>
 5    1  0.2368666E-004  0.6572382E+03  0.7818608E-02  0.9793291E-01
         13   -1    0    0    0    0  0.00000000000E+00  0.00000000000E+00  0.10000000000E+04  0.10000000000E+04  0.00000000000E+00 0. -1.
          2   -1    0    0  501    0 -0.00000000000E+00 -0.00000000000E+00 -0.10799050886E+03  0.10799050886E+03  0.00000000000E+00 0. -1.
    9000006    2    1    2  501    0  0.00000000000E+00  0.00000000000E+00  0.89200949114E+03  0.11079905089E+04  0.65723818774E+03 0.  0.
         13    1    3    3    0    0 -0.13091209525E+03  0.17179950358E+02 -0.61307305280E+02  0.14557373753E+03  0.00000000000E+00 0. -1.
          4    1    3    3  501    0  0.13091209525E+03 -0.17179950358E+02  0.95331679643E+03  0.96241677132E+03  0.00000000000E+00 0. -1.
<mgrwt>
<rscale>  0 0.65723819E+03</rscale>
<asrwt>0</asrwt>
<pdfrwt beam="1">0</pdfrwt>
<pdfrwt beam="2">  1        2 0.39269359E+00 0.65723819E+03</pdfrwt>
<totfact> 0.42390470E+00</totfact>
</mgrwt>
</event>
<event>
 5    1  0.2368666E-004  0.6590486E+03  0.7818608E-02  0.9789947E-01
         13   -1    0    0    0    0  0.00000000000E+00  0.00000000000E+00  0.10000000000E+04  0.10000000000E+04  0.00000000000E+00 0. -1.
          2   -1    0    0  501    0 -0.00000000000E+00 -0.00000000000E+00 -0.10858627553E+03  0.10858627553E+03  0.00000000000E+00 0. -1.
    9000006    2    1    2  501    0  0.00000000000E+00  0.00000000000E+00  0.89141372447E+03  0.11085862755E+04  0.65904863412E+03 0.  0.
         13    1    3    3    0    0 -0.12994573813E+02 -0.39139994869E+02 -0.10422816722E+03  0.11209062846E+03  0.00000000000E+00 0. -1.
          4    1    3    3  501    0  0.12994573813E+02  0.39139994869E+02  0.99564189169E+03  0.99649564707E+03  0.00000000000E+00 0. -1.
<mgrwt>
<rscale>  0 0.65904863E+03</rscale>
<asrwt>0</asrwt>
<pdfrwt beam="1">0</pdfrwt>
<pdfrwt beam="2">  1        2 0.39486002E+00 0.65904863E+03</pdfrwt>
<totfact> 0.41602804E+00</totfact>
</mgrwt>
</event>
<event>
 5    1  0.2368666E-004  0.5990233E+03  0.7818608E-02  0.9907434E-01
         13   -1    0    0    0    0  0.00000000000E+00  0.00000000000E+00  0.10000000000E+04  0.10000000000E+04  0.00000000000E+00 0. -1.
          2   -1    0    0  501    0 -0.00000000000E+00 -0.00000000000E+00 -0.89707227579E+02  0.89707227579E+02  0.00000000000E+00 0. -1.
    9000006    2    1    2  501    0  0.00000000000E+00  0.00000000000E+00  0.91029277242E+03  0.10897072276E+04  0.59902329697E+03 0.  0.
         13    1    3    3    0    0  0.16790483592E+03  0.12160073695E+03  0.61907165649E+02  0.21635912348E+03  0.00000000000E+00 0. -1.
          2    1    3    3  501    0 -0.16790483592E+03 -0.12160073695E+03  0.84838560677E+03  0.87334810410E+03  0.00000000000E+00 0. -1.
<mgrwt>
<rscale>  0 0.59902330E+03</rscale>
<asrwt>0</asrwt>
<pdfrwt beam="1">0</pdfrwt>
<pdfrwt beam="2">  1        2 0.32620879E+00 0.59902330E+03</pdfrwt>
<totfact> 0.74346866E+00</totfact>
</mgrwt>
</event>
<event>
 5    1  0.2368666E-004  0.6776112E+03  0.7818608E-02  0.9756305E-01
         13   -1    0    0    0    0  0.00000000000E+00  0.00000000000E+00  0.10000000000E+04  0.10000000000E+04  0.00000000000E+00 0. -1.
          2   -1    0    0  501    0 -0.00000000000E+00 -0.00000000000E+00 -0.11478922397E+03  0.11478922397E+03  0.00000000000E+00 0. -1.
    9000006    2    1    2  501    0  0.00000000000E+00  0.00000000000E+00  0.88521077603E+03  0.11147892240E+04  0.67761116864E+03 0.  0.
         13    1    3    3    0    0  0.11856644077E+03  0.24926641475E+03  0.11939026857E+03  0.30074205331E+03  0.00000000000E+00 0. -1.
          4    1    3    3  501    0 -0.11856644077E+03 -0.24926641475E+03  0.76582050747E+03  0.81404717066E+03  0.00000000000E+00 0. -1.
<mgrwt>
<rscale>  0 0.67761117E+03</rscale>
<asrwt>0</asrwt>
<pdfrwt beam="1">0</pdfrwt>
<pdfrwt beam="2">  1        2 0.41741624E+00 0.67761117E+03</pdfrwt>
<totfact> 0.34148430E+00</totfact>
</mgrwt>
</event>
<event>
 5    1  0.2368666E-004  0.6412333E+03  0.7818608E-02  0.9823370E-01
         13   -1    0    0    0    0  0.00000000000E+00  0.00000000000E+00  0.10000000000E+04  0.10000000000E+04  0.00000000000E+00 0. -1.
          2   -1    0    0  501    0 -0.00000000000E+00 -0.00000000000E+00 -0.10279503609E+03  0.10279503609E+03  0.00000000000E+00 0. -1.
    9000006    2    1    2  501    0  0.00000000000E+00  0.00000000000E+00  0.89720496391E+03  0.11027950361E+04  0.64123329947E+03 0.  0.
         13    1    3    3    0    0 -0.13112159836E+03 -0.29197200628E+03  0.48098368882E+03  0.57774201415E+03  0.00000000000E+00 0. -1.
          2    1    3    3  501    0  0.13112159836E+03  0.29197200628E+03  0.41622127509E+03  0.52505302194E+03  0.00000000000E+00 0. -1.
<mgrwt>
<rscale>  0 0.64123330E+03</rscale>
<asrwt>0</asrwt>
<pdfrwt beam="1">0</pdfrwt>
<pdfrwt beam="2">  1        2 0.37380092E+00 0.64123330E+03</pdfrwt>
<totfact> 0.49854190E+00</totfact>
</mgrwt>
</event>
<event>
 5    1  0.2368666E-004  0.6529970E+03  0.7818608E-02  0.9801172E-01
         13   -1    0    0    0    0  0.00000000000E+00  0.00000000000E+00  0.10000000000E+04  0.10000000000E+04  0.00000000000E+00 0. -1.
          2   -1    0    0  501    0 -0.00000000000E+00 -0.00000000000E+00 -0.10660128509E+03  0.10660128509E+03  0.00000000000E+00 0. -1.
    9000006    2    1    2  501    0  0.00000000000E+00  0.00000000000E+00  0.89339871491E+03  0.11066012851E+04  0.65299704467E+03 0.  0.
         13    1    3    3    0    0 -0.21058656822E+03  0.24866021345E+03  0.41185871751E+03  0.52517255036E+03  0.00000000000E+00 0. -1.
          2    1    3    3  501    0  0.21058656822E+03 -0.24866021345E+03  0.48153999740E+03  0.58142873472E+03  0.00000000000E+00 0. -1.
<mgrwt>
<rscale>  0 0.65299704E+03</rscale>
<asrwt>0</asrwt>
<pdfrwt beam="1">0</pdfrwt>
<pdfrwt beam="2">  1        2 0.38764185E+00 0.65299704E+03</pdfrwt>
<totfact> 0.44279799E+00</totfact>
</mgrwt>
</event>
<event>
 5    1  0.2368666E-004  0.6542744E+03  0.7818608E-02  0.9798791E-01
         13   -1    0    0    0    0  0.00000000000E+00  0.00000000000E+00  0.10000000000E+04  0.10000000000E+04  0.00000000000E+00 0. -1.
          2   -1    0    0  501    0 -0.00000000000E+00 -0.00000000000E+00 -0.10701875606E+03  0.10701875606E+03  0.00000000000E+00 0. -1.
    9000006    2    1    2  501    0  0.00000000000E+00  0.00000000000E+00  0.89298124394E+03  0.11070187561E+04  0.65427442579E+03 0.  0.
         13    1    3    3    0    0  0.25742520667E+03  0.14091815947E+03  0.20192445002E+03  0.35622906706E+03  0.00000000000E+00 0. -1.
          2    1    3    3  501    0 -0.25742520667E+03 -0.14091815947E+03  0.69105679391E+03  0.75078968900E+03  0.00000000000E+00 0. -1.
<mgrwt>
<rscale>  0 0.65427443E+03</rscale>
<asrwt>0</asrwt>
<pdfrwt beam="1">0</pdfrwt>
<pdfrwt beam="2">  1        2 0.38915993E+00 0.65427443E+03</pdfrwt>
<totfact> 0.43704198E+00</totfact>
</mgrwt>
</event>
<event>
 5    1  0.2368666E-004  0.5107607E+03  0.7818608E-02  0.1011008E+00
         13   -1    0    0    0    0  0.00000000000E+00  0.00000000000E+00  0.10000000000E+04  0.10000000000E+04  0.00000000000E+00 0. -1.
          4   -1    0    0  501    0 -0.00000000000E+00 -0.00000000000E+00 -0.65219129361E+02  0.65219129361E+02  0.00000000000E+00 0. -1.
    9000006    2    1    2  501    0  0.00000000000E+00  0.00000000000E+00  0.93478087064E+03  0.10652191294E+04  0.51076072426E+03 0.  0.
         13    1    3    3    0    0  0.15807138792E+02  0.10208263256E+03  0.95448408821E+03  0.96005760460E+03  0.00000000000E+00 0. -1.
          4    1    3    3  501    0 -0.15807138792E+02 -0.10208263256E+03 -0.19703217571E+02  0.10516152476E+03  0.00000000000E+00 0. -1.
<mgrwt>
<rscale>  0 0.51076072E+03</rscale>
<asrwt>0</asrwt>
<pdfrwt beam="1">0</pdfrwt>
<pdfrwt beam="2">  1        4 0.23716097E+00 0.51076072E+03</pdfrwt>
<totfact> 0.34548887E-01</totfact>
</mgrwt>
</event>
<event>
 5    1  0.2368666E-004  0.6590491E+03  0.7818608E-02  0.9789946E-01
         13   -1    0    0    0    0  0.00000000000E+00  0.00000000000E+00  0.10000000000E+04  0.10000000000E+04  0.00000000000E+00 0. -1.
          2   -1    0    0  501    0 -0.00000000000E+00 -0.00000000000E+00 -0.10858643137E+03  0.10858643137E+03  0.00000000000E+00 0. -1.
    9000006    2    1    2  501    0  0.00000000000E+00  0.00000000000E+00  0.89141356863E+03  0.11085864314E+04  0.65904910705E+03 0.  0.
         13    1    3    3    0    0  0.30819804940E+03  0.41417788593E+02  0.26232733922E+03  0.40683793305E+03  0.00000000000E+00 0. -1.
          2    1    3    3  501    0 -0.30819804940E+03 -0.41417788593E+02  0.62908622941E+03  0.70174849832E+03  0.00000000000E+00 0. -1.
<mgrwt>
<rscale>  0 0.65904911E+03</rscale>
<asrwt>0</asrwt>
<pdfrwt beam="1">0</pdfrwt>
<pdfrwt beam="2">  1        2 0.39486058E+00 0.65904911E+03</pdfrwt>
<totfact> 0.41602600E+00</totfact>
</mgrwt>
</event>
<event>
 5    1  0.2368666E-004  0.6535615E+03  0.7818608E-02  0.9800119E-01
         13   -1    0    0    0    0  0.00000000000E+00  0.00000000000E+00  0.10000000000E+04  0.10000000000E+04  0.00000000000E+00 0. -1.
          2   -1    0    0  501    0 -0.00000000000E+00 -0.00000000000E+00 -0.10678564255E+03  0.10678564255E+03  0.00000000000E+00 0. -1.
    9000006    2    1    2  501    0  0.00000000000E+00  0.00000000000E+00  0.89321435745E+03  0.11067856426E+04  0.65356145098E+03 0.  0.
         13    1    3    3    0    0 -0.20822055697E+03  0.22886345028E+03  0.26858052977E+03  0.40971914795E+03  0.00000000000E+00 0. -1.
          2    1    3    3  501    0  0.20822055697E+03 -0.22886345028E+03  0.62463382768E+03  0.69706649461E+03  0.00000000000E+00 0. -1.
<mgrwt>
<rscale>  0 0.65356145E+03</rscale>
<asrwt>0</asrwt>
<pdfrwt beam="1">0</pdfrwt>
<pdfrwt beam="2">  1        2 0.38831225E+00 0.65356145E+03</pdfrwt>
<totfact> 0.44024770E+00</totfact>
</mgrwt>
</event>
<event>
 5    1  0.2368666E-004  0.6549839E+03  0.7818608E-02  0.9797472E-01
         13   -1    0    0    0    0  0.00000000000E+00  0.00000000000E+00  0.10000000000E+04  0.10000000000E+04  0.00000000000E+00 0. -1.
          2   -1    0    0  501    0 -0.00000000000E+00 -0.00000000000E+00 -0.10725097283E+03  0.10725097283E+03  0.00000000000E+00 0. -1.
    9000006    2    1    2  501    0  0.00000000000E+00  0.00000000000E+00  0.89274902717E+03  0.11072509728E+04  0.65498388630E+03 0.  0.
         13    1    3    3    0    0  0.13041418614E+03  0.25346426065E+03  0.71895428431E+03  0.77339980237E+03  0.00000000000E+00 0. -1.
          2    1    3    3  501    0 -0.13041418614E+03 -0.25346426065E+03  0.17379474286E+03  0.33385117046E+03  0.00000000000E+00 0. -1.
<mgrwt>
<rscale>  0 0.65498389E+03</rscale>
<asrwt>0</asrwt>
<pdfrwt beam="1">0</pdfrwt>
<pdfrwt beam="2">  1        2 0.39000436E+00 0.65498389E+03</pdfrwt>
<totfact> 0.43386960E+00</totfact>
</mgrwt>
</event>
<event>
 5    1  0.2368666E-004  0.6501152E+03  0.7818608E-02  0.9806563E-01
         13   -1    0    0    0    0  0.00000000000E+00  0.00000000000E+00  0.10000000000E+04  0.10000000000E+04  0.00000000000E+00 0. -1.
          2   -1    0    0  501    0 -0.00000000000E+00 -0.00000000000E+00 -0.10566242746E+03  0.10566242746E+03  0.00000000000E+00 0. -1.
    9000006    2    1    2  501    0  0.00000000000E+00  0.00000000000E+00  0.89433757254E+03  0.11056624275E+04  0.65011515120E+03 0.  0.
         13    1    3    3    0    0 -0.10042577009E+03 -0.24357161383E+03  0.12336193279E+03  0.29091344558E+03  0.00000000000E+00 0. -1.
          2    1    3    3  501    0  0.10042577009E+03  0.24357161383E+03  0.77097563976E+03  0.81474898187E+03  0.00000000000E+00 0. -1.
<mgrwt>
<rscale>  0 0.65011515E+03</rscale>
<asrwt>0</asrwt>
<pdfrwt beam="1">0</pdfrwt>
<pdfrwt beam="2">  1        2 0.38422782E+00 0.65011515E+03</pdfrwt>
<totfact> 0.45599434E+00</totfact>
</mgrwt>
</event>
<event>
 5    1  0.2368666E-004  0.6531919E+03  0.7818608E-02  0.9800808E-01
         13   -1    0    0    0    0  0.00000000000E+00  0.00000000000E+00  0.10000000000E+04  0.10000000000E+04  0.00000000000E+00 0. -1.
          2   -1    0    0  501    0 -0.00000000000E+00 -0.00000000000E+00 -0.10666492087E+03  0.10666492087E+03  0.00000000000E+00 0. -1.
    9000006    2    1    2  501    0  0.00000000000E+00  0.00000000000E+00  0.89333507913E+03  0.11066649209E+04  0.65319191932E+03 0.  0.
         13    1    3    3    0    0 -0.24955447438E+03  0.16224609626E+03  0.21895939246E+03  0.36951921057E+03  0.00000000000E+00 0. -1.
          4    1    3    3  501    0  0.24955447438E+03 -0.16224609626E+03  0.67437568667E+03  0.73714571030E+03  0.00000000000E+00 0. -1.
<mgrwt>
<rscale>  0 0.65319192E+03</rscale>
<asrwt>0</asrwt>
<pdfrwt beam="1">0</pdfrwt>
<pdfrwt beam="2">  1        2 0.38787326E+00 0.65319192E+03</pdfrwt>
<totfact> 0.44191618E+00</totfact>
</mgrwt>
</event>
<event>
 5    1  0.2368666E-004  0.6613418E+03  0.7818608E-02  0.9785727E-01
         13   -1    0    0    0    0  0.00000000000E+00  0.00000000000E+00  0.10000000000E+04  0.10000000000E+04  0.00000000000E+00 0. -1.
          2   -1    0    0  501    0 -0.00000000000E+00 -0.00000000000E+00 -0.10934324169E+03  0.10934324169E+03  0.00000000000E+00 0. -1.
    9000006    2    1    2  501    0  0.00000000000E+00  0.00000000000E+00  0.89065675831E+03  0.11093432417E+04  0.66134179270E+03 0.  0.
         13    1    3    3    0    0  0.21538144540E+03 -0.20263188333E+03  0.69353104596E+03  0.75394572674E+03  0.00000000000E+00 0. -1.
          2    1    3    3  501    0 -0.21538144540E+03  0.20263188333E+03  0.19712571235E+03  0.35539751495E+03  0.00000000000E+00 0. -1.
<mgrwt>
<rscale>  0 0.66134179E+03</rscale>
<asrwt>0</asrwt>
<pdfrwt beam="1">0</pdfrwt>
<pdfrwt beam="2">  1        2 0.39761263E+00 0.66134179E+03</pdfrwt>
<totfact> 0.40621092E+00</totfact>
</mgrwt>
</event>
<event>
 5    1  0.2368666E-004  0.6368589E+03  0.7818608E-02  0.9831755E-01
         13   -1    0    0    0    0  0.00000000000E+00  0.00000000000E+00  0.10000000000E+04  0.10000000000E+04  0.00000000000E+00 0. -1.
          2   -1    0    0  501    0 -0.00000000000E+00 -0.00000000000E+00 -0.10139730591E+03  0.10139730591E+03  0.00000000000E+00 0. -1.
    9000006    2    1    2  501    0  0.00000000000E+00  0.00000000000E+00  0.89860269409E+03  0.11013973059E+04  0.63685887263E+03 0.  0.
         13    1    3    3    0    0 -0.25106602544E+03 -0.19355622207E+03  0.50115935584E+03  0.59300831375E+03  0.00000000000E+00 0. -1.
          2    1    3    3  501    0  0.25106602544E+03  0.19355622207E+03  0.39744333825E+03  0.50838899216E+03  0.00000000000E+00 0. -1.
<mgrwt>
<rscale>  0 0.63685887E+03</rscale>
<asrwt>0</asrwt>
<pdfrwt beam="1">0</pdfrwt>
<pdfrwt beam="2">  1        2 0.36871825E+00 0.63685887E+03</pdfrwt>
<totfact> 0.52057077E+00</totfact>
</mgrwt>
</event>
<event>
 5    1  0.2368666E-004  0.6515252E+03  0.7818608E-02  0.9803922E-01
         13   -1    0    0    0    0  0.00000000000E+00  0.00000000000E+00  0.10000000000E+04  0.10000000000E+04  0.00000000000E+00 0. -1.
          2   -1    0    0  501    0 -0.00000000000E+00 -0.00000000000E+00 -0.10612126264E+03  0.10612126264E+03  0.00000000000E+00 0. -1.
    9000006    2    1    2  501    0  0.00000000000E+00  0.00000000000E+00  0.89387873736E+03  0.11061212626E+04  0.65152517263E+03 0.  0.
         13    1    3    3    0    0 -0.10705169933E+03 -0.15455043822E+03  0.89860035569E+03  0.91805691737E+03  0.00000000000E+00 0. -1.
          4    1    3    3  501    0  0.10705169933E+03  0.15455043822E+03 -0.47216183358E+01  0.18806434527E+03  0.00000000000E+00 0. -1.
<mgrwt>
<rscale>  0 0.65152517E+03</rscale>
<asrwt>0</asrwt>
<pdfrwt beam="1">0</pdfrwt>
<pdfrwt beam="2">  1        2 0.38589631E+00 0.65152517E+03</pdfrwt>
<totfact> 0.44950119E+00</totfact>
</mgrwt>
</event>
<event>
 5    1  0.2368666E-004  0.6346863E+03  0.7818608E-02  0.9835946E-01
         13   -1    0    0    0    0  0.00000000000E+00  0.00000000000E+00  0.10000000000E+04  0.10000000000E+04  0.00000000000E+00 0. -1.
          2   -1    0    0  501    0 -0.00000000000E+00 -0.00000000000E+00 -0.10070668835E+03  0.10070668835E+03  0.00000000000E+00 0. -1.
    9000006    2    1    2  501    0  0.00000000000E+00  0.00000000000E+00  0.89929331165E+03  0.11007066884E+04  0.63468634254E+03 0.  0.
         13    1    3    3    0    0 -0.31239188661E+03  0.49215777368E+02  0.40390033623E+03  0.51297793828E+03  0.00000000000E+00 0. -1.
          2    1    3    3  501    0  0.31239188661E+03 -0.49215777368E+02  0.49539297542E+03  0.58772875007E+03  0.00000000000E+00 0. -1.
<mgrwt>
<rscale>  0 0.63468634E+03</rscale>
<asrwt>0</asrwt>
<pdfrwt beam="1">0</pdfrwt>
<pdfrwt beam="2">  1        2 0.36620691E+00 0.63468634E+03</pdfrwt>
<totfact> 0.53178144E+00</totfact>
</mgrwt>
</event>
<event>
 5    1  0.2368666E-004  0.6477828E+03  0.7818608E-02  0.9810949E-01
         13   -1    0    0    0    0  0.00000000000E+00  0.00000000000E+00  0.10000000000E+04  0.10000000000E+04  0.00000000000E+00 0. -1.
          2   -1    0    0  501    0 -0.00000000000E+00 -0.00000000000E+00 -0.10490563793E+03  0.10490563793E+03  0.00000000000E+00 0. -1.
    9000006    2    1    2  501    0  0.00000000000E+00  0.00000000000E+00  0.89509436207E+03  0.11049056379E+04  0.64778279672E+03 0.  0.
         13    1    3    3    0    0 -0.31189319501E+03 -0.45377365145E+02  0.32025816707E+03  0.44933480161E+03  0.00000000000E+00 0. -1.
          2    1    3    3  501    0  0.31189319501E+03  0.45377365145E+02  0.57483619499E+03  0.65557083632E+03  0.00000000000E+00 0. -1.
<mgrwt>
<rscale>  0 0.64778280E+03</rscale>
<asrwt>0</asrwt>
<pdfrwt beam="1">0</pdfrwt>
<pdfrwt beam="2">  1        2 0.38147585E+00 0.64778280E+03</pdfrwt>
<totfact> 0.46689015E+00</totfact>
</mgrwt>
</event>
<event>
 5    1  0.2368666E-004  0.6887313E+03  0.7818608E-02  0.9736700E-01
         13   -1    0    0    0    0  0.00000000000E+00  0.00000000000E+00  0.10000000000E+04  0.10000000000E+04  0.00000000000E+00 0. -1.
          2   -1    0    0  501    0 -0.00000000000E+00 -0.00000000000E+00 -0.11858768513E+03  0.11858768513E+03  0.00000000000E+00 0. -1.
    9000006    2    1    2  501    0  0.00000000000E+00  0.00000000000E+00  0.88141231487E+03  0.11185876851E+04  0.68873125422E+03 0.  0.
         13    1    3    3    0    0 -0.22076335905E+03 -0.20453888523E+03  0.71254786494E+03  0.77349665552E+03  0.00000000000E+00 0. -1.
          4    1    3    3  501    0  0.22076335905E+03  0.20453888523E+03  0.16886444993E+03  0.34509102962E+03  0.00000000000E+00 0. -1.
<mgrwt>
<rscale>  0 0.68873125E+03</rscale>
<asrwt>0</asrwt>
<pdfrwt beam="1">0</pdfrwt>
<pdfrwt beam="2">  1        2 0.43122886E+00 0.68873125E+03</pdfrwt>
<totfact> 0.30194593E+00</totfact>
</mgrwt>
</event>
<event>
 5    1  0.2368666E-004  0.6620884E+03  0.7818608E-02  0.9784357E-01
         13   -1    0    0    0    0  0.00000000000E+00  0.00000000000E+00  0.10000000000E+04  0.10000000000E+04  0.00000000000E+00 0. -1.
          2   -1    0    0  501    0 -0.00000000000E+00 -0.00000000000E+00 -0.10959026218E+03  0.10959026218E+03  0.00000000000E+00 0. -1.
    9000006    2    1    2  501    0  0.00000000000E+00  0.00000000000E+00  0.89040973782E+03  0.11095902622E+04  0.66208839947E+03 0.  0.
         13    1    3    3    0    0 -0.11454242218E+03 -0.23241738288E+03  0.79050605290E+03  0.83188798886E+03  0.00000000000E+00 0. -1.
          4    1    3    3  501    0  0.11454242218E+03  0.23241738288E+03  0.99903684925E+02  0.27770227332E+03  0.00000000000E+00 0. -1.
<mgrwt>
<rscale>  0 0.66208840E+03</rscale>
<asrwt>0</asrwt>
<pdfrwt beam="1">0</pdfrwt>
<pdfrwt beam="2">  1        2 0.39851088E+00 0.66208840E+03</pdfrwt>
<totfact> 0.40305271E+00</totfact>
</mgrwt>
</event>
<event>
 5    1  0.2368666E-004  0.6441227E+03  0.7818608E-02  0.9817870E-01
         13   -1    0    0    0    0  0.00000000000E+00  0.00000000000E+00  0.10000000000E+04  0.10000000000E+04  0.00000000000E+00 0. -1.
          2   -1    0    0  501    0 -0.00000000000E+00 -0.00000000000E+00 -0.10372351021E+03  0.10372351021E+03  0.00000000000E+00 0. -1.
    9000006    2    1    2  501    0  0.00000000000E+00  0.00000000000E+00  0.89627648979E+03  0.11037235102E+04  0.64412269082E+03 0.  0.
         13    1    3    3    0    0  0.19120788517E+03  0.19512777116E+03  0.74038532237E+03  0.78918041537E+03  0.00000000000E+00 0. -1.
          4    1    3    3  501    0 -0.19120788517E+03 -0.19512777116E+03  0.15589116742E+03  0.31454309483E+03  0.00000000000E+00 0. -1.
<mgrwt>
<rscale>  0 0.64412269E+03</rscale>
<asrwt>0</asrwt>
<pdfrwt beam="1">0</pdfrwt>
<pdfrwt beam="2">  1        2 0.37717720E+00 0.64412269E+03</pdfrwt>
<totfact> 0.48438419E+00</totfact>
</mgrwt>
</event>
<event>
 5    1  0.2368666E-004  0.6419890E+03  0.7818608E-02  0.9821929E-01
         13   -1    0    0    0    0  0.00000000000E+00  0.00000000000E+00  0.10000000000E+04  0.10000000000E+04  0.00000000000E+00 0. -1.
          2   -1    0    0  501    0 -0.00000000000E+00 -0.00000000000E+00 -0.10303745996E+03  0.10303745996E+03  0.00000000000E+00 0. -1.
    9000006    2    1    2  501    0  0.00000000000E+00  0.00000000000E+00  0.89696254004E+03  0.11030374600E+04  0.64198897175E+03 0.  0.
         13    1    3    3    0    0  0.27663956943E+03 -0.12618328609E+03  0.62525766273E+03  0.69526888171E+03  0.00000000000E+00 0. -1.
          4    1    3    3  501    0 -0.27663956943E+03  0.12618328609E+03  0.27170487731E+03  0.40776857826E+03  0.00000000000E+00 0. -1.
<mgrwt>
<rscale>  0 0.64198897E+03</rscale>
<asrwt>0</asrwt>
<pdfrwt beam="1">0</pdfrwt>
<pdfrwt beam="2">  1        2 0.37468246E+00 0.64198897E+03</pdfrwt>
<totfact> 0.49480917E+00</totfact>
</mgrwt>
</event>
<event>
 5    1  0.2368666E-004  0.6044806E+03  0.7818608E-02  0.9896154E-01
         13   -1    0    0    0    0  0.00000000000E+00  0.00000000000E+00  0.10000000000E+04  0.10000000000E+04  0.00000000000E+00 0. -1.
          2   -1    0    0  501    0 -0.00000000000E+00 -0.00000000000E+00 -0.91349197285E+02  0.91349197285E+02  0.00000000000E+00 0. -1.
    9000006    2    1    2  501    0  0.00000000000E+00  0.00000000000E+00  0.90865080271E+03  0.10913491973E+04  0.60448059451E+03 0.  0.
         13    1    3    3    0    0  0.48363031251E+02 -0.23798554834E+03  0.77916836890E+03  0.81613690708E+03  0.00000000000E+00 0. -1.
          2    1    3    3  501    0 -0.48363031251E+02  0.23798554834E+03  0.12948243382E+03  0.27521229020E+03  0.00000000000E+00 0. -1.
<mgrwt>
<rscale>  0 0.60448059E+03</rscale>
<asrwt>0</asrwt>
<pdfrwt beam="1">0</pdfrwt>
<pdfrwt beam="2">  1        2 0.33217960E+00 0.60448059E+03</pdfrwt>
<totfact> 0.70749964E+00</totfact>
</mgrwt>
</event>
<event>
 5    1  0.2368666E-004  0.5592953E+03  0.7818608E-02  0.9993651E-01
         13   -1    0    0    0    0  0.00000000000E+00  0.00000000000E+00  0.10000000000E+04  0.10000000000E+04  0.00000000000E+00 0. -1.
          2   -1    0    0  501    0 -0.00000000000E+00 -0.00000000000E+00 -0.78202797967E+02  0.78202797967E+02  0.00000000000E+00 0. -1.
    9000006    2    1    2  501    0  0.00000000000E+00  0.00000000000E+00  0.92179720203E+03  0.10782027980E+04  0.55929526358E+03 0.  0.
         13    1    3    3    0    0 -0.80284628159E+00 -0.27803355189E+03  0.51871609654E+03  0.58853180827E+03  0.00000000000E+00 0. -1.
          4    1    3    3  501    0  0.80284628159E+00  0.27803355189E+03  0.40308110549E+03  0.48967098969E+03  0.00000000000E+00 0. -1.
<mgrwt>
<rscale>  0 0.55929526E+03</rscale>
<asrwt>0</asrwt>
<pdfrwt beam="1">0</pdfrwt>
<pdfrwt beam="2">  1        2 0.28437441E+00 0.55929526E+03</pdfrwt>
<totfact> 0.10499898E+01</totfact>
</mgrwt>
</event>
<event>
 5    1  0.2368666E-004  0.6513157E+03  0.7818608E-02  0.9804314E-01
         13   -1    0    0    0    0  0.00000000000E+00  0.00000000000E+00  0.10000000000E+04  0.10000000000E+04  0.00000000000E+00 0. -1.
          2   -1    0    0  501    0 -0.00000000000E+00 -0.00000000000E+00 -0.10605302829E+03  0.10605302829E+03  0.00000000000E+00 0. -1.
    9000006    2    1    2  501    0  0.00000000000E+00  0.00000000000E+00  0.89394697171E+03  0.11060530283E+04  0.65131567859E+03 0.  0.
         13    1    3    3    0    0 -0.13747143862E+03  0.96619244359E+02  0.92070058146E+03  0.93590770673E+03  0.00000000000E+00 0. -1.
          2    1    3    3  501    0  0.13747143862E+03 -0.96619244359E+02 -0.26753609752E+02  0.17014532157E+03  0.00000000000E+00 0. -1.
<mgrwt>
<rscale>  0 0.65131568E+03</rscale>
<asrwt>0</asrwt>
<pdfrwt beam="1">0</pdfrwt>
<pdfrwt beam="2">  1        2 0.38564819E+00 0.65131568E+03</pdfrwt>
<totfact> 0.45046146E+00</totfact>
</mgrwt>
</event>
<event>
 5    1  0.2368666E-004  0.6564987E+03  0.7818608E-02  0.9794661E-01
         13   -1    0    0    0    0  0.00000000000E+00  0.00000000000E+00  0.10000000000E+04  0.10000000000E+04  0.00000000000E+00 0. -1.
          2   -1    0    0  501    0 -0.00000000000E+00 -0.00000000000E+00 -0.10774762913E+03  0.10774762913E+03  0.00000000000E+00 0. -1.
    9000006    2    1    2  501    0  0.00000000000E+00  0.00000000000E+00  0.89225237087E+03  0.11077476291E+04  0.65649867974E+03 0.  0.
         13    1    3    3    0    0  0.13331234098E+03  0.26863865665E+03  0.67130282700E+03  0.73524580491E+03  0.00000000000E+00 0. -1.
          4    1    3    3  501    0 -0.13331234098E+03 -0.26863865665E+03  0.22094954388E+03  0.37250182421E+03  0.00000000000E+00 0. -1.
<mgrwt>
<rscale>  0 0.65649868E+03</rscale>
<asrwt>0</asrwt>
<pdfrwt beam="1">0</pdfrwt>
<pdfrwt beam="2">  1        2 0.39181039E+00 0.65649868E+03</pdfrwt>
<totfact> 0.42715436E+00</totfact>
</mgrwt>
</event>
<event>
 5    1  0.2368666E-004  0.6544340E+03  0.7818608E-02  0.9798495E-01
         13   -1    0    0    0    0  0.00000000000E+00  0.00000000000E+00  0.10000000000E+04  0.10000000000E+04  0.00000000000E+00 0. -1.
          2   -1    0    0  501    0 -0.00000000000E+00 -0.00000000000E+00 -0.10707096166E+03  0.10707096166E+03  0.00000000000E+00 0. -1.
    9000006    2    1    2  501    0  0.00000000000E+00  0.00000000000E+00  0.89292903834E+03  0.11070709617E+04  0.65443398951E+03 0.  0.
         13    1    3    3    0    0  0.24474576227E+03  0.10392402154E+03  0.12385076263E+03  0.29332524918E+03  0.00000000000E+00 0. -1.
          2    1    3    3  501    0 -0.24474576227E+03 -0.10392402154E+03  0.76907827571E+03  0.81374571248E+03  0.00000000000E+00 0. -1.
<mgrwt>
<rscale>  0 0.65443399E+03</rscale>
<asrwt>0</asrwt>
<pdfrwt beam="1">0</pdfrwt>
<pdfrwt beam="2">  1        2 0.38934977E+00 0.65443399E+03</pdfrwt>
<totfact> 0.43632696E+00</totfact>
</mgrwt>
</event>
<event>
 5    1  0.2368666E-004  0.6473576E+03  0.7818608E-02  0.9811750E-01
         13   -1    0    0    0    0  0.00000000000E+00  0.00000000000E+00  0.10000000000E+04  0.10000000000E+04  0.00000000000E+00 0. -1.
          2   -1    0    0  501    0 -0.00000000000E+00 -0.00000000000E+00 -0.10476796427E+03  0.10476796427E+03  0.00000000000E+00 0. -1.
    9000006    2    1    2  501    0  0.00000000000E+00  0.00000000000E+00  0.89523203573E+03  0.11047679643E+04  0.64735759598E+03 0.  0.
         13    1    3    3    0    0 -0.13065236290E+01  0.25985311939E+03  0.77695785179E+03  0.81926116356E+03  0.00000000000E+00 0. -1.
          4    1    3    3  501    0  0.13065236290E+01 -0.25985311939E+03  0.11827418394E+03  0.28550680071E+03  0.00000000000E+00 0. -1.
<mgrwt>
<rscale>  0 0.64735760E+03</rscale>
<asrwt>0</asrwt>
<pdfrwt beam="1">0</pdfrwt>
<pdfrwt beam="2">  1        2 0.38097522E+00 0.64735760E+03</pdfrwt>
<totfact> 0.46889754E+00</totfact>
</mgrwt>
</event>
<event>
 5    1  0.2368666E-004  0.6453456E+03  0.7818608E-02  0.9815552E-01
         13   -1    0    0    0    0  0.00000000000E+00  0.00000000000E+00  0.10000000000E+04  0.10000000000E+04  0.00000000000E+00 0. -1.
          2   -1    0    0  501    0 -0.00000000000E+00 -0.00000000000E+00 -0.10411772610E+03  0.10411772610E+03  0.00000000000E+00 0. -1.
    9000006    2    1    2  501    0  0.00000000000E+00  0.00000000000E+00  0.89588227390E+03  0.11041177261E+04  0.64534556975E+03 0.  0.
         13    1    3    3    0    0 -0.24563859341E+03 -0.15509275049E+02  0.90946554514E+02  0.26239308673E+03  0.00000000000E+00 0. -1.
          2    1    3    3  501    0  0.24563859341E+03  0.15509275049E+02  0.80493571939E+03  0.84172463937E+03  0.00000000000E+00 0. -1.
<mgrwt>
<rscale>  0 0.64534557E+03</rscale>
<asrwt>0</asrwt>
<pdfrwt beam="1">0</pdfrwt>
<pdfrwt beam="2">  1        2 0.37861071E+00 0.64534557E+03</pdfrwt>
<totfact> 0.47848504E+00</totfact>
</mgrwt>
</event>
<event>
 5    1  0.2368666E-004  0.6583513E+03  0.7818608E-02  0.9791234E-01
         13   -1    0    0    0    0  0.00000000000E+00  0.00000000000E+00  0.10000000000E+04  0.10000000000E+04  0.00000000000E+00 0. -1.
          2   -1    0    0  501    0 -0.00000000000E+00 -0.00000000000E+00 -0.10835660921E+03  0.10835660921E+03  0.00000000000E+00 0. -1.
    9000006    2    1    2  501    0  0.00000000000E+00  0.00000000000E+00  0.89164339079E+03  0.11083566092E+04  0.65835130200E+03 0.  0.
         13    1    3    3    0    0  0.10023558437E+03 -0.31290872824E+03  0.47938971234E+03  0.58118288075E+03  0.00000000000E+00 0. -1.
          2    1    3    3  501    0 -0.10023558437E+03  0.31290872824E+03  0.41225367845E+03  0.52717372846E+03  0.00000000000E+00 0. -1.
<mgrwt>
<rscale>  0 0.65835130E+03</rscale>
<asrwt>0</asrwt>
<pdfrwt beam="1">0</pdfrwt>
<pdfrwt beam="2">  1        2 0.39402486E+00 0.65835130E+03</pdfrwt>
<totfact> 0.41904856E+00</totfact>
</mgrwt>
</event>
<event>
 5    1  0.2368666E-004  0.6037587E+03  0.7818608E-02  0.9897638E-01
         13   -1    0    0    0    0  0.00000000000E+00  0.00000000000E+00  0.10000000000E+04  0.10000000000E+04  0.00000000000E+00 0. -1.
          2   -1    0    0  501    0 -0.00000000000E+00 -0.00000000000E+00 -0.91131153863E+02  0.91131153863E+02  0.00000000000E+00 0. -1.
    9000006    2    1    2  501    0  0.00000000000E+00  0.00000000000E+00  0.90886884614E+03  0.10911311539E+04  0.60375873944E+03 0.  0.
         13    1    3    3    0    0  0.27570926783E+03 -0.11884056714E+03  0.51136858040E+03  0.59298946516E+03  0.00000000000E+00 0. -1.
          4    1    3    3  501    0 -0.27570926783E+03  0.11884056714E+03  0.39750026573E+03  0.49814168870E+03  0.00000000000E+00 0. -1.
<mgrwt>
<rscale>  0 0.60375874E+03</rscale>
<asrwt>0</asrwt>
<pdfrwt beam="1">0</pdfrwt>
<pdfrwt beam="2">  1        2 0.33138671E+00 0.60375874E+03</pdfrwt>
<totfact> 0.71217924E+00</totfact>
</mgrwt>
</event>
<event>
 5    1  0.2368666E-004  0.6397147E+03  0.7818608E-02  0.9826273E-01
         13   -1    0    0    0    0  0.00000000000E+00  0.00000000000E+00  0.10000000000E+04  0.10000000000E+04  0.00000000000E+00 0. -1.
          2   -1    0    0  501    0 -0.00000000000E+00 -0.00000000000E+00 -0.10230871447E+03  0.10230871447E+03  0.00000000000E+00 0. -1.
    9000006    2    1    2  501    0  0.00000000000E+00  0.00000000000E+00  0.89769128553E+03  0.11023087145E+04  0.63971466913E+03 0.  0.
         13    1    3    3    0    0  0.47299770375E+02  0.28656294472E+03  0.67972598503E+03  0.73917724822E+03  0.00000000000E+00 0. -1.
          4    1    3    3  501    0 -0.47299770375E+02 -0.28656294472E+03  0.21796530050E+03  0.36313146625E+03  0.00000000000E+00 0. -1.
<mgrwt>
<rscale>  0 0.63971467E+03</rscale>
<asrwt>0</asrwt>
<pdfrwt beam="1">0</pdfrwt>
<pdfrwt beam="2">  1        2 0.37203247E+00 0.63971467E+03</pdfrwt>
<totfact> 0.50610781E+00</totfact>
</mgrwt>
</event>
<event>
 5    1  0.2368666E-004  0.6504133E+03  0.7818608E-02  0.9806004E-01
         13   -1    0    0    0    0  0.00000000000E+00  0.00000000000E+00  0.10000000000E+04  0.10000000000E+04  0.00000000000E+00 0. -1.
          2   -1    0    0  501    0 -0.00000000000E+00 -0.00000000000E+00 -0.10575937779E+03  0.10575937779E+03  0.00000000000E+00 0. -1.
    9000006    2    1    2  501    0  0.00000000000E+00  0.00000000000E+00  0.89424062221E+03  0.11057593778E+04  0.65041333869E+03 0.  0.
         13    1    3    3    0    0 -0.22597325504E+03 -0.18807666097E+03  0.21079819241E+03  0.36176321029E+03  0.00000000000E+00 0. -1.
          2    1    3    3  501    0  0.22597325504E+03  0.18807666097E+03  0.68344242980E+03  0.74399616750E+03  0.00000000000E+00 0. -1.
<mgrwt>
<rscale>  0 0.65041334E+03</rscale>
<asrwt>0</asrwt>
<pdfrwt beam="1">0</pdfrwt>
<pdfrwt beam="2">  1        2 0.38458037E+00 0.65041334E+03</pdfrwt>
<totfact> 0.45461531E+00</totfact>
</mgrwt>
</event>
<event>
 5    1  0.2368666E-004  0.5993959E+03  0.7818608E-02  0.9906660E-01
         13   -1    0    0    0    0  0.00000000000E+00  0.00000000000E+00  0.10000000000E+04  0.10000000000E+04  0.00000000000E+00 0. -1.
          2   -1    0    0  501    0 -0.00000000000E+00 -0.00000000000E+00 -0.89818864265E+02  0.89818864265E+02  0.00000000000E+00 0. -1.
    9000006    2    1    2  501    0  0.00000000000E+00  0.00000000000E+00  0.91018113574E+03  0.10898188643E+04  0.59939591011E+03 0.  0.
         13    1    3    3    0    0 -0.29637734088E+03  0.35503697866E+02  0.50383799333E+03  0.58562169040E+03  0.00000000000E+00 0. -1.
          4    1    3    3  501    0  0.29637734088E+03 -0.35503697866E+02  0.40634314241E+03  0.50419717386E+03  0.00000000000E+00 0. -1.
<mgrwt>
<rscale>  0 0.59939591E+03</rscale>
<asrwt>0</asrwt>
<pdfrwt beam="1">0</pdfrwt>
<pdfrwt beam="2">  1        2 0.32661474E+00 0.59939591E+03</pdfrwt>
<totfact> 0.74096913E+00</totfact>
</mgrwt>
</event>
<event>
 5    1  0.2368666E-004  0.6301578E+03  0.7818608E-02  0.9844741E-01
         13   -1    0    0    0    0  0.00000000000E+00  0.00000000000E+00  0.10000000000E+04  0.10000000000E+04  0.00000000000E+00 0. -1.
          2   -1    0    0  501    0 -0.00000000000E+00 -0.00000000000E+00 -0.99274699080E+02  0.99274699080E+02  0.00000000000E+00 0. -1.
    9000006    2    1    2  501    0  0.00000000000E+00  0.00000000000E+00  0.90072530092E+03  0.10992746991E+04  0.63015775511E+03 0.  0.
         13    1    3    3    0    0 -0.31451534035E+03 -0.11220697415E+02  0.42397043913E+03  0.52801206105E+03  0.00000000000E+00 0. -1.
          4    1    3    3  501    0  0.31451534035E+03  0.11220697415E+02  0.47675486179E+03  0.57126263803E+03  0.00000000000E+00 0. -1.
<mgrwt>
<rscale>  0 0.63015776E+03</rscale>
<asrwt>0</asrwt>
<pdfrwt beam="1">0</pdfrwt>
<pdfrwt beam="2">  1        2 0.36099967E+00 0.63015776E+03</pdfrwt>
<totfact> 0.55573764E+00</totfact>
</mgrwt>
</event>
<event>
 5    1  0.2368666E-004  0.6519894E+03  0.7818608E-02  0.9803053E-01
         13   -1    0    0    0    0  0.00000000000E+00  0.00000000000E+00  0.10000000000E+04  0.10000000000E+04  0.00000000000E+00 0. -1.
          2   -1    0    0  501    0 -0.00000000000E+00 -0.00000000000E+00 -0.10627253723E+03  0.10627253723E+03  0.00000000000E+00 0. -1.
    9000006    2    1    2  501    0  0.00000000000E+00  0.00000000000E+00  0.89372746277E+03  0.11062725372E+04  0.65198937792E+03 0.  0.
         13    1    3    3    0    0  0.12115114162E+03 -0.73103763803E+02  0.94517776859E+03  0.95571061187E+03  0.00000000000E+00 0. -1.
          2    1    3    3  501    0 -0.12115114162E+03  0.73103763803E+02 -0.51450305825E+02  0.15056192536E+03  0.00000000000E+00 0. -1.
<mgrwt>
<rscale>  0 0.65198938E+03</rscale>
<asrwt>0</asrwt>
<pdfrwt beam="1">0</pdfrwt>
<pdfrwt beam="2">  1        2 0.38644640E+00 0.65198938E+03</pdfrwt>
<totfact> 0.44737889E+00</totfact>
</mgrwt>
</event>
<event>
 5    1  0.2368666E-004  0.6509740E+03  0.7818608E-02  0.9804953E-01
         13   -1    0    0    0    0  0.00000000000E+00  0.00000000000E+00  0.10000000000E+04  0.10000000000E+04  0.00000000000E+00 0. -1.
          2   -1    0    0  501    0 -0.00000000000E+00 -0.00000000000E+00 -0.10594177978E+03  0.10594177978E+03  0.00000000000E+00 0. -1.
    9000006    2    1    2  501    0  0.00000000000E+00  0.00000000000E+00  0.89405822022E+03  0.11059417798E+04  0.65097397731E+03 0.  0.
         13    1    3    3    0    0 -0.64994391628E+02  0.31817605105E+03  0.48430869011E+03  0.58310820413E+03  0.00000000000E+00 0. -1.
          2    1    3    3  501    0  0.64994391628E+02 -0.31817605105E+03  0.40974953010E+03  0.52283357565E+03  0.00000000000E+00 0. -1.
<mgrwt>
<rscale>  0 0.65097398E+03</rscale>
<asrwt>0</asrwt>
<pdfrwt beam="1">0</pdfrwt>
<pdfrwt beam="2">  1        2 0.38524365E+00 0.65097398E+03</pdfrwt>
<totfact> 0.45203107E+00</totfact>
</mgrwt>
</event>
<event>
 5    1  0.2368666E-004  0.6725297E+03  0.7818608E-02  0.9765399E-01
         13   -1    0    0    0    0  0.00000000000E+00  0.00000000000E+00  0.10000000000E+04  0.10000000000E+04  0.00000000000E+00 0. -1.
          2   -1    0    0  501    0 -0.00000000000E+00 -0.00000000000E+00 -0.11307405462E+03  0.11307405462E+03  0.00000000000E+00 0. -1.
    9000006    2    1    2  501    0  0.00000000000E+00  0.00000000000E+00  0.88692594538E+03  0.11130740546E+04  0.67252971569E+03 0.  0.
         13    1    3    3    0    0  0.16076426934E+03 -0.97531224366E+02 -0.17928303281E+02  0.18888862878E+03  0.00000000000E+00 0. -1.
          2    1    3    3  501    0 -0.16076426934E+03  0.97531224366E+02  0.90485424866E+03  0.92418542584E+03  0.00000000000E+00 0. -1.
<mgrwt>
<rscale>  0 0.67252972E+03</rscale>
<asrwt>0</asrwt>
<pdfrwt beam="1">0</pdfrwt>
<pdfrwt beam="2">  1        2 0.41117925E+00 0.67252972E+03</pdfrwt>
<totfact> 0.36079576E+00</totfact>
</mgrwt>
</event>
<event>
 5    1  0.2368666E-004  0.6477089E+03  0.7818608E-02  0.9811088E-01
         13   -1    0    0    0    0  0.00000000000E+00  0.00000000000E+00  0.10000000000E+04  0.10000000000E+04  0.00000000000E+00 0. -1.
          2   -1    0    0  501    0 -0.00000000000E+00 -0.00000000000E+00 -0.10488169994E+03  0.10488169994E+03  0.00000000000E+00 0. -1.
    9000006    2    1    2  501    0  0.00000000000E+00  0.00000000000E+00  0.89511830006E+03  0.11048816999E+04  0.64770888503E+03 0.  0.
         13    1    3    3    0    0  0.26400791300E+03  0.82389333446E+02  0.16012025117E+03  0.31957264468E+03  0.00000000000E+00 0. -1.
          2    1    3    3  501    0 -0.26400791300E+03 -0.82389333446E+02  0.73499804889E+03  0.78530905526E+03  0.00000000000E+00 0. -1.
<mgrwt>
<rscale>  0 0.64770889E+03</rscale>
<asrwt>0</asrwt>
<pdfrwt beam="1">0</pdfrwt>
<pdfrwt beam="2">  1        2 0.38138880E+00 0.64770889E+03</pdfrwt>
<totfact> 0.46723862E+00</totfact>
</mgrwt>
</event>
<event>
 5    1  0.2368666E-004  0.6493667E+03  0.7818608E-02  0.9807968E-01
         13   -1    0    0    0    0  0.00000000000E+00  0.00000000000E+00  0.10000000000E+04  0.10000000000E+04  0.00000000000E+00 0. -1.
          2   -1    0    0  501    0 -0.00000000000E+00 -0.00000000000E+00 -0.10541928704E+03  0.10541928704E+03  0.00000000000E+00 0. -1.
    9000006    2    1    2  501    0  0.00000000000E+00  0.00000000000E+00  0.89458071296E+03  0.11054192870E+04  0.64936672855E+03 0.  0.
         13    1    3    3    0    0  0.49080064168E+02  0.19169715973E+03  0.90913887530E+01  0.19808913927E+03  0.00000000000E+00 0. -1.
          4    1    3    3  501    0 -0.49080064168E+02 -0.19169715973E+03  0.88548932421E+03  0.90733014776E+03  0.00000000000E+00 0. -1.
<mgrwt>
<rscale>  0 0.64936673E+03</rscale>
<asrwt>0</asrwt>
<pdfrwt beam="1">0</pdfrwt>
<pdfrwt beam="2">  1        2 0.38334367E+00 0.64936673E+03</pdfrwt>
<totfact> 0.45946949E+00</totfact>
</mgrwt>
</event>
<event>
 5    1  0.2368666E-004  0.6051349E+03  0.7818608E-02  0.9894810E-01
         13   -1    0    0    0    0  0.00000000000E+00  0.00000000000E+00  0.10000000000E+04  0.10000000000E+04  0.00000000000E+00 0. -1.
          2   -1    0    0  501    0 -0.00000000000E+00 -0.00000000000E+00 -0.91547073574E+02  0.91547073574E+02  0.00000000000E+00 0. -1.
    9000006    2    1    2  501    0  0.00000000000E+00  0.00000000000E+00  0.90845292643E+03  0.10915470736E+04  0.60513493892E+03 0.  0.
         13    1    3    3    0    0  0.17646745002E+03 -0.10686658465E+03  0.54994277691E+02  0.21350784157E+03  0.00000000000E+00 0. -1.
          2    1    3    3  501    0 -0.17646745002E+03  0.10686658465E+03  0.85345864874E+03  0.87803923200E+03  0.00000000000E+00 0. -1.
<mgrwt>
<rscale>  0 0.60513494E+03</rscale>
<asrwt>0</asrwt>
<pdfrwt beam="1">0</pdfrwt>
<pdfrwt beam="2">  1        2 0.33289915E+00 0.60513494E+03</pdfrwt>
<totfact> 0.70327807E+00</totfact>
</mgrwt>
</event>
<event>
 5    1  0.2368666E-004  0.6692394E+03  0.7818608E-02  0.9771333E-01
         13   -1    0    0    0    0  0.00000000000E+00  0.00000000000E+00  0.10000000000E+04  0.10000000000E+04  0.00000000000E+00 0. -1.
          2   -1    0    0  501    0 -0.00000000000E+00 -0.00000000000E+00 -0.11197034236E+03  0.11197034236E+03  0.00000000000E+00 0. -1.
    9000006    2    1    2  501    0  0.00000000000E+00  0.00000000000E+00  0.88802965764E+03  0.11119703424E+04  0.66923939622E+03 0.  0.
         13    1    3    3    0    0  0.26950949038E+03 -0.18812844986E+03  0.33968546691E+03  0.47266679118E+03  0.00000000000E+00 0. -1.
          2    1    3    3  501    0 -0.26950949038E+03  0.18812844986E+03  0.54834419073E+03  0.63930355119E+03  0.00000000000E+00 0. -1.
<mgrwt>
<rscale>  0 0.66923940E+03</rscale>
<asrwt>0</asrwt>
<pdfrwt beam="1">0</pdfrwt>
<pdfrwt beam="2">  1        2 0.40716574E+00 0.66923940E+03</pdfrwt>
<totfact> 0.37373267E+00</totfact>
</mgrwt>
</event>
<event>
 5    1  0.2368666E-004  0.6350886E+03  0.7818608E-02  0.9835169E-01
         13   -1    0    0    0    0  0.00000000000E+00  0.00000000000E+00  0.10000000000E+04  0.10000000000E+04  0.00000000000E+00 0. -1.
          2   -1    0    0  501    0 -0.00000000000E+00 -0.00000000000E+00 -0.10083438851E+03  0.10083438851E+03  0.00000000000E+00 0. -1.
    9000006    2    1    2  501    0  0.00000000000E+00  0.00000000000E+00  0.89916561149E+03  0.11008343885E+04  0.63508861903E+03 0.  0.
         13    1    3    3    0    0 -0.19683501004E+03  0.24131277452E+03  0.34191209109E+03  0.46247135518E+03  0.00000000000E+00 0. -1.
          4    1    3    3  501    0  0.19683501004E+03 -0.24131277452E+03  0.55725352040E+03  0.63836303333E+03  0.00000000000E+00 0. -1.
<mgrwt>
<rscale>  0 0.63508862E+03</rscale>
<asrwt>0</asrwt>
<pdfrwt beam="1">0</pdfrwt>
<pdfrwt beam="2">  1        2 0.36667128E+00 0.63508862E+03</pdfrwt>
<totfact> 0.52969194E+00</totfact>
</mgrwt>
</event>
<event>
 5    1  0.2368666E-004  0.6487730E+03  0.7818608E-02  0.9809084E-01
         13   -1    0    0    0    0  0.00000000000E+00  0.00000000000E+00  0.10000000000E+04  0.10000000000E+04  0.00000000000E+00 0. -1.
          2   -1    0    0  501    0 -0.00000000000E+00 -0.00000000000E+00 -0.10522660153E+03  0.10522660153E+03  0.00000000000E+00 0. -1.
    9000006    2    1    2  501    0  0.00000000000E+00  0.00000000000E+00  0.89477339847E+03  0.11052266015E+04  0.64877300044E+03 0.  0.
         13    1    3    3    0    0 -0.64093718122E+01 -0.31986091703E+03  0.53872246385E+03  0.62655724347E+03  0.00000000000E+00 0. -1.
          4    1    3    3  501    0  0.64093718122E+01  0.31986091703E+03  0.35605093463E+03  0.47866935806E+03  0.00000000000E+00 0. -1.
<mgrwt>
<rscale>  0 0.64877300E+03</rscale>
<asrwt>0</asrwt>
<pdfrwt beam="1">0</pdfrwt>
<pdfrwt beam="2">  1        2 0.38264299E+00 0.64877300E+03</pdfrwt>
<totfact> 0.46224056E+00</totfact>
</mgrwt>
</event>
<event>
 5    1  0.2368666E-004  0.6038073E+03  0.7818608E-02  0.9897539E-01
         13   -1    0    0    0    0  0.00000000000E+00  0.00000000000E+00  0.10000000000E+04  0.10000000000E+04  0.00000000000E+00 0. -1.
          2   -1    0    0  501    0 -0.00000000000E+00 -0.00000000000E+00 -0.91145801486E+02  0.91145801486E+02  0.00000000000E+00 0. -1.
    9000006    2    1    2  501    0  0.00000000000E+00  0.00000000000E+00  0.90885419851E+03  0.10911458015E+04  0.60380725894E+03 0.  0.
         13    1    3    3    0    0  0.11305262694E+03  0.11782944128E+03  0.91330883093E+03  0.92779183783E+03  0.00000000000E+00 0. -1.
          2    1    3    3  501    0 -0.11305262694E+03 -0.11782944128E+03 -0.44546324167E+01  0.16335396365E+03  0.00000000000E+00 0. -1.
<mgrwt>
<rscale>  0 0.60380726E+03</rscale>
<asrwt>0</asrwt>
<pdfrwt beam="1">0</pdfrwt>
<pdfrwt beam="2">  1        2 0.33143998E+00 0.60380726E+03</pdfrwt>
<totfact> 0.71186396E+00</totfact>
</mgrwt>
</event>
<event>
 5    1  0.2368666E-004  0.6509619E+03  0.7818608E-02  0.9804976E-01
         13   -1    0    0    0    0  0.00000000000E+00  0.00000000000E+00  0.10000000000E+04  0.10000000000E+04  0.00000000000E+00 0. -1.
          2   -1    0    0  501    0 -0.00000000000E+00 -0.00000000000E+00 -0.10593783495E+03  0.10593783495E+03  0.00000000000E+00 0. -1.
    9000006    2    1    2  501    0  0.00000000000E+00  0.00000000000E+00  0.89406216505E+03  0.11059378349E+04  0.65096185741E+03 0.  0.
         13    1    3    3    0    0  0.11616866503E+03 -0.45882256480E+02  0.95766445523E+03  0.96577510271E+03  0.00000000000E+00 0. -1.
          2    1    3    3  501    0 -0.11616866503E+03  0.45882256480E+02 -0.63602290181E+02  0.14016273224E+03  0.00000000000E+00 0. -1.
<mgrwt>
<rscale>  0 0.65096186E+03</rscale>
<asrwt>0</asrwt>
<pdfrwt beam="1">0</pdfrwt>
<pdfrwt beam="2">  1        2 0.38522930E+00 0.65096186E+03</pdfrwt>
<totfact> 0.45208682E+00</totfact>
</mgrwt>
</event>
<event>
 5    1  0.2368666E-004  0.6491498E+03  0.7818608E-02  0.9808376E-01
         13   -1    0    0    0    0  0.00000000000E+00  0.00000000000E+00  0.10000000000E+04  0.10000000000E+04  0.00000000000E+00 0. -1.
          2   -1    0    0  501    0 -0.00000000000E+00 -0.00000000000E+00 -0.10534885019E+03  0.10534885019E+03  0.00000000000E+00 0. -1.
    9000006    2    1    2  501    0  0.00000000000E+00  0.00000000000E+00  0.89465114981E+03  0.11053488502E+04  0.64914975220E+03 0.  0.
         13    1    3    3    0    0 -0.29759206573E+03 -0.72403674007E+02  0.26436343614E+03  0.40458788411E+03  0.00000000000E+00 0. -1.
          4    1    3    3  501    0  0.29759206573E+03  0.72403674007E+02  0.63028771366E+03  0.70076096609E+03  0.00000000000E+00 0. -1.
<mgrwt>
<rscale>  0 0.64914975E+03</rscale>
<asrwt>0</asrwt>
<pdfrwt beam="1">0</pdfrwt>
<pdfrwt beam="2">  1        2 0.38308754E+00 0.64914975E+03</pdfrwt>
<totfact> 0.46048071E+00</totfact>
</mgrwt>
</event>
<event>
 5    1  0.2368666E-004  0.6514652E+03  0.7818608E-02  0.9804034E-01
         13   -1    0    0    0    0  0.00000000000E+00  0.00000000000E+00  0.10000000000E+04  0.10000000000E+04  0.00000000000E+00 0. -1.
          2   -1    0    0  501    0 -0.00000000000E+00 -0.00000000000E+00 -0.10610171228E+03  0.10610171228E+03  0.00000000000E+00 0. -1.
    9000006    2    1    2  501    0  0.00000000000E+00  0.00000000000E+00  0.89389828772E+03  0.11061017123E+04  0.65146515572E+03 0.  0.
         13    1    3    3    0    0  0.18592100437E+03 -0.19475086627E+03  0.13569152594E+03  0.30150739625E+03  0.00000000000E+00 0. -1.
          4    1    3    3  501    0 -0.18592100437E+03  0.19475086627E+03  0.75820676178E+03  0.80459431603E+03  0.00000000000E+00 0. -1.
<mgrwt>
<rscale>  0 0.65146516E+03</rscale>
<asrwt>0</asrwt>
<pdfrwt beam="1">0</pdfrwt>
<pdfrwt beam="2">  1        2 0.38582522E+00 0.65146516E+03</pdfrwt>
<totfact> 0.44977613E+00</totfact>
</mgrwt>
</event>
<event>
 5    1  0.2368666E-004  0.6517872E+03  0.7818608E-02  0.9803431E-01
         13   -1    0    0    0    0  0.00000000000E+00  0.00000000000E+00  0.10000000000E+04  0.10000000000E+04  0.00000000000E+00 0. -1.
          2   -1    0    0  501    0 -0.00000000000E+00 -0.00000000000E+00 -0.10620663949E+03  0.10620663949E+03  0.00000000000E+00 0. -1.
    9000006    2    1    2  501    0  0.00000000000E+00  0.00000000000E+00  0.89379336051E+03  0.11062066395E+04  0.65178720297E+03 0.  0.
         13    1    3    3    0    0  0.23112737424E+03  0.55023172611E+02  0.68308332342E+02  0.24721132845E+03  0.00000000000E+00 0. -1.
          4    1    3    3  501    0 -0.23112737424E+03 -0.55023172611E+02  0.82548502817E+03  0.85899531103E+03  0.00000000000E+00 0. -1.
<mgrwt>
<rscale>  0 0.65178720E+03</rscale>
<asrwt>0</asrwt>
<pdfrwt beam="1">0</pdfrwt>
<pdfrwt beam="2">  1        2 0.38620678E+00 0.65178720E+03</pdfrwt>
<totfact> 0.44830228E+00</totfact>
</mgrwt>
</event>
<event>
 5    1  0.2368666E-004  0.6492185E+03  0.7818608E-02  0.9808247E-01
         13   -1    0    0    0    0  0.00000000000E+00  0.00000000000E+00  0.10000000000E+04  0.10000000000E+04  0.00000000000E+00 0. -1.
          2   -1    0    0  501    0 -0.00000000000E+00 -0.00000000000E+00 -0.10537117355E+03  0.10537117355E+03  0.00000000000E+00 0. -1.
    9000006    2    1    2  501    0  0.00000000000E+00  0.00000000000E+00  0.89462882645E+03  0.11053711735E+04  0.64921852576E+03 0.  0.
         13    1    3    3    0    0  0.15614215120E+03  0.12801440215E+03  0.88007127232E+03  0.90293604586E+03  0.00000000000E+00 0. -1.
          4    1    3    3  501    0 -0.15614215120E+03 -0.12801440215E+03  0.14557554129E+02  0.20243512769E+03  0.00000000000E+00 0. -1.
<mgrwt>
<rscale>  0 0.64921853E+03</rscale>
<asrwt>0</asrwt>
<pdfrwt beam="1">0</pdfrwt>
<pdfrwt beam="2">  1        2 0.38316871E+00 0.64921853E+03</pdfrwt>
<totfact> 0.46016001E+00</totfact>
</mgrwt>
</event>
<event>
 5    1  0.2368666E-004  0.6498398E+03  0.7818608E-02  0.9807080E-01
         13   -1    0    0    0    0  0.00000000000E+00  0.00000000000E+00  0.10000000000E+04  0.10000000000E+04  0.00000000000E+00 0. -1.
          2   -1    0    0  501    0 -0.00000000000E+00 -0.00000000000E+00 -0.10557293103E+03  0.10557293103E+03  0.00000000000E+00 0. -1.
    9000006    2    1    2  501    0  0.00000000000E+00  0.00000000000E+00  0.89442706897E+03  0.11055729310E+04  0.64983976802E+03 0.  0.
         13    1    3    3    0    0 -0.31635173017E+03 -0.70408755938E+02  0.40778440857E+03  0.52088764044E+03  0.00000000000E+00 0. -1.
          2    1    3    3  501    0  0.31635173017E+03  0.70408755938E+02  0.48664266041E+03  0.58468529058E+03  0.00000000000E+00 0. -1.
<mgrwt>
<rscale>  0 0.64983977E+03</rscale>
<asrwt>0</asrwt>
<pdfrwt beam="1">0</pdfrwt>
<pdfrwt beam="2">  1        2 0.38390238E+00 0.64983977E+03</pdfrwt>
<totfact> 0.45727071E+00</totfact>
</mgrwt>
</event>
<event>
 5    1  0.2368666E-004  0.6292646E+03  0.7818608E-02  0.9846485E-01
         13   -1    0    0    0    0  0.00000000000E+00  0.00000000000E+00  0.10000000000E+04  0.10000000000E+04  0.00000000000E+00 0. -1.
          2   -1    0    0  501    0 -0.00000000000E+00 -0.00000000000E+00 -0.98993474047E+02  0.98993474047E+02  0.00000000000E+00 0. -1.
    9000006    2    1    2  501    0  0.00000000000E+00  0.00000000000E+00  0.90100652595E+03  0.10989934740E+04  0.62926456772E+03 0.  0.
         13    1    3    3    0    0 -0.38342232663E+02  0.28827221951E+03  0.24076303871E+03  0.37754183895E+03  0.00000000000E+00 0. -1.
          4    1    3    3  501    0  0.38342232663E+02 -0.28827221951E+03  0.66024348724E+03  0.72145163510E+03  0.00000000000E+00 0. -1.
<mgrwt>
<rscale>  0 0.62926457E+03</rscale>
<asrwt>0</asrwt>
<pdfrwt beam="1">0</pdfrwt>
<pdfrwt beam="2">  1        2 0.35997703E+00 0.62926457E+03</pdfrwt>
<totfact> 0.56055766E+00</totfact>
</mgrwt>
</event>
<event>
 5    1  0.2368666E-004  0.6482796E+03  0.7818608E-02  0.9810013E-01
         13   -1    0    0    0    0  0.00000000000E+00  0.00000000000E+00  0.10000000000E+04  0.10000000000E+04  0.00000000000E+00 0. -1.
          2   -1    0    0  501    0 -0.00000000000E+00 -0.00000000000E+00 -0.10506661662E+03  0.10506661662E+03  0.00000000000E+00 0. -1.
    9000006    2    1    2  501    0  0.00000000000E+00  0.00000000000E+00  0.89493338338E+03  0.11050666166E+04  0.64827962061E+03 0.  0.
         13    1    3    3    0    0 -0.32280065807E+03 -0.17482906483E+02  0.48783041975E+03  0.58522169757E+03  0.00000000000E+00 0. -1.
          2    1    3    3  501    0  0.32280065807E+03  0.17482906483E+02  0.40710296363E+03  0.51984491905E+03  0.00000000000E+00 0. -1.
<mgrwt>
<rscale>  0 0.64827962E+03</rscale>
<asrwt>0</asrwt>
<pdfrwt beam="1">0</pdfrwt>
<pdfrwt beam="2">  1        2 0.38206123E+00 0.64827962E+03</pdfrwt>
<totfact> 0.46455287E+00</totfact>
</mgrwt>
</event>
<event>
 5    1  0.2368666E-004  0.6429480E+03  0.7818608E-02  0.9820103E-01
         13   -1    0    0    0    0  0.00000000000E+00  0.00000000000E+00  0.10000000000E+04  0.10000000000E+04  0.00000000000E+00 0. -1.
          2   -1    0    0  501    0 -0.00000000000E+00 -0.00000000000E+00 -0.10334552040E+03  0.10334552040E+03  0.00000000000E+00 0. -1.
    9000006    2    1    2  501    0  0.00000000000E+00  0.00000000000E+00  0.89665447960E+03  0.11033455204E+04  0.64294796181E+03 0.  0.
         13    1    3    3    0    0  0.14129987268E+03 -0.58296247044E+02  0.93364954414E+03  0.94607905469E+03  0.00000000000E+00 0. -1.
          2    1    3    3  501    0 -0.14129987268E+03  0.58296247044E+02 -0.36995064543E+02  0.15726646571E+03  0.00000000000E+00 0. -1.
<mgrwt>
<rscale>  0 0.64294796E+03</rscale>
<asrwt>0</asrwt>
<pdfrwt beam="1">0</pdfrwt>
<pdfrwt beam="2">  1        2 0.37580268E+00 0.64294796E+03</pdfrwt>
<totfact> 0.49010275E+00</totfact>
</mgrwt>
</event>
<event>
 5    1  0.2368666E-004  0.6562526E+03  0.7818608E-02  0.9795117E-01
         13   -1    0    0    0    0  0.00000000000E+00  0.00000000000E+00  0.10000000000E+04  0.10000000000E+04  0.00000000000E+00 0. -1.
          2   -1    0    0  501    0 -0.00000000000E+00 -0.00000000000E+00 -0.10766685941E+03  0.10766685941E+03  0.00000000000E+00 0. -1.
    9000006    2    1    2  501    0  0.00000000000E+00  0.00000000000E+00  0.89233314059E+03  0.11076668594E+04  0.65625257152E+03 0.  0.
         13    1    3    3    0    0 -0.30517313807E+03  0.20828583095E+02  0.64660658803E+03  0.71530731421E+03  0.00000000000E+00 0. -1.
          2    1    3    3  501    0  0.30517313807E+03 -0.20828583095E+02  0.24572655256E+03  0.39235954520E+03  0.00000000000E+00 0. -1.
<mgrwt>
<rscale>  0 0.65625257E+03</rscale>
<asrwt>0</asrwt>
<pdfrwt beam="1">0</pdfrwt>
<pdfrwt beam="2">  1        2 0.39151668E+00 0.65625257E+03</pdfrwt>
<totfact> 0.42824000E+00</totfact>
</mgrwt>
</event>
<event>
 5    1  0.2368666E-004  0.6444098E+03  0.7818608E-02  0.9817326E-01
         13   -1    0    0    0    0  0.00000000000E+00  0.00000000000E+00  0.10000000000E+04  0.10000000000E+04  0.00000000000E+00 0. -1.
          2   -1    0    0  501    0 -0.00000000000E+00 -0.00000000000E+00 -0.10381600460E+03  0.10381600460E+03  0.00000000000E+00 0. -1.
    9000006    2    1    2  501    0  0.00000000000E+00  0.00000000000E+00  0.89618399540E+03  0.11038160046E+04  0.64440982177E+03 0.  0.
         13    1    3    3    0    0 -0.17705232861E+03 -0.93806866116E+02  0.88030486834E+03  0.90281998008E+03  0.00000000000E+00 0. -1.
          2    1    3    3  501    0  0.17705232861E+03  0.93806866116E+02  0.15879127059E+02  0.20099602452E+03  0.00000000000E+00 0. -1.
<mgrwt>
<rscale>  0 0.64440982E+03</rscale>
<asrwt>0</asrwt>
<pdfrwt beam="1">0</pdfrwt>
<pdfrwt beam="2">  1        2 0.37751354E+00 0.64440982E+03</pdfrwt>
<totfact> 0.48299416E+00</totfact>
</mgrwt>
</event>
<event>
 5    1  0.2368666E-004  0.6517119E+03  0.7818608E-02  0.9803572E-01
         13   -1    0    0    0    0  0.00000000000E+00  0.00000000000E+00  0.10000000000E+04  0.10000000000E+04  0.00000000000E+00 0. -1.
          2   -1    0    0  501    0 -0.00000000000E+00 -0.00000000000E+00 -0.10618209080E+03  0.10618209080E+03  0.00000000000E+00 0. -1.
    9000006    2    1    2  501    0  0.00000000000E+00  0.00000000000E+00  0.89381790920E+03  0.11061820908E+04  0.65171187130E+03 0.  0.
         13    1    3    3    0    0  0.79472662461E+01  0.88350985797E+02  0.97911100417E+03  0.98312126120E+03  0.00000000000E+00 0. -1.
          2    1    3    3  501    0 -0.79472662461E+01 -0.88350985797E+02 -0.85293094971E+02  0.12306082960E+03  0.00000000000E+00 0. -1.
<mgrwt>
<rscale>  0 0.65171187E+03</rscale>
<asrwt>0</asrwt>
<pdfrwt beam="1">0</pdfrwt>
<pdfrwt beam="2">  1        2 0.38611751E+00 0.65171187E+03</pdfrwt>
<totfact> 0.44864671E+00</totfact>
</mgrwt>
</event>
<event>
 5    1  0.2368666E-004  0.6268471E+03  0.7818608E-02  0.9851221E-01
         13   -1    0    0    0    0  0.00000000000E+00  0.00000000000E+00  0.10000000000E+04  0.10000000000E+04  0.00000000000E+00 0. -1.
          2   -1    0    0  501    0 -0.00000000000E+00 -0.00000000000E+00 -0.98234337090E+02  0.98234337090E+02  0.00000000000E+00 0. -1.
    9000006    2    1    2  501    0  0.00000000000E+00  0.00000000000E+00  0.90176566291E+03  0.10982343371E+04  0.62684714912E+03 0.  0.
         13    1    3    3    0    0 -0.16013506332E+03 -0.14665691990E+03  0.84686069447E+03  0.87425655645E+03  0.00000000000E+00 0. -1.
          2    1    3    3  501    0  0.16013506332E+03  0.14665691990E+03  0.54904968445E+02  0.22397778064E+03  0.00000000000E+00 0. -1.
<mgrwt>
<rscale>  0 0.62684715E+03</rscale>
<asrwt>0</asrwt>
<pdfrwt beam="1">0</pdfrwt>
<pdfrwt beam="2">  1        2 0.35721652E+00 0.62684715E+03</pdfrwt>
<totfact> 0.57376245E+00</totfact>
</mgrwt>
</event>
<event>
 5    1  0.2368666E-004  0.6219484E+03  0.7818608E-02  0.9860888E-01
         13   -1    0    0    0    0  0.00000000000E+00  0.00000000000E+00  0.10000000000E+04  0.10000000000E+04  0.00000000000E+00 0. -1.
          2   -1    0    0  501    0 -0.00000000000E+00 -0.00000000000E+00 -0.96704960074E+02  0.96704960074E+02  0.00000000000E+00 0. -1.
    9000006    2    1    2  501    0  0.00000000000E+00  0.00000000000E+00  0.90329503993E+03  0.10967049601E+04  0.62194842254E+03 0.  0.
         13    1    3    3    0    0 -0.15961840033E+03  0.24586503470E+03  0.63470633466E+03  0.69912787119E+03  0.00000000000E+00 0. -1.
          2    1    3    3  501    0  0.15961840033E+03 -0.24586503470E+03  0.26858870526E+03  0.39757708888E+03  0.00000000000E+00 0. -1.
<mgrwt>
<rscale>  0 0.62194842E+03</rscale>
<asrwt>0</asrwt>
<pdfrwt beam="1">0</pdfrwt>
<pdfrwt beam="2">  1        2 0.35165514E+00 0.62194842E+03</pdfrwt>
<totfact> 0.60124737E+00</totfact>
</mgrwt>
</event>
<event>
 5    1  0.2368666E-004  0.6354002E+03  0.7818608E-02  0.9834567E-01
         13   -1    0    0    0    0  0.00000000000E+00  0.00000000000E+00  0.10000000000E+04  0.10000000000E+04  0.00000000000E+00 0. -1.
          2   -1    0    0  501    0 -0.00000000000E+00 -0.00000000000E+00 -0.10093334398E+03  0.10093334398E+03  0.00000000000E+00 0. -1.
    9000006    2    1    2  501    0  0.00000000000E+00  0.00000000000E+00  0.89906665602E+03  0.11009333440E+04  0.63540016992E+03 0.  0.
         13    1    3    3    0    0  0.22609028752E+03 -0.19857207496E+03  0.27295773043E+03  0.40626790381E+03  0.00000000000E+00 0. -1.
          4    1    3    3  501    0 -0.22609028752E+03  0.19857207496E+03  0.62610892559E+03  0.69466544017E+03  0.00000000000E+00 0. -1.
<mgrwt>
<rscale>  0 0.63540017E+03</rscale>
<asrwt>0</asrwt>
<pdfrwt beam="1">0</pdfrwt>
<pdfrwt beam="2">  1        2 0.36703112E+00 0.63540017E+03</pdfrwt>
<totfact> 0.52807797E+00</totfact>
</mgrwt>
</event>
<event>
 5    1  0.2368666E-004  0.6295083E+03  0.7818608E-02  0.9846009E-01
         13   -1    0    0    0    0  0.00000000000E+00  0.00000000000E+00  0.10000000000E+04  0.10000000000E+04  0.00000000000E+00 0. -1.
          2   -1    0    0  501    0 -0.00000000000E+00 -0.00000000000E+00 -0.99070175502E+02  0.99070175502E+02  0.00000000000E+00 0. -1.
    9000006    2    1    2  501    0  0.00000000000E+00  0.00000000000E+00  0.90092982450E+03  0.10990701755E+04  0.62950830178E+03 0.  0.
         13    1    3    3    0    0  0.18252895777E+03 -0.23519439038E+03  0.62883040662E+03  0.69574485408E+03  0.00000000000E+00 0. -1.
          4    1    3    3  501    0 -0.18252895777E+03  0.23519439038E+03  0.27209941788E+03  0.40332532142E+03  0.00000000000E+00 0. -1.
<mgrwt>
<rscale>  0 0.62950830E+03</rscale>
<asrwt>0</asrwt>
<pdfrwt beam="1">0</pdfrwt>
<pdfrwt beam="2">  1        2 0.36025594E+00 0.62950830E+03</pdfrwt>
<totfact> 0.55923923E+00</totfact>
</mgrwt>
</event>
<event>
 5    1  0.2368666E-004  0.5869317E+03  0.7818608E-02  0.9932896E-01
         13   -1    0    0    0    0  0.00000000000E+00  0.00000000000E+00  0.10000000000E+04  0.10000000000E+04  0.00000000000E+00 0. -1.
          2   -1    0    0  501    0 -0.00000000000E+00 -0.00000000000E+00 -0.86122190600E+02  0.86122190600E+02  0.00000000000E+00 0. -1.
    9000006    2    1    2  501    0  0.00000000000E+00  0.00000000000E+00  0.91387780940E+03  0.10861221906E+04  0.58693165054E+03 0.  0.
         13    1    3    3    0    0  0.38447051765E+02  0.28975812315E+03  0.50534465274E+03  0.58379034231E+03  0.00000000000E+00 0. -1.
          2    1    3    3  501    0 -0.38447051765E+02 -0.28975812315E+03  0.40853315666E+03  0.50233184829E+03  0.00000000000E+00 0. -1.
<mgrwt>
<rscale>  0 0.58693165E+03</rscale>
<asrwt>0</asrwt>
<pdfrwt beam="1">0</pdfrwt>
<pdfrwt beam="2">  1        2 0.31317226E+00 0.58693165E+03</pdfrwt>
<totfact> 0.82820821E+00</totfact>
</mgrwt>
</event>
<event>
 5    1  0.2368666E-004  0.6568618E+03  0.7818608E-02  0.9793988E-01
         13   -1    0    0    0    0  0.00000000000E+00  0.00000000000E+00  0.10000000000E+04  0.10000000000E+04  0.00000000000E+00 0. -1.
          2   -1    0    0  501    0 -0.00000000000E+00 -0.00000000000E+00 -0.10786684998E+03  0.10786684998E+03  0.00000000000E+00 0. -1.
    9000006    2    1    2  501    0  0.00000000000E+00  0.00000000000E+00  0.89213315002E+03  0.11078668500E+04  0.65686178144E+03 0.  0.
         13    1    3    3    0    0  0.31937097492E+03 -0.76554126180E+02  0.44115043947E+03  0.54997460314E+03  0.00000000000E+00 0. -1.
          2    1    3    3  501    0 -0.31937097492E+03  0.76554126180E+02  0.45098271056E+03  0.55789224684E+03  0.00000000000E+00 0. -1.
<mgrwt>
<rscale>  0 0.65686178E+03</rscale>
<asrwt>0</asrwt>
<pdfrwt beam="1">0</pdfrwt>
<pdfrwt beam="2">  1        2 0.39224392E+00 0.65686178E+03</pdfrwt>
<totfact> 0.42555642E+00</totfact>
</mgrwt>
</event>
<event>
 5    1  0.2368666E-004  0.6373123E+03  0.7818608E-02  0.9830882E-01
         13   -1    0    0    0    0  0.00000000000E+00  0.00000000000E+00  0.10000000000E+04  0.10000000000E+04  0.00000000000E+00 0. -1.
          2   -1    0    0  501    0 -0.00000000000E+00 -0.00000000000E+00 -0.10154175332E+03  0.10154175332E+03  0.00000000000E+00 0. -1.
    9000006    2    1    2  501    0  0.00000000000E+00  0.00000000000E+00  0.89845824668E+03  0.11015417533E+04  0.63731233575E+03 0.  0.
         13    1    3    3    0    0  0.26313257334E+03 -0.91466511717E+02  0.18181619201E+03  0.33265898695E+03  0.00000000000E+00 0. -1.
          4    1    3    3  501    0 -0.26313257334E+03  0.91466511717E+02  0.71664205466E+03  0.76888276638E+03  0.00000000000E+00 0. -1.
<mgrwt>
<rscale>  0 0.63731234E+03</rscale>
<asrwt>0</asrwt>
<pdfrwt beam="1">0</pdfrwt>
<pdfrwt beam="2">  1        2 0.36924352E+00 0.63731234E+03</pdfrwt>
<totfact> 0.51825359E+00</totfact>
</mgrwt>
</event>
<event>
 5    1  0.2368666E-004  0.6470233E+03  0.7818608E-02  0.9812381E-01
         13   -1    0    0    0    0  0.00000000000E+00  0.00000000000E+00  0.10000000000E+04  0.10000000000E+04  0.00000000000E+00 0. -1.
          2   -1    0    0  501    0 -0.00000000000E+00 -0.00000000000E+00 -0.10465978905E+03  0.10465978905E+03  0.00000000000E+00 0. -1.
    9000006    2    1    2  501    0  0.00000000000E+00  0.00000000000E+00  0.89534021095E+03  0.11046597890E+04  0.64702330421E+03 0.  0.
         13    1    3    3    0    0 -0.17134131430E+03 -0.22261135589E+03  0.72161586252E+03  0.77436626657E+03  0.00000000000E+00 0. -1.
          4    1    3    3  501    0  0.17134131430E+03  0.22261135589E+03  0.17372434843E+03  0.33029352248E+03  0.00000000000E+00 0. -1.
<mgrwt>
<rscale>  0 0.64702330E+03</rscale>
<asrwt>0</asrwt>
<pdfrwt beam="1">0</pdfrwt>
<pdfrwt beam="2">  1        2 0.38058185E+00 0.64702330E+03</pdfrwt>
<totfact> 0.47048032E+00</totfact>
</mgrwt>
</event>
<event>
 5    1  0.2368666E-004  0.6491319E+03  0.7818608E-02  0.9808409E-01
         13   -1    0    0    0    0  0.00000000000E+00  0.00000000000E+00  0.10000000000E+04  0.10000000000E+04  0.00000000000E+00 0. -1.
          2   -1    0    0  501    0 -0.00000000000E+00 -0.00000000000E+00 -0.10534306192E+03  0.10534306192E+03  0.00000000000E+00 0. -1.
    9000006    2    1    2  501    0  0.00000000000E+00  0.00000000000E+00  0.89465693808E+03  0.11053430619E+04  0.64913191856E+03 0.  0.
         13    1    3    3    0    0  0.28729719590E+03  0.77964610335E+02  0.22711396231E+03  0.37443145049E+03  0.00000000000E+00 0. -1.
          2    1    3    3  501    0 -0.28729719590E+03 -0.77964610335E+02  0.66754297576E+03  0.73091161143E+03  0.00000000000E+00 0. -1.
<mgrwt>
<rscale>  0 0.64913192E+03</rscale>
<asrwt>0</asrwt>
<pdfrwt beam="1">0</pdfrwt>
<pdfrwt beam="2">  1        2 0.38306649E+00 0.64913192E+03</pdfrwt>
<totfact> 0.46056390E+00</totfact>
</mgrwt>
</event>
<event>
 5    1  0.2368666E-004  0.6497005E+03  0.7818608E-02  0.9807341E-01
         13   -1    0    0    0    0  0.00000000000E+00  0.00000000000E+00  0.10000000000E+04  0.10000000000E+04  0.00000000000E+00 0. -1.
          2   -1    0    0  501    0 -0.00000000000E+00 -0.00000000000E+00 -0.10552768025E+03  0.10552768025E+03  0.00000000000E+00 0. -1.
    9000006    2    1    2  501    0  0.00000000000E+00  0.00000000000E+00  0.89447231975E+03  0.11055276803E+04  0.64970048561E+03 0.  0.
         13    1    3    3    0    0  0.22063961315E+03  0.22433933302E+03  0.58460991828E+03  0.66391168974E+03  0.00000000000E+00 0. -1.
          2    1    3    3  501    0 -0.22063961315E+03 -0.22433933302E+03  0.30986240147E+03  0.44161599051E+03  0.00000000000E+00 0. -1.
<mgrwt>
<rscale>  0 0.64970049E+03</rscale>
<asrwt>0</asrwt>
<pdfrwt beam="1">0</pdfrwt>
<pdfrwt beam="2">  1        2 0.38373783E+00 0.64970049E+03</pdfrwt>
<totfact> 0.45791729E+00</totfact>
</mgrwt>
</event>
<event>
 5    1  0.2368666E-004  0.6339385E+03  0.7818608E-02  0.9837393E-01
         13   -1    0    0    0    0  0.00000000000E+00  0.00000000000E+00  0.10000000000E+04  0.10000000000E+04  0.00000000000E+00 0. -1.
          2   -1    0    0  501    0 -0.00000000000E+00 -0.00000000000E+00 -0.10046950052E+03  0.10046950052E+03  0.00000000000E+00 0. -1.
    9000006    2    1    2  501    0  0.00000000000E+00  0.00000000000E+00  0.89953049948E+03  0.11004695005E+04  0.63393848446E+03 0.  0.
         13    1    3    3    0    0  0.14298094219E+03 -0.17344567936E+03  0.61823753179E+02  0.23312899857E+03  0.00000000000E+00 0. -1.
          4    1    3    3  501    0 -0.14298094219E+03  0.17344567936E+03  0.83770674630E+03  0.86734050195E+03  0.00000000000E+00 0. -1.
<mgrwt>
<rscale>  0 0.63393848E+03</rscale>
<asrwt>0</asrwt>
<pdfrwt beam="1">0</pdfrwt>
<pdfrwt beam="2">  1        2 0.36534441E+00 0.63393848E+03</pdfrwt>
<totfact> 0.53568255E+00</totfact>
</mgrwt>
</event>
<event>
 5    1  0.2368666E-004  0.6524471E+03  0.7818608E-02  0.9802198E-01
         13   -1    0    0    0    0  0.00000000000E+00  0.00000000000E+00  0.10000000000E+04  0.10000000000E+04  0.00000000000E+00 0. -1.
          2   -1    0    0  501    0 -0.00000000000E+00 -0.00000000000E+00 -0.10642181948E+03  0.10642181948E+03  0.00000000000E+00 0. -1.
    9000006    2    1    2  501    0  0.00000000000E+00  0.00000000000E+00  0.89357818052E+03  0.11064218195E+04  0.65244714568E+03 0.  0.
         13    1    3    3    0    0 -0.29558655326E+03 -0.51775817928E+02  0.22982122929E+03  0.37798140592E+03  0.00000000000E+00 0. -1.
          4    1    3    3  501    0  0.29558655326E+03  0.51775817928E+02  0.66375695123E+03  0.72844041355E+03  0.00000000000E+00 0. -1.
<mgrwt>
<rscale>  0 0.65244715E+03</rscale>
<asrwt>0</asrwt>
<pdfrwt beam="1">0</pdfrwt>
<pdfrwt beam="2">  1        2 0.38698925E+00 0.65244715E+03</pdfrwt>
<totfact> 0.44529344E+00</totfact>
</mgrwt>
</event>
<event>
 5    1  0.2368666E-004  0.6757945E+03  0.7818608E-02  0.9759546E-01
         13   -1    0    0    0    0  0.00000000000E+00  0.00000000000E+00  0.10000000000E+04  0.10000000000E+04  0.00000000000E+00 0. -1.
          2   -1    0    0  501    0 -0.00000000000E+00 -0.00000000000E+00 -0.11417454835E+03  0.11417454835E+03  0.00000000000E+00 0. -1.
    9000006    2    1    2  501    0  0.00000000000E+00  0.00000000000E+00  0.88582545165E+03  0.11141745484E+04  0.67579449052E+03 0.  0.
         13    1    3    3    0    0 -0.19239386175E+03 -0.21882008880E+03  0.72501154778E+03  0.78137018994E+03  0.00000000000E+00 0. -1.
          4    1    3    3  501    0  0.19239386175E+03  0.21882008880E+03  0.16081390387E+03  0.33280435842E+03  0.00000000000E+00 0. -1.
<mgrwt>
<rscale>  0 0.67579449E+03</rscale>
<asrwt>0</asrwt>
<pdfrwt beam="1">0</pdfrwt>
<pdfrwt beam="2">  1        2 0.41518105E+00 0.67579449E+03</pdfrwt>
<totfact> 0.34829648E+00</totfact>
</mgrwt>
</event>
<event>
 5    1  0.2368666E-004  0.6551433E+03  0.7818608E-02  0.9797176E-01
         13   -1    0    0    0    0  0.00000000000E+00  0.00000000000E+00  0.10000000000E+04  0.10000000000E+04  0.00000000000E+00 0. -1.
          2   -1    0    0  501    0 -0.00000000000E+00 -0.00000000000E+00 -0.10730317341E+03  0.10730317341E+03  0.00000000000E+00 0. -1.
    9000006    2    1    2  501    0  0.00000000000E+00  0.00000000000E+00  0.89269682659E+03  0.11073031734E+04  0.65514326191E+03 0.  0.
         13    1    3    3    0    0  0.21669983198E+02  0.17433255714E+03 -0.20951350405E+02  0.17691915593E+03  0.00000000000E+00 0. -1.
          4    1    3    3  501    0 -0.21669983198E+02 -0.17433255714E+03  0.91364817700E+03  0.93038401748E+03  0.00000000000E+00 0. -1.
<mgrwt>
<rscale>  0 0.65514326E+03</rscale>
<asrwt>0</asrwt>
<pdfrwt beam="1">0</pdfrwt>
<pdfrwt beam="2">  1        2 0.39019418E+00 0.65514326E+03</pdfrwt>
<totfact> 0.43315934E+00</totfact>
</mgrwt>
</event>
<event>
 5    1  0.2368666E-004  0.6608762E+03  0.7818608E-02  0.9786582E-01
         13   -1    0    0    0    0  0.00000000000E+00  0.00000000000E+00  0.10000000000E+04  0.10000000000E+04  0.00000000000E+00 0. -1.
          2   -1    0    0  501    0 -0.00000000000E+00 -0.00000000000E+00 -0.10918934325E+03  0.10918934325E+03  0.00000000000E+00 0. -1.
    9000006    2    1    2  501    0  0.00000000000E+00  0.00000000000E+00  0.89081065675E+03  0.11091893433E+04  0.66087621611E+03 0.  0.
         13    1    3    3    0    0 -0.73381955268E+02 -0.28196765474E+03  0.70702888732E+03  0.76470943317E+03  0.00000000000E+00 0. -1.
          4    1    3    3  501    0  0.73381955268E+02  0.28196765474E+03  0.18378176942E+03  0.34447991008E+03  0.00000000000E+00 0. -1.
<mgrwt>
<rscale>  0 0.66087622E+03</rscale>
<asrwt>0</asrwt>
<pdfrwt beam="1">0</pdfrwt>
<pdfrwt beam="2">  1        2 0.39705299E+00 0.66087622E+03</pdfrwt>
<totfact> 0.40818978E+00</totfact>
</mgrwt>
</event>
<event>
 5    1  0.2368666E-004  0.6481590E+03  0.7818608E-02  0.9810240E-01
         13   -1    0    0    0    0  0.00000000000E+00  0.00000000000E+00  0.10000000000E+04  0.10000000000E+04  0.00000000000E+00 0. -1.
          2   -1    0    0  501    0 -0.00000000000E+00 -0.00000000000E+00 -0.10502751371E+03  0.10502751371E+03  0.00000000000E+00 0. -1.
    9000006    2    1    2  501    0  0.00000000000E+00  0.00000000000E+00  0.89497248629E+03  0.11050275137E+04  0.64815897342E+03 0.  0.
         13    1    3    3    0    0 -0.31659876686E+03  0.20600739429E+01  0.32951100190E+03  0.45696446629E+03  0.00000000000E+00 0. -1.
          2    1    3    3  501    0  0.31659876686E+03 -0.20600739429E+01  0.56546148440E+03  0.64806304741E+03  0.00000000000E+00 0. -1.
<mgrwt>
<rscale>  0 0.64815897E+03</rscale>
<asrwt>0</asrwt>
<pdfrwt beam="1">0</pdfrwt>
<pdfrwt beam="2">  1        2 0.38191904E+00 0.64815897E+03</pdfrwt>
<totfact> 0.46511963E+00</totfact>
</mgrwt>
</event>
<event>
 5    1  0.2368666E-004  0.6862759E+03  0.7818608E-02  0.9740994E-01
         13   -1    0    0    0    0  0.00000000000E+00  0.00000000000E+00  0.10000000000E+04  0.10000000000E+04  0.00000000000E+00 0. -1.
          2   -1    0    0  501    0 -0.00000000000E+00 -0.00000000000E+00 -0.11774364703E+03  0.11774364703E+03  0.00000000000E+00 0. -1.
    9000006    2    1    2  501    0  0.00000000000E+00  0.00000000000E+00  0.88225635297E+03  0.11177436470E+04  0.68627588340E+03 0.  0.
         13    1    3    3    0    0  0.32730462961E+03  0.84102411955E+02  0.53806182108E+03  0.63538339572E+03  0.00000000000E+00 0. -1.
          2    1    3    3  501    0 -0.32730462961E+03 -0.84102411955E+02  0.34419453189E+03  0.48236025131E+03  0.00000000000E+00 0. -1.
<mgrwt>
<rscale>  0 0.68627588E+03</rscale>
<asrwt>0</asrwt>
<pdfrwt beam="1">0</pdfrwt>
<pdfrwt beam="2">  1        2 0.42815962E+00 0.68627588E+03</pdfrwt>
<totfact> 0.31036298E+00</totfact>
</mgrwt>
</event>
<event>
 5    1  0.2368666E-004  0.6447496E+03  0.7818608E-02  0.9816681E-01
         13   -1    0    0    0    0  0.00000000000E+00  0.00000000000E+00  0.10000000000E+04  0.10000000000E+04  0.00000000000E+00 0. -1.
          2   -1    0    0  501    0 -0.00000000000E+00 -0.00000000000E+00 -0.10392549997E+03  0.10392549997E+03  0.00000000000E+00 0. -1.
    9000006    2    1    2  501    0  0.00000000000E+00  0.00000000000E+00  0.89607450003E+03  0.11039255000E+04  0.64474956368E+03 0.  0.
         13    1    3    3    0    0  0.21274297566E+03 -0.23042013747E+03  0.32022478173E+03  0.44821526556E+03  0.00000000000E+00 0. -1.
          4    1    3    3  501    0 -0.21274297566E+03  0.23042013747E+03  0.57584971830E+03  0.65571023441E+03  0.00000000000E+00 0. -1.
<mgrwt>
<rscale>  0 0.64474956E+03</rscale>
<asrwt>0</asrwt>
<pdfrwt beam="1">0</pdfrwt>
<pdfrwt beam="2">  1        2 0.37791171E+00 0.64474956E+03</pdfrwt>
<totfact> 0.48135333E+00</totfact>
</mgrwt>
</event>
<event>
 5    1  0.2368666E-004  0.6570471E+03  0.7818608E-02  0.9793645E-01
         13   -1    0    0    0    0  0.00000000000E+00  0.00000000000E+00  0.10000000000E+04  0.10000000000E+04  0.00000000000E+00 0. -1.
          2   -1    0    0  501    0 -0.00000000000E+00 -0.00000000000E+00 -0.10792773262E+03  0.10792773262E+03  0.00000000000E+00 0. -1.
    9000006    2    1    2  501    0  0.00000000000E+00  0.00000000000E+00  0.89207226738E+03  0.11079277326E+04  0.65704712959E+03 0.  0.
         13    1    3    3    0    0 -0.80054932930E+02  0.16201875450E+02  0.98260594827E+03  0.98599479848E+03  0.00000000000E+00 0. -1.
          4    1    3    3  501    0  0.80054932930E+02 -0.16201875450E+02 -0.90533680891E+02  0.12193293415E+03  0.00000000000E+00 0. -1.
<mgrwt>
<rscale>  0 0.65704713E+03</rscale>
<asrwt>0</asrwt>
<pdfrwt beam="1">0</pdfrwt>
<pdfrwt beam="2">  1        2 0.39246531E+00 0.65704713E+03</pdfrwt>
<totfact> 0.42474248E+00</totfact>
</mgrwt>
</event>
<event>
 5    1  0.2368666E-004  0.6457844E+03  0.7818608E-02  0.9814722E-01
         13   -1    0    0    0    0  0.00000000000E+00  0.00000000000E+00  0.10000000000E+04  0.10000000000E+04  0.00000000000E+00 0. -1.
          2   -1    0    0  501    0 -0.00000000000E+00 -0.00000000000E+00 -0.10425937669E+03  0.10425937669E+03  0.00000000000E+00 0. -1.
    9000006    2    1    2  501    0  0.00000000000E+00  0.00000000000E+00  0.89574062331E+03  0.11042593767E+04  0.64578441197E+03 0.  0.
         13    1    3    3    0    0  0.22449251377E+03  0.20498002792E+03  0.26176298758E+03  0.40116525554E+03  0.00000000000E+00 0. -1.
          2    1    3    3  501    0 -0.22449251377E+03 -0.20498002792E+03  0.63397763573E+03  0.70309412115E+03  0.00000000000E+00 0. -1.
<mgrwt>
<rscale>  0 0.64578441E+03</rscale>
<asrwt>0</asrwt>
<pdfrwt beam="1">0</pdfrwt>
<pdfrwt beam="2">  1        2 0.37912581E+00 0.64578441E+03</pdfrwt>
<totfact> 0.47638139E+00</totfact>
</mgrwt>
</event>
<event>
 5    1  0.2368666E-004  0.6567019E+03  0.7818608E-02  0.9794284E-01
         13   -1    0    0    0    0  0.00000000000E+00  0.00000000000E+00  0.10000000000E+04  0.10000000000E+04  0.00000000000E+00 0. -1.
          2   -1    0    0  501    0 -0.00000000000E+00 -0.00000000000E+00 -0.10781435920E+03  0.10781435920E+03  0.00000000000E+00 0. -1.
    9000006    2    1    2  501    0  0.00000000000E+00  0.00000000000E+00  0.89218564080E+03  0.11078143592E+04  0.65670193908E+03 0.  0.
         13    1    3    3    0    0  0.16257895460E+03 -0.11539639426E+03  0.59798449172E+01  0.19945927612E+03  0.00000000000E+00 0. -1.
          4    1    3    3  501    0 -0.16257895460E+03  0.11539639426E+03  0.88620579589E+03  0.90835508307E+03  0.00000000000E+00 0. -1.
<mgrwt>
<rscale>  0 0.65670194E+03</rscale>
<asrwt>0</asrwt>
<pdfrwt beam="1">0</pdfrwt>
<pdfrwt beam="2">  1        2 0.39205304E+00 0.65670194E+03</pdfrwt>
<totfact> 0.42625929E+00</totfact>
</mgrwt>
</event>
<event>
 5    1  0.2368666E-004  0.6546520E+03  0.7818608E-02  0.9798089E-01
         13   -1    0    0    0    0  0.00000000000E+00  0.00000000000E+00  0.10000000000E+04  0.10000000000E+04  0.00000000000E+00 0. -1.
          2   -1    0    0  501    0 -0.00000000000E+00 -0.00000000000E+00 -0.10714232627E+03  0.10714232627E+03  0.00000000000E+00 0. -1.
    9000006    2    1    2  501    0  0.00000000000E+00  0.00000000000E+00  0.89285767373E+03  0.11071423263E+04  0.65465204885E+03 0.  0.
         13    1    3    3    0    0 -0.28786208330E+03  0.41524230625E+02  0.19244869725E+03  0.34874824990E+03  0.00000000000E+00 0. -1.
          4    1    3    3  501    0  0.28786208330E+03 -0.41524230625E+02  0.70040897648E+03  0.75839407637E+03  0.00000000000E+00 0. -1.
<mgrwt>
<rscale>  0 0.65465205E+03</rscale>
<asrwt>0</asrwt>
<pdfrwt beam="1">0</pdfrwt>
<pdfrwt beam="2">  1        2 0.38960928E+00 0.65465205E+03</pdfrwt>
<totfact> 0.43535125E+00</totfact>
</mgrwt>
</event>
<event>
 5    1  0.2368666E-004  0.6579488E+03  0.7818608E-02  0.9791977E-01
         13   -1    0    0    0    0  0.00000000000E+00  0.00000000000E+00  0.10000000000E+04  0.10000000000E+04  0.00000000000E+00 0. -1.
          2   -1    0    0  501    0 -0.00000000000E+00 -0.00000000000E+00 -0.10822416951E+03  0.10822416951E+03  0.00000000000E+00 0. -1.
    9000006    2    1    2  501    0  0.00000000000E+00  0.00000000000E+00  0.89177583049E+03  0.11082241695E+04  0.65794884151E+03 0.  0.
         13    1    3    3    0    0 -0.26666651892E+03 -0.18825697716E+03  0.51477087036E+03  0.60954144300E+03  0.00000000000E+00 0. -1.
          4    1    3    3  501    0  0.26666651892E+03  0.18825697716E+03  0.37700496013E+03  0.49868272652E+03  0.00000000000E+00 0. -1.
<mgrwt>
<rscale>  0 0.65794884E+03</rscale>
<asrwt>0</asrwt>
<pdfrwt beam="1">0</pdfrwt>
<pdfrwt beam="2">  1        2 0.39354326E+00 0.65794884E+03</pdfrwt>
<totfact> 0.42079945E+00</totfact>
</mgrwt>
</event>
<event>
 5    1  0.2368666E-004  0.6441535E+03  0.7818608E-02  0.9817812E-01
         13   -1    0    0    0    0  0.00000000000E+00  0.00000000000E+00  0.10000000000E+04  0.10000000000E+04  0.00000000000E+00 0. -1.
          2   -1    0    0  501    0 -0.00000000000E+00 -0.00000000000E+00 -0.10373342969E+03  0.10373342969E+03  0.00000000000E+00 0. -1.
    9000006    2    1    2  501    0  0.00000000000E+00  0.00000000000E+00  0.89626657031E+03  0.11037334297E+04  0.64415349006E+03 0.  0.
         13    1    3    3    0    0 -0.28608490675E+03 -0.63056081669E+02  0.21880564300E+03  0.36564539203E+03  0.00000000000E+00 0. -1.
          4    1    3    3  501    0  0.28608490675E+03  0.63056081669E+02  0.67746092731E+03  0.73808803766E+03  0.00000000000E+00 0. -1.
<mgrwt>
<rscale>  0 0.64415349E+03</rscale>
<asrwt>0</asrwt>
<pdfrwt beam="1">0</pdfrwt>
<pdfrwt beam="2">  1        2 0.37721327E+00 0.64415349E+03</pdfrwt>
<totfact> 0.48423495E+00</totfact>
</mgrwt>
</event>
<event>
 5    1  0.2368666E-004  0.6249379E+03  0.7818608E-02  0.9854977E-01
         13   -1    0    0    0    0  0.00000000000E+00  0.00000000000E+00  0.10000000000E+04  0.10000000000E+04  0.00000000000E+00 0. -1.
          2   -1    0    0  501    0 -0.00000000000E+00 -0.00000000000E+00 -0.97636841861E+02  0.97636841861E+02  0.00000000000E+00 0. -1.
    9000006    2    1    2  501    0  0.00000000000E+00  0.00000000000E+00  0.90236315814E+03  0.10976368419E+04  0.62493789087E+03 0.  0.
         13    1    3    3    0    0  0.30743638250E+03  0.35168073464E+02  0.52739608847E+03  0.61147408515E+03  0.00000000000E+00 0. -1.
          4    1    3    3  501    0 -0.30743638250E+03 -0.35168073464E+02  0.37496706967E+03  0.48616275671E+03  0.00000000000E+00 0. -1.
<mgrwt>
<rscale>  0 0.62493789E+03</rscale>
<asrwt>0</asrwt>
<pdfrwt beam="1">0</pdfrwt>
<pdfrwt beam="2">  1        2 0.35504381E+00 0.62493789E+03</pdfrwt>
<totfact> 0.58435839E+00</totfact>
</mgrwt>
</event>
<event>
 5    1  0.2368666E-004  0.6488554E+03  0.7818608E-02  0.9808929E-01
         13   -1    0    0    0    0  0.00000000000E+00  0.00000000000E+00  0.10000000000E+04  0.10000000000E+04  0.00000000000E+00 0. -1.
          2   -1    0    0  501    0 -0.00000000000E+00 -0.00000000000E+00 -0.10525333586E+03  0.10525333586E+03  0.00000000000E+00 0. -1.
    9000006    2    1    2  501    0  0.00000000000E+00  0.00000000000E+00  0.89474666414E+03  0.11052533359E+04  0.64885541028E+03 0.  0.
         13    1    3    3    0    0  0.19585715156E+02  0.65832620064E+02  0.98747345609E+03  0.98985926302E+03  0.00000000000E+00 0. -1.
          4    1    3    3  501    0 -0.19585715156E+02 -0.65832620064E+02 -0.92726791948E+02  0.11539407284E+03  0.00000000000E+00 0. -1.
<mgrwt>
<rscale>  0 0.64885541E+03</rscale>
<asrwt>0</asrwt>
<pdfrwt beam="1">0</pdfrwt>
<pdfrwt beam="2">  1        2 0.38274021E+00 0.64885541E+03</pdfrwt>
<totfact> 0.46185518E+00</totfact>
</mgrwt>
</event>
<event>
 5    1  0.2368666E-004  0.6466423E+03  0.7818608E-02  0.9813100E-01
         13   -1    0    0    0    0  0.00000000000E+00  0.00000000000E+00  0.10000000000E+04  0.10000000000E+04  0.00000000000E+00 0. -1.
          2   -1    0    0  501    0 -0.00000000000E+00 -0.00000000000E+00 -0.10453656107E+03  0.10453656107E+03  0.00000000000E+00 0. -1.
    9000006    2    1    2  501    0  0.00000000000E+00  0.00000000000E+00  0.89546343893E+03  0.11045365611E+04  0.64664228464E+03 0.  0.
         13    1    3    3    0    0  0.30064082662E+03  0.11873773109E+03  0.43529582291E+03  0.54218632301E+03  0.00000000000E+00 0. -1.
          2    1    3    3  501    0 -0.30064082662E+03 -0.11873773109E+03  0.46016761602E+03  0.56235023806E+03  0.00000000000E+00 0. -1.
<mgrwt>
<rscale>  0 0.64664228E+03</rscale>
<asrwt>0</asrwt>
<pdfrwt beam="1">0</pdfrwt>
<pdfrwt beam="2">  1        2 0.38013375E+00 0.64664228E+03</pdfrwt>
<totfact> 0.47228926E+00</totfact>
</mgrwt>
</event>
<event>
 5    1  0.2368666E-004  0.6450106E+03  0.7818608E-02  0.9816187E-01
         13   -1    0    0    0    0  0.00000000000E+00  0.00000000000E+00  0.10000000000E+04  0.10000000000E+04  0.00000000000E+00 0. -1.
          2   -1    0    0  501    0 -0.00000000000E+00 -0.00000000000E+00 -0.10400966093E+03  0.10400966093E+03  0.00000000000E+00 0. -1.
    9000006    2    1    2  501    0  0.00000000000E+00  0.00000000000E+00  0.89599033907E+03  0.11040096609E+04  0.64501057643E+03 0.  0.
         13    1    3    3    0    0 -0.32140810655E+03  0.17743934470E+01  0.49338819807E+03  0.58884482967E+03  0.00000000000E+00 0. -1.
          4    1    3    3  501    0  0.32140810655E+03 -0.17743934470E+01  0.40260214100E+03  0.51516483126E+03  0.00000000000E+00 0. -1.
<mgrwt>
<rscale>  0 0.64501058E+03</rscale>
<asrwt>0</asrwt>
<pdfrwt beam="1">0</pdfrwt>
<pdfrwt beam="2">  1        2 0.37821775E+00 0.64501058E+03</pdfrwt>
<totfact> 0.48009561E+00</totfact>
</mgrwt>
</event>
<event>
 5    1  0.2368666E-004  0.6519204E+03  0.7818608E-02  0.9803182E-01
         13   -1    0    0    0    0  0.00000000000E+00  0.00000000000E+00  0.10000000000E+04  0.10000000000E+04  0.00000000000E+00 0. -1.
          2   -1    0    0  501    0 -0.00000000000E+00 -0.00000000000E+00 -0.10625006169E+03  0.10625006169E+03  0.00000000000E+00 0. -1.
    9000006    2    1    2  501    0  0.00000000000E+00  0.00000000000E+00  0.89374993831E+03  0.11062500617E+04  0.65192042978E+03 0.  0.
         13    1    3    3    0    0  0.31619824296E+03  0.38602418921E+02  0.32957215689E+03  0.45835497401E+03  0.00000000000E+00 0. -1.
          4    1    3    3  501    0 -0.31619824296E+03 -0.38602418921E+02  0.56417778142E+03  0.64789508768E+03  0.00000000000E+00 0. -1.
<mgrwt>
<rscale>  0 0.65192043E+03</rscale>
<asrwt>0</asrwt>
<pdfrwt beam="1">0</pdfrwt>
<pdfrwt beam="2">  1        2 0.38636468E+00 0.65192043E+03</pdfrwt>
<totfact> 0.44769363E+00</totfact>
</mgrwt>
</event>
<event>
 5    1  0.2368666E-004  0.6515319E+03  0.7818608E-02  0.9803909E-01
         13   -1    0    0    0    0  0.00000000000E+00  0.00000000000E+00  0.10000000000E+04  0.10000000000E+04  0.00000000000E+00 0. -1.
          2   -1    0    0  501    0 -0.00000000000E+00 -0.00000000000E+00 -0.10612343958E+03  0.10612343958E+03  0.00000000000E+00 0. -1.
    9000006    2    1    2  501    0  0.00000000000E+00  0.00000000000E+00  0.89387656042E+03  0.11061234396E+04  0.65153185517E+03 0.  0.
         13    1    3    3    0    0  0.58203444651E+02 -0.25180148212E+03  0.78363580174E+03  0.82515252962E+03  0.00000000000E+00 0. -1.
          2    1    3    3  501    0 -0.58203444651E+02  0.25180148212E+03  0.11024075868E+03  0.28097090996E+03  0.00000000000E+00 0. -1.
<mgrwt>
<rscale>  0 0.65153186E+03</rscale>
<asrwt>0</asrwt>
<pdfrwt beam="1">0</pdfrwt>
<pdfrwt beam="2">  1        2 0.38590423E+00 0.65153186E+03</pdfrwt>
<totfact> 0.44947058E+00</totfact>
</mgrwt>
</event>
<event>
 5    1  0.2368666E-004  0.6847379E+03  0.7818608E-02  0.9743694E-01
         13   -1    0    0    0    0  0.00000000000E+00  0.00000000000E+00  0.10000000000E+04  0.10000000000E+04  0.00000000000E+00 0. -1.
          2   -1    0    0  501    0 -0.00000000000E+00 -0.00000000000E+00 -0.11721650404E+03  0.11721650404E+03  0.00000000000E+00 0. -1.
    9000006    2    1    2  501    0  0.00000000000E+00  0.00000000000E+00  0.88278349596E+03  0.11172165040E+04  0.68473791787E+03 0.  0.
         13    1    3    3    0    0  0.31990803469E+03  0.10788487238E+03  0.34857397203E+03  0.48526705052E+03  0.00000000000E+00 0. -1.
          2    1    3    3  501    0 -0.31990803469E+03 -0.10788487238E+03  0.53420952393E+03  0.63194945352E+03  0.00000000000E+00 0. -1.
<mgrwt>
<rscale>  0 0.68473792E+03</rscale>
<asrwt>0</asrwt>
<pdfrwt beam="1">0</pdfrwt>
<pdfrwt beam="2">  1        2 0.42624273E+00 0.68473792E+03</pdfrwt>
<totfact> 0.31572441E+00</totfact>
</mgrwt>
</event>
<event>
 5    1  0.2368666E-004  0.6463087E+03  0.7818608E-02  0.9813730E-01
         13   -1    0    0    0    0  0.00000000000E+00  0.00000000000E+00  0.10000000000E+04  0.10000000000E+04  0.00000000000E+00 0. -1.
          2   -1    0    0  501    0 -0.00000000000E+00 -0.00000000000E+00 -0.10442871936E+03  0.10442871936E+03  0.00000000000E+00 0. -1.
    9000006    2    1    2  501    0  0.00000000000E+00  0.00000000000E+00  0.89557128064E+03  0.11044287194E+04  0.64630865494E+03 0.  0.
         13    1    3    3    0    0 -0.22063006379E+03  0.14921826719E+03  0.13508923330E+03  0.29865166544E+03  0.00000000000E+00 0. -1.
          4    1    3    3  501    0  0.22063006379E+03 -0.14921826719E+03  0.76048204734E+03  0.80577705393E+03  0.00000000000E+00 0. -1.
<mgrwt>
<rscale>  0 0.64630865E+03</rscale>
<asrwt>0</asrwt>
<pdfrwt beam="1">0</pdfrwt>
<pdfrwt beam="2">  1        2 0.37974160E+00 0.64630865E+03</pdfrwt>
<totfact> 0.47387753E+00</totfact>
</mgrwt>
</event>
<event>
 5    1  0.2368666E-004  0.6365089E+03  0.7818608E-02  0.9832429E-01
         13   -1    0    0    0    0  0.00000000000E+00  0.00000000000E+00  0.10000000000E+04  0.10000000000E+04  0.00000000000E+00 0. -1.
          2   -1    0    0  501    0 -0.00000000000E+00 -0.00000000000E+00 -0.10128590589E+03  0.10128590589E+03  0.00000000000E+00 0. -1.
    9000006    2    1    2  501    0  0.00000000000E+00  0.00000000000E+00  0.89871409411E+03  0.11012859059E+04  0.63650893438E+03 0.  0.
         13    1    3    3    0    0 -0.28972531442E+02  0.16509349723E+03  0.91744055105E+03  0.93262663222E+03  0.00000000000E+00 0. -1.
          4    1    3    3  501    0  0.28972531442E+02 -0.16509349723E+03 -0.18726456937E+02  0.16865927367E+03  0.00000000000E+00 0. -1.
<mgrwt>
<rscale>  0 0.63650893E+03</rscale>
<asrwt>0</asrwt>
<pdfrwt beam="1">0</pdfrwt>
<pdfrwt beam="2">  1        2 0.36831316E+00 0.63650893E+03</pdfrwt>
<totfact> 0.52236430E+00</totfact>
</mgrwt>
</event>
<event>
 5    1  0.2368666E-004  0.6446973E+03  0.7818608E-02  0.9816780E-01
         13   -1    0    0    0    0  0.00000000000E+00  0.00000000000E+00  0.10000000000E+04  0.10000000000E+04  0.00000000000E+00 0. -1.
          2   -1    0    0  501    0 -0.00000000000E+00 -0.00000000000E+00 -0.10390865428E+03  0.10390865428E+03  0.00000000000E+00 0. -1.
    9000006    2    1    2  501    0  0.00000000000E+00  0.00000000000E+00  0.89609134572E+03  0.11039086543E+04  0.64469730658E+03 0.  0.
         13    1    3    3    0    0 -0.47630200646E+02  0.24517384536E+03  0.79699086754E+03  0.83520853288E+03  0.00000000000E+00 0. -1.
          2    1    3    3  501    0  0.47630200646E+02 -0.24517384536E+03  0.99100478186E+02  0.26870012140E+03  0.00000000000E+00 0. -1.
<mgrwt>
<rscale>  0 0.64469731E+03</rscale>
<asrwt>0</asrwt>
<pdfrwt beam="1">0</pdfrwt>
<pdfrwt beam="2">  1        2 0.37785045E+00 0.64469731E+03</pdfrwt>
<totfact> 0.48160544E+00</totfact>
</mgrwt>
</event>
<event>
 5    1  0.2368666E-004  0.6472706E+03  0.7818608E-02  0.9811914E-01
         13   -1    0    0    0    0  0.00000000000E+00  0.00000000000E+00  0.10000000000E+04  0.10000000000E+04  0.00000000000E+00 0. -1.
          2   -1    0    0  501    0 -0.00000000000E+00 -0.00000000000E+00 -0.10473982194E+03  0.10473982194E+03  0.00000000000E+00 0. -1.
    9000006    2    1    2  501    0  0.00000000000E+00  0.00000000000E+00  0.89526017806E+03  0.11047398219E+04  0.64727064491E+03 0.  0.
         13    1    3    3    0    0 -0.84907955938E+02  0.11471684289E+03 -0.48127563828E+02  0.15061732113E+03  0.00000000000E+00 0. -1.
          4    1    3    3  501    0  0.84907955938E+02 -0.11471684289E+03  0.94338774189E+03  0.95412250082E+03  0.00000000000E+00 0. -1.
<mgrwt>
<rscale>  0 0.64727064E+03</rscale>
<asrwt>0</asrwt>
<pdfrwt beam="1">0</pdfrwt>
<pdfrwt beam="2">  1        2 0.38087288E+00 0.64727064E+03</pdfrwt>
<totfact> 0.46930884E+00</totfact>
</mgrwt>
</event>
<event>
 5    1  0.2368666E-004  0.5866743E+03  0.7818608E-02  0.9933445E-01
         13   -1    0    0    0    0  0.00000000000E+00  0.00000000000E+00  0.10000000000E+04  0.10000000000E+04  0.00000000000E+00 0. -1.
          2   -1    0    0  501    0 -0.00000000000E+00 -0.00000000000E+00 -0.86046685630E+02  0.86046685630E+02  0.00000000000E+00 0. -1.
    9000006    2    1    2  501    0  0.00000000000E+00  0.00000000000E+00  0.91395331437E+03  0.10860466856E+04  0.58667430702E+03 0.  0.
         13    1    3    3    0    0  0.26042949395E+02  0.28476266257E+03  0.33588725149E+03  0.44112158745E+03  0.00000000000E+00 0. -1.
          4    1    3    3  501    0 -0.26042949395E+02 -0.28476266257E+03  0.57806606288E+03  0.64492509818E+03  0.00000000000E+00 0. -1.
<mgrwt>
<rscale>  0 0.58667431E+03</rscale>
<asrwt>0</asrwt>
<pdfrwt beam="1">0</pdfrwt>
<pdfrwt beam="2">  1        2 0.31289770E+00 0.58667431E+03</pdfrwt>
<totfact> 0.83008931E+00</totfact>
</mgrwt>
</event>
<event>
 5    1  0.2368666E-004  0.6447022E+03  0.7818608E-02  0.9816771E-01
         13   -1    0    0    0    0  0.00000000000E+00  0.00000000000E+00  0.10000000000E+04  0.10000000000E+04  0.00000000000E+00 0. -1.
          2   -1    0    0  501    0 -0.00000000000E+00 -0.00000000000E+00 -0.10391023817E+03  0.10391023817E+03  0.00000000000E+00 0. -1.
    9000006    2    1    2  501    0  0.00000000000E+00  0.00000000000E+00  0.89608976183E+03  0.11039102382E+04  0.64470222017E+03 0.  0.
         13    1    3    3    0    0  0.16449377288E+03 -0.16238061220E+03  0.83277301113E+03  0.86425491182E+03  0.00000000000E+00 0. -1.
          4    1    3    3  501    0 -0.16449377288E+03  0.16238061220E+03  0.63316750697E+02  0.23965532636E+03  0.00000000000E+00 0. -1.
<mgrwt>
<rscale>  0 0.64470222E+03</rscale>
<asrwt>0</asrwt>
<pdfrwt beam="1">0</pdfrwt>
<pdfrwt beam="2">  1        2 0.37785621E+00 0.64470222E+03</pdfrwt>
<totfact> 0.48158173E+00</totfact>
</mgrwt>
</event>
<event>
 5    1  0.2368666E-004  0.6540350E+03  0.7818608E-02  0.9799237E-01
         13   -1    0    0    0    0  0.00000000000E+00  0.00000000000E+00  0.10000000000E+04  0.10000000000E+04  0.00000000000E+00 0. -1.
          2   -1    0    0  501    0 -0.00000000000E+00 -0.00000000000E+00 -0.10694043142E+03  0.10694043142E+03  0.00000000000E+00 0. -1.
    9000006    2    1    2  501    0  0.00000000000E+00  0.00000000000E+00  0.89305956858E+03  0.11069404314E+04  0.65403495755E+03 0.  0.
         13    1    3    3    0    0 -0.51576307878E+02  0.41608601261E+02 -0.95457489201E+02  0.11620466203E+03  0.00000000000E+00 0. -1.
          4    1    3    3  501    0  0.51576307878E+02 -0.41608601261E+02  0.98851705778E+03  0.99073576939E+03  0.00000000000E+00 0. -1.
<mgrwt>
<rscale>  0 0.65403496E+03</rscale>
<asrwt>0</asrwt>
<pdfrwt beam="1">0</pdfrwt>
<pdfrwt beam="2">  1        2 0.38887512E+00 0.65403496E+03</pdfrwt>
<totfact> 0.43811672E+00</totfact>
</mgrwt>
</event>
<event>
 5    1  0.2368666E-004  0.4808069E+03  0.7818608E-02  0.1018914E+00
         13   -1    0    0    0    0  0.00000000000E+00  0.00000000000E+00  0.10000000000E+04  0.10000000000E+04  0.00000000000E+00 0. -1.
          2   -1    0    0  501    0 -0.00000000000E+00 -0.00000000000E+00 -0.57793822520E+02  0.57793822520E+02  0.00000000000E+00 0. -1.
    9000006    2    1    2  501    0  0.00000000000E+00  0.00000000000E+00  0.94220617748E+03  0.10577938225E+04  0.48080691559E+03 0.  0.
         13    1    3    3    0    0  0.22580102504E+03  0.82487188217E+02  0.47526772764E+03  0.53260647017E+03  0.00000000000E+00 0. -1.
          4    1    3    3  501    0 -0.22580102504E+03 -0.82487188217E+02  0.46693844984E+03  0.52518735235E+03  0.00000000000E+00 0. -1.
<mgrwt>
<rscale>  0 0.48080692E+03</rscale>
<asrwt>0</asrwt>
<pdfrwt beam="1">0</pdfrwt>
<pdfrwt beam="2">  1        2 0.21015980E+00 0.48080692E+03</pdfrwt>
<totfact> 0.19469694E+01</totfact>
</mgrwt>
</event>
<event>
 5    1  0.2368666E-004  0.6543971E+03  0.7818608E-02  0.9798563E-01
         13   -1    0    0    0    0  0.00000000000E+00  0.00000000000E+00  0.10000000000E+04  0.10000000000E+04  0.00000000000E+00 0. -1.
          2   -1    0    0  501    0 -0.00000000000E+00 -0.00000000000E+00 -0.10705890615E+03  0.10705890615E+03  0.00000000000E+00 0. -1.
    9000006    2    1    2  501    0  0.00000000000E+00  0.00000000000E+00  0.89294109385E+03  0.11070589062E+04  0.65439714594E+03 0.  0.
         13    1    3    3    0    0 -0.17424261108E+03 -0.24566875943E+03  0.66275510142E+03  0.72798210921E+03  0.00000000000E+00 0. -1.
          2    1    3    3  501    0  0.17424261108E+03  0.24566875943E+03  0.23018599243E+03  0.37907679695E+03  0.00000000000E+00 0. -1.
<mgrwt>
<rscale>  0 0.65439715E+03</rscale>
<asrwt>0</asrwt>
<pdfrwt beam="1">0</pdfrwt>
<pdfrwt beam="2">  1        2 0.38930593E+00 0.65439715E+03</pdfrwt>
<totfact> 0.43649199E+00</totfact>
</mgrwt>
</event>
<event>
 5    1  0.2368666E-004  0.6489582E+03  0.7818608E-02  0.9808736E-01
         13   -1    0    0    0    0  0.00000000000E+00  0.00000000000E+00  0.10000000000E+04  0.10000000000E+04  0.00000000000E+00 0. -1.
          2   -1    0    0  501    0 -0.00000000000E+00 -0.00000000000E+00 -0.10528669457E+03  0.10528669457E+03  0.00000000000E+00 0. -1.
    9000006    2    1    2  501    0  0.00000000000E+00  0.00000000000E+00  0.89471330543E+03  0.11052866946E+04  0.64895822537E+03 0.  0.
         13    1    3    3    0    0  0.19881074973E+03 -0.19490369782E+03  0.73119674102E+03  0.78240771961E+03  0.00000000000E+00 0. -1.
          2    1    3    3  501    0 -0.19881074973E+03  0.19490369782E+03  0.16351656441E+03  0.32287897496E+03  0.00000000000E+00 0. -1.
<mgrwt>
<rscale>  0 0.64895823E+03</rscale>
<asrwt>0</asrwt>
<pdfrwt beam="1">0</pdfrwt>
<pdfrwt beam="2">  1        2 0.38286151E+00 0.64895823E+03</pdfrwt>
<totfact> 0.46137472E+00</totfact>
</mgrwt>
</event>
<event>
 5    1  0.2368666E-004  0.6798526E+03  0.7818608E-02  0.9752321E-01
         13   -1    0    0    0    0  0.00000000000E+00  0.00000000000E+00  0.10000000000E+04  0.10000000000E+04  0.00000000000E+00 0. -1.
          2   -1    0    0  501    0 -0.00000000000E+00 -0.00000000000E+00 -0.11554990468E+03  0.11554990468E+03  0.00000000000E+00 0. -1.
    9000006    2    1    2  501    0  0.00000000000E+00  0.00000000000E+00  0.88445009532E+03  0.11155499047E+04  0.67985264486E+03 0.  0.
         13    1    3    3    0    0 -0.15030754387E+03  0.17613642192E+03  0.85057927066E+03  0.88153360262E+03  0.00000000000E+00 0. -1.
          4    1    3    3  501    0  0.15030754387E+03 -0.17613642192E+03  0.33870824660E+02  0.23401630206E+03  0.00000000000E+00 0. -1.
<mgrwt>
<rscale>  0 0.67985264E+03</rscale>
<asrwt>0</asrwt>
<pdfrwt beam="1">0</pdfrwt>
<pdfrwt beam="2">  1        2 0.42018236E+00 0.67985264E+03</pdfrwt>
<totfact> 0.33321806E+00</totfact>
</mgrwt>
</event>
<event>
 5    1  0.2368666E-004  0.6213036E+03  0.7818608E-02  0.9862168E-01
         13   -1    0    0    0    0  0.00000000000E+00  0.00000000000E+00  0.10000000000E+04  0.10000000000E+04  0.00000000000E+00 0. -1.
          2   -1    0    0  501    0 -0.00000000000E+00 -0.00000000000E+00 -0.96504526573E+02  0.96504526573E+02  0.00000000000E+00 0. -1.
    9000006    2    1    2  501    0  0.00000000000E+00  0.00000000000E+00  0.90349547343E+03  0.10965045266E+04  0.62130355406E+03 0.  0.
         13    1    3    3    0    0  0.26145160558E+03 -0.36978131652E+02  0.16293687816E+03  0.31027850481E+03  0.00000000000E+00 0. -1.
          4    1    3    3  501    0 -0.26145160558E+03  0.36978131652E+02  0.74055859526E+03  0.78622602177E+03  0.00000000000E+00 0. -1.
<mgrwt>
<rscale>  0 0.62130355E+03</rscale>
<asrwt>0</asrwt>
<pdfrwt beam="1">0</pdfrwt>
<pdfrwt beam="2">  1        2 0.35092629E+00 0.62130355E+03</pdfrwt>
<totfact> 0.60493871E+00</totfact>
</mgrwt>
</event>
<event>
 5    1  0.2368666E-004  0.6376490E+03  0.7818608E-02  0.9830235E-01
         13   -1    0    0    0    0  0.00000000000E+00  0.00000000000E+00  0.10000000000E+04  0.10000000000E+04  0.00000000000E+00 0. -1.
          2   -1    0    0  501    0 -0.00000000000E+00 -0.00000000000E+00 -0.10164905076E+03  0.10164905076E+03  0.00000000000E+00 0. -1.
    9000006    2    1    2  501    0  0.00000000000E+00  0.00000000000E+00  0.89835094924E+03  0.11016490508E+04  0.63764896538E+03 0.  0.
         13    1    3    3    0    0  0.29019503087E+03  0.12515670076E+03  0.52189584698E+03  0.61012509437E+03  0.00000000000E+00 0. -1.
          2    1    3    3  501    0 -0.29019503087E+03 -0.12515670076E+03  0.37645510226E+03  0.49152395639E+03  0.00000000000E+00 0. -1.
<mgrwt>
<rscale>  0 0.63764897E+03</rscale>
<asrwt>0</asrwt>
<pdfrwt beam="1">0</pdfrwt>
<pdfrwt beam="2">  1        2 0.36963369E+00 0.63764897E+03</pdfrwt>
<totfact> 0.51653848E+00</totfact>
</mgrwt>
</event>
<event>
 5    1  0.2368666E-004  0.6407869E+03  0.7818608E-02  0.9824222E-01
         13   -1    0    0    0    0  0.00000000000E+00  0.00000000000E+00  0.10000000000E+04  0.10000000000E+04  0.00000000000E+00 0. -1.
          2   -1    0    0  501    0 -0.00000000000E+00 -0.00000000000E+00 -0.10265195579E+03  0.10265195579E+03  0.00000000000E+00 0. -1.
    9000006    2    1    2  501    0  0.00000000000E+00  0.00000000000E+00  0.89734804421E+03  0.11026519558E+04  0.64078687810E+03 0.  0.
         13    1    3    3    0    0 -0.19331556776E+03 -0.69356233371E+02  0.25520894125E+02  0.20696016980E+03  0.00000000000E+00 0. -1.
          2    1    3    3  501    0  0.19331556776E+03  0.69356233371E+02  0.87182715009E+03  0.89569178598E+03  0.00000000000E+00 0. -1.
<mgrwt>
<rscale>  0 0.64078688E+03</rscale>
<asrwt>0</asrwt>
<pdfrwt beam="1">0</pdfrwt>
<pdfrwt beam="2">  1        2 0.37328063E+00 0.64078688E+03</pdfrwt>
<totfact> 0.50075705E+00</totfact>
</mgrwt>
</event>
<event>
 5    1  0.2368666E-004  0.6439149E+03  0.7818608E-02  0.9818265E-01
         13   -1    0    0    0    0  0.00000000000E+00  0.00000000000E+00  0.10000000000E+04  0.10000000000E+04  0.00000000000E+00 0. -1.
          2   -1    0    0  501    0 -0.00000000000E+00 -0.00000000000E+00 -0.10365658525E+03  0.10365658525E+03  0.00000000000E+00 0. -1.
    9000006    2    1    2  501    0  0.00000000000E+00  0.00000000000E+00  0.89634341475E+03  0.11036565853E+04  0.64391485540E+03 0.  0.
         13    1    3    3    0    0  0.16492676190E+03 -0.13315843618E+03  0.86352290936E+03  0.88915905265E+03  0.00000000000E+00 0. -1.
          2    1    3    3  501    0 -0.16492676190E+03  0.13315843618E+03  0.32820505386E+02  0.21449753260E+03  0.00000000000E+00 0. -1.
<mgrwt>
<rscale>  0 0.64391486E+03</rscale>
<asrwt>0</asrwt>
<pdfrwt beam="1">0</pdfrwt>
<pdfrwt beam="2">  1        2 0.37693383E+00 0.64391486E+03</pdfrwt>
<totfact> 0.48539223E+00</totfact>
</mgrwt>
</event>
<event>
 5    1  0.2368666E-004  0.6513130E+03  0.7818608E-02  0.9804319E-01
         13   -1    0    0    0    0  0.00000000000E+00  0.00000000000E+00  0.10000000000E+04  0.10000000000E+04  0.00000000000E+00 0. -1.
          2   -1    0    0  501    0 -0.00000000000E+00 -0.00000000000E+00 -0.10605215056E+03  0.10605215056E+03  0.00000000000E+00 0. -1.
    9000006    2    1    2  501    0  0.00000000000E+00  0.00000000000E+00  0.89394784944E+03  0.11060521506E+04  0.65131298333E+03 0.  0.
         13    1    3    3    0    0 -0.27878939618E+03 -0.16830315890E+03  0.44419914234E+03  0.55078340459E+03  0.00000000000E+00 0. -1.
          4    1    3    3  501    0  0.27878939618E+03  0.16830315890E+03  0.44974870709E+03  0.55526874597E+03  0.00000000000E+00 0. -1.
<mgrwt>
<rscale>  0 0.65131298E+03</rscale>
<asrwt>0</asrwt>
<pdfrwt beam="1">0</pdfrwt>
<pdfrwt beam="2">  1        2 0.38564500E+00 0.65131298E+03</pdfrwt>
<totfact> 0.45047383E+00</totfact>
</mgrwt>
</event>
<event>
 5    1  0.2368666E-004  0.6515557E+03  0.7818608E-02  0.9803864E-01
         13   -1    0    0    0    0  0.00000000000E+00  0.00000000000E+00  0.10000000000E+04  0.10000000000E+04  0.00000000000E+00 0. -1.
          2   -1    0    0  501    0 -0.00000000000E+00 -0.00000000000E+00 -0.10613120846E+03  0.10613120846E+03  0.00000000000E+00 0. -1.
    9000006    2    1    2  501    0  0.00000000000E+00  0.00000000000E+00  0.89386879154E+03  0.11061312085E+04  0.65155570280E+03 0.  0.
         13    1    3    3    0    0 -0.32230820426E+03  0.24041260109E+02  0.51632449990E+03  0.60914000847E+03  0.00000000000E+00 0. -1.
          2    1    3    3  501    0  0.32230820426E+03 -0.24041260109E+02  0.37754429164E+03  0.49699120000E+03  0.00000000000E+00 0. -1.
<mgrwt>
<rscale>  0 0.65155570E+03</rscale>
<asrwt>0</asrwt>
<pdfrwt beam="1">0</pdfrwt>
<pdfrwt beam="2">  1        2 0.38593248E+00 0.65155570E+03</pdfrwt>
<totfact> 0.44936137E+00</totfact>
</mgrwt>
</event>
<event>
 5    1  0.2368666E-004  0.6609344E+03  0.7818608E-02  0.9786475E-01
         13   -1    0    0    0    0  0.00000000000E+00  0.00000000000E+00  0.10000000000E+04  0.10000000000E+04  0.00000000000E+00 0. -1.
          2   -1    0    0  501    0 -0.00000000000E+00 -0.00000000000E+00 -0.10920857904E+03  0.10920857904E+03  0.00000000000E+00 0. -1.
    9000006    2    1    2  501    0  0.00000000000E+00  0.00000000000E+00  0.89079142096E+03  0.11092085790E+04  0.66093442651E+03 0.  0.
         13    1    3    3    0    0 -0.66468158952E+02 -0.34160444480E+02  0.98563260537E+03  0.98846172657E+03  0.00000000000E+00 0. -1.
          2    1    3    3  501    0  0.66468158952E+02  0.34160444480E+02 -0.94841184407E+02  0.12074685247E+03  0.00000000000E+00 0. -1.
<mgrwt>
<rscale>  0 0.66093443E+03</rscale>
<asrwt>0</asrwt>
<pdfrwt beam="1">0</pdfrwt>
<pdfrwt beam="2">  1        2 0.39712294E+00 0.66093443E+03</pdfrwt>
<totfact> 0.40794197E+00</totfact>
</mgrwt>
</event>
<event>
 5    1  0.2368666E-004  0.6547593E+03  0.7818608E-02  0.9797889E-01
         13   -1    0    0    0    0  0.00000000000E+00  0.00000000000E+00  0.10000000000E+04  0.10000000000E+04  0.00000000000E+00 0. -1.
          2   -1    0    0  501    0 -0.00000000000E+00 -0.00000000000E+00 -0.10717744283E+03  0.10717744283E+03  0.00000000000E+00 0. -1.
    9000006    2    1    2  501    0  0.00000000000E+00  0.00000000000E+00  0.89282255717E+03  0.11071774428E+04  0.65475932320E+03 0.  0.
         13    1    3    3    0    0  0.19111335850E+03  0.84381739114E+02  0.87263214133E+03  0.89729117223E+03  0.00000000000E+00 0. -1.
          2    1    3    3  501    0 -0.19111335850E+03 -0.84381739114E+02  0.20190415846E+02  0.20988627059E+03  0.00000000000E+00 0. -1.
<mgrwt>
<rscale>  0 0.65475932E+03</rscale>
<asrwt>0</asrwt>
<pdfrwt beam="1">0</pdfrwt>
<pdfrwt beam="2">  1        2 0.38973698E+00 0.65475932E+03</pdfrwt>
<totfact> 0.43487185E+00</totfact>
</mgrwt>
</event>
<event>
 5    1  0.2368666E-004  0.6330537E+03  0.7818608E-02  0.9839108E-01
         13   -1    0    0    0    0  0.00000000000E+00  0.00000000000E+00  0.10000000000E+04  0.10000000000E+04  0.00000000000E+00 0. -1.
          2   -1    0    0  501    0 -0.00000000000E+00 -0.00000000000E+00 -0.10018923537E+03  0.10018923537E+03  0.00000000000E+00 0. -1.
    9000006    2    1    2  501    0  0.00000000000E+00  0.00000000000E+00  0.89981076463E+03  0.11001892354E+04  0.63305366397E+03 0.  0.
         13    1    3    3    0    0  0.27728613555E+03 -0.94525584626E+02  0.24159875732E+03  0.37972706864E+03  0.00000000000E+00 0. -1.
          4    1    3    3  501    0 -0.27728613555E+03  0.94525584626E+02  0.65821200732E+03  0.72046216673E+03  0.00000000000E+00 0. -1.
<mgrwt>
<rscale>  0 0.63305366E+03</rscale>
<asrwt>0</asrwt>
<pdfrwt beam="1">0</pdfrwt>
<pdfrwt beam="2">  1        2 0.36432526E+00 0.63305366E+03</pdfrwt>
<totfact> 0.54032610E+00</totfact>
</mgrwt>
</event>
<event>
 5    1  0.2368666E-004  0.6549947E+03  0.7818608E-02  0.9797452E-01
         13   -1    0    0    0    0  0.00000000000E+00  0.00000000000E+00  0.10000000000E+04  0.10000000000E+04  0.00000000000E+00 0. -1.
          2   -1    0    0  501    0 -0.00000000000E+00 -0.00000000000E+00 -0.10725451611E+03  0.10725451611E+03  0.00000000000E+00 0. -1.
    9000006    2    1    2  501    0  0.00000000000E+00  0.00000000000E+00  0.89274548389E+03  0.11072545161E+04  0.65499470564E+03 0.  0.
         13    1    3    3    0    0 -0.69834744666E+02  0.31990922731E+03  0.45647479464E+03  0.56177223447E+03  0.00000000000E+00 0. -1.
          4    1    3    3  501    0  0.69834744666E+02 -0.31990922731E+03  0.43627068925E+03  0.54548228164E+03  0.00000000000E+00 0. -1.
<mgrwt>
<rscale>  0 0.65499471E+03</rscale>
<asrwt>0</asrwt>
<pdfrwt beam="1">0</pdfrwt>
<pdfrwt beam="2">  1        2 0.39001724E+00 0.65499471E+03</pdfrwt>
<totfact> 0.43382135E+00</totfact>
</mgrwt>
</event>
<event>
 5    1  0.2368666E-004  0.6672897E+03  0.7818608E-02  0.9774866E-01
         13   -1    0    0    0    0  0.00000000000E+00  0.00000000000E+00  0.10000000000E+04  0.10000000000E+04  0.00000000000E+00 0. -1.
          4   -1    0    0  501    0 -0.00000000000E+00 -0.00000000000E+00 -0.11131888811E+03  0.11131888811E+03  0.00000000000E+00 0. -1.
    9000006    2    1    2  501    0  0.00000000000E+00  0.00000000000E+00  0.88868111189E+03  0.11113188881E+04  0.66728970654E+03 0.  0.
         13    1    3    3    0    0 -0.36495400470E+02  0.64807667845E+02  0.98601743393E+03  0.98881865278E+03  0.00000000000E+00 0. -1.
          2    1    3    3  501    0  0.36495400470E+02 -0.64807667845E+02 -0.97336322045E+02  0.12250023533E+03  0.00000000000E+00 0. -1.
<mgrwt>
<rscale>  0 0.66728971E+03</rscale>
<asrwt>0</asrwt>
<pdfrwt beam="1">0</pdfrwt>
<pdfrwt beam="2">  1        4 0.40479681E+00 0.66728971E+03</pdfrwt>
<totfact> 0.29678445E-02</totfact>
</mgrwt>
</event>
<event>
 5    1  0.2368666E-004  0.6493327E+03  0.7818608E-02  0.9808032E-01
         13   -1    0    0    0    0  0.00000000000E+00  0.00000000000E+00  0.10000000000E+04  0.10000000000E+04  0.00000000000E+00 0. -1.
          2   -1    0    0  501    0 -0.00000000000E+00 -0.00000000000E+00 -0.10540823283E+03  0.10540823283E+03  0.00000000000E+00 0. -1.
    9000006    2    1    2  501    0  0.00000000000E+00  0.00000000000E+00  0.89459176717E+03  0.11054082328E+04  0.64933268155E+03 0.  0.
         13    1    3    3    0    0  0.95631786937E+02  0.24307290132E+03  0.11904905399E+03  0.28705844576E+03  0.00000000000E+00 0. -1.
          2    1    3    3  501    0 -0.95631786937E+02 -0.24307290132E+03  0.77554271318E+03  0.81834978707E+03  0.00000000000E+00 0. -1.
<mgrwt>
<rscale>  0 0.64933268E+03</rscale>
<asrwt>0</asrwt>
<pdfrwt beam="1">0</pdfrwt>
<pdfrwt beam="2">  1        2 0.38330347E+00 0.64933268E+03</pdfrwt>
<totfact> 0.45962806E+00</totfact>
</mgrwt>
</event>
<event>
 5    1  0.2368666E-004  0.6378044E+03  0.7818608E-02  0.9829936E-01
         13   -1    0    0    0    0  0.00000000000E+00  0.00000000000E+00  0.10000000000E+04  0.10000000000E+04  0.00000000000E+00 0. -1.
          2   -1    0    0  501    0 -0.00000000000E+00 -0.00000000000E+00 -0.10169860993E+03  0.10169860993E+03  0.00000000000E+00 0. -1.
    9000006    2    1    2  501    0  0.00000000000E+00  0.00000000000E+00  0.89830139007E+03  0.11016986099E+04  0.63780438985E+03 0.  0.
         13    1    3    3    0    0  0.18389892717E+03 -0.23428582455E+03  0.25228094688E+03  0.39032593965E+03  0.00000000000E+00 0. -1.
          4    1    3    3  501    0 -0.18389892717E+03  0.23428582455E+03  0.64602044319E+03  0.71137267028E+03  0.00000000000E+00 0. -1.
<mgrwt>
<rscale>  0 0.63780439E+03</rscale>
<asrwt>0</asrwt>
<pdfrwt beam="1">0</pdfrwt>
<pdfrwt beam="2">  1        2 0.36981391E+00 0.63780439E+03</pdfrwt>
<totfact> 0.51574805E+00</totfact>
</mgrwt>
</event>
<event>
 5    1  0.2368666E-004  0.6521590E+03  0.7818608E-02  0.9802736E-01
         13   -1    0    0    0    0  0.00000000000E+00  0.00000000000E+00  0.10000000000E+04  0.10000000000E+04  0.00000000000E+00 0. -1.
          2   -1    0    0  501    0 -0.00000000000E+00 -0.00000000000E+00 -0.10632784092E+03  0.10632784092E+03  0.00000000000E+00 0. -1.
    9000006    2    1    2  501    0  0.00000000000E+00  0.00000000000E+00  0.89367215908E+03  0.11063278409E+04  0.65215900183E+03 0.  0.
         13    1    3    3    0    0 -0.74755009703E+02 -0.74276878264E+02 -0.76643904574E+02  0.13030600227E+03  0.00000000000E+00 0. -1.
          4    1    3    3  501    0  0.74755009703E+02  0.74276878264E+02  0.97031606366E+03  0.97602183864E+03  0.00000000000E+00 0. -1.
<mgrwt>
<rscale>  0 0.65215900E+03</rscale>
<asrwt>0</asrwt>
<pdfrwt beam="1">0</pdfrwt>
<pdfrwt beam="2">  1        2 0.38664751E+00 0.65215900E+03</pdfrwt>
<totfact> 0.44660527E+00</totfact>
</mgrwt>
</event>
<event>
 5    1  0.2368666E-004  0.6462211E+03  0.7818608E-02  0.9813896E-01
         13   -1    0    0    0    0  0.00000000000E+00  0.00000000000E+00  0.10000000000E+04  0.10000000000E+04  0.00000000000E+00 0. -1.
          2   -1    0    0  501    0 -0.00000000000E+00 -0.00000000000E+00 -0.10440042426E+03  0.10440042426E+03  0.00000000000E+00 0. -1.
    9000006    2    1    2  501    0  0.00000000000E+00  0.00000000000E+00  0.89559957574E+03  0.11044004243E+04  0.64622108992E+03 0.  0.
         13    1    3    3    0    0  0.30930673885E+01 -0.29379132758E+03  0.21801843660E+03  0.36586192740E+03  0.00000000000E+00 0. -1.
          2    1    3    3  501    0 -0.30930673885E+01  0.29379132758E+03  0.67758113914E+03  0.73853849686E+03  0.00000000000E+00 0. -1.
<mgrwt>
<rscale>  0 0.64622109E+03</rscale>
<asrwt>0</asrwt>
<pdfrwt beam="1">0</pdfrwt>
<pdfrwt beam="2">  1        2 0.37963871E+00 0.64622109E+03</pdfrwt>
<totfact> 0.47429506E+00</totfact>
</mgrwt>
</event>
<event>
 5    1  0.2368666E-004  0.6397683E+03  0.7818608E-02  0.9826170E-01
         13   -1    0    0    0    0  0.00000000000E+00  0.00000000000E+00  0.10000000000E+04  0.10000000000E+04  0.00000000000E+00 0. -1.
          2   -1    0    0  501    0 -0.00000000000E+00 -0.00000000000E+00 -0.10232588478E+03  0.10232588478E+03  0.00000000000E+00 0. -1.
    9000006    2    1    2  501    0  0.00000000000E+00  0.00000000000E+00  0.89767411522E+03  0.11023258848E+04  0.63976834800E+03 0.  0.
         13    1    3    3    0    0  0.14627378780E+03  0.76415989257E+00 -0.41325455029E+02  0.15200130976E+03  0.00000000000E+00 0. -1.
          2    1    3    3  501    0 -0.14627378780E+03 -0.76415989257E+00  0.93899957025E+03  0.95032457501E+03  0.00000000000E+00 0. -1.
<mgrwt>
<rscale>  0 0.63976835E+03</rscale>
<asrwt>0</asrwt>
<pdfrwt beam="1">0</pdfrwt>
<pdfrwt beam="2">  1        2 0.37209491E+00 0.63976835E+03</pdfrwt>
<totfact> 0.50583890E+00</totfact>
</mgrwt>
</event>
<event>
 5    1  0.2368666E-004  0.6490728E+03  0.7818608E-02  0.9808521E-01
         13   -1    0    0    0    0  0.00000000000E+00  0.00000000000E+00  0.10000000000E+04  0.10000000000E+04  0.00000000000E+00 0. -1.
          2   -1    0    0  501    0 -0.00000000000E+00 -0.00000000000E+00 -0.10532388222E+03  0.10532388222E+03  0.00000000000E+00 0. -1.
    9000006    2    1    2  501    0  0.00000000000E+00  0.00000000000E+00  0.89467611778E+03  0.11053238822E+04  0.64907282249E+03 0.  0.
         13    1    3    3    0    0 -0.28593076526E+03  0.13899792679E+03  0.33635923320E+03  0.46283297195E+03  0.00000000000E+00 0. -1.
          4    1    3    3  501    0  0.28593076526E+03 -0.13899792679E+03  0.55831688458E+03  0.64249091027E+03  0.00000000000E+00 0. -1.
<mgrwt>
<rscale>  0 0.64907282E+03</rscale>
<asrwt>0</asrwt>
<pdfrwt beam="1">0</pdfrwt>
<pdfrwt beam="2">  1        2 0.38299674E+00 0.64907282E+03</pdfrwt>
<totfact> 0.46083964E+00</totfact>
</mgrwt>
</event>
<event>
 5    1  0.2368666E-004  0.6473601E+03  0.7818608E-02  0.9811745E-01
         13   -1    0    0    0    0  0.00000000000E+00  0.00000000000E+00  0.10000000000E+04  0.10000000000E+04  0.00000000000E+00 0. -1.
          2   -1    0    0  501    0 -0.00000000000E+00 -0.00000000000E+00 -0.10476877152E+03  0.10476877152E+03  0.00000000000E+00 0. -1.
    9000006    2    1    2  501    0  0.00000000000E+00  0.00000000000E+00  0.89523122848E+03  0.11047687715E+04  0.64736008996E+03 0.  0.
         13    1    3    3    0    0  0.57072008765E+02 -0.27437804654E+03  0.17123340547E+03  0.32842260239E+03  0.00000000000E+00 0. -1.
          2    1    3    3  501    0 -0.57072008765E+02  0.27437804654E+03  0.72399782301E+03  0.77634616913E+03  0.00000000000E+00 0. -1.
<mgrwt>
<rscale>  0 0.64736009E+03</rscale>
<asrwt>0</asrwt>
<pdfrwt beam="1">0</pdfrwt>
<pdfrwt beam="2">  1        2 0.38097815E+00 0.64736009E+03</pdfrwt>
<totfact> 0.46888574E+00</totfact>
</mgrwt>
</event>
<event>
 5    1  0.2368666E-004  0.6482576E+03  0.7818608E-02  0.9810054E-01
         13   -1    0    0    0    0  0.00000000000E+00  0.00000000000E+00  0.10000000000E+04  0.10000000000E+04  0.00000000000E+00 0. -1.
          2   -1    0    0  501    0 -0.00000000000E+00 -0.00000000000E+00 -0.10505948006E+03  0.10505948006E+03  0.00000000000E+00 0. -1.
    9000006    2    1    2  501    0  0.00000000000E+00  0.00000000000E+00  0.89494051994E+03  0.11050594801E+04  0.64825760330E+03 0.  0.
         13    1    3    3    0    0  0.11622145614E+03  0.80716521626E+02 -0.49627419607E+02  0.14995154053E+03  0.00000000000E+00 0. -1.
          4    1    3    3  501    0 -0.11622145614E+03 -0.80716521626E+02  0.94456793955E+03  0.95510793953E+03  0.00000000000E+00 0. -1.
<mgrwt>
<rscale>  0 0.64825760E+03</rscale>
<asrwt>0</asrwt>
<pdfrwt beam="1">0</pdfrwt>
<pdfrwt beam="2">  1        2 0.38203528E+00 0.64825760E+03</pdfrwt>
<totfact> 0.46465626E+00</totfact>
</mgrwt>
</event>
<event>
 5    1  0.2368666E-004  0.6545778E+03  0.7818608E-02  0.9798227E-01
         13   -1    0    0    0    0  0.00000000000E+00  0.00000000000E+00  0.10000000000E+04  0.10000000000E+04  0.00000000000E+00 0. -1.
          2   -1    0    0  501    0 -0.00000000000E+00 -0.00000000000E+00 -0.10711802606E+03  0.10711802606E+03  0.00000000000E+00 0. -1.
    9000006    2    1    2  501    0  0.00000000000E+00  0.00000000000E+00  0.89288197394E+03  0.11071180261E+04  0.65457780610E+03 0.  0.
         13    1    3    3    0    0  0.27382995898E+03  0.10170399564E+03  0.19676545816E+03  0.35219766423E+03  0.00000000000E+00 0. -1.
          2    1    3    3  501    0 -0.27382995898E+03 -0.10170399564E+03  0.69611651578E+03  0.75492036183E+03  0.00000000000E+00 0. -1.
<mgrwt>
<rscale>  0 0.65457781E+03</rscale>
<asrwt>0</asrwt>
<pdfrwt beam="1">0</pdfrwt>
<pdfrwt beam="2">  1        2 0.38952092E+00 0.65457781E+03</pdfrwt>
<totfact> 0.43568327E+00</totfact>
</mgrwt>
</event>
<event>
 5    1  0.2368666E-004  0.6505168E+03  0.7818608E-02  0.9805810E-01
         13   -1    0    0    0    0  0.00000000000E+00  0.00000000000E+00  0.10000000000E+04  0.10000000000E+04  0.00000000000E+00 0. -1.
          2   -1    0    0  501    0 -0.00000000000E+00 -0.00000000000E+00 -0.10579302483E+03  0.10579302483E+03  0.00000000000E+00 0. -1.
    9000006    2    1    2  501    0  0.00000000000E+00  0.00000000000E+00  0.89420697517E+03  0.11057930248E+04  0.65051679403E+03 0.  0.
         13    1    3    3    0    0 -0.13211106742E+03 -0.17632192305E+03  0.40375457460E+02  0.22399315223E+03  0.00000000000E+00 0. -1.
          2    1    3    3  501    0  0.13211106742E+03  0.17632192305E+03  0.85383151771E+03  0.88179987260E+03  0.00000000000E+00 0. -1.
<mgrwt>
<rscale>  0 0.65051679E+03</rscale>
<asrwt>0</asrwt>
<pdfrwt beam="1">0</pdfrwt>
<pdfrwt beam="2">  1        2 0.38470272E+00 0.65051679E+03</pdfrwt>
<totfact> 0.45413760E+00</totfact>
</mgrwt>
</event>
<event>
 5    1  0.2368666E-004  0.6554195E+03  0.7818608E-02  0.9796663E-01
         13   -1    0    0    0    0  0.00000000000E+00  0.00000000000E+00  0.10000000000E+04  0.10000000000E+04  0.00000000000E+00 0. -1.
          2   -1    0    0  501    0 -0.00000000000E+00 -0.00000000000E+00 -0.10739366908E+03  0.10739366908E+03  0.00000000000E+00 0. -1.
    9000006    2    1    2  501    0  0.00000000000E+00  0.00000000000E+00  0.89260633092E+03  0.11073936691E+04  0.65541946593E+03 0.  0.
         13    1    3    3    0    0 -0.75508587059E+02 -0.31884354402E+03  0.43690852949E+03  0.54612435893E+03  0.00000000000E+00 0. -1.
          4    1    3    3  501    0  0.75508587059E+02  0.31884354402E+03  0.45569780143E+03  0.56126931014E+03  0.00000000000E+00 0. -1.
<mgrwt>
<rscale>  0 0.65541947E+03</rscale>
<asrwt>0</asrwt>
<pdfrwt beam="1">0</pdfrwt>
<pdfrwt beam="2">  1        2 0.39052326E+00 0.65541947E+03</pdfrwt>
<totfact> 0.43193052E+00</totfact>
</mgrwt>
</event>
<event>
 5    1  0.2368666E-004  0.6450665E+03  0.7818608E-02  0.9816081E-01
         13   -1    0    0    0    0  0.00000000000E+00  0.00000000000E+00  0.10000000000E+04  0.10000000000E+04  0.00000000000E+00 0. -1.
          2   -1    0    0  501    0 -0.00000000000E+00 -0.00000000000E+00 -0.10402770506E+03  0.10402770506E+03  0.00000000000E+00 0. -1.
    9000006    2    1    2  501    0  0.00000000000E+00  0.00000000000E+00  0.89597229494E+03  0.11040277051E+04  0.64506652390E+03 0.  0.
         13    1    3    3    0    0  0.25986988272E+03 -0.15880430456E+03  0.62973155171E+03  0.69950910667E+03  0.00000000000E+00 0. -1.
          2    1    3    3  501    0 -0.25986988272E+03  0.15880430456E+03  0.26624074322E+03  0.40451859839E+03  0.00000000000E+00 0. -1.
<mgrwt>
<rscale>  0 0.64506652E+03</rscale>
<asrwt>0</asrwt>
<pdfrwt beam="1">0</pdfrwt>
<pdfrwt beam="2">  1        2 0.37828336E+00 0.64506652E+03</pdfrwt>
<totfact> 0.47982634E+00</totfact>
</mgrwt>
</event>
<event>
 5    1  0.2368666E-004  0.6471949E+03  0.7818608E-02  0.9812057E-01
         13   -1    0    0    0    0  0.00000000000E+00  0.00000000000E+00  0.10000000000E+04  0.10000000000E+04  0.00000000000E+00 0. -1.
          2   -1    0    0  501    0 -0.00000000000E+00 -0.00000000000E+00 -0.10471531287E+03  0.10471531287E+03  0.00000000000E+00 0. -1.
    9000006    2    1    2  501    0  0.00000000000E+00  0.00000000000E+00  0.89528468713E+03  0.11047153129E+04  0.64719490997E+03 0.  0.
         13    1    3    3    0    0  0.20716591016E+03 -0.14486331594E+03  0.79247658273E+03  0.83181862735E+03  0.00000000000E+00 0. -1.
          2    1    3    3  501    0 -0.20716591016E+03  0.14486331594E+03  0.10280810440E+03  0.27289668552E+03  0.00000000000E+00 0. -1.
<mgrwt>
<rscale>  0 0.64719491E+03</rscale>
<asrwt>0</asrwt>
<pdfrwt beam="1">0</pdfrwt>
<pdfrwt beam="2">  1        2 0.38078376E+00 0.64719491E+03</pdfrwt>
<totfact> 0.46966731E+00</totfact>
</mgrwt>
</event>
<event>
 5    1  0.2368666E-004  0.6518310E+03  0.7818608E-02  0.9803350E-01
         13   -1    0    0    0    0  0.00000000000E+00  0.00000000000E+00  0.10000000000E+04  0.10000000000E+04  0.00000000000E+00 0. -1.
          2   -1    0    0  501    0 -0.00000000000E+00 -0.00000000000E+00 -0.10622090761E+03  0.10622090761E+03  0.00000000000E+00 0. -1.
    9000006    2    1    2  501    0  0.00000000000E+00  0.00000000000E+00  0.89377909239E+03  0.11062209076E+04  0.65183098304E+03 0.  0.
         13    1    3    3    0    0 -0.21339586729E+03  0.23616639727E+03  0.32798917310E+03  0.45704404716E+03  0.00000000000E+00 0. -1.
          4    1    3    3  501    0  0.21339586729E+03 -0.23616639727E+03  0.56578991929E+03  0.64917686045E+03  0.00000000000E+00 0. -1.
<mgrwt>
<rscale>  0 0.65183098E+03</rscale>
<asrwt>0</asrwt>
<pdfrwt beam="1">0</pdfrwt>
<pdfrwt beam="2">  1        2 0.38625866E+00 0.65183098E+03</pdfrwt>
<totfact> 0.44810220E+00</totfact>
</mgrwt>
</event>
<event>
 5    1  0.2368666E-004  0.6555651E+03  0.7818608E-02  0.9796392E-01
         13   -1    0    0    0    0  0.00000000000E+00  0.00000000000E+00  0.10000000000E+04  0.10000000000E+04  0.00000000000E+00 0. -1.
          2   -1    0    0  501    0 -0.00000000000E+00 -0.00000000000E+00 -0.10744139246E+03  0.10744139246E+03  0.00000000000E+00 0. -1.
    9000006    2    1    2  501    0  0.00000000000E+00  0.00000000000E+00  0.89255860754E+03  0.11074413925E+04  0.65556507674E+03 0.  0.
         13    1    3    3    0    0  0.27528175640E+03 -0.17091403184E+03  0.52989060990E+03  0.62110845281E+03  0.00000000000E+00 0. -1.
          2    1    3    3  501    0 -0.27528175640E+03  0.17091403184E+03  0.36266799764E+03  0.48633293966E+03  0.00000000000E+00 0. -1.
<mgrwt>
<rscale>  0 0.65556508E+03</rscale>
<asrwt>0</asrwt>
<pdfrwt beam="1">0</pdfrwt>
<pdfrwt beam="2">  1        2 0.39069680E+00 0.65556508E+03</pdfrwt>
<totfact> 0.43128376E+00</totfact>
</mgrwt>
</event>
<event>
 5    1  0.2368666E-004  0.6166820E+03  0.7818608E-02  0.9871388E-01
         13   -1    0    0    0    0  0.00000000000E+00  0.00000000000E+00  0.10000000000E+04  0.10000000000E+04  0.00000000000E+00 0. -1.
          2   -1    0    0  501    0 -0.00000000000E+00 -0.00000000000E+00 -0.95074179138E+02  0.95074179138E+02  0.00000000000E+00 0. -1.
    9000006    2    1    2  501    0  0.00000000000E+00  0.00000000000E+00  0.90492582086E+03  0.10950741791E+04  0.61668202224E+03 0.  0.
         13    1    3    3    0    0  0.99882003272E+02  0.13358850294E+03 -0.80422000069E+01  0.16699395102E+03  0.00000000000E+00 0. -1.
          4    1    3    3  501    0 -0.99882003272E+02 -0.13358850294E+03  0.91296802087E+03  0.92808022812E+03  0.00000000000E+00 0. -1.
<mgrwt>
<rscale>  0 0.61668202E+03</rscale>
<asrwt>0</asrwt>
<pdfrwt beam="1">0</pdfrwt>
<pdfrwt beam="2">  1        2 0.34572502E+00 0.61668202E+03</pdfrwt>
<totfact> 0.63190052E+00</totfact>
</mgrwt>
</event>
<event>
 5    1  0.2368666E-004  0.6488201E+03  0.7818608E-02  0.9808996E-01
         13   -1    0    0    0    0  0.00000000000E+00  0.00000000000E+00  0.10000000000E+04  0.10000000000E+04  0.00000000000E+00 0. -1.
          2   -1    0    0  501    0 -0.00000000000E+00 -0.00000000000E+00 -0.10524188864E+03  0.10524188864E+03  0.00000000000E+00 0. -1.
    9000006    2    1    2  501    0  0.00000000000E+00  0.00000000000E+00  0.89475811136E+03  0.11052418886E+04  0.64882012498E+03 0.  0.
         13    1    3    3    0    0  0.31970789834E+03 -0.55027069824E+02  0.44887381002E+03  0.55383103560E+03  0.00000000000E+00 0. -1.
          4    1    3    3  501    0 -0.31970789834E+03  0.55027069824E+02  0.44588430133E+03  0.55141085304E+03  0.00000000000E+00 0. -1.
<mgrwt>
<rscale>  0 0.64882012E+03</rscale>
<asrwt>0</asrwt>
<pdfrwt beam="1">0</pdfrwt>
<pdfrwt beam="2">  1        2 0.38269858E+00 0.64882012E+03</pdfrwt>
<totfact> 0.46202016E+00</totfact>
</mgrwt>
</event>
<event>
 5    1  0.2368666E-004  0.6462058E+03  0.7818608E-02  0.9813925E-01
         13   -1    0    0    0    0  0.00000000000E+00  0.00000000000E+00  0.10000000000E+04  0.10000000000E+04  0.00000000000E+00 0. -1.
          2   -1    0    0  501    0 -0.00000000000E+00 -0.00000000000E+00 -0.10439546936E+03  0.10439546936E+03  0.00000000000E+00 0. -1.
    9000006    2    1    2  501    0  0.00000000000E+00  0.00000000000E+00  0.89560453064E+03  0.11043954694E+04  0.64620575473E+03 0.  0.
         13    1    3    3    0    0 -0.16299363157E+03 -0.12894571610E+03  0.25002246804E+02  0.20932996436E+03  0.00000000000E+00 0. -1.
          2    1    3    3  501    0  0.16299363157E+03  0.12894571610E+03  0.87060228383E+03  0.89506550500E+03  0.00000000000E+00 0. -1.
<mgrwt>
<rscale>  0 0.64620575E+03</rscale>
<asrwt>0</asrwt>
<pdfrwt beam="1">0</pdfrwt>
<pdfrwt beam="2">  1        2 0.37962069E+00 0.64620575E+03</pdfrwt>
<totfact> 0.47436821E+00</totfact>
</mgrwt>
</event>
<event>
 5    1  0.2368666E-004  0.6385022E+03  0.7818608E-02  0.9828596E-01
         13   -1    0    0    0    0  0.00000000000E+00  0.00000000000E+00  0.10000000000E+04  0.10000000000E+04  0.00000000000E+00 0. -1.
          2   -1    0    0  501    0 -0.00000000000E+00 -0.00000000000E+00 -0.10192125220E+03  0.10192125220E+03  0.00000000000E+00 0. -1.
    9000006    2    1    2  501    0  0.00000000000E+00  0.00000000000E+00  0.89807874780E+03  0.11019212522E+04  0.63850216038E+03 0.  0.
         13    1    3    3    0    0  0.58431342863E+02 -0.39673864245E+02  0.98634829140E+03  0.98887369734E+03  0.00000000000E+00 0. -1.
          2    1    3    3  501    0 -0.58431342863E+02  0.39673864245E+02 -0.88269543605E+02  0.11304755487E+03  0.00000000000E+00 0. -1.
<mgrwt>
<rscale>  0 0.63850216E+03</rscale>
<asrwt>0</asrwt>
<pdfrwt beam="1">0</pdfrwt>
<pdfrwt beam="2">  1        2 0.37062352E+00 0.63850216E+03</pdfrwt>
<totfact> 0.51221077E+00</totfact>
</mgrwt>
</event>
<event>
 5    1  0.2368666E-004  0.5797483E+03  0.7818608E-02  0.9948336E-01
         13   -1    0    0    0    0  0.00000000000E+00  0.00000000000E+00  0.10000000000E+04  0.10000000000E+04  0.00000000000E+00 0. -1.
          2   -1    0    0  501    0 -0.00000000000E+00 -0.00000000000E+00 -0.84027018542E+02  0.84027018542E+02  0.00000000000E+00 0. -1.
    9000006    2    1    2  501    0  0.00000000000E+00  0.00000000000E+00  0.91597298146E+03  0.10840270185E+04  0.57974828518E+03 0.  0.
         13    1    3    3    0    0  0.24098652934E+03 -0.11553824999E+03  0.24807079743E+03  0.36464052857E+03  0.00000000000E+00 0. -1.
          4    1    3    3  501    0 -0.24098652934E+03  0.11553824999E+03  0.66790218403E+03  0.71938648998E+03  0.00000000000E+00 0. -1.
<mgrwt>
<rscale>  0 0.57974829E+03</rscale>
<asrwt>0</asrwt>
<pdfrwt beam="1">0</pdfrwt>
<pdfrwt beam="2">  1        2 0.30555344E+00 0.57974829E+03</pdfrwt>
<totfact> 0.88196783E+00</totfact>
</mgrwt>
</event>
<event>
 5    1  0.2368666E-004  0.6456327E+03  0.7818608E-02  0.9815009E-01
         13   -1    0    0    0    0  0.00000000000E+00  0.00000000000E+00  0.10000000000E+04  0.10000000000E+04  0.00000000000E+00 0. -1.
          2   -1    0    0  501    0 -0.00000000000E+00 -0.00000000000E+00 -0.10421040760E+03  0.10421040760E+03  0.00000000000E+00 0. -1.
    9000006    2    1    2  501    0  0.00000000000E+00  0.00000000000E+00  0.89578959240E+03  0.11042104076E+04  0.64563273646E+03 0.  0.
         13    1    3    3    0    0 -0.98846566293E+02  0.22551678726E+03  0.90852566961E+02  0.26245505125E+03  0.00000000000E+00 0. -1.
          2    1    3    3  501    0  0.98846566293E+02 -0.22551678726E+03  0.80493702544E+03  0.84175535634E+03  0.00000000000E+00 0. -1.
<mgrwt>
<rscale>  0 0.64563274E+03</rscale>
<asrwt>0</asrwt>
<pdfrwt beam="1">0</pdfrwt>
<pdfrwt beam="2">  1        2 0.37894774E+00 0.64563274E+03</pdfrwt>
<totfact> 0.47710767E+00</totfact>
</mgrwt>
</event>
<event>
 5    1  0.2368666E-004  0.6386918E+03  0.7818608E-02  0.9828233E-01
         13   -1    0    0    0    0  0.00000000000E+00  0.00000000000E+00  0.10000000000E+04  0.10000000000E+04  0.00000000000E+00 0. -1.
          2   -1    0    0  501    0 -0.00000000000E+00 -0.00000000000E+00 -0.10198181318E+03  0.10198181318E+03  0.00000000000E+00 0. -1.
    9000006    2    1    2  501    0  0.00000000000E+00  0.00000000000E+00  0.89801818682E+03  0.11019818132E+04  0.63869182924E+03 0.  0.
         13    1    3    3    0    0 -0.22176724501E+03  0.22748259529E+03  0.39302688371E+03  0.50537033296E+03  0.00000000000E+00 0. -1.
          4    1    3    3  501    0  0.22176724501E+03 -0.22748259529E+03  0.50499130311E+03  0.59661148023E+03  0.00000000000E+00 0. -1.
<mgrwt>
<rscale>  0 0.63869183E+03</rscale>
<asrwt>0</asrwt>
<pdfrwt beam="1">0</pdfrwt>
<pdfrwt beam="2">  1        2 0.37084374E+00 0.63869183E+03</pdfrwt>
<totfact> 0.51125244E+00</totfact>
</mgrwt>
</event>
<event>
 5    1  0.2368666E-004  0.6636889E+03  0.7818608E-02  0.9781427E-01
         13   -1    0    0    0    0  0.00000000000E+00  0.00000000000E+00  0.10000000000E+04  0.10000000000E+04  0.00000000000E+00 0. -1.
          2   -1    0    0  501    0 -0.00000000000E+00 -0.00000000000E+00 -0.11012072411E+03  0.11012072411E+03  0.00000000000E+00 0. -1.
    9000006    2    1    2  501    0  0.00000000000E+00  0.00000000000E+00  0.88987927589E+03  0.11101207241E+04  0.66368885514E+03 0.  0.
         13    1    3    3    0    0  0.11554798313E+03 -0.29024392812E+03  0.63215606640E+03  0.70513414788E+03  0.00000000000E+00 0. -1.
          4    1    3    3  501    0 -0.11554798313E+03  0.29024392812E+03  0.25772320949E+03  0.40498657623E+03  0.00000000000E+00 0. -1.
<mgrwt>
<rscale>  0 0.66368886E+03</rscale>
<asrwt>0</asrwt>
<pdfrwt beam="1">0</pdfrwt>
<pdfrwt beam="2">  1        2 0.40043984E+00 0.66368886E+03</pdfrwt>
<totfact> 0.39634509E+00</totfact>
</mgrwt>
</event>
<event>
 5    1  0.2368666E-004  0.6389459E+03  0.7818608E-02  0.9827745E-01
         13   -1    0    0    0    0  0.00000000000E+00  0.00000000000E+00  0.10000000000E+04  0.10000000000E+04  0.00000000000E+00 0. -1.
          2   -1    0    0  501    0 -0.00000000000E+00 -0.00000000000E+00 -0.10206295403E+03  0.10206295403E+03  0.00000000000E+00 0. -1.
    9000006    2    1    2  501    0  0.00000000000E+00  0.00000000000E+00  0.89793704597E+03  0.11020629540E+04  0.63894586321E+03 0.  0.
         13    1    3    3    0    0  0.17767018751E+02  0.29011511450E+03  0.22027279934E+03  0.36469515043E+03  0.00000000000E+00 0. -1.
          2    1    3    3  501    0 -0.17767018751E+02 -0.29011511450E+03  0.67766424664E+03  0.73736780360E+03  0.00000000000E+00 0. -1.
<mgrwt>
<rscale>  0 0.63894586E+03</rscale>
<asrwt>0</asrwt>
<pdfrwt beam="1">0</pdfrwt>
<pdfrwt beam="2">  1        2 0.37113880E+00 0.63894586E+03</pdfrwt>
<totfact> 0.50997103E+00</totfact>
</mgrwt>
</event>
<event>
 5    1  0.2368666E-004  0.6435716E+03  0.7818608E-02  0.9818917E-01
         13   -1    0    0    0    0  0.00000000000E+00  0.00000000000E+00  0.10000000000E+04  0.10000000000E+04  0.00000000000E+00 0. -1.
          2   -1    0    0  501    0 -0.00000000000E+00 -0.00000000000E+00 -0.10354608505E+03  0.10354608505E+03  0.00000000000E+00 0. -1.
    9000006    2    1    2  501    0  0.00000000000E+00  0.00000000000E+00  0.89645391495E+03  0.11035460850E+04  0.64357155018E+03 0.  0.
         13    1    3    3    0    0 -0.89755838984E+02  0.49769949001E+01 -0.81578209357E+02  0.12139145502E+03  0.00000000000E+00 0. -1.
          2    1    3    3  501    0  0.89755838984E+02 -0.49769949001E+01  0.97803212431E+03  0.98215463003E+03  0.00000000000E+00 0. -1.
<mgrwt>
<rscale>  0 0.64357155E+03</rscale>
<asrwt>0</asrwt>
<pdfrwt beam="1">0</pdfrwt>
<pdfrwt beam="2">  1        2 0.37653201E+00 0.64357155E+03</pdfrwt>
<totfact> 0.48706081E+00</totfact>
</mgrwt>
</event>
<event>
 5    1  0.2368666E-004  0.6490581E+03  0.7818608E-02  0.9808548E-01
         13   -1    0    0    0    0  0.00000000000E+00  0.00000000000E+00  0.10000000000E+04  0.10000000000E+04  0.00000000000E+00 0. -1.
          2   -1    0    0  501    0 -0.00000000000E+00 -0.00000000000E+00 -0.10531911470E+03  0.10531911470E+03  0.00000000000E+00 0. -1.
    9000006    2    1    2  501    0  0.00000000000E+00  0.00000000000E+00  0.89468088530E+03  0.11053191147E+04  0.64905813207E+03 0.  0.
         13    1    3    3    0    0  0.15603431592E+03 -0.26504847566E+03  0.62367448511E+03  0.69539000969E+03  0.00000000000E+00 0. -1.
          4    1    3    3  501    0 -0.15603431592E+03  0.26504847566E+03  0.27100640018E+03  0.40992910501E+03  0.00000000000E+00 0. -1.
<mgrwt>
<rscale>  0 0.64905813E+03</rscale>
<asrwt>0</asrwt>
<pdfrwt beam="1">0</pdfrwt>
<pdfrwt beam="2">  1        2 0.38297941E+00 0.64905813E+03</pdfrwt>
<totfact> 0.46090821E+00</totfact>
</mgrwt>
</event>
<event>
 5    1  0.2368666E-004  0.6042017E+03  0.7818608E-02  0.9896727E-01
         13   -1    0    0    0    0  0.00000000000E+00  0.00000000000E+00  0.10000000000E+04  0.10000000000E+04  0.00000000000E+00 0. -1.
          2   -1    0    0  501    0 -0.00000000000E+00 -0.00000000000E+00 -0.91264924156E+02  0.91264924156E+02  0.00000000000E+00 0. -1.
    9000006    2    1    2  501    0  0.00000000000E+00  0.00000000000E+00  0.90873507584E+03  0.10912649242E+04  0.60420170194E+03 0.  0.
         13    1    3    3    0    0  0.20545283620E+03 -0.98366017005E+02  0.81277421184E+03  0.84409043392E+03  0.00000000000E+00 0. -1.
          4    1    3    3  501    0 -0.20545283620E+03  0.98366017005E+02  0.95960864006E+02  0.24717449024E+03  0.00000000000E+00 0. -1.
<mgrwt>
<rscale>  0 0.60420170E+03</rscale>
<asrwt>0</asrwt>
<pdfrwt beam="1">0</pdfrwt>
<pdfrwt beam="2">  1        2 0.33187315E+00 0.60420170E+03</pdfrwt>
<totfact> 0.70930483E+00</totfact>
</mgrwt>
</event>
<event>
 5    1  0.2368666E-004  0.6471676E+03  0.7818608E-02  0.9812109E-01
         13   -1    0    0    0    0  0.00000000000E+00  0.00000000000E+00  0.10000000000E+04  0.10000000000E+04  0.00000000000E+00 0. -1.
          2   -1    0    0  501    0 -0.00000000000E+00 -0.00000000000E+00 -0.10470646870E+03  0.10470646870E+03  0.00000000000E+00 0. -1.
    9000006    2    1    2  501    0  0.00000000000E+00  0.00000000000E+00  0.89529353130E+03  0.11047064687E+04  0.64716757861E+03 0.  0.
         13    1    3    3    0    0  0.13842454870E+03  0.29192380206E+03  0.41684490966E+03  0.52739031144E+03  0.00000000000E+00 0. -1.
          2    1    3    3  501    0 -0.13842454870E+03 -0.29192380206E+03  0.47844862164E+03  0.57731615726E+03  0.00000000000E+00 0. -1.
<mgrwt>
<rscale>  0 0.64716758E+03</rscale>
<asrwt>0</asrwt>
<pdfrwt beam="1">0</pdfrwt>
<pdfrwt beam="2">  1        2 0.38075160E+00 0.64716758E+03</pdfrwt>
<totfact> 0.46979672E+00</totfact>
</mgrwt>
</event>
<event>
 5    1  0.2368666E-004  0.6452465E+03  0.7818608E-02  0.9815740E-01
         13   -1    0    0    0    0  0.00000000000E+00  0.00000000000E+00  0.10000000000E+04  0.10000000000E+04  0.00000000000E+00 0. -1.
          2   -1    0    0  501    0 -0.00000000000E+00 -0.00000000000E+00 -0.10408576187E+03  0.10408576187E+03  0.00000000000E+00 0. -1.
    9000006    2    1    2  501    0  0.00000000000E+00  0.00000000000E+00  0.89591423813E+03  0.11040857619E+04  0.64524650133E+03 0.  0.
         13    1    3    3    0    0  0.19142250933E+03 -0.21466600787E+03  0.69804632845E+03  0.75497864121E+03  0.00000000000E+00 0. -1.
          2    1    3    3  501    0 -0.19142250933E+03  0.21466600787E+03  0.19786790968E+03  0.34910712066E+03  0.00000000000E+00 0. -1.
<mgrwt>
<rscale>  0 0.64524650E+03</rscale>
<asrwt>0</asrwt>
<pdfrwt beam="1">0</pdfrwt>
<pdfrwt beam="2">  1        2 0.37849448E+00 0.64524650E+03</pdfrwt>
<totfact> 0.47896091E+00</totfact>
</mgrwt>
</event>
<event>
 5    1  0.2368666E-004  0.6270894E+03  0.7818608E-02  0.9850745E-01
         13   -1    0    0    0    0  0.00000000000E+00  0.00000000000E+00  0.10000000000E+04  0.10000000000E+04  0.00000000000E+00 0. -1.
          2   -1    0    0  501    0 -0.00000000000E+00 -0.00000000000E+00 -0.98310279795E+02  0.98310279795E+02  0.00000000000E+00 0. -1.
    9000006    2    1    2  501    0  0.00000000000E+00  0.00000000000E+00  0.90168972020E+03  0.10983102798E+04  0.62708940286E+03 0.  0.
         13    1    3    3    0    0 -0.10642105974E+03  0.51780599239E+02  0.95937730438E+03  0.96664961831E+03  0.00000000000E+00 0. -1.
          2    1    3    3  501    0  0.10642105974E+03 -0.51780599239E+02 -0.57687584180E+02  0.13166066148E+03  0.00000000000E+00 0. -1.
<mgrwt>
<rscale>  0 0.62708940E+03</rscale>
<asrwt>0</asrwt>
<pdfrwt beam="1">0</pdfrwt>
<pdfrwt beam="2">  1        2 0.35749268E+00 0.62708940E+03</pdfrwt>
<totfact> 0.57242862E+00</totfact>
</mgrwt>
</event>
<event>
 5    1  0.2368666E-004  0.6469743E+03  0.7818608E-02  0.9812473E-01
         13   -1    0    0    0    0  0.00000000000E+00  0.00000000000E+00  0.10000000000E+04  0.10000000000E+04  0.00000000000E+00 0. -1.
          2   -1    0    0  501    0 -0.00000000000E+00 -0.00000000000E+00 -0.10464393683E+03  0.10464393683E+03  0.00000000000E+00 0. -1.
    9000006    2    1    2  501    0  0.00000000000E+00  0.00000000000E+00  0.89535606317E+03  0.11046439368E+04  0.64697430189E+03 0.  0.
         13    1    3    3    0    0  0.23595664283E+03 -0.58555552123E+02  0.83318519621E+02  0.25699468028E+03  0.00000000000E+00 0. -1.
          4    1    3    3  501    0 -0.23595664283E+03  0.58555552123E+02  0.81203754355E+03  0.84764925654E+03  0.00000000000E+00 0. -1.
<mgrwt>
<rscale>  0 0.64697430E+03</rscale>
<asrwt>0</asrwt>
<pdfrwt beam="1">0</pdfrwt>
<pdfrwt beam="2">  1        2 0.38052421E+00 0.64697430E+03</pdfrwt>
<totfact> 0.47071267E+00</totfact>
</mgrwt>
</event>
<event>
 5    1  0.2368666E-004  0.6529258E+03  0.7818608E-02  0.9801305E-01
         13   -1    0    0    0    0  0.00000000000E+00  0.00000000000E+00  0.10000000000E+04  0.10000000000E+04  0.00000000000E+00 0. -1.
          2   -1    0    0  501    0 -0.00000000000E+00 -0.00000000000E+00 -0.10657801159E+03  0.10657801159E+03  0.00000000000E+00 0. -1.
    9000006    2    1    2  501    0  0.00000000000E+00  0.00000000000E+00  0.89342198841E+03  0.11065780116E+04  0.65292575870E+03 0.  0.
         13    1    3    3    0    0  0.24396960491E+03  0.83585219524E+01  0.79338198225E+02  0.25668187062E+03  0.00000000000E+00 0. -1.
          4    1    3    3  501    0 -0.24396960491E+03 -0.83585219524E+01  0.81408379018E+03  0.84989614097E+03  0.00000000000E+00 0. -1.
<mgrwt>
<rscale>  0 0.65292576E+03</rscale>
<asrwt>0</asrwt>
<pdfrwt beam="1">0</pdfrwt>
<pdfrwt beam="2">  1        2 0.38755722E+00 0.65292576E+03</pdfrwt>
<totfact> 0.44312089E+00</totfact>
</mgrwt>
</event>
<event>
 5    1  0.2368666E-004  0.6429255E+03  0.7818608E-02  0.9820145E-01
         13   -1    0    0    0    0  0.00000000000E+00  0.00000000000E+00  0.10000000000E+04  0.10000000000E+04  0.00000000000E+00 0. -1.
          2   -1    0    0  501    0 -0.00000000000E+00 -0.00000000000E+00 -0.10333830609E+03  0.10333830609E+03  0.00000000000E+00 0. -1.
    9000006    2    1    2  501    0  0.00000000000E+00  0.00000000000E+00  0.89666169391E+03  0.11033383061E+04  0.64292552007E+03 0.  0.
         13    1    3    3    0    0  0.11282400082E+03  0.30083716586E+03  0.43065808088E+03  0.53730683799E+03  0.00000000000E+00 0. -1.
          2    1    3    3  501    0 -0.11282400082E+03 -0.30083716586E+03  0.46600361303E+03  0.56603146810E+03  0.00000000000E+00 0. -1.
<mgrwt>
<rscale>  0 0.64292552E+03</rscale>
<asrwt>0</asrwt>
<pdfrwt beam="1">0</pdfrwt>
<pdfrwt beam="2">  1        2 0.37577645E+00 0.64292552E+03</pdfrwt>
<totfact> 0.49021249E+00</totfact>
</mgrwt>
</event>
<event>
 5    1  0.2368666E-004  0.6483483E+03  0.7818608E-02  0.9809883E-01
         13   -1    0    0    0    0  0.00000000000E+00  0.00000000000E+00  0.10000000000E+04  0.10000000000E+04  0.00000000000E+00 0. -1.
          2   -1    0    0  501    0 -0.00000000000E+00 -0.00000000000E+00 -0.10508887095E+03  0.10508887095E+03  0.00000000000E+00 0. -1.
    9000006    2    1    2  501    0  0.00000000000E+00  0.00000000000E+00  0.89491112905E+03  0.11050888710E+04  0.64834827355E+03 0.  0.
         13    1    3    3    0    0  0.28962113707E+02  0.37874512456E+02  0.99399100436E+03  0.99513386008E+03  0.00000000000E+00 0. -1.
          2    1    3    3  501    0 -0.28962113707E+02 -0.37874512456E+02 -0.99079875315E+02  0.10995501088E+03  0.00000000000E+00 0. -1.
<mgrwt>
<rscale>  0 0.64834827E+03</rscale>
<asrwt>0</asrwt>
<pdfrwt beam="1">0</pdfrwt>
<pdfrwt beam="2">  1        2 0.38214215E+00 0.64834827E+03</pdfrwt>
<totfact> 0.46423059E+00</totfact>
</mgrwt>
</event>
<event>
 5    1  0.2368666E-004  0.6861404E+03  0.7818608E-02  0.9741232E-01
         13   -1    0    0    0    0  0.00000000000E+00  0.00000000000E+00  0.10000000000E+04  0.10000000000E+04  0.00000000000E+00 0. -1.
          2   -1    0    0  501    0 -0.00000000000E+00 -0.00000000000E+00 -0.11769717662E+03  0.11769717662E+03  0.00000000000E+00 0. -1.
    9000006    2    1    2  501    0  0.00000000000E+00  0.00000000000E+00  0.88230282338E+03  0.11176971766E+04  0.68614044226E+03 0.  0.
         13    1    3    3    0    0  0.32855387753E+03 -0.58933668156E+02  0.31209943049E+03  0.45697580045E+03  0.00000000000E+00 0. -1.
          2    1    3    3  501    0 -0.32855387753E+03  0.58933668156E+02  0.57020339288E+03  0.66072137618E+03  0.00000000000E+00 0. -1.
<mgrwt>
<rscale>  0 0.68614044E+03</rscale>
<asrwt>0</asrwt>
<pdfrwt beam="1">0</pdfrwt>
<pdfrwt beam="2">  1        2 0.42799064E+00 0.68614044E+03</pdfrwt>
<totfact> 0.31083236E+00</totfact>
</mgrwt>
</event>
<event>
 5    1  0.2368666E-004  0.6481390E+03  0.7818608E-02  0.9810277E-01
         13   -1    0    0    0    0  0.00000000000E+00  0.00000000000E+00  0.10000000000E+04  0.10000000000E+04  0.00000000000E+00 0. -1.
          2   -1    0    0  501    0 -0.00000000000E+00 -0.00000000000E+00 -0.10502105585E+03  0.10502105585E+03  0.00000000000E+00 0. -1.
    9000006    2    1    2  501    0  0.00000000000E+00  0.00000000000E+00  0.89497894415E+03  0.11050210559E+04  0.64813904636E+03 0.  0.
         13    1    3    3    0    0  0.20405224433E+03  0.23138698998E+03  0.61664403640E+03  0.68951223715E+03  0.00000000000E+00 0. -1.
          4    1    3    3  501    0 -0.20405224433E+03 -0.23138698998E+03  0.27833490774E+03  0.41550881870E+03  0.00000000000E+00 0. -1.
<mgrwt>
<rscale>  0 0.64813905E+03</rscale>
<asrwt>0</asrwt>
<pdfrwt beam="1">0</pdfrwt>
<pdfrwt beam="2">  1        2 0.38189555E+00 0.64813905E+03</pdfrwt>
<totfact> 0.46521330E+00</totfact>
</mgrwt>
</event>
<event>
 5    1  0.2368666E-004  0.6515783E+03  0.7818608E-02  0.9803822E-01
         13   -1    0    0    0    0  0.00000000000E+00  0.00000000000E+00  0.10000000000E+04  0.10000000000E+04  0.00000000000E+00 0. -1.
          2   -1    0    0  501    0 -0.00000000000E+00 -0.00000000000E+00 -0.10613856652E+03  0.10613856652E+03  0.00000000000E+00 0. -1.
    9000006    2    1    2  501    0  0.00000000000E+00  0.00000000000E+00  0.89386143348E+03  0.11061385665E+04  0.65157828854E+03 0.  0.
         13    1    3    3    0    0  0.30325948701E+03  0.81384895102E+02  0.29943465648E+03  0.43387893601E+03  0.00000000000E+00 0. -1.
          4    1    3    3  501    0 -0.30325948701E+03 -0.81384895102E+02  0.59442677699E+03  0.67225963051E+03  0.00000000000E+00 0. -1.
<mgrwt>
<rscale>  0 0.65157829E+03</rscale>
<asrwt>0</asrwt>
<pdfrwt beam="1">0</pdfrwt>
<pdfrwt beam="2">  1        2 0.38595924E+00 0.65157829E+03</pdfrwt>
<totfact> 0.44925796E+00</totfact>
</mgrwt>
</event>
<event>
 5    1  0.2368666E-004  0.6251533E+03  0.7818608E-02  0.9854553E-01
         13   -1    0    0    0    0  0.00000000000E+00  0.00000000000E+00  0.10000000000E+04  0.10000000000E+04  0.00000000000E+00 0. -1.
          2   -1    0    0  501    0 -0.00000000000E+00 -0.00000000000E+00 -0.97704159901E+02  0.97704159901E+02  0.00000000000E+00 0. -1.
    9000006    2    1    2  501    0  0.00000000000E+00  0.00000000000E+00  0.90229584010E+03  0.10977041599E+04  0.62515329288E+03 0.  0.
         13    1    3    3    0    0  0.38084442952E+02 -0.12397500221E+03 -0.48230671152E+02  0.13837060239E+03  0.00000000000E+00 0. -1.
          2    1    3    3  501    0 -0.38084442952E+02  0.12397500221E+03  0.95052651125E+03  0.95933355751E+03  0.00000000000E+00 0. -1.
<mgrwt>
<rscale>  0 0.62515329E+03</rscale>
<asrwt>0</asrwt>
<pdfrwt beam="1">0</pdfrwt>
<pdfrwt beam="2">  1        2 0.35528860E+00 0.62515329E+03</pdfrwt>
<totfact> 0.58315557E+00</totfact>
</mgrwt>
</event>
<event>
 5    1  0.2368666E-004  0.6505689E+03  0.7818608E-02  0.9805712E-01
         13   -1    0    0    0    0  0.00000000000E+00  0.00000000000E+00  0.10000000000E+04  0.10000000000E+04  0.00000000000E+00 0. -1.
          2   -1    0    0  501    0 -0.00000000000E+00 -0.00000000000E+00 -0.10580996290E+03  0.10580996290E+03  0.00000000000E+00 0. -1.
    9000006    2    1    2  501    0  0.00000000000E+00  0.00000000000E+00  0.89419003710E+03  0.11058099629E+04  0.65056886768E+03 0.  0.
         13    1    3    3    0    0 -0.21214173094E+03  0.12080735585E+02  0.28457561548E+02  0.21438258088E+03  0.00000000000E+00 0. -1.
          4    1    3    3  501    0  0.21214173094E+03 -0.12080735585E+02  0.86573247555E+03  0.89142738201E+03  0.00000000000E+00 0. -1.
<mgrwt>
<rscale>  0 0.65056887E+03</rscale>
<asrwt>0</asrwt>
<pdfrwt beam="1">0</pdfrwt>
<pdfrwt beam="2">  1        2 0.38476431E+00 0.65056887E+03</pdfrwt>
<totfact> 0.45389729E+00</totfact>
</mgrwt>
</event>
<event>
 5    1  0.2368666E-004  0.6496755E+03  0.7818608E-02  0.9807388E-01
         13   -1    0    0    0    0  0.00000000000E+00  0.00000000000E+00  0.10000000000E+04  0.10000000000E+04  0.00000000000E+00 0. -1.
          2   -1    0    0  501    0 -0.00000000000E+00 -0.00000000000E+00 -0.10551955317E+03  0.10551955317E+03  0.00000000000E+00 0. -1.
    9000006    2    1    2  501    0  0.00000000000E+00  0.00000000000E+00  0.89448044683E+03  0.11055195532E+04  0.64967546721E+03 0.  0.
         13    1    3    3    0    0 -0.15844049996E+03 -0.24159386440E+03  0.69991397795E+03  0.75719915734E+03  0.00000000000E+00 0. -1.
          4    1    3    3  501    0  0.15844049996E+03  0.24159386440E+03  0.19456646887E+03  0.34832039583E+03  0.00000000000E+00 0. -1.
<mgrwt>
<rscale>  0 0.64967547E+03</rscale>
<asrwt>0</asrwt>
<pdfrwt beam="1">0</pdfrwt>
<pdfrwt beam="2">  1        2 0.38370828E+00 0.64967547E+03</pdfrwt>
<totfact> 0.45803351E+00</totfact>
</mgrwt>
</event>
<event>
 5    1  0.2368666E-004  0.6456544E+03  0.7818608E-02  0.9814968E-01
         13   -1    0    0    0    0  0.00000000000E+00  0.00000000000E+00  0.10000000000E+04  0.10000000000E+04  0.00000000000E+00 0. -1.
          2   -1    0    0  501    0 -0.00000000000E+00 -0.00000000000E+00 -0.10421740158E+03  0.10421740158E+03  0.00000000000E+00 0. -1.
    9000006    2    1    2  501    0  0.00000000000E+00  0.00000000000E+00  0.89578259842E+03  0.11042174016E+04  0.64565440161E+03 0.  0.
         13    1    3    3    0    0  0.90688097676E+02  0.15056172356E+03  0.91099499818E+03  0.92779580209E+03  0.00000000000E+00 0. -1.
          4    1    3    3  501    0 -0.90688097676E+02 -0.15056172356E+03 -0.15212399765E+02  0.17642159949E+03  0.00000000000E+00 0. -1.
<mgrwt>
<rscale>  0 0.64565440E+03</rscale>
<asrwt>0</asrwt>
<pdfrwt beam="1">0</pdfrwt>
<pdfrwt beam="2">  1        2 0.37897317E+00 0.64565440E+03</pdfrwt>
<totfact> 0.47700388E+00</totfact>
</mgrwt>
</event>
<event>
 5    1  0.2368666E-004  0.6501589E+03  0.7818608E-02  0.9806481E-01
         13   -1    0    0    0    0  0.00000000000E+00  0.00000000000E+00  0.10000000000E+04  0.10000000000E+04  0.00000000000E+00 0. -1.
          2   -1    0    0  501    0 -0.00000000000E+00 -0.00000000000E+00 -0.10567664138E+03  0.10567664138E+03  0.00000000000E+00 0. -1.
    9000006    2    1    2  501    0  0.00000000000E+00  0.00000000000E+00  0.89432335862E+03  0.11056766414E+04  0.65015887713E+03 0.  0.
         13    1    3    3    0    0 -0.19532277195E+03  0.28718442338E+02  0.79493645625E+01  0.19758270818E+03  0.00000000000E+00 0. -1.
          2    1    3    3  501    0  0.19532277195E+03 -0.28718442338E+02  0.88637399406E+03  0.90809393320E+03  0.00000000000E+00 0. -1.
<mgrwt>
<rscale>  0 0.65015888E+03</rscale>
<asrwt>0</asrwt>
<pdfrwt beam="1">0</pdfrwt>
<pdfrwt beam="2">  1        2 0.38427951E+00 0.65015888E+03</pdfrwt>
<totfact> 0.45579192E+00</totfact>
</mgrwt>
</event>
<event>
 5    1  0.2368666E-004  0.6474051E+03  0.7818608E-02  0.9811660E-01
         13   -1    0    0    0    0  0.00000000000E+00  0.00000000000E+00  0.10000000000E+04  0.10000000000E+04  0.00000000000E+00 0. -1.
          2   -1    0    0  501    0 -0.00000000000E+00 -0.00000000000E+00 -0.10478335225E+03  0.10478335225E+03  0.00000000000E+00 0. -1.
    9000006    2    1    2  501    0  0.00000000000E+00  0.00000000000E+00  0.89521664775E+03  0.11047833523E+04  0.64740513514E+03 0.  0.
         13    1    3    3    0    0  0.14967943248E+03 -0.24217437783E+03  0.18472749593E+03  0.33937679582E+03  0.00000000000E+00 0. -1.
          4    1    3    3  501    0 -0.14967943248E+03  0.24217437783E+03  0.71048915182E+03  0.76540655644E+03  0.00000000000E+00 0. -1.
<mgrwt>
<rscale>  0 0.64740514E+03</rscale>
<asrwt>0</asrwt>
<pdfrwt beam="1">0</pdfrwt>
<pdfrwt beam="2">  1        2 0.38103118E+00 0.64740514E+03</pdfrwt>
<totfact> 0.46867278E+00</totfact>
</mgrwt>
</event>
<event>
 5    1  0.2368666E-004  0.6480737E+03  0.7818608E-02  0.9810400E-01
         13   -1    0    0    0    0  0.00000000000E+00  0.00000000000E+00  0.10000000000E+04  0.10000000000E+04  0.00000000000E+00 0. -1.
          2   -1    0    0  501    0 -0.00000000000E+00 -0.00000000000E+00 -0.10499988277E+03  0.10499988277E+03  0.00000000000E+00 0. -1.
    9000006    2    1    2  501    0  0.00000000000E+00  0.00000000000E+00  0.89500011723E+03  0.11049998828E+04  0.64807370806E+03 0.  0.
         13    1    3    3    0    0 -0.12008669203E+03  0.14014456679E+03 -0.66287390267E+01  0.18467607691E+03  0.00000000000E+00 0. -1.
          2    1    3    3  501    0  0.12008669203E+03 -0.14014456679E+03  0.90162885626E+03  0.92032380586E+03  0.00000000000E+00 0. -1.
<mgrwt>
<rscale>  0 0.64807371E+03</rscale>
<asrwt>0</asrwt>
<pdfrwt beam="1">0</pdfrwt>
<pdfrwt beam="2">  1        2 0.38181856E+00 0.64807371E+03</pdfrwt>
<totfact> 0.46552050E+00</totfact>
</mgrwt>
</event>
<event>
 5    1  0.2368666E-004  0.6442538E+03  0.7818608E-02  0.9817622E-01
         13   -1    0    0    0    0  0.00000000000E+00  0.00000000000E+00  0.10000000000E+04  0.10000000000E+04  0.00000000000E+00 0. -1.
          2   -1    0    0  501    0 -0.00000000000E+00 -0.00000000000E+00 -0.10376574273E+03  0.10376574273E+03  0.00000000000E+00 0. -1.
    9000006    2    1    2  501    0  0.00000000000E+00  0.00000000000E+00  0.89623425727E+03  0.11037657427E+04  0.64425380939E+03 0.  0.
         13    1    3    3    0    0  0.32480303421E+02 -0.17736893406E+03  0.90543218584E+03  0.92321295053E+03  0.00000000000E+00 0. -1.
          4    1    3    3  501    0 -0.32480303421E+02  0.17736893406E+03 -0.91979285683E+01  0.18055279220E+03  0.00000000000E+00 0. -1.
<mgrwt>
<rscale>  0 0.64425381E+03</rscale>
<asrwt>0</asrwt>
<pdfrwt beam="1">0</pdfrwt>
<pdfrwt beam="2">  1        2 0.37733077E+00 0.64425381E+03</pdfrwt>
<totfact> 0.48374906E+00</totfact>
</mgrwt>
</event>
<event>
 5    1  0.2368666E-004  0.6475258E+03  0.7818608E-02  0.9811433E-01
         13   -1    0    0    0    0  0.00000000000E+00  0.00000000000E+00  0.10000000000E+04  0.10000000000E+04  0.00000000000E+00 0. -1.
          2   -1    0    0  501    0 -0.00000000000E+00 -0.00000000000E+00 -0.10482242724E+03  0.10482242724E+03  0.00000000000E+00 0. -1.
    9000006    2    1    2  501    0  0.00000000000E+00  0.00000000000E+00  0.89517757276E+03  0.11048224272E+04  0.64752583652E+03 0.  0.
         13    1    3    3    0    0 -0.15215991010E+02  0.10610720558E+03  0.96884475701E+03  0.97475659970E+03  0.00000000000E+00 0. -1.
          4    1    3    3  501    0  0.15215991010E+02 -0.10610720558E+03 -0.73667184255E+02  0.13006582754E+03  0.00000000000E+00 0. -1.
<mgrwt>
<rscale>  0 0.64752584E+03</rscale>
<asrwt>0</asrwt>
<pdfrwt beam="1">0</pdfrwt>
<pdfrwt beam="2">  1        2 0.38117327E+00 0.64752584E+03</pdfrwt>
<totfact> 0.46810249E+00</totfact>
</mgrwt>
</event>
<event>
 5    1  0.2368666E-004  0.6579742E+03  0.7818608E-02  0.9791930E-01
         13   -1    0    0    0    0  0.00000000000E+00  0.00000000000E+00  0.10000000000E+04  0.10000000000E+04  0.00000000000E+00 0. -1.
          2   -1    0    0  501    0 -0.00000000000E+00 -0.00000000000E+00 -0.10823251438E+03  0.10823251438E+03  0.00000000000E+00 0. -1.
    9000006    2    1    2  501    0  0.00000000000E+00  0.00000000000E+00  0.89176748562E+03  0.11082325144E+04  0.65797420733E+03 0.  0.
         13    1    3    3    0    0 -0.20752604678E+02  0.26543216102E+03  0.77138557350E+03  0.81603958587E+03  0.00000000000E+00 0. -1.
          4    1    3    3  501    0  0.20752604678E+02 -0.26543216102E+03  0.12038191212E+03  0.29219292850E+03  0.00000000000E+00 0. -1.
<mgrwt>
<rscale>  0 0.65797421E+03</rscale>
<asrwt>0</asrwt>
<pdfrwt beam="1">0</pdfrwt>
<pdfrwt beam="2">  1        2 0.39357361E+00 0.65797421E+03</pdfrwt>
<totfact> 0.42068894E+00</totfact>
</mgrwt>
</event>
<event>
 5    1  0.2368666E-004  0.6439809E+03  0.7818608E-02  0.9818140E-01
         13   -1    0    0    0    0  0.00000000000E+00  0.00000000000E+00  0.10000000000E+04  0.10000000000E+04  0.00000000000E+00 0. -1.
          2   -1    0    0  501    0 -0.00000000000E+00 -0.00000000000E+00 -0.10367784582E+03  0.10367784582E+03  0.00000000000E+00 0. -1.
    9000006    2    1    2  501    0  0.00000000000E+00  0.00000000000E+00  0.89632215418E+03  0.11036778458E+04  0.64398088735E+03 0.  0.
         13    1    3    3    0    0  0.17157517108E+03 -0.21309117345E+03  0.15715207927E+03  0.31550382494E+03  0.00000000000E+00 0. -1.
          2    1    3    3  501    0 -0.17157517108E+03  0.21309117345E+03  0.73917007492E+03  0.78817402088E+03  0.00000000000E+00 0. -1.
<mgrwt>
<rscale>  0 0.64398089E+03</rscale>
<asrwt>0</asrwt>
<pdfrwt beam="1">0</pdfrwt>
<pdfrwt beam="2">  1        2 0.37701114E+00 0.64398089E+03</pdfrwt>
<totfact> 0.48507179E+00</totfact>
</mgrwt>
</event>
<event>
 5    1  0.2368666E-004  0.6721258E+03  0.7818608E-02  0.9766125E-01
         13   -1    0    0    0    0  0.00000000000E+00  0.00000000000E+00  0.10000000000E+04  0.10000000000E+04  0.00000000000E+00 0. -1.
          2   -1    0    0  501    0 -0.00000000000E+00 -0.00000000000E+00 -0.11293826501E+03  0.11293826501E+03  0.00000000000E+00 0. -1.
    9000006    2    1    2  501    0  0.00000000000E+00  0.00000000000E+00  0.88706173499E+03  0.11129382650E+04  0.67212577694E+03 0.  0.
         13    1    3    3    0    0  0.19977211845E+03 -0.22892367574E+03  0.20573747915E+03  0.36693713215E+03  0.00000000000E+00 0. -1.
          4    1    3    3  501    0 -0.19977211845E+03  0.22892367574E+03  0.68132425584E+03  0.74600113286E+03  0.00000000000E+00 0. -1.
<mgrwt>
<rscale>  0 0.67212578E+03</rscale>
<asrwt>0</asrwt>
<pdfrwt beam="1">0</pdfrwt>
<pdfrwt beam="2">  1        2 0.41068547E+00 0.67212578E+03</pdfrwt>
<totfact> 0.36236552E+00</totfact>
</mgrwt>
</event>
<event>
 5    1  0.2368666E-004  0.6767311E+03  0.7818608E-02  0.9757874E-01
         13   -1    0    0    0    0  0.00000000000E+00  0.00000000000E+00  0.10000000000E+04  0.10000000000E+04  0.00000000000E+00 0. -1.
          2   -1    0    0  501    0 -0.00000000000E+00 -0.00000000000E+00 -0.11449125635E+03  0.11449125635E+03  0.00000000000E+00 0. -1.
    9000006    2    1    2  501    0  0.00000000000E+00  0.00000000000E+00  0.88550874365E+03  0.11144912563E+04  0.67673113227E+03 0.  0.
         13    1    3    3    0    0  0.49851549299E+02 -0.14369071490E+03 -0.55024335418E+02  0.16174014963E+03  0.00000000000E+00 0. -1.
          2    1    3    3  501    0 -0.49851549299E+02  0.14369071490E+03  0.94053307907E+03  0.95275110671E+03  0.00000000000E+00 0. -1.
<mgrwt>
<rscale>  0 0.67673113E+03</rscale>
<asrwt>0</asrwt>
<pdfrwt beam="1">0</pdfrwt>
<pdfrwt beam="2">  1        2 0.41633272E+00 0.67673113E+03</pdfrwt>
<totfact> 0.34477161E+00</totfact>
</mgrwt>
</event>
<event>
 5    1  0.2368666E-004  0.6522607E+03  0.7818608E-02  0.9802546E-01
         13   -1    0    0    0    0  0.00000000000E+00  0.00000000000E+00  0.10000000000E+04  0.10000000000E+04  0.00000000000E+00 0. -1.
          2   -1    0    0  501    0 -0.00000000000E+00 -0.00000000000E+00 -0.10636099893E+03  0.10636099893E+03  0.00000000000E+00 0. -1.
    9000006    2    1    2  501    0  0.00000000000E+00  0.00000000000E+00  0.89363900107E+03  0.11063609989E+04  0.65226068079E+03 0.  0.
         13    1    3    3    0    0  0.54526290657E+02 -0.31811623510E+03  0.52619603167E+03  0.61729516372E+03  0.00000000000E+00 0. -1.
          2    1    3    3  501    0 -0.54526290657E+02  0.31811623510E+03  0.36744296940E+03  0.48906583521E+03  0.00000000000E+00 0. -1.
<mgrwt>
<rscale>  0 0.65226068E+03</rscale>
<asrwt>0</asrwt>
<pdfrwt beam="1">0</pdfrwt>
<pdfrwt beam="2">  1        2 0.38676808E+00 0.65226068E+03</pdfrwt>
<totfact> 0.44614202E+00</totfact>
</mgrwt>
</event>
<event>
 5    1  0.2368666E-004  0.6793184E+03  0.7818608E-02  0.9753269E-01
         13   -1    0    0    0    0  0.00000000000E+00  0.00000000000E+00  0.10000000000E+04  0.10000000000E+04  0.00000000000E+00 0. -1.
          2   -1    0    0  501    0 -0.00000000000E+00 -0.00000000000E+00 -0.11536837046E+03  0.11536837046E+03  0.00000000000E+00 0. -1.
    9000006    2    1    2  501    0  0.00000000000E+00  0.00000000000E+00  0.88463162954E+03  0.11153683705E+04  0.67931839504E+03 0.  0.
         13    1    3    3    0    0  0.96034414793E+02  0.10239677793E+03 -0.65506334985E+02  0.15491542492E+03  0.00000000000E+00 0. -1.
          4    1    3    3  501    0 -0.96034414793E+02 -0.10239677793E+03  0.95013796453E+03  0.96045294554E+03  0.00000000000E+00 0. -1.
<mgrwt>
<rscale>  0 0.67931840E+03</rscale>
<asrwt>0</asrwt>
<pdfrwt beam="1">0</pdfrwt>
<pdfrwt beam="2">  1        2 0.41952223E+00 0.67931840E+03</pdfrwt>
<totfact> 0.33517447E+00</totfact>
</mgrwt>
</event>
<event>
 5    1  0.2368666E-004  0.6447021E+03  0.7818608E-02  0.9816771E-01
         13   -1    0    0    0    0  0.00000000000E+00  0.00000000000E+00  0.10000000000E+04  0.10000000000E+04  0.00000000000E+00 0. -1.
          2   -1    0    0  501    0 -0.00000000000E+00 -0.00000000000E+00 -0.10391020508E+03  0.10391020508E+03  0.00000000000E+00 0. -1.
    9000006    2    1    2  501    0  0.00000000000E+00  0.00000000000E+00  0.89608979492E+03  0.11039102051E+04  0.64470211751E+03 0.  0.
         13    1    3    3    0    0  0.27032308967E+03 -0.25971144007E+02  0.15067399567E+03  0.31056678203E+03  0.00000000000E+00 0. -1.
          4    1    3    3  501    0 -0.27032308967E+03  0.25971144007E+02  0.74541579925E+03  0.79334342305E+03  0.00000000000E+00 0. -1.
<mgrwt>
<rscale>  0 0.64470212E+03</rscale>
<asrwt>0</asrwt>
<pdfrwt beam="1">0</pdfrwt>
<pdfrwt beam="2">  1        2 0.37785609E+00 0.64470212E+03</pdfrwt>
<totfact> 0.48158223E+00</totfact>
</mgrwt>
</event>
<event>
 5    1  0.2368666E-004  0.6478470E+03  0.7818608E-02  0.9810828E-01
         13   -1    0    0    0    0  0.00000000000E+00  0.00000000000E+00  0.10000000000E+04  0.10000000000E+04  0.00000000000E+00 0. -1.
          2   -1    0    0  501    0 -0.00000000000E+00 -0.00000000000E+00 -0.10492643872E+03  0.10492643872E+03  0.00000000000E+00 0. -1.
    9000006    2    1    2  501    0  0.00000000000E+00  0.00000000000E+00  0.89507356128E+03  0.11049264387E+04  0.64784701503E+03 0.  0.
         13    1    3    3    0    0  0.30179315595E+03 -0.71146758578E+02  0.28767547119E+03  0.42296352911E+03  0.00000000000E+00 0. -1.
          2    1    3    3  501    0 -0.30179315595E+03  0.71146758578E+02  0.60739809009E+03  0.68196290961E+03  0.00000000000E+00 0. -1.
<mgrwt>
<rscale>  0 0.64784702E+03</rscale>
<asrwt>0</asrwt>
<pdfrwt beam="1">0</pdfrwt>
<pdfrwt beam="2">  1        2 0.38155149E+00 0.64784702E+03</pdfrwt>
<totfact> 0.46658754E+00</totfact>
</mgrwt>
</event>
<event>
 5    1  0.2368666E-004  0.5205557E+03  0.7818608E-02  0.1008549E+00
         13   -1    0    0    0    0  0.00000000000E+00  0.00000000000E+00  0.10000000000E+04  0.10000000000E+04  0.00000000000E+00 0. -1.
          2   -1    0    0  501    0 -0.00000000000E+00 -0.00000000000E+00 -0.67744560753E+02  0.67744560753E+02  0.00000000000E+00 0. -1.
    9000006    2    1    2  501    0  0.00000000000E+00  0.00000000000E+00  0.93225543925E+03  0.10677445608E+04  0.52055570596E+03 0.  0.
         13    1    3    3    0    0  0.16562271548E+03  0.14518115106E+03  0.75061233499E+03  0.78225783982E+03  0.00000000000E+00 0. -1.
          2    1    3    3  501    0 -0.16562271548E+03 -0.14518115106E+03  0.18164310425E+03  0.28548672094E+03  0.00000000000E+00 0. -1.
<mgrwt>
<rscale>  0 0.52055571E+03</rscale>
<asrwt>0</asrwt>
<pdfrwt beam="1">0</pdfrwt>
<pdfrwt beam="2">  1        2 0.24634438E+00 0.52055571E+03</pdfrwt>
<totfact> 0.14368293E+01</totfact>
</mgrwt>
</event>
<event>
 5    1  0.2368666E-004  0.6595249E+03  0.7818608E-02  0.9789069E-01
         13   -1    0    0    0    0  0.00000000000E+00  0.00000000000E+00  0.10000000000E+04  0.10000000000E+04  0.00000000000E+00 0. -1.
          2   -1    0    0  501    0 -0.00000000000E+00 -0.00000000000E+00 -0.10874327919E+03  0.10874327919E+03  0.00000000000E+00 0. -1.
    9000006    2    1    2  501    0  0.00000000000E+00  0.00000000000E+00  0.89125672081E+03  0.11087432792E+04  0.65952491746E+03 0.  0.
         13    1    3    3    0    0  0.34925766650E+01 -0.30855348338E+03  0.25011261495E+03  0.39720746513E+03  0.00000000000E+00 0. -1.
          2    1    3    3  501    0 -0.34925766650E+01  0.30855348338E+03  0.64114410586E+03  0.71153581405E+03  0.00000000000E+00 0. -1.
<mgrwt>
<rscale>  0 0.65952492E+03</rscale>
<asrwt>0</asrwt>
<pdfrwt beam="1">0</pdfrwt>
<pdfrwt beam="2">  1        2 0.39543094E+00 0.65952492E+03</pdfrwt>
<totfact> 0.41397447E+00</totfact>
</mgrwt>
</event>
<event>
 5    1  0.2368666E-004  0.6270603E+03  0.7818608E-02  0.9850802E-01
         13   -1    0    0    0    0  0.00000000000E+00  0.00000000000E+00  0.10000000000E+04  0.10000000000E+04  0.00000000000E+00 0. -1.
          2   -1    0    0  501    0 -0.00000000000E+00 -0.00000000000E+00 -0.98301140559E+02  0.98301140559E+02  0.00000000000E+00 0. -1.
    9000006    2    1    2  501    0  0.00000000000E+00  0.00000000000E+00  0.90169885944E+03  0.10983011406E+04  0.62706025407E+03 0.  0.
         13    1    3    3    0    0 -0.19939427484E+03 -0.36653470063E+02  0.86974773801E+03  0.89306364918E+03  0.00000000000E+00 0. -1.
          2    1    3    3  501    0  0.19939427484E+03  0.36653470063E+02  0.31951121429E+02  0.20523749138E+03  0.00000000000E+00 0. -1.
<mgrwt>
<rscale>  0 0.62706025E+03</rscale>
<asrwt>0</asrwt>
<pdfrwt beam="1">0</pdfrwt>
<pdfrwt beam="2">  1        2 0.35745945E+00 0.62706025E+03</pdfrwt>
<totfact> 0.57258899E+00</totfact>
</mgrwt>
</event>
<event>
 5    1  0.2368666E-004  0.6607390E+03  0.7818608E-02  0.9786834E-01
         13   -1    0    0    0    0  0.00000000000E+00  0.00000000000E+00  0.10000000000E+04  0.10000000000E+04  0.00000000000E+00 0. -1.
          2   -1    0    0  501    0 -0.00000000000E+00 -0.00000000000E+00 -0.10914400816E+03  0.10914400816E+03  0.00000000000E+00 0. -1.
    9000006    2    1    2  501    0  0.00000000000E+00  0.00000000000E+00  0.89085599184E+03  0.11091440082E+04  0.66073900493E+03 0.  0.
         13    1    3    3    0    0 -0.23786457739E+03  0.11568432309E+03  0.11315196713E+03  0.28769043684E+03  0.00000000000E+00 0. -1.
          2    1    3    3  501    0  0.23786457739E+03 -0.11568432309E+03  0.77770402471E+03  0.82145357132E+03  0.00000000000E+00 0. -1.
<mgrwt>
<rscale>  0 0.66073900E+03</rscale>
<asrwt>0</asrwt>
<pdfrwt beam="1">0</pdfrwt>
<pdfrwt beam="2">  1        2 0.39688814E+00 0.66073900E+03</pdfrwt>
<totfact> 0.40877436E+00</totfact>
</mgrwt>
</event>
<event>
 5    1  0.2368666E-004  0.6982176E+03  0.7818608E-02  0.9720285E-01
         13   -1    0    0    0    0  0.00000000000E+00  0.00000000000E+00  0.10000000000E+04  0.10000000000E+04  0.00000000000E+00 0. -1.
          2   -1    0    0  501    0 -0.00000000000E+00 -0.00000000000E+00 -0.12187694821E+03  0.12187694821E+03  0.00000000000E+00 0. -1.
    9000006    2    1    2  501    0  0.00000000000E+00  0.00000000000E+00  0.87812305179E+03  0.11218769482E+04  0.69821758274E+03 0.  0.
         13    1    3    3    0    0  0.51071771142E+02  0.98992436915E+02 -0.92557183046E+02  0.14482631152E+03  0.00000000000E+00 0. -1.
          2    1    3    3  501    0 -0.51071771142E+02 -0.98992436915E+02  0.97068023483E+03  0.97705063670E+03  0.00000000000E+00 0. -1.
<mgrwt>
<rscale>  0 0.69821758E+03</rscale>
<asrwt>0</asrwt>
<pdfrwt beam="1">0</pdfrwt>
<pdfrwt beam="2">  1        2 0.44318984E+00 0.69821758E+03</pdfrwt>
<totfact> 0.27103160E+00</totfact>
</mgrwt>
</event>
<event>
 5    1  0.2368666E-004  0.6942170E+03  0.7818608E-02  0.9727173E-01
         13   -1    0    0    0    0  0.00000000000E+00  0.00000000000E+00  0.10000000000E+04  0.10000000000E+04  0.00000000000E+00 0. -1.
          2   -1    0    0  501    0 -0.00000000000E+00 -0.00000000000E+00 -0.12048431813E+03  0.12048431813E+03  0.00000000000E+00 0. -1.
    9000006    2    1    2  501    0  0.00000000000E+00  0.00000000000E+00  0.87951568187E+03  0.11204843181E+04  0.69421702121E+03 0.  0.
         13    1    3    3    0    0 -0.21231273682E+03 -0.18222263348E+03  0.77133131350E+03  0.82050824588E+03  0.00000000000E+00 0. -1.
          4    1    3    3  501    0  0.21231273682E+03  0.18222263348E+03  0.10818436836E+03  0.29997607226E+03  0.00000000000E+00 0. -1.
<mgrwt>
<rscale>  0 0.69421702E+03</rscale>
<asrwt>0</asrwt>
<pdfrwt beam="1">0</pdfrwt>
<pdfrwt beam="2">  1        2 0.43812572E+00 0.69421702E+03</pdfrwt>
<totfact> 0.28376299E+00</totfact>
</mgrwt>
</event>
<event>
 5    1  0.2368666E-004  0.6495492E+03  0.7818608E-02  0.9807625E-01
         13   -1    0    0    0    0  0.00000000000E+00  0.00000000000E+00  0.10000000000E+04  0.10000000000E+04  0.00000000000E+00 0. -1.
          2   -1    0    0  501    0 -0.00000000000E+00 -0.00000000000E+00 -0.10547853167E+03  0.10547853167E+03  0.00000000000E+00 0. -1.
    9000006    2    1    2  501    0  0.00000000000E+00  0.00000000000E+00  0.89452146833E+03  0.11054785317E+04  0.64954917186E+03 0.  0.
         13    1    3    3    0    0 -0.19231024281E+03 -0.21535904186E+03  0.70035917037E+03  0.75753924910E+03  0.00000000000E+00 0. -1.
          4    1    3    3  501    0  0.19231024281E+03  0.21535904186E+03  0.19416229796E+03  0.34793928256E+03  0.00000000000E+00 0. -1.
<mgrwt>
<rscale>  0 0.64954917E+03</rscale>
<asrwt>0</asrwt>
<pdfrwt beam="1">0</pdfrwt>
<pdfrwt beam="2">  1        2 0.38355911E+00 0.64954917E+03</pdfrwt>
<totfact> 0.45862051E+00</totfact>
</mgrwt>
</event>
<event>
 5    1  0.2368666E-004  0.6480832E+03  0.7818608E-02  0.9810383E-01
         13   -1    0    0    0    0  0.00000000000E+00  0.00000000000E+00  0.10000000000E+04  0.10000000000E+04  0.00000000000E+00 0. -1.
          2   -1    0    0  501    0 -0.00000000000E+00 -0.00000000000E+00 -0.10500295261E+03  0.10500295261E+03  0.00000000000E+00 0. -1.
    9000006    2    1    2  501    0  0.00000000000E+00  0.00000000000E+00  0.89499704739E+03  0.11050029526E+04  0.64808318174E+03 0.  0.
         13    1    3    3    0    0 -0.22576191782E+03 -0.17058080354E+03  0.71674632450E+03  0.77057870964E+03  0.00000000000E+00 0. -1.
          4    1    3    3  501    0  0.22576191782E+03  0.17058080354E+03  0.17825072289E+03  0.33442424297E+03  0.00000000000E+00 0. -1.
<mgrwt>
<rscale>  0 0.64808318E+03</rscale>
<asrwt>0</asrwt>
<pdfrwt beam="1">0</pdfrwt>
<pdfrwt beam="2">  1        2 0.38182972E+00 0.64808318E+03</pdfrwt>
<totfact> 0.46547595E+00</totfact>
</mgrwt>
</event>
<event>
 5    1  0.2368666E-004  0.6373907E+03  0.7818608E-02  0.9830732E-01
         13   -1    0    0    0    0  0.00000000000E+00  0.00000000000E+00  0.10000000000E+04  0.10000000000E+04  0.00000000000E+00 0. -1.
          2   -1    0    0  501    0 -0.00000000000E+00 -0.00000000000E+00 -0.10156672130E+03  0.10156672130E+03  0.00000000000E+00 0. -1.
    9000006    2    1    2  501    0  0.00000000000E+00  0.00000000000E+00  0.89843327870E+03  0.11015667213E+04  0.63739068490E+03 0.  0.
         13    1    3    3    0    0 -0.40622950425E+02  0.49291954616E+01  0.99544077304E+03  0.99628151328E+03  0.00000000000E+00 0. -1.
          2    1    3    3  501    0  0.40622950425E+02 -0.49291954616E+01 -0.97007494343E+02  0.10528520802E+03  0.00000000000E+00 0. -1.
<mgrwt>
<rscale>  0 0.63739068E+03</rscale>
<asrwt>0</asrwt>
<pdfrwt beam="1">0</pdfrwt>
<pdfrwt beam="2">  1        2 0.36933431E+00 0.63739068E+03</pdfrwt>
<totfact> 0.51785402E+00</totfact>
</mgrwt>
</event>
<event>
 5    1  0.2368666E-004  0.6391630E+03  0.7818608E-02  0.9827329E-01
         13   -1    0    0    0    0  0.00000000000E+00  0.00000000000E+00  0.10000000000E+04  0.10000000000E+04  0.00000000000E+00 0. -1.
          2   -1    0    0  501    0 -0.00000000000E+00 -0.00000000000E+00 -0.10213234965E+03  0.10213234965E+03  0.00000000000E+00 0. -1.
    9000006    2    1    2  501    0  0.00000000000E+00  0.00000000000E+00  0.89786765035E+03  0.11021323497E+04  0.63916304541E+03 0.  0.
         13    1    3    3    0    0  0.29769559651E+03 -0.23096423941E+02  0.64535869391E+03  0.71108646224E+03  0.00000000000E+00 0. -1.
          2    1    3    3  501    0 -0.29769559651E+03  0.23096423941E+02  0.25250895644E+03  0.39104588741E+03  0.00000000000E+00 0. -1.
<mgrwt>
<rscale>  0 0.63916305E+03</rscale>
<asrwt>0</asrwt>
<pdfrwt beam="1">0</pdfrwt>
<pdfrwt beam="2">  1        2 0.37139115E+00 0.63916305E+03</pdfrwt>
<totfact> 0.50887744E+00</totfact>
</mgrwt>
</event>
<event>
 5    1  0.2368666E-004  0.6548859E+03  0.7818608E-02  0.9797654E-01
         13   -1    0    0    0    0  0.00000000000E+00  0.00000000000E+00  0.10000000000E+04  0.10000000000E+04  0.00000000000E+00 0. -1.
          2   -1    0    0  501    0 -0.00000000000E+00 -0.00000000000E+00 -0.10721887582E+03  0.10721887582E+03  0.00000000000E+00 0. -1.
    9000006    2    1    2  501    0  0.00000000000E+00  0.00000000000E+00  0.89278112418E+03  0.11072188758E+04  0.65488587043E+03 0.  0.
         13    1    3    3    0    0  0.31725525697E+03  0.14720922002E+01  0.58338787190E+03  0.66407414812E+03  0.00000000000E+00 0. -1.
          4    1    3    3  501    0 -0.31725525697E+03 -0.14720922002E+01  0.30939325228E+03  0.44314472770E+03  0.00000000000E+00 0. -1.
<mgrwt>
<rscale>  0 0.65488587E+03</rscale>
<asrwt>0</asrwt>
<pdfrwt beam="1">0</pdfrwt>
<pdfrwt beam="2">  1        2 0.38988764E+00 0.65488587E+03</pdfrwt>
<totfact> 0.43430684E+00</totfact>
</mgrwt>
</event>
<event>
 5    1  0.2368666E-004  0.6194020E+03  0.7818608E-02  0.9865951E-01
         13   -1    0    0    0    0  0.00000000000E+00  0.00000000000E+00  0.10000000000E+04  0.10000000000E+04  0.00000000000E+00 0. -1.
          2   -1    0    0  501    0 -0.00000000000E+00 -0.00000000000E+00 -0.95914707192E+02  0.95914707192E+02  0.00000000000E+00 0. -1.
    9000006    2    1    2  501    0  0.00000000000E+00  0.00000000000E+00  0.90408529281E+03  0.10959147072E+04  0.61940199287E+03 0.  0.
         13    1    3    3    0    0  0.92781150800E+00  0.15516308023E+03  0.92626505722E+03  0.93917165551E+03  0.00000000000E+00 0. -1.
          4    1    3    3  501    0 -0.92781150800E+00 -0.15516308023E+03 -0.22179764409E+02  0.15674305168E+03  0.00000000000E+00 0. -1.
<mgrwt>
<rscale>  0 0.61940199E+03</rscale>
<asrwt>0</asrwt>
<pdfrwt beam="1">0</pdfrwt>
<pdfrwt beam="2">  1        2 0.34878149E+00 0.61940199E+03</pdfrwt>
<totfact> 0.61592403E+00</totfact>
</mgrwt>
</event>
<event>
 5    1  0.2368666E-004  0.6581182E+03  0.7818608E-02  0.9791664E-01
         13   -1    0    0    0    0  0.00000000000E+00  0.00000000000E+00  0.10000000000E+04  0.10000000000E+04  0.00000000000E+00 0. -1.
          2   -1    0    0  501    0 -0.00000000000E+00 -0.00000000000E+00 -0.10827990006E+03  0.10827990006E+03  0.00000000000E+00 0. -1.
    9000006    2    1    2  501    0  0.00000000000E+00  0.00000000000E+00  0.89172009994E+03  0.11082799001E+04  0.65811822663E+03 0.  0.
         13    1    3    3    0    0 -0.18589206515E+03 -0.20808046552E+03  0.15211404725E+03  0.31779242185E+03  0.00000000000E+00 0. -1.
          4    1    3    3  501    0  0.18589206515E+03  0.20808046552E+03  0.73960605269E+03  0.79048747820E+03  0.00000000000E+00 0. -1.
<mgrwt>
<rscale>  0 0.65811823E+03</rscale>
<asrwt>0</asrwt>
<pdfrwt beam="1">0</pdfrwt>
<pdfrwt beam="2">  1        2 0.39374592E+00 0.65811823E+03</pdfrwt>
<totfact> 0.42006186E+00</totfact>
</mgrwt>
</event>
<event>
 5    1  0.2368666E-004  0.6547215E+03  0.7818608E-02  0.9797960E-01
         13   -1    0    0    0    0  0.00000000000E+00  0.00000000000E+00  0.10000000000E+04  0.10000000000E+04  0.00000000000E+00 0. -1.
          2   -1    0    0  501    0 -0.00000000000E+00 -0.00000000000E+00 -0.10716505771E+03  0.10716505771E+03  0.00000000000E+00 0. -1.
    9000006    2    1    2  501    0  0.00000000000E+00  0.00000000000E+00  0.89283494229E+03  0.11071650577E+04  0.65472149105E+03 0.  0.
         13    1    3    3    0    0  0.10411139405E+03  0.15878740796E+03  0.89736763316E+03  0.91723567982E+03  0.00000000000E+00 0. -1.
          4    1    3    3  501    0 -0.10411139405E+03 -0.15878740796E+03 -0.45326908718E+01  0.18992937789E+03  0.00000000000E+00 0. -1.
<mgrwt>
<rscale>  0 0.65472149E+03</rscale>
<asrwt>0</asrwt>
<pdfrwt beam="1">0</pdfrwt>
<pdfrwt beam="2">  1        2 0.38969194E+00 0.65472149E+03</pdfrwt>
<totfact> 0.43504088E+00</totfact>
</mgrwt>
</event>
<event>
 5    1  0.2368666E-004  0.6484731E+03  0.7818608E-02  0.9809648E-01
         13   -1    0    0    0    0  0.00000000000E+00  0.00000000000E+00  0.10000000000E+04  0.10000000000E+04  0.00000000000E+00 0. -1.
          2   -1    0    0  501    0 -0.00000000000E+00 -0.00000000000E+00 -0.10512934792E+03  0.10512934792E+03  0.00000000000E+00 0. -1.
    9000006    2    1    2  501    0  0.00000000000E+00  0.00000000000E+00  0.89487065208E+03  0.11051293479E+04  0.64847312332E+03 0.  0.
         13    1    3    3    0    0  0.25892967375E+03 -0.44094285115E+02  0.12345547213E+03  0.29022428487E+03  0.00000000000E+00 0. -1.
          4    1    3    3  501    0 -0.25892967375E+03  0.44094285115E+02  0.77141517995E+03  0.81490506305E+03  0.00000000000E+00 0. -1.
<mgrwt>
<rscale>  0 0.64847312E+03</rscale>
<asrwt>0</asrwt>
<pdfrwt beam="1">0</pdfrwt>
<pdfrwt beam="2">  1        2 0.38228934E+00 0.64847312E+03</pdfrwt>
<totfact> 0.46364495E+00</totfact>
</mgrwt>
</event>
<event>
 5    1  0.2368666E-004  0.6583354E+03  0.7818608E-02  0.9791263E-01
         13   -1    0    0    0    0  0.00000000000E+00  0.00000000000E+00  0.10000000000E+04  0.10000000000E+04  0.00000000000E+00 0. -1.
          2   -1    0    0  501    0 -0.00000000000E+00 -0.00000000000E+00 -0.10835138354E+03  0.10835138354E+03  0.00000000000E+00 0. -1.
    9000006    2    1    2  501    0  0.00000000000E+00  0.00000000000E+00  0.89164861646E+03  0.11083513835E+04  0.65833542679E+03 0.  0.
         13    1    3    3    0    0 -0.17226352145E+03  0.23482734183E+03  0.18755852035E+03  0.34640554247E+03  0.00000000000E+00 0. -1.
          4    1    3    3  501    0  0.17226352145E+03 -0.23482734183E+03  0.70409009610E+03  0.76194584107E+03  0.00000000000E+00 0. -1.
<mgrwt>
<rscale>  0 0.65833543E+03</rscale>
<asrwt>0</asrwt>
<pdfrwt beam="1">0</pdfrwt>
<pdfrwt beam="2">  1        2 0.39400586E+00 0.65833543E+03</pdfrwt>
<totfact> 0.41911752E+00</totfact>
</mgrwt>
</event>
<event>
 5    1  0.2368666E-004  0.6318209E+03  0.7818608E-02  0.9841502E-01
         13   -1    0    0    0    0  0.00000000000E+00  0.00000000000E+00  0.10000000000E+04  0.10000000000E+04  0.00000000000E+00 0. -1.
          2   -1    0    0  501    0 -0.00000000000E+00 -0.00000000000E+00 -0.99799425550E+02  0.99799425550E+02  0.00000000000E+00 0. -1.
    9000006    2    1    2  501    0  0.00000000000E+00  0.00000000000E+00  0.90020057445E+03  0.10997994255E+04  0.63182094156E+03 0.  0.
         13    1    3    3    0    0  0.48117619969E+02 -0.12800419555E+03  0.94580990497E+03  0.95564468071E+03  0.00000000000E+00 0. -1.
          4    1    3    3  501    0 -0.48117619969E+02  0.12800419555E+03 -0.45609330517E+02  0.14415474484E+03  0.00000000000E+00 0. -1.
<mgrwt>
<rscale>  0 0.63182094E+03</rscale>
<asrwt>0</asrwt>
<pdfrwt beam="1">0</pdfrwt>
<pdfrwt beam="2">  1        2 0.36290777E+00 0.63182094E+03</pdfrwt>
<totfact> 0.54684625E+00</totfact>
</mgrwt>
</event>
<event>
 5    1  0.2368666E-004  0.6522350E+03  0.7818608E-02  0.9802594E-01
         13   -1    0    0    0    0  0.00000000000E+00  0.00000000000E+00  0.10000000000E+04  0.10000000000E+04  0.00000000000E+00 0. -1.
          2   -1    0    0  501    0 -0.00000000000E+00 -0.00000000000E+00 -0.10635260967E+03  0.10635260967E+03  0.00000000000E+00 0. -1.
    9000006    2    1    2  501    0  0.00000000000E+00  0.00000000000E+00  0.89364739033E+03  0.11063526097E+04  0.65223495667E+03 0.  0.
         13    1    3    3    0    0 -0.79193815544E+02 -0.30698000965E+03  0.57649768700E+03  0.65791942506E+03  0.00000000000E+00 0. -1.
          4    1    3    3  501    0  0.79193815544E+02  0.30698000965E+03  0.31714970332E+03  0.44843318462E+03  0.00000000000E+00 0. -1.
<mgrwt>
<rscale>  0 0.65223496E+03</rscale>
<asrwt>0</asrwt>
<pdfrwt beam="1">0</pdfrwt>
<pdfrwt beam="2">  1        2 0.38673758E+00 0.65223496E+03</pdfrwt>
<totfact> 0.44625919E+00</totfact>
</mgrwt>
</event>
<event>
 5    1  0.2368666E-004  0.6592621E+03  0.7818608E-02  0.9789553E-01
         13   -1    0    0    0    0  0.00000000000E+00  0.00000000000E+00  0.10000000000E+04  0.10000000000E+04  0.00000000000E+00 0. -1.
          2   -1    0    0  501    0 -0.00000000000E+00 -0.00000000000E+00 -0.10865663029E+03  0.10865663029E+03  0.00000000000E+00 0. -1.
    9000006    2    1    2  501    0  0.00000000000E+00  0.00000000000E+00  0.89134336971E+03  0.11086566303E+04  0.65926210355E+03 0.  0.
         13    1    3    3    0    0  0.15767966081E+02  0.13231928508E+03  0.95268568629E+03  0.96195999856E+03  0.00000000000E+00 0. -1.
          2    1    3    3  501    0 -0.15767966081E+02 -0.13231928508E+03 -0.61342316586E+02  0.14669663174E+03  0.00000000000E+00 0. -1.
<mgrwt>
<rscale>  0 0.65926210E+03</rscale>
<asrwt>0</asrwt>
<pdfrwt beam="1">0</pdfrwt>
<pdfrwt beam="2">  1        2 0.39511585E+00 0.65926210E+03</pdfrwt>
<totfact> 0.41510669E+00</totfact>
</mgrwt>
</event>
<event>
 5    1  0.2368666E-004  0.6480771E+03  0.7818608E-02  0.9810394E-01
         13   -1    0    0    0    0  0.00000000000E+00  0.00000000000E+00  0.10000000000E+04  0.10000000000E+04  0.00000000000E+00 0. -1.
          2   -1    0    0  501    0 -0.00000000000E+00 -0.00000000000E+00 -0.10500098021E+03  0.10500098021E+03  0.00000000000E+00 0. -1.
    9000006    2    1    2  501    0  0.00000000000E+00  0.00000000000E+00  0.89499901979E+03  0.11050009802E+04  0.64807709481E+03 0.  0.
         13    1    3    3    0    0 -0.59419176889E+01 -0.16500287764E+03  0.92289766136E+03  0.93755071828E+03  0.00000000000E+00 0. -1.
          2    1    3    3  501    0  0.59419176889E+01  0.16500287764E+03 -0.27898641563E+02  0.16745026192E+03  0.00000000000E+00 0. -1.
<mgrwt>
<rscale>  0 0.64807709E+03</rscale>
<asrwt>0</asrwt>
<pdfrwt beam="1">0</pdfrwt>
<pdfrwt beam="2">  1        2 0.38182255E+00 0.64807709E+03</pdfrwt>
<totfact> 0.46550457E+00</totfact>
</mgrwt>
</event>
<event>
 5    1  0.2368666E-004  0.6522723E+03  0.7818608E-02  0.9802525E-01
         13   -1    0    0    0    0  0.00000000000E+00  0.00000000000E+00  0.10000000000E+04  0.10000000000E+04  0.00000000000E+00 0. -1.
          2   -1    0    0  501    0 -0.00000000000E+00 -0.00000000000E+00 -0.10636480238E+03  0.10636480238E+03  0.00000000000E+00 0. -1.
    9000006    2    1    2  501    0  0.00000000000E+00  0.00000000000E+00  0.89363519762E+03  0.11063648024E+04  0.65227234306E+03 0.  0.
         13    1    3    3    0    0 -0.31646107977E+02 -0.32438254071E+03  0.42679894657E+03  0.53701289525E+03  0.00000000000E+00 0. -1.
          4    1    3    3  501    0  0.31646107977E+02  0.32438254071E+03  0.46683625105E+03  0.56935190713E+03  0.00000000000E+00 0. -1.
<mgrwt>
<rscale>  0 0.65227234E+03</rscale>
<asrwt>0</asrwt>
<pdfrwt beam="1">0</pdfrwt>
<pdfrwt beam="2">  1        2 0.38678192E+00 0.65227234E+03</pdfrwt>
<totfact> 0.44608891E+00</totfact>
</mgrwt>
</event>
<event>
 5    1  0.2368666E-004  0.6485862E+03  0.7818608E-02  0.9809436E-01
         13   -1    0    0    0    0  0.00000000000E+00  0.00000000000E+00  0.10000000000E+04  0.10000000000E+04  0.00000000000E+00 0. -1.
          2   -1    0    0  501    0 -0.00000000000E+00 -0.00000000000E+00 -0.10516602571E+03  0.10516602571E+03  0.00000000000E+00 0. -1.
    9000006    2    1    2  501    0  0.00000000000E+00  0.00000000000E+00  0.89483397429E+03  0.11051660257E+04  0.64858623392E+03 0.  0.
         13    1    3    3    0    0  0.30800072119E+03  0.99440773209E+02  0.41278361361E+03  0.52454096436E+03  0.00000000000E+00 0. -1.
          4    1    3    3  501    0 -0.30800072119E+03 -0.99440773209E+02  0.48205036068E+03  0.58062506134E+03  0.00000000000E+00 0. -1.
<mgrwt>
<rscale>  0 0.64858623E+03</rscale>
<asrwt>0</asrwt>
<pdfrwt beam="1">0</pdfrwt>
<pdfrwt beam="2">  1        2 0.38242272E+00 0.64858623E+03</pdfrwt>
<totfact> 0.46311485E+00</totfact>
</mgrwt>
</event>
<event>
 5    1  0.2368666E-004  0.6563917E+03  0.7818608E-02  0.9794859E-01
         13   -1    0    0    0    0  0.00000000000E+00  0.00000000000E+00  0.10000000000E+04  0.10000000000E+04  0.00000000000E+00 0. -1.
          2   -1    0    0  501    0 -0.00000000000E+00 -0.00000000000E+00 -0.10771252440E+03  0.10771252440E+03  0.00000000000E+00 0. -1.
    9000006    2    1    2  501    0  0.00000000000E+00  0.00000000000E+00  0.89228747560E+03  0.11077125244E+04  0.65639172572E+03 0.  0.
         13    1    3    3    0    0  0.10449873102E+03  0.31031081916E+03  0.48386914258E+03  0.58424492844E+03  0.00000000000E+00 0. -1.
          2    1    3    3  501    0 -0.10449873102E+03 -0.31031081916E+03  0.40841833302E+03  0.52346759595E+03  0.00000000000E+00 0. -1.
<mgrwt>
<rscale>  0 0.65639173E+03</rscale>
<asrwt>0</asrwt>
<pdfrwt beam="1">0</pdfrwt>
<pdfrwt beam="2">  1        2 0.39168273E+00 0.65639173E+03</pdfrwt>
<totfact> 0.42762590E+00</totfact>
</mgrwt>
</event>
<event>
 5    1  0.2368666E-004  0.5032828E+03  0.7818608E-02  0.1012926E+00
         13   -1    0    0    0    0  0.00000000000E+00  0.00000000000E+00  0.10000000000E+04  0.10000000000E+04  0.00000000000E+00 0. -1.
          2   -1    0    0  501    0 -0.00000000000E+00 -0.00000000000E+00 -0.63323387617E+02  0.63323387617E+02  0.00000000000E+00 0. -1.
    9000006    2    1    2  501    0  0.00000000000E+00  0.00000000000E+00  0.93667661238E+03  0.10633233876E+04  0.50328277386E+03 0.  0.
         13    1    3    3    0    0 -0.33211211182E+02 -0.24000053143E+03  0.61194716908E+03  0.65816607128E+03  0.00000000000E+00 0. -1.
          4    1    3    3  501    0  0.33211211182E+02  0.24000053143E+03  0.32472944330E+03  0.40515731634E+03  0.00000000000E+00 0. -1.
<mgrwt>
<rscale>  0 0.50328277E+03</rscale>
<asrwt>0</asrwt>
<pdfrwt beam="1">0</pdfrwt>
<pdfrwt beam="2">  1        2 0.23026735E+00 0.50328277E+03</pdfrwt>
<totfact> 0.16427663E+01</totfact>
</mgrwt>
</event>
<event>
 5    1  0.2368666E-004  0.6696820E+03  0.7818608E-02  0.9770533E-01
         13   -1    0    0    0    0  0.00000000000E+00  0.00000000000E+00  0.10000000000E+04  0.10000000000E+04  0.00000000000E+00 0. -1.
          2   -1    0    0  501    0 -0.00000000000E+00 -0.00000000000E+00 -0.11211847900E+03  0.11211847900E+03  0.00000000000E+00 0. -1.
    9000006    2    1    2  501    0  0.00000000000E+00  0.00000000000E+00  0.88788152100E+03  0.11121184790E+04  0.66968195137E+03 0.  0.
         13    1    3    3    0    0 -0.97491075470E+01 -0.31894913944E+03  0.27544339520E+03  0.42153607509E+03  0.00000000000E+00 0. -1.
          4    1    3    3  501    0  0.97491075470E+01  0.31894913944E+03  0.61243812580E+03  0.69058240391E+03  0.00000000000E+00 0. -1.
<mgrwt>
<rscale>  0 0.66968195E+03</rscale>
<asrwt>0</asrwt>
<pdfrwt beam="1">0</pdfrwt>
<pdfrwt beam="2">  1        2 0.40770442E+00 0.66968195E+03</pdfrwt>
<totfact> 0.37197259E+00</totfact>
</mgrwt>
</event>
<event>
 5    1  0.2368666E-004  0.6495010E+03  0.7818608E-02  0.9807716E-01
         13   -1    0    0    0    0  0.00000000000E+00  0.00000000000E+00  0.10000000000E+04  0.10000000000E+04  0.00000000000E+00 0. -1.
          2   -1    0    0  501    0 -0.00000000000E+00 -0.00000000000E+00 -0.10546287251E+03  0.10546287251E+03  0.00000000000E+00 0. -1.
    9000006    2    1    2  501    0  0.00000000000E+00  0.00000000000E+00  0.89453712749E+03  0.11054628725E+04  0.64950095460E+03 0.  0.
         13    1    3    3    0    0  0.26729531106E+03  0.91358993457E+02  0.71996164358E+03  0.77339383061E+03  0.00000000000E+00 0. -1.
          2    1    3    3  501    0 -0.26729531106E+03 -0.91358993457E+02  0.17457548391E+03  0.33206904189E+03  0.00000000000E+00 0. -1.
<mgrwt>
<rscale>  0 0.64950095E+03</rscale>
<asrwt>0</asrwt>
<pdfrwt beam="1">0</pdfrwt>
<pdfrwt beam="2">  1        2 0.38350216E+00 0.64950095E+03</pdfrwt>
<totfact> 0.45884477E+00</totfact>
</mgrwt>
</event>
<event>
 5    1  0.2368666E-004  0.6490848E+03  0.7818608E-02  0.9808498E-01
         13   -1    0    0    0    0  0.00000000000E+00  0.00000000000E+00  0.10000000000E+04  0.10000000000E+04  0.00000000000E+00 0. -1.
          2   -1    0    0  501    0 -0.00000000000E+00 -0.00000000000E+00 -0.10532778449E+03  0.10532778449E+03  0.00000000000E+00 0. -1.
    9000006    2    1    2  501    0  0.00000000000E+00  0.00000000000E+00  0.89467221551E+03  0.11053277845E+04  0.64908484651E+03 0.  0.
         13    1    3    3    0    0  0.15164901247E+03  0.28383000944E+03  0.37567474338E+03  0.49465989332E+03  0.00000000000E+00 0. -1.
          4    1    3    3  501    0 -0.15164901247E+03 -0.28383000944E+03  0.51899747213E+03  0.61066789118E+03  0.00000000000E+00 0. -1.
<mgrwt>
<rscale>  0 0.64908485E+03</rscale>
<asrwt>0</asrwt>
<pdfrwt beam="1">0</pdfrwt>
<pdfrwt beam="2">  1        2 0.38301093E+00 0.64908485E+03</pdfrwt>
<totfact> 0.46078353E+00</totfact>
</mgrwt>
</event>
<event>
 5    1  0.2368666E-004  0.6388373E+03  0.7818608E-02  0.9827954E-01
         13   -1    0    0    0    0  0.00000000000E+00  0.00000000000E+00  0.10000000000E+04  0.10000000000E+04  0.00000000000E+00 0. -1.
          2   -1    0    0  501    0 -0.00000000000E+00 -0.00000000000E+00 -0.10202826304E+03  0.10202826304E+03  0.00000000000E+00 0. -1.
    9000006    2    1    2  501    0  0.00000000000E+00  0.00000000000E+00  0.89797173696E+03  0.11020282630E+04  0.63883726580E+03 0.  0.
         13    1    3    3    0    0 -0.18135128064E+03  0.18980798542E+03  0.13507877461E+03  0.29523149166E+03  0.00000000000E+00 0. -1.
          4    1    3    3  501    0  0.18135128064E+03 -0.18980798542E+03  0.76289296234E+03  0.80679677138E+03  0.00000000000E+00 0. -1.
<mgrwt>
<rscale>  0 0.63883727E+03</rscale>
<asrwt>0</asrwt>
<pdfrwt beam="1">0</pdfrwt>
<pdfrwt beam="2">  1        2 0.37101265E+00 0.63883727E+03</pdfrwt>
<totfact> 0.51051853E+00</totfact>
</mgrwt>
</event>
<event>
 5    1  0.2368666E-004  0.6724955E+03  0.7818608E-02  0.9765460E-01
         13   -1    0    0    0    0  0.00000000000E+00  0.00000000000E+00  0.10000000000E+04  0.10000000000E+04  0.00000000000E+00 0. -1.
          2   -1    0    0  501    0 -0.00000000000E+00 -0.00000000000E+00 -0.11306254306E+03  0.11306254306E+03  0.00000000000E+00 0. -1.
    9000006    2    1    2  501    0  0.00000000000E+00  0.00000000000E+00  0.88693745694E+03  0.11130625431E+04  0.67249548120E+03 0.  0.
         13    1    3    3    0    0 -0.18585060358E+03 -0.21876902386E+03  0.15364634259E+03  0.32558797773E+03  0.00000000000E+00 0. -1.
          4    1    3    3  501    0  0.18585060358E+03  0.21876902386E+03  0.73329111435E+03  0.78747456533E+03  0.00000000000E+00 0. -1.
<mgrwt>
<rscale>  0 0.67249548E+03</rscale>
<asrwt>0</asrwt>
<pdfrwt beam="1">0</pdfrwt>
<pdfrwt beam="2">  1        2 0.41113739E+00 0.67249548E+03</pdfrwt>
<totfact> 0.36092860E+00</totfact>
</mgrwt>
</event>
<event>
 5    1  0.2368666E-004  0.6549016E+03  0.7818608E-02  0.9797625E-01
         13   -1    0    0    0    0  0.00000000000E+00  0.00000000000E+00  0.10000000000E+04  0.10000000000E+04  0.00000000000E+00 0. -1.
          2   -1    0    0  501    0 -0.00000000000E+00 -0.00000000000E+00 -0.10722403902E+03  0.10722403902E+03  0.00000000000E+00 0. -1.
    9000006    2    1    2  501    0  0.00000000000E+00  0.00000000000E+00  0.89277596098E+03  0.11072240390E+04  0.65490163848E+03 0.  0.
         13    1    3    3    0    0 -0.86008820880E+02  0.30515754614E+03  0.30794479836E+03  0.44198262870E+03  0.00000000000E+00 0. -1.
          4    1    3    3  501    0  0.86008820880E+02 -0.30515754614E+03  0.58483116262E+03  0.66524141032E+03  0.00000000000E+00 0. -1.
<mgrwt>
<rscale>  0 0.65490164E+03</rscale>
<asrwt>0</asrwt>
<pdfrwt beam="1">0</pdfrwt>
<pdfrwt beam="2">  1        2 0.38990642E+00 0.65490164E+03</pdfrwt>
<totfact> 0.43423648E+00</totfact>
</mgrwt>
</event>
<event>
 5    1  0.2368666E-004  0.6519394E+03  0.7818608E-02  0.9803147E-01
         13   -1    0    0    0    0  0.00000000000E+00  0.00000000000E+00  0.10000000000E+04  0.10000000000E+04  0.00000000000E+00 0. -1.
          2   -1    0    0  501    0 -0.00000000000E+00 -0.00000000000E+00 -0.10625623317E+03  0.10625623317E+03  0.00000000000E+00 0. -1.
    9000006    2    1    2  501    0  0.00000000000E+00  0.00000000000E+00  0.89374376683E+03  0.11062562332E+04  0.65193936275E+03 0.  0.
         13    1    3    3    0    0  0.61607798099E+02  0.31978386101E+03  0.42293491220E+03  0.53378945148E+03  0.00000000000E+00 0. -1.
          4    1    3    3  501    0 -0.61607798099E+02 -0.31978386101E+03  0.47080885463E+03  0.57246678170E+03  0.00000000000E+00 0. -1.
<mgrwt>
<rscale>  0 0.65193936E+03</rscale>
<asrwt>0</asrwt>
<pdfrwt beam="1">0</pdfrwt>
<pdfrwt beam="2">  1        2 0.38638712E+00 0.65193936E+03</pdfrwt>
<totfact> 0.44760719E+00</totfact>
</mgrwt>
</event>
<event>
 5    1  0.2368666E-004  0.6494925E+03  0.7818608E-02  0.9807732E-01
         13   -1    0    0    0    0  0.00000000000E+00  0.00000000000E+00  0.10000000000E+04  0.10000000000E+04  0.00000000000E+00 0. -1.
          4   -1    0    0  501    0 -0.00000000000E+00 -0.00000000000E+00 -0.10546014292E+03  0.10546014292E+03  0.00000000000E+00 0. -1.
    9000006    2    1    2  501    0  0.00000000000E+00  0.00000000000E+00  0.89453985708E+03  0.11054601429E+04  0.64949254938E+03 0.  0.
         13    1    3    3    0    0 -0.11569637101E+03  0.26456692977E+03  0.70017466679E+03  0.75738093098E+03  0.00000000000E+00 0. -1.
          2    1    3    3  501    0  0.11569637101E+03 -0.26456692977E+03  0.19436519028E+03  0.34807921194E+03  0.00000000000E+00 0. -1.
<mgrwt>
<rscale>  0 0.64949255E+03</rscale>
<asrwt>0</asrwt>
<pdfrwt beam="1">0</pdfrwt>
<pdfrwt beam="2">  1        4 0.38349224E+00 0.64949255E+03</pdfrwt>
<totfact> 0.41559221E-02</totfact>
</mgrwt>
</event>
<event>
 5    1  0.2368666E-004  0.6384792E+03  0.7818608E-02  0.9828641E-01
         13   -1    0    0    0    0  0.00000000000E+00  0.00000000000E+00  0.10000000000E+04  0.10000000000E+04  0.00000000000E+00 0. -1.
          2   -1    0    0  501    0 -0.00000000000E+00 -0.00000000000E+00 -0.10191390764E+03  0.10191390764E+03  0.00000000000E+00 0. -1.
    9000006    2    1    2  501    0  0.00000000000E+00  0.00000000000E+00  0.89808609236E+03  0.11019139076E+04  0.63847915437E+03 0.  0.
         13    1    3    3    0    0  0.16468518217E+03 -0.97738565242E+02  0.88985918849E+03  0.91023261406E+03  0.00000000000E+00 0. -1.
          4    1    3    3  501    0 -0.16468518217E+03  0.97738565242E+02  0.82269038682E+01  0.19168129358E+03  0.00000000000E+00 0. -1.
<mgrwt>
<rscale>  0 0.63847915E+03</rscale>
<asrwt>0</asrwt>
<pdfrwt beam="1">0</pdfrwt>
<pdfrwt beam="2">  1        2 0.37059681E+00 0.63847915E+03</pdfrwt>
<totfact> 0.51232710E+00</totfact>
</mgrwt>
</event>
<event>
 5    1  0.2368666E-004  0.6476612E+03  0.7818608E-02  0.9811178E-01
         13   -1    0    0    0    0  0.00000000000E+00  0.00000000000E+00  0.10000000000E+04  0.10000000000E+04  0.00000000000E+00 0. -1.
          2   -1    0    0  501    0 -0.00000000000E+00 -0.00000000000E+00 -0.10486624916E+03  0.10486624916E+03  0.00000000000E+00 0. -1.
    9000006    2    1    2  501    0  0.00000000000E+00  0.00000000000E+00  0.89513375084E+03  0.11048662492E+04  0.64766117426E+03 0.  0.
         13    1    3    3    0    0  0.28065251844E+03 -0.18606941900E+02  0.72133686041E+03  0.77423440932E+03  0.00000000000E+00 0. -1.
          4    1    3    3  501    0 -0.28065251844E+03  0.18606941900E+02  0.17379689043E+03  0.33063183984E+03  0.00000000000E+00 0. -1.
<mgrwt>
<rscale>  0 0.64766117E+03</rscale>
<asrwt>0</asrwt>
<pdfrwt beam="1">0</pdfrwt>
<pdfrwt beam="2">  1        2 0.38133262E+00 0.64766117E+03</pdfrwt>
<totfact> 0.46746367E+00</totfact>
</mgrwt>
</event>
<event>
 5    1  0.2368666E-004  0.6602998E+03  0.7818608E-02  0.9787642E-01
         13   -1    0    0    0    0  0.00000000000E+00  0.00000000000E+00  0.10000000000E+04  0.10000000000E+04  0.00000000000E+00 0. -1.
          2   -1    0    0  501    0 -0.00000000000E+00 -0.00000000000E+00 -0.10899894648E+03  0.10899894648E+03  0.00000000000E+00 0. -1.
    9000006    2    1    2  501    0  0.00000000000E+00  0.00000000000E+00  0.89100105352E+03  0.11089989465E+04  0.66029976975E+03 0.  0.
         13    1    3    3    0    0  0.44787164015E+02  0.24123157740E+03  0.81652418289E+03  0.85259035019E+03  0.00000000000E+00 0. -1.
          4    1    3    3  501    0 -0.44787164015E+02 -0.24123157740E+03  0.74476870626E+02  0.25640859629E+03  0.00000000000E+00 0. -1.
<mgrwt>
<rscale>  0 0.66029977E+03</rscale>
<asrwt>0</asrwt>
<pdfrwt beam="1">0</pdfrwt>
<pdfrwt beam="2">  1        2 0.39636064E+00 0.66029977E+03</pdfrwt>
<totfact> 0.41064994E+00</totfact>
</mgrwt>
</event>
<event>
 5    1  0.2368666E-004  0.6428260E+03  0.7818608E-02  0.9820334E-01
         13   -1    0    0    0    0  0.00000000000E+00  0.00000000000E+00  0.10000000000E+04  0.10000000000E+04  0.00000000000E+00 0. -1.
          2   -1    0    0  501    0 -0.00000000000E+00 -0.00000000000E+00 -0.10330633102E+03  0.10330633102E+03  0.00000000000E+00 0. -1.
    9000006    2    1    2  501    0  0.00000000000E+00  0.00000000000E+00  0.89669366898E+03  0.11033063310E+04  0.64282604497E+03 0.  0.
         13    1    3    3    0    0  0.10526291318E+03 -0.30227438829E+03  0.49856970100E+03  0.59247095580E+03  0.00000000000E+00 0. -1.
          4    1    3    3  501    0 -0.10526291318E+03  0.30227438829E+03  0.39812396797E+03  0.51083537523E+03  0.00000000000E+00 0. -1.
<mgrwt>
<rscale>  0 0.64282604E+03</rscale>
<asrwt>0</asrwt>
<pdfrwt beam="1">0</pdfrwt>
<pdfrwt beam="2">  1        2 0.37566018E+00 0.64282604E+03</pdfrwt>
<totfact> 0.49069915E+00</totfact>
</mgrwt>
</event>
<event>
 5    1  0.2368666E-004  0.6432604E+03  0.7818608E-02  0.9819508E-01
         13   -1    0    0    0    0  0.00000000000E+00  0.00000000000E+00  0.10000000000E+04  0.10000000000E+04  0.00000000000E+00 0. -1.
          2   -1    0    0  501    0 -0.00000000000E+00 -0.00000000000E+00 -0.10344597686E+03  0.10344597686E+03  0.00000000000E+00 0. -1.
    9000006    2    1    2  501    0  0.00000000000E+00  0.00000000000E+00  0.89655402314E+03  0.11034459769E+04  0.64326037298E+03 0.  0.
         13    1    3    3    0    0 -0.18579052143E+03  0.25311792551E+03  0.56785342919E+03  0.64887927930E+03  0.00000000000E+00 0. -1.
          4    1    3    3  501    0  0.18579052143E+03 -0.25311792551E+03  0.32870059395E+03  0.45456669756E+03  0.00000000000E+00 0. -1.
<mgrwt>
<rscale>  0 0.64326037E+03</rscale>
<asrwt>0</asrwt>
<pdfrwt beam="1">0</pdfrwt>
<pdfrwt beam="2">  1        2 0.37616798E+00 0.64326037E+03</pdfrwt>
<totfact> 0.48857698E+00</totfact>
</mgrwt>
</event>
<event>
 5    1  0.2368666E-004  0.6504062E+03  0.7818608E-02  0.9806017E-01
         13   -1    0    0    0    0  0.00000000000E+00  0.00000000000E+00  0.10000000000E+04  0.10000000000E+04  0.00000000000E+00 0. -1.
          2   -1    0    0  501    0 -0.00000000000E+00 -0.00000000000E+00 -0.10575705439E+03  0.10575705439E+03  0.00000000000E+00 0. -1.
    9000006    2    1    2  501    0  0.00000000000E+00  0.00000000000E+00  0.89424294561E+03  0.11057570544E+04  0.65040619429E+03 0.  0.
         13    1    3    3    0    0 -0.68267717161E+02  0.25081797051E+03  0.11489643524E+03  0.28420296685E+03  0.00000000000E+00 0. -1.
          4    1    3    3  501    0  0.68267717161E+02 -0.25081797051E+03  0.77934651037E+03  0.82155408754E+03  0.00000000000E+00 0. -1.
<mgrwt>
<rscale>  0 0.65040619E+03</rscale>
<asrwt>0</asrwt>
<pdfrwt beam="1">0</pdfrwt>
<pdfrwt beam="2">  1        2 0.38457192E+00 0.65040619E+03</pdfrwt>
<totfact> 0.45464832E+00</totfact>
</mgrwt>
</event>
