<event>
 6    1  0.9486132E-003  0.6527795E+03  0.7818608E-02  0.9801578E-01
          1   -1    0    0  502    0  0.00000000000E+00  0.00000000000E+00  0.10867986433E+03  0.10867986433E+03  0.00000000000E+00 0.  1.
         13   -1    0    0    0    0 -0.00000000000E+00 -0.00000000000E+00 -0.10000000000E+04  0.10000000000E+04  0.00000000000E+00 0.  1.
    9000005    2    1    2  501    0  0.42963600827E+01  0.25103881536E+01 -0.87534566924E+03  0.10919483272E+04  0.65276055928E+03 0.  0.
         13    1    3    3    0    0  0.97644934702E+02  0.29888184035E+03 -0.59720144183E+03  0.67491810606E+03  0.00000000000E+00 0.  1.
          1    1    3    3  501    0 -0.93348574619E+02 -0.29637145220E+03 -0.27814422741E+03  0.41703022109E+03  0.00000000000E+00 0.  1.
         21    1    1    2  502  501 -0.42963600827E+01 -0.25103881536E+01 -0.15974466430E+02  0.16731537179E+02  0.00000000000E+00 0. -1.
<mgrwt>
<rscale>  1 0.65277953E+03</rscale>
<asrwt>0</asrwt>
<pdfrwt beam="1">  1        1 0.39520034E+00 0.65277953E+03</pdfrwt>
<pdfrwt beam="2">0</pdfrwt>
<totfact> 0.14046025E+00</totfact>
</mgrwt>
</event>
<event>
 6    1  0.9486132E-003  0.6195859E+03  0.7818608E-02  0.9865585E-01
          1   -1    0    0  502    0  0.00000000000E+00  0.00000000000E+00  0.96016885035E+02  0.96016885035E+02  0.00000000000E+00 0.  1.
         13   -1    0    0    0    0 -0.00000000000E+00 -0.00000000000E+00 -0.10000000000E+04  0.10000000000E+04  0.00000000000E+00 0.  1.
    9000005    2    1    2  501    0 -0.70515220622E-02 -0.10361257076E-02 -0.90402803185E+03  0.10959714062E+04  0.61958586233E+03 0.  0.
         13    1    3    3    0    0 -0.27833507963E+03 -0.13595661124E+03 -0.45975910896E+03  0.55437627562E+03  0.00000000000E+00 0.  1.
          3    1    3    3  501    0  0.27832802810E+03  0.13595557512E+03 -0.44426892289E+03  0.54159513059E+03  0.00000000000E+00 0.  1.
         21    1    1    2  502  501  0.70515220621E-02  0.10361257076E-02  0.44916885060E-01  0.45478831157E-01  0.00000000000E+00 0. -1.
<mgrwt>
<rscale>  1 0.61958586E+03</rscale>
<asrwt>0</asrwt>
<pdfrwt beam="1">  1        1 0.34915305E+00 0.61958586E+03</pdfrwt>
<pdfrwt beam="2">0</pdfrwt>
<totfact> 0.22526022E+00</totfact>
</mgrwt>
</event>
<event>
 6    1  0.9486132E-003  0.6441941E+03  0.7818608E-02  0.9817735E-01
          1   -1    0    0  502    0  0.00000000000E+00  0.00000000000E+00  0.10374653346E+03  0.10374653346E+03  0.00000000000E+00 0.  1.
         13   -1    0    0    0    0 -0.00000000000E+00 -0.00000000000E+00 -0.10000000000E+04  0.10000000000E+04  0.00000000000E+00 0.  1.
    9000005    2    1    2  501    0  0.19008247833E-04  0.34663220845E-05 -0.89625349764E+03  0.11037464968E+04  0.64419406800E+03 0.  0.
         13    1    3    3    0    0 -0.10473033201E+03  0.25909065173E+03 -0.17371856026E+03  0.32905097848E+03  0.00000000000E+00 0.  1.
          3    1    3    3  501    0  0.10473035102E+03 -0.25909064826E+03 -0.72253493738E+03  0.77469551837E+03  0.00000000000E+00 0.  1.
         21    1    1    2  502  501 -0.19008247828E-04 -0.34663220837E-05  0.31103355665E-04  0.36616220558E-04  0.00000000000E+00 0. -1.
<mgrwt>
<rscale>  1 0.64419407E+03</rscale>
<asrwt>0</asrwt>
<pdfrwt beam="1">  1        1 0.37726092E+00 0.64419407E+03</pdfrwt>
<pdfrwt beam="2">0</pdfrwt>
<totfact> 0.16890480E+00</totfact>
</mgrwt>
</event>
<event>
 6    1  0.9486132E-003  0.6457792E+03  0.7818608E-02  0.9814732E-01
          1   -1    0    0  502    0  0.00000000000E+00  0.00000000000E+00  0.10712792127E+03  0.10712792127E+03  0.00000000000E+00 0.  1.
         13   -1    0    0    0    0 -0.00000000000E+00 -0.00000000000E+00 -0.10000000000E+04  0.10000000000E+04  0.00000000000E+00 0.  1.
    9000005    2    1    2  501    0  0.73898402769E+00  0.12010914653E+00 -0.89568829785E+03  0.11042138839E+04  0.64577876553E+03 0.  0.
         13    1    3    3    0    0 -0.31819476540E+03 -0.25987641864E+02 -0.52561473087E+03  0.61497488694E+03  0.00000000000E+00 0.  1.
          3    1    3    3  501    0  0.31893374943E+03  0.26107751011E+02 -0.37007356698E+03  0.48923899698E+03  0.00000000000E+00 0.  1.
         21    1    1    2  502  501 -0.73898402769E+00 -0.12010914653E+00  0.28162191165E+01  0.29140373561E+01  0.00000000000E+00 0. -1.
<mgrwt>
<rscale>  1 0.64577920E+03</rscale>
<asrwt>0</asrwt>
<pdfrwt beam="1">  1        1 0.38955690E+00 0.64577920E+03</pdfrwt>
<pdfrwt beam="2">0</pdfrwt>
<totfact> 0.14899674E+00</totfact>
</mgrwt>
</event>
<event>
 6    1  0.9486132E-003  0.4884053E+03  0.7818608E-02  0.1016850E+00
          3   -1    0    0  502    0  0.00000000000E+00  0.00000000000E+00  0.59635036067E+02  0.59635036067E+02  0.00000000000E+00 0.  1.
         13   -1    0    0    0    0 -0.00000000000E+00 -0.00000000000E+00 -0.10000000000E+04  0.10000000000E+04  0.00000000000E+00 0.  1.
    9000005    2    1    2  501    0  0.29389125018E-05 -0.29785956244E-04 -0.94036506227E+03  0.10596349333E+04  0.48840530452E+03 0.  0.
         13    1    3    3    0    0 -0.20476900958E+03  0.11025351267E+03 -0.30857060595E+03  0.38639617389E+03  0.00000000000E+00 0.  1.
          1    1    3    3  501    0  0.20476901252E+03 -0.11025354245E+03 -0.63179445631E+03  0.67323875939E+03  0.00000000000E+00 0.  1.
         21    1    1    2  502  501 -0.29389124771E-05  0.29785956251E-04  0.98334949888E-04  0.10278911793E-03  0.00000000000E+00 0.  1.
<mgrwt>
<rscale>  1 0.48840530E+03</rscale>
<asrwt>0</asrwt>
<pdfrwt beam="1">  1        3 0.21685513E+00 0.48840530E+03</pdfrwt>
<pdfrwt beam="2">0</pdfrwt>
<totfact> 0.60514561E-01</totfact>
</mgrwt>
</event>
<event>
 6    1  0.9486132E-003  0.6379197E+03  0.7818608E-02  0.9829715E-01
          1   -1    0    0  502    0  0.00000000000E+00  0.00000000000E+00  0.10404613950E+03  0.10404613950E+03  0.00000000000E+00 0.  1.
         13   -1    0    0    0    0 -0.00000000000E+00 -0.00000000000E+00 -0.10000000000E+04  0.10000000000E+04  0.00000000000E+00 0.  1.
    9000005    2    1    2  501    0  0.57929158648E-01 -0.78072493928E-01 -0.89826349359E+03  0.11017344613E+04  0.63791967350E+03 0.  0.
         13    1    3    3    0    0  0.29853420859E+03 -0.82562987577E+02 -0.58093843858E+03  0.65835308918E+03  0.00000000000E+00 0.  1.
          1    1    3    3  501    0 -0.29847627943E+03  0.82484915083E+02 -0.31732505501E+03  0.44338137212E+03  0.00000000000E+00 0.  1.
         21    1    1    2  502  501 -0.57929158648E-01  0.78072493928E-01  0.23096330926E+01  0.23116782051E+01  0.00000000000E+00 0.  1.
<mgrwt>
<rscale>  1 0.63791968E+03</rscale>
<asrwt>0</asrwt>
<pdfrwt beam="1">  1        1 0.37835040E+00 0.63791968E+03</pdfrwt>
<pdfrwt beam="2">0</pdfrwt>
<totfact> 0.16724104E+00</totfact>
</mgrwt>
</event>
<event>
 6    1  0.9486132E-003  0.6593641E+03  0.7818608E-02  0.9789365E-01
          1   -1    0    0  502    0  0.00000000000E+00  0.00000000000E+00  0.10895666643E+03  0.10895666643E+03  0.00000000000E+00 0.  1.
         13   -1    0    0    0    0 -0.00000000000E+00 -0.00000000000E+00 -0.10000000000E+04  0.10000000000E+04  0.00000000000E+00 0.  1.
    9000005    2    1    2  501    0  0.68297197186E-02  0.47784377260E-02 -0.89130967796E+03  0.11086901916E+04  0.65936408678E+03 0.  0.
         13    1    3    3    0    0  0.68180509281E+02 -0.17026381314E+03  0.14989176296E+02  0.18401908411E+03  0.00000000000E+00 0.  1.
          3    1    3    3  501    0 -0.68173679561E+02  0.17026859158E+03 -0.90629885426E+03  0.92467110753E+03  0.00000000000E+00 0.  1.
         21    1    1    2  502  501 -0.68297197186E-02 -0.47784377260E-02  0.26634439065E+00  0.26647478862E+00  0.00000000000E+00 0.  1.
<mgrwt>
<rscale>  1 0.65936409E+03</rscale>
<asrwt>0</asrwt>
<pdfrwt beam="1">  1        1 0.39620690E+00 0.65936409E+03</pdfrwt>
<pdfrwt beam="2">0</pdfrwt>
<totfact> 0.13884844E+00</totfact>
</mgrwt>
</event>
<event>
 6    1  0.9486132E-003  0.5658924E+03  0.7818608E-02  0.9978810E-01
          1   -1    0    0  502    0  0.00000000000E+00  0.00000000000E+00  0.80106808897E+02  0.80106808897E+02  0.00000000000E+00 0.  1.
         13   -1    0    0    0    0 -0.00000000000E+00 -0.00000000000E+00 -0.10000000000E+04  0.10000000000E+04  0.00000000000E+00 0.  1.
    9000005    2    1    2  501    0  0.74117915567E-01 -0.56344930698E-02 -0.91990889758E+03  0.10800308358E+04  0.56589241114E+03 0.  0.
         13    1    3    3    0    0  0.18386130406E+03 -0.12845381579E+03 -0.13070927544E+03  0.25959637249E+03  0.00000000000E+00 0.  1.
          3    1    3    3  501    0 -0.18378718615E+03  0.12844818130E+03 -0.78919962214E+03  0.82043446335E+03  0.00000000000E+00 0.  1.
         21    1    1    2  502  501 -0.74117915567E-01  0.56344930698E-02  0.15706471878E-01  0.75973062193E-01  0.00000000000E+00 0. -1.
<mgrwt>
<rscale>  1 0.56589242E+03</rscale>
<asrwt>0</asrwt>
<pdfrwt beam="1">  1        1 0.29129810E+00 0.56589242E+03</pdfrwt>
<pdfrwt beam="2">0</pdfrwt>
<totfact> 0.40472438E+00</totfact>
</mgrwt>
</event>
<event>
 6    1  0.9486132E-003  0.6521382E+03  0.7818608E-02  0.9802775E-01
          1   -1    0    0  502    0  0.00000000000E+00  0.00000000000E+00  0.10632255582E+03  0.10632255582E+03  0.00000000000E+00 0.  1.
         13   -1    0    0    0    0 -0.00000000000E+00 -0.00000000000E+00 -0.10000000000E+04  0.10000000000E+04  0.00000000000E+00 0.  1.
    9000005    2    1    2  501    0 -0.10205139685E-02 -0.61610144630E-03 -0.89367867504E+03  0.11063208423E+04  0.65213820004E+03 0.  0.
         13    1    3    3    0    0 -0.31517736557E+03  0.82849082175E+02 -0.42821085970E+03  0.53811270432E+03  0.00000000000E+00 0.  1.
          1    1    3    3  501    0  0.31517634506E+03 -0.82849698277E+02 -0.46546781534E+03  0.56820813801E+03  0.00000000000E+00 0.  1.
         21    1    1    2  502  501  0.10205139685E-02  0.61610144630E-03  0.12308568406E-02  0.17134871795E-02  0.00000000000E+00 0.  1.
<mgrwt>
<rscale>  1 0.65213820E+03</rscale>
<asrwt>0</asrwt>
<pdfrwt beam="1">  1        1 0.38662829E+00 0.65213820E+03</pdfrwt>
<pdfrwt beam="2">0</pdfrwt>
<totfact> 0.15333290E+00</totfact>
</mgrwt>
</event>
<event>
 6    1  0.9486132E-003  0.6442877E+03  0.7818608E-02  0.9817557E-01
          1   -1    0    0  502    0  0.00000000000E+00  0.00000000000E+00  0.12031526141E+03  0.12031526141E+03  0.00000000000E+00 0.  1.
         13   -1    0    0    0    0 -0.00000000000E+00 -0.00000000000E+00 -0.10000000000E+04  0.10000000000E+04  0.00000000000E+00 0.  1.
    9000005    2    1    2  501    0 -0.31671047038E+01 -0.83048062320E+00 -0.89604429292E+03  0.11036312790E+04  0.64427936870E+03 0.  0.
         13    1    3    3    0    0  0.23191360412E+03 -0.21663173975E+03 -0.53253336077E+03  0.61992339105E+03  0.00000000000E+00 0.  1.
          1    1    3    3  501    0 -0.23508070882E+03  0.21580125913E+03 -0.36351093215E+03  0.48370788798E+03  0.00000000000E+00 0.  1.
         21    1    1    2  502  501  0.31671047038E+01  0.83048062320E+00  0.16359554324E+02  0.16683982377E+02  0.00000000000E+00 0. -1.
<mgrwt>
<rscale>  1 0.64428769E+03</rscale>
<asrwt>0</asrwt>
<pdfrwt beam="1">  1        1 0.43751096E+00 0.64428769E+03</pdfrwt>
<pdfrwt beam="2">0</pdfrwt>
<totfact> 0.90747650E-01</totfact>
</mgrwt>
</event>
<event>
 6    1  0.9486132E-003  0.6529648E+03  0.7818608E-02  0.9801232E-01
          1   -1    0    0  502    0  0.00000000000E+00  0.00000000000E+00  0.10687447493E+03  0.10687447493E+03  0.00000000000E+00 0.  1.
         13   -1    0    0    0    0 -0.00000000000E+00 -0.00000000000E+00 -0.10000000000E+04  0.10000000000E+04  0.00000000000E+00 0.  1.
    9000005    2    1    2  501    0  0.84207568690E-03  0.49350748191E-02 -0.89340920428E+03  0.11065907515E+04  0.65296484215E+03 0.  0.
         13    1    3    3    0    0 -0.15474874961E+03 -0.28717362386E+03 -0.42438778382E+03  0.53527643027E+03  0.00000000000E+00 0.  1.
          1    1    3    3  501    0  0.15474959169E+03  0.28717855893E+03 -0.46902142047E+03  0.57131432128E+03  0.00000000000E+00 0.  1.
         21    1    1    2  502  501 -0.84207568691E-03 -0.49350748191E-02  0.28367921012E+00  0.28372338344E+00  0.00000000000E+00 0. -1.
<mgrwt>
<rscale>  1 0.65296484E+03</rscale>
<asrwt>0</asrwt>
<pdfrwt beam="1">  1        1 0.38863527E+00 0.65296484E+03</pdfrwt>
<pdfrwt beam="2">0</pdfrwt>
<totfact> 0.15020332E+00</totfact>
</mgrwt>
</event>
<event>
 6    1  0.9486132E-003  0.6534354E+03  0.7818608E-02  0.9800354E-01
          1   -1    0    0  502    0  0.00000000000E+00  0.00000000000E+00  0.10674460730E+03  0.10674460730E+03  0.00000000000E+00 0.  1.
         13   -1    0    0    0    0 -0.00000000000E+00 -0.00000000000E+00 -0.10000000000E+04  0.10000000000E+04  0.00000000000E+00 0.  1.
    9000005    2    1    2  501    0 -0.14097372230E-05 -0.42168111690E-04 -0.89325554544E+03  0.11067444488E+04  0.65343538745E+03 0.  0.
         13    1    3    3    0    0 -0.18701041447E+03 -0.20388384013E+03 -0.15227419452E+03  0.31579890073E+03  0.00000000000E+00 0.  1.
          3    1    3    3  501    0  0.18701041306E+03  0.20388379796E+03 -0.74098135092E+03  0.79094554811E+03  0.00000000000E+00 0.  1.
         21    1    1    2  502  501  0.14097372245E-05  0.42168111704E-04  0.15274358533E-03  0.15846368626E-03  0.00000000000E+00 0.  1.
<mgrwt>
<rscale>  1 0.65343539E+03</rscale>
<asrwt>0</asrwt>
<pdfrwt beam="1">  1        1 0.38816303E+00 0.65343539E+03</pdfrwt>
<pdfrwt beam="2">0</pdfrwt>
<totfact> 0.15091563E+00</totfact>
</mgrwt>
</event>
<event>
 6    1  0.9486132E-003  0.6460994E+03  0.7818608E-02  0.9814126E-01
          1   -1    0    0  502    0  0.00000000000E+00  0.00000000000E+00  0.10437110141E+03  0.10437110141E+03  0.00000000000E+00 0.  1.
         13   -1    0    0    0    0 -0.00000000000E+00 -0.00000000000E+00 -0.10000000000E+04  0.10000000000E+04  0.00000000000E+00 0.  1.
    9000005    2    1    2  501    0 -0.30689164229E-02  0.29874856784E-02 -0.89563836906E+03  0.11043607075E+04  0.64609943827E+03 0.  0.
         13    1    3    3    0    0 -0.24956480663E+03 -0.17449373409E+03 -0.26348178604E+03  0.40268263871E+03  0.00000000000E+00 0.  1.
          1    1    3    3  501    0  0.24956173772E+03  0.17449672157E+03 -0.63215658302E+03  0.70167806880E+03  0.00000000000E+00 0.  1.
         21    1    1    2  502  501  0.30689164229E-02 -0.29874856784E-02  0.94704732384E-02  0.10393901195E-01  0.00000000000E+00 0. -1.
<mgrwt>
<rscale>  1 0.64609944E+03</rscale>
<asrwt>0</asrwt>
<pdfrwt beam="1">  1        1 0.37953208E+00 0.64609944E+03</pdfrwt>
<pdfrwt beam="2">0</pdfrwt>
<totfact> 0.16499735E+00</totfact>
</mgrwt>
</event>
<event>
 6    1  0.9486132E-003  0.6528505E+03  0.7818608E-02  0.9801445E-01
          1   -1    0    0  502    0  0.00000000000E+00  0.00000000000E+00  0.10657177642E+03  0.10657177642E+03  0.00000000000E+00 0.  1.
         13   -1    0    0    0    0 -0.00000000000E+00 -0.00000000000E+00 -0.10000000000E+04  0.10000000000E+04  0.00000000000E+00 0.  1.
    9000005    2    1    2  501    0  0.21184323111E-03 -0.48514612235E-03 -0.89344655348E+03  0.11065534389E+04  0.65285049527E+03 0.  0.
         13    1    3    3    0    0  0.27495212359E+03  0.51516704615E+01 -0.74480597264E+03  0.79395286186E+03  0.00000000000E+00 0.  1.
          1    1    3    3  501    0 -0.27495191175E+03 -0.51521556076E+01 -0.14864058084E+03  0.31260057702E+03  0.00000000000E+00 0.  1.
         21    1    1    2  502  501 -0.21184323116E-03  0.48514612235E-03  0.18329895578E-01  0.18337538445E-01  0.00000000000E+00 0. -1.
<mgrwt>
<rscale>  1 0.65285050E+03</rscale>
<asrwt>0</asrwt>
<pdfrwt beam="1">  1        1 0.38753455E+00 0.65285050E+03</pdfrwt>
<pdfrwt beam="2">0</pdfrwt>
<totfact> 0.15190261E+00</totfact>
</mgrwt>
</event>
<event>
 6    1  0.9486132E-003  0.6518723E+03  0.7818608E-02  0.9803272E-01
          1   -1    0    0  502    0  0.00000000000E+00  0.00000000000E+00  0.10624528186E+03  0.10624528186E+03  0.00000000000E+00 0.  1.
         13   -1    0    0    0    0 -0.00000000000E+00 -0.00000000000E+00 -0.10000000000E+04  0.10000000000E+04  0.00000000000E+00 0.  1.
    9000005    2    1    2  501    0  0.77498799047E-03 -0.19768397306E-03 -0.89376562222E+03  0.11062343485E+04  0.65187226227E+03 0.  0.
         13    1    3    3    0    0 -0.91210700828E+02  0.10119872241E+03  0.55597979317E+02  0.14714519587E+03  0.00000000000E+00 0.  1.
          3    1    3    3  501    0  0.91211475815E+02 -0.10119892010E+03 -0.94936360154E+03  0.95908915262E+03  0.00000000000E+00 0.  1.
         21    1    1    2  502  501 -0.77498799047E-03  0.19768397305E-03  0.10904081617E-01  0.10933374651E-01  0.00000000000E+00 0.  1.
<mgrwt>
<rscale>  1 0.65187226E+03</rscale>
<asrwt>0</asrwt>
<pdfrwt beam="1">  1        1 0.38634729E+00 0.65187226E+03</pdfrwt>
<pdfrwt beam="2">0</pdfrwt>
<totfact> 0.15378025E+00</totfact>
</mgrwt>
</event>
<event>
 6    1  0.9486132E-003  0.6747055E+03  0.7818608E-02  0.9761494E-01
          1   -1    0    0  502    0  0.00000000000E+00  0.00000000000E+00  0.11380920448E+03  0.11380920448E+03  0.00000000000E+00 0.  1.
         13   -1    0    0    0    0 -0.00000000000E+00 -0.00000000000E+00 -0.10000000000E+04  0.10000000000E+04  0.00000000000E+00 0.  1.
    9000005    2    1    2  501    0 -0.12852229212E-04 -0.39931619597E-04 -0.88619310592E+03  0.11138068937E+04  0.67470554723E+03 0.  0.
         13    1    3    3    0    0 -0.60348361310E+02  0.30599348704E+03 -0.23083528293E+03  0.38801915760E+03  0.00000000000E+00 0.  1.
          1    1    3    3  501    0  0.60348348458E+02 -0.30599352697E+03 -0.65535782299E+03  0.72578773609E+03  0.00000000000E+00 0.  1.
         21    1    1    2  502  501  0.12852229214E-04  0.39931619633E-04  0.23104036141E-02  0.23107844066E-02  0.00000000000E+00 0.  1.
<mgrwt>
<rscale>  1 0.67470555E+03</rscale>
<asrwt>0</asrwt>
<pdfrwt beam="1">  1        1 0.41385253E+00 0.67470555E+03</pdfrwt>
<pdfrwt beam="2">0</pdfrwt>
<totfact> 0.11544251E+00</totfact>
</mgrwt>
</event>
<event>
 6    1  0.9486132E-003  0.6521180E+03  0.7818608E-02  0.9802813E-01
          1   -1    0    0  502    0  0.00000000000E+00  0.00000000000E+00  0.12734609185E+03  0.12734609185E+03  0.00000000000E+00 0.  1.
         13   -1    0    0    0    0 -0.00000000000E+00 -0.00000000000E+00 -0.10000000000E+04  0.10000000000E+04  0.00000000000E+00 0.  1.
    9000005    2    1    2  501    0 -0.37893939087E+01  0.25049982840E+01 -0.89341382885E+03  0.11060950018E+04  0.65210217665E+03 0.  0.
         13    1    3    3    0    0  0.22206730893E+03 -0.18781208794E+02 -0.44328105733E+02  0.22722588861E+03  0.00000000000E+00 0.  1.
          3    1    3    3  501    0 -0.22585670283E+03  0.21286207078E+02 -0.84908572312E+03  0.87886911314E+03  0.00000000000E+00 0.  1.
         21    1    1    2  502  501  0.37893939087E+01 -0.25049982840E+01  0.20759920704E+02  0.21251090095E+02  0.00000000000E+00 0.  1.
<mgrwt>
<rscale>  1 0.65211800E+03</rscale>
<asrwt>0</asrwt>
<pdfrwt beam="1">  1        1 0.46307767E+00 0.65211800E+03</pdfrwt>
<pdfrwt beam="2">0</pdfrwt>
<totfact> 0.69080778E-01</totfact>
</mgrwt>
</event>
<event>
 6    1  0.9486132E-003  0.6332806E+03  0.7818608E-02  0.9838668E-01
          1   -1    0    0  502    0  0.00000000000E+00  0.00000000000E+00  0.10026108220E+03  0.10026108220E+03  0.00000000000E+00 0.  1.
         13   -1    0    0    0    0 -0.00000000000E+00 -0.00000000000E+00 -0.10000000000E+04  0.10000000000E+04  0.00000000000E+00 0.  1.
    9000005    2    1    2  501    0  0.14169154014E-04  0.32376529248E-04 -0.89973889121E+03  0.11002610380E+04  0.63328056921E+03 0.  0.
         13    1    3    3    0    0  0.64635034706E+02 -0.11012634164E+03 -0.95328232121E+03  0.96179659116E+03  0.00000000000E+00 0.  1.
          3    1    3    3  501    0 -0.64635020537E+02  0.11012637402E+03  0.53543430006E+02  0.13846444681E+03  0.00000000000E+00 0.  1.
         21    1    1    2  502  501 -0.14169154015E-04 -0.32376529254E-04 -0.26589559963E-04  0.44226793588E-04  0.00000000000E+00 0. -1.
<mgrwt>
<rscale>  1 0.63328057E+03</rscale>
<asrwt>0</asrwt>
<pdfrwt beam="1">  1        1 0.36458652E+00 0.63328057E+03</pdfrwt>
<pdfrwt beam="2">0</pdfrwt>
<totfact> 0.19239530E+00</totfact>
</mgrwt>
</event>
<event>
 6    1  0.9486132E-003  0.6509550E+03  0.7818608E-02  0.9804989E-01
          1   -1    0    0  502    0  0.00000000000E+00  0.00000000000E+00  0.10595912276E+03  0.10595912276E+03  0.00000000000E+00 0.  1.
         13   -1    0    0    0    0 -0.00000000000E+00 -0.00000000000E+00 -0.10000000000E+04  0.10000000000E+04  0.00000000000E+00 0.  1.
    9000005    2    1    2  501    0 -0.31033167372E-02  0.14216776162E-02 -0.89406425087E+03  0.11059355012E+04  0.65095502772E+03 0.  0.
         13    1    3    3    0    0  0.15601656999E+03  0.15234489588E+03 -0.85754769074E+03  0.88483793957E+03  0.00000000000E+00 0.  1.
          3    1    3    3  501    0 -0.15601967331E+03 -0.15234347420E+03 -0.36516560129E+02  0.22109756162E+03  0.00000000000E+00 0.  1.
         21    1    1    2  502  501  0.31033167372E-02 -0.14216776162E-02  0.23373627359E-01  0.23621562140E-01  0.00000000000E+00 0. -1.
<mgrwt>
<rscale>  1 0.65095503E+03</rscale>
<asrwt>0</asrwt>
<pdfrwt beam="1">  1        1 0.38530671E+00 0.65095503E+03</pdfrwt>
<pdfrwt beam="2">0</pdfrwt>
<totfact> 0.15544576E+00</totfact>
</mgrwt>
</event>
<event>
 6    1  0.9486132E-003  0.6440124E+03  0.7818608E-02  0.9818080E-01
          1   -1    0    0  502    0  0.00000000000E+00  0.00000000000E+00  0.10921158462E+03  0.10921158462E+03  0.00000000000E+00 0.  1.
         13   -1    0    0    0    0 -0.00000000000E+00 -0.00000000000E+00 -0.10000000000E+04  0.10000000000E+04  0.00000000000E+00 0.  1.
    9000005    2    1    2  501    0  0.82870449759E+00 -0.19907352364E+01 -0.89607879777E+03  0.11034986236E+04  0.64400881257E+03 0.  0.
         13    1    3    3    0    0 -0.75699660710E+02  0.31162678517E+03 -0.46836863968E+03  0.56763621669E+03  0.00000000000E+00 0.  1.
          3    1    3    3  501    0  0.76528365207E+02 -0.31361752041E+03 -0.42771015809E+03  0.53586240690E+03  0.00000000000E+00 0.  1.
         21    1    1    2  502  501 -0.82870449759E+00  0.19907352364E+01  0.52903823940E+01  0.57129610362E+01  0.00000000000E+00 0.  1.
<mgrwt>
<rscale>  1 0.64401242E+03</rscale>
<asrwt>0</asrwt>
<pdfrwt beam="1">  1        1 0.39713387E+00 0.64401242E+03</pdfrwt>
<pdfrwt beam="2">0</pdfrwt>
<totfact> 0.13793490E+00</totfact>
</mgrwt>
</event>
<event>
 6    1  0.9486132E-003  0.6444008E+03  0.7818608E-02  0.9817343E-01
          1   -1    0    0  502    0  0.00000000000E+00  0.00000000000E+00  0.10682998891E+03  0.10682998891E+03  0.00000000000E+00 0.  1.
         13   -1    0    0    0    0 -0.00000000000E+00 -0.00000000000E+00 -0.10000000000E+04  0.10000000000E+04  0.00000000000E+00 0.  1.
    9000005    2    1    2  501    0 -0.76864314643E+00  0.85304740135E-01 -0.89613209217E+03  0.11037686145E+04  0.64440036434E+03 0.  0.
         13    1    3    3    0    0 -0.16928223602E+03  0.25741398430E+03 -0.28547810435E+03  0.42001926481E+03  0.00000000000E+00 0.  1.
          3    1    3    3  501    0  0.16851359287E+03 -0.25732867956E+03 -0.61065398782E+03  0.68374934965E+03  0.00000000000E+00 0.  1.
         21    1    1    2  502  501  0.76864314643E+00 -0.85304740135E-01  0.29620810792E+01  0.30613744470E+01  0.00000000000E+00 0. -1.
<mgrwt>
<rscale>  1 0.64440083E+03</rscale>
<asrwt>0</asrwt>
<pdfrwt beam="1">  1        1 0.38847351E+00 0.64440083E+03</pdfrwt>
<pdfrwt beam="2">0</pdfrwt>
<totfact> 0.15069178E+00</totfact>
</mgrwt>
</event>
<event>
 6    1  0.9486132E-003  0.5882863E+03  0.7818608E-02  0.9930011E-01
          1   -1    0    0  502    0  0.00000000000E+00  0.00000000000E+00  0.86931850690E+02  0.86931850690E+02  0.00000000000E+00 0.  1.
         13   -1    0    0    0    0 -0.00000000000E+00 -0.00000000000E+00 -0.10000000000E+04  0.10000000000E+04  0.00000000000E+00 0.  1.
    9000005    2    1    2  501    0 -0.21355834408E+00 -0.69318899040E-01 -0.91344631145E+03  0.10864920566E+04  0.58828630328E+03 0.  0.
         13    1    3    3    0    0  0.75377564912E+02  0.11600188022E+03 -0.93598631080E+03  0.94615463193E+03  0.00000000000E+00 0.  1.
          3    1    3    3  501    0 -0.75591123256E+02 -0.11607119912E+03  0.22539999350E+02  0.14033742462E+03  0.00000000000E+00 0.  1.
         21    1    1    2  502  501  0.21355834408E+00  0.69318899040E-01  0.37816214406E+00  0.43979413740E+00  0.00000000000E+00 0. -1.
<mgrwt>
<rscale>  1 0.58828635E+03</rscale>
<asrwt>0</asrwt>
<pdfrwt beam="1">  1        1 0.31611649E+00 0.58828635E+03</pdfrwt>
<pdfrwt beam="2">0</pdfrwt>
<totfact> 0.31502136E+00</totfact>
</mgrwt>
</event>
<event>
 6    1  0.9486132E-003  0.6458971E+03  0.7818608E-02  0.9814509E-01
          1   -1    0    0  502    0  0.00000000000E+00  0.00000000000E+00  0.10430018671E+03  0.10430018671E+03  0.00000000000E+00 0.  1.
         13   -1    0    0    0    0 -0.00000000000E+00 -0.00000000000E+00 -0.10000000000E+04  0.10000000000E+04  0.00000000000E+00 0.  1.
    9000005    2    1    2  501    0 -0.70639217711E-05  0.63750201711E-04 -0.89570422302E+03  0.11042957765E+04  0.64589713335E+03 0.  0.
         13    1    3    3    0    0 -0.31341762645E+03 -0.27776583148E+02 -0.32345828054E+03  0.45125093506E+03  0.00000000000E+00 0.  1.
          1    1    3    3  501    0  0.31341761939E+03  0.27776646899E+02 -0.57224594248E+03  0.65304484145E+03  0.00000000000E+00 0.  1.
         21    1    1    2  502  501  0.70639217632E-05 -0.63750201711E-04  0.44097386027E-02  0.44102050441E-02  0.00000000000E+00 0.  1.
<mgrwt>
<rscale>  1 0.64589713E+03</rscale>
<asrwt>0</asrwt>
<pdfrwt beam="1">  1        1 0.37927421E+00 0.64589713E+03</pdfrwt>
<pdfrwt beam="2">0</pdfrwt>
<totfact> 0.16543621E+00</totfact>
</mgrwt>
</event>
<event>
 6    1  0.9486132E-003  0.4816981E+03  0.7818608E-02  0.1018670E+00
          1   -1    0    0  502    0  0.00000000000E+00  0.00000000000E+00  0.58016549674E+02  0.58016549674E+02  0.00000000000E+00 0.  1.
         13   -1    0    0    0    0 -0.00000000000E+00 -0.00000000000E+00 -0.10000000000E+04  0.10000000000E+04  0.00000000000E+00 0.  1.
    9000005    2    1    2  501    0  0.13030105020E-03 -0.65268887681E-05 -0.94199173490E+03  0.10580082641E+04  0.48169809865E+03 0.  0.
         13    1    3    3    0    0 -0.62277663608E+02 -0.22209693886E+03 -0.62321063618E+03  0.66452769294E+03  0.00000000000E+00 0.  1.
          3    1    3    3  501    0  0.62277793909E+02  0.22209693233E+03 -0.31878109872E+03  0.39348057114E+03  0.00000000000E+00 0.  1.
         21    1    1    2  502  501 -0.13030105020E-03  0.65268887568E-05  0.82845693617E-02  0.82855965671E-02  0.00000000000E+00 0. -1.
<mgrwt>
<rscale>  1 0.48169810E+03</rscale>
<asrwt>0</asrwt>
<pdfrwt beam="1">  1        1 0.21096972E+00 0.48169810E+03</pdfrwt>
<pdfrwt beam="2">0</pdfrwt>
<totfact> 0.92015647E+00</totfact>
</mgrwt>
</event>
<event>
 6    1  0.9486132E-003  0.4833682E+03  0.7818608E-02  0.1018214E+00
          1   -1    0    0  502    0  0.00000000000E+00  0.00000000000E+00  0.58412782316E+02  0.58412782316E+02  0.00000000000E+00 0.  1.
         13   -1    0    0    0    0 -0.00000000000E+00 -0.00000000000E+00 -0.10000000000E+04  0.10000000000E+04  0.00000000000E+00 0.  1.
    9000005    2    1    2  501    0  0.53465102414E-03  0.25380951080E-04 -0.94158875712E+03  0.10584111525E+04  0.48336816214E+03 0.  0.
         13    1    3    3    0    0 -0.23156967102E+03 -0.38700473816E+02 -0.34522062198E+03  0.41749193651E+03  0.00000000000E+00 0.  1.
          1    1    3    3  501    0  0.23157020567E+03  0.38700499197E+02 -0.59636813514E+03  0.64091921597E+03  0.00000000000E+00 0.  1.
         21    1    1    2  502  501 -0.53465102414E-03 -0.25380951080E-04  0.15394351197E-02  0.16298332424E-02  0.00000000000E+00 0.  1.
<mgrwt>
<rscale>  1 0.48336816E+03</rscale>
<asrwt>0</asrwt>
<pdfrwt beam="1">  1        1 0.21241057E+00 0.48336816E+03</pdfrwt>
<pdfrwt beam="2">0</pdfrwt>
<totfact> 0.90636223E+00</totfact>
</mgrwt>
</event>
<event>
 6    1  0.9486132E-003  0.6554876E+03  0.7818608E-02  0.9796536E-01
          1   -1    0    0  502    0  0.00000000000E+00  0.00000000000E+00  0.10741776672E+03  0.10741776672E+03  0.00000000000E+00 0.  1.
         13   -1    0    0    0    0 -0.00000000000E+00 -0.00000000000E+00 -0.10000000000E+04  0.10000000000E+04  0.00000000000E+00 0.  1.
    9000005    2    1    2  501    0  0.80251381917E-04 -0.12655559044E-03 -0.89258400441E+03  0.11074159893E+04  0.65548758063E+03 0.  0.
         13    1    3    3    0    0 -0.98180223359E+02  0.27325833960E+03 -0.70310263710E+03  0.76069888571E+03  0.00000000000E+00 0.  1.
          1    1    3    3  501    0  0.98180303610E+02 -0.27325846616E+03 -0.18948136731E+03  0.34671710356E+03  0.00000000000E+00 0.  1.
         21    1    1    2  502  501 -0.80251381918E-04  0.12655559043E-03  0.17711231750E-02  0.17774515192E-02  0.00000000000E+00 0.  1.
<mgrwt>
<rscale>  1 0.65548758E+03</rscale>
<asrwt>0</asrwt>
<pdfrwt beam="1">  1        1 0.39061088E+00 0.65548758E+03</pdfrwt>
<pdfrwt beam="2">0</pdfrwt>
<totfact> 0.14713528E+00</totfact>
</mgrwt>
</event>
<event>
 6    1  0.9486132E-003  0.6545983E+03  0.7818608E-02  0.9798189E-01
          3   -1    0    0  502    0  0.00000000000E+00  0.00000000000E+00  0.11259004259E+03  0.11259004259E+03  0.00000000000E+00 0.  1.
         13   -1    0    0    0    0 -0.00000000000E+00 -0.00000000000E+00 -0.10000000000E+04  0.10000000000E+04  0.00000000000E+00 0.  1.
    9000005    2    1    2  501    0 -0.16951725212E+00 -0.87496111385E-01 -0.89287342381E+03  0.11071232467E+04  0.65459827080E+03 0.  0.
         13    1    3    3    0    0  0.29094415406E+03  0.55514123719E+02 -0.21111590348E+03  0.36373100420E+03  0.00000000000E+00 0.  1.
          3    1    3    3  501    0 -0.29111367131E+03 -0.55601619830E+02 -0.68175752033E+03  0.74339224255E+03  0.00000000000E+00 0.  1.
         21    1    1    2  502  501  0.16951725212E+00  0.87496111385E-01  0.54634664077E+01  0.54667958492E+01  0.00000000000E+00 0.  1.
<mgrwt>
<rscale>  1 0.65459830E+03</rscale>
<asrwt>0</asrwt>
<pdfrwt beam="1">  1        3 0.40941920E+00 0.65459830E+03</pdfrwt>
<pdfrwt beam="2">0</pdfrwt>
<totfact> 0.52849050E-02</totfact>
</mgrwt>
</event>
<event>
 6    1  0.9486132E-003  0.6722763E+03  0.7818608E-02  0.9765854E-01
          1   -1    0    0  502    0  0.00000000000E+00  0.00000000000E+00  0.11298901888E+03  0.11298901888E+03  0.00000000000E+00 0.  1.
         13   -1    0    0    0    0 -0.00000000000E+00 -0.00000000000E+00 -0.10000000000E+04  0.10000000000E+04  0.00000000000E+00 0.  1.
    9000005    2    1    2  501    0  0.14567606118E-03  0.22789415431E-03 -0.88701097431E+03  0.11129887483E+04  0.67227634596E+03 0.  0.
         13    1    3    3    0    0  0.24038642806E+03  0.21948632565E+03 -0.58230646834E+03  0.66711371221E+03  0.00000000000E+00 0.  1.
          3    1    3    3  501    0 -0.24038628238E+03 -0.21948609776E+03 -0.30470450598E+03  0.44587503612E+03  0.00000000000E+00 0.  1.
         21    1    1    2  502  501 -0.14567606119E-03 -0.22789415430E-03 -0.68016203290E-05  0.27056149469E-03  0.00000000000E+00 0. -1.
<mgrwt>
<rscale>  1 0.67227635E+03</rscale>
<asrwt>0</asrwt>
<pdfrwt beam="1">  1        1 0.41087003E+00 0.67227635E+03</pdfrwt>
<pdfrwt beam="2">0</pdfrwt>
<totfact> 0.11911438E+00</totfact>
</mgrwt>
</event>
<event>
 6    1  0.9486132E-003  0.6449403E+03  0.7818608E-02  0.9816320E-01
          1   -1    0    0  502    0  0.00000000000E+00  0.00000000000E+00  0.10438300461E+03  0.10438300461E+03  0.00000000000E+00 0.  1.
         13   -1    0    0    0    0 -0.00000000000E+00 -0.00000000000E+00 -0.10000000000E+04  0.10000000000E+04  0.00000000000E+00 0.  1.
    9000005    2    1    2  501    0  0.12250751194E-01  0.20392255444E-02 -0.89601287926E+03  0.11039869260E+04  0.64494034823E+03 0.  0.
         13    1    3    3    0    0 -0.27695304315E+03 -0.51934092942E+02 -0.17960963403E+03  0.33415529138E+03  0.00000000000E+00 0.  1.
          1    1    3    3  501    0  0.27696529391E+03  0.51936132167E+02 -0.71640324523E+03  0.76983163460E+03  0.00000000000E+00 0.  1.
         21    1    1    2  502  501 -0.12250751194E-01 -0.20392255444E-02  0.39588386967E+00  0.39607862554E+00  0.00000000000E+00 0. -1.
<mgrwt>
<rscale>  1 0.64494035E+03</rscale>
<asrwt>0</asrwt>
<pdfrwt beam="1">  1        1 0.37957536E+00 0.64494035E+03</pdfrwt>
<pdfrwt beam="2">0</pdfrwt>
<totfact> 0.16495997E+00</totfact>
</mgrwt>
</event>
<event>
 6    1  0.1048730E-002  0.4794234E+03  0.7818608E-02  0.1019294E+00
          1   -1    0    0  502    0  0.00000000000E+00  0.00000000000E+00  0.57461693702E+02  0.57461693702E+02  0.00000000000E+00 0.  1.
         13   -1    0    0    0    0 -0.00000000000E+00 -0.00000000000E+00 -0.10000000000E+04  0.10000000000E+04  0.00000000000E+00 0.  1.
    9000005    2    1    2  501    0  0.69043676518E-05  0.65703664518E-05 -0.94253830029E+03  0.10574616824E+04  0.47942336437E+03 0.  0.
         13    1    3    3    0    0 -0.11249686669E+03  0.20909102550E+03 -0.39854510577E+03  0.46391033972E+03  0.00000000000E+00 0.  1.
          1    1    3    3  501    0  0.11249687359E+03 -0.20909101893E+03 -0.54399319452E+03  0.59355134272E+03  0.00000000000E+00 0.  1.
         21    1    1    2  502  501 -0.69043676573E-05 -0.65703664417E-05 -0.60052949564E-05  0.11265148709E-04  0.00000000000E+00 0.  1.
<mgrwt>
<rscale>  1 0.47942336E+03</rscale>
<asrwt>0</asrwt>
<pdfrwt beam="1">  1        1 0.20895205E+00 0.47942336E+03</pdfrwt>
<pdfrwt beam="2">0</pdfrwt>
<totfact> 0.93985147E+00</totfact>
</mgrwt>
</event>
<event>
 6    1  0.9486132E-003  0.6455246E+03  0.7818608E-02  0.9815213E-01
          1   -1    0    0  502    0  0.00000000000E+00  0.00000000000E+00  0.10417549027E+03  0.10417549027E+03  0.00000000000E+00 0.  1.
         13   -1    0    0    0    0 -0.00000000000E+00 -0.00000000000E+00 -0.10000000000E+04  0.10000000000E+04  0.00000000000E+00 0.  1.
    9000005    2    1    2  501    0  0.38328607843E-06  0.69383997925E-06 -0.89582451061E+03  0.11041754891E+04  0.64552455949E+03 0.  0.
         13    1    3    3    0    0  0.27749482739E+03  0.14291522483E+03 -0.58841729813E+03  0.66608036861E+03  0.00000000000E+00 0.  1.
          1    1    3    3  501    0 -0.27749482700E+03 -0.14291522413E+03 -0.30740721248E+03  0.43809512048E+03  0.00000000000E+00 0.  1.
         21    1    1    2  502  501 -0.38328605508E-06 -0.69383999423E-06  0.87468001945E-06  0.11804182623E-05  0.00000000000E+00 0.  1.
<mgrwt>
<rscale>  1 0.64552456E+03</rscale>
<asrwt>0</asrwt>
<pdfrwt beam="1">  1        1 0.37882076E+00 0.64552456E+03</pdfrwt>
<pdfrwt beam="2">0</pdfrwt>
<totfact> 0.16621112E+00</totfact>
</mgrwt>
</event>
<event>
 6    1  0.9486132E-003  0.6569491E+03  0.7818608E-02  0.9793826E-01
          3   -1    0    0  502    0  0.00000000000E+00  0.00000000000E+00  0.10789555196E+03  0.10789555196E+03  0.00000000000E+00 0.  1.
         13   -1    0    0    0    0 -0.00000000000E+00 -0.00000000000E+00 -0.10000000000E+04  0.10000000000E+04  0.00000000000E+00 0.  1.
    9000005    2    1    2  501    0 -0.25142520457E-04  0.12963586130E-04 -0.89210443105E+03  0.11078955190E+04  0.65694913427E+03 0.  0.
         13    1    3    3    0    0 -0.19487066661E+03 -0.61280738001E+02 -0.87984600281E+03  0.90324907651E+03  0.00000000000E+00 0.  1.
          1    1    3    3  501    0  0.19487064146E+03  0.61280750965E+02 -0.12258428241E+02  0.20464644245E+03  0.00000000000E+00 0.  1.
         21    1    1    2  502  501  0.25142520475E-04 -0.12963586133E-04 -0.16997095313E-04  0.33001547696E-04  0.00000000000E+00 0. -1.
<mgrwt>
<rscale>  1 0.65694913E+03</rscale>
<asrwt>0</asrwt>
<pdfrwt beam="1">  1        3 0.39234829E+00 0.65694913E+03</pdfrwt>
<pdfrwt beam="2">0</pdfrwt>
<totfact> 0.64901109E-02</totfact>
</mgrwt>
</event>
<event>
 6    1  0.9486132E-003  0.6725172E+03  0.7818608E-02  0.9765421E-01
          1   -1    0    0  502    0  0.00000000000E+00  0.00000000000E+00  0.11323539825E+03  0.11323539825E+03  0.00000000000E+00 0.  1.
         13   -1    0    0    0    0 -0.00000000000E+00 -0.00000000000E+00 -0.10000000000E+04  0.10000000000E+04  0.00000000000E+00 0.  1.
    9000005    2    1    2  501    0 -0.87539882419E-02  0.24843859185E-02 -0.88693000824E+03  0.11130697416E+04  0.67251721923E+03 0.  0.
         13    1    3    3    0    0 -0.86992215711E+02  0.31408015119E+03 -0.30641174643E+03  0.44732778286E+03  0.00000000000E+00 0.  1.
          1    1    3    3  501    0  0.86983461723E+02 -0.31407766680E+03 -0.58051826181E+03  0.66574195878E+03  0.00000000000E+00 0.  1.
         21    1    1    2  502  501  0.87539882419E-02 -0.24843859185E-02  0.16540649063E+00  0.16565660755E+00  0.00000000000E+00 0. -1.
<mgrwt>
<rscale>  1 0.67251722E+03</rscale>
<asrwt>0</asrwt>
<pdfrwt beam="1">  1        1 0.41176595E+00 0.67251722E+03</pdfrwt>
<pdfrwt beam="2">0</pdfrwt>
<totfact> 0.11801090E+00</totfact>
</mgrwt>
</event>
<event>
 6    1  0.9486132E-003  0.6387419E+03  0.7818608E-02  0.9828136E-01
          1   -1    0    0  502    0  0.00000000000E+00  0.00000000000E+00  0.10201113936E+03  0.10201113936E+03  0.00000000000E+00 0.  1.
         13   -1    0    0    0    0 -0.00000000000E+00 -0.00000000000E+00 -0.10000000000E+04  0.10000000000E+04  0.00000000000E+00 0.  1.
    9000005    2    1    2  501    0 -0.17482226906E-02 -0.10911484632E-01 -0.89799961126E+03  0.11019957221E+04  0.63874194283E+03 0.  0.
         13    1    3    3    0    0  0.25164578928E+03  0.17774701949E+02 -0.78688354979E+03  0.82633362767E+03  0.00000000000E+00 0.  1.
          3    1    3    3  501    0 -0.25164753750E+03 -0.17785613434E+02 -0.11111606147E+03  0.27566209440E+03  0.00000000000E+00 0.  1.
         21    1    1    2  502  501  0.17482226906E-02  0.10911484632E-01  0.10750625724E-01  0.15417286820E-01  0.00000000000E+00 0. -1.
<mgrwt>
<rscale>  1 0.63874194E+03</rscale>
<asrwt>0</asrwt>
<pdfrwt beam="1">  1        1 0.37095038E+00 0.63874194E+03</pdfrwt>
<pdfrwt beam="2">0</pdfrwt>
<totfact> 0.18023592E+00</totfact>
</mgrwt>
</event>
<event>
 6    1  0.9486132E-003  0.6159493E+03  0.7818608E-02  0.9872858E-01
          1   -1    0    0  502    0  0.00000000000E+00  0.00000000000E+00  0.99074108569E+02  0.99074108569E+02  0.00000000000E+00 0.  1.
         13   -1    0    0    0    0 -0.00000000000E+00 -0.00000000000E+00 -0.10000000000E+04  0.10000000000E+04  0.00000000000E+00 0.  1.
    9000005    2    1    2  501    0  0.28507115034E-01 -0.81602603872E-01 -0.90515113043E+03  0.10948479855E+04  0.61594929577E+03 0.  0.
         13    1    3    3    0    0 -0.14132843203E+03  0.23637091324E+03 -0.69740282987E+03  0.74981040366E+03  0.00000000000E+00 0.  1.
          1    1    3    3  501    0  0.14135693915E+03 -0.23645251584E+03 -0.20774830055E+03  0.34503758183E+03  0.00000000000E+00 0.  1.
         21    1    1    2  502  501 -0.28507115034E-01  0.81602603872E-01  0.42252389970E+01  0.42261230723E+01  0.00000000000E+00 0. -1.
<mgrwt>
<rscale>  1 0.61594930E+03</rscale>
<asrwt>0</asrwt>
<pdfrwt beam="1">  1        1 0.36027025E+00 0.61594930E+03</pdfrwt>
<pdfrwt beam="2">0</pdfrwt>
<totfact> 0.20158558E+00</totfact>
</mgrwt>
</event>
<event>
 6    1  0.9486132E-003  0.6719502E+03  0.7818608E-02  0.9766441E-01
          1   -1    0    0  502    0  0.00000000000E+00  0.00000000000E+00  0.11310952765E+03  0.11310952765E+03  0.00000000000E+00 0.  1.
         13   -1    0    0    0    0 -0.00000000000E+00 -0.00000000000E+00 -0.10000000000E+04  0.10000000000E+04  0.00000000000E+00 0.  1.
    9000005    2    1    2  501    0  0.12724744917E-01  0.53806672797E-01 -0.88711704204E+03  0.11128763091E+04  0.67195016925E+03 0.  0.
         13    1    3    3    0    0 -0.11199928903E+03 -0.29936110081E+03 -0.61484809202E+03  0.69296398585E+03  0.00000000000E+00 0.  1.
          1    1    3    3  501    0  0.11201201378E+03  0.29941490748E+03 -0.27226895002E+03  0.41991232323E+03  0.00000000000E+00 0.  1.
         21    1    1    2  502  501 -0.12724744917E-01 -0.53806672797E-01  0.22656969915E+00  0.23321857933E+00  0.00000000000E+00 0. -1.
<mgrwt>
<rscale>  1 0.67195017E+03</rscale>
<asrwt>0</asrwt>
<pdfrwt beam="1">  1        1 0.41130824E+00 0.67195017E+03</pdfrwt>
<pdfrwt beam="2">0</pdfrwt>
<totfact> 0.11858338E+00</totfact>
</mgrwt>
</event>
<event>
 6    1  0.9486132E-003  0.6181094E+03  0.7818608E-02  0.9868531E-01
          1   -1    0    0  502    0  0.00000000000E+00  0.00000000000E+00  0.95514868165E+02  0.95514868165E+02  0.00000000000E+00 0.  1.
         13   -1    0    0    0    0 -0.00000000000E+00 -0.00000000000E+00 -0.10000000000E+04  0.10000000000E+04  0.00000000000E+00 0.  1.
    9000005    2    1    2  501    0 -0.11224692912E-04  0.47319552607E-04 -0.90448517939E+03  0.10955148001E+04  0.61810940585E+03 0.  0.
         13    1    3    3    0    0 -0.13938816395E+03 -0.21571611368E+03 -0.14755935292E+03  0.29620307997E+03  0.00000000000E+00 0.  1.
          3    1    3    3  501    0  0.13938815273E+03  0.21571616100E+03 -0.75692582647E+03  0.79931172017E+03  0.00000000000E+00 0.  1.
         21    1    1    2  502  501  0.11224692921E-04 -0.47319552603E-04  0.47554566739E-04  0.68018898899E-04  0.00000000000E+00 0.  1.
<mgrwt>
<rscale>  1 0.61810941E+03</rscale>
<asrwt>0</asrwt>
<pdfrwt beam="1">  1        1 0.34732753E+00 0.61810941E+03</pdfrwt>
<pdfrwt beam="2">0</pdfrwt>
<totfact> 0.22948199E+00</totfact>
</mgrwt>
</event>
<event>
 6    1  0.9486132E-003  0.6590016E+03  0.7818608E-02  0.9790033E-01
          3   -1    0    0  502    0  0.00000000000E+00  0.00000000000E+00  0.10866671997E+03  0.10866671997E+03  0.00000000000E+00 0.  1.
         13   -1    0    0    0    0 -0.00000000000E+00 -0.00000000000E+00 -0.10000000000E+04  0.10000000000E+04  0.00000000000E+00 0.  1.
    9000005    2    1    2  501    0  0.21726715429E-01 -0.14696336586E-01 -0.89142724014E+03  0.11085691672E+04  0.65900157316E+03 0.  0.
         13    1    3    3    0    0  0.19286748888E+03  0.23127822387E+03 -0.67067745867E+03  0.73518415290E+03  0.00000000000E+00 0.  1.
          1    1    3    3  501    0 -0.19284576217E+03 -0.23129292020E+03 -0.22074978146E+03  0.37338501434E+03  0.00000000000E+00 0.  1.
         21    1    1    2  502  501 -0.21726715429E-01  0.14696336586E-01  0.93960107174E-01  0.97552725296E-01  0.00000000000E+00 0. -1.
<mgrwt>
<rscale>  1 0.65900157E+03</rscale>
<asrwt>0</asrwt>
<pdfrwt beam="1">  1        3 0.39515254E+00 0.65900157E+03</pdfrwt>
<pdfrwt beam="2">0</pdfrwt>
<totfact> 0.62714563E-02</totfact>
</mgrwt>
</event>
<event>
 6    1  0.9486132E-003  0.6463133E+03  0.7818608E-02  0.9813722E-01
          1   -1    0    0  502    0  0.00000000000E+00  0.00000000000E+00  0.10444549626E+03  0.10444549626E+03  0.00000000000E+00 0.  1.
         13   -1    0    0    0    0 -0.00000000000E+00 -0.00000000000E+00 -0.10000000000E+04  0.10000000000E+04  0.00000000000E+00 0.  1.
    9000005    2    1    2  501    0 -0.16375677515E-01 -0.17932282057E-01 -0.89555831699E+03  0.11044209144E+04  0.64631328033E+03 0.  0.
         13    1    3    3    0    0  0.27681719293E+03 -0.15534196949E+03 -0.55128957215E+03  0.63614391308E+03  0.00000000000E+00 0.  1.
          3    1    3    3  501    0 -0.27683356861E+03  0.15532403721E+03 -0.34426874484E+03  0.46827700127E+03  0.00000000000E+00 0.  1.
         21    1    1    2  502  501  0.16375677515E-01  0.17932282057E-01  0.38132581886E-02  0.24581913917E-01  0.00000000000E+00 0. -1.
<mgrwt>
<rscale>  1 0.64631328E+03</rscale>
<asrwt>0</asrwt>
<pdfrwt beam="1">  1        1 0.37980261E+00 0.64631328E+03</pdfrwt>
<pdfrwt beam="2">0</pdfrwt>
<totfact> 0.16453809E+00</totfact>
</mgrwt>
</event>
<event>
 6    1  0.9486132E-003  0.6570818E+03  0.7818608E-02  0.9793581E-01
          1   -1    0    0  502    0  0.00000000000E+00  0.00000000000E+00  0.10806431267E+03  0.10806431267E+03  0.00000000000E+00 0.  1.
         13   -1    0    0    0    0 -0.00000000000E+00 -0.00000000000E+00 -0.10000000000E+04  0.10000000000E+04  0.00000000000E+00 0.  1.
    9000005    2    1    2  501    0 -0.43339571131E-01 -0.36082252546E+00 -0.89161145528E+03  0.11075772833E+04  0.65708166856E+03 0.  0.
         13    1    3    3    0    0 -0.23606303437E+03  0.15408133461E+03 -0.72990869520E+03  0.78245352399E+03  0.00000000000E+00 0.  1.
          1    1    3    3  501    0  0.23601969480E+03 -0.15444215713E+03 -0.16170276008E+03  0.32512375928E+03  0.00000000000E+00 0.  1.
         21    1    1    2  502  501  0.43339571131E-01  0.36082252546E+00 -0.32423204785E+00  0.48702939764E+00  0.00000000000E+00 0. -1.
<mgrwt>
<rscale>  1 0.65708177E+03</rscale>
<asrwt>0</asrwt>
<pdfrwt beam="1">  1        1 0.39296197E+00 0.65708177E+03</pdfrwt>
<pdfrwt beam="2">0</pdfrwt>
<totfact> 0.14359910E+00</totfact>
</mgrwt>
</event>
<event>
 6    1  0.9486132E-003  0.6508475E+03  0.7818608E-02  0.9805190E-01
          1   -1    0    0  502    0  0.00000000000E+00  0.00000000000E+00  0.10590072935E+03  0.10590072935E+03  0.00000000000E+00 0.  1.
         13   -1    0    0    0    0 -0.00000000000E+00 -0.00000000000E+00 -0.10000000000E+04  0.10000000000E+04  0.00000000000E+00 0.  1.
    9000005    2    1    2  501    0  0.75406504720E-05 -0.55217012118E-05 -0.89409939339E+03  0.11059006063E+04  0.65084746727E+03 0.  0.
         13    1    3    3    0    0  0.25426091347E+03 -0.10401636833E+03 -0.15063049015E+03  0.31330107175E+03  0.00000000000E+00 0.  1.
          1    1    3    3  501    0 -0.25426090593E+03  0.10401636281E+03 -0.74346890324E+03  0.79259953451E+03  0.00000000000E+00 0.  1.
         21    1    1    2  502  501 -0.75406504546E-05  0.55217012194E-05  0.12274070554E-03  0.12309602507E-03  0.00000000000E+00 0. -1.
<mgrwt>
<rscale>  1 0.65084747E+03</rscale>
<asrwt>0</asrwt>
<pdfrwt beam="1">  1        1 0.38509437E+00 0.65084747E+03</pdfrwt>
<pdfrwt beam="2">0</pdfrwt>
<totfact> 0.15578543E+00</totfact>
</mgrwt>
</event>
<event>
 6    1  0.9486132E-003  0.6459956E+03  0.7818608E-02  0.9814322E-01
          1   -1    0    0  502    0  0.00000000000E+00  0.00000000000E+00  0.10432918661E+03  0.10432918661E+03  0.00000000000E+00 0.  1.
         13   -1    0    0    0    0 -0.00000000000E+00 -0.00000000000E+00 -0.10000000000E+04  0.10000000000E+04  0.00000000000E+00 0.  1.
    9000005    2    1    2  501    0 -0.99796905459E-05  0.62907797872E-04 -0.89567240936E+03  0.11043275894E+04  0.64599563446E+03 0.  0.
         13    1    3    3    0    0 -0.16521414185E+02 -0.10179142673E+02 -0.99900257428E+03  0.99919103053E+03  0.00000000000E+00 0.  1.
          3    1    3    3  501    0  0.16521404206E+02  0.10179205581E+02  0.10333016492E+03  0.10513655884E+03  0.00000000000E+00 0.  1.
         21    1    1    2  502  501  0.99796905459E-05 -0.62907797873E-04  0.15959766693E-02  0.15972471675E-02  0.00000000000E+00 0. -1.
<mgrwt>
<rscale>  1 0.64599563E+03</rscale>
<asrwt>0</asrwt>
<pdfrwt beam="1">  1        1 0.37937966E+00 0.64599563E+03</pdfrwt>
<pdfrwt beam="2">0</pdfrwt>
<totfact> 0.16525613E+00</totfact>
</mgrwt>
</event>
<event>
 6    1  0.9486132E-003  0.6471189E+03  0.7818608E-02  0.9812200E-01
          1   -1    0    0  502    0  0.00000000000E+00  0.00000000000E+00  0.10469425309E+03  0.10469425309E+03  0.00000000000E+00 0.  1.
         13   -1    0    0    0    0 -0.00000000000E+00 -0.00000000000E+00 -0.10000000000E+04  0.10000000000E+04  0.00000000000E+00 0.  1.
    9000005    2    1    2  501    0  0.78353401648E-03  0.24234435708E-02 -0.89530875447E+03  0.11046903120E+04  0.64711893768E+03 0.  0.
         13    1    3    3    0    0 -0.13248467030E+03 -0.20442884493E+02  0.55055650592E+02  0.14491799078E+03  0.00000000000E+00 0.  1.
          1    1    3    3  501    0  0.13248545383E+03  0.20445307936E+02 -0.95036440507E+03  0.95977232118E+03  0.00000000000E+00 0.  1.
         21    1    1    2  502  501 -0.78353401649E-03 -0.24234435708E-02  0.30075611292E-02  0.39411201759E-02  0.00000000000E+00 0.  1.
<mgrwt>
<rscale>  1 0.64711894E+03</rscale>
<asrwt>0</asrwt>
<pdfrwt beam="1">  1        1 0.38070718E+00 0.64711894E+03</pdfrwt>
<pdfrwt beam="2">0</pdfrwt>
<totfact> 0.16300857E+00</totfact>
</mgrwt>
</event>
<event>
 6    1  0.9486132E-003  0.6562991E+03  0.7818608E-02  0.9795031E-01
          3   -1    0    0  502    0  0.00000000000E+00  0.00000000000E+00  0.10769178457E+03  0.10769178457E+03  0.00000000000E+00 0.  1.
         13   -1    0    0    0    0 -0.00000000000E+00 -0.00000000000E+00 -0.10000000000E+04  0.10000000000E+04  0.00000000000E+00 0.  1.
    9000005    2    1    2  501    0  0.24342796281E-02  0.54251139861E-02 -0.89231686595E+03  0.11076812875E+04  0.65629905173E+03 0.  0.
         13    1    3    3    0    0  0.32089698234E+03 -0.68294791771E+02 -0.45728706000E+03  0.56280592312E+03  0.00000000000E+00 0.  1.
          1    1    3    3  501    0 -0.32089454806E+03  0.68300216885E+02 -0.43502980596E+03  0.54487536435E+03  0.00000000000E+00 0.  1.
         21    1    1    2  502  501 -0.24342796281E-02 -0.54251139861E-02  0.86505292168E-02  0.10497106020E-01  0.00000000000E+00 0. -1.
<mgrwt>
<rscale>  1 0.65629905E+03</rscale>
<asrwt>0</asrwt>
<pdfrwt beam="1">  1        3 0.39160732E+00 0.65629905E+03</pdfrwt>
<pdfrwt beam="2">0</pdfrwt>
<totfact> 0.65493007E-02</totfact>
</mgrwt>
</event>
<event>
 6    1  0.9486132E-003  0.6492480E+03  0.7818608E-02  0.9808191E-01
          1   -1    0    0  502    0  0.00000000000E+00  0.00000000000E+00  0.10538564907E+03  0.10538564907E+03  0.00000000000E+00 0.  1.
         13   -1    0    0    0    0 -0.00000000000E+00 -0.00000000000E+00 -0.10000000000E+04  0.10000000000E+04  0.00000000000E+00 0.  1.
    9000005    2    1    2  501    0 -0.68220353853E-04  0.26824243405E-03 -0.89461926836E+03  0.11053807239E+04  0.64924795675E+03 0.  0.
         13    1    3    3    0    0  0.14909340166E+03 -0.38850639963E+02 -0.93378335277E+03  0.94640877244E+03  0.00000000000E+00 0.  1.
          3    1    3    3  501    0 -0.14909346988E+03  0.38850908205E+02  0.39164084407E+02  0.15897195142E+03  0.00000000000E+00 0.  1.
         21    1    1    2  502  501  0.68220353866E-04 -0.26824243405E-03  0.49174285030E-02  0.49252117825E-02  0.00000000000E+00 0.  1.
<mgrwt>
<rscale>  1 0.64924796E+03</rscale>
<asrwt>0</asrwt>
<pdfrwt beam="1">  1        1 0.38322135E+00 0.64924796E+03</pdfrwt>
<pdfrwt beam="2">0</pdfrwt>
<totfact> 0.15883138E+00</totfact>
</mgrwt>
</event>
<event>
 6    1  0.9486132E-003  0.6609786E+03  0.7818608E-02  0.9786394E-01
          1   -1    0    0  502    0  0.00000000000E+00  0.00000000000E+00  0.10922342340E+03  0.10922342340E+03  0.00000000000E+00 0.  1.
         13   -1    0    0    0    0 -0.00000000000E+00 -0.00000000000E+00 -0.10000000000E+04  0.10000000000E+04  0.00000000000E+00 0.  1.
    9000005    2    1    2  501    0 -0.10253678226E-04 -0.14005562008E-05 -0.89077682752E+03  0.11092231723E+04  0.66097858471E+03 0.  0.
         13    1    3    3    0    0 -0.31100503311E+03 -0.88567914727E+02 -0.55988186906E+03  0.64655712310E+03  0.00000000000E+00 0.  1.
          1    1    3    3  501    0  0.31100502285E+03  0.88567913326E+02 -0.33089495846E+03  0.46266604916E+03  0.00000000000E+00 0.  1.
         21    1    1    2  502  501  0.10253678212E-04  0.14005561959E-05  0.25091915926E-03  0.25113248288E-03  0.00000000000E+00 0. -1.
<mgrwt>
<rscale>  1 0.66097858E+03</rscale>
<asrwt>0</asrwt>
<pdfrwt beam="1">  1        1 0.39717692E+00 0.66097858E+03</pdfrwt>
<pdfrwt beam="2">0</pdfrwt>
<totfact> 0.13743351E+00</totfact>
</mgrwt>
</event>
<event>
 6    1  0.9486132E-003  0.6547638E+03  0.7818608E-02  0.9797881E-01
          1   -1    0    0  502    0  0.00000000000E+00  0.00000000000E+00  0.10808175084E+03  0.10808175084E+03  0.00000000000E+00 0.  1.
         13   -1    0    0    0    0 -0.00000000000E+00 -0.00000000000E+00 -0.10000000000E+04  0.10000000000E+04  0.00000000000E+00 0.  1.
    9000005    2    1    2  501    0 -0.13121371624E-01 -0.11799231443E-01 -0.89282098522E+03  0.11071788423E+04  0.65476383294E+03 0.  0.
         13    1    3    3    0    0  0.10152745059E+03 -0.22793333516E+03 -0.88030319386E+02  0.26459547546E+03  0.00000000000E+00 0.  1.
          1    1    3    3  501    0 -0.10154057196E+03  0.22792153593E+03 -0.80479066584E+03  0.84258336686E+03  0.00000000000E+00 0.  1.
         21    1    1    2  502  501  0.13121371624E-01  0.11799231443E-01  0.90273606093E+00  0.90290851583E+00  0.00000000000E+00 0. -1.
<mgrwt>
<rscale>  1 0.65476383E+03</rscale>
<asrwt>0</asrwt>
<pdfrwt beam="1">  1        1 0.39302538E+00 0.65476383E+03</pdfrwt>
<pdfrwt beam="2">0</pdfrwt>
<totfact> 0.14356796E+00</totfact>
</mgrwt>
</event>
<event>
 6    1  0.9486132E-003  0.6496338E+03  0.7818608E-02  0.9807467E-01
          1   -1    0    0  502    0  0.00000000000E+00  0.00000000000E+00  0.10570211241E+03  0.10570211241E+03  0.00000000000E+00 0.  1.
         13   -1    0    0    0    0 -0.00000000000E+00 -0.00000000000E+00 -0.10000000000E+04  0.10000000000E+04  0.00000000000E+00 0.  1.
    9000005    2    1    2  501    0  0.34156368014E-01  0.43898245094E-01 -0.89448960881E+03  0.11055024859E+04  0.64963380685E+03 0.  0.
         13    1    3    3    0    0  0.23976873016E+03 -0.21867264856E+03 -0.42330605772E+03  0.53338052992E+03  0.00000000000E+00 0.  1.
          3    1    3    3  501    0 -0.23973457379E+03  0.21871654680E+03 -0.47118355109E+03  0.57212195600E+03  0.00000000000E+00 0.  1.
         21    1    1    2  502  501 -0.34156368014E-01 -0.43898245094E-01  0.19172121370E+00  0.19962649418E+00  0.00000000000E+00 0.  1.
<mgrwt>
<rscale>  1 0.64963381E+03</rscale>
<asrwt>0</asrwt>
<pdfrwt beam="1">  1        1 0.38437213E+00 0.64963381E+03</pdfrwt>
<pdfrwt beam="2">0</pdfrwt>
<totfact> 0.15697061E+00</totfact>
</mgrwt>
</event>
<event>
 6    1  0.9486132E-003  0.6490487E+03  0.7818608E-02  0.9808566E-01
          1   -1    0    0  502    0  0.00000000000E+00  0.00000000000E+00  0.10541400848E+03  0.10541400848E+03  0.00000000000E+00 0.  1.
         13   -1    0    0    0    0 -0.00000000000E+00 -0.00000000000E+00 -0.10000000000E+04  0.10000000000E+04  0.00000000000E+00 0.  1.
    9000005    2    1    2  501    0 -0.24474696674E-02 -0.40029255702E-02 -0.89468388985E+03  0.11053159978E+04  0.64904868245E+03 0.  0.
         13    1    3    3    0    0  0.49890476034E+02 -0.26984449076E+03 -0.15232095642E+03  0.31385790186E+03  0.00000000000E+00 0.  1.
          1    1    3    3  501    0 -0.49892923504E+02  0.26984048784E+03 -0.74236293342E+03  0.79145809593E+03  0.00000000000E+00 0.  1.
         21    1    1    2  502  501  0.24474696674E-02  0.40029255702E-02  0.97898326909E-01  0.98010692950E-01  0.00000000000E+00 0.  1.
<mgrwt>
<rscale>  1 0.64904868E+03</rscale>
<asrwt>0</asrwt>
<pdfrwt beam="1">  1        1 0.38332448E+00 0.64904868E+03</pdfrwt>
<pdfrwt beam="2">0</pdfrwt>
<totfact> 0.15867062E+00</totfact>
</mgrwt>
</event>
<event>
 6    1  0.9486132E-003  0.6518962E+03  0.7818608E-02  0.9803228E-01
          1   -1    0    0  502    0  0.00000000000E+00  0.00000000000E+00  0.10625231119E+03  0.10625231119E+03  0.00000000000E+00 0.  1.
         13   -1    0    0    0    0 -0.00000000000E+00 -0.00000000000E+00 -0.10000000000E+04  0.10000000000E+04  0.00000000000E+00 0.  1.
    9000005    2    1    2  501    0  0.42340555598E-03 -0.40871058457E-03 -0.89375782730E+03  0.11062421556E+04  0.65189619805E+03 0.  0.
         13    1    3    3    0    0 -0.19629612107E+03 -0.24872287258E+03 -0.57663761090E+03  0.65795605384E+03  0.00000000000E+00 0.  1.
          1    1    3    3  501    0  0.19629654448E+03  0.24872246386E+03 -0.31712021641E+03  0.44828610179E+03  0.00000000000E+00 0.  1.
         21    1    1    2  502  501 -0.42340555597E-03  0.40871058455E-03  0.10138492659E-01  0.10155557592E-01  0.00000000000E+00 0. -1.
<mgrwt>
<rscale>  1 0.65189620E+03</rscale>
<asrwt>0</asrwt>
<pdfrwt beam="1">  1        1 0.38637286E+00 0.65189620E+03</pdfrwt>
<pdfrwt beam="2">0</pdfrwt>
<totfact> 0.15373952E+00</totfact>
</mgrwt>
</event>
<event>
 6    1  0.9486132E-003  0.6583957E+03  0.7818608E-02  0.9791152E-01
          1   -1    0    0  502    0  0.00000000000E+00  0.00000000000E+00  0.10842443276E+03  0.10842443276E+03  0.00000000000E+00 0.  1.
         13   -1    0    0    0    0 -0.00000000000E+00 -0.00000000000E+00 -0.10000000000E+04  0.10000000000E+04  0.00000000000E+00 0.  1.
    9000005    2    1    2  501    0  0.22230509596E-02 -0.90403983132E-02 -0.89162832583E+03  0.11083708591E+04  0.65839569389E+03 0.  0.
         13    1    3    3    0    0  0.28127442399E+03  0.85237282576E+02 -0.19617367889E+03  0.35336214882E+03  0.00000000000E+00 0.  1.
          3    1    3    3  501    0 -0.28127220094E+03 -0.85246322974E+02 -0.69545464694E+03  0.75500871025E+03  0.00000000000E+00 0.  1.
         21    1    1    2  502  501 -0.22230509596E-02  0.90403983132E-02  0.52758592796E-01  0.53573686368E-01  0.00000000000E+00 0. -1.
<mgrwt>
<rscale>  1 0.65839569E+03</rscale>
<asrwt>0</asrwt>
<pdfrwt beam="1">  1        1 0.39427150E+00 0.65839569E+03</pdfrwt>
<pdfrwt beam="2">0</pdfrwt>
<totfact> 0.14165333E+00</totfact>
</mgrwt>
</event>
<event>
 6    1  0.9486132E-003  0.6906796E+03  0.7818608E-02  0.9733305E-01
          1   -1    0    0  502    0  0.00000000000E+00  0.00000000000E+00  0.11926028942E+03  0.11926028942E+03  0.00000000000E+00 0.  1.
         13   -1    0    0    0    0 -0.00000000000E+00 -0.00000000000E+00 -0.10000000000E+04  0.10000000000E+04  0.00000000000E+00 0.  1.
    9000005    2    1    2  501    0  0.72184030606E-03 -0.11008127705E-02 -0.88073966868E+03  0.11192589724E+04  0.69067958075E+03 0.  0.
         13    1    3    3    0    0  0.13839883130E+03 -0.23137918132E+03 -0.90663655952E+02  0.28444764116E+03  0.00000000000E+00 0.  1.
          1    1    3    3  501    0 -0.13839810946E+03  0.23137808050E+03 -0.79007601273E+03  0.83481133122E+03  0.00000000000E+00 0.  1.
         21    1    1    2  502  501 -0.72184030605E-03  0.11008127705E-02 -0.41898200352E-04  0.13170412455E-02  0.00000000000E+00 0. -1.
<mgrwt>
<rscale>  1 0.69067958E+03</rscale>
<asrwt>0</asrwt>
<pdfrwt beam="1">  1        1 0.43367469E+00 0.69067958E+03</pdfrwt>
<pdfrwt beam="2">0</pdfrwt>
<totfact> 0.93609913E-01</totfact>
</mgrwt>
</event>
<event>
 6    1  0.9486132E-003  0.6496069E+03  0.7818608E-02  0.9807517E-01
          1   -1    0    0  502    0  0.00000000000E+00  0.00000000000E+00  0.10549802208E+03  0.10549802208E+03  0.00000000000E+00 0.  1.
         13   -1    0    0    0    0 -0.00000000000E+00 -0.00000000000E+00 -0.10000000000E+04  0.10000000000E+04  0.00000000000E+00 0.  1.
    9000005    2    1    2  501    0  0.98245049656E-04 -0.11792317687E-03 -0.89450270236E+03  0.11054972816E+04  0.64960692346E+03 0.  0.
         13    1    3    3    0    0  0.85885766589E+02 -0.24978269545E+03 -0.76892909777E+03  0.81303119082E+03  0.00000000000E+00 0.  1.
          3    1    3    3  501    0 -0.85885668344E+02  0.24978257753E+03 -0.12557360459E+03  0.29246609074E+03  0.00000000000E+00 0.  1.
         21    1    1    2  502  501 -0.98245049655E-04  0.11792317686E-03  0.72443939212E-03  0.74052035642E-03  0.00000000000E+00 0. -1.
<mgrwt>
<rscale>  1 0.64960692E+03</rscale>
<asrwt>0</asrwt>
<pdfrwt beam="1">  1        1 0.38362998E+00 0.64960692E+03</pdfrwt>
<pdfrwt beam="2">0</pdfrwt>
<totfact> 0.15816178E+00</totfact>
</mgrwt>
</event>
<event>
 6    1  0.9486132E-003  0.6442268E+03  0.7818608E-02  0.9817673E-01
          1   -1    0    0  502    0  0.00000000000E+00  0.00000000000E+00  0.10375805438E+03  0.10375805438E+03  0.00000000000E+00 0.  1.
         13   -1    0    0    0    0 -0.00000000000E+00 -0.00000000000E+00 -0.10000000000E+04  0.10000000000E+04  0.00000000000E+00 0.  1.
    9000005    2    1    2  501    0  0.66736677100E-03  0.48610377178E-04 -0.89624283274E+03  0.11037569432E+04  0.64422680355E+03 0.  0.
         13    1    3    3    0    0  0.74862667621E+02  0.28528519102E+03 -0.66996012667E+03  0.73200999348E+03  0.00000000000E+00 0.  1.
          3    1    3    3  501    0 -0.74862000254E+02 -0.28528514241E+03 -0.22628270607E+03  0.37174694972E+03  0.00000000000E+00 0.  1.
         21    1    1    2  502  501 -0.66736677100E-03 -0.48610377152E-04  0.88711816342E-03  0.11111795587E-02  0.00000000000E+00 0. -1.
<mgrwt>
<rscale>  1 0.64422680E+03</rscale>
<asrwt>0</asrwt>
<pdfrwt beam="1">  1        1 0.37730281E+00 0.64422680E+03</pdfrwt>
<pdfrwt beam="2">0</pdfrwt>
<totfact> 0.16883201E+00</totfact>
</mgrwt>
</event>
<event>
 6    1  0.9486132E-003  0.6494311E+03  0.7818608E-02  0.9807847E-01
          1   -1    0    0  502    0  0.00000000000E+00  0.00000000000E+00  0.10544024909E+03  0.10544024909E+03  0.00000000000E+00 0.  1.
         13   -1    0    0    0    0 -0.00000000000E+00 -0.00000000000E+00 -0.10000000000E+04  0.10000000000E+04  0.00000000000E+00 0.  1.
    9000005    2    1    2  501    0 -0.40251613896E-04 -0.13919517358E-03 -0.89455968691E+03  0.11054400907E+04  0.64943110539E+03 0.  0.
         13    1    3    3    0    0  0.12607696805E+03  0.29777082422E+02  0.59549046828E+02  0.14257687571E+03  0.00000000000E+00 0.  1.
          3    1    3    3  501    0 -0.12607700830E+03 -0.29777221617E+02 -0.95410873374E+03  0.96286321497E+03  0.00000000000E+00 0.  1.
         21    1    1    2  502  501  0.40251613897E-04  0.13919517358E-03 -0.63996504119E-04  0.15840151928E-03  0.00000000000E+00 0.  1.
<mgrwt>
<rscale>  1 0.64943111E+03</rscale>
<asrwt>0</asrwt>
<pdfrwt beam="1">  1        1 0.38341990E+00 0.64943111E+03</pdfrwt>
<pdfrwt beam="2">0</pdfrwt>
<totfact> 0.15850544E+00</totfact>
</mgrwt>
</event>
<event>
 6    1  0.9486132E-003  0.6613255E+03  0.7818608E-02  0.9785757E-01
          1   -1    0    0  502    0  0.00000000000E+00  0.00000000000E+00  0.12715726021E+03  0.12715726021E+03  0.00000000000E+00 0.  1.
         13   -1    0    0    0    0 -0.00000000000E+00 -0.00000000000E+00 -0.10000000000E+04  0.10000000000E+04  0.00000000000E+00 0.  1.
    9000005    2    1    2  501    0  0.50032036239E+00  0.40902229758E+00 -0.89065563890E+03  0.11093326426E+04  0.66132520528E+03 0.  0.
         13    1    3    3    0    0  0.27694329361E+03  0.14907917437E+03 -0.61855947463E+03  0.69392939970E+03  0.00000000000E+00 0.  1.
          1    1    3    3  501    0 -0.27644297324E+03 -0.14867015208E+03 -0.27209616426E+03  0.41540324286E+03  0.00000000000E+00 0.  1.
         21    1    1    2  502  501 -0.50032036239E+00 -0.40902229758E+00  0.17812899103E+02  0.17824617644E+02  0.00000000000E+00 0.  1.
<mgrwt>
<rscale>  1 0.66132552E+03</rscale>
<asrwt>0</asrwt>
<pdfrwt beam="1">  1        1 0.46239101E+00 0.66132552E+03</pdfrwt>
<pdfrwt beam="2">0</pdfrwt>
<totfact> 0.69455446E-01</totfact>
</mgrwt>
</event>
<event>
 6    1  0.9486132E-003  0.6580554E+03  0.7818608E-02  0.9791780E-01
          1   -1    0    0  502    0  0.00000000000E+00  0.00000000000E+00  0.11352453571E+03  0.11352453571E+03  0.00000000000E+00 0.  1.
         13   -1    0    0    0    0 -0.00000000000E+00 -0.00000000000E+00 -0.10000000000E+04  0.10000000000E+04  0.00000000000E+00 0.  1.
    9000005    2    1    2  501    0  0.35466294022E+01 -0.35829991193E+01 -0.89036817092E+03  0.11071551066E+04  0.65803611886E+03 0.  0.
         13    1    3    3    0    0  0.90385852163E+02  0.27153989195E+03 -0.71349256405E+03  0.76874908400E+03  0.00000000000E+00 0.  1.
          3    1    3    3  501    0 -0.86839222761E+02 -0.27512289107E+03 -0.17687560687E+03  0.33840602256E+03  0.00000000000E+00 0.  1.
         21    1    1    2  502  501 -0.35466294022E+01  0.35829991193E+01  0.38927066253E+01  0.63694291483E+01  0.00000000000E+00 0.  1.
<mgrwt>
<rscale>  1 0.65805543E+03</rscale>
<asrwt>0</asrwt>
<pdfrwt beam="1">  1        1 0.41281736E+00 0.65805543E+03</pdfrwt>
<pdfrwt beam="2">0</pdfrwt>
<totfact> 0.11705752E+00</totfact>
</mgrwt>
</event>
<event>
 6    1  0.9486132E-003  0.5864726E+03  0.7818608E-02  0.9933875E-01
          1   -1    0    0  502    0  0.00000000000E+00  0.00000000000E+00  0.86343971363E+02  0.86343971363E+02  0.00000000000E+00 0.  1.
         13   -1    0    0    0    0 -0.00000000000E+00 -0.00000000000E+00 -0.10000000000E+04  0.10000000000E+04  0.00000000000E+00 0.  1.
    9000005    2    1    2  501    0  0.10871439232E+00  0.82050771069E-02 -0.91400339803E+03  0.10859798949E+04  0.58647259845E+03 0.  0.
         13    1    3    3    0    0  0.28013086823E+02 -0.27497666016E+03 -0.27565466849E+03  0.39036187432E+03  0.00000000000E+00 0.  1.
          1    1    3    3  501    0 -0.27904372430E+02  0.27498486524E+03 -0.63834872954E+03  0.69561802062E+03  0.00000000000E+00 0.  1.
         21    1    1    2  502  501 -0.10871439232E+00 -0.82050771070E-02  0.34736939134E+00  0.36407641564E+00  0.00000000000E+00 0. -1.
<mgrwt>
<rscale>  1 0.58647261E+03</rscale>
<asrwt>0</asrwt>
<pdfrwt beam="1">  1        1 0.31397874E+00 0.58647261E+03</pdfrwt>
<pdfrwt beam="2">0</pdfrwt>
<totfact> 0.32189595E+00</totfact>
</mgrwt>
</event>
<event>
 6    1  0.9486132E-003  0.6469166E+03  0.7818608E-02  0.9812582E-01
          1   -1    0    0  502    0  0.00000000000E+00  0.00000000000E+00  0.10493213707E+03  0.10493213707E+03  0.00000000000E+00 0.  1.
         13   -1    0    0    0    0 -0.00000000000E+00 -0.00000000000E+00 -0.10000000000E+04  0.10000000000E+04  0.00000000000E+00 0.  1.
    9000005    2    1    2  501    0 -0.85803733096E+00 -0.36850426664E+00 -0.89403664817E+03  0.11035409407E+04  0.64691591996E+03 0.  0.
         13    1    3    3    0    0  0.94777174451E+01  0.59982028636E+02  0.94924120020E+02  0.11268655398E+03  0.00000000000E+00 0.  1.
          1    1    3    3  501    0 -0.10335754776E+02 -0.60350532903E+02 -0.98896076819E+03  0.99085438671E+03  0.00000000000E+00 0.  1.
         21    1    1    2  502  501  0.85803733096E+00  0.36850426664E+00 -0.10312147659E+01  0.13911963734E+01  0.00000000000E+00 0. -1.
<mgrwt>
<rscale>  1 0.64691659E+03</rscale>
<asrwt>0</asrwt>
<pdfrwt beam="1">  1        1 0.38157221E+00 0.64691659E+03</pdfrwt>
<pdfrwt beam="2">0</pdfrwt>
<totfact> 0.16158751E+00</totfact>
</mgrwt>
</event>
