<event>
 6    1  0.1640458E-002  0.6563873E+03  0.7818608E-02  0.9794867E-01
          1   -1    0    0  502    0  0.00000000000E+00  0.00000000000E+00  0.10771208662E+03  0.10771208662E+03  0.00000000000E+00 0.  1.
         13   -1    0    0    0    0 -0.00000000000E+00 -0.00000000000E+00 -0.10000000000E+04  0.10000000000E+04  0.00000000000E+00 0.  1.
    9000005    2    1    2  501    0 -0.17561023520E-03  0.25224608413E-03 -0.89228889818E+03  0.11077110550E+04  0.65638731210E+03 0.  0.
         13    1    3    3    0    0  0.26016889290E+03 -0.15555659244E+03 -0.23384814299E+03  0.38284547831E+03  0.00000000000E+00 0.  1.
          1    1    3    3  501    0 -0.26016906851E+03  0.15555684468E+03 -0.65844075519E+03  0.72486557666E+03  0.00000000000E+00 0.  1.
         21    1    1    2  502  501  0.17561023523E-03 -0.25224608411E-03  0.98480145253E-03  0.10316496220E-02  0.00000000000E+00 0.  1.
<mgrwt>
<rscale>  1 0.65638731E+03</rscale>
<asrwt>0</asrwt>
<pdfrwt beam="1">  1        1 0.39168114E+00 0.65638731E+03</pdfrwt>
<pdfrwt beam="2">0</pdfrwt>
<totfact> 0.14551073E+00</totfact>
</mgrwt>
</event>
<event>
 6    1  0.1640458E-002  0.6450852E+03  0.7818608E-02  0.9816045E-01
          1   -1    0    0  502    0  0.00000000000E+00  0.00000000000E+00  0.10453252490E+03  0.10453252490E+03  0.00000000000E+00 0.  1.
         13   -1    0    0    0    0 -0.00000000000E+00 -0.00000000000E+00 -0.10000000000E+04  0.10000000000E+04  0.00000000000E+00 0.  1.
    9000005    2    1    2  501    0  0.22779077803E-01 -0.47049971768E-01 -0.89596477260E+03  0.11040324875E+04  0.64508515484E+03 0.  0.
         13    1    3    3    0    0  0.14476258347E+03 -0.86302407116E+02 -0.91868420819E+03  0.93401551669E+03  0.00000000000E+00 0.  1.
          1    1    3    3  501    0 -0.14473980440E+03  0.86255357144E+02  0.22719435583E+02  0.17001697082E+03  0.00000000000E+00 0.  1.
         21    1    1    2  502  501 -0.22779077803E-01  0.47049971768E-01  0.49729750646E+00  0.50003739476E+00  0.00000000000E+00 0. -1.
<mgrwt>
<rscale>  1 0.64508516E+03</rscale>
<asrwt>0</asrwt>
<pdfrwt beam="1">  1        1 0.38011907E+00 0.64508516E+03</pdfrwt>
<pdfrwt beam="2">0</pdfrwt>
<totfact> 0.16404700E+00</totfact>
</mgrwt>
</event>
<event>
 6    1  0.1640458E-002  0.6628107E+03  0.7818608E-02  0.9783033E-01
          1   -1    0    0  502    0  0.00000000000E+00  0.00000000000E+00  0.11124292097E+03  0.11124292097E+03  0.00000000000E+00 0.  1.
         13   -1    0    0    0    0 -0.00000000000E+00 -0.00000000000E+00 -0.10000000000E+04  0.10000000000E+04  0.00000000000E+00 0.  1.
    9000005    2    1    2  501    0  0.21935992907E+00 -0.10664514620E+01 -0.88993388041E+03  0.11096397058E+04  0.66280976131E+03 0.  0.
         13    1    3    3    0    0 -0.26495631001E+03  0.83710763598E+02 -0.74634851572E+03  0.79639528192E+03  0.00000000000E+00 0.  1.
          1    1    3    3  501    0  0.26517566994E+03 -0.84777215060E+02 -0.14358536469E+03  0.31324442385E+03  0.00000000000E+00 0.  1.
         21    1    1    2  502  501 -0.21935992907E+00  0.10664514620E+01  0.11768013786E+01  0.16032152020E+01  0.00000000000E+00 0.  1.
<mgrwt>
<rscale>  1 0.66281066E+03</rscale>
<asrwt>0</asrwt>
<pdfrwt beam="1">  1        1 0.40452057E+00 0.66281066E+03</pdfrwt>
<pdfrwt beam="2">0</pdfrwt>
<totfact> 0.12740352E+00</totfact>
</mgrwt>
</event>
<event>
 6    1  0.1640458E-002  0.6532435E+03  0.7818608E-02  0.9800712E-01
          1   -1    0    0  502    0  0.00000000000E+00  0.00000000000E+00  0.10686609830E+03  0.10686609830E+03  0.00000000000E+00 0.  1.
         13   -1    0    0    0    0 -0.00000000000E+00 -0.00000000000E+00 -0.10000000000E+04  0.10000000000E+04  0.00000000000E+00 0.  1.
    9000005    2    1    2  501    0  0.32349022670E-02  0.41815028564E-03 -0.89331820088E+03  0.11066817703E+04  0.65324354769E+03 0.  0.
         13    1    3    3    0    0 -0.10674907676E+03  0.19609483850E+03 -0.42782779513E+02  0.22732997448E+03  0.00000000000E+00 0.  1.
          1    1    3    3  501    0  0.10675231166E+03 -0.19609442035E+03 -0.85053542136E+03  0.87935179578E+03  0.00000000000E+00 0.  1.
         21    1    1    2  502  501 -0.32349022670E-02 -0.41815028564E-03  0.18429917358E+00  0.18432803592E+00  0.00000000000E+00 0. -1.
<mgrwt>
<rscale>  1 0.65324355E+03</rscale>
<asrwt>0</asrwt>
<pdfrwt beam="1">  1        1 0.38860481E+00 0.65324355E+03</pdfrwt>
<pdfrwt beam="2">0</pdfrwt>
<totfact> 0.15024225E+00</totfact>
</mgrwt>
</event>
<event>
 6    1  0.1640458E-002  0.6572280E+03  0.7818608E-02  0.9793310E-01
          1   -1    0    0  502    0  0.00000000000E+00  0.00000000000E+00  0.10798721715E+03  0.10798721715E+03  0.00000000000E+00 0.  1.
         13   -1    0    0    0    0 -0.00000000000E+00 -0.00000000000E+00 -0.10000000000E+04  0.10000000000E+04  0.00000000000E+00 0.  1.
    9000005    2    1    2  501    0  0.23860291094E-04 -0.13016412066E-03 -0.89201275333E+03  0.11079870816E+04  0.65722798237E+03 0.  0.
         13    1    3    3    0    0  0.68862809920E+02 -0.32084435807E+03 -0.47540072566E+03  0.57765823690E+03  0.00000000000E+00 0.  1.
          1    1    3    3  501    0 -0.68862786059E+02  0.32084422791E+03 -0.41661202767E+03  0.53032884466E+03  0.00000000000E+00 0.  1.
         21    1    1    2  502  501 -0.23860291090E-04  0.13016412064E-03 -0.29523963664E-04  0.13558641607E-03  0.00000000000E+00 0.  1.
<mgrwt>
<rscale>  1 0.65722798E+03</rscale>
<asrwt>0</asrwt>
<pdfrwt beam="1">  1        1 0.39268162E+00 0.65722798E+03</pdfrwt>
<pdfrwt beam="2">0</pdfrwt>
<totfact> 0.14400749E+00</totfact>
</mgrwt>
</event>
<event>
 6    1  0.1640458E-002  0.6531541E+03  0.7818608E-02  0.9800879E-01
          1   -1    0    0  502    0  0.00000000000E+00  0.00000000000E+00  0.10669150955E+03  0.10669150955E+03  0.00000000000E+00 0.  1.
         13   -1    0    0    0    0 -0.00000000000E+00 -0.00000000000E+00 -0.10000000000E+04  0.10000000000E+04  0.00000000000E+00 0.  1.
    9000005    2    1    2  501    0 -0.63362411259E-02  0.45790125083E-03 -0.89334712856E+03  0.11066523527E+04  0.65315414529E+03 0.  0.
         13    1    3    3    0    0  0.12862153246E+03  0.20309181652E+03 -0.82119763624E+03  0.85566076357E+03  0.00000000000E+00 0.  1.
          3    1    3    3  501    0 -0.12862786870E+03 -0.20309135862E+03 -0.72149492322E+02  0.25099158909E+03  0.00000000000E+00 0.  1.
         21    1    1    2  502  501  0.63362411259E-02 -0.45790125081E-03  0.38638110242E-01  0.39156879194E-01  0.00000000000E+00 0.  1.
<mgrwt>
<rscale>  1 0.65315415E+03</rscale>
<asrwt>0</asrwt>
<pdfrwt beam="1">  1        1 0.38796994E+00 0.65315415E+03</pdfrwt>
<pdfrwt beam="2">0</pdfrwt>
<totfact> 0.15122104E+00</totfact>
</mgrwt>
</event>
<event>
 6    1  0.1640458E-002  0.6292888E+03  0.7818608E-02  0.9846438E-01
          1   -1    0    0  502    0  0.00000000000E+00  0.00000000000E+00  0.99001863298E+02  0.99001863298E+02  0.00000000000E+00 0.  1.
         13   -1    0    0    0    0 -0.00000000000E+00 -0.00000000000E+00 -0.10000000000E+04  0.10000000000E+04  0.00000000000E+00 0.  1.
    9000005    2    1    2  501    0  0.85457419198E-03 -0.18508858719E-03 -0.90099860188E+03  0.10990008729E+04  0.62928883510E+03 0.  0.
         13    1    3    3    0    0 -0.16517706709E+03  0.25439687776E+03 -0.59661134878E+03  0.66928793236E+03  0.00000000000E+00 0.  1.
          3    1    3    3  501    0  0.16517792167E+03 -0.25439706285E+03 -0.30438725310E+03  0.42971294051E+03  0.00000000000E+00 0.  1.
         21    1    1    2  502  501 -0.85457419199E-03  0.18508858720E-03  0.46517782224E-03  0.99042679741E-03  0.00000000000E+00 0. -1.
<mgrwt>
<rscale>  1 0.62928884E+03</rscale>
<asrwt>0</asrwt>
<pdfrwt beam="1">  1        1 0.36000753E+00 0.62928884E+03</pdfrwt>
<pdfrwt beam="2">0</pdfrwt>
<totfact> 0.20162876E+00</totfact>
</mgrwt>
</event>
<event>
 6    1  0.1640458E-002  0.6408589E+03  0.7818608E-02  0.9824085E-01
          1   -1    0    0  502    0  0.00000000000E+00  0.00000000000E+00  0.10268579264E+03  0.10268579264E+03  0.00000000000E+00 0.  1.
         13   -1    0    0    0    0 -0.00000000000E+00 -0.00000000000E+00 -0.10000000000E+04  0.10000000000E+04  0.00000000000E+00 0.  1.
    9000005    2    1    2  501    0 -0.17618718843E-03  0.30236957545E-03 -0.89732495115E+03  0.11026750432E+04  0.64085894146E+03 0.  0.
         13    1    3    3    0    0 -0.17658359406E+03  0.16952982465E+03 -0.92893412787E+02  0.26182305719E+03  0.00000000000E+00 0.  1.
          1    1    3    3  501    0  0.17658341787E+03 -0.16952952228E+03 -0.80443153836E+03  0.84085198596E+03  0.00000000000E+00 0.  1.
         21    1    1    2  502  501  0.17618718843E-03 -0.30236957546E-03  0.10743791420E-01  0.10749489446E-01  0.00000000000E+00 0. -1.
<mgrwt>
<rscale>  1 0.64085894E+03</rscale>
<asrwt>0</asrwt>
<pdfrwt beam="1">  1        1 0.37340367E+00 0.64085894E+03</pdfrwt>
<pdfrwt beam="2">0</pdfrwt>
<totfact> 0.17574727E+00</totfact>
</mgrwt>
</event>
<event>
 6    1  0.1640458E-002  0.6286534E+03  0.7818608E-02  0.9847680E-01
          1   -1    0    0  502    0  0.00000000000E+00  0.00000000000E+00  0.10177078557E+03  0.10177078557E+03  0.00000000000E+00 0.  1.
         13   -1    0    0    0    0 -0.00000000000E+00 -0.00000000000E+00 -0.10000000000E+04  0.10000000000E+04  0.00000000000E+00 0.  1.
    9000005    2    1    2  501    0  0.14588170940E+01  0.12669098407E+00 -0.90099916079E+03  0.10986376081E+04  0.62865170173E+03 0.  0.
         13    1    3    3    0    0  0.16138841018E+03  0.19932371540E+03 -0.76992707381E+03  0.81151947694E+03  0.00000000000E+00 0.  1.
          1    1    3    3  501    0 -0.15992959309E+03 -0.19919702442E+03 -0.13107208698E+03  0.28711813121E+03  0.00000000000E+00 0.  1.
         21    1    1    2  502  501 -0.14588170940E+01 -0.12669098407E+00  0.27699463634E+01  0.31331774248E+01  0.00000000000E+00 0.  1.
<mgrwt>
<rscale>  1 0.62865341E+03</rscale>
<asrwt>0</asrwt>
<pdfrwt beam="1">  1        1 0.37007636E+00 0.62865341E+03</pdfrwt>
<pdfrwt beam="2">0</pdfrwt>
<totfact> 0.18217284E+00</totfact>
</mgrwt>
</event>
<event>
 6    1  0.1640458E-002  0.6614795E+03  0.7818608E-02  0.9785474E-01
          1   -1    0    0  502    0  0.00000000000E+00  0.00000000000E+00  0.11314701870E+03  0.11314701870E+03  0.00000000000E+00 0.  1.
         13   -1    0    0    0    0 -0.00000000000E+00 -0.00000000000E+00 -0.10000000000E+04  0.10000000000E+04  0.00000000000E+00 0.  1.
    9000005    2    1    2  501    0 -0.44894660738E+01 -0.28833325551E+01 -0.88837889820E+03  0.11075974841E+04  0.66145797374E+03 0.  0.
         13    1    3    3    0    0 -0.15924711882E+03  0.27983567406E+03 -0.56944404110E+03  0.65416677176E+03  0.00000000000E+00 0.  1.
          3    1    3    3  501    0  0.15475765275E+03 -0.28271900662E+03 -0.31893485710E+03  0.45343071230E+03  0.00000000000E+00 0.  1.
         21    1    1    2  502  501  0.44894660738E+01  0.28833325551E+01  0.15259168963E+01  0.55495346314E+01  0.00000000000E+00 0. -1.
<mgrwt>
<rscale>  1 0.66147949E+03</rscale>
<asrwt>0</asrwt>
<pdfrwt beam="1">  1        1 0.41144457E+00 0.66147949E+03</pdfrwt>
<pdfrwt beam="2">0</pdfrwt>
<totfact> 0.11865252E+00</totfact>
</mgrwt>
</event>
<event>
 6    1  0.1640458E-002  0.6483752E+03  0.7818608E-02  0.9809833E-01
          1   -1    0    0  502    0  0.00000000000E+00  0.00000000000E+00  0.10514832289E+03  0.10514832289E+03  0.00000000000E+00 0.  1.
         13   -1    0    0    0    0 -0.00000000000E+00 -0.00000000000E+00 -0.10000000000E+04  0.10000000000E+04  0.00000000000E+00 0.  1.
    9000005    2    1    2  501    0 -0.43262035052E-03  0.77171294085E-03 -0.89490239143E+03  0.11050976008E+04  0.64837521329E+03 0.  0.
         13    1    3    3    0    0  0.28740870037E+03  0.53786614170E+02 -0.68607313614E+03  0.74578355375E+03  0.00000000000E+00 0.  1.
          3    1    3    3  501    0 -0.28740913299E+03 -0.53785842457E+02 -0.20882925529E+03  0.35931404710E+03  0.00000000000E+00 0.  1.
         21    1    1    2  502  501  0.43262035053E-03 -0.77171294086E-03  0.50714328192E-01  0.50722044371E-01  0.00000000000E+00 0. -1.
<mgrwt>
<rscale>  1 0.64837521E+03</rscale>
<asrwt>0</asrwt>
<pdfrwt beam="1">  1        1 0.38235834E+00 0.64837521E+03</pdfrwt>
<pdfrwt beam="2">0</pdfrwt>
<totfact> 0.16025781E+00</totfact>
</mgrwt>
</event>
<event>
 6    1  0.1640458E-002  0.6408570E+03  0.7818608E-02  0.9824088E-01
          1   -1    0    0  502    0  0.00000000000E+00  0.00000000000E+00  0.10267443339E+03  0.10267443339E+03  0.00000000000E+00 0.  1.
         13   -1    0    0    0    0 -0.00000000000E+00 -0.00000000000E+00 -0.10000000000E+04  0.10000000000E+04  0.00000000000E+00 0.  1.
    9000005    2    1    2  501    0 -0.11371131450E-05  0.61927607931E-06 -0.89732556508E+03  0.11026744314E+04  0.64085702921E+03 0.  0.
         13    1    3    3    0    0  0.21963381692E+03  0.22321670251E+03 -0.33184106965E+03  0.45627097795E+03  0.00000000000E+00 0.  1.
          1    1    3    3  501    0 -0.21963381806E+03 -0.22321670189E+03 -0.56548449543E+03  0.64640345343E+03  0.00000000000E+00 0.  1.
         21    1    1    2  502  501  0.11371131733E-05 -0.61927610439E-06 -0.15267189621E-05  0.20018491580E-05  0.00000000000E+00 0. -1.
<mgrwt>
<rscale>  1 0.64085703E+03</rscale>
<asrwt>0</asrwt>
<pdfrwt beam="1">  1        1 0.37336236E+00 0.64085703E+03</pdfrwt>
<pdfrwt beam="2">0</pdfrwt>
<totfact> 0.17582087E+00</totfact>
</mgrwt>
</event>
<event>
 6    1  0.1640458E-002  0.6003678E+03  0.7818608E-02  0.9904643E-01
          1   -1    0    0  502    0  0.00000000000E+00  0.00000000000E+00  0.93140626339E+02  0.93140626339E+02  0.00000000000E+00 0.  1.
         13   -1    0    0    0    0 -0.00000000000E+00 -0.00000000000E+00 -0.10000000000E+04  0.10000000000E+04  0.00000000000E+00 0.  1.
    9000005    2    1    2  501    0  0.45927313073E-01 -0.56910091784E-01 -0.90988913654E+03  0.10901099810E+04  0.60036782437E+03 0.  0.
         13    1    3    3    0    0  0.25625350313E+03 -0.14641691703E+03 -0.35510153914E+03  0.46173680226E+03  0.00000000000E+00 0.  1.
          1    1    3    3  501    0 -0.25620757582E+03  0.14636000693E+03 -0.55478759739E+03  0.62837317874E+03  0.00000000000E+00 0.  1.
         21    1    1    2  502  501 -0.45927313073E-01  0.56910091784E-01  0.30297628776E+01  0.30306453391E+01  0.00000000000E+00 0. -1.
<mgrwt>
<rscale>  1 0.60036783E+03</rscale>
<asrwt>0</asrwt>
<pdfrwt beam="1">  1        1 0.33869390E+00 0.60036783E+03</pdfrwt>
<pdfrwt beam="2">0</pdfrwt>
<totfact> 0.25098828E+00</totfact>
</mgrwt>
</event>
<event>
 6    1  0.1640458E-002  0.6196478E+03  0.7818608E-02  0.9865461E-01
          1   -1    0    0  502    0  0.00000000000E+00  0.00000000000E+00  0.99499284912E+02  0.99499284912E+02  0.00000000000E+00 0.  1.
         13   -1    0    0    0    0 -0.00000000000E+00 -0.00000000000E+00 -0.10000000000E+04  0.10000000000E+04  0.00000000000E+00 0.  1.
    9000005    2    1    2  501    0 -0.15314172082E+01  0.10791651698E+01 -0.90373312066E+03  0.10957632065E+04  0.61964501249E+03 0.  0.
         13    1    3    3    0    0  0.74467873137E+02 -0.25184660996E+03 -0.16237211372E+03  0.30876671192E+03  0.00000000000E+00 0.  1.
          1    1    3    3  501    0 -0.75999290345E+02  0.25292577513E+03 -0.74136100694E+03  0.78699649458E+03  0.00000000000E+00 0.  1.
         21    1    1    2  502  501  0.15314172082E+01 -0.10791651698E+01  0.32324055706E+01  0.37360784122E+01  0.00000000000E+00 0. -1.
<mgrwt>
<rscale>  1 0.61964784E+03</rscale>
<asrwt>0</asrwt>
<pdfrwt beam="1">  1        1 0.36181634E+00 0.61964784E+03</pdfrwt>
<pdfrwt beam="2">0</pdfrwt>
<totfact> 0.19833659E+00</totfact>
</mgrwt>
</event>
<event>
 6    1  0.1640458E-002  0.6496516E+03  0.7818608E-02  0.9807433E-01
          1   -1    0    0  502    0  0.00000000000E+00  0.00000000000E+00  0.10551438028E+03  0.10551438028E+03  0.00000000000E+00 0.  1.
         13   -1    0    0    0    0 -0.00000000000E+00 -0.00000000000E+00 -0.10000000000E+04  0.10000000000E+04  0.00000000000E+00 0.  1.
    9000005    2    1    2  501    0  0.79034945199E-03 -0.66894054598E-04 -0.89448814759E+03  0.11055117309E+04  0.64965155349E+03 0.  0.
         13    1    3    3    0    0  0.23936637983E+03 -0.95261918614E+02 -0.78390965820E+03  0.82515783287E+03  0.00000000000E+00 0.  1.
          3    1    3    3  501    0 -0.23936558948E+03  0.95261851720E+02 -0.11057848940E+03  0.28035389802E+03  0.00000000000E+00 0.  1.
         21    1    1    2  502  501 -0.79034945200E-03  0.66894054595E-04  0.25278775081E-02  0.26493946038E-02  0.00000000000E+00 0.  1.
<mgrwt>
<rscale>  1 0.64965155E+03</rscale>
<asrwt>0</asrwt>
<pdfrwt beam="1">  1        1 0.38368946E+00 0.64965155E+03</pdfrwt>
<pdfrwt beam="2">0</pdfrwt>
<totfact> 0.15806475E+00</totfact>
</mgrwt>
</event>
<event>
 6    1  0.1640458E-002  0.6518974E+03  0.7818608E-02  0.9803225E-01
          1   -1    0    0  502    0  0.00000000000E+00  0.00000000000E+00  0.10624267715E+03  0.10624267715E+03  0.00000000000E+00 0.  1.
         13   -1    0    0    0    0 -0.00000000000E+00 -0.00000000000E+00 -0.10000000000E+04  0.10000000000E+04  0.00000000000E+00 0.  1.
    9000005    2    1    2  501    0 -0.24084409091E-04  0.14050764150E-04 -0.89375744503E+03  0.11062425518E+04  0.65189739447E+03 0.  0.
         13    1    3    3    0    0  0.18523506817E+03  0.24486220957E+03 -0.63256207316E+03  0.70313889706E+03  0.00000000000E+00 0.  1.
          1    1    3    3  501    0 -0.18523509226E+03 -0.24486219552E+03 -0.26119537188E+03  0.40310365477E+03  0.00000000000E+00 0.  1.
         21    1    1    2  502  501  0.24084409102E-04 -0.14050764151E-04  0.12217994554E-03  0.12532127444E-03  0.00000000000E+00 0.  1.
<mgrwt>
<rscale>  1 0.65189739E+03</rscale>
<asrwt>0</asrwt>
<pdfrwt beam="1">  1        1 0.38633782E+00 0.65189739E+03</pdfrwt>
<pdfrwt beam="2">0</pdfrwt>
<totfact> 0.15379439E+00</totfact>
</mgrwt>
</event>
<event>
 6    1  0.1640458E-002  0.6493799E+03  0.7818608E-02  0.9807943E-01
          1   -1    0    0  502    0  0.00000000000E+00  0.00000000000E+00  0.14487873460E+03  0.14487873460E+03  0.00000000000E+00 0.  1.
         13   -1    0    0    0    0 -0.00000000000E+00 -0.00000000000E+00 -0.10000000000E+04  0.10000000000E+04  0.00000000000E+00 0.  1.
    9000005    2    1    2  501    0  0.27663966650E+00 -0.62094799186E+00 -0.89457319331E+03  0.11054209506E+04  0.64937956361E+03 0.  0.
         13    1    3    3    0    0  0.72447797428E+02 -0.31130943142E+03 -0.54807963035E+03  0.63447106053E+03  0.00000000000E+00 0.  1.
          3    1    3    3  501    0 -0.72171157761E+02  0.31068848343E+03 -0.34649356296E+03  0.47094989003E+03  0.00000000000E+00 0.  1.
         21    1    1    2  502  501 -0.27663966650E+00  0.62094799186E+00  0.39451927911E+02  0.39457784046E+02  0.00000000000E+00 0. -1.
<mgrwt>
<rscale>  1 0.64937992E+03</rscale>
<asrwt>0</asrwt>
<pdfrwt beam="1">  1        1 0.52683287E+00 0.64937992E+03</pdfrwt>
<pdfrwt beam="2">0</pdfrwt>
<totfact> 0.34214889E-01</totfact>
</mgrwt>
</event>
<event>
 6    1  0.1640458E-002  0.6298155E+03  0.7818608E-02  0.9845409E-01
          1   -1    0    0  502    0  0.00000000000E+00  0.00000000000E+00  0.99166895349E+02  0.99166895349E+02  0.00000000000E+00 0.  1.
         13   -1    0    0    0    0 -0.00000000000E+00 -0.00000000000E+00 -0.10000000000E+04  0.10000000000E+04  0.00000000000E+00 0.  1.
    9000005    2    1    2  501    0  0.35358160630E-05  0.31211904073E-04 -0.90083310808E+03  0.10991668638E+04  0.62981545372E+03 0.  0.
         13    1    3    3    0    0  0.20619506082E+03 -0.74172353247E+02 -0.55715204673E+02  0.22610202370E+03  0.00000000000E+00 0.  1.
          3    1    3    3  501    0 -0.20619505728E+03  0.74172384459E+02 -0.84511790341E+03  0.87306484005E+03  0.00000000000E+00 0.  1.
         21    1    1    2  502  501 -0.35358160718E-05 -0.31211904071E-04  0.34313856949E-05  0.31598407537E-04  0.00000000000E+00 0.  1.
<mgrwt>
<rscale>  1 0.62981545E+03</rscale>
<asrwt>0</asrwt>
<pdfrwt beam="1">  1        1 0.36060765E+00 0.62981545E+03</pdfrwt>
<pdfrwt beam="2">0</pdfrwt>
<totfact> 0.20039473E+00</totfact>
</mgrwt>
</event>
<event>
 6    1  0.1640458E-002  0.5427151E+03  0.7818608E-02  0.1003194E+00
          1   -1    0    0  502    0  0.00000000000E+00  0.00000000000E+00  0.73674558680E+02  0.73674558680E+02  0.00000000000E+00 0.  1.
         13   -1    0    0    0    0 -0.00000000000E+00 -0.00000000000E+00 -0.10000000000E+04  0.10000000000E+04  0.00000000000E+00 0.  1.
    9000005    2    1    2  501    0 -0.98386056557E-01  0.82039354939E-01 -0.92621489788E+03  0.10735053543E+04  0.54271511148E+03 0.  0.
         13    1    3    3    0    0 -0.17192474541E+03 -0.16852848405E+03 -0.71078985628E+03  0.75045465406E+03  0.00000000000E+00 0.  1.
          3    1    3    3  501    0  0.17182635935E+03  0.16861052340E+03 -0.21542504161E+03  0.32305070023E+03  0.00000000000E+00 0.  1.
         21    1    1    2  502  501  0.98386056557E-01 -0.82039354939E-01 -0.11054343587E+00  0.16920438262E+00  0.00000000000E+00 0.  1.
<mgrwt>
<rscale>  1 0.54271513E+03</rscale>
<asrwt>0</asrwt>
<pdfrwt beam="1">  1        1 0.26790805E+00 0.54271513E+03</pdfrwt>
<pdfrwt beam="2">0</pdfrwt>
<totfact> 0.51273800E+00</totfact>
</mgrwt>
</event>
<event>
 6    1  0.1640458E-002  0.6529007E+03  0.7818608E-02  0.9801351E-01
          1   -1    0    0  502    0  0.00000000000E+00  0.00000000000E+00  0.10674001301E+03  0.10674001301E+03  0.00000000000E+00 0.  1.
         13   -1    0    0    0    0 -0.00000000000E+00 -0.00000000000E+00 -0.10000000000E+04  0.10000000000E+04  0.00000000000E+00 0.  1.
    9000005    2    1    2  501    0 -0.85311945606E-02 -0.10515055443E+00 -0.89341187072E+03  0.11065550858E+04  0.65290073974E+03 0.  0.
         13    1    3    3    0    0 -0.52933388842E+02 -0.19534391486E+03 -0.12563833775E+02  0.20277829925E+03  0.00000000000E+00 0.  1.
          3    1    3    3  501    0  0.52924857647E+02  0.19523876431E+03 -0.88084803694E+03  0.90377678651E+03  0.00000000000E+00 0.  1.
         21    1    1    2  502  501  0.85311945606E-02  0.10515055443E+00  0.15188372413E+00  0.18492724524E+00  0.00000000000E+00 0. -1.
<mgrwt>
<rscale>  1 0.65290075E+03</rscale>
<asrwt>0</asrwt>
<pdfrwt beam="1">  1        1 0.38814632E+00 0.65290075E+03</pdfrwt>
<pdfrwt beam="2">0</pdfrwt>
<totfact> 0.15095629E+00</totfact>
</mgrwt>
</event>
<event>
 6    1  0.1640458E-002  0.6370792E+03  0.7818608E-02  0.9831331E-01
          1   -1    0    0  502    0  0.00000000000E+00  0.00000000000E+00  0.10146888970E+03  0.10146888970E+03  0.00000000000E+00 0.  1.
         13   -1    0    0    0    0 -0.00000000000E+00 -0.00000000000E+00 -0.10000000000E+04  0.10000000000E+04  0.00000000000E+00 0.  1.
    9000005    2    1    2  501    0 -0.19183049749E-02  0.30943719511E-02 -0.89852928747E+03  0.11014648181E+04  0.63707916706E+03 0.  0.
         13    1    3    3    0    0 -0.22943442381E+03  0.28952034572E+02 -0.82801428517E+03  0.85970112922E+03  0.00000000000E+00 0.  1.
          3    1    3    3  501    0  0.22943250550E+03 -0.28948940200E+02 -0.70515002298E+02  0.24176368890E+03  0.00000000000E+00 0.  1.
         21    1    1    2  502  501  0.19183049749E-02 -0.30943719511E-02 -0.18228351752E-02  0.40715795245E-02  0.00000000000E+00 0.  1.
<mgrwt>
<rscale>  1 0.63707917E+03</rscale>
<asrwt>0</asrwt>
<pdfrwt beam="1">  1        1 0.36897856E+00 0.63707917E+03</pdfrwt>
<pdfrwt beam="2">0</pdfrwt>
<totfact> 0.18392158E+00</totfact>
</mgrwt>
</event>
<event>
 6    1  0.1640458E-002  0.6372864E+03  0.7818608E-02  0.9830932E-01
          1   -1    0    0  502    0  0.00000000000E+00  0.00000000000E+00  0.10156083097E+03  0.10156083097E+03  0.00000000000E+00 0.  1.
         13   -1    0    0    0    0 -0.00000000000E+00 -0.00000000000E+00 -0.10000000000E+04  0.10000000000E+04  0.00000000000E+00 0.  1.
    9000005    2    1    2  501    0  0.22244963567E-02  0.39011114582E-03 -0.89846645229E+03  0.11015334544E+04  0.63728642324E+03 0.  0.
         13    1    3    3    0    0 -0.22432688624E+03  0.34123246216E+02 -0.62555469616E+02  0.23537233185E+03  0.00000000000E+00 0.  1.
          1    1    3    3  501    0  0.22432911074E+03 -0.34122856105E+02 -0.83591098268E+03  0.86616112254E+03  0.00000000000E+00 0.  1.
         21    1    1    2  502  501 -0.22244963567E-02 -0.39011114582E-03  0.27283267828E-01  0.27376582587E-01  0.00000000000E+00 0.  1.
<mgrwt>
<rscale>  1 0.63728642E+03</rscale>
<asrwt>0</asrwt>
<pdfrwt beam="1">  1        1 0.36931289E+00 0.63728642E+03</pdfrwt>
<pdfrwt beam="2">0</pdfrwt>
<totfact> 0.18329411E+00</totfact>
</mgrwt>
</event>
<event>
 6    1  0.1640458E-002  0.6474139E+03  0.7818608E-02  0.9811644E-01
          1   -1    0    0  502    0  0.00000000000E+00  0.00000000000E+00  0.10500914700E+03  0.10500914700E+03  0.00000000000E+00 0.  1.
         13   -1    0    0    0    0 -0.00000000000E+00 -0.00000000000E+00 -0.10000000000E+04  0.10000000000E+04  0.00000000000E+00 0.  1.
    9000005    2    1    2  501    0 -0.64680526904E+00  0.52820625036E-02 -0.89444177668E+03  0.11041606956E+04  0.64741357066E+03 0.  0.
         13    1    3    3    0    0 -0.16895701321E+03  0.27620794604E+03 -0.43430709123E+03  0.54171943962E+03  0.00000000000E+00 0.  1.
          3    1    3    3  501    0  0.16831020794E+03 -0.27620266398E+03 -0.46013468545E+03  0.56244125599E+03  0.00000000000E+00 0.  1.
         21    1    1    2  502  501  0.64680526904E+00 -0.52820625036E-02 -0.54907631949E+00  0.84845138981E+00  0.00000000000E+00 0. -1.
<mgrwt>
<rscale>  1 0.64741389E+03</rscale>
<asrwt>0</asrwt>
<pdfrwt beam="1">  1        1 0.38185225E+00 0.64741389E+03</pdfrwt>
<pdfrwt beam="2">0</pdfrwt>
<totfact> 0.16111331E+00</totfact>
</mgrwt>
</event>
<event>
 6    1  0.1640458E-002  0.6564211E+03  0.7818608E-02  0.9794804E-01
          1   -1    0    0  502    0  0.00000000000E+00  0.00000000000E+00  0.11366871436E+03  0.11366871436E+03  0.00000000000E+00 0.  1.
         13   -1    0    0    0    0 -0.00000000000E+00 -0.00000000000E+00 -0.10000000000E+04  0.10000000000E+04  0.00000000000E+00 0.  1.
    9000005    2    1    2  501    0 -0.14129807423E+01 -0.22358781853E+01 -0.89195028213E+03  0.11074583370E+04  0.65641577270E+03 0.  0.
         13    1    3    3    0    0 -0.26897451641E+03  0.10340311079E+03 -0.18043841682E+03  0.33999634713E+03  0.00000000000E+00 0.  1.
          3    1    3    3  501    0  0.26756153567E+03 -0.10563898897E+03 -0.71151186531E+03  0.76746198983E+03  0.00000000000E+00 0.  1.
         21    1    1    2  502  501  0.14129807423E+01  0.22358781853E+01  0.56189964861E+01  0.62103773918E+01  0.00000000000E+00 0. -1.
<mgrwt>
<rscale>  1 0.65642110E+03</rscale>
<asrwt>0</asrwt>
<pdfrwt beam="1">  1        1 0.41334165E+00 0.65642110E+03</pdfrwt>
<pdfrwt beam="2">0</pdfrwt>
<totfact> 0.11646124E+00</totfact>
</mgrwt>
</event>
<event>
 6    1  0.1640458E-002  0.6449919E+03  0.7818608E-02  0.9816222E-01
          1   -1    0    0  502    0  0.00000000000E+00  0.00000000000E+00  0.10400560284E+03  0.10400560284E+03  0.00000000000E+00 0.  1.
         13   -1    0    0    0    0 -0.00000000000E+00 -0.00000000000E+00 -0.10000000000E+04  0.10000000000E+04  0.00000000000E+00 0.  1.
    9000005    2    1    2  501    0  0.38307577558E-04  0.62697393332E-04 -0.89599637719E+03  0.11040036215E+04  0.64499185130E+03 0.  0.
         13    1    3    3    0    0 -0.24442620608E+02  0.30645698023E+03 -0.28125175731E+03  0.41667238140E+03  0.00000000000E+00 0.  1.
          1    1    3    3  501    0  0.24442658916E+02 -0.30645691753E+03 -0.61474461988E+03  0.68733124005E+03  0.00000000000E+00 0.  1.
         21    1    1    2  502  501 -0.38307577559E-04 -0.62697393356E-04  0.19800251182E-02  0.19813878728E-02  0.00000000000E+00 0.  1.
<mgrwt>
<rscale>  1 0.64499185E+03</rscale>
<asrwt>0</asrwt>
<pdfrwt beam="1">  1        1 0.37820299E+00 0.64499185E+03</pdfrwt>
<pdfrwt beam="2">0</pdfrwt>
<totfact> 0.16727319E+00</totfact>
</mgrwt>
</event>
<event>
 6    1  0.1640458E-002  0.6531039E+03  0.7818608E-02  0.9800972E-01
          1   -1    0    0  502    0  0.00000000000E+00  0.00000000000E+00  0.10669817055E+03  0.10669817055E+03  0.00000000000E+00 0.  1.
         13   -1    0    0    0    0 -0.00000000000E+00 -0.00000000000E+00 -0.10000000000E+04  0.10000000000E+04  0.00000000000E+00 0.  1.
    9000005    2    1    2  501    0 -0.22045541281E-02 -0.14718175092E-01 -0.89336283375E+03  0.11066353772E+04  0.65310390066E+03 0.  0.
         13    1    3    3    0    0  0.77939334977E+02 -0.22775487036E+03 -0.72789797461E+02  0.25148593504E+03  0.00000000000E+00 0.  1.
          1    1    3    3  501    0 -0.77941539531E+02  0.22774015218E+03 -0.82057303628E+03  0.85514944213E+03  0.00000000000E+00 0.  1.
         21    1    1    2  502  501  0.22045541281E-02  0.14718175092E-01  0.61004294489E-01  0.62793380885E-01  0.00000000000E+00 0. -1.
<mgrwt>
<rscale>  1 0.65310390E+03</rscale>
<asrwt>0</asrwt>
<pdfrwt beam="1">  1        1 0.38799417E+00 0.65310390E+03</pdfrwt>
<pdfrwt beam="2">0</pdfrwt>
<totfact> 0.15118509E+00</totfact>
</mgrwt>
</event>
<event>
 6    1  0.1640458E-002  0.6471843E+03  0.7818608E-02  0.9812077E-01
          1   -1    0    0  502    0  0.00000000000E+00  0.00000000000E+00  0.10471253311E+03  0.10471253311E+03  0.00000000000E+00 0.  1.
         13   -1    0    0    0    0 -0.00000000000E+00 -0.00000000000E+00 -0.10000000000E+04  0.10000000000E+04  0.00000000000E+00 0.  1.
    9000005    2    1    2  501    0  0.24046676823E-03 -0.41362874634E-03 -0.89528802904E+03  0.11047117949E+04  0.64718428201E+03 0.  0.
         13    1    3    3    0    0  0.10646349840E+03 -0.30499431847E+03 -0.47985168830E+03  0.57845799636E+03  0.00000000000E+00 0.  1.
          3    1    3    3  501    0 -0.10646325793E+03  0.30499390484E+03 -0.41543634074E+03  0.52625379855E+03  0.00000000000E+00 0.  1.
         21    1    1    2  502  501 -0.24046676823E-03  0.41362874634E-03  0.56215659207E-03  0.73819580088E-03  0.00000000000E+00 0.  1.
<mgrwt>
<rscale>  1 0.64718428E+03</rscale>
<asrwt>0</asrwt>
<pdfrwt beam="1">  1        1 0.38077365E+00 0.64718428E+03</pdfrwt>
<pdfrwt beam="2">0</pdfrwt>
<totfact> 0.16289653E+00</totfact>
</mgrwt>
</event>
<event>
 6    1  0.1640458E-002  0.6476971E+03  0.7818608E-02  0.9811110E-01
          1   -1    0    0  502    0  0.00000000000E+00  0.00000000000E+00  0.10487881170E+03  0.10487881170E+03  0.00000000000E+00 0.  1.
         13   -1    0    0    0    0 -0.00000000000E+00 -0.00000000000E+00 -0.10000000000E+04  0.10000000000E+04  0.00000000000E+00 0.  1.
    9000005    2    1    2  501    0  0.18931948501E-02 -0.97677980506E-03 -0.89512045466E+03  0.11048765586E+04  0.64769713705E+03 0.  0.
         13    1    3    3    0    0  0.14420330618E+03 -0.15966397765E+03 -0.34648885576E+02  0.21791678353E+03  0.00000000000E+00 0.  1.
          3    1    3    3  501    0 -0.14420141299E+03  0.15966300087E+03 -0.86047156909E+03  0.88695977505E+03  0.00000000000E+00 0.  1.
         21    1    1    2  502  501 -0.18931948501E-02  0.97677980507E-03 -0.73364135645E-03  0.22531123292E-02  0.00000000000E+00 0.  1.
<mgrwt>
<rscale>  1 0.64769714E+03</rscale>
<asrwt>0</asrwt>
<pdfrwt beam="1">  1        1 0.38137830E+00 0.64769714E+03</pdfrwt>
<pdfrwt beam="2">0</pdfrwt>
<totfact> 0.16188312E+00</totfact>
</mgrwt>
</event>
<event>
 6    1  0.1640458E-002  0.6373141E+03  0.7818608E-02  0.9830879E-01
          1   -1    0    0  502    0  0.00000000000E+00  0.00000000000E+00  0.10154232150E+03  0.10154232150E+03  0.00000000000E+00 0.  1.
         13   -1    0    0    0    0 -0.00000000000E+00 -0.00000000000E+00 -0.10000000000E+04  0.10000000000E+04  0.00000000000E+00 0.  1.
    9000005    2    1    2  501    0  0.85403315708E-05  0.79669184743E-05 -0.89845769098E+03  0.11015423044E+04  0.63731407165E+03 0.  0.
         13    1    3    3    0    0  0.33895775883E+02 -0.30932243958E+03 -0.33057089908E+03  0.45398944324E+03  0.00000000000E+00 0.  1.
          1    1    3    3  501    0 -0.33895767343E+02  0.30932244755E+03 -0.56788679189E+03  0.64755286117E+03  0.00000000000E+00 0.  1.
         21    1    1    2  502  501 -0.85403315695E-05 -0.79669184501E-05  0.12474428713E-04  0.17088605111E-04  0.00000000000E+00 0. -1.
<mgrwt>
<rscale>  1 0.63731407E+03</rscale>
<asrwt>0</asrwt>
<pdfrwt beam="1">  1        1 0.36924558E+00 0.63731407E+03</pdfrwt>
<pdfrwt beam="2">0</pdfrwt>
<totfact> 0.18341795E+00</totfact>
</mgrwt>
</event>
<event>
 6    1  0.1640458E-002  0.6288474E+03  0.7818608E-02  0.9847301E-01
          1   -1    0    0  502    0  0.00000000000E+00  0.00000000000E+00  0.98863152672E+02  0.98863152672E+02  0.00000000000E+00 0.  1.
         13   -1    0    0    0    0 -0.00000000000E+00 -0.00000000000E+00 -0.10000000000E+04  0.10000000000E+04  0.00000000000E+00 0.  1.
    9000005    2    1    2  501    0 -0.56487955532E-03 -0.17575369382E-02 -0.90113649997E+03  0.10988612742E+04  0.62884744441E+03 0.  0.
         13    1    3    3    0    0  0.97782042510E+01 -0.14249420366E+03 -0.94004110288E+03  0.95082989355E+03  0.00000000000E+00 0.  1.
          1    1    3    3  501    0 -0.97787691306E+01  0.14249244612E+03  0.38904602916E+02  0.14803138064E+03  0.00000000000E+00 0.  1.
         21    1    1    2  502  501  0.56487955532E-03  0.17575369381E-02 -0.34735953603E-03  0.18784790785E-02  0.00000000000E+00 0. -1.
<mgrwt>
<rscale>  1 0.62884744E+03</rscale>
<asrwt>0</asrwt>
<pdfrwt beam="1">  1        1 0.35950313E+00 0.62884744E+03</pdfrwt>
<pdfrwt beam="2">0</pdfrwt>
<totfact> 0.20267157E+00</totfact>
</mgrwt>
</event>
<event>
 6    1  0.1640458E-002  0.6556261E+03  0.7818608E-02  0.9796279E-01
          1   -1    0    0  502    0  0.00000000000E+00  0.00000000000E+00  0.10753154392E+03  0.10753154392E+03  0.00000000000E+00 0.  1.
         13   -1    0    0    0    0 -0.00000000000E+00 -0.00000000000E+00 -0.10000000000E+04  0.10000000000E+04  0.00000000000E+00 0.  1.
    9000005    2    1    2  501    0 -0.90054259399E-03  0.93327735621E-03 -0.89253860894E+03  0.11074613791E+04  0.65562606544E+03 0.  0.
         13    1    3    3    0    0  0.21799370667E+02  0.23418002674E+03 -0.60539878309E+02  0.24285916568E+03  0.00000000000E+00 0.  1.
          3    1    3    3  501    0 -0.21800271209E+02 -0.23417909347E+03 -0.83199873063E+03  0.86460221340E+03  0.00000000000E+00 0.  1.
         21    1    1    2  502  501  0.90054259399E-03 -0.93327735622E-03  0.70152857498E-01  0.70164844465E-01  0.00000000000E+00 0.  1.
<mgrwt>
<rscale>  1 0.65562607E+03</rscale>
<asrwt>0</asrwt>
<pdfrwt beam="1">  1        1 0.39102462E+00 0.65562607E+03</pdfrwt>
<pdfrwt beam="2">0</pdfrwt>
<totfact> 0.14651093E+00</totfact>
</mgrwt>
</event>
<event>
 6    1  0.1640458E-002  0.6490906E+03  0.7818608E-02  0.9808487E-01
          1   -1    0    0  502    0  0.00000000000E+00  0.00000000000E+00  0.10532966357E+03  0.10532966357E+03  0.00000000000E+00 0.  1.
         13   -1    0    0    0    0 -0.00000000000E+00 -0.00000000000E+00 -0.10000000000E+04  0.10000000000E+04  0.00000000000E+00 0.  1.
    9000005    2    1    2  501    0  0.17117659766E-04 -0.18134555610E-04 -0.89467035207E+03  0.11053296341E+04  0.64909056473E+03 0.  0.
         13    1    3    3    0    0 -0.91262677092E+02  0.14855849125E+02  0.82425207267E+02  0.12386883093E+03  0.00000000000E+00 0.  1.
          1    1    3    3  501    0  0.91262694210E+02 -0.14855867259E+02 -0.97709555934E+03  0.98146080320E+03  0.00000000000E+00 0.  1.
         21    1    1    2  502  501 -0.17117659770E-04  0.18134555611E-04  0.15647074795E-04  0.29439893560E-04  0.00000000000E+00 0. -1.
<mgrwt>
<rscale>  1 0.64909056E+03</rscale>
<asrwt>0</asrwt>
<pdfrwt beam="1">  1        1 0.38301777E+00 0.64909056E+03</pdfrwt>
<pdfrwt beam="2">0</pdfrwt>
<totfact> 0.15916537E+00</totfact>
</mgrwt>
</event>
<event>
 6    1  0.1640458E-002  0.6468505E+03  0.7818608E-02  0.9812707E-01
          1   -1    0    0  502    0  0.00000000000E+00  0.00000000000E+00  0.10460512831E+03  0.10460512831E+03  0.00000000000E+00 0.  1.
         13   -1    0    0    0    0 -0.00000000000E+00 -0.00000000000E+00 -0.10000000000E+04  0.10000000000E+04  0.00000000000E+00 0.  1.
    9000005    2    1    2  501    0  0.44680527814E-04  0.55266903360E-04 -0.89539609185E+03  0.11046039061E+04  0.64685054535E+03 0.  0.
         13    1    3    3    0    0  0.47471923313E+02 -0.90599506655E+02 -0.97165359770E+03  0.97702229659E+03  0.00000000000E+00 0.  1.
          1    1    3    3  501    0 -0.47471878633E+02  0.90599561922E+02  0.76257505849E+02  0.12758160949E+03  0.00000000000E+00 0.  1.
         21    1    1    2  502  501 -0.44680527814E-04 -0.55266903361E-04  0.12201606541E-02  0.12222286210E-02  0.00000000000E+00 0.  1.
<mgrwt>
<rscale>  1 0.64685055E+03</rscale>
<asrwt>0</asrwt>
<pdfrwt beam="1">  1        1 0.38038309E+00 0.64685055E+03</pdfrwt>
<pdfrwt beam="2">0</pdfrwt>
<totfact> 0.16355440E+00</totfact>
</mgrwt>
</event>
<event>
 6    1  0.1640458E-002  0.6570495E+03  0.7818608E-02  0.9793641E-01
          1   -1    0    0  502    0  0.00000000000E+00  0.00000000000E+00  0.10797813879E+03  0.10797813879E+03  0.00000000000E+00 0.  1.
         13   -1    0    0    0    0 -0.00000000000E+00 -0.00000000000E+00 -0.10000000000E+04  0.10000000000E+04  0.00000000000E+00 0.  1.
    9000005    2    1    2  501    0 -0.61166067701E-03  0.15549406657E-02 -0.89207148175E+03  0.11079284901E+04  0.65704947354E+03 0.  0.
         13    1    3    3    0    0 -0.20694094985E+03 -0.24160122425E+03 -0.58439291550E+03  0.66536515386E+03  0.00000000000E+00 0.  1.
          1    1    3    3  501    0  0.20694033818E+03  0.24160277919E+03 -0.30767856625E+03  0.44256333627E+03  0.00000000000E+00 0.  1.
         21    1    1    2  502  501  0.61166067699E-03 -0.15549406657E-02  0.49620543114E-01  0.49648668343E-01  0.00000000000E+00 0. -1.
<mgrwt>
<rscale>  1 0.65704947E+03</rscale>
<asrwt>0</asrwt>
<pdfrwt beam="1">  1        1 0.39264861E+00 0.65704947E+03</pdfrwt>
<pdfrwt beam="2">0</pdfrwt>
<totfact> 0.14406090E+00</totfact>
</mgrwt>
</event>
