<event>
 6    1  0.3915971E-003  0.6563081E+03  0.7818608E-02  0.9795014E-01
          1   -1    0    0  502    0  0.00000000000E+00  0.00000000000E+00  0.10794161670E+03  0.10794161670E+03  0.00000000000E+00 0.  1.
         13   -1    0    0    0    0 -0.00000000000E+00 -0.00000000000E+00 -0.10000000000E+04  0.10000000000E+04  0.00000000000E+00 0.  1.
    9000005    2    1    2  501    0  0.25324734716E+00 -0.19704567970E+00 -0.89219863457E+03  0.11075914287E+04  0.65630805757E+03 0.  0.
         13    1    3    3    0    0  0.28812444567E+03  0.63121573641E+02 -0.20315295998E+03  0.35814962572E+03  0.00000000000E+00 0.  1.
          1    1    3    3  501    0 -0.28787119833E+03 -0.63318619321E+02 -0.68904567459E+03  0.74944180298E+03  0.00000000000E+00 0.  1.
         21    1    1    2  502  501 -0.25324734716E+00  0.19704567970E+00  0.14025127147E+00  0.35018800363E+00  0.00000000000E+00 0. -1.
<mgrwt>
<rscale>  1 0.65630814E+03</rscale>
<asrwt>0</asrwt>
<pdfrwt beam="1">  1        1 0.39251580E+00 0.65630814E+03</pdfrwt>
<pdfrwt beam="2">0</pdfrwt>
<totfact> 0.14427655E+00</totfact>
</mgrwt>
</event>
<event>
 6    1  0.3915971E-003  0.6460373E+03  0.7818608E-02  0.9814243E-01
          1   -1    0    0  502    0  0.00000000000E+00  0.00000000000E+00  0.10802149511E+03  0.10802149511E+03  0.00000000000E+00 0.  1.
         13   -1    0    0    0    0 -0.00000000000E+00 -0.00000000000E+00 -0.10000000000E+04  0.10000000000E+04  0.00000000000E+00 0.  1.
    9000005    2    1    2  501    0 -0.88214448261E+01  0.19088630903E+01 -0.86535013892E+03  0.10799051027E+04  0.64597423035E+03 0.  0.
         13    1    3    3    0    0  0.22257582842E+03  0.22136712841E+03 -0.53801037748E+03  0.62289531320E+03  0.00000000000E+00 0.  1.
          1    1    3    3  501    0 -0.23139727325E+03 -0.21945826531E+03 -0.32733976144E+03  0.45700978950E+03  0.00000000000E+00 0.  1.
         21    1    1    2  502  501  0.88214448261E+01 -0.19088630903E+01 -0.26628365978E+02  0.28116392404E+02  0.00000000000E+00 0.  1.
<mgrwt>
<rscale>  1 0.64603728E+03</rscale>
<asrwt>0</asrwt>
<pdfrwt beam="1">  1        1 0.39280627E+00 0.64603728E+03</pdfrwt>
<pdfrwt beam="2">0</pdfrwt>
<totfact> 0.14412572E+00</totfact>
</mgrwt>
</event>
<event>
 6    1  0.3915971E-003  0.6498023E+03  0.7818608E-02  0.9807150E-01
          1   -1    0    0  502    0  0.00000000000E+00  0.00000000000E+00  0.10556458745E+03  0.10556458745E+03  0.00000000000E+00 0.  1.
         13   -1    0    0    0    0 -0.00000000000E+00 -0.00000000000E+00 -0.10000000000E+04  0.10000000000E+04  0.00000000000E+00 0.  1.
    9000005    2    1    2  501    0 -0.14394672437E-02 -0.23444875739E-02 -0.89443869355E+03  0.11055603057E+04  0.64980228757E+03 0.  0.
         13    1    3    3    0    0  0.25492546181E+03 -0.18719456928E+03 -0.57376402376E+03  0.65515948654E+03  0.00000000000E+00 0.  1.
          3    1    3    3  501    0 -0.25492690128E+03  0.18719222479E+03 -0.32067466980E+03  0.45040081912E+03  0.00000000000E+00 0.  1.
         21    1    1    2  502  501  0.14394672437E-02  0.23444875739E-02  0.32810007069E-02  0.42817815882E-02  0.00000000000E+00 0.  1.
<mgrwt>
<rscale>  1 0.64980229E+03</rscale>
<asrwt>0</asrwt>
<pdfrwt beam="1">  1        1 0.38387204E+00 0.64980229E+03</pdfrwt>
<pdfrwt beam="2">0</pdfrwt>
<totfact> 0.15776690E+00</totfact>
</mgrwt>
</event>
<event>
 6    1  0.3915971E-003  0.6477927E+03  0.7818608E-02  0.9810930E-01
          1   -1    0    0  502    0  0.00000000000E+00  0.00000000000E+00  0.10654447116E+03  0.10654447116E+03  0.00000000000E+00 0.  1.
         13   -1    0    0    0    0 -0.00000000000E+00 -0.00000000000E+00 -0.10000000000E+04  0.10000000000E+04  0.00000000000E+00 0.  1.
    9000005    2    1    2  501    0  0.13380737975E+00  0.19918665547E+00 -0.89508141549E+03  0.11049009727E+04  0.64779268409E+03 0.  0.
         13    1    3    3    0    0  0.31210216587E+03  0.76729824272E+02 -0.37794669377E+03  0.49612390711E+03  0.00000000000E+00 0.  1.
          1    1    3    3  501    0 -0.31196835849E+03 -0.76530637617E+02 -0.51713472172E+03  0.60877706560E+03  0.00000000000E+00 0.  1.
         21    1    1    2  502  501 -0.13380737975E+00 -0.19918665547E+00  0.16258866549E+01  0.16434984494E+01  0.00000000000E+00 0.  1.
<mgrwt>
<rscale>  1 0.64779273E+03</rscale>
<asrwt>0</asrwt>
<pdfrwt beam="1">  1        1 0.38743526E+00 0.64779273E+03</pdfrwt>
<pdfrwt beam="2">0</pdfrwt>
<totfact> 0.15219928E+00</totfact>
</mgrwt>
</event>
<event>
 6    1  0.3915971E-003  0.6515467E+03  0.7818608E-02  0.9803881E-01
          1   -1    0    0  502    0  0.00000000000E+00  0.00000000000E+00  0.10612846260E+03  0.10612846260E+03  0.00000000000E+00 0.  1.
         13   -1    0    0    0    0 -0.00000000000E+00 -0.00000000000E+00 -0.10000000000E+04  0.10000000000E+04  0.00000000000E+00 0.  1.
    9000005    2    1    2  501    0  0.24362709610E-04  0.21426230603E-05 -0.89387172799E+03  0.11061282704E+04  0.65154668641E+03 0.  0.
         13    1    3    3    0    0 -0.24772131523E+03 -0.20999534620E+03 -0.49069457945E+03  0.58842592206E+03  0.00000000000E+00 0.  1.
          1    1    3    3  501    0  0.24772133960E+03  0.20999534835E+03 -0.40317714854E+03  0.51770234839E+03  0.00000000000E+00 0.  1.
         21    1    1    2  502  501 -0.24362709615E-04 -0.21426230597E-05  0.19059391875E-03  0.19215664005E-03  0.00000000000E+00 0. -1.
<mgrwt>
<rscale>  1 0.65154669E+03</rscale>
<asrwt>0</asrwt>
<pdfrwt beam="1">  1        1 0.38592250E+00 0.65154669E+03</pdfrwt>
<pdfrwt beam="2">0</pdfrwt>
<totfact> 0.15445671E+00</totfact>
</mgrwt>
</event>
<event>
 6    1  0.3915971E-003  0.6475963E+03  0.7818608E-02  0.9811300E-01
          1   -1    0    0  502    0  0.00000000000E+00  0.00000000000E+00  0.10484642702E+03  0.10484642702E+03  0.00000000000E+00 0.  1.
         13   -1    0    0    0    0 -0.00000000000E+00 -0.00000000000E+00 -0.10000000000E+04  0.10000000000E+04  0.00000000000E+00 0.  1.
    9000005    2    1    2  501    0  0.24029484779E-03  0.34515255095E-04 -0.89515475854E+03  0.11048452169E+04  0.64759625654E+03 0.  0.
         13    1    3    3    0    0 -0.12651731813E+03  0.28460466169E+03 -0.29652729314E+03  0.43004055718E+03  0.00000000000E+00 0.  1.
          3    1    3    3  501    0  0.12651755842E+03 -0.28460462718E+03 -0.59862746540E+03  0.67480465969E+03  0.00000000000E+00 0.  1.
         21    1    1    2  502  501 -0.24029484779E-03 -0.34515255067E-04  0.11855600937E-02  0.12101593500E-02  0.00000000000E+00 0.  1.
<mgrwt>
<rscale>  1 0.64759626E+03</rscale>
<asrwt>0</asrwt>
<pdfrwt beam="1">  1        1 0.38126054E+00 0.64759626E+03</pdfrwt>
<pdfrwt beam="2">0</pdfrwt>
<totfact> 0.16208005E+00</totfact>
</mgrwt>
</event>
<event>
 6    1  0.3915971E-003  0.6492321E+03  0.7818608E-02  0.9808221E-01
          1   -1    0    0  502    0  0.00000000000E+00  0.00000000000E+00  0.10538397665E+03  0.10538397665E+03  0.00000000000E+00 0.  1.
         13   -1    0    0    0    0 -0.00000000000E+00 -0.00000000000E+00 -0.10000000000E+04  0.10000000000E+04  0.00000000000E+00 0.  1.
    9000005    2    1    2  501    0 -0.10783267741E-03  0.31686360779E-03 -0.89462442426E+03  0.11053755691E+04  0.64923207577E+03 0.  0.
         13    1    3    3    0    0  0.40354600346E+02  0.27079549346E+03 -0.74425176671E+03  0.79301285318E+03  0.00000000000E+00 0.  1.
          1    1    3    3  501    0 -0.40354708178E+02 -0.27079517660E+03 -0.15037265755E+03  0.31236271590E+03  0.00000000000E+00 0.  1.
         21    1    1    2  502  501  0.10783267741E-03 -0.31686360779E-03  0.84009111826E-02  0.84075762934E-02  0.00000000000E+00 0. -1.
<mgrwt>
<rscale>  1 0.64923208E+03</rscale>
<asrwt>0</asrwt>
<pdfrwt beam="1">  1        1 0.38321527E+00 0.64923208E+03</pdfrwt>
<pdfrwt beam="2">0</pdfrwt>
<totfact> 0.15884168E+00</totfact>
</mgrwt>
</event>
<event>
 6    1  0.3915971E-003  0.6504603E+03  0.7818608E-02  0.9805916E-01
          1   -1    0    0  502    0  0.00000000000E+00  0.00000000000E+00  0.10580495455E+03  0.10580495455E+03  0.00000000000E+00 0.  1.
         13   -1    0    0    0    0 -0.00000000000E+00 -0.00000000000E+00 -0.10000000000E+04  0.10000000000E+04  0.00000000000E+00 0.  1.
    9000005    2    1    2  501    0  0.89506152793E-03  0.81633031010E-03 -0.89422532475E+03  0.11057746510E+04  0.65046033501E+03 0.  0.
         13    1    3    3    0    0 -0.17465233259E+03 -0.27310672721E+03 -0.40266568436E+03  0.51694329968E+03  0.00000000000E+00 0.  1.
          1    1    3    3  501    0  0.17465322765E+03  0.27310754354E+03 -0.49155964039E+03  0.58883135135E+03  0.00000000000E+00 0.  1.
         21    1    1    2  502  501 -0.89506152794E-03 -0.81633031012E-03  0.30279304846E-01  0.30303528380E-01  0.00000000000E+00 0. -1.
<mgrwt>
<rscale>  1 0.65046034E+03</rscale>
<asrwt>0</asrwt>
<pdfrwt beam="1">  1        1 0.38474610E+00 0.65046034E+03</pdfrwt>
<pdfrwt beam="2">0</pdfrwt>
<totfact> 0.15635015E+00</totfact>
</mgrwt>
</event>
<event>
 6    1  0.3915971E-003  0.6536381E+03  0.7818608E-02  0.9799976E-01
          1   -1    0    0  502    0  0.00000000000E+00  0.00000000000E+00  0.10682393030E+03  0.10682393030E+03  0.00000000000E+00 0.  1.
         13   -1    0    0    0    0 -0.00000000000E+00 -0.00000000000E+00 -0.10000000000E+04  0.10000000000E+04  0.00000000000E+00 0.  1.
    9000005    2    1    2  501    0  0.16628493607E-02  0.57236278924E-02 -0.89318857920E+03  0.11068100734E+04  0.65363805016E+03 0.  0.
         13    1    3    3    0    0 -0.21995071219E+03  0.17080899107E+03 -0.15695952840E+03  0.31967220833E+03  0.00000000000E+00 0.  1.
          3    1    3    3  501    0  0.21995237504E+03 -0.17080326744E+03 -0.73622905080E+03  0.78713786511E+03  0.00000000000E+00 0.  1.
         21    1    1    2  502  501 -0.16628493607E-02 -0.57236278924E-02  0.12509502821E-01  0.13856862743E-01  0.00000000000E+00 0.  1.
<mgrwt>
<rscale>  1 0.65363805E+03</rscale>
<asrwt>0</asrwt>
<pdfrwt beam="1">  1        1 0.38845147E+00 0.65363805E+03</pdfrwt>
<pdfrwt beam="2">0</pdfrwt>
<totfact> 0.15046651E+00</totfact>
</mgrwt>
</event>
<event>
 6    1  0.3915971E-003  0.6589561E+03  0.7818608E-02  0.9790117E-01
          1   -1    0    0  502    0  0.00000000000E+00  0.00000000000E+00  0.10860941678E+03  0.10860941678E+03  0.00000000000E+00 0.  1.
         13   -1    0    0    0    0 -0.00000000000E+00 -0.00000000000E+00 -0.10000000000E+04  0.10000000000E+04  0.00000000000E+00 0.  1.
    9000005    2    1    2  501    0  0.10610406182E+00  0.12242565630E+00 -0.89119608307E+03  0.11083562836E+04  0.65895611887E+03 0.  0.
         13    1    3    3    0    0 -0.98597676840E+02 -0.29134628042E+03 -0.64384604357E+03  0.71354178912E+03  0.00000000000E+00 0.  1.
          1    1    3    3  501    0  0.98703780902E+02  0.29146870608E+03 -0.24735003950E+03  0.39481449445E+03  0.00000000000E+00 0.  1.
         21    1    1    2  502  501 -0.10610406182E+00 -0.12242565630E+00 -0.19450015447E+00  0.25313321264E+00  0.00000000000E+00 0. -1.
<mgrwt>
<rscale>  1 0.65895614E+03</rscale>
<asrwt>0</asrwt>
<pdfrwt beam="1">  1        1 0.39494417E+00 0.65895614E+03</pdfrwt>
<pdfrwt beam="2">0</pdfrwt>
<totfact> 0.14066656E+00</totfact>
</mgrwt>
</event>
<event>
 6    1  0.3915971E-003  0.6468689E+03  0.7818608E-02  0.9812672E-01
          1   -1    0    0  502    0  0.00000000000E+00  0.00000000000E+00  0.10461463882E+03  0.10461463882E+03  0.00000000000E+00 0.  1.
         13   -1    0    0    0    0 -0.00000000000E+00 -0.00000000000E+00 -0.10000000000E+04  0.10000000000E+04  0.00000000000E+00 0.  1.
    9000005    2    1    2  501    0 -0.53254698690E-03  0.62578421705E-03 -0.89539012523E+03  0.11046098044E+04  0.64686887671E+03 0.  0.
         13    1    3    3    0    0 -0.43848869597E+02 -0.21181522422E+03 -0.85831153664E+03  0.88514807039E+03  0.00000000000E+00 0.  1.
          3    1    3    3  501    0  0.43848337050E+02  0.21181585000E+03 -0.37078588590E+02  0.21946173404E+03  0.00000000000E+00 0.  1.
         21    1    1    2  502  501  0.53254698690E-03 -0.62578421705E-03  0.47640529770E-02  0.48343989230E-02  0.00000000000E+00 0.  1.
<mgrwt>
<rscale>  1 0.64686888E+03</rscale>
<asrwt>0</asrwt>
<pdfrwt beam="1">  1        1 0.38041767E+00 0.64686888E+03</pdfrwt>
<pdfrwt beam="2">0</pdfrwt>
<totfact> 0.16349638E+00</totfact>
</mgrwt>
</event>
<event>
 6    1  0.3915971E-003  0.6331944E+03  0.7818608E-02  0.9838835E-01
          1   -1    0    0  502    0  0.00000000000E+00  0.00000000000E+00  0.10023380638E+03  0.10023380638E+03  0.00000000000E+00 0.  1.
         13   -1    0    0    0    0 -0.00000000000E+00 -0.00000000000E+00 -0.10000000000E+04  0.10000000000E+04  0.00000000000E+00 0.  1.
    9000005    2    1    2  501    0  0.10329627358E-05  0.19164986043E-05 -0.89976619885E+03  0.11002338007E+04  0.63319444378E+03 0.  0.
         13    1    3    3    0    0 -0.40600240812E+02  0.26923420083E+03 -0.16917525296E+03  0.32055530048E+03  0.00000000000E+00 0.  1.
          3    1    3    3  501    0  0.40600241845E+02 -0.26923419892E+03 -0.73059094589E+03  0.77967850023E+03  0.00000000000E+00 0.  1.
         21    1    1    2  502  501 -0.10329627386E-05 -0.19164986172E-05  0.52365761906E-05  0.56711294438E-05  0.00000000000E+00 0. -1.
<mgrwt>
<rscale>  1 0.63319444E+03</rscale>
<asrwt>0</asrwt>
<pdfrwt beam="1">  1        1 0.36448734E+00 0.63319444E+03</pdfrwt>
<pdfrwt beam="2">0</pdfrwt>
<totfact> 0.19259092E+00</totfact>
</mgrwt>
</event>
<event>
 6    1  0.3915971E-003  0.6266088E+03  0.7818608E-02  0.9851689E-01
          1   -1    0    0  502    0  0.00000000000E+00  0.00000000000E+00  0.11783669990E+03  0.11783669990E+03  0.00000000000E+00 0.  1.
         13   -1    0    0    0    0 -0.00000000000E+00 -0.00000000000E+00 -0.10000000000E+04  0.10000000000E+04  0.00000000000E+00 0.  1.
    9000005    2    1    2  501    0  0.13824595764E+02 -0.30380029352E+01 -0.89900785139E+03  0.10958347041E+04  0.62644890693E+03 0.  0.
         13    1    3    3    0    0 -0.22111218139E+03 -0.14515735223E+03 -0.72255826348E+03  0.76944895723E+03  0.00000000000E+00 0.  1.
          1    1    3    3  501    0  0.23493677715E+03  0.14211934930E+03 -0.17644958791E+03  0.32638574690E+03  0.00000000000E+00 0.  1.
         21    1    1    2  502  501 -0.13824595764E+02  0.30380029352E+01  0.16844551293E+02  0.22001995776E+02  0.00000000000E+00 0.  1.
<mgrwt>
<rscale>  1 0.62660879E+03</rscale>
<asrwt>0</asrwt>
<pdfrwt beam="1">  1        1 0.42849799E+00 0.62660879E+03</pdfrwt>
<pdfrwt beam="2">0</pdfrwt>
<totfact> 0.10009175E+00</totfact>
</mgrwt>
</event>
<event>
 6    1  0.3915971E-003  0.6142124E+03  0.7818608E-02  0.9876351E-01
          1   -1    0    0  502    0  0.00000000000E+00  0.00000000000E+00  0.95254490105E+02  0.95254490105E+02  0.00000000000E+00 0.  1.
         13   -1    0    0    0    0 -0.00000000000E+00 -0.00000000000E+00 -0.10000000000E+04  0.10000000000E+04  0.00000000000E+00 0.  1.
    9000005    2    1    2  501    0 -0.62405166095E-01 -0.35830881028E-01 -0.90568427456E+03  0.10943129715E+04  0.61421239742E+03 0.  0.
         13    1    3    3    0    0  0.13783482279E+03  0.26410059099E+03 -0.32008549266E+03  0.43726683290E+03  0.00000000000E+00 0.  1.
          3    1    3    3  501    0 -0.13789722796E+03 -0.26413642187E+03 -0.58559878190E+03  0.65704613857E+03  0.00000000000E+00 0.  1.
         21    1    1    2  502  501  0.62405166095E-01  0.35830881028E-01  0.93876466738E+00  0.94151864428E+00  0.00000000000E+00 0.  1.
<mgrwt>
<rscale>  1 0.61421240E+03</rscale>
<asrwt>0</asrwt>
<pdfrwt beam="1">  1        1 0.34638069E+00 0.61421240E+03</pdfrwt>
<pdfrwt beam="2">0</pdfrwt>
<totfact> 0.23183125E+00</totfact>
</mgrwt>
</event>
<event>
 6    1  0.3915971E-003  0.6408308E+03  0.7818608E-02  0.9824138E-01
          1   -1    0    0  502    0  0.00000000000E+00  0.00000000000E+00  0.10266605864E+03  0.10266605864E+03  0.00000000000E+00 0.  1.
         13   -1    0    0    0    0 -0.00000000000E+00 -0.00000000000E+00 -0.10000000000E+04  0.10000000000E+04  0.00000000000E+00 0.  1.
    9000005    2    1    2  501    0 -0.80981962469E-06 -0.25824095655E-04 -0.89733395612E+03  0.11026660289E+04  0.64083082200E+03 0.  0.
         13    1    3    3    0    0 -0.16701483934E+03  0.53415267397E+01 -0.91908879544E+03  0.93415560930E+03  0.00000000000E+00 0.  1.
          3    1    3    3  501    0  0.16701483854E+03 -0.53415525638E+01  0.21754839318E+02  0.16851041958E+03  0.00000000000E+00 0.  1.
         21    1    1    2  502  501  0.80981961145E-06  0.25824095655E-04  0.14760521741E-04  0.29755885574E-04  0.00000000000E+00 0.  1.
<mgrwt>
<rscale>  1 0.64083082E+03</rscale>
<asrwt>0</asrwt>
<pdfrwt beam="1">  1        1 0.37333191E+00 0.64083082E+03</pdfrwt>
<pdfrwt beam="2">0</pdfrwt>
<totfact> 0.17587595E+00</totfact>
</mgrwt>
</event>
<event>
 6    1  0.3915971E-003  0.6725614E+03  0.7818608E-02  0.9765342E-01
          1   -1    0    0  502    0  0.00000000000E+00  0.00000000000E+00  0.11315298577E+03  0.11315298577E+03  0.00000000000E+00 0.  1.
         13   -1    0    0    0    0 -0.00000000000E+00 -0.00000000000E+00 -0.10000000000E+04  0.10000000000E+04  0.00000000000E+00 0.  1.
    9000005    2    1    2  501    0 -0.33329827318E-02 -0.33923504938E-03 -0.88691523712E+03  0.11130846807E+04  0.67256142358E+03 0.  0.
         13    1    3    3    0    0  0.19649703177E+03 -0.19010928163E+03 -0.76747822576E+03  0.81472415545E+03  0.00000000000E+00 0.  1.
          1    1    3    3  501    0 -0.19650036475E+03  0.19010894239E+03 -0.11943701136E+03  0.29836052522E+03  0.00000000000E+00 0.  1.
         21    1    1    2  502  501  0.33329827317E-02  0.33923504938E-03  0.68222895598E-01  0.68305104774E-01  0.00000000000E+00 0. -1.
<mgrwt>
<rscale>  1 0.67256142E+03</rscale>
<asrwt>0</asrwt>
<pdfrwt beam="1">  1        1 0.41146627E+00 0.67256142E+03</pdfrwt>
<pdfrwt beam="2">0</pdfrwt>
<totfact> 0.11837614E+00</totfact>
</mgrwt>
</event>
<event>
 6    1  0.3915971E-003  0.7042811E+03  0.7818608E-02  0.9709939E-01
          1   -1    0    0  502    0  0.00000000000E+00  0.00000000000E+00  0.12445142847E+03  0.12445142847E+03  0.00000000000E+00 0.  1.
         13   -1    0    0    0    0 -0.00000000000E+00 -0.00000000000E+00 -0.10000000000E+04  0.10000000000E+04  0.00000000000E+00 0.  1.
    9000005    2    1    2  501    0  0.97061050053E-03 -0.84346430993E-01 -0.87599255665E+03  0.11239995014E+04  0.70428113193E+03 0.  0.
         13    1    3    3    0    0 -0.22097238081E+03  0.21778723287E+03 -0.17222737227E+03  0.35485537849E+03  0.00000000000E+00 0.  1.
          3    1    3    3  501    0  0.22097335142E+03 -0.21787157930E+03 -0.70376518438E+03  0.76914412294E+03  0.00000000000E+00 0.  1.
         21    1    1    2  502  501 -0.97061050052E-03  0.84346430993E-01  0.44398512421E+00  0.45192704392E+00  0.00000000000E+00 0.  1.
<mgrwt>
<rscale>  1 0.70428114E+03</rscale>
<asrwt>0</asrwt>
<pdfrwt beam="1">  1        1 0.45255160E+00 0.70428114E+03</pdfrwt>
<pdfrwt beam="2">0</pdfrwt>
<totfact> 0.76480246E-01</totfact>
</mgrwt>
</event>
<event>
 6    1  0.3915971E-003  0.6084804E+03  0.7818608E-02  0.9887966E-01
          1   -1    0    0  502    0  0.00000000000E+00  0.00000000000E+00  0.92767659798E+02  0.92767659798E+02  0.00000000000E+00 0.  1.
         13   -1    0    0    0    0 -0.00000000000E+00 -0.00000000000E+00 -0.10000000000E+04  0.10000000000E+04  0.00000000000E+00 0.  1.
    9000005    2    1    2  501    0 -0.24431577427E-02  0.19443898914E-02 -0.90743789113E+03  0.10925620852E+04  0.60848038887E+03 0.  0.
         13    1    3    3    0    0 -0.20026757406E+03  0.15502402755E+03 -0.75643806160E+03  0.79770802389E+03  0.00000000000E+00 0.  1.
          3    1    3    3  501    0  0.20026513091E+03 -0.15502208316E+03 -0.15099982954E+03  0.29485406126E+03  0.00000000000E+00 0.  1.
         21    1    1    2  502  501  0.24431577427E-02 -0.19443898914E-02  0.20555093137E+00  0.20557464595E+00  0.00000000000E+00 0. -1.
<mgrwt>
<rscale>  1 0.60848039E+03</rscale>
<asrwt>0</asrwt>
<pdfrwt beam="1">  1        1 0.33733766E+00 0.60848039E+03</pdfrwt>
<pdfrwt beam="2">0</pdfrwt>
<totfact> 0.25404594E+00</totfact>
</mgrwt>
</event>
<event>
 6    1  0.3915971E-003  0.6502779E+03  0.7818608E-02  0.9806258E-01
          1   -1    0    0  502    0  0.00000000000E+00  0.00000000000E+00  0.10710323013E+03  0.10710323013E+03  0.00000000000E+00 0.  1.
         13   -1    0    0    0    0 -0.00000000000E+00 -0.00000000000E+00 -0.10000000000E+04  0.10000000000E+04  0.00000000000E+00 0.  1.
    9000005    2    1    2  501    0 -0.19157620440E-01  0.82354882997E-02 -0.89428459242E+03  0.11057152509E+04  0.65027785097E+03 0.  0.
         13    1    3    3    0    0  0.52497312763E+02 -0.15574763302E+03 -0.92415130164E+03  0.93865271606E+03  0.00000000000E+00 0.  1.
          3    1    3    3  501    0 -0.52516470384E+02  0.15575586851E+03  0.29866709226E+02  0.16706253487E+03  0.00000000000E+00 0.  1.
         21    1    1    2  502  501  0.19157620440E-01 -0.82354882997E-02  0.13878225518E+01  0.13879792048E+01  0.00000000000E+00 0. -1.
<mgrwt>
<rscale>  1 0.65027785E+03</rscale>
<asrwt>0</asrwt>
<pdfrwt beam="1">  1        1 0.38946711E+00 0.65027785E+03</pdfrwt>
<pdfrwt beam="2">0</pdfrwt>
<totfact> 0.14900799E+00</totfact>
</mgrwt>
</event>
<event>
 6    1  0.3915971E-003  0.6374020E+03  0.7818608E-02  0.9830710E-01
          1   -1    0    0  502    0  0.00000000000E+00  0.00000000000E+00  0.10158063392E+03  0.10158063392E+03  0.00000000000E+00 0.  1.
         13   -1    0    0    0    0 -0.00000000000E+00 -0.00000000000E+00 -0.10000000000E+04  0.10000000000E+04  0.00000000000E+00 0.  1.
    9000005    2    1    2  501    0 -0.23008849059E-04  0.29426610524E-03 -0.89842967710E+03  0.11015703187E+04  0.63740197857E+03 0.  0.
         13    1    3    3    0    0  0.26862138890E+02 -0.28461691498E+03 -0.20577565192E+03  0.35223852958E+03  0.00000000000E+00 0.  1.
          1    1    3    3  501    0 -0.26862161899E+02  0.28461720925E+03 -0.69265402518E+03  0.74933178909E+03  0.00000000000E+00 0.  1.
         21    1    1    2  502  501  0.23008849060E-04 -0.29426610527E-03  0.10311019529E-01  0.10315243364E-01  0.00000000000E+00 0. -1.
<mgrwt>
<rscale>  1 0.63740198E+03</rscale>
<asrwt>0</asrwt>
<pdfrwt beam="1">  1        1 0.36938490E+00 0.63740198E+03</pdfrwt>
<pdfrwt beam="2">0</pdfrwt>
<totfact> 0.18315687E+00</totfact>
</mgrwt>
</event>
<event>
 6    1  0.3915971E-003  0.6334682E+03  0.7818608E-02  0.9838304E-01
          1   -1    0    0  502    0  0.00000000000E+00  0.00000000000E+00  0.10032236267E+03  0.10032236267E+03  0.00000000000E+00 0.  1.
         13   -1    0    0    0    0 -0.00000000000E+00 -0.00000000000E+00 -0.10000000000E+04  0.10000000000E+04  0.00000000000E+00 0.  1.
    9000005    2    1    2  501    0 -0.29966019599E-03  0.17563641798E-03 -0.89967950502E+03  0.11003204630E+04  0.63346815976E+03 0.  0.
         13    1    3    3    0    0 -0.28984190461E+03 -0.10226218001E+03 -0.31693367224E+03  0.44148933818E+03  0.00000000000E+00 0.  1.
          3    1    3    3  501    0  0.28984160495E+03  0.10226235565E+03 -0.58274583278E+03  0.65883112477E+03  0.00000000000E+00 0.  1.
         21    1    1    2  502  501  0.29966019595E-03 -0.17563641798E-03  0.18676937413E-02  0.18997168988E-02  0.00000000000E+00 0. -1.
<mgrwt>
<rscale>  1 0.63346816E+03</rscale>
<asrwt>0</asrwt>
<pdfrwt beam="1">  1        1 0.36480936E+00 0.63346816E+03</pdfrwt>
<pdfrwt beam="2">0</pdfrwt>
<totfact> 0.19195669E+00</totfact>
</mgrwt>
</event>
<event>
 6    1  0.3915971E-003  0.6723403E+03  0.7818608E-02  0.9765739E-01
          1   -1    0    0  502    0  0.00000000000E+00  0.00000000000E+00  0.11301051062E+03  0.11301051062E+03  0.00000000000E+00 0.  1.
         13   -1    0    0    0    0 -0.00000000000E+00 -0.00000000000E+00 -0.10000000000E+04  0.10000000000E+04  0.00000000000E+00 0.  1.
    9000005    2    1    2  501    0  0.48110413175E-04  0.10304094835E-03 -0.88698960201E+03  0.11130103506E+04  0.67234030548E+03 0.  0.
         13    1    3    3    0    0  0.82835837138E+02  0.19447286605E+03 -0.10769488927E+02  0.21165408910E+03  0.00000000000E+00 0.  1.
          3    1    3    3  501    0 -0.82835789028E+02 -0.19447276300E+03 -0.87622011309E+03  0.90135626146E+03  0.00000000000E+00 0.  1.
         21    1    1    2  502  501 -0.48110413171E-04 -0.10304094836E-03  0.11263595213E-03  0.16005907224E-03  0.00000000000E+00 0.  1.
<mgrwt>
<rscale>  1 0.67234031E+03</rscale>
<asrwt>0</asrwt>
<pdfrwt beam="1">  1        1 0.41094818E+00 0.67234031E+03</pdfrwt>
<pdfrwt beam="2">0</pdfrwt>
<totfact> 0.11901678E+00</totfact>
</mgrwt>
</event>
<event>
 6    1  0.3915971E-003  0.6446096E+03  0.7818608E-02  0.9816947E-01
          1   -1    0    0  502    0  0.00000000000E+00  0.00000000000E+00  0.10504575092E+03  0.10504575092E+03  0.00000000000E+00 0.  1.
         13   -1    0    0    0    0 -0.00000000000E+00 -0.00000000000E+00 -0.10000000000E+04  0.10000000000E+04  0.00000000000E+00 0.  1.
    9000005    2    1    2  501    0 -0.10159801376E+00 -0.35145890686E-01 -0.89611688002E+03  0.11038781602E+04  0.64460958599E+03 0.  0.
         13    1    3    3    0    0  0.47366233269E+02 -0.30396892539E+02 -0.99149928113E+03  0.99309534065E+03  0.00000000000E+00 0.  1.
          1    1    3    3  501    0 -0.47467831283E+02  0.30361746649E+02  0.95382401113E+02  0.11078281955E+03  0.00000000000E+00 0.  1.
         21    1    1    2  502  501  0.10159801376E+00  0.35145890686E-01  0.11626309430E+01  0.11675907244E+01  0.00000000000E+00 0. -1.
<mgrwt>
<rscale>  1 0.64460959E+03</rscale>
<asrwt>0</asrwt>
<pdfrwt beam="1">  1        1 0.38198535E+00 0.64460959E+03</pdfrwt>
<pdfrwt beam="2">0</pdfrwt>
<totfact> 0.16097870E+00</totfact>
</mgrwt>
</event>
<event>
 6    1  0.3915971E-003  0.6111440E+03  0.7818608E-02  0.9882552E-01
          1   -1    0    0  502    0  0.00000000000E+00  0.00000000000E+00  0.93570363779E+02  0.93570363779E+02  0.00000000000E+00 0.  1.
         13   -1    0    0    0    0 -0.00000000000E+00 -0.00000000000E+00 -0.10000000000E+04  0.10000000000E+04  0.00000000000E+00 0.  1.
    9000005    2    1    2  501    0  0.40413966794E+00 -0.12937157684E-01 -0.90636921593E+03  0.10931615278E+04  0.61114385115E+03 0.  0.
         13    1    3    3    0    0 -0.22210987105E+03 -0.15300482059E+03 -0.70934544210E+03  0.75889012786E+03  0.00000000000E+00 0.  1.
          1    1    3    3  501    0  0.22251401072E+03  0.15299188343E+03 -0.19702377383E+03  0.33427139994E+03  0.00000000000E+00 0.  1.
         21    1    1    2  502  501 -0.40413966794E+00  0.12937157684E-01 -0.60420292962E-01  0.40883597328E+00  0.00000000000E+00 0.  1.
<mgrwt>
<rscale>  1 0.61114398E+03</rscale>
<asrwt>0</asrwt>
<pdfrwt beam="1">  1        1 0.34025659E+00 0.61114398E+03</pdfrwt>
<pdfrwt beam="2">0</pdfrwt>
<totfact> 0.24662315E+00</totfact>
</mgrwt>
</event>
<event>
 6    1  0.3915971E-003  0.6458528E+03  0.7818608E-02  0.9814592E-01
          1   -1    0    0  502    0  0.00000000000E+00  0.00000000000E+00  0.10429742399E+03  0.10429742399E+03  0.00000000000E+00 0.  1.
         13   -1    0    0    0    0 -0.00000000000E+00 -0.00000000000E+00 -0.10000000000E+04  0.10000000000E+04  0.00000000000E+00 0.  1.
    9000005    2    1    2  501    0 -0.27689823486E-02 -0.32193781984E-02 -0.89571824391E+03  0.11042811909E+04  0.64585275100E+03 0.  0.
         13    1    3    3    0    0  0.50151464682E+02 -0.29759609728E+03 -0.64432953632E+03  0.71150485445E+03  0.00000000000E+00 0.  1.
          3    1    3    3  501    0 -0.50154233664E+02  0.29759287791E+03 -0.25138870759E+03  0.39277633640E+03  0.00000000000E+00 0.  1.
         21    1    1    2  502  501  0.27689823486E-02  0.32193781984E-02  0.15667896713E-01  0.16233134221E-01  0.00000000000E+00 0.  1.
<mgrwt>
<rscale>  1 0.64585275E+03</rscale>
<asrwt>0</asrwt>
<pdfrwt beam="1">  1        1 0.37926416E+00 0.64585275E+03</pdfrwt>
<pdfrwt beam="2">0</pdfrwt>
<totfact> 0.16545444E+00</totfact>
</mgrwt>
</event>
<event>
 6    1  0.3915971E-003  0.5716168E+03  0.7818608E-02  0.9966107E-01
          3   -1    0    0  502    0  0.00000000000E+00  0.00000000000E+00  0.81765548989E+02  0.81765548989E+02  0.00000000000E+00 0.  1.
         13   -1    0    0    0    0 -0.00000000000E+00 -0.00000000000E+00 -0.10000000000E+04  0.10000000000E+04  0.00000000000E+00 0.  1.
    9000005    2    1    2  501    0  0.21072975312E-01  0.34670481917E-02 -0.91831200249E+03  0.10816851107E+04  0.57161678095E+03 0.  0.
         13    1    3    3    0    0  0.31578012075E+02  0.14836853369E+03 -0.91754459155E+03  0.92999917749E+03  0.00000000000E+00 0.  1.
          3    1    3    3  501    0 -0.31556939100E+02 -0.14836506665E+03 -0.76741093804E+00  0.15168593318E+03  0.00000000000E+00 0.  1.
         21    1    1    2  502  501 -0.21072975312E-01 -0.34670481917E-02  0.77551482185E-01  0.80438318609E-01  0.00000000000E+00 0. -1.
<mgrwt>
<rscale>  1 0.57161678E+03</rscale>
<asrwt>0</asrwt>
<pdfrwt beam="1">  1        3 0.29732990E+00 0.57161678E+03</pdfrwt>
<pdfrwt beam="2">0</pdfrwt>
<totfact> 0.21129610E-01</totfact>
</mgrwt>
</event>
<event>
 6    1  0.3915971E-003  0.6379911E+03  0.7818608E-02  0.9829578E-01
          1   -1    0    0  502    0  0.00000000000E+00  0.00000000000E+00  0.10178100167E+03  0.10178100167E+03  0.00000000000E+00 0.  1.
         13   -1    0    0    0    0 -0.00000000000E+00 -0.00000000000E+00 -0.10000000000E+04  0.10000000000E+04  0.00000000000E+00 0.  1.
    9000005    2    1    2  501    0  0.10403134924E-01  0.23997474646E-03 -0.89824051678E+03  0.11017570992E+04  0.63799112816E+03 0.  0.
         13    1    3    3    0    0 -0.27736212675E+03  0.10172730514E+03 -0.24132988416E+03  0.38146861857E+03  0.00000000000E+00 0.  1.
          3    1    3    3  501    0  0.27737252988E+03 -0.10172706517E+03 -0.65691063263E+03  0.72028848066E+03  0.00000000000E+00 0.  1.
         21    1    1    2  502  501 -0.10403134924E-01 -0.23997474646E-03  0.21518455481E-01  0.23902441934E-01  0.00000000000E+00 0. -1.
<mgrwt>
<rscale>  1 0.63799113E+03</rscale>
<asrwt>0</asrwt>
<pdfrwt beam="1">  1        1 0.37011351E+00 0.63799113E+03</pdfrwt>
<pdfrwt beam="2">0</pdfrwt>
<totfact> 0.18179295E+00</totfact>
</mgrwt>
</event>
<event>
 6    1  0.3915971E-003  0.6404141E+03  0.7818608E-02  0.9824935E-01
          1   -1    0    0  502    0  0.00000000000E+00  0.00000000000E+00  0.10371127203E+03  0.10371127203E+03  0.00000000000E+00 0.  1.
         13   -1    0    0    0    0 -0.00000000000E+00 -0.00000000000E+00 -0.10000000000E+04  0.10000000000E+04  0.00000000000E+00 0.  1.
    9000005    2    1    2  501    0  0.12822743186E+00  0.30570138273E-01 -0.89746339559E+03  0.11025292311E+04  0.64041403917E+03 0.  0.
         13    1    3    3    0    0  0.10466069772E+03 -0.10576912187E+02 -0.96946574841E+03  0.97515617726E+03  0.00000000000E+00 0.  1.
          1    1    3    3  501    0 -0.10453247029E+03  0.10607482325E+02  0.72002352817E+02  0.12737305381E+03  0.00000000000E+00 0.  1.
         21    1    1    2  502  501 -0.12822743186E+00 -0.30570138273E-01  0.11746676200E+01  0.11820409574E+01  0.00000000000E+00 0.  1.
<mgrwt>
<rscale>  1 0.64041405E+03</rscale>
<asrwt>0</asrwt>
<pdfrwt beam="1">  1        1 0.37713269E+00 0.64041405E+03</pdfrwt>
<pdfrwt beam="2">0</pdfrwt>
<totfact> 0.16924218E+00</totfact>
</mgrwt>
</event>
<event>
 6    1  0.3915971E-003  0.6521152E+03  0.7818608E-02  0.9802818E-01
          1   -1    0    0  502    0  0.00000000000E+00  0.00000000000E+00  0.10635175419E+03  0.10635175419E+03  0.00000000000E+00 0.  1.
         13   -1    0    0    0    0 -0.00000000000E+00 -0.00000000000E+00 -0.10000000000E+04  0.10000000000E+04  0.00000000000E+00 0.  1.
    9000005    2    1    2  501    0 -0.89492277053E-03 -0.64027351647E-03 -0.89368643072E+03  0.11063135534E+04  0.65211520613E+03 0.  0.
         13    1    3    3    0    0 -0.32398543457E+02 -0.30721876251E+03 -0.26988032271E+03  0.41020534156E+03  0.00000000000E+00 0.  1.
          1    1    3    3  501    0  0.32397648534E+02  0.30721812223E+03 -0.62380610800E+03  0.69610821187E+03  0.00000000000E+00 0.  1.
         21    1    1    2  502  501  0.89492277053E-03  0.64027351647E-03  0.38184908085E-01  0.38200759710E-01  0.00000000000E+00 0. -1.
<mgrwt>
<rscale>  1 0.65211521E+03</rscale>
<asrwt>0</asrwt>
<pdfrwt beam="1">  1        1 0.38673447E+00 0.65211521E+03</pdfrwt>
<pdfrwt beam="2">0</pdfrwt>
<totfact> 0.15316769E+00</totfact>
</mgrwt>
</event>
<event>
 6    1  0.3915971E-003  0.5412394E+03  0.7818608E-02  0.1003542E+00
          1   -1    0    0  502    0  0.00000000000E+00  0.00000000000E+00  0.74416033996E+02  0.74416033996E+02  0.00000000000E+00 0.  1.
         13   -1    0    0    0    0 -0.00000000000E+00 -0.00000000000E+00 -0.10000000000E+04  0.10000000000E+04  0.00000000000E+00 0.  1.
    9000005    2    1    2  501    0  0.10558387949E+01  0.12872265282E+01 -0.92611047351E+03  0.10726699075E+04  0.54123687005E+03 0.  0.
         13    1    3    3    0    0 -0.21089774710E+03 -0.16602727080E+02 -0.12925149893E+03  0.24791018586E+03  0.00000000000E+00 0.  1.
          3    1    3    3  501    0  0.21195358590E+03  0.17889953608E+02 -0.79685897458E+03  0.82475972161E+03  0.00000000000E+00 0.  1.
         21    1    1    2  502  501 -0.10558387949E+01 -0.12872265282E+01  0.52650750479E+00  0.17461265270E+01  0.00000000000E+00 0.  1.
<mgrwt>
<rscale>  1 0.54123943E+03</rscale>
<asrwt>0</asrwt>
<pdfrwt beam="1">  1        1 0.27060433E+00 0.54123943E+03</pdfrwt>
<pdfrwt beam="2">0</pdfrwt>
<totfact> 0.49927890E+00</totfact>
</mgrwt>
</event>
<event>
 6    1  0.3915971E-003  0.6230752E+03  0.7818608E-02  0.9858656E-01
          1   -1    0    0  502    0  0.00000000000E+00  0.00000000000E+00  0.97269641213E+02  0.97269641213E+02  0.00000000000E+00 0.  1.
         13   -1    0    0    0    0 -0.00000000000E+00 -0.00000000000E+00 -0.10000000000E+04  0.10000000000E+04  0.00000000000E+00 0.  1.
    9000005    2    1    2  501    0 -0.37094207053E-02  0.80666945183E-02 -0.90294422999E+03  0.10970555858E+04  0.62307517667E+03 0.  0.
         13    1    3    3    0    0  0.14503615934E+03 -0.47170181518E+02  0.26828948508E+02  0.15485575875E+03  0.00000000000E+00 0.  1.
          1    1    3    3  501    0 -0.14503986876E+03  0.47178248212E+02 -0.92977317849E+03  0.94219982704E+03  0.00000000000E+00 0.  1.
         21    1    1    2  502  501  0.37094207054E-02 -0.80666945183E-02  0.21387119912E+00  0.21405541613E+00  0.00000000000E+00 0. -1.
<mgrwt>
<rscale>  1 0.62307518E+03</rscale>
<asrwt>0</asrwt>
<pdfrwt beam="1">  1        1 0.35370853E+00 0.62307518E+03</pdfrwt>
<pdfrwt beam="2">0</pdfrwt>
<totfact> 0.21505692E+00</totfact>
</mgrwt>
</event>
<event>
 6    1  0.3915971E-003  0.6606207E+03  0.7818608E-02  0.9787052E-01
          1   -1    0    0  502    0  0.00000000000E+00  0.00000000000E+00  0.11187886912E+03  0.11187886912E+03  0.00000000000E+00 0.  1.
         13   -1    0    0    0    0 -0.00000000000E+00 -0.00000000000E+00 -0.10000000000E+04  0.10000000000E+04  0.00000000000E+00 0.  1.
    9000005    2    1    2  501    0 -0.11171249788E+00  0.95270535823E+00 -0.89080281276E+03  0.11090307917E+04  0.66061995551E+03 0.  0.
         13    1    3    3    0    0  0.13166893641E+03 -0.23586440557E+03 -0.76297769548E+03  0.80938476044E+03  0.00000000000E+00 0.  1.
          3    1    3    3  501    0 -0.13178064891E+03  0.23681711092E+03 -0.12782511728E+03  0.29964603128E+03  0.00000000000E+00 0.  1.
         21    1    1    2  502  501  0.11171249788E+00 -0.95270535823E+00  0.26816818832E+01  0.28480774049E+01  0.00000000000E+00 0.  1.
<mgrwt>
<rscale>  1 0.66062065E+03</rscale>
<asrwt>0</asrwt>
<pdfrwt beam="1">  1        1 0.40683311E+00 0.66062065E+03</pdfrwt>
<pdfrwt beam="2">0</pdfrwt>
<totfact> 0.12445634E+00</totfact>
</mgrwt>
</event>
<event>
 6    1  0.3915971E-003  0.6460265E+03  0.7818608E-02  0.9814264E-01
          1   -1    0    0  502    0  0.00000000000E+00  0.00000000000E+00  0.10441679831E+03  0.10441679831E+03  0.00000000000E+00 0.  1.
         13   -1    0    0    0    0 -0.00000000000E+00 -0.00000000000E+00 -0.10000000000E+04  0.10000000000E+04  0.00000000000E+00 0.  1.
    9000005    2    1    2  501    0  0.21182482836E-01 -0.21584410979E-01 -0.89565923526E+03  0.11043349711E+04  0.64602651790E+03 0.  0.
         13    1    3    3    0    0  0.27762854163E+03 -0.11668460684E+03 -0.64758784338E+03  0.71418689395E+03  0.00000000000E+00 0.  1.
          3    1    3    3  501    0 -0.27760735914E+03  0.11666302243E+03 -0.24807139188E+03  0.39014807717E+03  0.00000000000E+00 0.  1.
         21    1    1    2  502  501 -0.21182482836E-01  0.21584410979E-01  0.76033571823E-01  0.81827186317E-01  0.00000000000E+00 0. -1.
<mgrwt>
<rscale>  1 0.64602652E+03</rscale>
<asrwt>0</asrwt>
<pdfrwt beam="1">  1        1 0.37969825E+00 0.64602652E+03</pdfrwt>
<pdfrwt beam="2">0</pdfrwt>
<totfact> 0.16472129E+00</totfact>
</mgrwt>
</event>
<event>
 6    1  0.3915971E-003  0.6534139E+03  0.7818608E-02  0.9800394E-01
          1   -1    0    0  502    0  0.00000000000E+00  0.00000000000E+00  0.11187084137E+03  0.11187084137E+03  0.00000000000E+00 0.  1.
         13   -1    0    0    0    0 -0.00000000000E+00 -0.00000000000E+00 -0.10000000000E+04  0.10000000000E+04  0.00000000000E+00 0.  1.
    9000005    2    1    2  501    0 -0.10012650751E+00 -0.24945947329E-01 -0.89326200657E+03  0.11067369563E+04  0.65341385622E+03 0.  0.
         13    1    3    3    0    0 -0.16459409207E+02  0.32366040616E+03 -0.51653621007E+03  0.60978408226E+03  0.00000000000E+00 0.  1.
          1    1    3    3  501    0  0.16359282700E+02 -0.32368535211E+03 -0.37672579650E+03  0.49695287407E+03  0.00000000000E+00 0.  1.
         21    1    1    2  502  501  0.10012650751E+00  0.24945947329E-01  0.51328479353E+01  0.51338850343E+01  0.00000000000E+00 0. -1.
<mgrwt>
<rscale>  1 0.65341386E+03</rscale>
<asrwt>0</asrwt>
<pdfrwt beam="1">  1        1 0.40680392E+00 0.65341386E+03</pdfrwt>
<pdfrwt beam="2">0</pdfrwt>
<totfact> 0.12466530E+00</totfact>
</mgrwt>
</event>
<event>
 6    1  0.3915971E-003  0.6573981E+03  0.7818608E-02  0.9792995E-01
          1   -1    0    0  502    0  0.00000000000E+00  0.00000000000E+00  0.10804305257E+03  0.10804305257E+03  0.00000000000E+00 0.  1.
         13   -1    0    0    0    0 -0.00000000000E+00 -0.00000000000E+00 -0.10000000000E+04  0.10000000000E+04  0.00000000000E+00 0.  1.
    9000005    2    1    2  501    0 -0.11988936421E-05  0.79650788507E-05 -0.89195694266E+03  0.11080430432E+04  0.65739805144E+03 0.  0.
         13    1    3    3    0    0 -0.98199129284E+02  0.31198157916E+03 -0.39090942979E+03  0.50969182555E+03  0.00000000000E+00 0.  1.
          1    1    3    3  501    0  0.98199128085E+02 -0.31198157120E+03 -0.50104751287E+03  0.59835121766E+03  0.00000000000E+00 0.  1.
         21    1    1    2  502  501  0.11988936437E-05 -0.79650788432E-05 -0.47716250430E-05  0.93620634744E-05  0.00000000000E+00 0.  1.
<mgrwt>
<rscale>  1 0.65739805E+03</rscale>
<asrwt>0</asrwt>
<pdfrwt beam="1">  1        1 0.39288466E+00 0.65739805E+03</pdfrwt>
<pdfrwt beam="2">0</pdfrwt>
<totfact> 0.14370424E+00</totfact>
</mgrwt>
</event>
<event>
 6    1  0.3915971E-003  0.6068316E+03  0.7818608E-02  0.9891333E-01
          1   -1    0    0  502    0  0.00000000000E+00  0.00000000000E+00  0.92372654666E+02  0.92372654666E+02  0.00000000000E+00 0.  1.
         13   -1    0    0    0    0 -0.00000000000E+00 -0.00000000000E+00 -0.10000000000E+04  0.10000000000E+04  0.00000000000E+00 0.  1.
    9000005    2    1    2  501    0  0.81131673065E+00  0.45592928223E-01 -0.90722029823E+03  0.10914638087E+04  0.60683104402E+03 0.  0.
         13    1    3    3    0    0  0.88060596044E+02  0.28286730151E+03 -0.57280682903E+03  0.64488467358E+03  0.00000000000E+00 0.  1.
          3    1    3    3  501    0 -0.87249279313E+02 -0.28282170858E+03 -0.33441346920E+03  0.44657913517E+03  0.00000000000E+00 0.  1.
         21    1    1    2  502  501 -0.81131673065E+00 -0.45592928223E-01 -0.40704710817E+00  0.90884591697E+00  0.00000000000E+00 0. -1.
<mgrwt>
<rscale>  1 0.60683159E+03</rscale>
<asrwt>0</asrwt>
<pdfrwt beam="1">  1        1 0.33590127E+00 0.60683159E+03</pdfrwt>
<pdfrwt beam="2">0</pdfrwt>
<totfact> 0.25779331E+00</totfact>
</mgrwt>
</event>
<event>
 6    1  0.3915971E-003  0.6416431E+03  0.7818608E-02  0.9822588E-01
          3   -1    0    0  502    0  0.00000000000E+00  0.00000000000E+00  0.10316209336E+03  0.10316209336E+03  0.00000000000E+00 0.  1.
         13   -1    0    0    0    0 -0.00000000000E+00 -0.00000000000E+00 -0.10000000000E+04  0.10000000000E+04  0.00000000000E+00 0.  1.
    9000005    2    1    2  501    0 -0.27532541759E-01 -0.68076574039E-02 -0.89707257636E+03  0.11029257160E+04  0.64164314610E+03 0.  0.
         13    1    3    3    0    0 -0.64049859146E+02  0.28426146896E+03 -0.67927553404E+03  0.73913612978E+03  0.00000000000E+00 0.  1.
          3    1    3    3  501    0  0.64022326604E+02 -0.28426827662E+03 -0.21779704231E+03  0.36378958621E+03  0.00000000000E+00 0.  1.
         21    1    1    2  502  501  0.27532541759E-01  0.68076574039E-02  0.23466971875E+00  0.23637737192E+00  0.00000000000E+00 0.  1.
<mgrwt>
<rscale>  1 0.64164315E+03</rscale>
<asrwt>0</asrwt>
<pdfrwt beam="1">  1        3 0.37513568E+00 0.64164315E+03</pdfrwt>
<pdfrwt beam="2">0</pdfrwt>
<totfact> 0.80193732E-02</totfact>
</mgrwt>
</event>
<event>
 6    1  0.3984522E-003  0.6568692E+03  0.7818608E-02  0.9793974E-01
          3   -1    0    0  502    0  0.00000000000E+00  0.00000000000E+00  0.10786929701E+03  0.10786929701E+03  0.00000000000E+00 0.  1.
         13   -1    0    0    0    0 -0.00000000000E+00 -0.00000000000E+00 -0.10000000000E+04  0.10000000000E+04  0.00000000000E+00 0.  1.
    9000005    2    1    2  501    0  0.21737587019E-05 -0.13720426750E-06 -0.89213070749E+03  0.11078692920E+04  0.65686921754E+03 0.  0.
         13    1    3    3    0    0  0.22078793988E+03  0.12867986690E+03 -0.79402439843E+03  0.83413462213E+03  0.00000000000E+00 0.  1.
          1    1    3    3  501    0 -0.22078793771E+03 -0.12867986704E+03 -0.98106309057E+02  0.27373466988E+03  0.00000000000E+00 0.  1.
         21    1    1    2  502  501 -0.21737586813E-05  0.13720425723E-06  0.44979379291E-05  0.49975491420E-05  0.00000000000E+00 0. -1.
<mgrwt>
<rscale>  1 0.65686922E+03</rscale>
<asrwt>0</asrwt>
<pdfrwt beam="1">  1        3 0.39225282E+00 0.65686922E+03</pdfrwt>
<pdfrwt beam="2">0</pdfrwt>
<totfact> 0.64977020E-02</totfact>
</mgrwt>
</event>
<event>
 6    1  0.3915971E-003  0.6749763E+03  0.7818608E-02  0.9761010E-01
          1   -1    0    0  502    0  0.00000000000E+00  0.00000000000E+00  0.11390269105E+03  0.11390269105E+03  0.00000000000E+00 0.  1.
         13   -1    0    0    0    0 -0.00000000000E+00 -0.00000000000E+00 -0.10000000000E+04  0.10000000000E+04  0.00000000000E+00 0.  1.
    9000005    2    1    2  501    0 -0.50319417035E-02 -0.15125624075E-02 -0.88609991770E+03  0.11138968247E+04  0.67497634917E+03 0.  0.
         13    1    3    3    0    0 -0.61188949674E+02 -0.22322306673E+03 -0.84838211473E+03  0.87938890013E+03  0.00000000000E+00 0.  1.
          3    1    3    3  501    0  0.61183917732E+02  0.22322155417E+03 -0.37717802971E+02  0.23450792459E+03  0.00000000000E+00 0.  1.
         21    1    1    2  502  501  0.50319417035E-02  0.15125624075E-02  0.26087433666E-02  0.58663297126E-02  0.00000000000E+00 0.  1.
<mgrwt>
<rscale>  1 0.67497635E+03</rscale>
<asrwt>0</asrwt>
<pdfrwt beam="1">  1        1 0.41419248E+00 0.67497635E+03</pdfrwt>
<pdfrwt beam="2">0</pdfrwt>
<totfact> 0.11503094E+00</totfact>
</mgrwt>
</event>
<event>
 6    1  0.3915971E-003  0.6416041E+03  0.7818608E-02  0.9822662E-01
          1   -1    0    0  502    0  0.00000000000E+00  0.00000000000E+00  0.10587018116E+03  0.10587018116E+03  0.00000000000E+00 0.  1.
         13   -1    0    0    0    0 -0.00000000000E+00 -0.00000000000E+00 -0.10000000000E+04  0.10000000000E+04  0.00000000000E+00 0.  1.
    9000005    2    1    2  501    0  0.50728615898E-02  0.41454186318E-01 -0.89708588035E+03  0.11029138246E+04  0.64160410390E+03 0.  0.
         13    1    3    3    0    0 -0.25146181966E+03  0.16054940926E+03 -0.65129527982E+03  0.71637608913E+03  0.00000000000E+00 0.  1.
          3    1    3    3  501    0  0.25146689252E+03 -0.16050795508E+03 -0.24579060053E+03  0.38653773552E+03  0.00000000000E+00 0.  1.
         21    1    1    2  502  501 -0.50728615898E-02 -0.41454186318E-01  0.29560615047E+01  0.29563565081E+01  0.00000000000E+00 0. -1.
<mgrwt>
<rscale>  1 0.64160411E+03</rscale>
<asrwt>0</asrwt>
<pdfrwt beam="1">  1        1 0.38498329E+00 0.64160411E+03</pdfrwt>
<pdfrwt beam="2">0</pdfrwt>
<totfact> 0.15622971E+00</totfact>
</mgrwt>
</event>
<event>
 6    1  0.3915971E-003  0.6539077E+03  0.7818608E-02  0.9799474E-01
          1   -1    0    0  502    0  0.00000000000E+00  0.00000000000E+00  0.10690074428E+03  0.10690074428E+03  0.00000000000E+00 0.  1.
         13   -1    0    0    0    0 -0.00000000000E+00 -0.00000000000E+00 -0.10000000000E+04  0.10000000000E+04  0.00000000000E+00 0.  1.
    9000005    2    1    2  501    0  0.19882443051E-03  0.13078458653E-02 -0.89310093164E+03  0.11068986092E+04  0.65390768223E+03 0.  0.
         13    1    3    3    0    0  0.21723003054E+02 -0.32595997960E+03 -0.46904430972E+03  0.57159807701E+03  0.00000000000E+00 0.  1.
          1    1    3    3  501    0 -0.21722804230E+02  0.32596128744E+03 -0.42405662192E+03  0.53530053216E+03  0.00000000000E+00 0.  1.
         21    1    1    2  502  501 -0.19882443051E-03 -0.13078458653E-02  0.16759225608E-02  0.21351132034E-02  0.00000000000E+00 0.  1.
<mgrwt>
<rscale>  1 0.65390768E+03</rscale>
<asrwt>0</asrwt>
<pdfrwt beam="1">  1        1 0.38873080E+00 0.65390768E+03</pdfrwt>
<pdfrwt beam="2">0</pdfrwt>
<totfact> 0.15003077E+00</totfact>
</mgrwt>
</event>
<event>
 6    1  0.3915971E-003  0.6529013E+03  0.7818608E-02  0.9801350E-01
          1   -1    0    0  502    0  0.00000000000E+00  0.00000000000E+00  0.10657085937E+03  0.10657085937E+03  0.00000000000E+00 0.  1.
         13   -1    0    0    0    0 -0.00000000000E+00 -0.00000000000E+00 -0.10000000000E+04  0.10000000000E+04  0.00000000000E+00 0.  1.
    9000005    2    1    2  501    0  0.59300461362E-03 -0.51577355600E-03 -0.89342974680E+03  0.11065698668E+04  0.65290133844E+03 0.  0.
         13    1    3    3    0    0  0.27522558791E+03  0.12912493326E+03 -0.24512220246E+03  0.39052178783E+03  0.00000000000E+00 0.  1.
          3    1    3    3  501    0 -0.27522499491E+03 -0.12912544903E+03 -0.64830754433E+03  0.71604807901E+03  0.00000000000E+00 0.  1.
         21    1    1    2  502  501 -0.59300461361E-03  0.51577355599E-03  0.60616813434E-03  0.99253042266E-03  0.00000000000E+00 0. -1.
<mgrwt>
<rscale>  1 0.65290134E+03</rscale>
<asrwt>0</asrwt>
<pdfrwt beam="1">  1        1 0.38753121E+00 0.65290134E+03</pdfrwt>
<pdfrwt beam="2">0</pdfrwt>
<totfact> 0.15190634E+00</totfact>
</mgrwt>
</event>
<event>
 6    1  0.3915971E-003  0.6662549E+03  0.7818608E-02  0.9776747E-01
          1   -1    0    0  502    0  0.00000000000E+00  0.00000000000E+00  0.11101468600E+03  0.11101468600E+03  0.00000000000E+00 0.  1.
         13   -1    0    0    0    0 -0.00000000000E+00 -0.00000000000E+00 -0.10000000000E+04  0.10000000000E+04  0.00000000000E+00 0.  1.
    9000005    2    1    2  501    0  0.11403609011E-02  0.76496596250E-04 -0.88902610092E+03  0.11109738831E+04  0.66625487672E+03 0.  0.
         13    1    3    3    0    0 -0.11635888111E+03  0.30752724439E+03 -0.53371012084E+03  0.62686433010E+03  0.00000000000E+00 0.  1.
          3    1    3    3  501    0  0.11636002147E+03 -0.30752716789E+03 -0.35531598007E+03  0.48410955298E+03  0.00000000000E+00 0.  1.
         21    1    1    2  502  501 -0.11403609011E-02 -0.76496596251E-04  0.40786915101E-01  0.40802925363E-01  0.00000000000E+00 0. -1.
<mgrwt>
<rscale>  1 0.66625488E+03</rscale>
<asrwt>0</asrwt>
<pdfrwt beam="1">  1        1 0.40369062E+00 0.66625488E+03</pdfrwt>
<pdfrwt beam="2">0</pdfrwt>
<totfact> 0.12841318E+00</totfact>
</mgrwt>
</event>
<event>
 6    1  0.3915971E-003  0.6434341E+03  0.7818608E-02  0.9819178E-01
          1   -1    0    0  502    0  0.00000000000E+00  0.00000000000E+00  0.10350347606E+03  0.10350347606E+03  0.00000000000E+00 0.  1.
         13   -1    0    0    0    0 -0.00000000000E+00 -0.00000000000E+00 -0.10000000000E+04  0.10000000000E+04  0.00000000000E+00 0.  1.
    9000005    2    1    2  501    0  0.43041340663E-02 -0.16369379847E-03 -0.89649399318E+03  0.11034984804E+04  0.64343408079E+03 0.  0.
         13    1    3    3    0    0 -0.45937517110E+02  0.31830303860E+03 -0.43344116660E+03  0.53972059880E+03  0.00000000000E+00 0.  1.
          3    1    3    3  501    0  0.45941821244E+02 -0.31830320230E+03 -0.46305282658E+03  0.56377788156E+03  0.00000000000E+00 0.  1.
         21    1    1    2  502  501 -0.43041340663E-02  0.16369379845E-03 -0.25307564922E-02  0.49957075718E-02  0.00000000000E+00 0.  1.
<mgrwt>
<rscale>  1 0.64343408E+03</rscale>
<asrwt>0</asrwt>
<pdfrwt beam="1">  1        1 0.37637707E+00 0.64343408E+03</pdfrwt>
<pdfrwt beam="2">0</pdfrwt>
<totfact> 0.17044972E+00</totfact>
</mgrwt>
</event>
<event>
 6    1  0.3915971E-003  0.6441132E+03  0.7818608E-02  0.9817888E-01
          1   -1    0    0  502    0  0.00000000000E+00  0.00000000000E+00  0.11125002319E+03  0.11125002319E+03  0.00000000000E+00 0.  1.
         13   -1    0    0    0    0 -0.00000000000E+00 -0.00000000000E+00 -0.10000000000E+04  0.10000000000E+04  0.00000000000E+00 0.  1.
    9000005    2    1    2  501    0 -0.35693483620E+00 -0.42167414835E+00 -0.89626835363E+03  0.11037113760E+04  0.64411298275E+03 0.  0.
         13    1    3    3    0    0 -0.30949811972E+03 -0.14996676058E+02 -0.59994597821E+03  0.67524007817E+03  0.00000000000E+00 0.  1.
          3    1    3    3  501    0  0.30914118488E+03  0.14575001910E+02 -0.29632237543E+03  0.42847129781E+03  0.00000000000E+00 0.  1.
         21    1    1    2  502  501  0.35693483620E+00  0.42167414835E+00  0.75183768218E+01  0.75386471995E+01  0.00000000000E+00 0.  1.
<mgrwt>
<rscale>  1 0.64411322E+03</rscale>
<asrwt>0</asrwt>
<pdfrwt beam="1">  1        1 0.40454639E+00 0.64411322E+03</pdfrwt>
<pdfrwt beam="2">0</pdfrwt>
<totfact> 0.12782560E+00</totfact>
</mgrwt>
</event>
<event>
 6    1  0.3915971E-003  0.4604050E+03  0.7818608E-02  0.1024664E+00
          1   -1    0    0  502    0  0.00000000000E+00  0.00000000000E+00  0.53016508938E+02  0.53016508938E+02  0.00000000000E+00 0.  1.
         13   -1    0    0    0    0 -0.00000000000E+00 -0.00000000000E+00 -0.10000000000E+04  0.10000000000E+04  0.00000000000E+00 0.  1.
    9000005    2    1    2  501    0 -0.33559544638E-03  0.19128835338E-03 -0.94700680595E+03  0.10529931908E+04  0.46040500588E+03 0.  0.
         13    1    3    3    0    0 -0.49445899953E+02  0.76843440771E+02 -0.95674503501E+03  0.96109878443E+03  0.00000000000E+00 0.  1.
          1    1    3    3  501    0  0.49445564357E+02 -0.76843249483E+02  0.97382290568E+01  0.91894406417E+02  0.00000000000E+00 0.  1.
         21    1    1    2  502  501  0.33559544638E-03 -0.19128835337E-03  0.23314892380E-01  0.23318092165E-01  0.00000000000E+00 0. -1.
<mgrwt>
<rscale>  1 0.46040501E+03</rscale>
<asrwt>0</asrwt>
<pdfrwt beam="1">  1        1 0.19278771E+00 0.46040501E+03</pdfrwt>
<pdfrwt beam="2">0</pdfrwt>
<totfact> 0.11157143E+01</totfact>
</mgrwt>
</event>
<event>
 6    1  0.3915971E-003  0.6684808E+03  0.7818608E-02  0.9772706E-01
          1   -1    0    0  502    0  0.00000000000E+00  0.00000000000E+00  0.12182977473E+03  0.12182977473E+03  0.00000000000E+00 0.  1.
         13   -1    0    0    0    0 -0.00000000000E+00 -0.00000000000E+00 -0.10000000000E+04  0.10000000000E+04  0.00000000000E+00 0.  1.
    9000005    2    1    2  501    0  0.56921601659E+00 -0.14838452019E+01 -0.88821389670E+03  0.11116611397E+04  0.66847889819E+03 0.  0.
         13    1    3    3    0    0  0.31592531960E+03 -0.19952924380E+02 -0.26450519993E+03  0.41251657851E+03  0.00000000000E+00 0.  1.
          1    1    3    3  501    0 -0.31535610359E+03  0.18469079178E+02 -0.62370869677E+03  0.69914456115E+03  0.00000000000E+00 0.  1.
         21    1    1    2  502  501 -0.56921601659E+00  0.14838452019E+01  0.10043671428E+02  0.10168635071E+02  0.00000000000E+00 0. -1.
<mgrwt>
<rscale>  1 0.66848079E+03</rscale>
<asrwt>0</asrwt>
<pdfrwt beam="1">  1        1 0.44301830E+00 0.66848079E+03</pdfrwt>
<pdfrwt beam="2">0</pdfrwt>
<totfact> 0.85214521E-01</totfact>
</mgrwt>
</event>
<event>
 6    1  0.3915971E-003  0.6492221E+03  0.7818608E-02  0.9808240E-01
          1   -1    0    0  502    0  0.00000000000E+00  0.00000000000E+00  0.10816511927E+03  0.10816511927E+03  0.00000000000E+00 0.  1.
         13   -1    0    0    0    0 -0.00000000000E+00 -0.00000000000E+00 -0.10000000000E+04  0.10000000000E+04  0.00000000000E+00 0.  1.
    9000005    2    1    2  501    0  0.47834491168E+00 -0.28074310395E+01 -0.89380180429E+03  0.11047040109E+04  0.64921581609E+03 0.  0.
         13    1    3    3    0    0  0.30823279197E+03  0.63384985734E+02 -0.31163325313E+03  0.44287740393E+03  0.00000000000E+00 0.  1.
          3    1    3    3  501    0 -0.30775444706E+03 -0.66192416773E+02 -0.58216855116E+03  0.66182660696E+03  0.00000000000E+00 0.  1.
         21    1    1    2  502  501 -0.47834491168E+00  0.28074310395E+01  0.19669235583E+01  0.34611083746E+01  0.00000000000E+00 0.  1.
<mgrwt>
<rscale>  1 0.64922206E+03</rscale>
<asrwt>0</asrwt>
<pdfrwt beam="1">  1        1 0.39332854E+00 0.64922206E+03</pdfrwt>
<pdfrwt beam="2">0</pdfrwt>
<totfact> 0.14327216E+00</totfact>
</mgrwt>
</event>
<event>
 6    1  0.3915971E-003  0.6294923E+03  0.7818608E-02  0.9846040E-01
          1   -1    0    0  502    0  0.00000000000E+00  0.00000000000E+00  0.99075384045E+02  0.99075384045E+02  0.00000000000E+00 0.  1.
         13   -1    0    0    0    0 -0.00000000000E+00 -0.00000000000E+00 -0.10000000000E+04  0.10000000000E+04  0.00000000000E+00 0.  1.
    9000005    2    1    2  501    0 -0.77307864288E-04 -0.15311250124E-03 -0.90093485554E+03  0.10990651430E+04  0.62949231504E+03 0.  0.
         13    1    3    3    0    0  0.10438258602E+03  0.50425919360E+02 -0.96136918682E+03  0.96833321278E+03  0.00000000000E+00 0.  1.
          3    1    3    3  501    0 -0.10438266333E+03 -0.50426072472E+02  0.60434331280E+02  0.13073193025E+03  0.00000000000E+00 0.  1.
         21    1    1    2  502  501  0.77307864285E-04  0.15311250124E-03  0.10239581926E-01  0.10241018404E-01  0.00000000000E+00 0.  1.
<mgrwt>
<rscale>  1 0.62949232E+03</rscale>
<asrwt>0</asrwt>
<pdfrwt beam="1">  1        1 0.36027488E+00 0.62949232E+03</pdfrwt>
<pdfrwt beam="2">0</pdfrwt>
<totfact> 0.20107924E+00</totfact>
</mgrwt>
</event>
<event>
 6    1  0.3915971E-003  0.6461969E+03  0.7818608E-02  0.9813942E-01
          1   -1    0    0  502    0  0.00000000000E+00  0.00000000000E+00  0.10445765845E+03  0.10445765845E+03  0.00000000000E+00 0.  1.
         13   -1    0    0    0    0 -0.00000000000E+00 -0.00000000000E+00 -0.10000000000E+04  0.10000000000E+04  0.00000000000E+00 0.  1.
    9000005    2    1    2  501    0 -0.13258617037E-02  0.11959414948E-02 -0.89560739330E+03  0.11043925822E+04  0.64619685288E+03 0.  0.
         13    1    3    3    0    0  0.13179253328E+03  0.29250444923E+03 -0.38239701319E+03  0.49915488612E+03  0.00000000000E+00 0.  1.
          1    1    3    3  501    0 -0.13179385914E+03 -0.29250325329E+03 -0.51321038012E+03  0.60523769607E+03  0.00000000000E+00 0.  1.
         21    1    1    2  502  501  0.13258617037E-02 -0.11959414948E-02  0.65051755028E-01  0.65076255405E-01  0.00000000000E+00 0.  1.
<mgrwt>
<rscale>  1 0.64619685E+03</rscale>
<asrwt>0</asrwt>
<pdfrwt beam="1">  1        1 0.37984683E+00 0.64619685E+03</pdfrwt>
<pdfrwt beam="2">0</pdfrwt>
<totfact> 0.16446771E+00</totfact>
</mgrwt>
</event>
<event>
 6    1  0.3915971E-003  0.6531382E+03  0.7818608E-02  0.9800908E-01
          1   -1    0    0  502    0  0.00000000000E+00  0.00000000000E+00  0.10664743521E+03  0.10664743521E+03  0.00000000000E+00 0.  1.
         13   -1    0    0    0    0 -0.00000000000E+00 -0.00000000000E+00 -0.10000000000E+04  0.10000000000E+04  0.00000000000E+00 0.  1.
    9000005    2    1    2  501    0  0.93939387114E-05 -0.19210219193E-05 -0.89335261254E+03  0.11066473865E+04  0.65313823019E+03 0.  0.
         13    1    3    3    0    0 -0.15073086033E+03 -0.28940389750E+03 -0.42439197829E+03  0.53533443694E+03  0.00000000000E+00 0.  1.
          3    1    3    3  501    0  0.15073086973E+03  0.28940389557E+03 -0.46896063425E+03  0.57131294957E+03  0.00000000000E+00 0.  1.
         21    1    1    2  502  501 -0.93939387116E-05  0.19210219181E-05  0.47746461419E-04  0.48699702132E-04  0.00000000000E+00 0.  1.
<mgrwt>
<rscale>  1 0.65313823E+03</rscale>
<asrwt>0</asrwt>
<pdfrwt beam="1">  1        1 0.38780967E+00 0.65313823E+03</pdfrwt>
<pdfrwt beam="2">0</pdfrwt>
<totfact> 0.15146890E+00</totfact>
</mgrwt>
</event>
<event>
 6    1  0.3915971E-003  0.6567178E+03  0.7818608E-02  0.9794255E-01
          1   -1    0    0  502    0  0.00000000000E+00  0.00000000000E+00  0.12347253464E+03  0.12347253464E+03  0.00000000000E+00 0.  1.
         13   -1    0    0    0    0 -0.00000000000E+00 -0.00000000000E+00 -0.10000000000E+04  0.10000000000E+04  0.00000000000E+00 0.  1.
    9000005    2    1    2  501    0 -0.51511896658E-01  0.38382706212E+01 -0.89191930517E+03  0.11076092529E+04  0.65670653660E+03 0.  0.
         13    1    3    3    0    0 -0.52352154350E+02  0.14109780449E+03 -0.94083233203E+03  0.95279316512E+03  0.00000000000E+00 0.  1.
          3    1    3    3  501    0  0.52300642453E+02 -0.13725953387E+03  0.48913026867E+02  0.15481608778E+03  0.00000000000E+00 0.  1.
         21    1    1    2  502  501  0.51511896658E-01 -0.38382706212E+01  0.15391839809E+02  0.15863281740E+02  0.00000000000E+00 0. -1.
<mgrwt>
<rscale>  1 0.65671776E+03</rscale>
<asrwt>0</asrwt>
<pdfrwt beam="1">  1        1 0.44899198E+00 0.65671776E+03</pdfrwt>
<pdfrwt beam="2">0</pdfrwt>
<totfact> 0.80189440E-01</totfact>
</mgrwt>
</event>
<event>
 6    1  0.3915971E-003  0.6454725E+03  0.7818608E-02  0.9815312E-01
          1   -1    0    0  502    0  0.00000000000E+00  0.00000000000E+00  0.10415868484E+03  0.10415868484E+03  0.00000000000E+00 0.  1.
         13   -1    0    0    0    0 -0.00000000000E+00 -0.00000000000E+00 -0.10000000000E+04  0.10000000000E+04  0.00000000000E+00 0.  1.
    9000005    2    1    2  501    0  0.30153609600E-05 -0.18618970187E-04 -0.89584131896E+03  0.11041586656E+04  0.64547245493E+03 0.  0.
         13    1    3    3    0    0  0.28093670148E+03  0.13965930492E+01 -0.71964185985E+03  0.77253594554E+03  0.00000000000E+00 0.  1.
          1    1    3    3  501    0 -0.28093669847E+03 -0.13966116681E+01 -0.17619945911E+03  0.33162272006E+03  0.00000000000E+00 0.  1.
         21    1    1    2  502  501 -0.30153609774E-05  0.18618970187E-04  0.38011563778E-05  0.19240770319E-04  0.00000000000E+00 0.  1.
<mgrwt>
<rscale>  1 0.64547245E+03</rscale>
<asrwt>0</asrwt>
<pdfrwt beam="1">  1        1 0.37875965E+00 0.64547245E+03</pdfrwt>
<pdfrwt beam="2">0</pdfrwt>
<totfact> 0.16631587E+00</totfact>
</mgrwt>
</event>
<event>
 6    1  0.3915971E-003  0.6584147E+03  0.7818608E-02  0.9791116E-01
          1   -1    0    0  502    0  0.00000000000E+00  0.00000000000E+00  0.10854400986E+03  0.10854400986E+03  0.00000000000E+00 0.  1.
         13   -1    0    0    0    0 -0.00000000000E+00 -0.00000000000E+00 -0.10000000000E+04  0.10000000000E+04  0.00000000000E+00 0.  1.
    9000005    2    1    2  501    0  0.81330044492E-02  0.49053308782E-02 -0.89162235533E+03  0.11083773738E+04  0.65841474626E+03 0.  0.
         13    1    3    3    0    0  0.18470585652E+03 -0.25541148005E+03 -0.28587541268E+03  0.42553029169E+03  0.00000000000E+00 0.  1.
          3    1    3    3  501    0 -0.18469772352E+03  0.25541638538E+03 -0.60574694264E+03  0.68284708209E+03  0.00000000000E+00 0.  1.
         21    1    1    2  502  501 -0.81330044492E-02 -0.49053308782E-02  0.16636518654E+00  0.16663608050E+00  0.00000000000E+00 0.  1.
<mgrwt>
<rscale>  1 0.65841475E+03</rscale>
<asrwt>0</asrwt>
<pdfrwt beam="1">  1        1 0.39470632E+00 0.65841475E+03</pdfrwt>
<pdfrwt beam="2">0</pdfrwt>
<totfact> 0.14102373E+00</totfact>
</mgrwt>
</event>
<event>
 6    1  0.3915971E-003  0.6631907E+03  0.7818608E-02  0.9782338E-01
          1   -1    0    0  502    0  0.00000000000E+00  0.00000000000E+00  0.10995581745E+03  0.10995581745E+03  0.00000000000E+00 0.  1.
         13   -1    0    0    0    0 -0.00000000000E+00 -0.00000000000E+00 -0.10000000000E+04  0.10000000000E+04  0.00000000000E+00 0.  1.
    9000005    2    1    2  501    0  0.39028112610E-03 -0.36470809732E-03 -0.89004430175E+03  0.11099552701E+04  0.66319065332E+03 0.  0.
         13    1    3    3    0    0 -0.25864747552E+03  0.20319375940E+03 -0.37462725337E+03  0.49852963746E+03  0.00000000000E+00 0.  1.
          1    1    3    3  501    0  0.25864786580E+03 -0.20319412411E+03 -0.51541704838E+03  0.61142563269E+03  0.00000000000E+00 0.  1.
         21    1    1    2  502  501 -0.39028112608E-03  0.36470809734E-03  0.11920183667E-03  0.54730287000E-03  0.00000000000E+00 0.  1.
<mgrwt>
<rscale>  1 0.66319065E+03</rscale>
<asrwt>0</asrwt>
<pdfrwt beam="1">  1        1 0.39984018E+00 0.66319065E+03</pdfrwt>
<pdfrwt beam="2">0</pdfrwt>
<totfact> 0.13367398E+00</totfact>
</mgrwt>
</event>
<event>
 6    1  0.3915971E-003  0.6538434E+03  0.7818608E-02  0.9799594E-01
          1   -1    0    0  502    0  0.00000000000E+00  0.00000000000E+00  0.10710615506E+03  0.10710615506E+03  0.00000000000E+00 0.  1.
         13   -1    0    0    0    0 -0.00000000000E+00 -0.00000000000E+00 -0.10000000000E+04  0.10000000000E+04  0.00000000000E+00 0.  1.
    9000005    2    1    2  501    0  0.43901789417E+00  0.48232975612E-02 -0.89102434487E+03  0.11051857930E+04  0.65384330014E+03 0.  0.
         13    1    3    3    0    0 -0.10862319079E+03  0.15816409910E+03 -0.89267401738E+03  0.91306176195E+03  0.00000000000E+00 0.  1.
          1    1    3    3  501    0  0.10906220869E+03 -0.15815927581E+03  0.16496725117E+01  0.19212403105E+03  0.00000000000E+00 0.  1.
         21    1    1    2  502  501 -0.43901789417E+00 -0.48232975612E-02 -0.18695000646E+01  0.19203620667E+01  0.00000000000E+00 0.  1.
<mgrwt>
<rscale>  1 0.65384345E+03</rscale>
<asrwt>0</asrwt>
<pdfrwt beam="1">  1        1 0.38947775E+00 0.65384345E+03</pdfrwt>
<pdfrwt beam="2">0</pdfrwt>
<totfact> 0.14889309E+00</totfact>
</mgrwt>
</event>
<event>
 6    1  0.3915971E-003  0.6225852E+03  0.7818608E-02  0.9859626E-01
          1   -1    0    0  502    0  0.00000000000E+00  0.00000000000E+00  0.96907378029E+02  0.96907378029E+02  0.00000000000E+00 0.  1.
         13   -1    0    0    0    0 -0.00000000000E+00 -0.00000000000E+00 -0.10000000000E+04  0.10000000000E+04  0.00000000000E+00 0.  1.
    9000005    2    1    2  501    0 -0.26106201810E-02 -0.12257891779E-02 -0.90309636442E+03  0.10969026532E+04  0.62258524493E+03 0.  0.
         13    1    3    3    0    0 -0.27159741991E+03 -0.14008878875E+03 -0.55599028450E+03  0.63444087486E+03  0.00000000000E+00 0.  1.
          3    1    3    3  501    0  0.27159480929E+03  0.14008756296E+03 -0.34710607992E+03  0.46246177836E+03  0.00000000000E+00 0.  1.
         21    1    1    2  502  501  0.26106201810E-02  0.12257891779E-02  0.37424471076E-02  0.47248076354E-02  0.00000000000E+00 0.  1.
<mgrwt>
<rscale>  1 0.62258524E+03</rscale>
<asrwt>0</asrwt>
<pdfrwt beam="1">  1        1 0.35239121E+00 0.62258524E+03</pdfrwt>
<pdfrwt beam="2">0</pdfrwt>
<totfact> 0.21794042E+00</totfact>
</mgrwt>
</event>
<event>
 6    1  0.3915971E-003  0.6448990E+03  0.7818608E-02  0.9816398E-01
          1   -1    0    0  502    0  0.00000000000E+00  0.00000000000E+00  0.10397415906E+03  0.10397415906E+03  0.00000000000E+00 0.  1.
         13   -1    0    0    0    0 -0.00000000000E+00 -0.00000000000E+00 -0.10000000000E+04  0.10000000000E+04  0.00000000000E+00 0.  1.
    9000005    2    1    2  501    0  0.23108100669E-03 -0.82226867839E-03 -0.89602584540E+03  0.11039733049E+04  0.64489901718E+03 0.  0.
         13    1    3    3    0    0 -0.11562792432E+03  0.16113492985E+02  0.66524574280E+02  0.13436882273E+03  0.00000000000E+00 0.  1.
          3    1    3    3  501    0  0.11562815540E+03 -0.16114315254E+02 -0.96255041968E+03  0.96960448220E+03  0.00000000000E+00 0.  1.
         21    1    1    2  502  501 -0.23108100670E-03  0.82226867839E-03  0.44570833270E-05  0.85413352393E-03  0.00000000000E+00 0.  1.
<mgrwt>
<rscale>  1 0.64489902E+03</rscale>
<asrwt>0</asrwt>
<pdfrwt beam="1">  1        1 0.37808865E+00 0.64489902E+03</pdfrwt>
<pdfrwt beam="2">0</pdfrwt>
<totfact> 0.16747029E+00</totfact>
</mgrwt>
</event>
<event>
 6    1  0.3915971E-003  0.6505430E+03  0.7818608E-02  0.9805761E-01
          1   -1    0    0  502    0  0.00000000000E+00  0.00000000000E+00  0.10593204223E+03  0.10593204223E+03  0.00000000000E+00 0.  1.
         13   -1    0    0    0    0 -0.00000000000E+00 -0.00000000000E+00 -0.10000000000E+04  0.10000000000E+04  0.00000000000E+00 0.  1.
    9000005    2    1    2  501    0  0.31327642327E-01  0.19989994388E+00 -0.89410534821E+03  0.11057262767E+04  0.65054299193E+03 0.  0.
         13    1    3    3    0    0  0.19887424250E+02 -0.26702024397E+03 -0.76059622320E+03  0.80635099992E+03  0.00000000000E+00 0.  1.
          1    1    3    3  501    0 -0.19856096607E+02  0.26722014391E+03 -0.13350912501E+03  0.29937527678E+03  0.00000000000E+00 0.  1.
         21    1    1    2  502  501 -0.31327642327E-01 -0.19989994388E+00  0.37390432728E-01  0.20576552966E+00  0.00000000000E+00 0.  1.
<mgrwt>
<rscale>  1 0.65054302E+03</rscale>
<asrwt>0</asrwt>
<pdfrwt beam="1">  1        1 0.38520824E+00 0.65054302E+03</pdfrwt>
<pdfrwt beam="2">0</pdfrwt>
<totfact> 0.15561360E+00</totfact>
</mgrwt>
</event>
<event>
 6    1  0.3915971E-003  0.6494644E+03  0.7818608E-02  0.9807785E-01
          1   -1    0    0  502    0  0.00000000000E+00  0.00000000000E+00  0.10545503118E+03  0.10545503118E+03  0.00000000000E+00 0.  1.
         13   -1    0    0    0    0 -0.00000000000E+00 -0.00000000000E+00 -0.10000000000E+04  0.10000000000E+04  0.00000000000E+00 0.  1.
    9000005    2    1    2  501    0  0.82376869670E-04 -0.13203696145E-03 -0.89454899465E+03  0.11054510023E+04  0.64946440606E+03 0.  0.
         13    1    3    3    0    0  0.27775431056E+03 -0.16068877082E+03 -0.53208460034E+03  0.62135526072E+03  0.00000000000E+00 0.  1.
          3    1    3    3  501    0 -0.27775422819E+03  0.16068863879E+03 -0.36246439431E+03  0.48409574162E+03  0.00000000000E+00 0.  1.
         21    1    1    2  502  501 -0.82376869680E-04  0.13203696144E-03  0.40258295185E-02  0.40288364350E-02  0.00000000000E+00 0.  1.
<mgrwt>
<rscale>  1 0.64946441E+03</rscale>
<asrwt>0</asrwt>
<pdfrwt beam="1">  1        1 0.38347365E+00 0.64946441E+03</pdfrwt>
<pdfrwt beam="2">0</pdfrwt>
<totfact> 0.15841779E+00</totfact>
</mgrwt>
</event>
<event>
 6    1  0.4070189E-003  0.5462630E+03  0.7818608E-02  0.1002363E+00
          1   -1    0    0  502    0  0.00000000000E+00  0.00000000000E+00  0.74600925030E+02  0.74600925030E+02  0.00000000000E+00 0.  1.
         13   -1    0    0    0    0 -0.00000000000E+00 -0.00000000000E+00 -0.10000000000E+04  0.10000000000E+04  0.00000000000E+00 0.  1.
    9000005    2    1    2  501    0  0.11182631937E-04 -0.11476213528E-03 -0.92539913763E+03  0.10746007938E+04  0.54626303380E+03 0.  0.
         13    1    3    3    0    0  0.12585639432E+03  0.49460718567E+02  0.41274256613E+01  0.13528943164E+03  0.00000000000E+00 0.  1.
          1    1    3    3  501    0 -0.12585638313E+03 -0.49460833329E+02 -0.92952656329E+03  0.93931136216E+03  0.00000000000E+00 0.  1.
         21    1    1    2  502  501 -0.11182631941E-04  0.11476213528E-03  0.62662012201E-04  0.13123233871E-03  0.00000000000E+00 0. -1.
<mgrwt>
<rscale>  1 0.54626303E+03</rscale>
<asrwt>0</asrwt>
<pdfrwt beam="1">  1        1 0.27127666E+00 0.54626303E+03</pdfrwt>
<pdfrwt beam="2">0</pdfrwt>
<totfact> 0.49552425E+00</totfact>
</mgrwt>
</event>
<event>
 6    1  0.3915971E-003  0.6597258E+03  0.7818608E-02  0.9788699E-01
          1   -1    0    0  502    0  0.00000000000E+00  0.00000000000E+00  0.10880957234E+03  0.10880957234E+03  0.00000000000E+00 0.  1.
         13   -1    0    0    0    0 -0.00000000000E+00 -0.00000000000E+00 -0.10000000000E+04  0.10000000000E+04  0.00000000000E+00 0.  1.
    9000005    2    1    2  501    0 -0.15643222909E-04  0.21757069078E-04 -0.89119046686E+03  0.11088095249E+04  0.65972578713E+03 0.  0.
         13    1    3    3    0    0 -0.96805275932E+02  0.30786151093E+03 -0.33086810320E+03  0.46219441047E+03  0.00000000000E+00 0.  1.
          1    1    3    3  501    0  0.96805260289E+02 -0.30786148917E+03 -0.56032236366E+03  0.64661511438E+03  0.00000000000E+00 0.  1.
         21    1    1    2  502  501  0.15643222912E-04 -0.21757069069E-04  0.39195558443E-04  0.47480230403E-04  0.00000000000E+00 0.  1.
<mgrwt>
<rscale>  1 0.65972579E+03</rscale>
<asrwt>0</asrwt>
<pdfrwt beam="1">  1        1 0.39567201E+00 0.65972579E+03</pdfrwt>
<pdfrwt beam="2">0</pdfrwt>
<totfact> 0.13960195E+00</totfact>
</mgrwt>
</event>
<event>
 6    1  0.3915971E-003  0.6590395E+03  0.7818608E-02  0.9789963E-01
          1   -1    0    0  502    0  0.00000000000E+00  0.00000000000E+00  0.12292406595E+03  0.12292406595E+03  0.00000000000E+00 0.  1.
         13   -1    0    0    0    0 -0.00000000000E+00 -0.00000000000E+00 -0.10000000000E+04  0.10000000000E+04  0.00000000000E+00 0.  1.
    9000005    2    1    2  501    0 -0.19698547465E+00  0.26967618772E+00 -0.89141456774E+03  0.11085815437E+04  0.65903944942E+03 0.  0.
         13    1    3    3    0    0  0.30539189124E+03  0.35033273492E+02 -0.24628125778E+03  0.39388576443E+03  0.00000000000E+00 0.  1.
          1    1    3    3  501    0 -0.30558887671E+03 -0.34763597304E+02 -0.64513330997E+03  0.71469577926E+03  0.00000000000E+00 0.  1.
         21    1    1    2  502  501  0.19698547465E+00 -0.26967618772E+00  0.14338633690E+02  0.14342522255E+02  0.00000000000E+00 0. -1.
<mgrwt>
<rscale>  1 0.65903953E+03</rscale>
<asrwt>0</asrwt>
<pdfrwt beam="1">  1        1 0.44699755E+00 0.65903953E+03</pdfrwt>
<pdfrwt beam="2">0</pdfrwt>
<totfact> 0.81861983E-01</totfact>
</mgrwt>
</event>
<event>
 6    1  0.3915971E-003  0.6572930E+03  0.7818608E-02  0.9793190E-01
          1   -1    0    0  502    0  0.00000000000E+00  0.00000000000E+00  0.10800921631E+03  0.10800921631E+03  0.00000000000E+00 0.  1.
         13   -1    0    0    0    0 -0.00000000000E+00 -0.00000000000E+00 -0.10000000000E+04  0.10000000000E+04  0.00000000000E+00 0.  1.
    9000005    2    1    2  501    0 -0.14796156971E-02  0.31611984221E-03 -0.89199043933E+03  0.11080076646E+04  0.65729296435E+03 0.  0.
         13    1    3    3    0    0  0.23309247712E+03  0.16670019965E+03 -0.17477195497E+03  0.33565800407E+03  0.00000000000E+00 0.  1.
          3    1    3    3  501    0 -0.23309395673E+03 -0.16669988353E+03 -0.71721848435E+03  0.77234966054E+03  0.00000000000E+00 0.  1.
         21    1    1    2  502  501  0.14796156971E-02 -0.31611984222E-03 -0.34435989827E-03  0.15517016805E-02  0.00000000000E+00 0.  1.
<mgrwt>
<rscale>  1 0.65729296E+03</rscale>
<asrwt>0</asrwt>
<pdfrwt beam="1">  1        1 0.39276161E+00 0.65729296E+03</pdfrwt>
<pdfrwt beam="2">0</pdfrwt>
<totfact> 0.14388799E+00</totfact>
</mgrwt>
</event>
<event>
 6    1  0.3915971E-003  0.6248088E+03  0.7818608E-02  0.9855232E-01
          1   -1    0    0  502    0  0.00000000000E+00  0.00000000000E+00  0.10584673164E+03  0.10584673164E+03  0.00000000000E+00 0.  1.
         13   -1    0    0    0    0 -0.00000000000E+00 -0.00000000000E+00 -0.10000000000E+04  0.10000000000E+04  0.00000000000E+00 0.  1.
    9000005    2    1    2  501    0 -0.46176570295E+00 -0.24600936494E-01 -0.90239637701E+03  0.10975906628E+04  0.62480863308E+03 0.  0.
         13    1    3    3    0    0  0.72267943371E+02  0.46770954267E+02  0.76330574924E+02  0.11505013894E+03  0.00000000000E+00 0.  1.
          1    1    3    3  501    0 -0.72729709074E+02 -0.46795555203E+02 -0.97872695193E+03  0.98254052385E+03  0.00000000000E+00 0.  1.
         21    1    1    2  502  501  0.46176570295E+00  0.24600936494E-01  0.82431086491E+01  0.82560688570E+01  0.00000000000E+00 0. -1.
<mgrwt>
<rscale>  1 0.62480880E+03</rscale>
<asrwt>0</asrwt>
<pdfrwt beam="1">  1        1 0.38489802E+00 0.62480880E+03</pdfrwt>
<pdfrwt beam="2">0</pdfrwt>
<totfact> 0.15686261E+00</totfact>
</mgrwt>
</event>
<event>
 6    1  0.3915971E-003  0.6466866E+03  0.7818608E-02  0.9813016E-01
          1   -1    0    0  502    0  0.00000000000E+00  0.00000000000E+00  0.10455105096E+03  0.10455105096E+03  0.00000000000E+00 0.  1.
         13   -1    0    0    0    0 -0.00000000000E+00 -0.00000000000E+00 -0.10000000000E+04  0.10000000000E+04  0.00000000000E+00 0.  1.
    9000005    2    1    2  501    0  0.17909149847E-03  0.41894450257E-03 -0.89544856451E+03  0.11045504548E+04  0.64668661300E+03 0.  0.
         13    1    3    3    0    0  0.13490023912E+03  0.39471583606E+01  0.54145195462E+02  0.14541443108E+03  0.00000000000E+00 0.  1.
          1    1    3    3  501    0 -0.13490006003E+03 -0.39467394161E+01 -0.94959375998E+03  0.95913602369E+03  0.00000000000E+00 0.  1.
         21    1    1    2  502  501 -0.17909149848E-03 -0.41894450257E-03 -0.38452430023E-03  0.59619392695E-03  0.00000000000E+00 0. -1.
<mgrwt>
<rscale>  1 0.64668661E+03</rscale>
<asrwt>0</asrwt>
<pdfrwt beam="1">  1        1 0.38018644E+00 0.64668661E+03</pdfrwt>
<pdfrwt beam="2">0</pdfrwt>
<totfact> 0.16388647E+00</totfact>
</mgrwt>
</event>
<event>
 6    1  0.3915971E-003  0.6497203E+03  0.7818608E-02  0.9807304E-01
          1   -1    0    0  502    0  0.00000000000E+00  0.00000000000E+00  0.11756814664E+03  0.11756814664E+03  0.00000000000E+00 0.  1.
         13   -1    0    0    0    0 -0.00000000000E+00 -0.00000000000E+00 -0.10000000000E+04  0.10000000000E+04  0.00000000000E+00 0.  1.
    9000005    2    1    2  501    0 -0.18518085953E+00  0.28587086492E+00 -0.89446323173E+03  0.11055319479E+04  0.64972016971E+03 0.  0.
         13    1    3    3    0    0 -0.19060809012E+03 -0.26194311236E+03 -0.48700991915E+03  0.58491392485E+03  0.00000000000E+00 0.  1.
          1    1    3    3  501    0  0.19042290926E+03  0.26222898322E+03 -0.40745331259E+03  0.52061802307E+03  0.00000000000E+00 0.  1.
         21    1    1    2  502  501  0.18518085953E+00 -0.28587086492E+00  0.12031378371E+02  0.12036198720E+02  0.00000000000E+00 0. -1.
<mgrwt>
<rscale>  1 0.64972026E+03</rscale>
<asrwt>0</asrwt>
<pdfrwt beam="1">  1        1 0.42752143E+00 0.64972026E+03</pdfrwt>
<pdfrwt beam="2">0</pdfrwt>
<totfact> 0.10064156E+00</totfact>
</mgrwt>
</event>
<event>
 6    1  0.3915971E-003  0.6452394E+03  0.7818608E-02  0.9815753E-01
          1   -1    0    0  502    0  0.00000000000E+00  0.00000000000E+00  0.10408716361E+03  0.10408716361E+03  0.00000000000E+00 0.  1.
         13   -1    0    0    0    0 -0.00000000000E+00 -0.00000000000E+00 -0.10000000000E+04  0.10000000000E+04  0.00000000000E+00 0.  1.
    9000005    2    1    2  501    0 -0.38543803811E-04 -0.51237186042E-04 -0.89591654364E+03  0.11040834558E+04  0.64523935420E+03 0.  0.
         13    1    3    3    0    0 -0.21948794641E+03  0.85371817306E+02 -0.70656181950E+02  0.24587720890E+03  0.00000000000E+00 0.  1.
          1    1    3    3  501    0  0.21948790787E+03 -0.85371868543E+02 -0.82526036169E+03  0.85820624690E+03  0.00000000000E+00 0.  1.
         21    1    1    2  502  501  0.38543803815E-04  0.51237186047E-04  0.37072551982E-02  0.37078095931E-02  0.00000000000E+00 0.  1.
<mgrwt>
<rscale>  1 0.64523935E+03</rscale>
<asrwt>0</asrwt>
<pdfrwt beam="1">  1        1 0.37849957E+00 0.64523935E+03</pdfrwt>
<pdfrwt beam="2">0</pdfrwt>
<totfact> 0.16676275E+00</totfact>
</mgrwt>
</event>
<event>
 6    1  0.3915971E-003  0.6566970E+03  0.7818608E-02  0.9794293E-01
          1   -1    0    0  502    0  0.00000000000E+00  0.00000000000E+00  0.11901792577E+03  0.11901792577E+03  0.00000000000E+00 0.  1.
         13   -1    0    0    0    0 -0.00000000000E+00 -0.00000000000E+00 -0.10000000000E+04  0.10000000000E+04  0.00000000000E+00 0.  1.
    9000005    2    1    2  501    0 -0.21277185379E+00  0.44188516465E+00 -0.89218130674E+03  0.11078079595E+04  0.65669684829E+03 0.  0.
         13    1    3    3    0    0  0.89801787416E+02  0.16289054264E+02  0.85978445663E+02  0.12538734956E+03  0.00000000000E+00 0.  1.
          3    1    3    3  501    0 -0.90014559270E+02 -0.15847169100E+02 -0.97815975241E+03  0.98242060996E+03  0.00000000000E+00 0.  1.
         21    1    1    2  502  501  0.21277185379E+00 -0.44188516465E+00  0.11199232509E+02  0.11209966242E+02  0.00000000000E+00 0. -1.
<mgrwt>
<rscale>  1 0.65669703E+03</rscale>
<asrwt>0</asrwt>
<pdfrwt beam="1">  1        1 0.43279337E+00 0.65669703E+03</pdfrwt>
<pdfrwt beam="2">0</pdfrwt>
<totfact> 0.95111411E-01</totfact>
</mgrwt>
</event>
<event>
 6    1  0.3915971E-003  0.6509895E+03  0.7818608E-02  0.9804924E-01
          1   -1    0    0  502    0  0.00000000000E+00  0.00000000000E+00  0.10594907033E+03  0.10594907033E+03  0.00000000000E+00 0.  1.
         13   -1    0    0    0    0 -0.00000000000E+00 -0.00000000000E+00 -0.10000000000E+04  0.10000000000E+04  0.00000000000E+00 0.  1.
    9000005    2    1    2  501    0 -0.31444636477E-03  0.66224340668E-03 -0.89405311374E+03  0.11059467665E+04  0.65098946240E+03 0.  0.
         13    1    3    3    0    0  0.30118696027E+03 -0.11081582962E+03 -0.53934412377E+03  0.62760323213E+03  0.00000000000E+00 0.  1.
          3    1    3    3  501    0 -0.30118727471E+03  0.11081649186E+03 -0.35470898997E+03  0.47834353438E+03  0.00000000000E+00 0.  1.
         21    1    1    2  502  501  0.31444636481E-03 -0.66224340669E-03  0.21840655408E-02  0.23038196832E-02  0.00000000000E+00 0.  1.
<mgrwt>
<rscale>  1 0.65098946E+03</rscale>
<asrwt>0</asrwt>
<pdfrwt beam="1">  1        1 0.38527016E+00 0.65098946E+03</pdfrwt>
<pdfrwt beam="2">0</pdfrwt>
<totfact> 0.15550266E+00</totfact>
</mgrwt>
</event>
<event>
 6    1  0.3915971E-003  0.6525454E+03  0.7818608E-02  0.9802015E-01
          1   -1    0    0  502    0  0.00000000000E+00  0.00000000000E+00  0.10645391891E+03  0.10645391891E+03  0.00000000000E+00 0.  1.
         13   -1    0    0    0    0 -0.00000000000E+00 -0.00000000000E+00 -0.10000000000E+04  0.10000000000E+04  0.00000000000E+00 0.  1.
    9000005    2    1    2  501    0 -0.12383132457E-04  0.13573585755E-03 -0.89354601519E+03  0.11064537675E+04  0.65254536884E+03 0.  0.
         13    1    3    3    0    0  0.15788606927E+03 -0.27973031529E+03 -0.34971183118E+03  0.47484252656E+03  0.00000000000E+00 0.  1.
          1    1    3    3  501    0 -0.15788608165E+03  0.27973045103E+03 -0.54383418400E+03  0.63161124095E+03  0.00000000000E+00 0.  1.
         21    1    1    2  502  501  0.12383132448E-04 -0.13573585759E-03 -0.65902669453E-04  0.15139592744E-03  0.00000000000E+00 0.  1.
<mgrwt>
<rscale>  1 0.65254537E+03</rscale>
<asrwt>0</asrwt>
<pdfrwt beam="1">  1        1 0.38710598E+00 0.65254537E+03</pdfrwt>
<pdfrwt beam="2">0</pdfrwt>
<totfact> 0.15257652E+00</totfact>
</mgrwt>
</event>
<event>
 6    1  0.5061382E-003  0.6521321E+03  0.7818608E-02  0.9802787E-01
          1   -1    0    0  502    0  0.00000000000E+00  0.00000000000E+00  0.10631912116E+03  0.10631912116E+03  0.00000000000E+00 0.  1.
         13   -1    0    0    0    0 -0.00000000000E+00 -0.00000000000E+00 -0.10000000000E+04  0.10000000000E+04  0.00000000000E+00 0.  1.
    9000005    2    1    2  501    0 -0.16953723997E-03  0.25349843259E-04 -0.89368072600E+03  0.11063188915E+04  0.65213207993E+03 0.  0.
         13    1    3    3    0    0 -0.30856528585E+03 -0.21895084255E+02 -0.62172599485E+03  0.69443152507E+03  0.00000000000E+00 0.  1.
          1    1    3    3  501    0  0.30856511631E+03  0.21895109604E+02 -0.27195473115E+03  0.41188736643E+03  0.00000000000E+00 0.  1.
         21    1    1    2  502  501  0.16953723999E-03 -0.25349843258E-04 -0.15284215939E-03  0.22966544360E-03  0.00000000000E+00 0. -1.
<mgrwt>
<rscale>  1 0.65213208E+03</rscale>
<asrwt>0</asrwt>
<pdfrwt beam="1">  1        1 0.38661580E+00 0.65213208E+03</pdfrwt>
<pdfrwt beam="2">0</pdfrwt>
<totfact> 0.15335260E+00</totfact>
</mgrwt>
</event>
<event>
 6    1  0.3915971E-003  0.6431702E+03  0.7818608E-02  0.9819680E-01
          1   -1    0    0  502    0  0.00000000000E+00  0.00000000000E+00  0.10341973176E+03  0.10341973176E+03  0.00000000000E+00 0.  1.
         13   -1    0    0    0    0 -0.00000000000E+00 -0.00000000000E+00 -0.10000000000E+04  0.10000000000E+04  0.00000000000E+00 0.  1.
    9000005    2    1    2  501    0 -0.39447574831E-02  0.36500020436E-02 -0.89657977002E+03  0.11034143344E+04  0.64317020240E+03 0.  0.
         13    1    3    3    0    0 -0.14190329351E+03 -0.61158582239E+01 -0.94327149839E+03  0.95390516725E+03  0.00000000000E+00 0.  1.
          1    1    3    3  501    0  0.14189934875E+03  0.61195082259E+01  0.46691728363E+02  0.14950916713E+03  0.00000000000E+00 0.  1.
         21    1    1    2  502  501  0.39447574831E-02 -0.36500020436E-02 -0.49821340104E-03  0.53973922511E-02  0.00000000000E+00 0.  1.
<mgrwt>
<rscale>  1 0.64317020E+03</rscale>
<asrwt>0</asrwt>
<pdfrwt beam="1">  1        1 0.37607254E+00 0.64317020E+03</pdfrwt>
<pdfrwt beam="2">0</pdfrwt>
<totfact> 0.17098519E+00</totfact>
</mgrwt>
</event>
<event>
 6    1  0.3915971E-003  0.6566689E+03  0.7818608E-02  0.9794345E-01
          1   -1    0    0  502    0  0.00000000000E+00  0.00000000000E+00  0.10780353258E+03  0.10780353258E+03  0.00000000000E+00 0.  1.
         13   -1    0    0    0    0 -0.00000000000E+00 -0.00000000000E+00 -0.10000000000E+04  0.10000000000E+04  0.00000000000E+00 0.  1.
    9000005    2    1    2  501    0 -0.62613062823E-05  0.13573565383E-05 -0.89219647481E+03  0.11078035228E+04  0.65666893902E+03 0.  0.
         13    1    3    3    0    0 -0.28177753581E+03 -0.78831953178E+02 -0.19479417901E+03  0.35150793548E+03  0.00000000000E+00 0.  1.
          1    1    3    3  501    0  0.28177752955E+03  0.78831954536E+02 -0.69740229579E+03  0.75629558732E+03  0.00000000000E+00 0.  1.
         21    1    1    2  502  501  0.62613062786E-05 -0.13573565367E-05  0.73885118331E-05  0.97793905838E-05  0.00000000000E+00 0. -1.
<mgrwt>
<rscale>  1 0.65666894E+03</rscale>
<asrwt>0</asrwt>
<pdfrwt beam="1">  1        1 0.39201367E+00 0.65666894E+03</pdfrwt>
<pdfrwt beam="2">0</pdfrwt>
<totfact> 0.14500939E+00</totfact>
</mgrwt>
</event>
<event>
 6    1  0.3915971E-003  0.6181258E+03  0.7818608E-02  0.9868498E-01
          1   -1    0    0  502    0  0.00000000000E+00  0.00000000000E+00  0.97477881131E+02  0.97477881131E+02  0.00000000000E+00 0.  1.
         13   -1    0    0    0    0 -0.00000000000E+00 -0.00000000000E+00 -0.10000000000E+04  0.10000000000E+04  0.00000000000E+00 0.  1.
    9000005    2    1    2  501    0  0.51368199185E-01  0.51022179613E-01 -0.90447938230E+03  0.10955192791E+04  0.61812582256E+03 0.  0.
         13    1    3    3    0    0 -0.15525119361E+02  0.30462004517E+03 -0.54089479883E+03  0.62096826380E+03  0.00000000000E+00 0.  1.
          1    1    3    3  501    0  0.15576487560E+02 -0.30456902299E+03 -0.36358458348E+03  0.47455101525E+03  0.00000000000E+00 0.  1.
         21    1    1    2  502  501 -0.51368199185E-01 -0.51022179613E-01  0.19572634349E+01  0.19586020802E+01  0.00000000000E+00 0.  1.
<mgrwt>
<rscale>  1 0.61812583E+03</rscale>
<asrwt>0</asrwt>
<pdfrwt beam="1">  1        1 0.35446577E+00 0.61812583E+03</pdfrwt>
<pdfrwt beam="2">0</pdfrwt>
<totfact> 0.21361766E+00</totfact>
</mgrwt>
</event>
<event>
 6    1  0.3915971E-003  0.6432650E+03  0.7818608E-02  0.9819500E-01
          1   -1    0    0  502    0  0.00000000000E+00  0.00000000000E+00  0.10395303269E+03  0.10395303269E+03  0.00000000000E+00 0.  1.
         13   -1    0    0    0    0 -0.00000000000E+00 -0.00000000000E+00 -0.10000000000E+04  0.10000000000E+04  0.00000000000E+00 0.  1.
    9000005    2    1    2  501    0  0.22495050116E-01 -0.58326670071E-01 -0.89655040797E+03  0.11034457256E+04  0.64326497753E+03 0.  0.
         13    1    3    3    0    0  0.93570501359E+02  0.30429825845E+03 -0.52645495314E+03  0.61522978350E+03  0.00000000000E+00 0.  1.
          1    1    3    3  501    0 -0.93548006309E+02 -0.30435658512E+03 -0.37009545483E+03  0.48821594206E+03  0.00000000000E+00 0.  1.
         21    1    1    2  502  501 -0.22495050116E-01  0.58326670071E-01  0.50344066402E+00  0.50730713568E+00  0.00000000000E+00 0. -1.
<mgrwt>
<rscale>  1 0.64326498E+03</rscale>
<asrwt>0</asrwt>
<pdfrwt beam="1">  1        1 0.37801183E+00 0.64326498E+03</pdfrwt>
<pdfrwt beam="2">0</pdfrwt>
<totfact> 0.16765122E+00</totfact>
</mgrwt>
</event>
<event>
 6    1  0.3915971E-003  0.6398345E+03  0.7818608E-02  0.9826043E-01
          1   -1    0    0  502    0  0.00000000000E+00  0.00000000000E+00  0.10235891865E+03  0.10235891865E+03  0.00000000000E+00 0.  1.
         13   -1    0    0    0    0 -0.00000000000E+00 -0.00000000000E+00 -0.10000000000E+04  0.10000000000E+04  0.00000000000E+00 0.  1.
    9000005    2    1    2  501    0 -0.23920224451E-02  0.35065400238E-02 -0.89765254300E+03  0.11023466962E+04  0.63983447137E+03 0.  0.
         13    1    3    3    0    0  0.25219015881E+03 -0.16510023415E+03 -0.63348279128E+03  0.70154002763E+03  0.00000000000E+00 0.  1.
          1    1    3    3  501    0 -0.25219255083E+03  0.16510374069E+03 -0.26416975173E+03  0.40080666862E+03  0.00000000000E+00 0.  1.
         21    1    1    2  502  501  0.23920224451E-02 -0.35065400238E-02  0.11461653276E-01  0.12222401161E-01  0.00000000000E+00 0.  1.
<mgrwt>
<rscale>  1 0.63983447E+03</rscale>
<asrwt>0</asrwt>
<pdfrwt beam="1">  1        1 0.37221503E+00 0.63983447E+03</pdfrwt>
<pdfrwt beam="2">0</pdfrwt>
<totfact> 0.17790851E+00</totfact>
</mgrwt>
</event>
<event>
 6    1  0.3915971E-003  0.6454572E+03  0.7818608E-02  0.9815341E-01
          1   -1    0    0  502    0  0.00000000000E+00  0.00000000000E+00  0.10415379490E+03  0.10415379490E+03  0.00000000000E+00 0.  1.
         13   -1    0    0    0    0 -0.00000000000E+00 -0.00000000000E+00 -0.10000000000E+04  0.10000000000E+04  0.00000000000E+00 0.  1.
    9000005    2    1    2  501    0 -0.14453197679E-05  0.15566081743E-04 -0.89584626068E+03  0.11041537372E+04  0.64545716550E+03 0.  0.
         13    1    3    3    0    0 -0.40668947047E+02  0.25768071585E+03 -0.77294928148E+03  0.81578422779E+03  0.00000000000E+00 0.  1.
          1    1    3    3  501    0  0.40668945602E+02 -0.25768070028E+03 -0.12289697921E+03  0.28836950937E+03  0.00000000000E+00 0.  1.
         21    1    1    2  502  501  0.14453197714E-05 -0.15566081757E-04  0.55581954523E-04  0.57738596442E-04  0.00000000000E+00 0. -1.
<mgrwt>
<rscale>  1 0.64545717E+03</rscale>
<asrwt>0</asrwt>
<pdfrwt beam="1">  1        1 0.37874187E+00 0.64545717E+03</pdfrwt>
<pdfrwt beam="2">0</pdfrwt>
<totfact> 0.16634637E+00</totfact>
</mgrwt>
</event>
<event>
 6    1  0.3915971E-003  0.6467508E+03  0.7818608E-02  0.9812895E-01
          1   -1    0    0  502    0  0.00000000000E+00  0.00000000000E+00  0.11976578530E+03  0.11976578530E+03  0.00000000000E+00 0.  1.
         13   -1    0    0    0    0 -0.00000000000E+00 -0.00000000000E+00 -0.10000000000E+04  0.10000000000E+04  0.00000000000E+00 0.  1.
    9000005    2    1    2  501    0  0.25974046707E+01  0.91050937913E+00 -0.89529054962E+03  0.11044599446E+04  0.64674494622E+03 0.  0.
         13    1    3    3    0    0 -0.25706359235E+03 -0.18898773568E+03 -0.37078349047E+03  0.48916096691E+03  0.00000000000E+00 0.  1.
          3    1    3    3  501    0  0.25966099702E+03  0.18989824506E+03 -0.52450705915E+03  0.61529897769E+03  0.00000000000E+00 0.  1.
         21    1    1    2  502  501 -0.25974046707E+01 -0.91050937913E+00  0.15056334916E+02  0.15305840698E+02  0.00000000000E+00 0.  1.
<mgrwt>
<rscale>  1 0.64675080E+03</rscale>
<asrwt>0</asrwt>
<pdfrwt beam="1">  1        1 0.43551286E+00 0.64675080E+03</pdfrwt>
<pdfrwt beam="2">0</pdfrwt>
<totfact> 0.92624488E-01</totfact>
</mgrwt>
</event>
<event>
 6    1  0.3915971E-003  0.6159100E+03  0.7818608E-02  0.9872937E-01
          1   -1    0    0  502    0  0.00000000000E+00  0.00000000000E+00  0.94942102971E+02  0.94942102971E+02  0.00000000000E+00 0.  1.
         13   -1    0    0    0    0 -0.00000000000E+00 -0.00000000000E+00 -0.10000000000E+04  0.10000000000E+04  0.00000000000E+00 0.  1.
    9000005    2    1    2  501    0  0.81704398644E-03 -0.40220166760E-02 -0.90516366420E+03  0.10948362562E+04  0.61591003311E+03 0.  0.
         13    1    3    3    0    0  0.10742274768E+03  0.27301273124E+03 -0.61894983900E+03  0.68496313867E+03  0.00000000000E+00 0.  1.
          3    1    3    3  501    0 -0.10742193063E+03 -0.27301675326E+03 -0.28621382520E+03  0.40987311753E+03  0.00000000000E+00 0.  1.
         21    1    1    2  502  501 -0.81704398645E-03  0.40220166760E-02  0.10576717073E+00  0.10584676936E+00  0.00000000000E+00 0. -1.
<mgrwt>
<rscale>  1 0.61591003E+03</rscale>
<asrwt>0</asrwt>
<pdfrwt beam="1">  1        1 0.34524474E+00 0.61591003E+03</pdfrwt>
<pdfrwt beam="2">0</pdfrwt>
<totfact> 0.23441362E+00</totfact>
</mgrwt>
</event>
<event>
 6    1  0.3915971E-003  0.6538887E+03  0.7818608E-02  0.9799510E-01
          1   -1    0    0  502    0  0.00000000000E+00  0.00000000000E+00  0.10689263375E+03  0.10689263375E+03  0.00000000000E+00 0.  1.
         13   -1    0    0    0    0 -0.00000000000E+00 -0.00000000000E+00 -0.10000000000E+04  0.10000000000E+04  0.00000000000E+00 0.  1.
    9000005    2    1    2  501    0 -0.36435484958E-05  0.38546800667E-05 -0.89310738770E+03  0.11068926117E+04  0.65388871206E+03 0.  0.
         13    1    3    3    0    0 -0.29622964939E+03 -0.60913820983E+02 -0.23627938591E+03  0.38378437563E+03  0.00000000000E+00 0.  1.
          1    1    3    3  501    0  0.29622964575E+03  0.60913824837E+02 -0.65682800179E+03  0.72310823603E+03  0.00000000000E+00 0.  1.
         21    1    1    2  502  501  0.36435484573E-05 -0.38546800643E-05  0.21449135618E-04  0.22095235290E-04  0.00000000000E+00 0. -1.
<mgrwt>
<rscale>  1 0.65388871E+03</rscale>
<asrwt>0</asrwt>
<pdfrwt beam="1">  1        1 0.38870131E+00 0.65388871E+03</pdfrwt>
<pdfrwt beam="2">0</pdfrwt>
<totfact> 0.15007646E+00</totfact>
</mgrwt>
</event>
<event>
 6    1  0.3915971E-003  0.6195916E+03  0.7818608E-02  0.9865573E-01
          1   -1    0    0  502    0  0.00000000000E+00  0.00000000000E+00  0.95976879205E+02  0.95976879205E+02  0.00000000000E+00 0.  1.
         13   -1    0    0    0    0 -0.00000000000E+00 -0.00000000000E+00 -0.10000000000E+04  0.10000000000E+04  0.00000000000E+00 0.  1.
    9000005    2    1    2  501    0  0.19213238653E-03 -0.27586612237E-03 -0.90402654047E+03  0.10959734430E+04  0.61959164131E+03 0.  0.
         13    1    3    3    0    0 -0.15951260924E+03 -0.26527044328E+03 -0.42958207760E+03  0.52948412817E+03  0.00000000000E+00 0.  1.
          1    1    3    3  501    0  0.15951280137E+03  0.26527016742E+03 -0.47444446287E+03  0.56648931488E+03  0.00000000000E+00 0.  1.
         21    1    1    2  502  501 -0.19213238652E-03  0.27586612238E-03  0.34196756948E-02  0.34361604778E-02  0.00000000000E+00 0.  1.
<mgrwt>
<rscale>  1 0.61959164E+03</rscale>
<asrwt>0</asrwt>
<pdfrwt beam="1">  1        1 0.34900757E+00 0.61959164E+03</pdfrwt>
<pdfrwt beam="2">0</pdfrwt>
<totfact> 0.22558891E+00</totfact>
</mgrwt>
</event>
<event>
 6    1  0.3915971E-003  0.6569466E+03  0.7818608E-02  0.9793831E-01
          3   -1    0    0  502    0  0.00000000000E+00  0.00000000000E+00  0.10821254196E+03  0.10821254196E+03  0.00000000000E+00 0.  1.
         13   -1    0    0    0    0 -0.00000000000E+00 -0.00000000000E+00 -0.10000000000E+04  0.10000000000E+04  0.00000000000E+00 0.  1.
    9000005    2    1    2  501    0 -0.35866803884E-01 -0.73291323734E-01 -0.89209946219E+03  0.11078900445E+04  0.65694664434E+03 0.  0.
         13    1    3    3    0    0 -0.30089283223E+03  0.67672694888E+02 -0.25538060514E+03  0.40041896009E+03  0.00000000000E+00 0.  1.
          3    1    3    3  501    0  0.30085696542E+03 -0.67745986211E+02 -0.63671885706E+03  0.70747108437E+03  0.00000000000E+00 0.  1.
         21    1    1    2  502  501  0.35866803884E-01  0.73291323734E-01  0.31200414987E+00  0.32249749657E+00  0.00000000000E+00 0.  1.
<mgrwt>
<rscale>  1 0.65694665E+03</rscale>
<asrwt>0</asrwt>
<pdfrwt beam="1">  1        3 0.39350098E+00 0.65694665E+03</pdfrwt>
<pdfrwt beam="2">0</pdfrwt>
<totfact> 0.64002182E-02</totfact>
</mgrwt>
</event>
<event>
 6    1  0.3915971E-003  0.6522694E+03  0.7818608E-02  0.9802530E-01
          3   -1    0    0  502    0  0.00000000000E+00  0.00000000000E+00  0.10636646049E+03  0.10636646049E+03  0.00000000000E+00 0.  1.
         13   -1    0    0    0    0 -0.00000000000E+00 -0.00000000000E+00 -0.10000000000E+04  0.10000000000E+04  0.00000000000E+00 0.  1.
    9000005    2    1    2  501    0 -0.57022475110E-03  0.10920057813E-02 -0.89363599174E+03  0.11063637162E+04  0.65226941275E+03 0.  0.
         13    1    3    3    0    0 -0.16458547318E+03 -0.15940068050E+03 -0.53148529193E+02  0.23520569951E+03  0.00000000000E+00 0.  1.
          1    1    3    3  501    0  0.16458490296E+03  0.15940177250E+03 -0.84048746255E+03  0.87115801670E+03  0.00000000000E+00 0.  1.
         21    1    1    2  502  501  0.57022475110E-03 -0.10920057813E-02  0.24522259252E-02  0.27442749281E-02  0.00000000000E+00 0. -1.
<mgrwt>
<rscale>  1 0.65226941E+03</rscale>
<asrwt>0</asrwt>
<pdfrwt beam="1">  1        3 0.38678794E+00 0.65226941E+03</pdfrwt>
<pdfrwt beam="2">0</pdfrwt>
<totfact> 0.69478972E-02</totfact>
</mgrwt>
</event>
<event>
 6    1  0.3915971E-003  0.5394546E+03  0.7818608E-02  0.1003965E+00
          1   -1    0    0  502    0  0.00000000000E+00  0.00000000000E+00  0.72976553625E+02  0.72976553625E+02  0.00000000000E+00 0.  1.
         13   -1    0    0    0    0 -0.00000000000E+00 -0.00000000000E+00 -0.10000000000E+04  0.10000000000E+04  0.00000000000E+00 0.  1.
    9000005    2    1    2  501    0 -0.16466706635E+00  0.12000637518E+00 -0.92719663625E+03  0.10727091373E+04  0.53945458511E+03 0.  0.
         13    1    3    3    0    0  0.10501283859E+03 -0.95114029947E+02 -0.72334357273E+01  0.14186859255E+03  0.00000000000E+00 0.  1.
          1    1    3    3  501    0 -0.10517750565E+03  0.95234036322E+02 -0.91996320052E+03  0.93084054472E+03  0.00000000000E+00 0.  1.
         21    1    1    2  502  501  0.16466706635E+00 -0.12000637518E+00  0.17318987679E+00  0.26741635374E+00  0.00000000000E+00 0.  1.
<mgrwt>
<rscale>  1 0.53945462E+03</rscale>
<asrwt>0</asrwt>
<pdfrwt beam="1">  1        1 0.26536985E+00 0.53945462E+03</pdfrwt>
<pdfrwt beam="2">0</pdfrwt>
<totfact> 0.52616255E+00</totfact>
</mgrwt>
</event>
<event>
 6    1  0.3915971E-003  0.6530305E+03  0.7818608E-02  0.9801109E-01
          1   -1    0    0  502    0  0.00000000000E+00  0.00000000000E+00  0.10662584234E+03  0.10662584234E+03  0.00000000000E+00 0.  1.
         13   -1    0    0    0    0 -0.00000000000E+00 -0.00000000000E+00 -0.10000000000E+04  0.10000000000E+04  0.00000000000E+00 0.  1.
    9000005    2    1    2  501    0 -0.23453090832E-01  0.28338617808E-01 -0.89328373940E+03  0.11065282279E+04  0.65303053424E+03 0.  0.
         13    1    3    3    0    0  0.30013272922E+03 -0.72594767972E+02 -0.62637417791E+03  0.69835110528E+03  0.00000000000E+00 0.  1.
          1    1    3    3  501    0 -0.30015618232E+03  0.72623106589E+02 -0.26690956148E+03  0.40817712259E+03  0.00000000000E+00 0.  1.
         21    1    1    2  502  501  0.23453090832E-01 -0.28338617808E-01 -0.90418258192E-01  0.97614477119E-01  0.00000000000E+00 0.  1.
<mgrwt>
<rscale>  1 0.65303054E+03</rscale>
<asrwt>0</asrwt>
<pdfrwt beam="1">  1        1 0.38773115E+00 0.65303054E+03</pdfrwt>
<pdfrwt beam="2">0</pdfrwt>
<totfact> 0.15159328E+00</totfact>
</mgrwt>
</event>
<event>
 6    1  0.3915971E-003  0.6416965E+03  0.7818608E-02  0.9822486E-01
          1   -1    0    0  502    0  0.00000000000E+00  0.00000000000E+00  0.11317005107E+03  0.11317005107E+03  0.00000000000E+00 0.  1.
         13   -1    0    0    0    0 -0.00000000000E+00 -0.00000000000E+00 -0.10000000000E+04  0.10000000000E+04  0.00000000000E+00 0.  1.
    9000005    2    1    2  501    0 -0.18550156725E+00 -0.28265490752E+00 -0.89705330667E+03  0.11029411045E+04  0.64169644743E+03 0.  0.
         13    1    3    3    0    0  0.14423746970E+03  0.28162162448E+03 -0.35862019543E+03  0.47825059499E+03  0.00000000000E+00 0.  1.
          3    1    3    3  501    0 -0.14442297127E+03 -0.28190427939E+03 -0.53843311125E+03  0.62469050950E+03  0.00000000000E+00 0.  1.
         21    1    1    2  502  501  0.18550156725E+00  0.28265490752E+00  0.10223357745E+02  0.10228946584E+02  0.00000000000E+00 0.  1.
<mgrwt>
<rscale>  1 0.64169654E+03</rscale>
<asrwt>0</asrwt>
<pdfrwt beam="1">  1        1 0.41152833E+00 0.64169654E+03</pdfrwt>
<pdfrwt beam="2">0</pdfrwt>
<totfact> 0.11900610E+00</totfact>
</mgrwt>
</event>
<event>
 6    1  0.3915971E-003  0.6613845E+03  0.7818608E-02  0.9785648E-01
          1   -1    0    0  502    0  0.00000000000E+00  0.00000000000E+00  0.10935737705E+03  0.10935737705E+03  0.00000000000E+00 0.  1.
         13   -1    0    0    0    0 -0.00000000000E+00 -0.00000000000E+00 -0.10000000000E+04  0.10000000000E+04  0.00000000000E+00 0.  1.
    9000005    2    1    2  501    0 -0.16271044530E-05 -0.53186071511E-05 -0.89064260126E+03  0.11093573547E+04  0.66138453047E+03 0.  0.
         13    1    3    3    0    0  0.11532388062E+03 -0.64692749652E+02  0.63084499957E+02  0.14650734942E+03  0.00000000000E+00 0.  1.
          1    1    3    3  501    0 -0.11532388225E+03  0.64692744333E+02 -0.95372710122E+03  0.96285000523E+03  0.00000000000E+00 0.  1.
         21    1    1    2  502  501  0.16271044465E-05  0.53186071491E-05 -0.21694068729E-04  0.22395706484E-04  0.00000000000E+00 0. -1.
<mgrwt>
<rscale>  1 0.66138453E+03</rscale>
<asrwt>0</asrwt>
<pdfrwt beam="1">  1        1 0.39766403E+00 0.66138453E+03</pdfrwt>
<pdfrwt beam="2">0</pdfrwt>
<totfact> 0.13673848E+00</totfact>
</mgrwt>
</event>
<event>
 6    1  0.3915971E-003  0.6451541E+03  0.7818608E-02  0.9815915E-01
          1   -1    0    0  502    0  0.00000000000E+00  0.00000000000E+00  0.10407722900E+03  0.10407722900E+03  0.00000000000E+00 0.  1.
         13   -1    0    0    0    0 -0.00000000000E+00 -0.00000000000E+00 -0.10000000000E+04  0.10000000000E+04  0.00000000000E+00 0.  1.
    9000005    2    1    2  501    0 -0.24113844042E-01  0.14799965675E-01 -0.89593314703E+03  0.11040470930E+04  0.64515407370E+03 0.  0.
         13    1    3    3    0    0  0.14837293870E+03 -0.19808366003E+03 -0.93926915109E+02  0.26471481011E+03  0.00000000000E+00 0.  1.
          3    1    3    3  501    0 -0.14839705255E+03  0.19809846000E+03 -0.80200623192E+03  0.83933228289E+03  0.00000000000E+00 0.  1.
         21    1    1    2  502  501  0.24113844042E-01 -0.14799965675E-01  0.10376034317E-01  0.30136000840E-01  0.00000000000E+00 0. -1.
<mgrwt>
<rscale>  1 0.64515407E+03</rscale>
<asrwt>0</asrwt>
<pdfrwt beam="1">  1        1 0.37846345E+00 0.64515407E+03</pdfrwt>
<pdfrwt beam="2">0</pdfrwt>
<totfact> 0.16682653E+00</totfact>
</mgrwt>
</event>
<event>
 6    1  0.3915971E-003  0.6478697E+03  0.7818608E-02  0.9810785E-01
          1   -1    0    0  502    0  0.00000000000E+00  0.00000000000E+00  0.10606780327E+03  0.10606780327E+03  0.00000000000E+00 0.  1.
         13   -1    0    0    0    0 -0.00000000000E+00 -0.00000000000E+00 -0.10000000000E+04  0.10000000000E+04  0.00000000000E+00 0.  1.
    9000005    2    1    2  501    0 -0.29560177165E+01 -0.13753535033E+01 -0.88702727867E+03  0.10984318664E+04  0.64786151487E+03 0.  0.
         13    1    3    3    0    0 -0.31852671233E+03  0.16027171937E+02 -0.55445489425E+03  0.63963768374E+03  0.00000000000E+00 0.  1.
          1    1    3    3  501    0  0.31557069461E+03 -0.17402525440E+02 -0.33257238442E+03  0.45879418269E+03  0.00000000000E+00 0.  1.
         21    1    1    2  502  501  0.29560177165E+01  0.13753535033E+01 -0.69049180602E+01  0.76359368395E+01  0.00000000000E+00 0.  1.
<mgrwt>
<rscale>  1 0.64786972E+03</rscale>
<asrwt>0</asrwt>
<pdfrwt beam="1">  1        1 0.38570192E+00 0.64786972E+03</pdfrwt>
<pdfrwt beam="2">0</pdfrwt>
<totfact> 0.15490964E+00</totfact>
</mgrwt>
</event>
<event>
 6    1  0.3915971E-003  0.6497113E+03  0.7818608E-02  0.9807321E-01
          1   -1    0    0  502    0  0.00000000000E+00  0.00000000000E+00  0.10553515305E+03  0.10553515305E+03  0.00000000000E+00 0.  1.
         13   -1    0    0    0    0 -0.00000000000E+00 -0.00000000000E+00 -0.10000000000E+04  0.10000000000E+04  0.00000000000E+00 0.  1.
    9000005    2    1    2  501    0 -0.55652354500E-03 -0.39464539086E-03 -0.89446878206E+03  0.11055311592E+04  0.64971127583E+03 0.  0.
         13    1    3    3    0    0 -0.31831595506E+02  0.25002558479E+03 -0.98494516415E+02  0.27060527210E+03  0.00000000000E+00 0.  1.
          3    1    3    3  501    0  0.31831038982E+02 -0.25002597944E+03 -0.79597426565E+03  0.83492588714E+03  0.00000000000E+00 0.  1.
         21    1    1    2  502  501  0.55652354500E-03  0.39464539085E-03  0.39351172366E-02  0.39938216168E-02  0.00000000000E+00 0.  1.
<mgrwt>
<rscale>  1 0.64971128E+03</rscale>
<asrwt>0</asrwt>
<pdfrwt beam="1">  1        1 0.38376500E+00 0.64971128E+03</pdfrwt>
<pdfrwt beam="2">0</pdfrwt>
<totfact> 0.15794153E+00</totfact>
</mgrwt>
</event>
<event>
 6    1  0.3915971E-003  0.6545589E+03  0.7818608E-02  0.9798262E-01
          1   -1    0    0  502    0  0.00000000000E+00  0.00000000000E+00  0.10717938725E+03  0.10717938725E+03  0.00000000000E+00 0.  1.
         13   -1    0    0    0    0 -0.00000000000E+00 -0.00000000000E+00 -0.10000000000E+04  0.10000000000E+04  0.00000000000E+00 0.  1.
    9000005    2    1    2  501    0  0.40602499553E-01  0.57768623410E-01 -0.89286708214E+03  0.11070948581E+04  0.65455893044E+03 0.  0.
         13    1    3    3    0    0 -0.65138977614E+02 -0.27452709143E+03 -0.16599045734E+03  0.32735461241E+03  0.00000000000E+00 0.  1.
          3    1    3    3  501    0  0.65179580114E+02  0.27458486006E+03 -0.72687662480E+03  0.77974024567E+03  0.00000000000E+00 0.  1.
         21    1    1    2  502  501 -0.40602499553E-01 -0.57768623410E-01  0.46469389252E-01  0.84529172231E-01  0.00000000000E+00 0.  1.
<mgrwt>
<rscale>  1 0.65455893E+03</rscale>
<asrwt>0</asrwt>
<pdfrwt beam="1">  1        1 0.38974405E+00 0.65455893E+03</pdfrwt>
<pdfrwt beam="2">0</pdfrwt>
<totfact> 0.14846914E+00</totfact>
</mgrwt>
</event>
<event>
 6    1  0.3915971E-003  0.6444095E+03  0.7818608E-02  0.9817326E-01
          1   -1    0    0  502    0  0.00000000000E+00  0.00000000000E+00  0.10387336199E+03  0.10387336199E+03  0.00000000000E+00 0.  1.
         13   -1    0    0    0    0 -0.00000000000E+00 -0.00000000000E+00 -0.10000000000E+04  0.10000000000E+04  0.00000000000E+00 0.  1.
    9000005    2    1    2  501    0 -0.15879069958E-01  0.11207222130E-01 -0.89618228351E+03  0.11038144199E+04  0.64440948780E+03 0.  0.
         13    1    3    3    0    0 -0.29904715781E+03  0.95556391526E+02 -0.32385595727E+03  0.45104645838E+03  0.00000000000E+00 0.  1.
          1    1    3    3  501    0  0.29903127874E+03 -0.95545184303E+02 -0.57232632624E+03  0.65276796154E+03  0.00000000000E+00 0.  1.
         21    1    1    2  502  501  0.15879069958E-01 -0.11207222130E-01  0.55645497274E-01  0.58942073746E-01  0.00000000000E+00 0. -1.
<mgrwt>
<rscale>  1 0.64440949E+03</rscale>
<asrwt>0</asrwt>
<pdfrwt beam="1">  1        1 0.37772211E+00 0.64440949E+03</pdfrwt>
<pdfrwt beam="2">0</pdfrwt>
<totfact> 0.16810955E+00</totfact>
</mgrwt>
</event>
<event>
 6    1  0.3915971E-003  0.6524126E+03  0.7818608E-02  0.9802263E-01
          1   -1    0    0  502    0  0.00000000000E+00  0.00000000000E+00  0.10642962797E+03  0.10642962797E+03  0.00000000000E+00 0.  1.
         13   -1    0    0    0    0 -0.00000000000E+00 -0.00000000000E+00 -0.10000000000E+04  0.10000000000E+04  0.00000000000E+00 0.  1.
    9000005    2    1    2  501    0 -0.24555733992E-01 -0.34777772949E-01 -0.89355832014E+03  0.11063853818E+04  0.65241255331E+03 0.  0.
         13    1    3    3    0    0 -0.26466783497E+03  0.97678543297E+01 -0.12381539202E+03  0.29236060806E+03  0.00000000000E+00 0.  1.
          3    1    3    3  501    0  0.26464327923E+03 -0.98026321026E+01 -0.76974292812E+03  0.81402477372E+03  0.00000000000E+00 0.  1.
         21    1    1    2  502  501  0.24555733992E-01  0.34777772949E-01 -0.12051880313E-01  0.44246190596E-01  0.00000000000E+00 0. -1.
<mgrwt>
<rscale>  1 0.65241255E+03</rscale>
<asrwt>0</asrwt>
<pdfrwt beam="1">  1        1 0.38701765E+00 0.65241255E+03</pdfrwt>
<pdfrwt beam="2">0</pdfrwt>
<totfact> 0.15271774E+00</totfact>
</mgrwt>
</event>
<event>
 6    1  0.3915971E-003  0.6573083E+03  0.7818608E-02  0.9793161E-01
          1   -1    0    0  502    0  0.00000000000E+00  0.00000000000E+00  0.10835944985E+03  0.10835944985E+03  0.00000000000E+00 0.  1.
         13   -1    0    0    0    0 -0.00000000000E+00 -0.00000000000E+00 -0.10000000000E+04  0.10000000000E+04  0.00000000000E+00 0.  1.
    9000005    2    1    2  501    0  0.10917785982E-01 -0.24435508170E-02 -0.89198634692E+03  0.11080134721E+04  0.65730830760E+03 0.  0.
         13    1    3    3    0    0  0.11813197904E+03 -0.29270345634E+03 -0.29163917745E+03  0.42974863309E+03  0.00000000000E+00 0.  1.
          3    1    3    3  501    0 -0.11812106125E+03  0.29270101279E+03 -0.60034716947E+03  0.67826483905E+03  0.00000000000E+00 0.  1.
         21    1    1    2  502  501 -0.10917785982E-01  0.24435508169E-02  0.34579676771E+00  0.34597770672E+00  0.00000000000E+00 0. -1.
<mgrwt>
<rscale>  1 0.65730831E+03</rscale>
<asrwt>0</asrwt>
<pdfrwt beam="1">  1        1 0.39403519E+00 0.65730831E+03</pdfrwt>
<pdfrwt beam="2">0</pdfrwt>
<totfact> 0.14202506E+00</totfact>
</mgrwt>
</event>
<event>
 6    1  0.3915971E-003  0.6413123E+03  0.7818608E-02  0.9823219E-01
          1   -1    0    0  502    0  0.00000000000E+00  0.00000000000E+00  0.10304612011E+03  0.10304612011E+03  0.00000000000E+00 0.  1.
         13   -1    0    0    0    0 -0.00000000000E+00 -0.00000000000E+00 -0.10000000000E+04  0.10000000000E+04  0.00000000000E+00 0.  1.
    9000005    2    1    2  501    0 -0.48826515575E-01 -0.11256668226E+00 -0.89716109515E+03  0.11028053018E+04  0.64131231707E+03 0.  0.
         13    1    3    3    0    0  0.11259022475E+03 -0.29593653587E+03 -0.53620946387E+03  0.62271629264E+03  0.00000000000E+00 0.  1.
          3    1    3    3  501    0 -0.11263905127E+03  0.29582396919E+03 -0.36095163127E+03  0.48008900918E+03  0.00000000000E+00 0.  1.
         21    1    1    2  502  501  0.48826515575E-01  0.11256668226E+00  0.20721525264E+00  0.24081828731E+00  0.00000000000E+00 0. -1.
<mgrwt>
<rscale>  1 0.64131233E+03</rscale>
<asrwt>0</asrwt>
<pdfrwt beam="1">  1        1 0.37471395E+00 0.64131233E+03</pdfrwt>
<pdfrwt beam="2">0</pdfrwt>
<totfact> 0.17341533E+00</totfact>
</mgrwt>
</event>
<event>
 6    1  0.3915971E-003  0.4891653E+03  0.7818608E-02  0.1016646E+00
          1   -1    0    0  502    0  0.00000000000E+00  0.00000000000E+00  0.63334205149E+02  0.63334205149E+02  0.00000000000E+00 0.  1.
         13   -1    0    0    0    0 -0.00000000000E+00 -0.00000000000E+00 -0.10000000000E+04  0.10000000000E+04  0.00000000000E+00 0.  1.
    9000005    2    1    2  501    0 -0.25688684385E+00 -0.95478884907E-01 -0.94017365506E+03  0.10598156557E+04  0.48916525557E+03 0.  0.
         13    1    3    3    0    0  0.17234744036E+03  0.16488070558E+03 -0.58594708259E+03  0.63263201853E+03  0.00000000000E+00 0.  1.
          1    1    3    3  501    0 -0.17260432720E+03 -0.16497618447E+03 -0.35422657247E+03  0.42718363716E+03  0.00000000000E+00 0.  1.
         21    1    1    2  502  501  0.25688684385E+00  0.95478884907E-01  0.35078602111E+01  0.35185494637E+01  0.00000000000E+00 0. -1.
<mgrwt>
<rscale>  1 0.48916533E+03</rscale>
<asrwt>0</asrwt>
<pdfrwt beam="1">  1        1 0.23030669E+00 0.48916533E+03</pdfrwt>
<pdfrwt beam="2">0</pdfrwt>
<totfact> 0.75435981E+00</totfact>
</mgrwt>
</event>
<event>
 6    1  0.3915971E-003  0.6465820E+03  0.7818608E-02  0.9813214E-01
          1   -1    0    0  502    0  0.00000000000E+00  0.00000000000E+00  0.10476610597E+03  0.10476610597E+03  0.00000000000E+00 0.  1.
         13   -1    0    0    0    0 -0.00000000000E+00 -0.00000000000E+00 -0.10000000000E+04  0.10000000000E+04  0.00000000000E+00 0.  1.
    9000005    2    1    2  501    0  0.74634035604E-02 -0.16561586582E-02 -0.89548287785E+03  0.11045170048E+04  0.64658195871E+03 0.  0.
         13    1    3    3    0    0 -0.36099177047E+02  0.77144964577E+02 -0.98048731230E+03  0.98417979339E+03  0.00000000000E+00 0.  1.
          3    1    3    3  501    0  0.36106640451E+02 -0.77146620735E+02  0.85004434448E+02  0.12033721142E+03  0.00000000000E+00 0.  1.
         21    1    1    2  502  501 -0.74634035604E-02  0.16561586582E-02  0.24898381669E+00  0.24910115661E+00  0.00000000000E+00 0.  1.
<mgrwt>
<rscale>  1 0.64658196E+03</rscale>
<asrwt>0</asrwt>
<pdfrwt beam="1">  1        1 0.38096846E+00 0.64658196E+03</pdfrwt>
<pdfrwt beam="2">0</pdfrwt>
<totfact> 0.16259233E+00</totfact>
</mgrwt>
</event>
<event>
 6    1  0.3915971E-003  0.6346911E+03  0.7818608E-02  0.9835937E-01
          1   -1    0    0  502    0  0.00000000000E+00  0.00000000000E+00  0.10070831323E+03  0.10070831323E+03  0.00000000000E+00 0.  1.
         13   -1    0    0    0    0 -0.00000000000E+00 -0.00000000000E+00 -0.10000000000E+04  0.10000000000E+04  0.00000000000E+00 0.  1.
    9000005    2    1    2  501    0 -0.12017280091E-03  0.33900361387E-04 -0.89929177779E+03  0.11007081587E+04  0.63469106584E+03 0.  0.
         13    1    3    3    0    0 -0.26166922404E+03  0.16917799039E+03 -0.34535685833E+03  0.46514872335E+03  0.00000000000E+00 0.  1.
          3    1    3    3  501    0  0.26166910386E+03 -0.16917795649E+03 -0.55393491946E+03  0.63555943536E+03  0.00000000000E+00 0.  1.
         21    1    1    2  502  501  0.12017280091E-03 -0.33900361365E-04  0.91024463508E-04  0.15451922061E-03  0.00000000000E+00 0. -1.
<mgrwt>
<rscale>  1 0.63469107E+03</rscale>
<asrwt>0</asrwt>
<pdfrwt beam="1">  1        1 0.36621282E+00 0.63469107E+03</pdfrwt>
<pdfrwt beam="2">0</pdfrwt>
<totfact> 0.18921480E+00</totfact>
</mgrwt>
</event>
<event>
 6    1  0.3915971E-003  0.6498819E+03  0.7818608E-02  0.9807001E-01
          1   -1    0    0  502    0  0.00000000000E+00  0.00000000000E+00  0.10561916606E+03  0.10561916606E+03  0.00000000000E+00 0.  1.
         13   -1    0    0    0    0 -0.00000000000E+00 -0.00000000000E+00 -0.10000000000E+04  0.10000000000E+04  0.00000000000E+00 0.  1.
    9000005    2    1    2  501    0 -0.29401614911E-02 -0.40368383276E-02 -0.89441317685E+03  0.11055864399E+04  0.64988187008E+03 0.  0.
         13    1    3    3    0    0  0.18413776009E+03 -0.16768469262E+03 -0.80227490397E+03  0.84004160157E+03  0.00000000000E+00 0.  1.
          1    1    3    3  501    0 -0.18414070025E+03  0.16768065578E+03 -0.92138272881E+02  0.26554483829E+03  0.00000000000E+00 0.  1.
         21    1    1    2  502  501  0.29401614911E-02  0.40368383276E-02  0.32342903030E-01  0.32726197299E-01  0.00000000000E+00 0. -1.
<mgrwt>
<rscale>  1 0.64988187E+03</rscale>
<asrwt>0</asrwt>
<pdfrwt beam="1">  1        1 0.38407050E+00 0.64988187E+03</pdfrwt>
<pdfrwt beam="2">0</pdfrwt>
<totfact> 0.15744617E+00</totfact>
</mgrwt>
</event>
<event>
 6    1  0.3915971E-003  0.6421905E+03  0.7818608E-02  0.9821545E-01
          1   -1    0    0  502    0  0.00000000000E+00  0.00000000000E+00  0.10363826234E+03  0.10363826234E+03  0.00000000000E+00 0.  1.
         13   -1    0    0    0    0 -0.00000000000E+00 -0.00000000000E+00 -0.10000000000E+04  0.10000000000E+04  0.00000000000E+00 0.  1.
    9000005    2    1    2  501    0 -0.12438197782E+00  0.39784563188E+00 -0.89680702636E+03  0.11030283164E+04  0.64219035380E+03 0.  0.
         13    1    3    3    0    0 -0.24942618186E+03 -0.17630798937E+03 -0.61804860538E+03  0.68940699585E+03  0.00000000000E+00 0.  1.
          3    1    3    3  501    0  0.24930179988E+03  0.17670583501E+03 -0.27875842098E+03  0.41362132055E+03  0.00000000000E+00 0.  1.
         21    1    1    2  502  501  0.12438197782E+00 -0.39784563188E+00  0.44528869506E+00  0.60994593626E+00  0.00000000000E+00 0. -1.
<mgrwt>
<rscale>  1 0.64219049E+03</rscale>
<asrwt>0</asrwt>
<pdfrwt beam="1">  1        1 0.37686720E+00 0.64219049E+03</pdfrwt>
<pdfrwt beam="2">0</pdfrwt>
<totfact> 0.16964314E+00</totfact>
</mgrwt>
</event>
<event>
 6    1  0.3915971E-003  0.6671017E+03  0.7818608E-02  0.9775208E-01
          1   -1    0    0  502    0  0.00000000000E+00  0.00000000000E+00  0.11125851466E+03  0.11125851466E+03  0.00000000000E+00 0.  1.
         13   -1    0    0    0    0 -0.00000000000E+00 -0.00000000000E+00 -0.10000000000E+04  0.10000000000E+04  0.00000000000E+00 0.  1.
    9000005    2    1    2  501    0  0.16080517278E-03 -0.70033263787E-02 -0.88873256191E+03  0.11112471701E+04  0.66710172112E+03 0.  0.
         13    1    3    3    0    0 -0.19052632419E+03  0.25287834753E+03 -0.61912424215E+03  0.69538663064E+03  0.00000000000E+00 0.  1.
          1    1    3    3  501    0  0.19052648499E+03 -0.25288535085E+03 -0.26960831976E+03  0.41586053941E+03  0.00000000000E+00 0.  1.
         21    1    1    2  502  501 -0.16080517278E-03  0.70033263787E-02 -0.89234289191E-02  0.11344603226E-01  0.00000000000E+00 0. -1.
<mgrwt>
<rscale>  1 0.66710172E+03</rscale>
<asrwt>0</asrwt>
<pdfrwt beam="1">  1        1 0.40457727E+00 0.66710172E+03</pdfrwt>
<pdfrwt beam="2">0</pdfrwt>
<totfact> 0.12722637E+00</totfact>
</mgrwt>
</event>
<event>
 6    1  0.3915971E-003  0.6470495E+03  0.7818608E-02  0.9812331E-01
          1   -1    0    0  502    0  0.00000000000E+00  0.00000000000E+00  0.10473688179E+03  0.10473688179E+03  0.00000000000E+00 0.  1.
         13   -1    0    0    0    0 -0.00000000000E+00 -0.00000000000E+00 -0.10000000000E+04  0.10000000000E+04  0.00000000000E+00 0.  1.
    9000005    2    1    2  501    0  0.18154886219E-01 -0.30735231426E-01 -0.89532655724E+03  0.11046640892E+04  0.64704953793E+03 0.  0.
         13    1    3    3    0    0 -0.23954575332E+03  0.36453158217E+02 -0.81362032540E+03  0.84893405785E+03  0.00000000000E+00 0.  1.
          1    1    3    3  501    0  0.23956390821E+03 -0.36483893448E+02 -0.81706231842E+02  0.25573003132E+03  0.00000000000E+00 0.  1.
         21    1    1    2  502  501 -0.18154886219E-01  0.30735231426E-01  0.63439026296E-01  0.72792612275E-01  0.00000000000E+00 0.  1.
<mgrwt>
<rscale>  1 0.64704954E+03</rscale>
<asrwt>0</asrwt>
<pdfrwt beam="1">  1        1 0.38086219E+00 0.64704954E+03</pdfrwt>
<pdfrwt beam="2">0</pdfrwt>
<totfact> 0.16275404E+00</totfact>
</mgrwt>
</event>
<event>
 6    1  0.3915971E-003  0.6279002E+03  0.7818608E-02  0.9849155E-01
          1   -1    0    0  502    0  0.00000000000E+00  0.00000000000E+00  0.10141312683E+03  0.10141312683E+03  0.00000000000E+00 0.  1.
         13   -1    0    0    0    0 -0.00000000000E+00 -0.00000000000E+00 -0.10000000000E+04  0.10000000000E+04  0.00000000000E+00 0.  1.
    9000005    2    1    2  501    0  0.10210313709E-01  0.28105069514E+00 -0.90142770914E+03  0.10985584039E+04  0.62790012977E+03 0.  0.
         13    1    3    3    0    0 -0.22954164645E+03  0.14616637815E+03 -0.17667467426E+03  0.32445017812E+03  0.00000000000E+00 0.  1.
          1    1    3    3  501    0  0.22955185676E+03 -0.14588532746E+03 -0.72475303489E+03  0.77410822582E+03  0.00000000000E+00 0.  1.
         21    1    1    2  502  501 -0.10210313709E-01 -0.28105069514E+00  0.28408359750E+01  0.28547228904E+01  0.00000000000E+00 0.  1.
<mgrwt>
<rscale>  1 0.62790019E+03</rscale>
<asrwt>0</asrwt>
<pdfrwt beam="1">  1        1 0.36877578E+00 0.62790019E+03</pdfrwt>
<pdfrwt beam="2">0</pdfrwt>
<totfact> 0.18460882E+00</totfact>
</mgrwt>
</event>
<event>
 6    1  0.3915971E-003  0.6398123E+03  0.7818608E-02  0.9826086E-01
          1   -1    0    0  502    0  0.00000000000E+00  0.00000000000E+00  0.10233993958E+03  0.10233993958E+03  0.00000000000E+00 0.  1.
         13   -1    0    0    0    0 -0.00000000000E+00 -0.00000000000E+00 -0.10000000000E+04  0.10000000000E+04  0.00000000000E+00 0.  1.
    9000005    2    1    2  501    0  0.22611452835E-05  0.18467552643E-05 -0.89766006130E+03  0.11023399365E+04  0.63981227716E+03 0.  0.
         13    1    3    3    0    0 -0.22123324742E+03 -0.17160132740E+02 -0.84585298568E+03  0.87447463846E+03  0.00000000000E+00 0.  1.
          1    1    3    3  501    0  0.22123324968E+03  0.17160134587E+02 -0.51807075622E+02  0.22786529807E+03  0.00000000000E+00 0.  1.
         21    1    1    2  502  501 -0.22611452964E-05 -0.18467552638E-05  0.88412661179E-06  0.30504037309E-05  0.00000000000E+00 0. -1.
<mgrwt>
<rscale>  1 0.63981228E+03</rscale>
<asrwt>0</asrwt>
<pdfrwt beam="1">  1        1 0.37214602E+00 0.63981228E+03</pdfrwt>
<pdfrwt beam="2">0</pdfrwt>
<totfact> 0.17803356E+00</totfact>
</mgrwt>
</event>
<event>
 6    1  0.3915971E-003  0.6518886E+03  0.7818608E-02  0.9803242E-01
          1   -1    0    0  502    0  0.00000000000E+00  0.00000000000E+00  0.11573804076E+03  0.11573804076E+03  0.00000000000E+00 0.  1.
         13   -1    0    0    0    0 -0.00000000000E+00 -0.00000000000E+00 -0.10000000000E+04  0.10000000000E+04  0.00000000000E+00 0.  1.
    9000005    2    1    2  501    0  0.14710472903E+01 -0.12187865199E+01 -0.89365393346E+03  0.11061537515E+04  0.65188581804E+03 0.  0.
         13    1    3    3    0    0 -0.98156513186E+02 -0.25760639023E+03 -0.15126755251E+03  0.31444812897E+03  0.00000000000E+00 0.  1.
          3    1    3    3  501    0  0.99627560476E+02  0.25638760371E+03 -0.74238638095E+03  0.79170562254E+03  0.00000000000E+00 0.  1.
         21    1    1    2  502  501 -0.14710472903E+01  0.12187865199E+01  0.93919742162E+01  0.95842892480E+01  0.00000000000E+00 0. -1.
<mgrwt>
<rscale>  1 0.65188862E+03</rscale>
<asrwt>0</asrwt>
<pdfrwt beam="1">  1        1 0.42086649E+00 0.65188862E+03</pdfrwt>
<pdfrwt beam="2">0</pdfrwt>
<totfact> 0.10781649E+00</totfact>
</mgrwt>
</event>
<event>
 6    1  0.3915971E-003  0.6575692E+03  0.7818608E-02  0.9792679E-01
          1   -1    0    0  502    0  0.00000000000E+00  0.00000000000E+00  0.11495511977E+03  0.11495511977E+03  0.00000000000E+00 0.  1.
         13   -1    0    0    0    0 -0.00000000000E+00 -0.00000000000E+00 -0.10000000000E+04  0.10000000000E+04  0.00000000000E+00 0.  1.
    9000005    2    1    2  501    0  0.78587927389E+00 -0.78499848046E+00 -0.89185079066E+03  0.11080591611E+04  0.65756827624E+03 0.  0.
         13    1    3    3    0    0  0.26730436942E+03  0.17774345077E+03 -0.56670198994E+03  0.65130292922E+03  0.00000000000E+00 0.  1.
          1    1    3    3  501    0 -0.26651849014E+03 -0.17852844925E+03 -0.32514880072E+03  0.45675623191E+03  0.00000000000E+00 0.  1.
         21    1    1    2  502  501 -0.78587927389E+00  0.78499848046E+00  0.68059104348E+01  0.68959586494E+01  0.00000000000E+00 0.  1.
<mgrwt>
<rscale>  1 0.65756921E+03</rscale>
<asrwt>0</asrwt>
<pdfrwt beam="1">  1        1 0.41801950E+00 0.65756921E+03</pdfrwt>
<pdfrwt beam="2">0</pdfrwt>
<totfact> 0.11092735E+00</totfact>
</mgrwt>
</event>
<event>
 6    1  0.3915971E-003  0.6908768E+03  0.7818608E-02  0.9732962E-01
          1   -1    0    0  502    0  0.00000000000E+00  0.00000000000E+00  0.11933695224E+03  0.11933695224E+03  0.00000000000E+00 0.  1.
         13   -1    0    0    0    0 -0.00000000000E+00 -0.00000000000E+00 -0.10000000000E+04  0.10000000000E+04  0.00000000000E+00 0.  1.
    9000005    2    1    2  501    0  0.98436160354E-02  0.34684016134E-02 -0.88066887701E+03  0.11193249979E+04  0.69087681958E+03 0.  0.
         13    1    3    3    0    0  0.77112168668E+02  0.32013560088E+03 -0.60945929808E+03  0.69272918627E+03  0.00000000000E+00 0.  1.
          1    1    3    3  501    0 -0.77102325052E+02 -0.32013213247E+03 -0.27120957894E+03  0.42659581161E+03  0.00000000000E+00 0.  1.
         21    1    1    2  502  501 -0.98436160354E-02 -0.34684016134E-02  0.58292549904E-02  0.11954363226E-01  0.00000000000E+00 0.  1.
<mgrwt>
<rscale>  1 0.69087682E+03</rscale>
<asrwt>0</asrwt>
<pdfrwt beam="1">  1        1 0.43395347E+00 0.69087682E+03</pdfrwt>
<pdfrwt beam="2">0</pdfrwt>
<totfact> 0.93332908E-01</totfact>
</mgrwt>
</event>
<event>
 6    1  0.3915971E-003  0.6689795E+03  0.7818608E-02  0.9771803E-01
          1   -1    0    0  502    0  0.00000000000E+00  0.00000000000E+00  0.11191793710E+03  0.11191793710E+03  0.00000000000E+00 0.  1.
         13   -1    0    0    0    0 -0.00000000000E+00 -0.00000000000E+00 -0.10000000000E+04  0.10000000000E+04  0.00000000000E+00 0.  1.
    9000005    2    1    2  501    0  0.15272548863E-02 -0.56162783217E-03 -0.88811659966E+03  0.11118833620E+04  0.66897945870E+03 0.  0.
         13    1    3    3    0    0  0.25592834490E+03 -0.83522345742E+02 -0.77400412499E+03  0.81948623262E+03  0.00000000000E+00 0.  1.
          1    1    3    3  501    0 -0.25592681764E+03  0.83521784114E+02 -0.11411247467E+03  0.29239712941E+03  0.00000000000E+00 0.  1.
         21    1    1    2  502  501 -0.15272548863E-02  0.56162783217E-03  0.34536760769E-01  0.34575074515E-01  0.00000000000E+00 0. -1.
<mgrwt>
<rscale>  1 0.66897946E+03</rscale>
<asrwt>0</asrwt>
<pdfrwt beam="1">  1        1 0.40697517E+00 0.66897946E+03</pdfrwt>
<pdfrwt beam="2">0</pdfrwt>
<totfact> 0.12407793E+00</totfact>
</mgrwt>
</event>
<event>
 6    1  0.3915971E-003  0.6436096E+03  0.7818608E-02  0.9818845E-01
          1   -1    0    0  502    0  0.00000000000E+00  0.00000000000E+00  0.10355872608E+03  0.10355872608E+03  0.00000000000E+00 0.  1.
         13   -1    0    0    0    0 -0.00000000000E+00 -0.00000000000E+00 -0.10000000000E+04  0.10000000000E+04  0.00000000000E+00 0.  1.
    9000005    2    1    2  501    0  0.75907611716E-04  0.31576145847E-03 -0.89644161451E+03  0.11035582555E+04  0.64360955166E+03 0.  0.
         13    1    3    3    0    0 -0.13396866719E+03 -0.11085885789E+03 -0.91250812155E+03  0.92892860977E+03  0.00000000000E+00 0.  1.
          3    1    3    3  501    0  0.13396874309E+03  0.11085917365E+03  0.16066507035E+02  0.17462964570E+03  0.00000000000E+00 0.  1.
         21    1    1    2  502  501 -0.75907611714E-04 -0.31576145848E-03  0.34059338851E-03  0.47060718277E-03  0.00000000000E+00 0.  1.
<mgrwt>
<rscale>  1 0.64360955E+03</rscale>
<asrwt>0</asrwt>
<pdfrwt beam="1">  1        1 0.37657798E+00 0.64360955E+03</pdfrwt>
<pdfrwt beam="2">0</pdfrwt>
<totfact> 0.17009727E+00</totfact>
</mgrwt>
</event>
<event>
 6    1  0.3915971E-003  0.6562551E+03  0.7818608E-02  0.9795112E-01
          1   -1    0    0  502    0  0.00000000000E+00  0.00000000000E+00  0.10770970697E+03  0.10770970697E+03  0.00000000000E+00 0.  1.
         13   -1    0    0    0    0 -0.00000000000E+00 -0.00000000000E+00 -0.10000000000E+04  0.10000000000E+04  0.00000000000E+00 0.  1.
    9000005    2    1    2  501    0  0.12076435563E-02 -0.19887321807E-01 -0.89232966172E+03  0.11076655838E+04  0.65625514845E+03 0.  0.
         13    1    3    3    0    0 -0.97822539850E+02  0.30257957014E+03 -0.30967625004E+03  0.44387275813E+03  0.00000000000E+00 0.  1.
          1    1    3    3  501    0  0.97823747494E+02 -0.30259945746E+03 -0.58265341167E+03  0.66379282563E+03  0.00000000000E+00 0.  1.
         21    1    1    2  502  501 -0.12076435563E-02  0.19887321807E-01  0.39368684311E-01  0.44123205641E-01  0.00000000000E+00 0.  1.
<mgrwt>
<rscale>  1 0.65625515E+03</rscale>
<asrwt>0</asrwt>
<pdfrwt beam="1">  1        1 0.39167249E+00 0.65625515E+03</pdfrwt>
<pdfrwt beam="2">0</pdfrwt>
<totfact> 0.14552717E+00</totfact>
</mgrwt>
</event>
<event>
 6    1  0.3915971E-003  0.6487116E+03  0.7818608E-02  0.9809200E-01
          1   -1    0    0  502    0  0.00000000000E+00  0.00000000000E+00  0.10526865802E+03  0.10526865802E+03  0.00000000000E+00 0.  1.
         13   -1    0    0    0    0 -0.00000000000E+00 -0.00000000000E+00 -0.10000000000E+04  0.10000000000E+04  0.00000000000E+00 0.  1.
    9000005    2    1    2  501    0 -0.30111670836E-02  0.72545400068E-02 -0.89479302801E+03  0.11052064739E+04  0.64871163621E+03 0.  0.
         13    1    3    3    0    0  0.14968691534E+03 -0.69767538947E+02 -0.92300319427E+03  0.93766122814E+03  0.00000000000E+00 0.  1.
          1    1    3    3  501    0 -0.14968992650E+03  0.69774793487E+02  0.28210166260E+02  0.16754524578E+03  0.00000000000E+00 0.  1.
         21    1    1    2  502  501  0.30111670836E-02 -0.72545400068E-02  0.61686032223E-01  0.62184098043E-01  0.00000000000E+00 0. -1.
<mgrwt>
<rscale>  1 0.64871164E+03</rscale>
<asrwt>0</asrwt>
<pdfrwt beam="1">  1        1 0.38279593E+00 0.64871164E+03</pdfrwt>
<pdfrwt beam="2">0</pdfrwt>
<totfact> 0.15953615E+00</totfact>
</mgrwt>
</event>
<event>
 6    1  0.3915971E-003  0.6413268E+03  0.7818608E-02  0.9823191E-01
          1   -1    0    0  502    0  0.00000000000E+00  0.00000000000E+00  0.10721071746E+03  0.10721071746E+03  0.00000000000E+00 0.  1.
         13   -1    0    0    0    0 -0.00000000000E+00 -0.00000000000E+00 -0.10000000000E+04  0.10000000000E+04  0.00000000000E+00 0.  1.
    9000005    2    1    2  501    0 -0.27034051485E+00 -0.57889920190E+00 -0.89714932396E+03  0.11028041123E+04  0.64132643195E+03 0.  0.
         13    1    3    3    0    0  0.21715862224E+03 -0.42518877997E+02 -0.49556734920E+02  0.22676329548E+03  0.00000000000E+00 0.  1.
          3    1    3    3  501    0 -0.21742896275E+03  0.41939978795E+02 -0.84759258904E+03  0.87604081678E+03  0.00000000000E+00 0.  1.
         21    1    1    2  502  501  0.27034051485E+00  0.57889920190E+00  0.43600414236E+01  0.44066052121E+01  0.00000000000E+00 0.  1.
<mgrwt>
<rscale>  1 0.64132675E+03</rscale>
<asrwt>0</asrwt>
<pdfrwt beam="1">  1        1 0.38985798E+00 0.64132675E+03</pdfrwt>
<pdfrwt beam="2">0</pdfrwt>
<totfact> 0.14866409E+00</totfact>
</mgrwt>
</event>
<event>
 6    1  0.3915971E-003  0.6460747E+03  0.7818608E-02  0.9814173E-01
          1   -1    0    0  502    0  0.00000000000E+00  0.00000000000E+00  0.12480257095E+03  0.12480257095E+03  0.00000000000E+00 0.  1.
         13   -1    0    0    0    0 -0.00000000000E+00 -0.00000000000E+00 -0.10000000000E+04  0.10000000000E+04  0.00000000000E+00 0.  1.
    9000005    2    1    2  501    0  0.32153093347E+01  0.35085192249E+01 -0.89534066845E+03  0.11041047929E+04  0.64605714396E+03 0.  0.
         13    1    3    3    0    0  0.23203236843E+03 -0.11850772130E+02 -0.83534786771E+03  0.86705566193E+03  0.00000000000E+00 0.  1.
          1    1    3    3  501    0 -0.22881705910E+03  0.15359291355E+02 -0.59992800743E+02  0.23704913100E+03  0.00000000000E+00 0.  1.
         21    1    1    2  502  501 -0.32153093347E+01 -0.35085192249E+01  0.20143239408E+02  0.20697778024E+02  0.00000000000E+00 0.  1.
<mgrwt>
<rscale>  1 0.64607467E+03</rscale>
<asrwt>0</asrwt>
<pdfrwt beam="1">  1        1 0.45382849E+00 0.64607467E+03</pdfrwt>
<pdfrwt beam="2">0</pdfrwt>
<totfact> 0.76345746E-01</totfact>
</mgrwt>
</event>
<event>
 6    1  0.3915971E-003  0.6544769E+03  0.7818608E-02  0.9798415E-01
          1   -1    0    0  502    0  0.00000000000E+00  0.00000000000E+00  0.10708513337E+03  0.10708513337E+03  0.00000000000E+00 0.  1.
         13   -1    0    0    0    0 -0.00000000000E+00 -0.00000000000E+00 -0.10000000000E+04  0.10000000000E+04  0.00000000000E+00 0.  1.
    9000005    2    1    2  501    0 -0.13371121287E-03 -0.11806566411E-03 -0.89291492950E+03  0.11070849442E+04  0.65447689221E+03 0.  0.
         13    1    3    3    0    0 -0.67041977697E+02 -0.12014306008E+02  0.94962416289E+02  0.11686244405E+03  0.00000000000E+00 0.  1.
          3    1    3    3  501    0  0.67041843986E+02  0.12014187943E+02 -0.98787734579E+03  0.99022250019E+03  0.00000000000E+00 0.  1.
         21    1    1    2  502  501  0.13371121288E-03  0.11806566411E-03  0.62868148591E-04  0.18913115449E-03  0.00000000000E+00 0.  1.
<mgrwt>
<rscale>  1 0.65447689E+03</rscale>
<asrwt>0</asrwt>
<pdfrwt beam="1">  1        1 0.38940131E+00 0.65447689E+03</pdfrwt>
<pdfrwt beam="2">0</pdfrwt>
<totfact> 0.14899183E+00</totfact>
</mgrwt>
</event>
<event>
 6    1  0.6065651E-003  0.6331870E+03  0.7818608E-02  0.9838849E-01
          1   -1    0    0  502    0  0.00000000000E+00  0.00000000000E+00  0.10023146140E+03  0.10023146140E+03  0.00000000000E+00 0.  1.
         13   -1    0    0    0    0 -0.00000000000E+00 -0.00000000000E+00 -0.10000000000E+04  0.10000000000E+04  0.00000000000E+00 0.  1.
    9000005    2    1    2  501    0  0.14582490451E-04  0.14467510532E-04 -0.89976852972E+03  0.11002314390E+04  0.63318702793E+03 0.  0.
         13    1    3    3    0    0  0.29097884008E+03 -0.54026777256E+02 -0.64526971341E+03  0.70990181087E+03  0.00000000000E+00 0.  1.
          1    1    3    3  501    0 -0.29097882549E+03  0.54026791724E+02 -0.25449881631E+03  0.39032962815E+03  0.00000000000E+00 0.  1.
         21    1    1    2  502  501 -0.14582490490E-04 -0.14467510534E-04 -0.88824962340E-05  0.22379826391E-04  0.00000000000E+00 0. -1.
<mgrwt>
<rscale>  1 0.63318703E+03</rscale>
<asrwt>0</asrwt>
<pdfrwt beam="1">  1        1 0.36447881E+00 0.63318703E+03</pdfrwt>
<pdfrwt beam="2">0</pdfrwt>
<totfact> 0.19260775E+00</totfact>
</mgrwt>
</event>
<event>
 6    1  0.3915971E-003  0.6540019E+03  0.7818608E-02  0.9799299E-01
          1   -1    0    0  502    0  0.00000000000E+00  0.00000000000E+00  0.10761612137E+03  0.10761612137E+03  0.00000000000E+00 0.  1.
         13   -1    0    0    0    0 -0.00000000000E+00 -0.00000000000E+00 -0.10000000000E+04  0.10000000000E+04  0.00000000000E+00 0.  1.
    9000005    2    1    2  501    0  0.13767473454E-01 -0.20845579811E-01 -0.89307013484E+03  0.11069294106E+04  0.65400187591E+03 0.  0.
         13    1    3    3    0    0  0.18813199878E+03  0.98120695342E+02 -0.86766725025E+03  0.89323444681E+03  0.00000000000E+00 0.  1.
          1    1    3    3  501    0 -0.18811823131E+03 -0.98141540922E+02 -0.25402884595E+02  0.21369496379E+03  0.00000000000E+00 0.  1.
         21    1    1    2  502  501 -0.13767473454E-01  0.20845579811E-01  0.68625621768E+00  0.68671076723E+00  0.00000000000E+00 0.  1.
<mgrwt>
<rscale>  1 0.65400188E+03</rscale>
<asrwt>0</asrwt>
<pdfrwt beam="1">  1        1 0.39133218E+00 0.65400188E+03</pdfrwt>
<pdfrwt beam="2">0</pdfrwt>
<totfact> 0.14609534E+00</totfact>
</mgrwt>
</event>
<event>
 6    1  0.3915971E-003  0.6447814E+03  0.7818608E-02  0.9816621E-01
          1   -1    0    0  502    0  0.00000000000E+00  0.00000000000E+00  0.10395477542E+03  0.10395477542E+03  0.00000000000E+00 0.  1.
         13   -1    0    0    0    0 -0.00000000000E+00 -0.00000000000E+00 -0.10000000000E+04  0.10000000000E+04  0.00000000000E+00 0.  1.
    9000005    2    1    2  501    0 -0.19964835423E-02 -0.41533110709E-03 -0.89606417176E+03  0.11039357188E+04  0.64478141363E+03 0.  0.
         13    1    3    3    0    0  0.35501207735E+02 -0.31905583756E+03 -0.39727560181E+03  0.51076889787E+03  0.00000000000E+00 0.  1.
          3    1    3    3  501    0 -0.35503204219E+02  0.31905542223E+03 -0.49878856995E+03  0.59316682095E+03  0.00000000000E+00 0.  1.
         21    1    1    2  502  501  0.19964835423E-02  0.41533110711E-03  0.18947179394E-01  0.19056601309E-01  0.00000000000E+00 0. -1.
<mgrwt>
<rscale>  1 0.64478141E+03</rscale>
<asrwt>0</asrwt>
<pdfrwt beam="1">  1        1 0.37801816E+00 0.64478141E+03</pdfrwt>
<pdfrwt beam="2">0</pdfrwt>
<totfact> 0.16759377E+00</totfact>
</mgrwt>
</event>
<event>
 6    1  0.3915971E-003  0.6349982E+03  0.7818608E-02  0.9835344E-01
          1   -1    0    0  502    0  0.00000000000E+00  0.00000000000E+00  0.10080576791E+03  0.10080576791E+03  0.00000000000E+00 0.  1.
         13   -1    0    0    0    0 -0.00000000000E+00 -0.00000000000E+00 -0.10000000000E+04  0.10000000000E+04  0.00000000000E+00 0.  1.
    9000005    2    1    2  501    0 -0.58139893069E-05 -0.80619861365E-06 -0.89919433359E+03  0.11008056662E+04  0.63499816163E+03 0.  0.
         13    1    3    3    0    0 -0.26778556219E+01 -0.24596603406E+03 -0.10159140778E+03  0.26613394176E+03  0.00000000000E+00 0.  1.
          3    1    3    3  501    0  0.26778498079E+01  0.24596603325E+03 -0.79760292581E+03  0.83467172448E+03  0.00000000000E+00 0.  1.
         21    1    1    2  502  501  0.58139893067E-05  0.80619861168E-06  0.10149474318E-03  0.10166432669E-03  0.00000000000E+00 0. -1.
<mgrwt>
<rscale>  1 0.63499816E+03</rscale>
<asrwt>0</asrwt>
<pdfrwt beam="1">  1        1 0.36656720E+00 0.63499816E+03</pdfrwt>
<pdfrwt beam="2">0</pdfrwt>
<totfact> 0.18852847E+00</totfact>
</mgrwt>
</event>
<event>
 6    1  0.3915971E-003  0.6437883E+03  0.7818608E-02  0.9818505E-01
          1   -1    0    0  502    0  0.00000000000E+00  0.00000000000E+00  0.10362177662E+03  0.10362177662E+03  0.00000000000E+00 0.  1.
         13   -1    0    0    0    0 -0.00000000000E+00 -0.00000000000E+00 -0.10000000000E+04  0.10000000000E+04  0.00000000000E+00 0.  1.
    9000005    2    1    2  501    0 -0.10746654838E-02  0.25465170194E-03 -0.89638409099E+03  0.11036158060E+04  0.64378832593E+03 0.  0.
         13    1    3    3    0    0  0.64033083402E+02  0.30455966931E+03 -0.30725763660E+03  0.43733749346E+03  0.00000000000E+00 0.  1.
          3    1    3    3  501    0 -0.64034158067E+02 -0.30455941465E+03 -0.58912645439E+03  0.66627831251E+03  0.00000000000E+00 0.  1.
         21    1    1    2  502  501  0.10746654838E-02 -0.25465170190E-03  0.58676103294E-02  0.59706452222E-02  0.00000000000E+00 0.  1.
<mgrwt>
<rscale>  1 0.64378833E+03</rscale>
<asrwt>0</asrwt>
<pdfrwt beam="1">  1        1 0.37680726E+00 0.64378833E+03</pdfrwt>
<pdfrwt beam="2">0</pdfrwt>
<totfact> 0.16969659E+00</totfact>
</mgrwt>
</event>
<event>
 6    1  0.3915971E-003  0.6382149E+03  0.7818608E-02  0.9829148E-01
          1   -1    0    0  502    0  0.00000000000E+00  0.00000000000E+00  0.10203771947E+03  0.10203771947E+03  0.00000000000E+00 0.  1.
         13   -1    0    0    0    0 -0.00000000000E+00 -0.00000000000E+00 -0.10000000000E+04  0.10000000000E+04  0.00000000000E+00 0.  1.
    9000005    2    1    2  501    0  0.27922475596E+00  0.33957011594E+00 -0.89787621466E+03  0.11015897444E+04  0.63821475605E+03 0.  0.
         13    1    3    3    0    0 -0.13978906678E+02  0.28836081791E+03 -0.21389459496E+03  0.35930247549E+03  0.00000000000E+00 0.  1.
          1    1    3    3  501    0  0.14258131434E+02 -0.28802124780E+03 -0.68398161971E+03  0.74228726891E+03  0.00000000000E+00 0.  1.
         21    1    1    2  502  501 -0.27922475596E+00 -0.33957011594E+00 -0.86065867520E-01  0.44797506798E+00  0.00000000000E+00 0.  1.
<mgrwt>
<rscale>  1 0.63821491E+03</rscale>
<asrwt>0</asrwt>
<pdfrwt beam="1">  1        1 0.37104704E+00 0.63821491E+03</pdfrwt>
<pdfrwt beam="2">0</pdfrwt>
<totfact> 0.18007707E+00</totfact>
</mgrwt>
</event>
<event>
 6    1  0.3915971E-003  0.6535224E+03  0.7818608E-02  0.9800192E-01
          1   -1    0    0  502    0  0.00000000000E+00  0.00000000000E+00  0.10677289088E+03  0.10677289088E+03  0.00000000000E+00 0.  1.
         13   -1    0    0    0    0 -0.00000000000E+00 -0.00000000000E+00 -0.10000000000E+04  0.10000000000E+04  0.00000000000E+00 0.  1.
    9000005    2    1    2  501    0  0.27411992960E-05  0.56313830044E-06 -0.89322711327E+03  0.11067728859E+04  0.65352241357E+03 0.  0.
         13    1    3    3    0    0 -0.31930077408E+03 -0.51795079562E+02 -0.36832150996E+03  0.49020041748E+03  0.00000000000E+00 0.  1.
          3    1    3    3  501    0  0.31930077682E+03  0.51795080126E+02 -0.52490560330E+03  0.61657246840E+03  0.00000000000E+00 0.  1.
         21    1    1    2  502  501 -0.27411992873E-05 -0.56313829916E-06  0.41446889093E-05  0.50009743482E-05  0.00000000000E+00 0.  1.
<mgrwt>
<rscale>  1 0.65352241E+03</rscale>
<asrwt>0</asrwt>
<pdfrwt beam="1">  1        1 0.38826588E+00 0.65352241E+03</pdfrwt>
<pdfrwt beam="2">0</pdfrwt>
<totfact> 0.15075493E+00</totfact>
</mgrwt>
</event>
<event>
 6    1  0.3915971E-003  0.6808417E+03  0.7818608E-02  0.9750568E-01
          1   -1    0    0  502    0  0.00000000000E+00  0.00000000000E+00  0.11588781525E+03  0.11588781525E+03  0.00000000000E+00 0.  1.
         13   -1    0    0    0    0 -0.00000000000E+00 -0.00000000000E+00 -0.10000000000E+04  0.10000000000E+04  0.00000000000E+00 0.  1.
    9000005    2    1    2  501    0 -0.95837425533E-04 -0.58900356123E-03 -0.88411356622E+03  0.11158863104E+04  0.68084172886E+03 0.  0.
         13    1    3    3    0    0  0.21801461979E+03  0.25155488176E+03 -0.55882692399E+03  0.65045965590E+03  0.00000000000E+00 0.  1.
          3    1    3    3  501    0 -0.21801471563E+03 -0.25155547076E+03 -0.32528664224E+03  0.46542665450E+03  0.00000000000E+00 0.  1.
         21    1    1    2  502  501  0.95837425531E-04  0.58900356125E-03  0.13814756102E-02  0.15048537699E-02  0.00000000000E+00 0. -1.
<mgrwt>
<rscale>  1 0.68084173E+03</rscale>
<asrwt>0</asrwt>
<pdfrwt beam="1">  1        1 0.42141113E+00 0.68084173E+03</pdfrwt>
<pdfrwt beam="2">0</pdfrwt>
<totfact> 0.10660754E+00</totfact>
</mgrwt>
</event>
<event>
 6    1  0.3915971E-003  0.6418177E+03  0.7818608E-02  0.9822255E-01
          1   -1    0    0  502    0  0.00000000000E+00  0.00000000000E+00  0.10320291757E+03  0.10320291757E+03  0.00000000000E+00 0.  1.
         13   -1    0    0    0    0 -0.00000000000E+00 -0.00000000000E+00 -0.10000000000E+04  0.10000000000E+04  0.00000000000E+00 0.  1.
    9000005    2    1    2  501    0  0.62784361342E-02 -0.35432994462E-02 -0.89701745716E+03  0.11029824250E+04  0.64181766201E+03 0.  0.
         13    1    3    3    0    0 -0.15762125327E+03  0.24315838781E+03 -0.21155842656E+03  0.35878604891E+03  0.00000000000E+00 0.  1.
          1    1    3    3  501    0  0.15762753170E+03 -0.24316193111E+03 -0.68545903059E+03  0.74419637604E+03  0.00000000000E+00 0.  1.
         21    1    1    2  502  501 -0.62784361342E-02  0.35432994462E-02  0.22037472832E+00  0.22049261805E+00  0.00000000000E+00 0.  1.
<mgrwt>
<rscale>  1 0.64181766E+03</rscale>
<asrwt>0</asrwt>
<pdfrwt beam="1">  1        1 0.37528413E+00 0.64181766E+03</pdfrwt>
<pdfrwt beam="2">0</pdfrwt>
<totfact> 0.17240012E+00</totfact>
</mgrwt>
</event>
<event>
 6    1  0.3915971E-003  0.6567672E+03  0.7818608E-02  0.9794163E-01
          1   -1    0    0  502    0  0.00000000000E+00  0.00000000000E+00  0.10788191926E+03  0.10788191926E+03  0.00000000000E+00 0.  1.
         13   -1    0    0    0    0 -0.00000000000E+00 -0.00000000000E+00 -0.10000000000E+04  0.10000000000E+04  0.00000000000E+00 0.  1.
    9000005    2    1    2  501    0  0.52601108377E-01 -0.12553393390E+00 -0.89198562275E+03  0.11076919962E+04  0.65676722569E+03 0.  0.
         13    1    3    3    0    0 -0.17044495586E+03  0.27848110200E+03 -0.50405030468E+03  0.60055800452E+03  0.00000000000E+00 0.  1.
          1    1    3    3  501    0  0.17049755697E+03 -0.27860663593E+03 -0.38793531807E+03  0.50713399168E+03  0.00000000000E+00 0.  1.
         21    1    1    2  502  501 -0.52601108377E-01  0.12553393390E+00 -0.13245799417E+00  0.18992305121E+00  0.00000000000E+00 0. -1.
<mgrwt>
<rscale>  1 0.65676724E+03</rscale>
<asrwt>0</asrwt>
<pdfrwt beam="1">  1        1 0.39229872E+00 0.65676724E+03</pdfrwt>
<pdfrwt beam="2">0</pdfrwt>
<totfact> 0.14458480E+00</totfact>
</mgrwt>
</event>
<event>
 6    1  0.3915971E-003  0.7525953E+03  0.7818608E-02  0.9631287E-01
          1   -1    0    0  502    0  0.00000000000E+00  0.00000000000E+00  0.14977544476E+03  0.14977544476E+03  0.00000000000E+00 0.  1.
         13   -1    0    0    0    0 -0.00000000000E+00 -0.00000000000E+00 -0.10000000000E+04  0.10000000000E+04  0.00000000000E+00 0.  1.
    9000005    2    1    2  501    0  0.91008282992E+01  0.30196941555E+00 -0.85536444380E+03  0.11393191206E+04  0.75254023846E+03 0.  0.
         13    1    3    3    0    0 -0.24028106864E+03  0.26553948747E+03 -0.58474844847E+03  0.68569450876E+03  0.00000000000E+00 0.  1.
          3    1    3    3  501    0  0.24938189694E+03 -0.26523751806E+03 -0.27061599533E+03  0.45362461181E+03  0.00000000000E+00 0.  1.
         21    1    1    2  502  501 -0.91008282992E+01 -0.30196941555E+00  0.51398885569E+01  0.10456324193E+02  0.00000000000E+00 0. -1.
<mgrwt>
<rscale>  1 0.75259533E+03</rscale>
<asrwt>0</asrwt>
<pdfrwt beam="1">  1        1 0.54463913E+00 0.75259533E+03</pdfrwt>
<pdfrwt beam="2">0</pdfrwt>
<totfact> 0.27234575E-01</totfact>
</mgrwt>
</event>
<event>
 6    1  0.3915971E-003  0.6490506E+03  0.7818608E-02  0.9808562E-01
          1   -1    0    0  502    0  0.00000000000E+00  0.00000000000E+00  0.10534416289E+03  0.10534416289E+03  0.00000000000E+00 0.  1.
         13   -1    0    0    0    0 -0.00000000000E+00 -0.00000000000E+00 -0.10000000000E+04  0.10000000000E+04  0.00000000000E+00 0.  1.
    9000005    2    1    2  501    0 -0.10015329297E-02 -0.33709909422E-02 -0.89468321763E+03  0.11053165575E+04  0.64905056218E+03 0.  0.
         13    1    3    3    0    0  0.19401176014E+03 -0.25818156335E+03 -0.39297969833E+03  0.50865639289E+03  0.00000000000E+00 0.  1.
          3    1    3    3  501    0 -0.19401276167E+03  0.25817819236E+03 -0.50170351930E+03  0.59666016457E+03  0.00000000000E+00 0.  1.
         21    1    1    2  502  501  0.10015329297E-02  0.33709909422E-02  0.27380520721E-01  0.27605426334E-01  0.00000000000E+00 0. -1.
<mgrwt>
<rscale>  1 0.64905056E+03</rscale>
<asrwt>0</asrwt>
<pdfrwt beam="1">  1        1 0.38307049E+00 0.64905056E+03</pdfrwt>
<pdfrwt beam="2">0</pdfrwt>
<totfact> 0.15908117E+00</totfact>
</mgrwt>
</event>
<event>
 6    1  0.3915971E-003  0.5446620E+03  0.7818608E-02  0.1002737E+00
          1   -1    0    0  502    0  0.00000000000E+00  0.00000000000E+00  0.75412834833E+02  0.75412834833E+02  0.00000000000E+00 0.  1.
         13   -1    0    0    0    0 -0.00000000000E+00 -0.00000000000E+00 -0.10000000000E+04  0.10000000000E+04  0.00000000000E+00 0.  1.
    9000005    2    1    2  501    0  0.28814194102E-01 -0.20437755115E-01 -0.92583555914E+03  0.10741639411E+04  0.54466199485E+03 0.  0.
         13    1    3    3    0    0  0.14222542325E+01 -0.18082625008E+03 -0.61324775402E+02  0.19094733201E+03  0.00000000000E+00 0.  1.
          1    1    3    3  501    0 -0.13934400384E+01  0.18080581232E+03 -0.86451078373E+03  0.88321660913E+03  0.00000000000E+00 0.  1.
         21    1    1    2  502  501 -0.28814194102E-01  0.20437755115E-01  0.12483939696E+01  0.12488936957E+01  0.00000000000E+00 0. -1.
<mgrwt>
<rscale>  1 0.54466200E+03</rscale>
<asrwt>0</asrwt>
<pdfrwt beam="1">  1        1 0.27422907E+00 0.54466200E+03</pdfrwt>
<pdfrwt beam="2">0</pdfrwt>
<totfact> 0.48130888E+00</totfact>
</mgrwt>
</event>
<event>
 6    1  0.3915971E-003  0.6514141E+03  0.7818608E-02  0.9804129E-01
          1   -1    0    0  502    0  0.00000000000E+00  0.00000000000E+00  0.10609040620E+03  0.10609040620E+03  0.00000000000E+00 0.  1.
         13   -1    0    0    0    0 -0.00000000000E+00 -0.00000000000E+00 -0.10000000000E+04  0.10000000000E+04  0.00000000000E+00 0.  1.
    9000005    2    1    2  501    0  0.12023404139E-02  0.94410186037E-03 -0.89391481084E+03  0.11060849698E+04  0.65141405524E+03 0.  0.
         13    1    3    3    0    0  0.22003040348E+03  0.23919668013E+03 -0.48326208638E+03  0.58238361445E+03  0.00000000000E+00 0.  1.
          1    1    3    3  501    0 -0.22002920114E+03 -0.23919573603E+03 -0.41065272446E+03  0.52370135535E+03  0.00000000000E+00 0.  1.
         21    1    1    2  502  501 -0.12023404138E-02 -0.94410186036E-03  0.52170457636E-02  0.54364066526E-02  0.00000000000E+00 0.  1.
<mgrwt>
<rscale>  1 0.65141406E+03</rscale>
<asrwt>0</asrwt>
<pdfrwt beam="1">  1        1 0.38578411E+00 0.65141406E+03</pdfrwt>
<pdfrwt beam="2">0</pdfrwt>
<totfact> 0.15467845E+00</totfact>
</mgrwt>
</event>
<event>
 6    1  0.3915971E-003  0.6555663E+03  0.7818608E-02  0.9796390E-01
          1   -1    0    0  502    0  0.00000000000E+00  0.00000000000E+00  0.10899701823E+03  0.10899701823E+03  0.00000000000E+00 0.  1.
         13   -1    0    0    0    0 -0.00000000000E+00 -0.00000000000E+00 -0.10000000000E+04  0.10000000000E+04  0.00000000000E+00 0.  1.
    9000005    2    1    2  501    0 -0.74324770976E+00 -0.17055038027E-01 -0.89245919308E+03  0.11073620077E+04  0.65556590216E+03 0.  0.
         13    1    3    3    0    0  0.71583345549E+01  0.15253082446E+03  0.43694963734E+02  0.15882740324E+03  0.00000000000E+00 0.  1.
          1    1    3    3  501    0 -0.79015822647E+01 -0.15254787950E+03 -0.93615415682E+03  0.94853460447E+03  0.00000000000E+00 0.  1.
         21    1    1    2  502  501  0.74324770976E+00  0.17055038027E-01  0.14562113180E+01  0.16350105306E+01  0.00000000000E+00 0.  1.
<mgrwt>
<rscale>  1 0.65556632E+03</rscale>
<asrwt>0</asrwt>
<pdfrwt beam="1">  1        1 0.39635363E+00 0.65556632E+03</pdfrwt>
<pdfrwt beam="2">0</pdfrwt>
<totfact> 0.13873838E+00</totfact>
</mgrwt>
</event>
<event>
 6    1  0.3915971E-003  0.6244377E+03  0.7818608E-02  0.9855964E-01
          1   -1    0    0  502    0  0.00000000000E+00  0.00000000000E+00  0.97684704830E+02  0.97684704830E+02  0.00000000000E+00 0.  1.
         13   -1    0    0    0    0 -0.00000000000E+00 -0.00000000000E+00 -0.10000000000E+04  0.10000000000E+04  0.00000000000E+00 0.  1.
    9000005    2    1    2  501    0 -0.24103671418E-01  0.31109554693E-02 -0.90251860982E+03  0.10974799427E+04  0.62443765347E+03 0.  0.
         13    1    3    3    0    0  0.17433963892E+03 -0.35102026097E+02 -0.90225791352E+03  0.91961720538E+03  0.00000000000E+00 0.  1.
          1    1    3    3  501    0 -0.17436374259E+03  0.35105137052E+02 -0.26069630223E+00  0.17786273736E+03  0.00000000000E+00 0.  1.
         21    1    1    2  502  501  0.24103671418E-01 -0.31109554693E-02  0.20331464853E+00  0.20476208469E+00  0.00000000000E+00 0. -1.
<mgrwt>
<rscale>  1 0.62443765E+03</rscale>
<asrwt>0</asrwt>
<pdfrwt beam="1">  1        1 0.35521786E+00 0.62443765E+03</pdfrwt>
<pdfrwt beam="2">0</pdfrwt>
<totfact> 0.21176786E+00</totfact>
</mgrwt>
</event>
<event>
 6    1  0.3915971E-003  0.6487701E+03  0.7818608E-02  0.9809090E-01
          1   -1    0    0  502    0  0.00000000000E+00  0.00000000000E+00  0.10522580024E+03  0.10522580024E+03  0.00000000000E+00 0.  1.
         13   -1    0    0    0    0 -0.00000000000E+00 -0.00000000000E+00 -0.10000000000E+04  0.10000000000E+04  0.00000000000E+00 0.  1.
    9000005    2    1    2  501    0 -0.12387963523E-04  0.17990473765E-04 -0.89477432551E+03  0.11052256726E+04  0.64877013943E+03 0.  0.
         13    1    3    3    0    0 -0.21809240434E+03  0.23405843625E+03 -0.35599523293E+03  0.47862329057E+03  0.00000000000E+00 0.  1.
          1    1    3    3  501    0  0.21809239195E+03 -0.23405841826E+03 -0.53877909258E+03  0.62660238204E+03  0.00000000000E+00 0.  1.
         21    1    1    2  502  501  0.12387963519E-04 -0.17990473790E-04  0.12574385279E-03  0.12762693799E-03  0.00000000000E+00 0. -1.
<mgrwt>
<rscale>  1 0.64877014E+03</rscale>
<asrwt>0</asrwt>
<pdfrwt beam="1">  1        1 0.38264008E+00 0.64877014E+03</pdfrwt>
<pdfrwt beam="2">0</pdfrwt>
<totfact> 0.15978757E+00</totfact>
</mgrwt>
</event>
<event>
 6    1  0.3915971E-003  0.6495735E+03  0.7818608E-02  0.9807580E-01
          3   -1    0    0  502    0  0.00000000000E+00  0.00000000000E+00  0.10549348069E+03  0.10549348069E+03  0.00000000000E+00 0.  1.
         13   -1    0    0    0    0 -0.00000000000E+00 -0.00000000000E+00 -0.10000000000E+04  0.10000000000E+04  0.00000000000E+00 0.  1.
    9000005    2    1    2  501    0 -0.33854410020E-03  0.11729146085E-03 -0.89451357757E+03  0.11054864133E+04  0.64957345206E+03 0.  0.
         13    1    3    3    0    0 -0.22036926548E+03  0.95116990592E+02 -0.81963753941E+03  0.85405828318E+03  0.00000000000E+00 0.  1.
          1    1    3    3  501    0  0.22036892693E+03 -0.95116873300E+02 -0.74876038166E+02  0.25142813016E+03  0.00000000000E+00 0.  1.
         21    1    1    2  502  501  0.33854410019E-03 -0.11729146085E-03  0.70582665606E-02  0.70673542599E-02  0.00000000000E+00 0. -1.
<mgrwt>
<rscale>  1 0.64957345E+03</rscale>
<asrwt>0</asrwt>
<pdfrwt beam="1">  1        3 0.38361347E+00 0.64957345E+03</pdfrwt>
<pdfrwt beam="2">0</pdfrwt>
<totfact> 0.72240936E-02</totfact>
</mgrwt>
</event>
<event>
 6    1  0.3915971E-003  0.6396792E+03  0.7818608E-02  0.9826340E-01
          1   -1    0    0  502    0  0.00000000000E+00  0.00000000000E+00  0.10267289380E+03  0.10267289380E+03  0.00000000000E+00 0.  1.
         13   -1    0    0    0    0 -0.00000000000E+00 -0.00000000000E+00 -0.10000000000E+04  0.10000000000E+04  0.00000000000E+00 0.  1.
    9000005    2    1    2  501    0 -0.72933304094E-02 -0.39750618471E-01 -0.89770142785E+03  0.11022963968E+04  0.63967920957E+03 0.  0.
         13    1    3    3    0    0 -0.16632115554E+03 -0.26579684796E+03 -0.33991267790E+03  0.46244061215E+03  0.00000000000E+00 0.  1.
          3    1    3    3  501    0  0.16631386221E+03  0.26575709735E+03 -0.55778874996E+03  0.63985578463E+03  0.00000000000E+00 0.  1.
         21    1    1    2  502  501  0.72933304094E-02  0.39750618471E-01  0.37432165220E+00  0.37649701678E+00  0.00000000000E+00 0.  1.
<mgrwt>
<rscale>  1 0.63967921E+03</rscale>
<asrwt>0</asrwt>
<pdfrwt beam="1">  1        1 0.37335676E+00 0.63967921E+03</pdfrwt>
<pdfrwt beam="2">0</pdfrwt>
<totfact> 0.17586870E+00</totfact>
</mgrwt>
</event>
<event>
 6    1  0.3915971E-003  0.6424637E+03  0.7818608E-02  0.9821024E-01
          1   -1    0    0  502    0  0.00000000000E+00  0.00000000000E+00  0.10319022258E+03  0.10319022258E+03  0.00000000000E+00 0.  1.
         13   -1    0    0    0    0 -0.00000000000E+00 -0.00000000000E+00 -0.10000000000E+04  0.10000000000E+04  0.00000000000E+00 0.  1.
    9000005    2    1    2  501    0  0.94932275772E-04  0.44367579136E-04 -0.89681009311E+03  0.11031898900E+04  0.64246368785E+03 0.  0.
         13    1    3    3    0    0  0.27677897124E+03 -0.16233628722E+03 -0.47446057524E+03  0.57277613998E+03  0.00000000000E+00 0.  1.
          3    1    3    3  501    0 -0.27677887631E+03  0.16233633159E+03 -0.42234951786E+03  0.53041374997E+03  0.00000000000E+00 0.  1.
         21    1    1    2  502  501 -0.94932275798E-04 -0.44367579137E-04  0.31568944323E-03  0.33262658287E-03  0.00000000000E+00 0. -1.
<mgrwt>
<rscale>  1 0.64246369E+03</rscale>
<asrwt>0</asrwt>
<pdfrwt beam="1">  1        1 0.37523796E+00 0.64246369E+03</pdfrwt>
<pdfrwt beam="2">0</pdfrwt>
<totfact> 0.17246041E+00</totfact>
</mgrwt>
</event>
<event>
 6    1  0.3915971E-003  0.6665821E+03  0.7818608E-02  0.9776152E-01
          1   -1    0    0  502    0  0.00000000000E+00  0.00000000000E+00  0.11147356091E+03  0.11147356091E+03  0.00000000000E+00 0.  1.
         13   -1    0    0    0    0 -0.00000000000E+00 -0.00000000000E+00 -0.10000000000E+04  0.10000000000E+04  0.00000000000E+00 0.  1.
    9000005    2    1    2  501    0 -0.22953591065E-01  0.38669953773E-01 -0.88891565253E+03  0.11110817582E+04  0.66658205357E+03 0.  0.
         13    1    3    3    0    0 -0.22914873683E+03 -0.23725691838E+03 -0.36487713269E+03  0.49186920098E+03  0.00000000000E+00 0.  1.
          3    1    3    3  501    0  0.22912578324E+03  0.23729558833E+03 -0.52403851984E+03  0.61921255726E+03  0.00000000000E+00 0.  1.
         21    1    1    2  502  501  0.22953591065E-01 -0.38669953773E-01  0.38921344152E+00  0.39180267448E+00  0.00000000000E+00 0. -1.
<mgrwt>
<rscale>  1 0.66658206E+03</rscale>
<asrwt>0</asrwt>
<pdfrwt beam="1">  1        1 0.40535926E+00 0.66658206E+03</pdfrwt>
<pdfrwt beam="2">0</pdfrwt>
<totfact> 0.12621830E+00</totfact>
</mgrwt>
</event>
<event>
 6    1  0.3915971E-003  0.6609494E+03  0.7818608E-02  0.9786448E-01
          1   -1    0    0  502    0  0.00000000000E+00  0.00000000000E+00  0.10976290191E+03  0.10976290191E+03  0.00000000000E+00 0.  1.
         13   -1    0    0    0    0 -0.00000000000E+00 -0.00000000000E+00 -0.10000000000E+04  0.10000000000E+04  0.00000000000E+00 0.  1.
    9000005    2    1    2  501    0  0.14275341691E+00 -0.73293046497E+00 -0.89048920421E+03  0.11089747883E+04  0.66094893951E+03 0.  0.
         13    1    3    3    0    0  0.26535538145E+03 -0.18804002437E+03 -0.54650339508E+03  0.63595478618E+03  0.00000000000E+00 0.  1.
          3    1    3    3  501    0 -0.26521262803E+03  0.18730709391E+03 -0.34398580913E+03  0.47302000209E+03  0.00000000000E+00 0.  1.
         21    1    1    2  502  501 -0.14275341691E+00  0.73293046497E+00  0.25210611584E+00  0.78811363278E+00  0.00000000000E+00 0.  1.
<mgrwt>
<rscale>  1 0.66094936E+03</rscale>
<asrwt>0</asrwt>
<pdfrwt beam="1">  1        1 0.39913867E+00 0.66094936E+03</pdfrwt>
<pdfrwt beam="2">0</pdfrwt>
<totfact> 0.13469649E+00</totfact>
</mgrwt>
</event>
<event>
 6    1  0.3915971E-003  0.6562576E+03  0.7818608E-02  0.9795108E-01
          1   -1    0    0  502    0  0.00000000000E+00  0.00000000000E+00  0.10899102181E+03  0.10899102181E+03  0.00000000000E+00 0.  1.
         13   -1    0    0    0    0 -0.00000000000E+00 -0.00000000000E+00 -0.10000000000E+04  0.10000000000E+04  0.00000000000E+00 0.  1.
    9000005    2    1    2  501    0  0.15115364396E+00  0.31271677093E+00 -0.89230617648E+03  0.11076481284E+04  0.65625752811E+03 0.  0.
         13    1    3    3    0    0 -0.13667844318E+03  0.24503099340E+03 -0.15882657218E+03  0.32240822661E+03  0.00000000000E+00 0.  1.
          1    1    3    3  501    0  0.13682959683E+03 -0.24471827663E+03 -0.73347960431E+03  0.78523990183E+03  0.00000000000E+00 0.  1.
         21    1    1    2  502  501 -0.15115364396E+00 -0.31271677093E+00  0.12971982893E+01  0.13428933705E+01  0.00000000000E+00 0. -1.
<mgrwt>
<rscale>  1 0.65625762E+03</rscale>
<asrwt>0</asrwt>
<pdfrwt beam="1">  1        1 0.39633182E+00 0.65625762E+03</pdfrwt>
<pdfrwt beam="2">0</pdfrwt>
<totfact> 0.13875139E+00</totfact>
</mgrwt>
</event>
<event>
 6    1  0.3915971E-003  0.6698705E+03  0.7818608E-02  0.9770192E-01
          1   -1    0    0  502    0  0.00000000000E+00  0.00000000000E+00  0.11218366650E+03  0.11218366650E+03  0.00000000000E+00 0.  1.
         13   -1    0    0    0    0 -0.00000000000E+00 -0.00000000000E+00 -0.10000000000E+04  0.10000000000E+04  0.00000000000E+00 0.  1.
    9000005    2    1    2  501    0  0.10587613303E-03 -0.93575348643E-04 -0.88781839051E+03  0.11121816046E+04  0.66987045552E+03 0.  0.
         13    1    3    3    0    0  0.23838662334E+03  0.15004521209E+03 -0.74478386832E+03  0.79626927503E+03  0.00000000000E+00 0.  1.
          3    1    3    3  501    0 -0.23838651747E+03 -0.15004530566E+03 -0.14303452219E+03  0.31591232961E+03  0.00000000000E+00 0.  1.
         21    1    1    2  502  501 -0.10587613301E-03  0.93575348655E-04  0.20570099471E-02  0.20618574208E-02  0.00000000000E+00 0. -1.
<mgrwt>
<rscale>  1 0.66987046E+03</rscale>
<asrwt>0</asrwt>
<pdfrwt beam="1">  1        1 0.40794147E+00 0.66987046E+03</pdfrwt>
<pdfrwt beam="2">0</pdfrwt>
<totfact> 0.12282697E+00</totfact>
</mgrwt>
</event>
<event>
 6    1  0.3915971E-003  0.6526239E+03  0.7818608E-02  0.9801868E-01
          1   -1    0    0  502    0  0.00000000000E+00  0.00000000000E+00  0.10648154484E+03  0.10648154484E+03  0.00000000000E+00 0.  1.
         13   -1    0    0    0    0 -0.00000000000E+00 -0.00000000000E+00 -0.10000000000E+04  0.10000000000E+04  0.00000000000E+00 0.  1.
    9000005    2    1    2  501    0  0.18084907464E-03 -0.28947290321E-03 -0.89352050911E+03  0.11064794627E+04  0.65262385892E+03 0.  0.
         13    1    3    3    0    0 -0.30997527885E+03  0.15582964020E+02 -0.27593398147E+03  0.41529154145E+03  0.00000000000E+00 0.  1.
          3    1    3    3  501    0  0.30997545970E+03 -0.15583253493E+02 -0.61758652763E+03  0.69118792128E+03  0.00000000000E+00 0.  1.
         21    1    1    2  502  501 -0.18084907461E-03  0.28947290321E-03  0.20539446588E-02  0.20821118152E-02  0.00000000000E+00 0. -1.
<mgrwt>
<rscale>  1 0.65262386E+03</rscale>
<asrwt>0</asrwt>
<pdfrwt beam="1">  1        1 0.38720643E+00 0.65262386E+03</pdfrwt>
<pdfrwt beam="2">0</pdfrwt>
<totfact> 0.15241810E+00</totfact>
</mgrwt>
</event>
<event>
 6    1  0.3915971E-003  0.6495965E+03  0.7818608E-02  0.9807537E-01
          1   -1    0    0  502    0  0.00000000000E+00  0.00000000000E+00  0.10549636757E+03  0.10549636757E+03  0.00000000000E+00 0.  1.
         13   -1    0    0    0    0 -0.00000000000E+00 -0.00000000000E+00 -0.10000000000E+04  0.10000000000E+04  0.00000000000E+00 0.  1.
    9000005    2    1    2  501    0  0.51219718756E-04 -0.63598201265E-05 -0.89450610072E+03  0.11054938987E+04  0.64959648700E+03 0.  0.
         13    1    3    3    0    0 -0.11026183323E+03  0.89898517929E+01  0.72443335285E+02  0.13223662931E+03  0.00000000000E+00 0.  1.
          1    1    3    3  501    0  0.11026188445E+03 -0.89898581527E+01 -0.96694943601E+03  0.97325726943E+03  0.00000000000E+00 0.  1.
         21    1    1    2  502  501 -0.51219718758E-04  0.63598201266E-05  0.24682933898E-02  0.24688329561E-02  0.00000000000E+00 0.  1.
<mgrwt>
<rscale>  1 0.64959649E+03</rscale>
<asrwt>0</asrwt>
<pdfrwt beam="1">  1        1 0.38362396E+00 0.64959649E+03</pdfrwt>
<pdfrwt beam="2">0</pdfrwt>
<totfact> 0.15817177E+00</totfact>
</mgrwt>
</event>
<event>
 6    1  0.3915971E-003  0.6675994E+03  0.7818608E-02  0.9774304E-01
          1   -1    0    0  502    0  0.00000000000E+00  0.00000000000E+00  0.11143696938E+03  0.11143696938E+03  0.00000000000E+00 0.  1.
         13   -1    0    0    0    0 -0.00000000000E+00 -0.00000000000E+00 -0.10000000000E+04  0.10000000000E+04  0.00000000000E+00 0.  1.
    9000005    2    1    2  501    0  0.52864615895E-03  0.12533614712E-02 -0.88857773628E+03  0.11114222009E+04  0.66759936739E+03 0.  0.
         13    1    3    3    0    0  0.32320887666E+03  0.48315383717E+02 -0.55749730966E+03  0.64622101833E+03  0.00000000000E+00 0.  1.
          1    1    3    3  501    0 -0.32320834801E+03 -0.48314130355E+02 -0.33108042662E+03  0.46520118261E+03  0.00000000000E+00 0.  1.
         21    1    1    2  502  501 -0.52864615892E-03 -0.12533614713E-02  0.14705662135E-01  0.14768442050E-01  0.00000000000E+00 0. -1.
<mgrwt>
<rscale>  1 0.66759937E+03</rscale>
<asrwt>0</asrwt>
<pdfrwt beam="1">  1        1 0.40522620E+00 0.66759937E+03</pdfrwt>
<pdfrwt beam="2">0</pdfrwt>
<totfact> 0.12636723E+00</totfact>
</mgrwt>
</event>
<event>
 6    1  0.3915971E-003  0.6541650E+03  0.7818608E-02  0.9798995E-01
          1   -1    0    0  502    0  0.00000000000E+00  0.00000000000E+00  0.10699199349E+03  0.10699199349E+03  0.00000000000E+00 0.  1.
         13   -1    0    0    0    0 -0.00000000000E+00 -0.00000000000E+00 -0.10000000000E+04  0.10000000000E+04  0.00000000000E+00 0.  1.
    9000005    2    1    2  501    0 -0.16861050264E-03 -0.32270085308E-03 -0.89301702718E+03  0.11069829655E+04  0.65416502124E+03 0.  0.
         13    1    3    3    0    0 -0.11494939199E+03 -0.30511365450E+03 -0.40253148908E+03  0.51801477255E+03  0.00000000000E+00 0.  1.
          1    1    3    3  501    0  0.11494922338E+03  0.30511333179E+03 -0.49048553810E+03  0.58896819293E+03  0.00000000000E+00 0.  1.
         21    1    1    2  502  501  0.16861050264E-03  0.32270085308E-03  0.90206716107E-02  0.90280164849E-02  0.00000000000E+00 0. -1.
<mgrwt>
<rscale>  1 0.65416502E+03</rscale>
<asrwt>0</asrwt>
<pdfrwt beam="1">  1        1 0.38906261E+00 0.65416502E+03</pdfrwt>
<pdfrwt beam="2">0</pdfrwt>
<totfact> 0.14951644E+00</totfact>
</mgrwt>
</event>
<event>
 6    1  0.3915971E-003  0.6403484E+03  0.7818608E-02  0.9825060E-01
          1   -1    0    0  502    0  0.00000000000E+00  0.00000000000E+00  0.11187699023E+03  0.11187699023E+03  0.00000000000E+00 0.  1.
         13   -1    0    0    0    0 -0.00000000000E+00 -0.00000000000E+00 -0.10000000000E+04  0.10000000000E+04  0.00000000000E+00 0.  1.
    9000005    2    1    2  501    0 -0.14495144637E+01 -0.38863468199E+01 -0.89697955650E+03  0.11020972559E+04  0.64033493727E+03 0.  0.
         13    1    3    3    0    0  0.31166969490E+03 -0.44932541006E+02 -0.54321103720E+03  0.62788148794E+03  0.00000000000E+00 0.  1.
          3    1    3    3  501    0 -0.31311920937E+03  0.41046194186E+02 -0.35376851929E+03  0.47421576795E+03  0.00000000000E+00 0.  1.
         21    1    1    2  502  501  0.14495144637E+01  0.38863468199E+01  0.88565467297E+01  0.97797343399E+01  0.00000000000E+00 0. -1.
<mgrwt>
<rscale>  1 0.64034837E+03</rscale>
<asrwt>0</asrwt>
<pdfrwt beam="1">  1        1 0.40682628E+00 0.64034837E+03</pdfrwt>
<pdfrwt beam="2">0</pdfrwt>
<totfact> 0.12495233E+00</totfact>
</mgrwt>
</event>
<event>
 6    1  0.3915971E-003  0.6058172E+03  0.7818608E-02  0.9893410E-01
          1   -1    0    0  502    0  0.00000000000E+00  0.00000000000E+00  0.91917181888E+02  0.91917181888E+02  0.00000000000E+00 0.  1.
         13   -1    0    0    0    0 -0.00000000000E+00 -0.00000000000E+00 -0.10000000000E+04  0.10000000000E+04  0.00000000000E+00 0.  1.
    9000005    2    1    2  501    0  0.14022001734E-02  0.18861477729E-02 -0.90824638518E+03  0.10917535979E+04  0.60581715260E+03 0.  0.
         13    1    3    3    0    0 -0.24255583992E+03  0.17082290024E+03 -0.56432949692E+03  0.63755907947E+03  0.00000000000E+00 0.  1.
          3    1    3    3  501    0  0.24255724212E+03 -0.17082101409E+03 -0.34391688827E+03  0.45419451846E+03  0.00000000000E+00 0.  1.
         21    1    1    2  502  501 -0.14022001734E-02 -0.18861477729E-02  0.16356707207E+00  0.16358395638E+00  0.00000000000E+00 0.  1.
<mgrwt>
<rscale>  1 0.60581715E+03</rscale>
<asrwt>0</asrwt>
<pdfrwt beam="1">  1        1 0.33424500E+00 0.60581715E+03</pdfrwt>
<pdfrwt beam="2">0</pdfrwt>
<totfact> 0.26214005E+00</totfact>
</mgrwt>
</event>
<event>
 6    1  0.3915971E-003  0.6699488E+03  0.7818608E-02  0.9770050E-01
          1   -1    0    0  502    0  0.00000000000E+00  0.00000000000E+00  0.11220818080E+03  0.11220818080E+03  0.00000000000E+00 0.  1.
         13   -1    0    0    0    0 -0.00000000000E+00 -0.00000000000E+00 -0.10000000000E+04  0.10000000000E+04  0.00000000000E+00 0.  1.
    9000005    2    1    2  501    0  0.80318989998E-03  0.44017133719E-03 -0.88779094170E+03  0.11122069124E+04  0.66994884865E+03 0.  0.
         13    1    3    3    0    0  0.20597407136E+03 -0.22627679819E+02 -0.88083265822E+03  0.90487761701E+03  0.00000000000E+00 0.  1.
          3    1    3    3  501    0 -0.20597326817E+03  0.22628119990E+02 -0.69582834742E+01  0.20732929538E+03  0.00000000000E+00 0.  1.
         21    1    1    2  502  501 -0.80318989996E-03 -0.44017133719E-03 -0.87750076284E-03  0.12684133436E-02  0.00000000000E+00 0. -1.
<mgrwt>
<rscale>  1 0.66994885E+03</rscale>
<asrwt>0</asrwt>
<pdfrwt beam="1">  1        1 0.40803061E+00 0.66994885E+03</pdfrwt>
<pdfrwt beam="2">0</pdfrwt>
<totfact> 0.12271225E+00</totfact>
</mgrwt>
</event>
<event>
 6    1  0.3915971E-003  0.6608411E+03  0.7818608E-02  0.9786647E-01
          1   -1    0    0  502    0  0.00000000000E+00  0.00000000000E+00  0.11245743623E+03  0.11245743623E+03  0.00000000000E+00 0.  1.
         13   -1    0    0    0    0 -0.00000000000E+00 -0.00000000000E+00 -0.10000000000E+04  0.10000000000E+04  0.00000000000E+00 0.  1.
    9000005    2    1    2  501    0  0.97114413743E-01 -0.23009628182E+00 -0.89081699553E+03  0.11091734937E+04  0.66084102257E+03 0.  0.
         13    1    3    3    0    0  0.21115597598E+03  0.44450703405E+02 -0.25402361120E+02  0.21727400023E+03  0.00000000000E+00 0.  1.
          1    1    3    3  501    0 -0.21105886157E+03 -0.44680799687E+02 -0.86541463441E+03  0.89189949342E+03  0.00000000000E+00 0.  1.
         21    1    1    2  502  501 -0.97114413743E-01  0.23009628182E+00  0.32744317585E+01  0.32839425771E+01  0.00000000000E+00 0.  1.
<mgrwt>
<rscale>  1 0.66084107E+03</rscale>
<asrwt>0</asrwt>
<pdfrwt beam="1">  1        1 0.40893699E+00 0.66084107E+03</pdfrwt>
<pdfrwt beam="2">0</pdfrwt>
<totfact> 0.12178002E+00</totfact>
</mgrwt>
</event>
<event>
 6    1  0.3915971E-003  0.6553745E+03  0.7818608E-02  0.9796746E-01
          1   -1    0    0  502    0  0.00000000000E+00  0.00000000000E+00  0.10737978372E+03  0.10737978372E+03  0.00000000000E+00 0.  1.
         13   -1    0    0    0    0 -0.00000000000E+00 -0.00000000000E+00 -0.10000000000E+04  0.10000000000E+04  0.00000000000E+00 0.  1.
    9000005    2    1    2  501    0  0.57441999900E-04  0.10874203807E-03 -0.89262105556E+03  0.11073789355E+04  0.65537451730E+03 0.  0.
         13    1    3    3    0    0  0.86301893801E+02 -0.14931266112E+03 -0.91711442908E+03  0.93318870743E+03  0.00000000000E+00 0.  1.
          1    1    3    3  501    0 -0.86301836359E+02  0.14931276986E+03  0.24493373520E+02  0.17419022806E+03  0.00000000000E+00 0.  1.
         21    1    1    2  502  501 -0.57441999896E-04 -0.10874203808E-03  0.83927249406E-03  0.84823506971E-03  0.00000000000E+00 0. -1.
<mgrwt>
<rscale>  1 0.65537452E+03</rscale>
<asrwt>0</asrwt>
<pdfrwt beam="1">  1        1 0.39047276E+00 0.65537452E+03</pdfrwt>
<pdfrwt beam="2">0</pdfrwt>
<totfact> 0.14734610E+00</totfact>
</mgrwt>
</event>
