<event>
 6    1  0.1118796E-002  0.6466482E+03  0.7818608E-02  0.9813089E-01
          1   -1    0    0  502    0  0.00000000000E+00  0.00000000000E+00  0.10454098889E+03  0.10454098889E+03  0.00000000000E+00 0.  1.
         13   -1    0    0    0    0 -0.00000000000E+00 -0.00000000000E+00 -0.10000000000E+04  0.10000000000E+04  0.00000000000E+00 0.  1.
    9000005    2    1    2  501    0 -0.24154284205E-03 -0.66931570735E-02 -0.89545500028E+03  0.11045331823E+04  0.64664819890E+03 0.  0.
         13    1    3    3    0    0  0.21252866626E+03  0.78646261204E+02 -0.53811623224E+02  0.23291491832E+03  0.00000000000E+00 0.  1.
          1    1    3    3  501    0 -0.21252890780E+03 -0.78652954361E+02 -0.84164337706E+03  0.87161826393E+03  0.00000000000E+00 0.  1.
         21    1    1    2  502  501  0.24154284204E-03  0.66931570735E-02 -0.40108344706E-02  0.78066310087E-02  0.00000000000E+00 0.  1.
<mgrwt>
<rscale>  1 0.64664820E+03</rscale>
<asrwt>0</asrwt>
<pdfrwt beam="1">  1        1 0.38014985E+00 0.64664820E+03</pdfrwt>
<pdfrwt beam="2">0</pdfrwt>
<totfact> 0.16394856E+00</totfact>
</mgrwt>
</event>
<event>
 6    1  0.1118796E-002  0.6431318E+03  0.7818608E-02  0.9819753E-01
          1   -1    0    0  502    0  0.00000000000E+00  0.00000000000E+00  0.10340466968E+03  0.10340466968E+03  0.00000000000E+00 0.  1.
         13   -1    0    0    0    0 -0.00000000000E+00 -0.00000000000E+00 -0.10000000000E+04  0.10000000000E+04  0.00000000000E+00 0.  1.
    9000005    2    1    2  501    0  0.33789871736E-05  0.15745009563E-05 -0.89659538549E+03  0.11034046144E+04  0.64313175769E+03 0.  0.
         13    1    3    3    0    0  0.31932497770E+03  0.34603459675E+02 -0.47480887494E+03  0.57324454513E+03  0.00000000000E+00 0.  1.
          3    1    3    3  501    0 -0.31932497432E+03 -0.34603458101E+02 -0.42178651055E+03  0.53016006925E+03  0.00000000000E+00 0.  1.
         21    1    1    2  502  501 -0.33789871766E-05 -0.15745009561E-05  0.55170544058E-04  0.55296342910E-04  0.00000000000E+00 0. -1.
<mgrwt>
<rscale>  1 0.64313176E+03</rscale>
<asrwt>0</asrwt>
<pdfrwt beam="1">  1        1 0.37601777E+00 0.64313176E+03</pdfrwt>
<pdfrwt beam="2">0</pdfrwt>
<totfact> 0.17108138E+00</totfact>
</mgrwt>
</event>
<event>
 6    1  0.1118796E-002  0.6541257E+03  0.7818608E-02  0.9799068E-01
          1   -1    0    0  502    0  0.00000000000E+00  0.00000000000E+00  0.10711808203E+03  0.10711808203E+03  0.00000000000E+00 0.  1.
         13   -1    0    0    0    0 -0.00000000000E+00 -0.00000000000E+00 -0.10000000000E+04  0.10000000000E+04  0.00000000000E+00 0.  1.
    9000005    2    1    2  501    0 -0.40206011081E-02  0.41156023354E-03 -0.89302987089E+03  0.11069700739E+04  0.65412567158E+03 0.  0.
         13    1    3    3    0    0  0.96850971931E+02 -0.18619769500E+03 -0.87100530499E+03  0.89593522852E+03  0.00000000000E+00 0.  1.
          3    1    3    3  501    0 -0.96854992532E+02  0.18619810656E+03 -0.22024565904E+02  0.21103484539E+03  0.00000000000E+00 0.  1.
         21    1    1    2  502  501  0.40206011081E-02 -0.41156023355E-03  0.14795292223E+00  0.14800811400E+00  0.00000000000E+00 0.  1.
<mgrwt>
<rscale>  1 0.65412567E+03</rscale>
<asrwt>0</asrwt>
<pdfrwt beam="1">  1        1 0.38952112E+00 0.65412567E+03</pdfrwt>
<pdfrwt beam="2">0</pdfrwt>
<totfact> 0.14881939E+00</totfact>
</mgrwt>
</event>
<event>
 6    1  0.1118796E-002  0.6419041E+03  0.7818608E-02  0.9822090E-01
          1   -1    0    0  502    0  0.00000000000E+00  0.00000000000E+00  0.10301217730E+03  0.10301217730E+03  0.00000000000E+00 0.  1.
         13   -1    0    0    0    0 -0.00000000000E+00 -0.00000000000E+00 -0.10000000000E+04  0.10000000000E+04  0.00000000000E+00 0.  1.
    9000005    2    1    2  501    0  0.14007495469E-02 -0.14547508658E-02 -0.89698918773E+03  0.11030097397E+04  0.64190410737E+03 0.  0.
         13    1    3    3    0    0  0.18542801450E+03 -0.26192788339E+03 -0.45638855773E+03  0.55792497729E+03  0.00000000000E+00 0.  1.
          1    1    3    3  501    0 -0.18542661375E+03  0.26192642863E+03 -0.44060063000E+03  0.54508476246E+03  0.00000000000E+00 0.  1.
         21    1    1    2  502  501 -0.14007495469E-02  0.14547508658E-02  0.13650281942E-02  0.24375605317E-02  0.00000000000E+00 0. -1.
<mgrwt>
<rscale>  1 0.64190411E+03</rscale>
<asrwt>0</asrwt>
<pdfrwt beam="1">  1        1 0.37459053E+00 0.64190411E+03</pdfrwt>
<pdfrwt beam="2">0</pdfrwt>
<totfact> 0.17361358E+00</totfact>
</mgrwt>
</event>
<event>
 6    1  0.1118796E-002  0.6764494E+03  0.7818608E-02  0.9758377E-01
          1   -1    0    0  502    0  0.00000000000E+00  0.00000000000E+00  0.11439631981E+03  0.11439631981E+03  0.00000000000E+00 0.  1.
         13   -1    0    0    0    0 -0.00000000000E+00 -0.00000000000E+00 -0.10000000000E+04  0.10000000000E+04  0.00000000000E+00 0.  1.
    9000005    2    1    2  501    0  0.45656047809E-03  0.66130059280E-03 -0.88560343050E+03  0.11143954783E+04  0.67644944082E+03 0.  0.
         13    1    3    3    0    0 -0.18741261917E+03 -0.11859636028E+03 -0.22121449627E+02  0.22288549757E+03  0.00000000000E+00 0.  1.
          1    1    3    3  501    0  0.18741307573E+03  0.11859702158E+03 -0.86348198087E+03  0.89150998075E+03  0.00000000000E+00 0.  1.
         21    1    1    2  502  501 -0.45656047807E-03 -0.66130059279E-03 -0.24969230492E-03  0.84149402333E-03  0.00000000000E+00 0.  1.
<mgrwt>
<rscale>  1 0.67644944E+03</rscale>
<asrwt>0</asrwt>
<pdfrwt beam="1">  1        1 0.41598749E+00 0.67644944E+03</pdfrwt>
<pdfrwt beam="2">0</pdfrwt>
<totfact> 0.11287956E+00</totfact>
</mgrwt>
</event>
<event>
 6    1  0.1118796E-002  0.6611593E+03  0.7818608E-02  0.9786062E-01
          1   -1    0    0  502    0  0.00000000000E+00  0.00000000000E+00  0.10928300462E+03  0.10928300462E+03  0.00000000000E+00 0.  1.
         13   -1    0    0    0    0 -0.00000000000E+00 -0.00000000000E+00 -0.10000000000E+04  0.10000000000E+04  0.00000000000E+00 0.  1.
    9000005    2    1    2  501    0  0.23794130852E-03  0.40460710778E-04 -0.89071690141E+03  0.11092827456E+04  0.66115929341E+03 0.  0.
         13    1    3    3    0    0  0.18528245985E+02 -0.16472633088E+03  0.34513821467E+02  0.16932000430E+03  0.00000000000E+00 0.  1.
          1    1    3    3  501    0 -0.18528008044E+02  0.16472637134E+03 -0.92523072288E+03  0.93996274131E+03  0.00000000000E+00 0.  1.
         21    1    1    2  502  501 -0.23794130851E-03 -0.40460710782E-04 -0.93973898096E-04  0.25900623340E-03  0.00000000000E+00 0.  1.
<mgrwt>
<rscale>  1 0.66115929E+03</rscale>
<asrwt>0</asrwt>
<pdfrwt beam="1">  1        1 0.39739358E+00 0.66115929E+03</pdfrwt>
<pdfrwt beam="2">0</pdfrwt>
<totfact> 0.13712395E+00</totfact>
</mgrwt>
</event>
<event>
 6    1  0.1118796E-002  0.6839441E+03  0.7818608E-02  0.9745091E-01
          1   -1    0    0  502    0  0.00000000000E+00  0.00000000000E+00  0.11694490995E+03  0.11694490995E+03  0.00000000000E+00 0.  1.
         13   -1    0    0    0    0 -0.00000000000E+00 -0.00000000000E+00 -0.10000000000E+04  0.10000000000E+04  0.00000000000E+00 0.  1.
    9000005    2    1    2  501    0  0.18162296755E-04 -0.18497889897E-04 -0.88305510359E+03  0.11169448807E+04  0.68394411361E+03 0.  0.
         13    1    3    3    0    0  0.16192508215E+02 -0.18994788713E+03 -0.90517233045E+03  0.92502937519E+03  0.00000000000E+00 0.  1.
          1    1    3    3  501    0 -0.16192490053E+02  0.18994786863E+03  0.22117226856E+02  0.19191550551E+03  0.00000000000E+00 0.  1.
         21    1    1    2  502  501 -0.18162296754E-04  0.18497889892E-04  0.13546854761E-04  0.29249926970E-04  0.00000000000E+00 0. -1.
<mgrwt>
<rscale>  1 0.68394411E+03</rscale>
<asrwt>0</asrwt>
<pdfrwt beam="1">  1        1 0.42525511E+00 0.68394411E+03</pdfrwt>
<pdfrwt beam="2">0</pdfrwt>
<totfact> 0.10236192E+00</totfact>
</mgrwt>
</event>
<event>
 6    1  0.1118796E-002  0.6469299E+03  0.7818608E-02  0.9812557E-01
          1   -1    0    0  502    0  0.00000000000E+00  0.00000000000E+00  0.10468342972E+03  0.10468342972E+03  0.00000000000E+00 0.  1.
         13   -1    0    0    0    0 -0.00000000000E+00 -0.00000000000E+00 -0.10000000000E+04  0.10000000000E+04  0.00000000000E+00 0.  1.
    9000005    2    1    2  501    0  0.58266024121E-03  0.42909975537E-02 -0.89537033091E+03  0.11046294950E+04  0.64692989701E+03 0.  0.
         13    1    3    3    0    0 -0.26645641918E+03  0.52658574890E+02 -0.74762998935E+03  0.79543858959E+03  0.00000000000E+00 0.  1.
          1    1    3    3  501    0  0.26645700184E+03 -0.52654283892E+02 -0.14774034156E+03  0.30919090537E+03  0.00000000000E+00 0.  1.
         21    1    1    2  502  501 -0.58266024121E-03 -0.42909975537E-02  0.53760635406E-01  0.53934757552E-01  0.00000000000E+00 0.  1.
<mgrwt>
<rscale>  1 0.64692990E+03</rscale>
<asrwt>0</asrwt>
<pdfrwt beam="1">  1        1 0.38066782E+00 0.64692990E+03</pdfrwt>
<pdfrwt beam="2">0</pdfrwt>
<totfact> 0.16307946E+00</totfact>
</mgrwt>
</event>
<event>
 6    1  0.1118796E-002  0.6471630E+03  0.7818608E-02  0.9812117E-01
          1   -1    0    0  502    0  0.00000000000E+00  0.00000000000E+00  0.10482842063E+03  0.10482842063E+03  0.00000000000E+00 0.  1.
         13   -1    0    0    0    0 -0.00000000000E+00 -0.00000000000E+00 -0.10000000000E+04  0.10000000000E+04  0.00000000000E+00 0.  1.
    9000005    2    1    2  501    0 -0.52011858841E-01 -0.58725029184E-01 -0.89528108972E+03  0.11046937121E+04  0.64716301027E+03 0.  0.
         13    1    3    3    0    0 -0.12437907337E+03 -0.12762710236E+03  0.13403968550E+02  0.17871345087E+03  0.00000000000E+00 0.  1.
          1    1    3    3  501    0  0.12432706151E+03  0.12756837733E+03 -0.90868505827E+03  0.92598026126E+03  0.00000000000E+00 0.  1.
         21    1    1    2  502  501  0.52011858841E-01  0.58725029184E-01  0.10951034792E+00  0.13470849570E+00  0.00000000000E+00 0. -1.
<mgrwt>
<rscale>  1 0.64716302E+03</rscale>
<asrwt>0</asrwt>
<pdfrwt beam="1">  1        1 0.38119506E+00 0.64716302E+03</pdfrwt>
<pdfrwt beam="2">0</pdfrwt>
<totfact> 0.16220090E+00</totfact>
</mgrwt>
</event>
<event>
 6    1  0.1118796E-002  0.5008626E+03  0.7818608E-02  0.1013554E+00
          1   -1    0    0  502    0  0.00000000000E+00  0.00000000000E+00  0.62871863494E+02  0.62871863494E+02  0.00000000000E+00 0.  1.
         13   -1    0    0    0    0 -0.00000000000E+00 -0.00000000000E+00 -0.10000000000E+04  0.10000000000E+04  0.00000000000E+00 0.  1.
    9000005    2    1    2  501    0 -0.70439298553E-02  0.30200494812E-01 -0.93728253451E+03  0.10627143820E+04  0.50086256315E+03 0.  0.
         13    1    3    3    0    0  0.24648580516E+03 -0.29144596507E+02 -0.39798741709E+03  0.46904013028E+03  0.00000000000E+00 0.  1.
          3    1    3    3  501    0 -0.24649284909E+03  0.29174797001E+02 -0.53929511742E+03  0.59367425168E+03  0.00000000000E+00 0.  1.
         21    1    1    2  502  501  0.70439298553E-02 -0.30200494812E-01  0.15439800913E+00  0.15748152926E+00  0.00000000000E+00 0. -1.
<mgrwt>
<rscale>  1 0.50086256E+03</rscale>
<asrwt>0</asrwt>
<pdfrwt beam="1">  1        1 0.22862544E+00 0.50086256E+03</pdfrwt>
<pdfrwt beam="2">0</pdfrwt>
<totfact> 0.76585680E+00</totfact>
</mgrwt>
</event>
<event>
 6    1  0.1118796E-002  0.6486737E+03  0.7818608E-02  0.9809271E-01
          3   -1    0    0  502    0  0.00000000000E+00  0.00000000000E+00  0.10528092105E+03  0.10528092105E+03  0.00000000000E+00 0.  1.
         13   -1    0    0    0    0 -0.00000000000E+00 -0.00000000000E+00 -0.10000000000E+04  0.10000000000E+04  0.00000000000E+00 0.  1.
    9000005    2    1    2  501    0  0.15346086301E-02 -0.10479487507E-02 -0.89480560717E+03  0.11051943729E+04  0.64867366773E+03 0.  0.
         13    1    3    3    0    0 -0.87419445170E+02 -0.30904577616E+03 -0.37039103509E+03  0.49024582612E+03  0.00000000000E+00 0.  1.
          3    1    3    3  501    0  0.87420979778E+02  0.30904472821E+03 -0.52441457208E+03  0.61494854675E+03  0.00000000000E+00 0.  1.
         21    1    1    2  502  501 -0.15346086301E-02  0.10479487507E-02  0.86528220140E-01  0.86548172141E-01  0.00000000000E+00 0. -1.
<mgrwt>
<rscale>  1 0.64867367E+03</rscale>
<asrwt>0</asrwt>
<pdfrwt beam="1">  1        3 0.38284052E+00 0.64867367E+03</pdfrwt>
<pdfrwt beam="2">0</pdfrwt>
<totfact> 0.72933343E-02</totfact>
</mgrwt>
</event>
<event>
 6    1  0.1118796E-002  0.6499867E+03  0.7818608E-02  0.9806804E-01
          1   -1    0    0  502    0  0.00000000000E+00  0.00000000000E+00  0.10562201478E+03  0.10562201478E+03  0.00000000000E+00 0.  1.
         13   -1    0    0    0    0 -0.00000000000E+00 -0.00000000000E+00 -0.10000000000E+04  0.10000000000E+04  0.00000000000E+00 0.  1.
    9000005    2    1    2  501    0 -0.35250756284E-04  0.20353233964E-04 -0.89437932757E+03  0.11056206718E+04  0.64998668321E+03 0.  0.
         13    1    3    3    0    0  0.10319483977E+03  0.24618773117E+03 -0.76250700805E+03  0.80788273361E+03  0.00000000000E+00 0.  1.
          1    1    3    3  501    0 -0.10319487502E+03 -0.24618771082E+03 -0.13187231952E+03  0.29773793820E+03  0.00000000000E+00 0.  1.
         21    1    1    2  502  501  0.35250756278E-04 -0.20353233965E-04  0.13423528004E-02  0.13429698101E-02  0.00000000000E+00 0.  1.
<mgrwt>
<rscale>  1 0.64998668E+03</rscale>
<asrwt>0</asrwt>
<pdfrwt beam="1">  1        1 0.38408086E+00 0.64998668E+03</pdfrwt>
<pdfrwt beam="2">0</pdfrwt>
<totfact> 0.15742652E+00</totfact>
</mgrwt>
</event>
<event>
 6    1  0.1118796E-002  0.6391927E+03  0.7818608E-02  0.9827272E-01
          1   -1    0    0  502    0  0.00000000000E+00  0.00000000000E+00  0.10214185231E+03  0.10214185231E+03  0.00000000000E+00 0.  1.
         13   -1    0    0    0    0 -0.00000000000E+00 -0.00000000000E+00 -0.10000000000E+04  0.10000000000E+04  0.00000000000E+00 0.  1.
    9000005    2    1    2  501    0 -0.33352271856E-04  0.34056502756E-04 -0.89785815395E+03  0.11021418042E+04  0.63919268771E+03 0.  0.
         13    1    3    3    0    0  0.16916350146E+03 -0.16119731718E+03 -0.82488727687E+03  0.85734467096E+03  0.00000000000E+00 0.  1.
          1    1    3    3  501    0 -0.16916353481E+03  0.16119735123E+03 -0.72970877083E+02  0.24479713327E+03  0.00000000000E+00 0.  1.
         21    1    1    2  502  501  0.33352271859E-04 -0.34056502764E-04  0.62570849223E-05  0.48076715054E-04  0.00000000000E+00 0. -1.
<mgrwt>
<rscale>  1 0.63919269E+03</rscale>
<asrwt>0</asrwt>
<pdfrwt beam="1">  1        1 0.37142570E+00 0.63919269E+03</pdfrwt>
<pdfrwt beam="2">0</pdfrwt>
<totfact> 0.17935646E+00</totfact>
</mgrwt>
</event>
<event>
 6    1  0.1118796E-002  0.6474080E+03  0.7818608E-02  0.9811655E-01
          1   -1    0    0  502    0  0.00000000000E+00  0.00000000000E+00  0.10770134345E+03  0.10770134345E+03  0.00000000000E+00 0.  1.
         13   -1    0    0    0    0 -0.00000000000E+00 -0.00000000000E+00 -0.10000000000E+04  0.10000000000E+04  0.00000000000E+00 0.  1.
    9000005    2    1    2  501    0  0.22170032964E+01 -0.11642329755E+00 -0.89474174159E+03  0.11044002342E+04  0.64740417393E+03 0.  0.
         13    1    3    3    0    0 -0.19496383407E+03 -0.10466463887E+03 -0.84797303653E+03  0.87636970161E+03  0.00000000000E+00 0.  1.
          1    1    3    3  501    0  0.19718083737E+03  0.10454821558E+03 -0.46768705063E+02  0.22803053256E+03  0.00000000000E+00 0.  1.
         21    1    1    2  502  501 -0.22170032964E+01  0.11642329755E+00  0.24430850416E+01  0.33011092865E+01  0.00000000000E+00 0.  1.
<mgrwt>
<rscale>  1 0.64740798E+03</rscale>
<asrwt>0</asrwt>
<pdfrwt beam="1">  1        1 0.39164207E+00 0.64740798E+03</pdfrwt>
<pdfrwt beam="2">0</pdfrwt>
<totfact> 0.14581313E+00</totfact>
</mgrwt>
</event>
<event>
 6    1  0.1118796E-002  0.6449197E+03  0.7818608E-02  0.9816359E-01
          1   -1    0    0  502    0  0.00000000000E+00  0.00000000000E+00  0.10398375771E+03  0.10398375771E+03  0.00000000000E+00 0.  1.
         13   -1    0    0    0    0 -0.00000000000E+00 -0.00000000000E+00 -0.10000000000E+04  0.10000000000E+04  0.00000000000E+00 0.  1.
    9000005    2    1    2  501    0 -0.17131652504E-02 -0.21895680033E-02 -0.89601900924E+03  0.11039798353E+04  0.64491969411E+03 0.  0.
         13    1    3    3    0    0  0.28191617414E+03 -0.46815863062E+02 -0.70370240598E+03  0.75951664265E+03  0.00000000000E+00 0.  1.
          3    1    3    3  501    0 -0.28191788731E+03  0.46813673494E+02 -0.19231660326E+03  0.34446319266E+03  0.00000000000E+00 0.  1.
         21    1    1    2  502  501  0.17131652503E-02  0.21895680033E-02  0.27669504942E-02  0.39223919046E-02  0.00000000000E+00 0.  1.
<mgrwt>
<rscale>  1 0.64491969E+03</rscale>
<asrwt>0</asrwt>
<pdfrwt beam="1">  1        1 0.37812355E+00 0.64491969E+03</pdfrwt>
<pdfrwt beam="2">0</pdfrwt>
<totfact> 0.16741034E+00</totfact>
</mgrwt>
</event>
<event>
 6    1  0.1118796E-002  0.6084751E+03  0.7818608E-02  0.9887977E-01
          1   -1    0    0  502    0  0.00000000000E+00  0.00000000000E+00  0.92561067635E+02  0.92561067635E+02  0.00000000000E+00 0.  1.
         13   -1    0    0    0    0 -0.00000000000E+00 -0.00000000000E+00 -0.10000000000E+04  0.10000000000E+04  0.00000000000E+00 0.  1.
    9000005    2    1    2  501    0 -0.76077898937E-03  0.80093223247E-03 -0.90743884840E+03  0.10925599598E+04  0.60847514505E+03 0.  0.
         13    1    3    3    0    0  0.98088148938E+00  0.95694725648E+02  0.64830843356E+02  0.11559187210E+03  0.00000000000E+00 0.  1.
          1    1    3    3  501    0 -0.98164226837E+00 -0.95693924716E+02 -0.97226969176E+03  0.97696808769E+03  0.00000000000E+00 0.  1.
         21    1    1    2  502  501  0.76077898937E-03 -0.80093223247E-03 -0.83963409194E-04  0.11078478983E-02  0.00000000000E+00 0. -1.
<mgrwt>
<rscale>  1 0.60847515E+03</rscale>
<asrwt>0</asrwt>
<pdfrwt beam="1">  1        1 0.33658641E+00 0.60847515E+03</pdfrwt>
<pdfrwt beam="2">0</pdfrwt>
<totfact> 0.25596047E+00</totfact>
</mgrwt>
</event>
<event>
 6    1  0.1118796E-002  0.6615965E+03  0.7818608E-02  0.9785259E-01
          1   -1    0    0  502    0  0.00000000000E+00  0.00000000000E+00  0.10942757246E+03  0.10942757246E+03  0.00000000000E+00 0.  1.
         13   -1    0    0    0    0 -0.00000000000E+00 -0.00000000000E+00 -0.10000000000E+04  0.10000000000E+04  0.00000000000E+00 0.  1.
    9000005    2    1    2  501    0 -0.37527086647E-05 -0.35027276795E-05 -0.89057251881E+03  0.11094274810E+04  0.66159649670E+03 0.  0.
         13    1    3    3    0    0  0.22309286874E+03 -0.33570464149E+02 -0.39595356801E+02  0.22905282453E+03  0.00000000000E+00 0.  1.
          1    1    3    3  501    0 -0.22309287249E+03  0.33570460647E+02 -0.85097716201E+03  0.88037465652E+03  0.00000000000E+00 0.  1.
         21    1    1    2  502  501  0.37527086592E-05  0.35027276732E-05  0.91270035897E-04  0.91414284311E-04  0.00000000000E+00 0. -1.
<mgrwt>
<rscale>  1 0.66159650E+03</rscale>
<asrwt>0</asrwt>
<pdfrwt beam="1">  1        1 0.39791928E+00 0.66159650E+03</pdfrwt>
<pdfrwt beam="2">0</pdfrwt>
<totfact> 0.13637561E+00</totfact>
</mgrwt>
</event>
<event>
 6    1  0.1118796E-002  0.6588260E+03  0.7818608E-02  0.9790357E-01
          1   -1    0    0  502    0  0.00000000000E+00  0.00000000000E+00  0.10856640224E+03  0.10856640224E+03  0.00000000000E+00 0.  1.
         13   -1    0    0    0    0 -0.00000000000E+00 -0.00000000000E+00 -0.10000000000E+04  0.10000000000E+04  0.00000000000E+00 0.  1.
    9000005    2    1    2  501    0  0.12813790043E-01  0.10176688455E-02 -0.89148620747E+03  0.11085122450E+04  0.65882603087E+03 0.  0.
         13    1    3    3    0    0 -0.20001866512E+03  0.12614971981E+03 -0.59888227416E+02  0.24394224314E+03  0.00000000000E+00 0.  1.
          3    1    3    3  501    0  0.20003147891E+03 -0.12614870214E+03 -0.83159798006E+03  0.86457000182E+03  0.00000000000E+00 0.  1.
         21    1    1    2  502  501 -0.12813790043E-01 -0.10176688455E-02  0.52609711156E-01  0.54157276270E-01  0.00000000000E+00 0. -1.
<mgrwt>
<rscale>  1 0.65882603E+03</rscale>
<asrwt>0</asrwt>
<pdfrwt beam="1">  1        1 0.39478775E+00 0.65882603E+03</pdfrwt>
<pdfrwt beam="2">0</pdfrwt>
<totfact> 0.14089543E+00</totfact>
</mgrwt>
</event>
<event>
 6    1  0.1118796E-002  0.6728658E+03  0.7818608E-02  0.9764795E-01
          3   -1    0    0  502    0  0.00000000000E+00  0.00000000000E+00  0.11318781048E+03  0.11318781048E+03  0.00000000000E+00 0.  1.
         13   -1    0    0    0    0 -0.00000000000E+00 -0.00000000000E+00 -0.10000000000E+04  0.10000000000E+04  0.00000000000E+00 0.  1.
    9000005    2    1    2  501    0 -0.33411795403E-03  0.62621380357E-03 -0.88681269890E+03  0.11131869368E+04  0.67286580640E+03 0.  0.
         13    1    3    3    0    0 -0.29480187799E+03  0.16144823719E+03 -0.46758683254E+03  0.57585686288E+03  0.00000000000E+00 0.  1.
          1    1    3    3  501    0  0.29480154387E+03 -0.16144761098E+03 -0.41922586636E+03  0.53733007396E+03  0.00000000000E+00 0.  1.
         21    1    1    2  502  501  0.33411795403E-03 -0.62621380356E-03  0.50938739449E-03  0.87364412242E-03  0.00000000000E+00 0.  1.
<mgrwt>
<rscale>  1 0.67286581E+03</rscale>
<asrwt>0</asrwt>
<pdfrwt beam="1">  1        3 0.41159291E+00 0.67286581E+03</pdfrwt>
<pdfrwt beam="2">0</pdfrwt>
<totfact> 0.51326414E-02</totfact>
</mgrwt>
</event>
<event>
 6    1  0.1118796E-002  0.6522207E+03  0.7818608E-02  0.9802621E-01
          1   -1    0    0  502    0  0.00000000000E+00  0.00000000000E+00  0.10634911519E+03  0.10634911519E+03  0.00000000000E+00 0.  1.
         13   -1    0    0    0    0 -0.00000000000E+00 -0.00000000000E+00 -0.10000000000E+04  0.10000000000E+04  0.00000000000E+00 0.  1.
    9000005    2    1    2  501    0  0.10797842990E-04  0.59825035805E-04 -0.89365204141E+03  0.11063479570E+04  0.65222069180E+03 0.  0.
         13    1    3    3    0    0  0.68429485981E+02 -0.13138936988E+03 -0.93962977619E+03  0.95123597355E+03  0.00000000000E+00 0.  1.
          3    1    3    3  501    0 -0.68429475183E+02  0.13138942970E+03  0.45977734777E+02  0.15511198344E+03  0.00000000000E+00 0.  1.
         21    1    1    2  502  501 -0.10797842980E-04 -0.59825035804E-04  0.11565994097E-02  0.11581959346E-02  0.00000000000E+00 0.  1.
<mgrwt>
<rscale>  1 0.65222069E+03</rscale>
<asrwt>0</asrwt>
<pdfrwt beam="1">  1        1 0.38672487E+00 0.65222069E+03</pdfrwt>
<pdfrwt beam="2">0</pdfrwt>
<totfact> 0.15317968E+00</totfact>
</mgrwt>
</event>
<event>
 6    1  0.1118796E-002  0.6133229E+03  0.7818608E-02  0.9878144E-01
          1   -1    0    0  502    0  0.00000000000E+00  0.00000000000E+00  0.94042587804E+02  0.94042587804E+02  0.00000000000E+00 0.  1.
         13   -1    0    0    0    0 -0.00000000000E+00 -0.00000000000E+00 -0.10000000000E+04  0.10000000000E+04  0.00000000000E+00 0.  1.
    9000005    2    1    2  501    0 -0.62873491977E-05  0.55693161514E-04 -0.90595875273E+03  0.10940412461E+04  0.61332290559E+03 0.  0.
         13    1    3    3    0    0 -0.28609792171E+02 -0.67556856573E+02  0.78156243491E+02  0.10719537058E+03  0.00000000000E+00 0.  1.
          3    1    3    3  501    0  0.28609785884E+02  0.67556912266E+02 -0.98411499622E+03  0.98684587552E+03  0.00000000000E+00 0.  1.
         21    1    1    2  502  501  0.62873491966E-05 -0.55693161519E-04  0.13405318169E-02  0.13417029519E-02  0.00000000000E+00 0. -1.
<mgrwt>
<rscale>  1 0.61332291E+03</rscale>
<asrwt>0</asrwt>
<pdfrwt beam="1">  1        1 0.34197377E+00 0.61332291E+03</pdfrwt>
<pdfrwt beam="2">0</pdfrwt>
<totfact> 0.24232890E+00</totfact>
</mgrwt>
</event>
<event>
 6    1  0.1118796E-002  0.6464270E+03  0.7818608E-02  0.9813507E-01
          1   -1    0    0  502    0  0.00000000000E+00  0.00000000000E+00  0.10446743637E+03  0.10446743637E+03  0.00000000000E+00 0.  1.
         13   -1    0    0    0    0 -0.00000000000E+00 -0.00000000000E+00 -0.10000000000E+04  0.10000000000E+04  0.00000000000E+00 0.  1.
    9000005    2    1    2  501    0 -0.28105401611E-04  0.52022919199E-05 -0.89553302839E+03  0.11044669707E+04  0.64642701407E+03 0.  0.
         13    1    3    3    0    0  0.16153009071E+03 -0.28073309495E+02  0.28146306120E+02  0.16634991872E+03  0.00000000000E+00 0.  1.
          1    1    3    3  501    0 -0.16153011882E+03  0.28073314697E+02 -0.92367933451E+03  0.93811705201E+03  0.00000000000E+00 0.  1.
         21    1    1    2  502  501  0.28105401627E-04 -0.52022919185E-05  0.46475724513E-03  0.46563534481E-03  0.00000000000E+00 0.  1.
<mgrwt>
<rscale>  1 0.64642701E+03</rscale>
<asrwt>0</asrwt>
<pdfrwt beam="1">  1        1 0.37988239E+00 0.64642701E+03</pdfrwt>
<pdfrwt beam="2">0</pdfrwt>
<totfact> 0.16440136E+00</totfact>
</mgrwt>
</event>
<event>
 6    1  0.1118796E-002  0.6568947E+03  0.7818608E-02  0.9793927E-01
          1   -1    0    0  502    0  0.00000000000E+00  0.00000000000E+00  0.10790834175E+03  0.10790834175E+03  0.00000000000E+00 0.  1.
         13   -1    0    0    0    0 -0.00000000000E+00 -0.00000000000E+00 -0.10000000000E+04  0.10000000000E+04  0.00000000000E+00 0.  1.
    9000005    2    1    2  501    0 -0.14991827931E-02  0.11486694764E-02 -0.89212230233E+03  0.11078776395E+04  0.65689471138E+03 0.  0.
         13    1    3    3    0    0 -0.60501862101E+02 -0.31794265925E+03 -0.35171420024E+03  0.47796536332E+03  0.00000000000E+00 0.  1.
          1    1    3    3  501    0  0.60500362918E+02  0.31794380791E+03 -0.54040810209E+03  0.62991227620E+03  0.00000000000E+00 0.  1.
         21    1    1    2  502  501  0.14991827931E-02 -0.11486694764E-02  0.30644078777E-01  0.30702223938E-01  0.00000000000E+00 0.  1.
<mgrwt>
<rscale>  1 0.65689471E+03</rscale>
<asrwt>0</asrwt>
<pdfrwt beam="1">  1        1 0.39239480E+00 0.65689471E+03</pdfrwt>
<pdfrwt beam="2">0</pdfrwt>
<totfact> 0.14443941E+00</totfact>
</mgrwt>
</event>
<event>
 6    1  0.1118796E-002  0.6562137E+03  0.7818608E-02  0.9795189E-01
          1   -1    0    0  502    0  0.00000000000E+00  0.00000000000E+00  0.10765710865E+03  0.10765710865E+03  0.00000000000E+00 0.  1.
         13   -1    0    0    0    0 -0.00000000000E+00 -0.00000000000E+00 -0.10000000000E+04  0.10000000000E+04  0.00000000000E+00 0.  1.
    9000005    2    1    2  501    0 -0.95866290314E-03  0.31756586566E-04 -0.89234579948E+03  0.11076540464E+04  0.65621373094E+03 0.  0.
         13    1    3    3    0    0  0.28413532778E+03 -0.15457674006E+03 -0.35330478421E+03  0.47901056732E+03  0.00000000000E+00 0.  1.
          3    1    3    3  501    0 -0.28413628644E+03  0.15457677182E+03 -0.53904101527E+03  0.62864347909E+03  0.00000000000E+00 0.  1.
         21    1    1    2  502  501  0.95866290310E-03 -0.31756586572E-04  0.29081294623E-02  0.30622312146E-02  0.00000000000E+00 0. -1.
<mgrwt>
<rscale>  1 0.65621373E+03</rscale>
<asrwt>0</asrwt>
<pdfrwt beam="1">  1        1 0.39148122E+00 0.65621373E+03</pdfrwt>
<pdfrwt beam="2">0</pdfrwt>
<totfact> 0.14581304E+00</totfact>
</mgrwt>
</event>
<event>
 6    1  0.1118796E-002  0.6383430E+03  0.7818608E-02  0.9828902E-01
          1   -1    0    0  502    0  0.00000000000E+00  0.00000000000E+00  0.10235966532E+03  0.10235966532E+03  0.00000000000E+00 0.  1.
         13   -1    0    0    0    0 -0.00000000000E+00 -0.00000000000E+00 -0.10000000000E+04  0.10000000000E+04  0.00000000000E+00 0.  1.
    9000005    2    1    2  501    0  0.28824341293E-01 -0.33838418612E-01 -0.89812844426E+03  0.11018695359E+04  0.63834298759E+03 0.  0.
         13    1    3    3    0    0  0.82132788139E+02  0.29422169836E+03 -0.28943177093E+03  0.42081225350E+03  0.00000000000E+00 0.  1.
          3    1    3    3  501    0 -0.82103963797E+02 -0.29425553678E+03 -0.60869667333E+03  0.68105728241E+03  0.00000000000E+00 0.  1.
         21    1    1    2  502  501 -0.28824341293E-01  0.33838418612E-01  0.48810957548E+00  0.49012941036E+00  0.00000000000E+00 0.  1.
<mgrwt>
<rscale>  1 0.63834299E+03</rscale>
<asrwt>0</asrwt>
<pdfrwt beam="1">  1        1 0.37221775E+00 0.63834299E+03</pdfrwt>
<pdfrwt beam="2">0</pdfrwt>
<totfact> 0.17795210E+00</totfact>
</mgrwt>
</event>
<event>
 6    1  0.1118796E-002  0.6520099E+03  0.7818608E-02  0.9803015E-01
          1   -1    0    0  502    0  0.00000000000E+00  0.00000000000E+00  0.10628094076E+03  0.10628094076E+03  0.00000000000E+00 0.  1.
         13   -1    0    0    0    0 -0.00000000000E+00 -0.00000000000E+00 -0.10000000000E+04  0.10000000000E+04  0.00000000000E+00 0.  1.
    9000005    2    1    2  501    0 -0.33046168511E-04 -0.18977079836E-03 -0.89372075625E+03  0.11062792329E+04  0.65200993160E+03 0.  0.
         13    1    3    3    0    0 -0.13544677852E+03  0.13938521076E+03 -0.89095152058E+03  0.91190387587E+03  0.00000000000E+00 0.  1.
          1    1    3    3  501    0  0.13544674547E+03 -0.13938540053E+03 -0.27692356625E+01  0.19437535699E+03  0.00000000000E+00 0.  1.
         21    1    1    2  502  501  0.33046168531E-04  0.18977079833E-03  0.16970062706E-02  0.17079037700E-02  0.00000000000E+00 0. -1.
<mgrwt>
<rscale>  1 0.65200993E+03</rscale>
<asrwt>0</asrwt>
<pdfrwt beam="1">  1        1 0.38647696E+00 0.65200993E+03</pdfrwt>
<pdfrwt beam="2">0</pdfrwt>
<totfact> 0.15357324E+00</totfact>
</mgrwt>
</event>
<event>
 6    1  0.1118796E-002  0.6573528E+03  0.7818608E-02  0.9793079E-01
          1   -1    0    0  502    0  0.00000000000E+00  0.00000000000E+00  0.10802821883E+03  0.10802821883E+03  0.00000000000E+00 0.  1.
         13   -1    0    0    0    0 -0.00000000000E+00 -0.00000000000E+00 -0.10000000000E+04  0.10000000000E+04  0.00000000000E+00 0.  1.
    9000005    2    1    2  501    0 -0.73386048030E-05  0.50736741741E-06 -0.89197183989E+03  0.11080281596E+04  0.65735275113E+03 0.  0.
         13    1    3    3    0    0 -0.25773783394E+03 -0.20300362435E+03 -0.47922667107E+03  0.58077316123E+03  0.00000000000E+00 0.  1.
          3    1    3    3  501    0  0.25773782660E+03  0.20300362486E+03 -0.41274516883E+03  0.52725499842E+03  0.00000000000E+00 0.  1.
         21    1    1    2  502  501  0.73386048160E-05 -0.50736741808E-06  0.58727305516E-04  0.59186222683E-04  0.00000000000E+00 0.  1.
<mgrwt>
<rscale>  1 0.65735275E+03</rscale>
<asrwt>0</asrwt>
<pdfrwt beam="1">  1        1 0.39283072E+00 0.65735275E+03</pdfrwt>
<pdfrwt beam="2">0</pdfrwt>
<totfact> 0.14378475E+00</totfact>
</mgrwt>
</event>
<event>
 6    1  0.1118796E-002  0.6472080E+03  0.7818608E-02  0.9812032E-01
          1   -1    0    0  502    0  0.00000000000E+00  0.00000000000E+00  0.10472149542E+03  0.10472149542E+03  0.00000000000E+00 0.  1.
         13   -1    0    0    0    0 -0.00000000000E+00 -0.00000000000E+00 -0.10000000000E+04  0.10000000000E+04  0.00000000000E+00 0.  1.
    9000005    2    1    2  501    0 -0.57758029669E-04  0.59970249850E-05 -0.89528045373E+03  0.11047195454E+04  0.64720799065E+03 0.  0.
         13    1    3    3    0    0  0.15927860612E+03 -0.35133225141E+02 -0.92470440663E+03  0.93897937013E+03  0.00000000000E+00 0.  1.
          3    1    3    3  501    0 -0.15927866388E+03  0.35133231138E+02  0.29423952900E+02  0.16574017528E+03  0.00000000000E+00 0.  1.
         21    1    1    2  502  501  0.57758029652E-04 -0.59970249840E-05  0.19491499547E-02  0.19500147436E-02  0.00000000000E+00 0. -1.
<mgrwt>
<rscale>  1 0.64720799E+03</rscale>
<asrwt>0</asrwt>
<pdfrwt beam="1">  1        1 0.38080624E+00 0.64720799E+03</pdfrwt>
<pdfrwt beam="2">0</pdfrwt>
<totfact> 0.16284187E+00</totfact>
</mgrwt>
</event>
<event>
 6    1  0.1118796E-002  0.5918590E+03  0.7818608E-02  0.9922441E-01
          1   -1    0    0  502    0  0.00000000000E+00  0.00000000000E+00  0.87649994384E+02  0.87649994384E+02  0.00000000000E+00 0.  1.
         13   -1    0    0    0    0 -0.00000000000E+00 -0.00000000000E+00 -0.10000000000E+04  0.10000000000E+04  0.00000000000E+00 0.  1.
    9000005    2    1    2  501    0 -0.55482560072E-04 -0.12795168891E-02 -0.91242572894E+03  0.10875742602E+04  0.59185898716E+03 0.  0.
         13    1    3    3    0    0  0.13936375492E+03  0.22856438800E+03 -0.22443197281E+03  0.34933314482E+03  0.00000000000E+00 0.  1.
          1    1    3    3  501    0 -0.13936381041E+03 -0.22856566751E+03 -0.68799375613E+03  0.73824111541E+03  0.00000000000E+00 0.  1.
         21    1    1    2  502  501  0.55482560094E-04  0.12795168891E-02  0.75723324121E-01  0.75734153839E-01  0.00000000000E+00 0. -1.
<mgrwt>
<rscale>  1 0.59185899E+03</rscale>
<asrwt>0</asrwt>
<pdfrwt beam="1">  1        1 0.31872792E+00 0.59185899E+03</pdfrwt>
<pdfrwt beam="2">0</pdfrwt>
<totfact> 0.30674418E+00</totfact>
</mgrwt>
</event>
<event>
 6    1  0.1118796E-002  0.6071260E+03  0.7818608E-02  0.9890731E-01
          1   -1    0    0  502    0  0.00000000000E+00  0.00000000000E+00  0.92151437361E+02  0.92151437361E+02  0.00000000000E+00 0.  1.
         13   -1    0    0    0    0 -0.00000000000E+00 -0.00000000000E+00 -0.10000000000E+04  0.10000000000E+04  0.00000000000E+00 0.  1.
    9000005    2    1    2  501    0 -0.14882750145E-03 -0.19180415197E-03 -0.90784947770E+03  0.10921504906E+04  0.60712603308E+03 0.  0.
         13    1    3    3    0    0 -0.32826026237E+02 -0.17744431346E+03 -0.14810504654E+02  0.18106182211E+03  0.00000000000E+00 0.  1.
          1    1    3    3  501    0  0.32825877410E+02  0.17744412166E+03 -0.89303897305E+03  0.91108866853E+03  0.00000000000E+00 0.  1.
         21    1    1    2  502  501  0.14882750145E-03  0.19180415197E-03  0.91506324914E-03  0.94672023736E-03  0.00000000000E+00 0.  1.
<mgrwt>
<rscale>  1 0.60712603E+03</rscale>
<asrwt>0</asrwt>
<pdfrwt beam="1">  1        1 0.33509684E+00 0.60712603E+03</pdfrwt>
<pdfrwt beam="2">0</pdfrwt>
<totfact> 0.25985957E+00</totfact>
</mgrwt>
</event>
<event>
 6    1  0.1118796E-002  0.6588569E+03  0.7818608E-02  0.9790300E-01
          1   -1    0    0  502    0  0.00000000000E+00  0.00000000000E+00  0.10971337555E+03  0.10971337555E+03  0.00000000000E+00 0.  1.
         13   -1    0    0    0    0 -0.00000000000E+00 -0.00000000000E+00 -0.10000000000E+04  0.10000000000E+04  0.00000000000E+00 0.  1.
    9000005    2    1    2  501    0 -0.64450060732E-01  0.12052380963E+00 -0.89147255009E+03  0.11085196003E+04  0.65885687213E+03 0.  0.
         13    1    3    3    0    0 -0.68668385106E+02 -0.22587479678E+03 -0.59209095969E+02  0.24339368927E+03  0.00000000000E+00 0.  1.
          3    1    3    3  501    0  0.68603935045E+02  0.22599532058E+03 -0.83226345412E+03  0.86512591100E+03  0.00000000000E+00 0.  1.
         21    1    1    2  502  501  0.64450060732E-01 -0.12052380963E+00  0.11859256329E+01  0.11937752744E+01  0.00000000000E+00 0.  1.
<mgrwt>
<rscale>  1 0.65885689E+03</rscale>
<asrwt>0</asrwt>
<pdfrwt beam="1">  1        1 0.39895857E+00 0.65885689E+03</pdfrwt>
<pdfrwt beam="2">0</pdfrwt>
<totfact> 0.13499859E+00</totfact>
</mgrwt>
</event>
<event>
 6    1  0.1118796E-002  0.6411407E+03  0.7818608E-02  0.9823547E-01
          1   -1    0    0  502    0  0.00000000000E+00  0.00000000000E+00  0.10346506129E+03  0.10346506129E+03  0.00000000000E+00 0.  1.
         13   -1    0    0    0    0 -0.00000000000E+00 -0.00000000000E+00 -0.10000000000E+04  0.10000000000E+04  0.00000000000E+00 0.  1.
    9000005    2    1    2  501    0  0.29737077086E-01 -0.18291946460E-01 -0.89723417466E+03  0.11027649543E+04  0.64114068583E+03 0.  0.
         13    1    3    3    0    0 -0.12621871749E+03 -0.96508738517E+02  0.30272670356E+02  0.16174528069E+03  0.00000000000E+00 0.  1.
          1    1    3    3  501    0  0.12624845457E+03  0.96490446570E+02 -0.92750684502E+03  0.94101967361E+03  0.00000000000E+00 0.  1.
         21    1    1    2  502  501 -0.29737077086E-01  0.18291946460E-01  0.69923594797E+00  0.70010699182E+00  0.00000000000E+00 0.  1.
<mgrwt>
<rscale>  1 0.64114069E+03</rscale>
<asrwt>0</asrwt>
<pdfrwt beam="1">  1        1 0.37623738E+00 0.64114069E+03</pdfrwt>
<pdfrwt beam="2">0</pdfrwt>
<totfact> 0.17076317E+00</totfact>
</mgrwt>
</event>
<event>
 6    1  0.1118796E-002  0.6485153E+03  0.7818608E-02  0.9809569E-01
          1   -1    0    0  502    0  0.00000000000E+00  0.00000000000E+00  0.10530728354E+03  0.10530728354E+03  0.00000000000E+00 0.  1.
         13   -1    0    0    0    0 -0.00000000000E+00 -0.00000000000E+00 -0.10000000000E+04  0.10000000000E+04  0.00000000000E+00 0.  1.
    9000005    2    1    2  501    0 -0.19599322888E+00 -0.14064049478E+00 -0.89475279463E+03  0.11050586825E+04  0.64851528129E+03 0.  0.
         13    1    3    3    0    0 -0.26446536361E+03  0.11653739003E+03 -0.69820684520E+03  0.75565580161E+03  0.00000000000E+00 0.  1.
          1    1    3    3  501    0  0.26426937038E+03 -0.11667803053E+03 -0.19654594943E+03  0.34940288088E+03  0.00000000000E+00 0.  1.
         21    1    1    2  502  501  0.19599322888E+00  0.14064049478E+00  0.60078165126E-01  0.24860104678E+00  0.00000000000E+00 0.  1.
<mgrwt>
<rscale>  1 0.64851533E+03</rscale>
<asrwt>0</asrwt>
<pdfrwt beam="1">  1        1 0.38293638E+00 0.64851533E+03</pdfrwt>
<pdfrwt beam="2">0</pdfrwt>
<totfact> 0.15931410E+00</totfact>
</mgrwt>
</event>
<event>
 6    1  0.1118796E-002  0.6464980E+03  0.7818608E-02  0.9813373E-01
          1   -1    0    0  502    0  0.00000000000E+00  0.00000000000E+00  0.10449372077E+03  0.10449372077E+03  0.00000000000E+00 0.  1.
         13   -1    0    0    0    0 -0.00000000000E+00 -0.00000000000E+00 -0.10000000000E+04  0.10000000000E+04  0.00000000000E+00 0.  1.
    9000005    2    1    2  501    0 -0.95108573589E-04 -0.18062420520E-03 -0.89551007478E+03  0.11044899197E+04  0.64649801916E+03 0.  0.
         13    1    3    3    0    0 -0.31458099369E+03  0.74342609316E+02 -0.45011834006E+03  0.55416111845E+03  0.00000000000E+00 0.  1.
          3    1    3    3  501    0  0.31458089858E+03 -0.74342789940E+02 -0.44539173472E+03  0.55032880129E+03  0.00000000000E+00 0.  1.
         21    1    1    2  502  501  0.95108573626E-04  0.18062420521E-03  0.37955426880E-02  0.38010281558E-02  0.00000000000E+00 0. -1.
<mgrwt>
<rscale>  1 0.64649802E+03</rscale>
<asrwt>0</asrwt>
<pdfrwt beam="1">  1        1 0.37997797E+00 0.64649802E+03</pdfrwt>
<pdfrwt beam="2">0</pdfrwt>
<totfact> 0.16423965E+00</totfact>
</mgrwt>
</event>
<event>
 6    1  0.1118796E-002  0.6456768E+03  0.7818608E-02  0.9814925E-01
          3   -1    0    0  502    0  0.00000000000E+00  0.00000000000E+00  0.10426439056E+03  0.10426439056E+03  0.00000000000E+00 0.  1.
         13   -1    0    0    0    0 -0.00000000000E+00 -0.00000000000E+00 -0.10000000000E+04  0.10000000000E+04  0.00000000000E+00 0.  1.
    9000005    2    1    2  501    0  0.32266954871E-01 -0.29602739467E-01 -0.89576161093E+03  0.11042134636E+04  0.64567678263E+03 0.  0.
         13    1    3    3    0    0  0.21050489392E+03 -0.23055193784E+03 -0.58864046572E+03  0.66630631416E+03  0.00000000000E+00 0.  1.
          3    1    3    3  501    0 -0.21047262697E+03  0.23052233510E+03 -0.30712114521E+03  0.43790714943E+03  0.00000000000E+00 0.  1.
         21    1    1    2  502  501 -0.32266954871E-01  0.29602739467E-01  0.26001491189E-01  0.50926968344E-01  0.00000000000E+00 0.  1.
<mgrwt>
<rscale>  1 0.64567678E+03</rscale>
<asrwt>0</asrwt>
<pdfrwt beam="1">  1        3 0.37914404E+00 0.64567678E+03</pdfrwt>
<pdfrwt beam="2">0</pdfrwt>
<totfact> 0.76323715E-02</totfact>
</mgrwt>
</event>
<event>
 6    1  0.1118796E-002  0.6516902E+03  0.7818608E-02  0.9803613E-01
          1   -1    0    0  502    0  0.00000000000E+00  0.00000000000E+00  0.10617517227E+03  0.10617517227E+03  0.00000000000E+00 0.  1.
         13   -1    0    0    0    0 -0.00000000000E+00 -0.00000000000E+00 -0.10000000000E+04  0.10000000000E+04  0.00000000000E+00 0.  1.
    9000005    2    1    2  501    0 -0.91607458245E-04 -0.37635126444E-03 -0.89382465143E+03  0.11061747467E+04  0.65169015852E+03 0.  0.
         13    1    3    3    0    0 -0.11927647563E+03 -0.23438397153E+03 -0.77346739173E+03  0.81695442334E+03  0.00000000000E+00 0.  1.
          3    1    3    3  501    0  0.11927638402E+03  0.23438359518E+03 -0.12035725971E+03  0.28922032335E+03  0.00000000000E+00 0.  1.
         21    1    1    2  502  501  0.91607458247E-04  0.37635126443E-03 -0.17630079167E-03  0.42557510475E-03  0.00000000000E+00 0. -1.
<mgrwt>
<rscale>  1 0.65169016E+03</rscale>
<asrwt>0</asrwt>
<pdfrwt beam="1">  1        1 0.38609235E+00 0.65169016E+03</pdfrwt>
<pdfrwt beam="2">0</pdfrwt>
<totfact> 0.15418552E+00</totfact>
</mgrwt>
</event>
<event>
 6    1  0.1118796E-002  0.6491275E+03  0.7818608E-02  0.9808418E-01
          1   -1    0    0  502    0  0.00000000000E+00  0.00000000000E+00  0.10534165648E+03  0.10534165648E+03  0.00000000000E+00 0.  1.
         13   -1    0    0    0    0 -0.00000000000E+00 -0.00000000000E+00 -0.10000000000E+04  0.10000000000E+04  0.00000000000E+00 0.  1.
    9000005    2    1    2  501    0 -0.35306611593E-04 -0.60447253759E-04 -0.89465831021E+03  0.11053415790E+04  0.64912750223E+03 0.  0.
         13    1    3    3    0    0 -0.12531616972E+03  0.28041554666E+03 -0.62595876953E+03  0.69725275356E+03  0.00000000000E+00 0.  1.
          3    1    3    3  501    0  0.12531613441E+03 -0.28041560710E+03 -0.26869954068E+03  0.40808882540E+03  0.00000000000E+00 0.  1.
         21    1    1    2  502  501  0.35306611590E-04  0.60447253751E-04 -0.33312090679E-04  0.77524981093E-04  0.00000000000E+00 0. -1.
<mgrwt>
<rscale>  1 0.64912750E+03</rscale>
<asrwt>0</asrwt>
<pdfrwt beam="1">  1        1 0.38306138E+00 0.64912750E+03</pdfrwt>
<pdfrwt beam="2">0</pdfrwt>
<totfact> 0.15909367E+00</totfact>
</mgrwt>
</event>
<event>
 6    1  0.1118796E-002  0.6487597E+03  0.7818608E-02  0.9809109E-01
          1   -1    0    0  502    0  0.00000000000E+00  0.00000000000E+00  0.10522419350E+03  0.10522419350E+03  0.00000000000E+00 0.  1.
         13   -1    0    0    0    0 -0.00000000000E+00 -0.00000000000E+00 -0.10000000000E+04  0.10000000000E+04  0.00000000000E+00 0.  1.
    9000005    2    1    2  501    0  0.46136899981E-02 -0.12207658094E-02 -0.89477357384E+03  0.11052189246E+04  0.64875968035E+03 0.  0.
         13    1    3    3    0    0  0.55734784768E+02  0.31954106649E+03 -0.44219451368E+03  0.54840573241E+03  0.00000000000E+00 0.  1.
          1    1    3    3  501    0 -0.55730171078E+02 -0.31954228726E+03 -0.45257906016E+03  0.55681319220E+03  0.00000000000E+00 0.  1.
         21    1    1    2  502  501 -0.46136899981E-02  0.12207658093E-02 -0.22326636829E-02  0.52688890367E-02  0.00000000000E+00 0. -1.
<mgrwt>
<rscale>  1 0.64875968E+03</rscale>
<asrwt>0</asrwt>
<pdfrwt beam="1">  1        1 0.38263424E+00 0.64875968E+03</pdfrwt>
<pdfrwt beam="2">0</pdfrwt>
<totfact> 0.15979737E+00</totfact>
</mgrwt>
</event>
<event>
 6    1  0.1118796E-002  0.6504187E+03  0.7818608E-02  0.9805994E-01
          1   -1    0    0  502    0  0.00000000000E+00  0.00000000000E+00  0.10576116103E+03  0.10576116103E+03  0.00000000000E+00 0.  1.
         13   -1    0    0    0    0 -0.00000000000E+00 -0.00000000000E+00 -0.10000000000E+04  0.10000000000E+04  0.00000000000E+00 0.  1.
    9000005    2    1    2  501    0 -0.87631240262E-04 -0.45286808756E-05 -0.89423865954E+03  0.11057609613E+04  0.65041872922E+03 0.  0.
         13    1    3    3    0    0  0.26333531146E+03 -0.16536229094E+03 -0.28520161410E+03  0.42193617314E+03  0.00000000000E+00 0.  1.
          1    1    3    3  501    0 -0.26333539909E+03  0.16536228641E+03 -0.60903704544E+03  0.68382478816E+03  0.00000000000E+00 0.  1.
         21    1    1    2  502  501  0.87631240275E-04  0.45286808818E-05 -0.17942630494E-03  0.19973367800E-03  0.00000000000E+00 0.  1.
<mgrwt>
<rscale>  1 0.65041873E+03</rscale>
<asrwt>0</asrwt>
<pdfrwt beam="1">  1        1 0.38458685E+00 0.65041873E+03</pdfrwt>
<pdfrwt beam="2">0</pdfrwt>
<totfact> 0.15660511E+00</totfact>
</mgrwt>
</event>
<event>
 6    1  0.1118796E-002  0.6608356E+03  0.7818608E-02  0.9786657E-01
          1   -1    0    0  502    0  0.00000000000E+00  0.00000000000E+00  0.10918777388E+03  0.10918777388E+03  0.00000000000E+00 0.  1.
         13   -1    0    0    0    0 -0.00000000000E+00 -0.00000000000E+00 -0.10000000000E+04  0.10000000000E+04  0.00000000000E+00 0.  1.
    9000005    2    1    2  501    0  0.39747726734E-03 -0.23830846158E-02 -0.89082393873E+03  0.11091758147E+04  0.66083560592E+03 0.  0.
         13    1    3    3    0    0  0.18396081397E+03  0.19114458250E+03 -0.77601663329E+03  0.82010953392E+03  0.00000000000E+00 0.  1.
          1    1    3    3  501    0 -0.18396041649E+03 -0.19114696559E+03 -0.11480730545E+03  0.28906628076E+03  0.00000000000E+00 0.  1.
         21    1    1    2  502  501 -0.39747726733E-03  0.23830846158E-02  0.11712608399E-01  0.11959192112E-01  0.00000000000E+00 0. -1.
<mgrwt>
<rscale>  1 0.66083561E+03</rscale>
<asrwt>0</asrwt>
<pdfrwt beam="1">  1        1 0.39704729E+00 0.66083561E+03</pdfrwt>
<pdfrwt beam="2">0</pdfrwt>
<totfact> 0.13761994E+00</totfact>
</mgrwt>
</event>
<event>
 6    1  0.1118796E-002  0.6636810E+03  0.7818608E-02  0.9781441E-01
          1   -1    0    0  502    0  0.00000000000E+00  0.00000000000E+00  0.11023079263E+03  0.11023079263E+03  0.00000000000E+00 0.  1.
         13   -1    0    0    0    0 -0.00000000000E+00 -0.00000000000E+00 -0.10000000000E+04  0.10000000000E+04  0.00000000000E+00 0.  1.
    9000005    2    1    2  501    0 -0.22305897101E-02 -0.10494116653E-02 -0.88988188171E+03  0.11101180913E+04  0.66368095746E+03 0.  0.
         13    1    3    3    0    0  0.31152277322E+03  0.31746162225E+02 -0.26122658659E+03  0.40779110656E+03  0.00000000000E+00 0.  1.
          3    1    3    3  501    0 -0.31152500381E+03 -0.31747211637E+02 -0.62865529512E+03  0.70232698477E+03  0.00000000000E+00 0.  1.
         21    1    1    2  502  501  0.22305897101E-02  0.10494116653E-02  0.11267434095E+00  0.11270130391E+00  0.00000000000E+00 0.  1.
<mgrwt>
<rscale>  1 0.66368096E+03</rscale>
<asrwt>0</asrwt>
<pdfrwt beam="1">  1        1 0.40084009E+00 0.66368096E+03</pdfrwt>
<pdfrwt beam="2">0</pdfrwt>
<totfact> 0.13229615E+00</totfact>
</mgrwt>
</event>
<event>
 6    1  0.1118796E-002  0.6468378E+03  0.7818608E-02  0.9812731E-01
          1   -1    0    0  502    0  0.00000000000E+00  0.00000000000E+00  0.11155114084E+03  0.11155114084E+03  0.00000000000E+00 0.  1.
         13   -1    0    0    0    0 -0.00000000000E+00 -0.00000000000E+00 -0.10000000000E+04  0.10000000000E+04  0.00000000000E+00 0.  1.
    9000005    2    1    2  501    0 -0.29849624171E+00 -0.16939038843E+01 -0.89528248344E+03  0.11045043805E+04  0.64683556103E+03 0.  0.
         13    1    3    3    0    0  0.52789692823E+02  0.31418490321E+03 -0.53272920541E+03  0.62072482741E+03  0.00000000000E+00 0.  1.
          3    1    3    3  501    0 -0.53088189064E+02 -0.31587880709E+03 -0.36255327803E+03  0.48377955310E+03  0.00000000000E+00 0.  1.
         21    1    1    2  502  501  0.29849624171E+00  0.16939038843E+01  0.68336242748E+01  0.70467603269E+01  0.00000000000E+00 0.  1.
<mgrwt>
<rscale>  1 0.64683785E+03</rscale>
<asrwt>0</asrwt>
<pdfrwt beam="1">  1        1 0.40564137E+00 0.64683785E+03</pdfrwt>
<pdfrwt beam="2">0</pdfrwt>
<totfact> 0.12632677E+00</totfact>
</mgrwt>
</event>
<event>
 6    1  0.1118796E-002  0.6489033E+03  0.7818608E-02  0.9808839E-01
          1   -1    0    0  502    0  0.00000000000E+00  0.00000000000E+00  0.10527641903E+03  0.10527641903E+03  0.00000000000E+00 0.  1.
         13   -1    0    0    0    0 -0.00000000000E+00 -0.00000000000E+00 -0.10000000000E+04  0.10000000000E+04  0.00000000000E+00 0.  1.
    9000005    2    1    2  501    0  0.14750711779E-03  0.89272284100E-04 -0.89473112593E+03  0.11052688721E+04  0.64890329935E+03 0.  0.
         13    1    3    3    0    0  0.29332497842E+03 -0.13724460941E+03 -0.41358732003E+03  0.52529048827E+03  0.00000000000E+00 0.  1.
          1    1    3    3  501    0 -0.29332483091E+03  0.13724469868E+03 -0.48114380590E+03  0.57997838382E+03  0.00000000000E+00 0.  1.
         21    1    1    2  502  501 -0.14750711776E-03 -0.89272284094E-04  0.75449596024E-02  0.75469293950E-02  0.00000000000E+00 0. -1.
<mgrwt>
<rscale>  1 0.64890330E+03</rscale>
<asrwt>0</asrwt>
<pdfrwt beam="1">  1        1 0.38282415E+00 0.64890330E+03</pdfrwt>
<pdfrwt beam="2">0</pdfrwt>
<totfact> 0.15948472E+00</totfact>
</mgrwt>
</event>
<event>
 6    1  0.1118796E-002  0.6463209E+03  0.7818608E-02  0.9813707E-01
          1   -1    0    0  502    0  0.00000000000E+00  0.00000000000E+00  0.10443269732E+03  0.10443269732E+03  0.00000000000E+00 0.  1.
         13   -1    0    0    0    0 -0.00000000000E+00 -0.00000000000E+00 -0.10000000000E+04  0.10000000000E+04  0.00000000000E+00 0.  1.
    9000005    2    1    2  501    0  0.28018201675E-04 -0.16870964316E-04 -0.89556727014E+03  0.11044326512E+04  0.64632093085E+03 0.  0.
         13    1    3    3    0    0 -0.14946051233E+03  0.26392868604E+03 -0.63834254768E+03  0.70673757806E+03  0.00000000000E+00 0.  1.
          3    1    3    3  501    0  0.14946054035E+03 -0.26392870291E+03 -0.25722472247E+03  0.39769507313E+03  0.00000000000E+00 0.  1.
         21    1    1    2  502  501 -0.28018201655E-04  0.16870964311E-04 -0.32539161020E-04  0.46135084921E-04  0.00000000000E+00 0.  1.
<mgrwt>
<rscale>  1 0.64632093E+03</rscale>
<asrwt>0</asrwt>
<pdfrwt beam="1">  1        1 0.37975606E+00 0.64632093E+03</pdfrwt>
<pdfrwt beam="2">0</pdfrwt>
<totfact> 0.16461567E+00</totfact>
</mgrwt>
</event>
<event>
 6    1  0.1118796E-002  0.6255622E+03  0.7818608E-02  0.9853747E-01
          1   -1    0    0  502    0  0.00000000000E+00  0.00000000000E+00  0.99405319910E+02  0.99405319910E+02  0.00000000000E+00 0.  1.
         13   -1    0    0    0    0 -0.00000000000E+00 -0.00000000000E+00 -0.10000000000E+04  0.10000000000E+04  0.00000000000E+00 0.  1.
    9000005    2    1    2  501    0 -0.26982308357E+01 -0.41765115967E+01 -0.89450444092E+03  0.10915430866E+04  0.62554247776E+03 0.  0.
         13    1    3    3    0    0 -0.20496649285E+03  0.18933081740E+03 -0.20161880790E+03  0.34424927787E+03  0.00000000000E+00 0.  1.
          1    1    3    3  501    0  0.20226826202E+03 -0.19350732900E+03 -0.69288563302E+03  0.74729380878E+03  0.00000000000E+00 0.  1.
         21    1    1    2  502  501  0.26982308357E+01  0.41765115967E+01 -0.60902391654E+01  0.78622332611E+01  0.00000000000E+00 0.  1.
<mgrwt>
<rscale>  1 0.62556224E+03</rscale>
<asrwt>0</asrwt>
<pdfrwt beam="1">  1        1 0.36147465E+00 0.62556224E+03</pdfrwt>
<pdfrwt beam="2">0</pdfrwt>
<totfact> 0.19880538E+00</totfact>
</mgrwt>
</event>
<event>
 6    1  0.1118796E-002  0.6386430E+03  0.7818608E-02  0.9828326E-01
          1   -1    0    0  502    0  0.00000000000E+00  0.00000000000E+00  0.11247671231E+03  0.11247671231E+03  0.00000000000E+00 0.  1.
         13   -1    0    0    0    0 -0.00000000000E+00 -0.00000000000E+00 -0.10000000000E+04  0.10000000000E+04  0.00000000000E+00 0.  1.
    9000005    2    1    2  501    0 -0.62888976065E-02 -0.31636161090E+00 -0.89803114748E+03  0.11019640893E+04  0.63864294581E+03 0.  0.
         13    1    3    3    0    0 -0.21697254516E+03 -0.20031344488E+03 -0.65927242371E+03  0.72238680097E+03  0.00000000000E+00 0.  1.
          3    1    3    3  501    0  0.21696625626E+03  0.19999708327E+03 -0.23875872377E+03  0.37957728837E+03  0.00000000000E+00 0.  1.
         21    1    1    2  502  501  0.62888976065E-02  0.31636161090E+00  0.10507859794E+02  0.10512622968E+02  0.00000000000E+00 0.  1.
<mgrwt>
<rscale>  1 0.63864302E+03</rscale>
<asrwt>0</asrwt>
<pdfrwt beam="1">  1        1 0.40900709E+00 0.63864302E+03</pdfrwt>
<pdfrwt beam="2">0</pdfrwt>
<totfact> 0.12221639E+00</totfact>
</mgrwt>
</event>
<event>
 6    1  0.1118796E-002  0.6508754E+03  0.7818608E-02  0.9805138E-01
          1   -1    0    0  502    0  0.00000000000E+00  0.00000000000E+00  0.10591102449E+03  0.10591102449E+03  0.00000000000E+00 0.  1.
         13   -1    0    0    0    0 -0.00000000000E+00 -0.00000000000E+00 -0.10000000000E+04  0.10000000000E+04  0.00000000000E+00 0.  1.
    9000005    2    1    2  501    0  0.10492683251E-02 -0.55564213156E-04 -0.89409007512E+03  0.11059095036E+04  0.65087538567E+03 0.  0.
         13    1    3    3    0    0  0.17841596431E+03 -0.78571841732E+02 -0.88980680722E+03  0.91091269879E+03  0.00000000000E+00 0.  1.
          1    1    3    3  501    0 -0.17841491504E+03  0.78571786168E+02 -0.42832678938E+01  0.19499680478E+03  0.00000000000E+00 0.  1.
         21    1    1    2  502  501 -0.10492683251E-02  0.55564213159E-04  0.10996064852E-02  0.15209161128E-02  0.00000000000E+00 0. -1.
<mgrwt>
<rscale>  1 0.65087539E+03</rscale>
<asrwt>0</asrwt>
<pdfrwt beam="1">  1        1 0.38513181E+00 0.65087539E+03</pdfrwt>
<pdfrwt beam="2">0</pdfrwt>
<totfact> 0.15572523E+00</totfact>
</mgrwt>
</event>
<event>
 6    1  0.1118796E-002  0.6538690E+03  0.7818608E-02  0.9799546E-01
          1   -1    0    0  502    0  0.00000000000E+00  0.00000000000E+00  0.10688995021E+03  0.10688995021E+03  0.00000000000E+00 0.  1.
         13   -1    0    0    0    0 -0.00000000000E+00 -0.00000000000E+00 -0.10000000000E+04  0.10000000000E+04  0.00000000000E+00 0.  1.
    9000005    2    1    2  501    0  0.79020576669E-03 -0.11738940990E-02 -0.89311368262E+03  0.11068860515E+04  0.65386900901E+03 0.  0.
         13    1    3    3    0    0  0.26346471299E+03  0.19249784497E+03 -0.48112847390E+03  0.58133783956E+03  0.00000000000E+00 0.  1.
          3    1    3    3  501    0 -0.26346392278E+03 -0.19249901887E+03 -0.41198520872E+03  0.52554821194E+03  0.00000000000E+00 0.  1.
         21    1    1    2  502  501 -0.79020576668E-03  0.11738940990E-02  0.36328233903E-02  0.38986995645E-02  0.00000000000E+00 0. -1.
<mgrwt>
<rscale>  1 0.65386901E+03</rscale>
<asrwt>0</asrwt>
<pdfrwt beam="1">  1        1 0.38869155E+00 0.65386901E+03</pdfrwt>
<pdfrwt beam="2">0</pdfrwt>
<totfact> 0.15009195E+00</totfact>
</mgrwt>
</event>
<event>
 6    1  0.1118796E-002  0.6554257E+03  0.7818608E-02  0.9796651E-01
          1   -1    0    0  502    0  0.00000000000E+00  0.00000000000E+00  0.10739572106E+03  0.10739572106E+03  0.00000000000E+00 0.  1.
         13   -1    0    0    0    0 -0.00000000000E+00 -0.00000000000E+00 -0.10000000000E+04  0.10000000000E+04  0.00000000000E+00 0.  1.
    9000005    2    1    2  501    0 -0.28866761284E-05  0.27581787805E-05 -0.89260428276E+03  0.11073957155E+04  0.65542571293E+03 0.  0.
         13    1    3    3    0    0  0.12959919177E+03 -0.11930479131E+03  0.20604188389E+02  0.17735308375E+03  0.00000000000E+00 0.  1.
          3    1    3    3  501    0 -0.12959919466E+03  0.11930479407E+03 -0.91320847115E+03  0.93004263178E+03  0.00000000000E+00 0.  1.
         21    1    1    2  502  501  0.28866761294E-05 -0.27581787733E-05  0.38204891172E-05  0.55259918852E-05  0.00000000000E+00 0. -1.
<mgrwt>
<rscale>  1 0.65542571E+03</rscale>
<asrwt>0</asrwt>
<pdfrwt beam="1">  1        1 0.39053072E+00 0.65542571E+03</pdfrwt>
<pdfrwt beam="2">0</pdfrwt>
<totfact> 0.14725750E+00</totfact>
</mgrwt>
</event>
<event>
 6    1  0.1118796E-002  0.6546296E+03  0.7818608E-02  0.9798131E-01
          1   -1    0    0  502    0  0.00000000000E+00  0.00000000000E+00  0.10715393393E+03  0.10715393393E+03  0.00000000000E+00 0.  1.
         13   -1    0    0    0    0 -0.00000000000E+00 -0.00000000000E+00 -0.10000000000E+04  0.10000000000E+04  0.00000000000E+00 0.  1.
    9000005    2    1    2  501    0 -0.70948161822E-03 -0.11621557044E-02 -0.89286498251E+03  0.11071349685E+04  0.65462963695E+03 0.  0.
         13    1    3    3    0    0  0.81062256094E+02 -0.29568867004E+03 -0.25262275973E+03  0.39726708609E+03  0.00000000000E+00 0.  1.
          1    1    3    3  501    0 -0.81062965575E+02  0.29568750789E+03 -0.64024222279E+03  0.70986788246E+03  0.00000000000E+00 0.  1.
         21    1    1    2  502  501  0.70948161821E-03  0.11621557044E-02  0.18916439471E-01  0.18965380362E-01  0.00000000000E+00 0. -1.
<mgrwt>
<rscale>  1 0.65462964E+03</rscale>
<asrwt>0</asrwt>
<pdfrwt beam="1">  1        1 0.38965149E+00 0.65462964E+03</pdfrwt>
<pdfrwt beam="2">0</pdfrwt>
<totfact> 0.14860756E+00</totfact>
</mgrwt>
</event>
<event>
 6    1  0.1118796E-002  0.5882156E+03  0.7818608E-02  0.9930161E-01
          1   -1    0    0  502    0  0.00000000000E+00  0.00000000000E+00  0.89426429575E+02  0.89426429575E+02  0.00000000000E+00 0.  1.
         13   -1    0    0    0    0 -0.00000000000E+00 -0.00000000000E+00 -0.10000000000E+04  0.10000000000E+04  0.00000000000E+00 0.  1.
    9000005    2    1    2  501    0 -0.42475469778E+00 -0.67577077439E-01 -0.91348344058E+03  0.10864849457E+04  0.58821539931E+03 0.  0.
         13    1    3    3    0    0  0.84904732462E+02 -0.20026033335E+03 -0.82221730194E+03  0.85050238466E+03  0.00000000000E+00 0.  1.
          3    1    3    3  501    0 -0.85329487160E+02  0.20019275627E+03 -0.91266138639E+02  0.23598256102E+03  0.00000000000E+00 0.  1.
         21    1    1    2  502  501  0.42475469778E+00  0.67577077439E-01  0.29098701529E+01  0.29414838978E+01  0.00000000000E+00 0. -1.
<mgrwt>
<rscale>  1 0.58821556E+03</rscale>
<asrwt>0</asrwt>
<pdfrwt beam="1">  1        1 0.32518770E+00 0.58821556E+03</pdfrwt>
<pdfrwt beam="2">0</pdfrwt>
<totfact> 0.28782849E+00</totfact>
</mgrwt>
</event>
<event>
 6    1  0.1118796E-002  0.6645362E+03  0.7818608E-02  0.9779879E-01
          1   -1    0    0  502    0  0.00000000000E+00  0.00000000000E+00  0.12428082823E+03  0.12428082823E+03  0.00000000000E+00 0.  1.
         13   -1    0    0    0    0 -0.00000000000E+00 -0.00000000000E+00 -0.10000000000E+04  0.10000000000E+04  0.00000000000E+00 0.  1.
    9000005    2    1    2  501    0 -0.22975076994E+01  0.49568479587E+01 -0.88899826998E+03  0.11099217429E+04  0.66451373376E+03 0.  0.
         13    1    3    3    0    0  0.22084846084E+03 -0.73742729642E+01 -0.85594039465E+03  0.88400360959E+03  0.00000000000E+00 0.  1.
          1    1    3    3  501    0 -0.22314596854E+03  0.12331120923E+02 -0.33057875330E+02  0.22591813327E+03  0.00000000000E+00 0.  1.
         21    1    1    2  502  501  0.22975076994E+01 -0.49568479587E+01  0.13279098216E+02  0.14359085373E+02  0.00000000000E+00 0. -1.
<mgrwt>
<rscale>  1 0.66453619E+03</rscale>
<asrwt>0</asrwt>
<pdfrwt beam="1">  1        1 0.45193124E+00 0.66453619E+03</pdfrwt>
<pdfrwt beam="2">0</pdfrwt>
<totfact> 0.77602011E-01</totfact>
</mgrwt>
</event>
