<event>
 5    1  0.2361924E-004  0.6590652E+03  0.7818608E-02  0.9789916E-01
         13   -1    0    0    0    0  0.00000000000E+00  0.00000000000E+00  0.10000000000E+04  0.10000000000E+04  0.00000000000E+00 0. -1.
          2   -1    0    0  501    0 -0.00000000000E+00 -0.00000000000E+00 -0.10859174101E+03  0.10859174101E+03  0.00000000000E+00 0. -1.
    9000006    2    1    2  501    0  0.00000000000E+00  0.00000000000E+00  0.89140825899E+03  0.11085917410E+04  0.65906521986E+03 0.  0.
         13    1    3    3    0    0  0.18972810959E+03  0.52553448707E+02  0.12018735198E+01  0.19687576041E+03  0.00000000000E+00 0. -1.
          4    1    3    3  501    0 -0.18972810959E+03 -0.52553448707E+02  0.89020638547E+03  0.91171598060E+03  0.00000000000E+00 0. -1.
<mgrwt>
<rscale>  0 0.65906522E+03</rscale>
<asrwt>0</asrwt>
<pdfrwt beam="1">0</pdfrwt>
<pdfrwt beam="2">  1        2 0.39487989E+00 0.65906522E+03</pdfrwt>
<totfact> 0.41595640E+00</totfact>
</mgrwt>
</event>
<event>
 5    1  0.2361924E-004  0.6474058E+03  0.7818608E-02  0.9811659E-01
         13   -1    0    0    0    0  0.00000000000E+00  0.00000000000E+00  0.10000000000E+04  0.10000000000E+04  0.00000000000E+00 0. -1.
          2   -1    0    0  501    0 -0.00000000000E+00 -0.00000000000E+00 -0.10478356132E+03  0.10478356132E+03  0.00000000000E+00 0. -1.
    9000006    2    1    2  501    0  0.00000000000E+00  0.00000000000E+00  0.89521643868E+03  0.11047835613E+04  0.64740578100E+03 0.  0.
         13    1    3    3    0    0  0.13047853113E+02  0.23059108452E+03  0.83464800703E+03  0.86601373567E+03  0.00000000000E+00 0. -1.
          4    1    3    3  501    0 -0.13047853113E+02 -0.23059108452E+03  0.60568431656E+02  0.23876982565E+03  0.00000000000E+00 0. -1.
<mgrwt>
<rscale>  0 0.64740578E+03</rscale>
<asrwt>0</asrwt>
<pdfrwt beam="1">0</pdfrwt>
<pdfrwt beam="2">  1        2 0.38103194E+00 0.64740578E+03</pdfrwt>
<totfact> 0.46866973E+00</totfact>
</mgrwt>
</event>
<event>
 5    1  0.2361924E-004  0.6335599E+03  0.7818608E-02  0.9838126E-01
         13   -1    0    0    0    0  0.00000000000E+00  0.00000000000E+00  0.10000000000E+04  0.10000000000E+04  0.00000000000E+00 0. -1.
          2   -1    0    0  501    0 -0.00000000000E+00 -0.00000000000E+00 -0.10034953996E+03  0.10034953996E+03  0.00000000000E+00 0. -1.
    9000006    2    1    2  501    0  0.00000000000E+00  0.00000000000E+00  0.89965046004E+03  0.11003495400E+04  0.63355991021E+03 0.  0.
         13    1    3    3    0    0 -0.25610936274E+03  0.14883003124E+03  0.25481762782E+03  0.39073572569E+03  0.00000000000E+00 0. -1.
          2    1    3    3  501    0  0.25610936274E+03 -0.14883003124E+03  0.64483283222E+03  0.70961381427E+03  0.00000000000E+00 0. -1.
<mgrwt>
<rscale>  0 0.63355991E+03</rscale>
<asrwt>0</asrwt>
<pdfrwt beam="1">0</pdfrwt>
<pdfrwt beam="2">  1        2 0.36490819E+00 0.63355991E+03</pdfrwt>
<totfact> 0.53766560E+00</totfact>
</mgrwt>
</event>
<event>
 5    1  0.2361924E-004  0.5149490E+03  0.7818608E-02  0.1009949E+00
         13   -1    0    0    0    0  0.00000000000E+00  0.00000000000E+00  0.10000000000E+04  0.10000000000E+04  0.00000000000E+00 0. -1.
          2   -1    0    0  501    0 -0.00000000000E+00 -0.00000000000E+00 -0.66293105434E+02  0.66293105434E+02  0.00000000000E+00 0. -1.
    9000006    2    1    2  501    0  0.00000000000E+00  0.00000000000E+00  0.93370689457E+03  0.10662931054E+04  0.51494895061E+03 0.  0.
         13    1    3    3    0    0 -0.23846712339E+03 -0.59768117287E+02  0.30841877443E+03  0.39441214130E+03  0.00000000000E+00 0. -1.
          2    1    3    3  501    0  0.23846712339E+03  0.59768117287E+02  0.62528812013E+03  0.67188096413E+03  0.00000000000E+00 0. -1.
<mgrwt>
<rscale>  0 0.51494895E+03</rscale>
<asrwt>0</asrwt>
<pdfrwt beam="1">0</pdfrwt>
<pdfrwt beam="2">  1        2 0.24106635E+00 0.51494895E+03</pdfrwt>
<totfact> 0.15012152E+01</totfact>
</mgrwt>
</event>
<event>
 5    1  0.2361924E-004  0.6401026E+03  0.7818608E-02  0.9825530E-01
         13   -1    0    0    0    0  0.00000000000E+00  0.00000000000E+00  0.10000000000E+04  0.10000000000E+04  0.00000000000E+00 0. -1.
          2   -1    0    0  501    0 -0.00000000000E+00 -0.00000000000E+00 -0.10243284318E+03  0.10243284318E+03  0.00000000000E+00 0. -1.
    9000006    2    1    2  501    0  0.00000000000E+00  0.00000000000E+00  0.89756715682E+03  0.11024328432E+04  0.64010262670E+03 0.  0.
         13    1    3    3    0    0  0.16973314935E+03 -0.49280078473E+02 -0.10760532335E+02  0.17706963934E+03  0.00000000000E+00 0. -1.
          4    1    3    3  501    0 -0.16973314935E+03  0.49280078473E+02  0.90832768916E+03  0.92536320383E+03  0.00000000000E+00 0. -1.
<mgrwt>
<rscale>  0 0.64010263E+03</rscale>
<asrwt>0</asrwt>
<pdfrwt beam="1">0</pdfrwt>
<pdfrwt beam="2">  1        2 0.37248385E+00 0.64010263E+03</pdfrwt>
<totfact> 0.50416677E+00</totfact>
</mgrwt>
</event>
<event>
 5    1  0.2361924E-004  0.6375691E+03  0.7818608E-02  0.9830389E-01
         13   -1    0    0    0    0  0.00000000000E+00  0.00000000000E+00  0.10000000000E+04  0.10000000000E+04  0.00000000000E+00 0. -1.
          2   -1    0    0  501    0 -0.00000000000E+00 -0.00000000000E+00 -0.10162360003E+03  0.10162360003E+03  0.00000000000E+00 0. -1.
    9000006    2    1    2  501    0  0.00000000000E+00  0.00000000000E+00  0.89837639997E+03  0.11016236000E+04  0.63756913361E+03 0.  0.
         13    1    3    3    0    0  0.30590453891E+03  0.11879216522E+02  0.60281042971E+03  0.67609105665E+03  0.00000000000E+00 0. -1.
          4    1    3    3  501    0 -0.30590453891E+03 -0.11879216522E+02  0.29556597025E+03  0.42553254338E+03  0.00000000000E+00 0. -1.
<mgrwt>
<rscale>  0 0.63756913E+03</rscale>
<asrwt>0</asrwt>
<pdfrwt beam="1">0</pdfrwt>
<pdfrwt beam="2">  1        2 0.36954114E+00 0.63756913E+03</pdfrwt>
<totfact> 0.51694483E+00</totfact>
</mgrwt>
</event>
<event>
 5    1  0.2361924E-004  0.6616345E+03  0.7818608E-02  0.9785190E-01
         13   -1    0    0    0    0  0.00000000000E+00  0.00000000000E+00  0.10000000000E+04  0.10000000000E+04  0.00000000000E+00 0. -1.
          2   -1    0    0  501    0 -0.00000000000E+00 -0.00000000000E+00 -0.10944005073E+03  0.10944005073E+03  0.00000000000E+00 0. -1.
    9000006    2    1    2  501    0  0.00000000000E+00  0.00000000000E+00  0.89055994927E+03  0.11094400507E+04  0.66163449344E+03 0.  0.
         13    1    3    3    0    0  0.26388547149E+03 -0.19146459916E+03  0.35123137022E+03  0.47922615770E+03  0.00000000000E+00 0. -1.
          2    1    3    3  501    0 -0.26388547149E+03  0.19146459916E+03  0.53932857905E+03  0.63021389303E+03  0.00000000000E+00 0. -1.
<mgrwt>
<rscale>  0 0.66163449E+03</rscale>
<asrwt>0</asrwt>
<pdfrwt beam="1">0</pdfrwt>
<pdfrwt beam="2">  1        2 0.39796466E+00 0.66163449E+03</pdfrwt>
<totfact> 0.40497055E+00</totfact>
</mgrwt>
</event>
<event>
 5    1  0.2361924E-004  0.6408027E+03  0.7818608E-02  0.9824192E-01
         13   -1    0    0    0    0  0.00000000000E+00  0.00000000000E+00  0.10000000000E+04  0.10000000000E+04  0.00000000000E+00 0. -1.
          2   -1    0    0  501    0 -0.00000000000E+00 -0.00000000000E+00 -0.10265702742E+03  0.10265702742E+03  0.00000000000E+00 0. -1.
    9000006    2    1    2  501    0  0.00000000000E+00  0.00000000000E+00  0.89734297258E+03  0.11026570274E+04  0.64080270729E+03 0.  0.
         13    1    3    3    0    0 -0.29477438073E+03 -0.12421563483E+03  0.48019294785E+03  0.57698069867E+03  0.00000000000E+00 0. -1.
          4    1    3    3  501    0  0.29477438073E+03  0.12421563483E+03  0.41715002473E+03  0.52567632875E+03  0.00000000000E+00 0. -1.
<mgrwt>
<rscale>  0 0.64080271E+03</rscale>
<asrwt>0</asrwt>
<pdfrwt beam="1">0</pdfrwt>
<pdfrwt beam="2">  1        2 0.37329907E+00 0.64080271E+03</pdfrwt>
<totfact> 0.50067838E+00</totfact>
</mgrwt>
</event>
<event>
 5    1  0.2361924E-004  0.6469025E+03  0.7818608E-02  0.9812609E-01
         13   -1    0    0    0    0  0.00000000000E+00  0.00000000000E+00  0.10000000000E+04  0.10000000000E+04  0.00000000000E+00 0. -1.
          2   -1    0    0  501    0 -0.00000000000E+00 -0.00000000000E+00 -0.10462070680E+03  0.10462070680E+03  0.00000000000E+00 0. -1.
    9000006    2    1    2  501    0  0.00000000000E+00  0.00000000000E+00  0.89537929320E+03  0.11046207068E+04  0.64690248661E+03 0.  0.
         13    1    3    3    0    0 -0.27139448410E+02 -0.16755316050E+03 -0.22461913490E+02  0.17121667212E+03  0.00000000000E+00 0. -1.
          4    1    3    3  501    0  0.27139448410E+02  0.16755316050E+03  0.91784120669E+03  0.93340403468E+03  0.00000000000E+00 0. -1.
<mgrwt>
<rscale>  0 0.64690249E+03</rscale>
<asrwt>0</asrwt>
<pdfrwt beam="1">0</pdfrwt>
<pdfrwt beam="2">  1        2 0.38043974E+00 0.64690249E+03</pdfrwt>
<totfact> 0.47105335E+00</totfact>
</mgrwt>
</event>
<event>
 5    1  0.2361924E-004  0.6495171E+03  0.7818608E-02  0.9807686E-01
         13   -1    0    0    0    0  0.00000000000E+00  0.00000000000E+00  0.10000000000E+04  0.10000000000E+04  0.00000000000E+00 0. -1.
          2   -1    0    0  501    0 -0.00000000000E+00 -0.00000000000E+00 -0.10546810914E+03  0.10546810914E+03  0.00000000000E+00 0. -1.
    9000006    2    1    2  501    0  0.00000000000E+00  0.00000000000E+00  0.89453189086E+03  0.11054681091E+04  0.64951707948E+03 0.  0.
         13    1    3    3    0    0 -0.17705059350E+03  0.11614712699E+03  0.28179941994E+02  0.21361455217E+03  0.00000000000E+00 0. -1.
          4    1    3    3  501    0  0.17705059350E+03 -0.11614712699E+03  0.86635194887E+03  0.89185355697E+03  0.00000000000E+00 0. -1.
<mgrwt>
<rscale>  0 0.64951708E+03</rscale>
<asrwt>0</asrwt>
<pdfrwt beam="1">0</pdfrwt>
<pdfrwt beam="2">  1        2 0.38352121E+00 0.64951708E+03</pdfrwt>
<totfact> 0.45876977E+00</totfact>
</mgrwt>
</event>
<event>
 5    1  0.2361924E-004  0.6488297E+03  0.7818608E-02  0.9808978E-01
         13   -1    0    0    0    0  0.00000000000E+00  0.00000000000E+00  0.10000000000E+04  0.10000000000E+04  0.00000000000E+00 0. -1.
          2   -1    0    0  501    0 -0.00000000000E+00 -0.00000000000E+00 -0.10524499261E+03  0.10524499261E+03  0.00000000000E+00 0. -1.
    9000006    2    1    2  501    0  0.00000000000E+00  0.00000000000E+00  0.89475500739E+03  0.11052449926E+04  0.64882969294E+03 0.  0.
         13    1    3    3    0    0 -0.21615263453E+03 -0.12068173170E+02  0.35801374971E+02  0.21942958020E+03  0.00000000000E+00 0. -1.
          2    1    3    3  501    0  0.21615263453E+03  0.12068173170E+02  0.85895363242E+03  0.88581541241E+03  0.00000000000E+00 0. -1.
<mgrwt>
<rscale>  0 0.64882969E+03</rscale>
<asrwt>0</asrwt>
<pdfrwt beam="1">0</pdfrwt>
<pdfrwt beam="2">  1        2 0.38270987E+00 0.64882969E+03</pdfrwt>
<totfact> 0.46197542E+00</totfact>
</mgrwt>
</event>
<event>
 5    1  0.2361924E-004  0.6495439E+03  0.7818608E-02  0.9807635E-01
         13   -1    0    0    0    0  0.00000000000E+00  0.00000000000E+00  0.10000000000E+04  0.10000000000E+04  0.00000000000E+00 0. -1.
          2   -1    0    0  501    0 -0.00000000000E+00 -0.00000000000E+00 -0.10547680610E+03  0.10547680610E+03  0.00000000000E+00 0. -1.
    9000006    2    1    2  501    0  0.00000000000E+00  0.00000000000E+00  0.89452319390E+03  0.11054768061E+04  0.64954385872E+03 0.  0.
         13    1    3    3    0    0  0.60043482218E+02  0.26601720026E+03  0.14709229298E+03  0.30984917822E+03  0.00000000000E+00 0. -1.
          4    1    3    3  501    0 -0.60043482218E+02 -0.26601720026E+03  0.74743090092E+03  0.79562762788E+03  0.00000000000E+00 0. -1.
<mgrwt>
<rscale>  0 0.64954386E+03</rscale>
<asrwt>0</asrwt>
<pdfrwt beam="1">0</pdfrwt>
<pdfrwt beam="2">  1        2 0.38355283E+00 0.64954386E+03</pdfrwt>
<totfact> 0.45864522E+00</totfact>
</mgrwt>
</event>
<event>
 5    1  0.2361924E-004  0.6379765E+03  0.7818608E-02  0.9829606E-01
         13   -1    0    0    0    0  0.00000000000E+00  0.00000000000E+00  0.10000000000E+04  0.10000000000E+04  0.00000000000E+00 0. -1.
          2   -1    0    0  501    0 -0.00000000000E+00 -0.00000000000E+00 -0.10175349055E+03  0.10175349055E+03  0.00000000000E+00 0. -1.
    9000006    2    1    2  501    0  0.00000000000E+00  0.00000000000E+00  0.89824650945E+03  0.11017534905E+04  0.63797645896E+03 0.  0.
         13    1    3    3    0    0  0.20641057232E+03  0.86984956651E+02  0.84134165002E+03  0.87064773537E+03  0.00000000000E+00 0. -1.
          2    1    3    3  501    0 -0.20641057232E+03 -0.86984956651E+02  0.56904859431E+02  0.23110575518E+03  0.00000000000E+00 0. -1.
<mgrwt>
<rscale>  0 0.63797646E+03</rscale>
<asrwt>0</asrwt>
<pdfrwt beam="1">0</pdfrwt>
<pdfrwt beam="2">  1        2 0.37001347E+00 0.63797646E+03</pdfrwt>
<totfact> 0.51487405E+00</totfact>
</mgrwt>
</event>
<event>
 5    1  0.2361924E-004  0.6534727E+03  0.7818608E-02  0.9800285E-01
         13   -1    0    0    0    0  0.00000000000E+00  0.00000000000E+00  0.10000000000E+04  0.10000000000E+04  0.00000000000E+00 0. -1.
          2   -1    0    0  501    0 -0.00000000000E+00 -0.00000000000E+00 -0.10675664949E+03  0.10675664949E+03  0.00000000000E+00 0. -1.
    9000006    2    1    2  501    0  0.00000000000E+00  0.00000000000E+00  0.89324335051E+03  0.11067566495E+04  0.65347272165E+03 0.  0.
         13    1    3    3    0    0  0.15070915964E+03  0.18967537806E+03  0.81794018828E+03  0.85306280628E+03  0.00000000000E+00 0. -1.
          4    1    3    3  501    0 -0.15070915964E+03 -0.18967537806E+03  0.75303162231E+02  0.25369384321E+03  0.00000000000E+00 0. -1.
<mgrwt>
<rscale>  0 0.65347272E+03</rscale>
<asrwt>0</asrwt>
<pdfrwt beam="1">0</pdfrwt>
<pdfrwt beam="2">  1        2 0.38820682E+00 0.65347272E+03</pdfrwt>
<totfact> 0.44064789E+00</totfact>
</mgrwt>
</event>
<event>
 5    1  0.2361924E-004  0.6536212E+03  0.7818608E-02  0.9800008E-01
         13   -1    0    0    0    0  0.00000000000E+00  0.00000000000E+00  0.10000000000E+04  0.10000000000E+04  0.00000000000E+00 0. -1.
          2   -1    0    0  501    0 -0.00000000000E+00 -0.00000000000E+00 -0.10680515973E+03  0.10680515973E+03  0.00000000000E+00 0. -1.
    9000006    2    1    2  501    0  0.00000000000E+00  0.00000000000E+00  0.89319484027E+03  0.11068051597E+04  0.65362117386E+03 0.  0.
         13    1    3    3    0    0  0.49217570141E+02 -0.24696416564E+03  0.93863397430E+02  0.26874524311E+03  0.00000000000E+00 0. -1.
          2    1    3    3  501    0 -0.49217570141E+02  0.24696416564E+03  0.79933144284E+03  0.83805991661E+03  0.00000000000E+00 0. -1.
<mgrwt>
<rscale>  0 0.65362117E+03</rscale>
<asrwt>0</asrwt>
<pdfrwt beam="1">0</pdfrwt>
<pdfrwt beam="2">  1        2 0.38838322E+00 0.65362117E+03</pdfrwt>
<totfact> 0.43997849E+00</totfact>
</mgrwt>
</event>
<event>
 5    1  0.2361924E-004  0.6469402E+03  0.7818608E-02  0.9812538E-01
         13   -1    0    0    0    0  0.00000000000E+00  0.00000000000E+00  0.10000000000E+04  0.10000000000E+04  0.00000000000E+00 0. -1.
          2   -1    0    0  501    0 -0.00000000000E+00 -0.00000000000E+00 -0.10463291842E+03  0.10463291842E+03  0.00000000000E+00 0. -1.
    9000006    2    1    2  501    0  0.00000000000E+00  0.00000000000E+00  0.89536708158E+03  0.11046329184E+04  0.64694023966E+03 0.  0.
         13    1    3    3    0    0 -0.10163583985E+03 -0.12477570406E+03  0.92679355095E+03  0.94066205746E+03  0.00000000000E+00 0. -1.
          2    1    3    3  501    0  0.10163583985E+03  0.12477570406E+03 -0.31426469372E+02  0.16397086096E+03  0.00000000000E+00 0. -1.
<mgrwt>
<rscale>  0 0.64694024E+03</rscale>
<asrwt>0</asrwt>
<pdfrwt beam="1">0</pdfrwt>
<pdfrwt beam="2">  1        2 0.38048414E+00 0.64694024E+03</pdfrwt>
<totfact> 0.47087423E+00</totfact>
</mgrwt>
</event>
<event>
 5    1  0.2361924E-004  0.6486165E+03  0.7818608E-02  0.9809379E-01
         13   -1    0    0    0    0  0.00000000000E+00  0.00000000000E+00  0.10000000000E+04  0.10000000000E+04  0.00000000000E+00 0. -1.
          4   -1    0    0  501    0 -0.00000000000E+00 -0.00000000000E+00 -0.10517584680E+03  0.10517584680E+03  0.00000000000E+00 0. -1.
    9000006    2    1    2  501    0  0.00000000000E+00  0.00000000000E+00  0.89482415320E+03  0.11051758468E+04  0.64861651782E+03 0.  0.
         13    1    3    3    0    0  0.29499228716E+03 -0.16144027466E+01  0.67698205038E+03  0.73846310153E+03  0.00000000000E+00 0. -1.
          4    1    3    3  501    0 -0.29499228716E+03  0.16144027466E+01  0.21784210282E+03  0.36671274527E+03  0.00000000000E+00 0. -1.
<mgrwt>
<rscale>  0 0.64861652E+03</rscale>
<asrwt>0</asrwt>
<pdfrwt beam="1">0</pdfrwt>
<pdfrwt beam="2">  1        4 0.38245843E+00 0.64861652E+03</pdfrwt>
<totfact> 0.42232538E-02</totfact>
</mgrwt>
</event>
<event>
 5    1  0.2361924E-004  0.6505192E+03  0.7818608E-02  0.9805805E-01
         13   -1    0    0    0    0  0.00000000000E+00  0.00000000000E+00  0.10000000000E+04  0.10000000000E+04  0.00000000000E+00 0. -1.
          2   -1    0    0  501    0 -0.00000000000E+00 -0.00000000000E+00 -0.10579381443E+03  0.10579381443E+03  0.00000000000E+00 0. -1.
    9000006    2    1    2  501    0  0.00000000000E+00  0.00000000000E+00  0.89420618557E+03  0.11057938144E+04  0.65051922165E+03 0.  0.
         13    1    3    3    0    0 -0.25949025821E+03  0.14429929476E+03  0.22135807283E+03  0.37034696837E+03  0.00000000000E+00 0. -1.
          2    1    3    3  501    0  0.25949025821E+03 -0.14429929476E+03  0.67284811273E+03  0.73544684606E+03  0.00000000000E+00 0. -1.
<mgrwt>
<rscale>  0 0.65051922E+03</rscale>
<asrwt>0</asrwt>
<pdfrwt beam="1">0</pdfrwt>
<pdfrwt beam="2">  1        2 0.38470559E+00 0.65051922E+03</pdfrwt>
<totfact> 0.45412640E+00</totfact>
</mgrwt>
</event>
<event>
 5    1  0.2361924E-004  0.6541834E+03  0.7818608E-02  0.9798961E-01
         13   -1    0    0    0    0  0.00000000000E+00  0.00000000000E+00  0.10000000000E+04  0.10000000000E+04  0.00000000000E+00 0. -1.
          2   -1    0    0  501    0 -0.00000000000E+00 -0.00000000000E+00 -0.10698898704E+03  0.10698898704E+03  0.00000000000E+00 0. -1.
    9000006    2    1    2  501    0  0.00000000000E+00  0.00000000000E+00  0.89301101296E+03  0.11069889870E+04  0.65418342087E+03 0.  0.
         13    1    3    3    0    0  0.32152381061E+03  0.58331980269E+02  0.47095757443E+03  0.57322004293E+03  0.00000000000E+00 0. -1.
          2    1    3    3  501    0 -0.32152381061E+03 -0.58331980269E+02  0.42205343854E+03  0.53376894410E+03  0.00000000000E+00 0. -1.
<mgrwt>
<rscale>  0 0.65418342E+03</rscale>
<asrwt>0</asrwt>
<pdfrwt beam="1">0</pdfrwt>
<pdfrwt beam="2">  1        2 0.38905168E+00 0.65418342E+03</pdfrwt>
<totfact> 0.43745018E+00</totfact>
</mgrwt>
</event>
<event>
 5    1  0.2361924E-004  0.6474260E+03  0.7818608E-02  0.9811621E-01
         13   -1    0    0    0    0  0.00000000000E+00  0.00000000000E+00  0.10000000000E+04  0.10000000000E+04  0.00000000000E+00 0. -1.
          2   -1    0    0  501    0 -0.00000000000E+00 -0.00000000000E+00 -0.10479010185E+03  0.10479010185E+03  0.00000000000E+00 0. -1.
    9000006    2    1    2  501    0  0.00000000000E+00  0.00000000000E+00  0.89520989815E+03  0.11047901019E+04  0.64742598604E+03 0.  0.
         13    1    3    3    0    0 -0.12206054357E+03  0.28579431999E+03  0.60225097602E+03  0.67770451360E+03  0.00000000000E+00 0. -1.
          4    1    3    3  501    0  0.12206054357E+03 -0.28579431999E+03  0.29295892213E+03  0.42708558825E+03  0.00000000000E+00 0. -1.
<mgrwt>
<rscale>  0 0.64742599E+03</rscale>
<asrwt>0</asrwt>
<pdfrwt beam="1">0</pdfrwt>
<pdfrwt beam="2">  1        2 0.38105572E+00 0.64742599E+03</pdfrwt>
<totfact> 0.46857423E+00</totfact>
</mgrwt>
</event>
<event>
 5    1  0.2361924E-004  0.6720092E+03  0.7818608E-02  0.9766335E-01
         13   -1    0    0    0    0  0.00000000000E+00  0.00000000000E+00  0.10000000000E+04  0.10000000000E+04  0.00000000000E+00 0. -1.
          2   -1    0    0  501    0 -0.00000000000E+00 -0.00000000000E+00 -0.11289910027E+03  0.11289910027E+03  0.00000000000E+00 0. -1.
    9000006    2    1    2  501    0  0.00000000000E+00  0.00000000000E+00  0.88710089973E+03  0.11128991003E+04  0.67200922693E+03 0.  0.
         13    1    3    3    0    0  0.33009059123E+02 -0.32566718901E+03  0.31796798887E+03  0.45634675186E+03  0.00000000000E+00 0. -1.
          2    1    3    3  501    0 -0.33009059123E+02  0.32566718901E+03  0.56913291086E+03  0.65655234841E+03  0.00000000000E+00 0. -1.
<mgrwt>
<rscale>  0 0.67200923E+03</rscale>
<asrwt>0</asrwt>
<pdfrwt beam="1">0</pdfrwt>
<pdfrwt beam="2">  1        2 0.41054305E+00 0.67200923E+03</pdfrwt>
<totfact> 0.36281940E+00</totfact>
</mgrwt>
</event>
<event>
 5    1  0.2361924E-004  0.6560854E+03  0.7818608E-02  0.9795427E-01
         13   -1    0    0    0    0  0.00000000000E+00  0.00000000000E+00  0.10000000000E+04  0.10000000000E+04  0.00000000000E+00 0. -1.
          2   -1    0    0  501    0 -0.00000000000E+00 -0.00000000000E+00 -0.10761202620E+03  0.10761202620E+03  0.00000000000E+00 0. -1.
    9000006    2    1    2  501    0  0.00000000000E+00  0.00000000000E+00  0.89238797380E+03  0.11076120262E+04  0.65608544016E+03 0.  0.
         13    1    3    3    0    0  0.23701244147E+03  0.71360617827E+01  0.82888700313E+03  0.86213658126E+03  0.00000000000E+00 0. -1.
          2    1    3    3  501    0 -0.23701244147E+03 -0.71360617827E+01  0.63500970674E+02  0.24547544494E+03  0.00000000000E+00 0. -1.
<mgrwt>
<rscale>  0 0.65608544E+03</rscale>
<asrwt>0</asrwt>
<pdfrwt beam="1">0</pdfrwt>
<pdfrwt beam="2">  1        2 0.39131728E+00 0.65608544E+03</pdfrwt>
<totfact> 0.42897845E+00</totfact>
</mgrwt>
</event>
<event>
 5    1  0.2361924E-004  0.6547303E+03  0.7818608E-02  0.9797943E-01
         13   -1    0    0    0    0  0.00000000000E+00  0.00000000000E+00  0.10000000000E+04  0.10000000000E+04  0.00000000000E+00 0. -1.
          2   -1    0    0  501    0 -0.00000000000E+00 -0.00000000000E+00 -0.10716793669E+03  0.10716793669E+03  0.00000000000E+00 0. -1.
    9000006    2    1    2  501    0  0.00000000000E+00  0.00000000000E+00  0.89283206331E+03  0.11071679367E+04  0.65473028551E+03 0.  0.
         13    1    3    3    0    0  0.24304240241E+03 -0.21803643647E+03  0.48637729498E+03  0.58580915840E+03  0.00000000000E+00 0. -1.
          2    1    3    3  501    0 -0.24304240241E+03  0.21803643647E+03  0.40645476833E+03  0.52135877829E+03  0.00000000000E+00 0. -1.
<mgrwt>
<rscale>  0 0.65473029E+03</rscale>
<asrwt>0</asrwt>
<pdfrwt beam="1">0</pdfrwt>
<pdfrwt beam="2">  1        2 0.38970241E+00 0.65473029E+03</pdfrwt>
<totfact> 0.43500158E+00</totfact>
</mgrwt>
</event>
<event>
 5    1  0.2361924E-004  0.6566112E+03  0.7818608E-02  0.9794452E-01
         13   -1    0    0    0    0  0.00000000000E+00  0.00000000000E+00  0.10000000000E+04  0.10000000000E+04  0.00000000000E+00 0. -1.
          2   -1    0    0  501    0 -0.00000000000E+00 -0.00000000000E+00 -0.10778457390E+03  0.10778457390E+03  0.00000000000E+00 0. -1.
    9000006    2    1    2  501    0  0.00000000000E+00  0.00000000000E+00  0.89221542610E+03  0.11077845739E+04  0.65661122104E+03 0.  0.
         13    1    3    3    0    0  0.24290794380E+03  0.21984514000E+03  0.48183409961E+03  0.58266650349E+03  0.00000000000E+00 0. -1.
          2    1    3    3  501    0 -0.24290794380E+03 -0.21984514000E+03  0.41038132649E+03  0.52511807041E+03  0.00000000000E+00 0. -1.
<mgrwt>
<rscale>  0 0.65661122E+03</rscale>
<asrwt>0</asrwt>
<pdfrwt beam="1">0</pdfrwt>
<pdfrwt beam="2">  1        2 0.39194473E+00 0.65661122E+03</pdfrwt>
<totfact> 0.42665860E+00</totfact>
</mgrwt>
</event>
<event>
 5    1  0.2361924E-004  0.7580664E+03  0.7818608E-02  0.9622780E-01
         13   -1    0    0    0    0  0.00000000000E+00  0.00000000000E+00  0.10000000000E+04  0.10000000000E+04  0.00000000000E+00 0. -1.
          2   -1    0    0  501    0 -0.00000000000E+00 -0.00000000000E+00 -0.14366618232E+03  0.14366618232E+03  0.00000000000E+00 0. -1.
    9000006    2    1    2  501    0  0.00000000000E+00  0.00000000000E+00  0.85633381768E+03  0.11436661823E+04  0.75806644120E+03 0.  0.
         13    1    3    3    0    0  0.31418894397E+03 -0.20759546513E+03  0.49315528288E+03  0.62049391834E+03  0.00000000000E+00 0. -1.
          4    1    3    3  501    0 -0.31418894397E+03  0.20759546513E+03  0.36317853480E+03  0.52317226398E+03  0.00000000000E+00 0. -1.
<mgrwt>
<rscale>  0 0.75806644E+03</rscale>
<asrwt>0</asrwt>
<pdfrwt beam="1">0</pdfrwt>
<pdfrwt beam="2">  1        2 0.52242358E+00 0.75806644E+03</pdfrwt>
<totfact> 0.12710937E+00</totfact>
</mgrwt>
</event>
<event>
 5    1  0.2361924E-004  0.6376315E+03  0.7818608E-02  0.9830269E-01
         13   -1    0    0    0    0  0.00000000000E+00  0.00000000000E+00  0.10000000000E+04  0.10000000000E+04  0.00000000000E+00 0. -1.
          2   -1    0    0  501    0 -0.00000000000E+00 -0.00000000000E+00 -0.10164348668E+03  0.10164348668E+03  0.00000000000E+00 0. -1.
    9000006    2    1    2  501    0  0.00000000000E+00  0.00000000000E+00  0.89835651332E+03  0.11016434867E+04  0.63763151329E+03 0.  0.
         13    1    3    3    0    0 -0.24129450265E+03  0.10828255183E+03  0.75676597917E+03  0.80165010776E+03  0.00000000000E+00 0. -1.
          4    1    3    3  501    0  0.24129450265E+03 -0.10828255183E+03  0.14159053415E+03  0.29999337893E+03  0.00000000000E+00 0. -1.
<mgrwt>
<rscale>  0 0.63763151E+03</rscale>
<asrwt>0</asrwt>
<pdfrwt beam="1">0</pdfrwt>
<pdfrwt beam="2">  1        2 0.36961346E+00 0.63763151E+03</pdfrwt>
<totfact> 0.51662729E+00</totfact>
</mgrwt>
</event>
<event>
 5    1  0.2361924E-004  0.5462943E+03  0.7818608E-02  0.1002355E+00
         13   -1    0    0    0    0  0.00000000000E+00  0.00000000000E+00  0.10000000000E+04  0.10000000000E+04  0.00000000000E+00 0. -1.
          2   -1    0    0  501    0 -0.00000000000E+00 -0.00000000000E+00 -0.74609355683E+02  0.74609355683E+02  0.00000000000E+00 0. -1.
    9000006    2    1    2  501    0  0.00000000000E+00  0.00000000000E+00  0.92539064432E+03  0.10746093557E+04  0.54629426387E+03 0.  0.
         13    1    3    3    0    0  0.10542813536E+03 -0.21098866642E+03  0.73368311718E+03  0.77066349694E+03  0.00000000000E+00 0. -1.
          4    1    3    3  501    0 -0.10542813536E+03  0.21098866642E+03  0.19170752714E+03  0.30394585874E+03  0.00000000000E+00 0. -1.
<mgrwt>
<rscale>  0 0.54629426E+03</rscale>
<asrwt>0</asrwt>
<pdfrwt beam="1">0</pdfrwt>
<pdfrwt beam="2">  1        2 0.27130732E+00 0.54629426E+03</pdfrwt>
<totfact> 0.11691788E+01</totfact>
</mgrwt>
</event>
<event>
 5    1  0.2361924E-004  0.6520121E+03  0.7818608E-02  0.9803011E-01
         13   -1    0    0    0    0  0.00000000000E+00  0.00000000000E+00  0.10000000000E+04  0.10000000000E+04  0.00000000000E+00 0. -1.
          2   -1    0    0  501    0 -0.00000000000E+00 -0.00000000000E+00 -0.10627994513E+03  0.10627994513E+03  0.00000000000E+00 0. -1.
    9000006    2    1    2  501    0  0.00000000000E+00  0.00000000000E+00  0.89372005487E+03  0.11062799451E+04  0.65201210150E+03 0.  0.
         13    1    3    3    0    0 -0.27888958155E+03 -0.12521590801E+03  0.63898295144E+03  0.70834852619E+03  0.00000000000E+00 0. -1.
          4    1    3    3  501    0  0.27888958155E+03  0.12521590801E+03  0.25473710343E+03  0.39793141894E+03  0.00000000000E+00 0. -1.
<mgrwt>
<rscale>  0 0.65201210E+03</rscale>
<asrwt>0</asrwt>
<pdfrwt beam="1">0</pdfrwt>
<pdfrwt beam="2">  1        2 0.38647334E+00 0.65201210E+03</pdfrwt>
<totfact> 0.44727519E+00</totfact>
</mgrwt>
</event>
<event>
 5    1  0.2361924E-004  0.6335908E+03  0.7818608E-02  0.9838067E-01
         13   -1    0    0    0    0  0.00000000000E+00  0.00000000000E+00  0.10000000000E+04  0.10000000000E+04  0.00000000000E+00 0. -1.
          2   -1    0    0  501    0 -0.00000000000E+00 -0.00000000000E+00 -0.10035932182E+03  0.10035932182E+03  0.00000000000E+00 0. -1.
    9000006    2    1    2  501    0  0.00000000000E+00  0.00000000000E+00  0.89964067818E+03  0.11003593218E+04  0.63359078849E+03 0.  0.
         13    1    3    3    0    0  0.17647944689E+03  0.22094320807E+03  0.69786163699E+03  0.75297527234E+03  0.00000000000E+00 0. -1.
          4    1    3    3  501    0 -0.17647944689E+03 -0.22094320807E+03  0.20177904119E+03  0.34738404948E+03  0.00000000000E+00 0. -1.
<mgrwt>
<rscale>  0 0.63359079E+03</rscale>
<asrwt>0</asrwt>
<pdfrwt beam="1">0</pdfrwt>
<pdfrwt beam="2">  1        2 0.36494376E+00 0.63359079E+03</pdfrwt>
<totfact> 0.53750364E+00</totfact>
</mgrwt>
</event>
<event>
 5    1  0.2361924E-004  0.6298416E+03  0.7818608E-02  0.9845358E-01
         13   -1    0    0    0    0  0.00000000000E+00  0.00000000000E+00  0.10000000000E+04  0.10000000000E+04  0.00000000000E+00 0. -1.
          2   -1    0    0  501    0 -0.00000000000E+00 -0.00000000000E+00 -0.99175114280E+02  0.99175114280E+02  0.00000000000E+00 0. -1.
    9000006    2    1    2  501    0  0.00000000000E+00  0.00000000000E+00  0.90082488572E+03  0.10991751143E+04  0.62984161272E+03 0.  0.
         13    1    3    3    0    0 -0.24100984634E+03  0.15646586387E+03  0.67531355963E+03  0.73390443275E+03  0.00000000000E+00 0. -1.
          4    1    3    3  501    0  0.24100984634E+03 -0.15646586387E+03  0.22551132609E+03  0.36527068153E+03  0.00000000000E+00 0. -1.
<mgrwt>
<rscale>  0 0.62984161E+03</rscale>
<asrwt>0</asrwt>
<pdfrwt beam="1">0</pdfrwt>
<pdfrwt beam="2">  1        2 0.36063754E+00 0.62984161E+03</pdfrwt>
<totfact> 0.55744007E+00</totfact>
</mgrwt>
</event>
<event>
 5    1  0.2361924E-004  0.6467564E+03  0.7818608E-02  0.9812885E-01
         13   -1    0    0    0    0  0.00000000000E+00  0.00000000000E+00  0.10000000000E+04  0.10000000000E+04  0.00000000000E+00 0. -1.
          2   -1    0    0  501    0 -0.00000000000E+00 -0.00000000000E+00 -0.10457344562E+03  0.10457344562E+03  0.00000000000E+00 0. -1.
    9000006    2    1    2  501    0  0.00000000000E+00  0.00000000000E+00  0.89542655438E+03  0.11045734456E+04  0.64675635481E+03 0.  0.
         13    1    3    3    0    0  0.12882520557E+03  0.23763903589E+03  0.14457203999E+03  0.30654415622E+03  0.00000000000E+00 0. -1.
          4    1    3    3  501    0 -0.12882520557E+03 -0.23763903589E+03  0.75085451439E+03  0.79802928940E+03  0.00000000000E+00 0. -1.
<mgrwt>
<rscale>  0 0.64675635E+03</rscale>
<asrwt>0</asrwt>
<pdfrwt beam="1">0</pdfrwt>
<pdfrwt beam="2">  1        2 0.38026788E+00 0.64675635E+03</pdfrwt>
<totfact> 0.47174715E+00</totfact>
</mgrwt>
</event>
<event>
 5    1  0.2361924E-004  0.6541378E+03  0.7818608E-02  0.9799046E-01
         13   -1    0    0    0    0  0.00000000000E+00  0.00000000000E+00  0.10000000000E+04  0.10000000000E+04  0.00000000000E+00 0. -1.
          2   -1    0    0  501    0 -0.00000000000E+00 -0.00000000000E+00 -0.10697407006E+03  0.10697407006E+03  0.00000000000E+00 0. -1.
    9000006    2    1    2  501    0  0.00000000000E+00  0.00000000000E+00  0.89302592994E+03  0.11069740701E+04  0.65413781442E+03 0.  0.
         13    1    3    3    0    0 -0.18356234272E+03  0.16392917528E+03  0.81963875513E+02  0.25939542221E+03  0.00000000000E+00 0. -1.
          2    1    3    3  501    0  0.18356234272E+03 -0.16392917528E+03  0.81106205442E+03  0.84757864785E+03  0.00000000000E+00 0. -1.
<mgrwt>
<rscale>  0 0.65413781E+03</rscale>
<asrwt>0</asrwt>
<pdfrwt beam="1">0</pdfrwt>
<pdfrwt beam="2">  1        2 0.38899744E+00 0.65413781E+03</pdfrwt>
<totfact> 0.43765485E+00</totfact>
</mgrwt>
</event>
<event>
 5    1  0.2361924E-004  0.6512215E+03  0.7818608E-02  0.9804490E-01
         13   -1    0    0    0    0  0.00000000000E+00  0.00000000000E+00  0.10000000000E+04  0.10000000000E+04  0.00000000000E+00 0. -1.
          2   -1    0    0  501    0 -0.00000000000E+00 -0.00000000000E+00 -0.10602235859E+03  0.10602235859E+03  0.00000000000E+00 0. -1.
    9000006    2    1    2  501    0  0.00000000000E+00  0.00000000000E+00  0.89397764141E+03  0.11060223586E+04  0.65122149409E+03 0.  0.
         13    1    3    3    0    0 -0.12624905422E+03 -0.28397031834E+03  0.28193628150E+03  0.41960223095E+03  0.00000000000E+00 0. -1.
          2    1    3    3  501    0  0.12624905422E+03  0.28397031834E+03  0.61204135990E+03  0.68642012764E+03  0.00000000000E+00 0. -1.
<mgrwt>
<rscale>  0 0.65122149E+03</rscale>
<asrwt>0</asrwt>
<pdfrwt beam="1">0</pdfrwt>
<pdfrwt beam="2">  1        2 0.38553666E+00 0.65122149E+03</pdfrwt>
<totfact> 0.45089369E+00</totfact>
</mgrwt>
</event>
<event>
 5    1  0.2361924E-004  0.6465191E+03  0.7818608E-02  0.9813333E-01
         13   -1    0    0    0    0  0.00000000000E+00  0.00000000000E+00  0.10000000000E+04  0.10000000000E+04  0.00000000000E+00 0. -1.
          4   -1    0    0  501    0 -0.00000000000E+00 -0.00000000000E+00 -0.10449673390E+03  0.10449673390E+03  0.00000000000E+00 0. -1.
    9000006    2    1    2  501    0  0.00000000000E+00  0.00000000000E+00  0.89550326610E+03  0.11044967339E+04  0.64651909143E+03 0.  0.
         13    1    3    3    0    0  0.98670270753E+02  0.20651171366E+03  0.83774709334E+03  0.86844867586E+03  0.00000000000E+00 0. -1.
          4    1    3    3  501    0 -0.98670270753E+02 -0.20651171366E+03  0.57756172768E+02  0.23604805804E+03  0.00000000000E+00 0. -1.
<mgrwt>
<rscale>  0 0.64651909E+03</rscale>
<asrwt>0</asrwt>
<pdfrwt beam="1">0</pdfrwt>
<pdfrwt beam="2">  1        4 0.37998892E+00 0.64651909E+03</pdfrwt>
<totfact> 0.43881216E-02</totfact>
</mgrwt>
</event>
<event>
 5    1  0.2361924E-004  0.6546013E+03  0.7818608E-02  0.9798183E-01
         13   -1    0    0    0    0  0.00000000000E+00  0.00000000000E+00  0.10000000000E+04  0.10000000000E+04  0.00000000000E+00 0. -1.
          2   -1    0    0  501    0 -0.00000000000E+00 -0.00000000000E+00 -0.10712570795E+03  0.10712570795E+03  0.00000000000E+00 0. -1.
    9000006    2    1    2  501    0  0.00000000000E+00  0.00000000000E+00  0.89287429205E+03  0.11071257079E+04  0.65460127696E+03 0.  0.
         13    1    3    3    0    0  0.11241957214E+02  0.32523344453E+02 -0.10405771082E+03  0.10959998503E+03  0.00000000000E+00 0. -1.
          4    1    3    3  501    0 -0.11241957214E+02 -0.32523344453E+02  0.99693200287E+03  0.99752572292E+03  0.00000000000E+00 0. -1.
<mgrwt>
<rscale>  0 0.65460128E+03</rscale>
<asrwt>0</asrwt>
<pdfrwt beam="1">0</pdfrwt>
<pdfrwt beam="2">  1        2 0.38954885E+00 0.65460128E+03</pdfrwt>
<totfact> 0.43557828E+00</totfact>
</mgrwt>
</event>
<event>
 5    1  0.2361924E-004  0.6383017E+03  0.7818608E-02  0.9828981E-01
         13   -1    0    0    0    0  0.00000000000E+00  0.00000000000E+00  0.10000000000E+04  0.10000000000E+04  0.00000000000E+00 0. -1.
          2   -1    0    0  501    0 -0.00000000000E+00 -0.00000000000E+00 -0.10185727119E+03  0.10185727119E+03  0.00000000000E+00 0. -1.
    9000006    2    1    2  501    0  0.00000000000E+00  0.00000000000E+00  0.89814272881E+03  0.11018572712E+04  0.63830171922E+03 0.  0.
         13    1    3    3    0    0 -0.20065740778E+03 -0.10430866459E+03  0.83781335628E+03  0.86779888959E+03  0.00000000000E+00 0. -1.
          4    1    3    3  501    0  0.20065740778E+03  0.10430866459E+03  0.60329372528E+02  0.23405838160E+03  0.00000000000E+00 0. -1.
<mgrwt>
<rscale>  0 0.63830172E+03</rscale>
<asrwt>0</asrwt>
<pdfrwt beam="1">0</pdfrwt>
<pdfrwt beam="2">  1        2 0.37039086E+00 0.63830172E+03</pdfrwt>
<totfact> 0.51322500E+00</totfact>
</mgrwt>
</event>
<event>
 5    1  0.2361924E-004  0.6484807E+03  0.7818608E-02  0.9809634E-01
         13   -1    0    0    0    0  0.00000000000E+00  0.00000000000E+00  0.10000000000E+04  0.10000000000E+04  0.00000000000E+00 0. -1.
          2   -1    0    0  501    0 -0.00000000000E+00 -0.00000000000E+00 -0.10513181779E+03  0.10513181779E+03  0.00000000000E+00 0. -1.
    9000006    2    1    2  501    0  0.00000000000E+00  0.00000000000E+00  0.89486818221E+03  0.11051318178E+04  0.64848074079E+03 0.  0.
         13    1    3    3    0    0  0.24241342528E+03  0.14598077221E+03  0.17767073814E+03  0.33412803804E+03  0.00000000000E+00 0. -1.
          2    1    3    3  501    0 -0.24241342528E+03 -0.14598077221E+03  0.71719744407E+03  0.77100377975E+03  0.00000000000E+00 0. -1.
<mgrwt>
<rscale>  0 0.64848074E+03</rscale>
<asrwt>0</asrwt>
<pdfrwt beam="1">0</pdfrwt>
<pdfrwt beam="2">  1        2 0.38229833E+00 0.64848074E+03</pdfrwt>
<totfact> 0.46360923E+00</totfact>
</mgrwt>
</event>
<event>
 5    1  0.2361924E-004  0.6573629E+03  0.7818608E-02  0.9793060E-01
         13   -1    0    0    0    0  0.00000000000E+00  0.00000000000E+00  0.10000000000E+04  0.10000000000E+04  0.00000000000E+00 0. -1.
          2   -1    0    0  501    0 -0.00000000000E+00 -0.00000000000E+00 -0.10803150115E+03  0.10803150115E+03  0.00000000000E+00 0. -1.
    9000006    2    1    2  501    0  0.00000000000E+00  0.00000000000E+00  0.89196849885E+03  0.11080315011E+04  0.65736291695E+03 0.  0.
         13    1    3    3    0    0  0.31835473132E+03  0.55223722741E+02  0.54756845814E+03  0.63579132650E+03  0.00000000000E+00 0. -1.
          4    1    3    3  501    0 -0.31835473132E+03 -0.55223722741E+02  0.34440004071E+03  0.47224017464E+03  0.00000000000E+00 0. -1.
<mgrwt>
<rscale>  0 0.65736292E+03</rscale>
<asrwt>0</asrwt>
<pdfrwt beam="1">0</pdfrwt>
<pdfrwt beam="2">  1        2 0.39284265E+00 0.65736292E+03</pdfrwt>
<totfact> 0.42335844E+00</totfact>
</mgrwt>
</event>
<event>
 5    1  0.2361924E-004  0.6440339E+03  0.7818608E-02  0.9818039E-01
         13   -1    0    0    0    0  0.00000000000E+00  0.00000000000E+00  0.10000000000E+04  0.10000000000E+04  0.00000000000E+00 0. -1.
          2   -1    0    0  501    0 -0.00000000000E+00 -0.00000000000E+00 -0.10369491449E+03  0.10369491449E+03  0.00000000000E+00 0. -1.
    9000006    2    1    2  501    0  0.00000000000E+00  0.00000000000E+00  0.89630508551E+03  0.11036949145E+04  0.64403389503E+03 0.  0.
         13    1    3    3    0    0  0.11818663652E+03  0.28394097919E+03  0.61167028401E+03  0.68463939198E+03  0.00000000000E+00 0. -1.
          2    1    3    3  501    0 -0.11818663652E+03 -0.28394097919E+03  0.28463480150E+03  0.41905552250E+03  0.00000000000E+00 0. -1.
<mgrwt>
<rscale>  0 0.64403390E+03</rscale>
<asrwt>0</asrwt>
<pdfrwt beam="1">0</pdfrwt>
<pdfrwt beam="2">  1        2 0.37707321E+00 0.64403390E+03</pdfrwt>
<totfact> 0.48481468E+00</totfact>
</mgrwt>
</event>
<event>
 5    1  0.2361924E-004  0.6917701E+03  0.7818608E-02  0.9731411E-01
         13   -1    0    0    0    0  0.00000000000E+00  0.00000000000E+00  0.10000000000E+04  0.10000000000E+04  0.00000000000E+00 0. -1.
          2   -1    0    0  501    0 -0.00000000000E+00 -0.00000000000E+00 -0.11963645766E+03  0.11963645766E+03  0.00000000000E+00 0. -1.
    9000006    2    1    2  501    0  0.00000000000E+00  0.00000000000E+00  0.88036354234E+03  0.11196364577E+04  0.69177007065E+03 0.  0.
         13    1    3    3    0    0 -0.19010971283E+03 -0.12609199709E+03  0.19383101625E+02  0.22894671710E+03  0.00000000000E+00 0. -1.
          4    1    3    3  501    0  0.19010971283E+03  0.12609199709E+03  0.86098044071E+03  0.89068974056E+03  0.00000000000E+00 0. -1.
<mgrwt>
<rscale>  0 0.69177007E+03</rscale>
<asrwt>0</asrwt>
<pdfrwt beam="1">0</pdfrwt>
<pdfrwt beam="2">  1        2 0.43504258E+00 0.69177007E+03</pdfrwt>
<totfact> 0.29176867E+00</totfact>
</mgrwt>
</event>
<event>
 5    1  0.2361924E-004  0.6561410E+03  0.7818608E-02  0.9795324E-01
         13   -1    0    0    0    0  0.00000000000E+00  0.00000000000E+00  0.10000000000E+04  0.10000000000E+04  0.00000000000E+00 0. -1.
          2   -1    0    0  501    0 -0.00000000000E+00 -0.00000000000E+00 -0.10763026584E+03  0.10763026584E+03  0.00000000000E+00 0. -1.
    9000006    2    1    2  501    0  0.00000000000E+00  0.00000000000E+00  0.89236973416E+03  0.11076302658E+04  0.65614103922E+03 0.  0.
         13    1    3    3    0    0  0.52653955248E+02  0.12884108331E+03 -0.55318861265E+02  0.14977529891E+03  0.00000000000E+00 0. -1.
          4    1    3    3  501    0 -0.52653955248E+02 -0.12884108331E+03  0.94768859543E+03  0.95785496692E+03  0.00000000000E+00 0. -1.
<mgrwt>
<rscale>  0 0.65614104E+03</rscale>
<asrwt>0</asrwt>
<pdfrwt beam="1">0</pdfrwt>
<pdfrwt beam="2">  1        2 0.39138361E+00 0.65614104E+03</pdfrwt>
<totfact> 0.42873269E+00</totfact>
</mgrwt>
</event>
<event>
 5    1  0.2361924E-004  0.6410696E+03  0.7818608E-02  0.9823682E-01
         13   -1    0    0    0    0  0.00000000000E+00  0.00000000000E+00  0.10000000000E+04  0.10000000000E+04  0.00000000000E+00 0. -1.
          2   -1    0    0  501    0 -0.00000000000E+00 -0.00000000000E+00 -0.10274254241E+03  0.10274254241E+03  0.00000000000E+00 0. -1.
    9000006    2    1    2  501    0  0.00000000000E+00  0.00000000000E+00  0.89725745759E+03  0.11027425424E+04  0.64106955134E+03 0.  0.
         13    1    3    3    0    0  0.31323409702E+03  0.67535669758E+02  0.46259026477E+03  0.56273121407E+03  0.00000000000E+00 0. -1.
          2    1    3    3  501    0 -0.31323409702E+03 -0.67535669758E+02  0.43466719282E+03  0.54001132834E+03  0.00000000000E+00 0. -1.
<mgrwt>
<rscale>  0 0.64106955E+03</rscale>
<asrwt>0</asrwt>
<pdfrwt beam="1">0</pdfrwt>
<pdfrwt beam="2">  1        2 0.37361003E+00 0.64106955E+03</pdfrwt>
<totfact> 0.49935356E+00</totfact>
</mgrwt>
</event>
<event>
 5    1  0.2361924E-004  0.6484931E+03  0.7818608E-02  0.9809611E-01
         13   -1    0    0    0    0  0.00000000000E+00  0.00000000000E+00  0.10000000000E+04  0.10000000000E+04  0.00000000000E+00 0. -1.
          2   -1    0    0  501    0 -0.00000000000E+00 -0.00000000000E+00 -0.10513584100E+03  0.10513584100E+03  0.00000000000E+00 0. -1.
    9000006    2    1    2  501    0  0.00000000000E+00  0.00000000000E+00  0.89486415900E+03  0.11051358410E+04  0.64849314877E+03 0.  0.
         13    1    3    3    0    0  0.21122462040E+03  0.11008144110E+03  0.82235524150E+03  0.85615530551E+03  0.00000000000E+00 0. -1.
          2    1    3    3  501    0 -0.21122462040E+03 -0.11008144110E+03  0.72508917500E+02  0.24898053549E+03  0.00000000000E+00 0. -1.
<mgrwt>
<rscale>  0 0.64849315E+03</rscale>
<asrwt>0</asrwt>
<pdfrwt beam="1">0</pdfrwt>
<pdfrwt beam="2">  1        2 0.38231296E+00 0.64849315E+03</pdfrwt>
<totfact> 0.46355106E+00</totfact>
</mgrwt>
</event>
<event>
 5    1  0.2361924E-004  0.6445331E+03  0.7818608E-02  0.9817092E-01
         13   -1    0    0    0    0  0.00000000000E+00  0.00000000000E+00  0.10000000000E+04  0.10000000000E+04  0.00000000000E+00 0. -1.
          2   -1    0    0  501    0 -0.00000000000E+00 -0.00000000000E+00 -0.10385572697E+03  0.10385572697E+03  0.00000000000E+00 0. -1.
    9000006    2    1    2  501    0  0.00000000000E+00  0.00000000000E+00  0.89614427303E+03  0.11038557270E+04  0.64453309293E+03 0.  0.
         13    1    3    3    0    0  0.76990137187E+02 -0.16538429193E+03  0.90305651055E+03  0.92129827227E+03  0.00000000000E+00 0. -1.
          4    1    3    3  501    0 -0.76990137187E+02  0.16538429193E+03 -0.69122375144E+01  0.18255745470E+03  0.00000000000E+00 0. -1.
<mgrwt>
<rscale>  0 0.64453309E+03</rscale>
<asrwt>0</asrwt>
<pdfrwt beam="1">0</pdfrwt>
<pdfrwt beam="2">  1        2 0.37765799E+00 0.64453309E+03</pdfrwt>
<totfact> 0.48239832E+00</totfact>
</mgrwt>
</event>
<event>
 5    1  0.2361924E-004  0.6375136E+03  0.7818608E-02  0.9830495E-01
         13   -1    0    0    0    0  0.00000000000E+00  0.00000000000E+00  0.10000000000E+04  0.10000000000E+04  0.00000000000E+00 0. -1.
          2   -1    0    0  501    0 -0.00000000000E+00 -0.00000000000E+00 -0.10160588708E+03  0.10160588708E+03  0.00000000000E+00 0. -1.
    9000006    2    1    2  501    0  0.00000000000E+00  0.00000000000E+00  0.89839411292E+03  0.11016058871E+04  0.63751356716E+03 0.  0.
         13    1    3    3    0    0  0.20425235428E+03 -0.23044065304E+03  0.59152124645E+03  0.66687277933E+03  0.00000000000E+00 0. -1.
          4    1    3    3  501    0 -0.20425235428E+03  0.23044065304E+03  0.30687286647E+03  0.43473310775E+03  0.00000000000E+00 0. -1.
<mgrwt>
<rscale>  0 0.63751357E+03</rscale>
<asrwt>0</asrwt>
<pdfrwt beam="1">0</pdfrwt>
<pdfrwt beam="2">  1        2 0.36947673E+00 0.63751357E+03</pdfrwt>
<totfact> 0.51722781E+00</totfact>
</mgrwt>
</event>
<event>
 5    1  0.2361924E-004  0.6471306E+03  0.7818608E-02  0.9812178E-01
         13   -1    0    0    0    0  0.00000000000E+00  0.00000000000E+00  0.10000000000E+04  0.10000000000E+04  0.00000000000E+00 0. -1.
          2   -1    0    0  501    0 -0.00000000000E+00 -0.00000000000E+00 -0.10469451884E+03  0.10469451884E+03  0.00000000000E+00 0. -1.
    9000006    2    1    2  501    0  0.00000000000E+00  0.00000000000E+00  0.89530548116E+03  0.11046945188E+04  0.64713064784E+03 0.  0.
         13    1    3    3    0    0  0.15698169813E+03  0.15965350658E+03  0.48907544816E+02  0.22918211896E+03  0.00000000000E+00 0. -1.
          2    1    3    3  501    0 -0.15698169813E+03 -0.15965350658E+03  0.84639793634E+03  0.87551239988E+03  0.00000000000E+00 0. -1.
<mgrwt>
<rscale>  0 0.64713065E+03</rscale>
<asrwt>0</asrwt>
<pdfrwt beam="1">0</pdfrwt>
<pdfrwt beam="2">  1        2 0.38070814E+00 0.64713065E+03</pdfrwt>
<totfact> 0.46997163E+00</totfact>
</mgrwt>
</event>
<event>
 5    1  0.2361924E-004  0.6467328E+03  0.7818608E-02  0.9812929E-01
         13   -1    0    0    0    0  0.00000000000E+00  0.00000000000E+00  0.10000000000E+04  0.10000000000E+04  0.00000000000E+00 0. -1.
          2   -1    0    0  501    0 -0.00000000000E+00 -0.00000000000E+00 -0.10456582429E+03  0.10456582429E+03  0.00000000000E+00 0. -1.
    9000006    2    1    2  501    0  0.00000000000E+00  0.00000000000E+00  0.89543417571E+03  0.11045658243E+04  0.64673278651E+03 0.  0.
         13    1    3    3    0    0  0.21821190233E+03 -0.22820661174E+03  0.32851559697E+03  0.45565029289E+03  0.00000000000E+00 0. -1.
          2    1    3    3  501    0 -0.21821190233E+03  0.22820661174E+03  0.56691857875E+03  0.64891553140E+03  0.00000000000E+00 0. -1.
<mgrwt>
<rscale>  0 0.64673279E+03</rscale>
<asrwt>0</asrwt>
<pdfrwt beam="1">0</pdfrwt>
<pdfrwt beam="2">  1        2 0.38024016E+00 0.64673279E+03</pdfrwt>
<totfact> 0.47185911E+00</totfact>
</mgrwt>
</event>
<event>
 5    1  0.2361924E-004  0.5668260E+03  0.7818608E-02  0.9976727E-01
         13   -1    0    0    0    0  0.00000000000E+00  0.00000000000E+00  0.10000000000E+04  0.10000000000E+04  0.00000000000E+00 0. -1.
          2   -1    0    0  501    0 -0.00000000000E+00 -0.00000000000E+00 -0.80322925968E+02  0.80322925968E+02  0.00000000000E+00 0. -1.
    9000006    2    1    2  501    0  0.00000000000E+00  0.00000000000E+00  0.91967707403E+03  0.10803229260E+04  0.56682599082E+03 0.  0.
         13    1    3    3    0    0 -0.26023154044E+03 -0.51661195120E+02  0.26988079383E+03  0.37845075849E+03  0.00000000000E+00 0. -1.
          2    1    3    3  501    0  0.26023154044E+03  0.51661195120E+02  0.64979628020E+03  0.70187216748E+03  0.00000000000E+00 0. -1.
<mgrwt>
<rscale>  0 0.56682599E+03</rscale>
<asrwt>0</asrwt>
<pdfrwt beam="1">0</pdfrwt>
<pdfrwt beam="2">  1        2 0.29208398E+00 0.56682599E+03</pdfrwt>
<totfact> 0.98545808E+00</totfact>
</mgrwt>
</event>
<event>
 5    1  0.2361924E-004  0.6891560E+03  0.7818608E-02  0.9735959E-01
         13   -1    0    0    0    0  0.00000000000E+00  0.00000000000E+00  0.10000000000E+04  0.10000000000E+04  0.00000000000E+00 0. -1.
          2   -1    0    0  501    0 -0.00000000000E+00 -0.00000000000E+00 -0.11873399330E+03  0.11873399330E+03  0.00000000000E+00 0. -1.
    9000006    2    1    2  501    0  0.00000000000E+00  0.00000000000E+00  0.88126600670E+03  0.11187339933E+04  0.68915598611E+03 0.  0.
         13    1    3    3    0    0 -0.71241157994E+02 -0.32682555804E+03  0.30633912345E+03  0.45357899702E+03  0.00000000000E+00 0. -1.
          2    1    3    3  501    0  0.71241157994E+02  0.32682555804E+03  0.57492688325E+03  0.66515499627E+03  0.00000000000E+00 0. -1.
<mgrwt>
<rscale>  0 0.68915599E+03</rscale>
<asrwt>0</asrwt>
<pdfrwt beam="1">0</pdfrwt>
<pdfrwt beam="2">  1        2 0.43176089E+00 0.68915599E+03</pdfrwt>
<totfact> 0.30050765E+00</totfact>
</mgrwt>
</event>
<event>
 5    1  0.2361924E-004  0.6465871E+03  0.7818608E-02  0.9813204E-01
         13   -1    0    0    0    0  0.00000000000E+00  0.00000000000E+00  0.10000000000E+04  0.10000000000E+04  0.00000000000E+00 0. -1.
          2   -1    0    0  501    0 -0.00000000000E+00 -0.00000000000E+00 -0.10451871451E+03  0.10451871451E+03  0.00000000000E+00 0. -1.
    9000006    2    1    2  501    0  0.00000000000E+00  0.00000000000E+00  0.89548128549E+03  0.11045187145E+04  0.64658708465E+03 0.  0.
         13    1    3    3    0    0  0.30906877138E+03  0.86029512772E+02  0.37953690235E+03  0.49696362317E+03  0.00000000000E+00 0. -1.
          2    1    3    3  501    0 -0.30906877138E+03 -0.86029512772E+02  0.51594438314E+03  0.60755509134E+03  0.00000000000E+00 0. -1.
<mgrwt>
<rscale>  0 0.64658708E+03</rscale>
<asrwt>0</asrwt>
<pdfrwt beam="1">0</pdfrwt>
<pdfrwt beam="2">  1        2 0.38006885E+00 0.64658708E+03</pdfrwt>
<totfact> 0.47255177E+00</totfact>
</mgrwt>
</event>
<event>
 5    1  0.2361924E-004  0.6468224E+03  0.7818608E-02  0.9812760E-01
         13   -1    0    0    0    0  0.00000000000E+00  0.00000000000E+00  0.10000000000E+04  0.10000000000E+04  0.00000000000E+00 0. -1.
          2   -1    0    0  501    0 -0.00000000000E+00 -0.00000000000E+00 -0.10459479217E+03  0.10459479217E+03  0.00000000000E+00 0. -1.
    9000006    2    1    2  501    0  0.00000000000E+00  0.00000000000E+00  0.89540520783E+03  0.11045947922E+04  0.64682236253E+03 0.  0.
         13    1    3    3    0    0  0.96592860238E+02 -0.23502240097E+03  0.10603344132E+03  0.27533397953E+03  0.00000000000E+00 0. -1.
          4    1    3    3  501    0 -0.96592860238E+02  0.23502240097E+03  0.78937176651E+03  0.82926081263E+03  0.00000000000E+00 0. -1.
<mgrwt>
<rscale>  0 0.64682236E+03</rscale>
<asrwt>0</asrwt>
<pdfrwt beam="1">0</pdfrwt>
<pdfrwt beam="2">  1        2 0.38034550E+00 0.64682236E+03</pdfrwt>
<totfact> 0.47143366E+00</totfact>
</mgrwt>
</event>
<event>
 5    1  0.2361924E-004  0.6509369E+03  0.7818608E-02  0.9805023E-01
         13   -1    0    0    0    0  0.00000000000E+00  0.00000000000E+00  0.10000000000E+04  0.10000000000E+04  0.00000000000E+00 0. -1.
          2   -1    0    0  501    0 -0.00000000000E+00 -0.00000000000E+00 -0.10592969875E+03  0.10592969875E+03  0.00000000000E+00 0. -1.
    9000006    2    1    2  501    0  0.00000000000E+00  0.00000000000E+00  0.89407030125E+03  0.11059296987E+04  0.65093685944E+03 0.  0.
         13    1    3    3    0    0  0.37842134027E+02 -0.11957181745E+03  0.95729633440E+03  0.96547693835E+03  0.00000000000E+00 0. -1.
          2    1    3    3  501    0 -0.37842134027E+02  0.11957181745E+03 -0.63226033145E+02  0.14045276039E+03  0.00000000000E+00 0. -1.
<mgrwt>
<rscale>  0 0.65093686E+03</rscale>
<asrwt>0</asrwt>
<pdfrwt beam="1">0</pdfrwt>
<pdfrwt beam="2">  1        2 0.38519972E+00 0.65093686E+03</pdfrwt>
<totfact> 0.45220182E+00</totfact>
</mgrwt>
</event>
<event>
 5    1  0.2361924E-004  0.6568707E+03  0.7818608E-02  0.9793972E-01
         13   -1    0    0    0    0  0.00000000000E+00  0.00000000000E+00  0.10000000000E+04  0.10000000000E+04  0.00000000000E+00 0. -1.
          2   -1    0    0  501    0 -0.00000000000E+00 -0.00000000000E+00 -0.10786977452E+03  0.10786977452E+03  0.00000000000E+00 0. -1.
    9000006    2    1    2  501    0  0.00000000000E+00  0.00000000000E+00  0.89213022548E+03  0.11078697745E+04  0.65687068595E+03 0.  0.
         13    1    3    3    0    0  0.11983722028E+03 -0.19795770118E+03  0.83915779963E+03  0.87047919188E+03  0.00000000000E+00 0. -1.
          2    1    3    3  501    0 -0.11983722028E+03  0.19795770118E+03  0.52972425853E+02  0.23739058263E+03  0.00000000000E+00 0. -1.
<mgrwt>
<rscale>  0 0.65687069E+03</rscale>
<asrwt>0</asrwt>
<pdfrwt beam="1">0</pdfrwt>
<pdfrwt beam="2">  1        2 0.39225455E+00 0.65687069E+03</pdfrwt>
<totfact> 0.42551729E+00</totfact>
</mgrwt>
</event>
<event>
 5    1  0.2361924E-004  0.6513025E+03  0.7818608E-02  0.9804338E-01
         13   -1    0    0    0    0  0.00000000000E+00  0.00000000000E+00  0.10000000000E+04  0.10000000000E+04  0.00000000000E+00 0. -1.
          2   -1    0    0  501    0 -0.00000000000E+00 -0.00000000000E+00 -0.10604873798E+03  0.10604873798E+03  0.00000000000E+00 0. -1.
    9000006    2    1    2  501    0  0.00000000000E+00  0.00000000000E+00  0.89395126202E+03  0.11060487380E+04  0.65130250416E+03 0.  0.
         13    1    3    3    0    0  0.10123304662E+03  0.79715659229E+02  0.95486840236E+03  0.96352290158E+03  0.00000000000E+00 0. -1.
          2    1    3    3  501    0 -0.10123304662E+03 -0.79715659229E+02 -0.60917140340E+02  0.14252583640E+03  0.00000000000E+00 0. -1.
<mgrwt>
<rscale>  0 0.65130250E+03</rscale>
<asrwt>0</asrwt>
<pdfrwt beam="1">0</pdfrwt>
<pdfrwt beam="2">  1        2 0.38563259E+00 0.65130250E+03</pdfrwt>
<totfact> 0.45052190E+00</totfact>
</mgrwt>
</event>
<event>
 5    1  0.2361924E-004  0.6687386E+03  0.7818608E-02  0.9772239E-01
         13   -1    0    0    0    0  0.00000000000E+00  0.00000000000E+00  0.10000000000E+04  0.10000000000E+04  0.00000000000E+00 0. -1.
          2   -1    0    0  501    0 -0.00000000000E+00 -0.00000000000E+00 -0.11180281404E+03  0.11180281404E+03  0.00000000000E+00 0. -1.
    9000006    2    1    2  501    0  0.00000000000E+00  0.00000000000E+00  0.88819718596E+03  0.11118028140E+04  0.66873855592E+03 0.  0.
         13    1    3    3    0    0  0.14612769356E+03  0.27171945125E+03  0.65841797583E+03  0.72711690525E+03  0.00000000000E+00 0. -1.
          4    1    3    3  501    0 -0.14612769356E+03 -0.27171945125E+03  0.22977921013E+03  0.38468590879E+03  0.00000000000E+00 0. -1.
<mgrwt>
<rscale>  0 0.66873856E+03</rscale>
<asrwt>0</asrwt>
<pdfrwt beam="1">0</pdfrwt>
<pdfrwt beam="2">  1        2 0.40655654E+00 0.66873856E+03</pdfrwt>
<totfact> 0.37573212E+00</totfact>
</mgrwt>
</event>
<event>
 5    1  0.2361924E-004  0.6416398E+03  0.7818608E-02  0.9822594E-01
         13   -1    0    0    0    0  0.00000000000E+00  0.00000000000E+00  0.10000000000E+04  0.10000000000E+04  0.00000000000E+00 0. -1.
          2   -1    0    0  501    0 -0.00000000000E+00 -0.00000000000E+00 -0.10292541108E+03  0.10292541108E+03  0.00000000000E+00 0. -1.
    9000006    2    1    2  501    0  0.00000000000E+00  0.00000000000E+00  0.89707458892E+03  0.11029254111E+04  0.64163980888E+03 0.  0.
         13    1    3    3    0    0 -0.19611228340E+03 -0.23064000248E+03  0.26605201653E+03  0.40303661613E+03  0.00000000000E+00 0. -1.
          4    1    3    3  501    0  0.19611228340E+03  0.23064000248E+03  0.63102257239E+03  0.69988879496E+03  0.00000000000E+00 0. -1.
<mgrwt>
<rscale>  0 0.64163981E+03</rscale>
<asrwt>0</asrwt>
<pdfrwt beam="1">0</pdfrwt>
<pdfrwt beam="2">  1        2 0.37427501E+00 0.64163981E+03</pdfrwt>
<totfact> 0.49653126E+00</totfact>
</mgrwt>
</event>
<event>
 5    1  0.2361924E-004  0.6722780E+03  0.7818608E-02  0.9765851E-01
         13   -1    0    0    0    0  0.00000000000E+00  0.00000000000E+00  0.10000000000E+04  0.10000000000E+04  0.00000000000E+00 0. -1.
          2   -1    0    0  501    0 -0.00000000000E+00 -0.00000000000E+00 -0.11298943070E+03  0.11298943070E+03  0.00000000000E+00 0. -1.
    9000006    2    1    2  501    0  0.00000000000E+00  0.00000000000E+00  0.88701056930E+03  0.11129894307E+04  0.67227801006E+03 0.  0.
         13    1    3    3    0    0  0.26172971488E+03 -0.19331308427E+03  0.30383893199E+03  0.44518590363E+03  0.00000000000E+00 0. -1.
          2    1    3    3  501    0 -0.26172971488E+03  0.19331308427E+03  0.58317163731E+03  0.66780352707E+03  0.00000000000E+00 0. -1.
<mgrwt>
<rscale>  0 0.67227801E+03</rscale>
<asrwt>0</asrwt>
<pdfrwt beam="1">0</pdfrwt>
<pdfrwt beam="2">  1        2 0.41087152E+00 0.67227801E+03</pdfrwt>
<totfact> 0.36177332E+00</totfact>
</mgrwt>
</event>
<event>
 5    1  0.2361924E-004  0.6274884E+03  0.7818608E-02  0.9849962E-01
         13   -1    0    0    0    0  0.00000000000E+00  0.00000000000E+00  0.10000000000E+04  0.10000000000E+04  0.00000000000E+00 0. -1.
          2   -1    0    0  501    0 -0.00000000000E+00 -0.00000000000E+00 -0.98435433928E+02  0.98435433928E+02  0.00000000000E+00 0. -1.
    9000006    2    1    2  501    0  0.00000000000E+00  0.00000000000E+00  0.90156456607E+03  0.10984354339E+04  0.62748843472E+03 0.  0.
         13    1    3    3    0    0 -0.56082387546E+02  0.25542651308E+03  0.14734219719E+03  0.30016272395E+03  0.00000000000E+00 0. -1.
          4    1    3    3  501    0  0.56082387546E+02 -0.25542651308E+03  0.75422236888E+03  0.79827270998E+03  0.00000000000E+00 0. -1.
<mgrwt>
<rscale>  0 0.62748843E+03</rscale>
<asrwt>0</asrwt>
<pdfrwt beam="1">0</pdfrwt>
<pdfrwt beam="2">  1        2 0.35794779E+00 0.62748843E+03</pdfrwt>
<totfact> 0.57023673E+00</totfact>
</mgrwt>
</event>
<event>
 5    1  0.2361924E-004  0.6200718E+03  0.7818608E-02  0.9864617E-01
         13   -1    0    0    0    0  0.00000000000E+00  0.00000000000E+00  0.10000000000E+04  0.10000000000E+04  0.00000000000E+00 0. -1.
          2   -1    0    0  501    0 -0.00000000000E+00 -0.00000000000E+00 -0.96122271252E+02  0.96122271252E+02  0.00000000000E+00 0. -1.
    9000006    2    1    2  501    0  0.00000000000E+00  0.00000000000E+00  0.90387772875E+03  0.10961222713E+04  0.62007183859E+03 0.  0.
         13    1    3    3    0    0 -0.16629108512E+03  0.13487853933E+03  0.84831096619E+03  0.87491510486E+03  0.00000000000E+00 0. -1.
          4    1    3    3  501    0  0.16629108512E+03 -0.13487853933E+03  0.55566762558E+02  0.22120716639E+03  0.00000000000E+00 0. -1.
<mgrwt>
<rscale>  0 0.62007184E+03</rscale>
<asrwt>0</asrwt>
<pdfrwt beam="1">0</pdfrwt>
<pdfrwt beam="2">  1        2 0.34953627E+00 0.62007184E+03</pdfrwt>
<totfact> 0.61203716E+00</totfact>
</mgrwt>
</event>
<event>
 5    1  0.2361924E-004  0.6602549E+03  0.7818608E-02  0.9787725E-01
         13   -1    0    0    0    0  0.00000000000E+00  0.00000000000E+00  0.10000000000E+04  0.10000000000E+04  0.00000000000E+00 0. -1.
          2   -1    0    0  501    0 -0.00000000000E+00 -0.00000000000E+00 -0.10898414213E+03  0.10898414213E+03  0.00000000000E+00 0. -1.
    9000006    2    1    2  501    0  0.00000000000E+00  0.00000000000E+00  0.89101585787E+03  0.11089841421E+04  0.66025492692E+03 0.  0.
         13    1    3    3    0    0  0.15699203319E+03  0.28826635385E+03  0.38635839890E+03  0.50696824521E+03  0.00000000000E+00 0. -1.
          2    1    3    3  501    0 -0.15699203319E+03 -0.28826635385E+03  0.50465745897E+03  0.60201589692E+03  0.00000000000E+00 0. -1.
<mgrwt>
<rscale>  0 0.66025493E+03</rscale>
<asrwt>0</asrwt>
<pdfrwt beam="1">0</pdfrwt>
<pdfrwt beam="2">  1        2 0.39630681E+00 0.66025493E+03</pdfrwt>
<totfact> 0.41084179E+00</totfact>
</mgrwt>
</event>
<event>
 5    1  0.2361924E-004  0.6531319E+03  0.7818608E-02  0.9800920E-01
         13   -1    0    0    0    0  0.00000000000E+00  0.00000000000E+00  0.10000000000E+04  0.10000000000E+04  0.00000000000E+00 0. -1.
          2   -1    0    0  501    0 -0.00000000000E+00 -0.00000000000E+00 -0.10664530765E+03  0.10664530765E+03  0.00000000000E+00 0. -1.
    9000006    2    1    2  501    0  0.00000000000E+00  0.00000000000E+00  0.89335469235E+03  0.11066453076E+04  0.65313186309E+03 0.  0.
         13    1    3    3    0    0  0.26320201217E+03  0.11731988371E+03  0.18635031391E+03  0.34317006544E+03  0.00000000000E+00 0. -1.
          2    1    3    3  501    0 -0.26320201217E+03 -0.11731988371E+03  0.70700437844E+03  0.76347524221E+03  0.00000000000E+00 0. -1.
<mgrwt>
<rscale>  0 0.65313186E+03</rscale>
<asrwt>0</asrwt>
<pdfrwt beam="1">0</pdfrwt>
<pdfrwt beam="2">  1        2 0.38780194E+00 0.65313186E+03</pdfrwt>
<totfact> 0.44218779E+00</totfact>
</mgrwt>
</event>
<event>
 5    1  0.2361924E-004  0.6538068E+03  0.7818608E-02  0.9799662E-01
         13   -1    0    0    0    0  0.00000000000E+00  0.00000000000E+00  0.10000000000E+04  0.10000000000E+04  0.00000000000E+00 0. -1.
          2   -1    0    0  501    0 -0.00000000000E+00 -0.00000000000E+00 -0.10686582763E+03  0.10686582763E+03  0.00000000000E+00 0. -1.
    9000006    2    1    2  501    0  0.00000000000E+00  0.00000000000E+00  0.89313417237E+03  0.11068658276E+04  0.65380678378E+03 0.  0.
         13    1    3    3    0    0  0.16649551063E+03 -0.14314400037E+03  0.36554123688E+02  0.22259192227E+03  0.00000000000E+00 0. -1.
          2    1    3    3  501    0 -0.16649551063E+03  0.14314400037E+03  0.85658004868E+03  0.88427390536E+03  0.00000000000E+00 0. -1.
<mgrwt>
<rscale>  0 0.65380678E+03</rscale>
<asrwt>0</asrwt>
<pdfrwt beam="1">0</pdfrwt>
<pdfrwt beam="2">  1        2 0.38860383E+00 0.65380678E+03</pdfrwt>
<totfact> 0.43914262E+00</totfact>
</mgrwt>
</event>
<event>
 5    1  0.2361924E-004  0.6539917E+03  0.7818608E-02  0.9799318E-01
         13   -1    0    0    0    0  0.00000000000E+00  0.00000000000E+00  0.10000000000E+04  0.10000000000E+04  0.00000000000E+00 0. -1.
          2   -1    0    0  501    0 -0.00000000000E+00 -0.00000000000E+00 -0.10692628032E+03  0.10692628032E+03  0.00000000000E+00 0. -1.
    9000006    2    1    2  501    0  0.00000000000E+00  0.00000000000E+00  0.89307371968E+03  0.11069262803E+04  0.65399168287E+03 0.  0.
         13    1    3    3    0    0 -0.17177569661E+03  0.10537265075E+03  0.88240549421E+03  0.90512415816E+03  0.00000000000E+00 0. -1.
          4    1    3    3  501    0  0.17177569661E+03 -0.10537265075E+03  0.10668225474E+02  0.20180212216E+03  0.00000000000E+00 0. -1.
<mgrwt>
<rscale>  0 0.65399168E+03</rscale>
<asrwt>0</asrwt>
<pdfrwt beam="1">0</pdfrwt>
<pdfrwt beam="2">  1        2 0.38882366E+00 0.65399168E+03</pdfrwt>
<totfact> 0.43831115E+00</totfact>
</mgrwt>
</event>
<event>
 5    1  0.2361924E-004  0.6621642E+03  0.7818608E-02  0.9784218E-01
         13   -1    0    0    0    0  0.00000000000E+00  0.00000000000E+00  0.10000000000E+04  0.10000000000E+04  0.00000000000E+00 0. -1.
          2   -1    0    0  501    0 -0.00000000000E+00 -0.00000000000E+00 -0.10961535326E+03  0.10961535326E+03  0.00000000000E+00 0. -1.
    9000006    2    1    2  501    0  0.00000000000E+00  0.00000000000E+00  0.89038464674E+03  0.11096153533E+04  0.66216418889E+03 0.  0.
         13    1    3    3    0    0  0.73489638866E+02  0.32166330308E+03  0.39938155926E+03  0.51804791038E+03  0.00000000000E+00 0. -1.
          4    1    3    3  501    0 -0.73489638866E+02 -0.32166330308E+03  0.49100308748E+03  0.59156744288E+03  0.00000000000E+00 0. -1.
<mgrwt>
<rscale>  0 0.66216419E+03</rscale>
<asrwt>0</asrwt>
<pdfrwt beam="1">0</pdfrwt>
<pdfrwt beam="2">  1        2 0.39860213E+00 0.66216419E+03</pdfrwt>
<totfact> 0.40273315E+00</totfact>
</mgrwt>
</event>
<event>
 5    1  0.2361924E-004  0.6411010E+03  0.7818608E-02  0.9823622E-01
         13   -1    0    0    0    0  0.00000000000E+00  0.00000000000E+00  0.10000000000E+04  0.10000000000E+04  0.00000000000E+00 0. -1.
          2   -1    0    0  501    0 -0.00000000000E+00 -0.00000000000E+00 -0.10275261703E+03  0.10275261703E+03  0.00000000000E+00 0. -1.
    9000006    2    1    2  501    0  0.00000000000E+00  0.00000000000E+00  0.89724738297E+03  0.11027526170E+04  0.64110098122E+03 0.  0.
         13    1    3    3    0    0  0.81952538241E+02 -0.16526635821E+03  0.89954843510E+03  0.91826824772E+03  0.00000000000E+00 0. -1.
          4    1    3    3  501    0 -0.81952538241E+02  0.16526635821E+03 -0.23010521323E+01  0.18448436931E+03  0.00000000000E+00 0. -1.
<mgrwt>
<rscale>  0 0.64110098E+03</rscale>
<asrwt>0</asrwt>
<pdfrwt beam="1">0</pdfrwt>
<pdfrwt beam="2">  1        2 0.37364667E+00 0.64110098E+03</pdfrwt>
<totfact> 0.49919769E+00</totfact>
</mgrwt>
</event>
<event>
 5    1  0.2361924E-004  0.6153642E+03  0.7818608E-02  0.9874033E-01
         13   -1    0    0    0    0  0.00000000000E+00  0.00000000000E+00  0.10000000000E+04  0.10000000000E+04  0.00000000000E+00 0. -1.
          2   -1    0    0  501    0 -0.00000000000E+00 -0.00000000000E+00 -0.94668271268E+02  0.94668271268E+02  0.00000000000E+00 0. -1.
    9000006    2    1    2  501    0  0.00000000000E+00  0.00000000000E+00  0.90533172873E+03  0.10946682713E+04  0.61536418897E+03 0.  0.
         13    1    3    3    0    0  0.51600070948E+02 -0.20948625378E+02 -0.85628049975E+02  0.10214487344E+03  0.00000000000E+00 0. -1.
          2    1    3    3  501    0 -0.51600070948E+02  0.20948625378E+02  0.99095977871E+03  0.99252339783E+03  0.00000000000E+00 0. -1.
<mgrwt>
<rscale>  0 0.61536419E+03</rscale>
<asrwt>0</asrwt>
<pdfrwt beam="1">0</pdfrwt>
<pdfrwt beam="2">  1        2 0.34424899E+00 0.61536419E+03</pdfrwt>
<totfact> 0.63975375E+00</totfact>
</mgrwt>
</event>
<event>
 5    1  0.2361924E-004  0.6344541E+03  0.7818608E-02  0.9836395E-01
         13   -1    0    0    0    0  0.00000000000E+00  0.00000000000E+00  0.10000000000E+04  0.10000000000E+04  0.00000000000E+00 0. -1.
          2   -1    0    0  501    0 -0.00000000000E+00 -0.00000000000E+00 -0.10063300320E+03  0.10063300320E+03  0.00000000000E+00 0. -1.
    9000006    2    1    2  501    0  0.00000000000E+00  0.00000000000E+00  0.89936699680E+03  0.11006330032E+04  0.63445410615E+03 0.  0.
         13    1    3    3    0    0  0.10435419225E+03 -0.23270372523E+03  0.77696361840E+03  0.81774891347E+03  0.00000000000E+00 0. -1.
          4    1    3    3  501    0 -0.10435419225E+03  0.23270372523E+03  0.12240337840E+03  0.28288408973E+03  0.00000000000E+00 0. -1.
<mgrwt>
<rscale>  0 0.63445411E+03</rscale>
<asrwt>0</asrwt>
<pdfrwt beam="1">0</pdfrwt>
<pdfrwt beam="2">  1        2 0.36593897E+00 0.63445411E+03</pdfrwt>
<totfact> 0.53299056E+00</totfact>
</mgrwt>
</event>
<event>
 5    1  0.2361924E-004  0.6084001E+03  0.7818608E-02  0.9888130E-01
         13   -1    0    0    0    0  0.00000000000E+00  0.00000000000E+00  0.10000000000E+04  0.10000000000E+04  0.00000000000E+00 0. -1.
          2   -1    0    0  501    0 -0.00000000000E+00 -0.00000000000E+00 -0.92537659698E+02  0.92537659698E+02  0.00000000000E+00 0. -1.
    9000006    2    1    2  501    0  0.00000000000E+00  0.00000000000E+00  0.90746234030E+03  0.10925376597E+04  0.60840006475E+03 0.  0.
         13    1    3    3    0    0  0.28429218098E+03  0.20132121260E+02  0.64470967130E+03  0.70489567082E+03  0.00000000000E+00 0. -1.
          2    1    3    3  501    0 -0.28429218098E+03 -0.20132121260E+02  0.26275266901E+03  0.38764198888E+03  0.00000000000E+00 0. -1.
<mgrwt>
<rscale>  0 0.60840006E+03</rscale>
<asrwt>0</asrwt>
<pdfrwt beam="1">0</pdfrwt>
<pdfrwt beam="2">  1        2 0.33650129E+00 0.60840006E+03</pdfrwt>
<totfact> 0.68249988E+00</totfact>
</mgrwt>
</event>
<event>
 5    1  0.2361924E-004  0.6461240E+03  0.7818608E-02  0.9814080E-01
         13   -1    0    0    0    0  0.00000000000E+00  0.00000000000E+00  0.10000000000E+04  0.10000000000E+04  0.00000000000E+00 0. -1.
          2   -1    0    0  501    0 -0.00000000000E+00 -0.00000000000E+00 -0.10436904875E+03  0.10436904875E+03  0.00000000000E+00 0. -1.
    9000006    2    1    2  501    0  0.00000000000E+00  0.00000000000E+00  0.89563095125E+03  0.11043690488E+04  0.64612397805E+03 0.  0.
         13    1    3    3    0    0 -0.13287366334E+03  0.27015925414E+02  0.94901036082E+03  0.95864797271E+03  0.00000000000E+00 0. -1.
          4    1    3    3  501    0  0.13287366334E+03 -0.27015925414E+02 -0.53379409577E+02  0.14572107604E+03  0.00000000000E+00 0. -1.
<mgrwt>
<rscale>  0 0.64612398E+03</rscale>
<asrwt>0</asrwt>
<pdfrwt beam="1">0</pdfrwt>
<pdfrwt beam="2">  1        2 0.37952461E+00 0.64612398E+03</pdfrwt>
<totfact> 0.47475843E+00</totfact>
</mgrwt>
</event>
<event>
 5    1  0.2361924E-004  0.6329668E+03  0.7818608E-02  0.9839276E-01
         13   -1    0    0    0    0  0.00000000000E+00  0.00000000000E+00  0.10000000000E+04  0.10000000000E+04  0.00000000000E+00 0. -1.
          2   -1    0    0  501    0 -0.00000000000E+00 -0.00000000000E+00 -0.10016173175E+03  0.10016173175E+03  0.00000000000E+00 0. -1.
    9000006    2    1    2  501    0  0.00000000000E+00  0.00000000000E+00  0.89983826825E+03  0.11001617318E+04  0.63296676612E+03 0.  0.
         13    1    3    3    0    0  0.15749252799E+03 -0.18905728791E+03  0.10397463594E+03  0.26712783345E+03  0.00000000000E+00 0. -1.
          2    1    3    3  501    0 -0.15749252799E+03  0.18905728791E+03  0.79586363231E+03  0.83303389830E+03  0.00000000000E+00 0. -1.
<mgrwt>
<rscale>  0 0.63296677E+03</rscale>
<asrwt>0</asrwt>
<pdfrwt beam="1">0</pdfrwt>
<pdfrwt beam="2">  1        2 0.36422525E+00 0.63296677E+03</pdfrwt>
<totfact> 0.54078378E+00</totfact>
</mgrwt>
</event>
<event>
 5    1  0.2361924E-004  0.5190347E+03  0.7818608E-02  0.1008927E+00
         13   -1    0    0    0    0  0.00000000000E+00  0.00000000000E+00  0.10000000000E+04  0.10000000000E+04  0.00000000000E+00 0. -1.
          2   -1    0    0  501    0 -0.00000000000E+00 -0.00000000000E+00 -0.67349242345E+02  0.67349242345E+02  0.00000000000E+00 0. -1.
    9000006    2    1    2  501    0  0.00000000000E+00  0.00000000000E+00  0.93265075766E+03  0.10673492423E+04  0.51903465142E+03 0.  0.
         13    1    3    3    0    0 -0.17972224242E+03 -0.16955739315E+02  0.82918012917E+02  0.19865290933E+03  0.00000000000E+00 0. -1.
          4    1    3    3  501    0  0.17972224242E+03  0.16955739315E+02  0.84973274474E+03  0.86869633302E+03  0.00000000000E+00 0. -1.
<mgrwt>
<rscale>  0 0.51903465E+03</rscale>
<asrwt>0</asrwt>
<pdfrwt beam="1">0</pdfrwt>
<pdfrwt beam="2">  1        2 0.24490685E+00 0.51903465E+03</pdfrwt>
<totfact> 0.14540700E+01</totfact>
</mgrwt>
</event>
<event>
 5    1  0.2361924E-004  0.6576298E+03  0.7818608E-02  0.9792567E-01
         13   -1    0    0    0    0  0.00000000000E+00  0.00000000000E+00  0.10000000000E+04  0.10000000000E+04  0.00000000000E+00 0. -1.
          2   -1    0    0  501    0 -0.00000000000E+00 -0.00000000000E+00 -0.10811923104E+03  0.10811923104E+03  0.00000000000E+00 0. -1.
    9000006    2    1    2  501    0  0.00000000000E+00  0.00000000000E+00  0.89188076896E+03  0.11081192310E+04  0.65762977742E+03 0.  0.
         13    1    3    3    0    0 -0.75931049256E+02  0.11177644917E+03 -0.59171494529E+02  0.14751530292E+03  0.00000000000E+00 0. -1.
          2    1    3    3  501    0  0.75931049256E+02 -0.11177644917E+03  0.95105226349E+03  0.96060392812E+03  0.00000000000E+00 0. -1.
<mgrwt>
<rscale>  0 0.65762978E+03</rscale>
<asrwt>0</asrwt>
<pdfrwt beam="1">0</pdfrwt>
<pdfrwt beam="2">  1        2 0.39316167E+00 0.65762978E+03</pdfrwt>
<totfact> 0.42219149E+00</totfact>
</mgrwt>
</event>
<event>
 5    1  0.2361924E-004  0.6466970E+03  0.7818608E-02  0.9812997E-01
         13   -1    0    0    0    0  0.00000000000E+00  0.00000000000E+00  0.10000000000E+04  0.10000000000E+04  0.00000000000E+00 0. -1.
          2   -1    0    0  501    0 -0.00000000000E+00 -0.00000000000E+00 -0.10455426618E+03  0.10455426618E+03  0.00000000000E+00 0. -1.
    9000006    2    1    2  501    0  0.00000000000E+00  0.00000000000E+00  0.89544573382E+03  0.11045542662E+04  0.64669704246E+03 0.  0.
         13    1    3    3    0    0 -0.30679666455E+03 -0.73193851016E+02  0.32607424773E+03  0.45365840479E+03  0.00000000000E+00 0. -1.
          4    1    3    3  501    0  0.30679666455E+03  0.73193851016E+02  0.56937148609E+03  0.65089586139E+03  0.00000000000E+00 0. -1.
<mgrwt>
<rscale>  0 0.64669704E+03</rscale>
<asrwt>0</asrwt>
<pdfrwt beam="1">0</pdfrwt>
<pdfrwt beam="2">  1        2 0.38019813E+00 0.64669704E+03</pdfrwt>
<totfact> 0.47202897E+00</totfact>
</mgrwt>
</event>
<event>
 5    1  0.2361924E-004  0.6535614E+03  0.7818608E-02  0.9800119E-01
         13   -1    0    0    0    0  0.00000000000E+00  0.00000000000E+00  0.10000000000E+04  0.10000000000E+04  0.00000000000E+00 0. -1.
          2   -1    0    0  501    0 -0.00000000000E+00 -0.00000000000E+00 -0.10678561338E+03  0.10678561338E+03  0.00000000000E+00 0. -1.
    9000006    2    1    2  501    0  0.00000000000E+00  0.00000000000E+00  0.89321438662E+03  0.11067856134E+04  0.65356136170E+03 0.  0.
         13    1    3    3    0    0 -0.29135996980E+03  0.98515783162E+02  0.25963705351E+03  0.40250141750E+03  0.00000000000E+00 0. -1.
          2    1    3    3  501    0  0.29135996980E+03 -0.98515783162E+02  0.63357733311E+03  0.70428419588E+03  0.00000000000E+00 0. -1.
<mgrwt>
<rscale>  0 0.65356136E+03</rscale>
<asrwt>0</asrwt>
<pdfrwt beam="1">0</pdfrwt>
<pdfrwt beam="2">  1        2 0.38831214E+00 0.65356136E+03</pdfrwt>
<totfact> 0.44024810E+00</totfact>
</mgrwt>
</event>
<event>
 5    1  0.2361924E-004  0.6423487E+03  0.7818608E-02  0.9821243E-01
         13   -1    0    0    0    0  0.00000000000E+00  0.00000000000E+00  0.10000000000E+04  0.10000000000E+04  0.00000000000E+00 0. -1.
          2   -1    0    0  501    0 -0.00000000000E+00 -0.00000000000E+00 -0.10315295592E+03  0.10315295592E+03  0.00000000000E+00 0. -1.
    9000006    2    1    2  501    0  0.00000000000E+00  0.00000000000E+00  0.89684704408E+03  0.11031529559E+04  0.64234867764E+03 0.  0.
         13    1    3    3    0    0 -0.17694800868E+03 -0.26515174003E+03  0.51575056288E+03  0.60631236679E+03  0.00000000000E+00 0. -1.
          4    1    3    3  501    0  0.17694800868E+03  0.26515174003E+03  0.38109648120E+03  0.49684058912E+03  0.00000000000E+00 0. -1.
<mgrwt>
<rscale>  0 0.64234868E+03</rscale>
<asrwt>0</asrwt>
<pdfrwt beam="1">0</pdfrwt>
<pdfrwt beam="2">  1        2 0.37510245E+00 0.64234868E+03</pdfrwt>
<totfact> 0.49303981E+00</totfact>
</mgrwt>
</event>
<event>
 5    1  0.2361924E-004  0.6481069E+03  0.7818608E-02  0.9810338E-01
         13   -1    0    0    0    0  0.00000000000E+00  0.00000000000E+00  0.10000000000E+04  0.10000000000E+04  0.00000000000E+00 0. -1.
          2   -1    0    0  501    0 -0.00000000000E+00 -0.00000000000E+00 -0.10501063774E+03  0.10501063774E+03  0.00000000000E+00 0. -1.
    9000006    2    1    2  501    0  0.00000000000E+00  0.00000000000E+00  0.89498936226E+03  0.11050106377E+04  0.64810689779E+03 0.  0.
         13    1    3    3    0    0  0.42368187654E+02  0.89808089879E+02 -0.78431023337E+02  0.12653845959E+03  0.00000000000E+00 0. -1.
          2    1    3    3  501    0 -0.42368187654E+02 -0.89808089879E+02  0.97342038560E+03  0.97847217816E+03  0.00000000000E+00 0. -1.
<mgrwt>
<rscale>  0 0.64810690E+03</rscale>
<asrwt>0</asrwt>
<pdfrwt beam="1">0</pdfrwt>
<pdfrwt beam="2">  1        2 0.38185767E+00 0.64810690E+03</pdfrwt>
<totfact> 0.46536443E+00</totfact>
</mgrwt>
</event>
<event>
 5    1  0.2361924E-004  0.6462066E+03  0.7818608E-02  0.9813923E-01
         13   -1    0    0    0    0  0.00000000000E+00  0.00000000000E+00  0.10000000000E+04  0.10000000000E+04  0.00000000000E+00 0. -1.
          2   -1    0    0  501    0 -0.00000000000E+00 -0.00000000000E+00 -0.10439573455E+03  0.10439573455E+03  0.00000000000E+00 0. -1.
    9000006    2    1    2  501    0  0.00000000000E+00  0.00000000000E+00  0.89560426545E+03  0.11043957345E+04  0.64620657548E+03 0.  0.
         13    1    3    3    0    0 -0.72428598231E+02  0.23771799084E+03  0.80071044889E+03  0.83838712297E+03  0.00000000000E+00 0. -1.
          4    1    3    3  501    0  0.72428598231E+02 -0.23771799084E+03  0.94893816566E+02  0.26600861158E+03  0.00000000000E+00 0. -1.
<mgrwt>
<rscale>  0 0.64620658E+03</rscale>
<asrwt>0</asrwt>
<pdfrwt beam="1">0</pdfrwt>
<pdfrwt beam="2">  1        2 0.37962165E+00 0.64620658E+03</pdfrwt>
<totfact> 0.47436429E+00</totfact>
</mgrwt>
</event>
<event>
 5    1  0.2361924E-004  0.6426462E+03  0.7818608E-02  0.9820677E-01
         13   -1    0    0    0    0  0.00000000000E+00  0.00000000000E+00  0.10000000000E+04  0.10000000000E+04  0.00000000000E+00 0. -1.
          2   -1    0    0  501    0 -0.00000000000E+00 -0.00000000000E+00 -0.10324852106E+03  0.10324852106E+03  0.00000000000E+00 0. -1.
    9000006    2    1    2  501    0  0.00000000000E+00  0.00000000000E+00  0.89675147894E+03  0.11032485211E+04  0.64264615787E+03 0.  0.
         13    1    3    3    0    0  0.29555196213E+03  0.11664115653E+03  0.53057096212E+03  0.61843485313E+03  0.00000000000E+00 0. -1.
          2    1    3    3  501    0 -0.29555196213E+03 -0.11664115653E+03  0.36618051682E+03  0.48481366793E+03  0.00000000000E+00 0. -1.
<mgrwt>
<rscale>  0 0.64264616E+03</rscale>
<asrwt>0</asrwt>
<pdfrwt beam="1">0</pdfrwt>
<pdfrwt beam="2">  1        2 0.37544996E+00 0.64264616E+03</pdfrwt>
<totfact> 0.49158016E+00</totfact>
</mgrwt>
</event>
<event>
 5    1  0.2361924E-004  0.6495162E+03  0.7818608E-02  0.9807687E-01
         13   -1    0    0    0    0  0.00000000000E+00  0.00000000000E+00  0.10000000000E+04  0.10000000000E+04  0.00000000000E+00 0. -1.
          2   -1    0    0  501    0 -0.00000000000E+00 -0.00000000000E+00 -0.10546782670E+03  0.10546782670E+03  0.00000000000E+00 0. -1.
    9000006    2    1    2  501    0  0.00000000000E+00  0.00000000000E+00  0.89453217330E+03  0.11054678267E+04  0.64951620980E+03 0.  0.
         13    1    3    3    0    0 -0.10155132792E+03 -0.30831852027E+03  0.46384142156E+03  0.56614648855E+03  0.00000000000E+00 0. -1.
          4    1    3    3  501    0  0.10155132792E+03  0.30831852027E+03  0.43069075174E+03  0.53932133815E+03  0.00000000000E+00 0. -1.
<mgrwt>
<rscale>  0 0.64951621E+03</rscale>
<asrwt>0</asrwt>
<pdfrwt beam="1">0</pdfrwt>
<pdfrwt beam="2">  1        2 0.38352018E+00 0.64951621E+03</pdfrwt>
<totfact> 0.45877381E+00</totfact>
</mgrwt>
</event>
<event>
 5    1  0.2361924E-004  0.6518395E+03  0.7818608E-02  0.9803334E-01
         13   -1    0    0    0    0  0.00000000000E+00  0.00000000000E+00  0.10000000000E+04  0.10000000000E+04  0.00000000000E+00 0. -1.
          2   -1    0    0  501    0 -0.00000000000E+00 -0.00000000000E+00 -0.10622367621E+03  0.10622367621E+03  0.00000000000E+00 0. -1.
    9000006    2    1    2  501    0  0.00000000000E+00  0.00000000000E+00  0.89377632379E+03  0.11062236762E+04  0.65183947782E+03 0.  0.
         13    1    3    3    0    0 -0.21752114405E+03 -0.23254342600E+03  0.32892239201E+03  0.45780108458E+03  0.00000000000E+00 0. -1.
          2    1    3    3  501    0  0.21752114405E+03  0.23254342600E+03  0.56485393178E+03  0.64842259163E+03  0.00000000000E+00 0. -1.
<mgrwt>
<rscale>  0 0.65183948E+03</rscale>
<asrwt>0</asrwt>
<pdfrwt beam="1">0</pdfrwt>
<pdfrwt beam="2">  1        2 0.38626873E+00 0.65183948E+03</pdfrwt>
<totfact> 0.44806338E+00</totfact>
</mgrwt>
</event>
<event>
 5    1  0.2361924E-004  0.6496135E+03  0.7818608E-02  0.9807505E-01
         13   -1    0    0    0    0  0.00000000000E+00  0.00000000000E+00  0.10000000000E+04  0.10000000000E+04  0.00000000000E+00 0. -1.
          2   -1    0    0  501    0 -0.00000000000E+00 -0.00000000000E+00 -0.10549943369E+03  0.10549943369E+03  0.00000000000E+00 0. -1.
    9000006    2    1    2  501    0  0.00000000000E+00  0.00000000000E+00  0.89450056631E+03  0.11054994337E+04  0.64961352722E+03 0.  0.
         13    1    3    3    0    0 -0.15936245083E+03 -0.82020768914E+02  0.90822744015E+03  0.92574342035E+03  0.00000000000E+00 0. -1.
          4    1    3    3  501    0  0.15936245083E+03  0.82020768914E+02 -0.13726873843E+02  0.17975601334E+03  0.00000000000E+00 0. -1.
<mgrwt>
<rscale>  0 0.64961353E+03</rscale>
<asrwt>0</asrwt>
<pdfrwt beam="1">0</pdfrwt>
<pdfrwt beam="2">  1        2 0.38363511E+00 0.64961353E+03</pdfrwt>
<totfact> 0.45832133E+00</totfact>
</mgrwt>
</event>
<event>
 5    1  0.2361924E-004  0.6504998E+03  0.7818608E-02  0.9805842E-01
         13   -1    0    0    0    0  0.00000000000E+00  0.00000000000E+00  0.10000000000E+04  0.10000000000E+04  0.00000000000E+00 0. -1.
          2   -1    0    0  501    0 -0.00000000000E+00 -0.00000000000E+00 -0.10578750002E+03  0.10578750002E+03  0.00000000000E+00 0. -1.
    9000006    2    1    2  501    0  0.00000000000E+00  0.00000000000E+00  0.89421249998E+03  0.11057875000E+04  0.65049980791E+03 0.  0.
         13    1    3    3    0    0 -0.47599025123E+02 -0.14928269395E+03 -0.37400835577E+02  0.16108945467E+03  0.00000000000E+00 0. -1.
          4    1    3    3  501    0  0.47599025123E+02  0.14928269395E+03  0.93161333556E+03  0.94469804535E+03  0.00000000000E+00 0. -1.
<mgrwt>
<rscale>  0 0.65049981E+03</rscale>
<asrwt>0</asrwt>
<pdfrwt beam="1">0</pdfrwt>
<pdfrwt beam="2">  1        2 0.38468263E+00 0.65049981E+03</pdfrwt>
<totfact> 0.45421601E+00</totfact>
</mgrwt>
</event>
<event>
 5    1  0.2361924E-004  0.6419916E+03  0.7818608E-02  0.9821924E-01
         13   -1    0    0    0    0  0.00000000000E+00  0.00000000000E+00  0.10000000000E+04  0.10000000000E+04  0.00000000000E+00 0. -1.
          2   -1    0    0  501    0 -0.00000000000E+00 -0.00000000000E+00 -0.10303828921E+03  0.10303828921E+03  0.00000000000E+00 0. -1.
    9000006    2    1    2  501    0  0.00000000000E+00  0.00000000000E+00  0.89696171079E+03  0.11030382892E+04  0.64199155511E+03 0.  0.
         13    1    3    3    0    0  0.23769608365E+02 -0.18212857336E+03 -0.38285865252E+01  0.18371300877E+03  0.00000000000E+00 0. -1.
          4    1    3    3  501    0 -0.23769608365E+02  0.18212857336E+03  0.90079029732E+03  0.91932528044E+03  0.00000000000E+00 0. -1.
<mgrwt>
<rscale>  0 0.64199156E+03</rscale>
<asrwt>0</asrwt>
<pdfrwt beam="1">0</pdfrwt>
<pdfrwt beam="2">  1        2 0.37468548E+00 0.64199156E+03</pdfrwt>
<totfact> 0.49479645E+00</totfact>
</mgrwt>
</event>
<event>
 5    1  0.2361924E-004  0.6342746E+03  0.7818608E-02  0.9836742E-01
         13   -1    0    0    0    0  0.00000000000E+00  0.00000000000E+00  0.10000000000E+04  0.10000000000E+04  0.00000000000E+00 0. -1.
          2   -1    0    0  501    0 -0.00000000000E+00 -0.00000000000E+00 -0.10057607713E+03  0.10057607713E+03  0.00000000000E+00 0. -1.
    9000006    2    1    2  501    0  0.00000000000E+00  0.00000000000E+00  0.89942392287E+03  0.11005760771E+04  0.63427463178E+03 0.  0.
         13    1    3    3    0    0 -0.19733249094E+03 -0.23794977674E+03  0.32682216780E+03  0.44985879740E+03  0.00000000000E+00 0. -1.
          4    1    3    3  501    0  0.19733249094E+03  0.23794977674E+03  0.57260175507E+03  0.65071727973E+03  0.00000000000E+00 0. -1.
<mgrwt>
<rscale>  0 0.63427463E+03</rscale>
<asrwt>0</asrwt>
<pdfrwt beam="1">0</pdfrwt>
<pdfrwt beam="2">  1        2 0.36573196E+00 0.63427463E+03</pdfrwt>
<totfact> 0.53392641E+00</totfact>
</mgrwt>
</event>
<event>
 5    1  0.2361924E-004  0.6485339E+03  0.7818608E-02  0.9809534E-01
         13   -1    0    0    0    0  0.00000000000E+00  0.00000000000E+00  0.10000000000E+04  0.10000000000E+04  0.00000000000E+00 0. -1.
          2   -1    0    0  501    0 -0.00000000000E+00 -0.00000000000E+00 -0.10514904609E+03  0.10514904609E+03  0.00000000000E+00 0. -1.
    9000006    2    1    2  501    0  0.00000000000E+00  0.00000000000E+00  0.89485095391E+03  0.11051490461E+04  0.64853387294E+03 0.  0.
         13    1    3    3    0    0  0.31897899264E+03  0.44816101919E+02  0.38382529674E+03  0.50107677969E+03  0.00000000000E+00 0. -1.
          2    1    3    3  501    0 -0.31897899264E+03 -0.44816101919E+02  0.51102565718E+03  0.60407226639E+03  0.00000000000E+00 0. -1.
<mgrwt>
<rscale>  0 0.64853387E+03</rscale>
<asrwt>0</asrwt>
<pdfrwt beam="1">0</pdfrwt>
<pdfrwt beam="2">  1        2 0.38236097E+00 0.64853387E+03</pdfrwt>
<totfact> 0.46336018E+00</totfact>
</mgrwt>
</event>
<event>
 5    1  0.2361924E-004  0.6497827E+03  0.7818608E-02  0.9807187E-01
         13   -1    0    0    0    0  0.00000000000E+00  0.00000000000E+00  0.10000000000E+04  0.10000000000E+04  0.00000000000E+00 0. -1.
          2   -1    0    0  501    0 -0.00000000000E+00 -0.00000000000E+00 -0.10555439250E+03  0.10555439250E+03  0.00000000000E+00 0. -1.
    9000006    2    1    2  501    0  0.00000000000E+00  0.00000000000E+00  0.89444560750E+03  0.11055543925E+04  0.64978270985E+03 0.  0.
         13    1    3    3    0    0  0.20152092801E+03  0.22366364116E+03  0.65503517332E+03  0.72090719728E+03  0.00000000000E+00 0. -1.
          2    1    3    3  501    0 -0.20152092801E+03 -0.22366364116E+03  0.23941043418E+03  0.38464719523E+03  0.00000000000E+00 0. -1.
<mgrwt>
<rscale>  0 0.64978271E+03</rscale>
<asrwt>0</asrwt>
<pdfrwt beam="1">0</pdfrwt>
<pdfrwt beam="2">  1        2 0.38383496E+00 0.64978271E+03</pdfrwt>
<totfact> 0.45753550E+00</totfact>
</mgrwt>
</event>
<event>
 5    1  0.2361924E-004  0.6486042E+03  0.7818608E-02  0.9809402E-01
         13   -1    0    0    0    0  0.00000000000E+00  0.00000000000E+00  0.10000000000E+04  0.10000000000E+04  0.00000000000E+00 0. -1.
          2   -1    0    0  501    0 -0.00000000000E+00 -0.00000000000E+00 -0.10517183816E+03  0.10517183816E+03  0.00000000000E+00 0. -1.
    9000006    2    1    2  501    0  0.00000000000E+00  0.00000000000E+00  0.89482816184E+03  0.11051718382E+04  0.64860415711E+03 0.  0.
         13    1    3    3    0    0 -0.38573573447E+02 -0.30296437554E+03  0.26156527594E+03  0.40210909837E+03  0.00000000000E+00 0. -1.
          4    1    3    3  501    0  0.38573573447E+02  0.30296437554E+03  0.63326288591E+03  0.70306273979E+03  0.00000000000E+00 0. -1.
<mgrwt>
<rscale>  0 0.64860416E+03</rscale>
<asrwt>0</asrwt>
<pdfrwt beam="1">0</pdfrwt>
<pdfrwt beam="2">  1        2 0.38244385E+00 0.64860416E+03</pdfrwt>
<totfact> 0.46303089E+00</totfact>
</mgrwt>
</event>
<event>
 5    1  0.2361924E-004  0.6557223E+03  0.7818608E-02  0.9796100E-01
         13   -1    0    0    0    0  0.00000000000E+00  0.00000000000E+00  0.10000000000E+04  0.10000000000E+04  0.00000000000E+00 0. -1.
          2   -1    0    0  501    0 -0.00000000000E+00 -0.00000000000E+00 -0.10749294358E+03  0.10749294358E+03  0.00000000000E+00 0. -1.
    9000006    2    1    2  501    0  0.00000000000E+00  0.00000000000E+00  0.89250705642E+03  0.11074929436E+04  0.65572233021E+03 0.  0.
         13    1    3    3    0    0 -0.23262250433E+03 -0.22930722463E+03  0.49396229211E+03  0.59219403815E+03  0.00000000000E+00 0. -1.
          4    1    3    3  501    0  0.23262250433E+03  0.22930722463E+03  0.39854476431E+03  0.51529890544E+03  0.00000000000E+00 0. -1.
<mgrwt>
<rscale>  0 0.65572233E+03</rscale>
<asrwt>0</asrwt>
<pdfrwt beam="1">0</pdfrwt>
<pdfrwt beam="2">  1        2 0.39088426E+00 0.65572233E+03</pdfrwt>
<totfact> 0.43058611E+00</totfact>
</mgrwt>
</event>
<event>
 5    1  0.2361924E-004  0.6520478E+03  0.7818608E-02  0.9802944E-01
         13   -1    0    0    0    0  0.00000000000E+00  0.00000000000E+00  0.10000000000E+04  0.10000000000E+04  0.00000000000E+00 0. -1.
          2   -1    0    0  501    0 -0.00000000000E+00 -0.00000000000E+00 -0.10629157418E+03  0.10629157418E+03  0.00000000000E+00 0. -1.
    9000006    2    1    2  501    0  0.00000000000E+00  0.00000000000E+00  0.89370842582E+03  0.11062915742E+04  0.65204777182E+03 0.  0.
         13    1    3    3    0    0  0.17772378215E+03  0.23930405109E+03  0.22279851590E+03  0.37214426006E+03  0.00000000000E+00 0. -1.
          2    1    3    3  501    0 -0.17772378215E+03 -0.23930405109E+03  0.67090990991E+03  0.73414731412E+03  0.00000000000E+00 0. -1.
<mgrwt>
<rscale>  0 0.65204777E+03</rscale>
<asrwt>0</asrwt>
<pdfrwt beam="1">0</pdfrwt>
<pdfrwt beam="2">  1        2 0.38651563E+00 0.65204777E+03</pdfrwt>
<totfact> 0.44711245E+00</totfact>
</mgrwt>
</event>
<event>
 5    1  0.2361924E-004  0.6498091E+03  0.7818608E-02  0.9807137E-01
         13   -1    0    0    0    0  0.00000000000E+00  0.00000000000E+00  0.10000000000E+04  0.10000000000E+04  0.00000000000E+00 0. -1.
          2   -1    0    0  501    0 -0.00000000000E+00 -0.00000000000E+00 -0.10556297434E+03  0.10556297434E+03  0.00000000000E+00 0. -1.
    9000006    2    1    2  501    0  0.00000000000E+00  0.00000000000E+00  0.89443702566E+03  0.11055629743E+04  0.64980912378E+03 0.  0.
         13    1    3    3    0    0  0.50906025134E+02  0.20153326051E+03  0.22367710995E+02  0.20906313157E+03  0.00000000000E+00 0. -1.
          2    1    3    3  501    0 -0.50906025134E+02 -0.20153326051E+03  0.87206931467E+03  0.89649984276E+03  0.00000000000E+00 0. -1.
<mgrwt>
<rscale>  0 0.64980912E+03</rscale>
<asrwt>0</asrwt>
<pdfrwt beam="1">0</pdfrwt>
<pdfrwt beam="2">  1        2 0.38386617E+00 0.64980912E+03</pdfrwt>
<totfact> 0.45741291E+00</totfact>
</mgrwt>
</event>
<event>
 5    1  0.2361924E-004  0.6330021E+03  0.7818608E-02  0.9839208E-01
         13   -1    0    0    0    0  0.00000000000E+00  0.00000000000E+00  0.10000000000E+04  0.10000000000E+04  0.00000000000E+00 0. -1.
          2   -1    0    0  501    0 -0.00000000000E+00 -0.00000000000E+00 -0.10017290095E+03  0.10017290095E+03  0.00000000000E+00 0. -1.
    9000006    2    1    2  501    0  0.00000000000E+00  0.00000000000E+00  0.89982709905E+03  0.11001729010E+04  0.63300205671E+03 0.  0.
         13    1    3    3    0    0 -0.22856215241E+03  0.15453605335E+03  0.18037489756E+03  0.32963184460E+03  0.00000000000E+00 0. -1.
          4    1    3    3  501    0  0.22856215241E+03 -0.15453605335E+03  0.71945220149E+03  0.77054105635E+03  0.00000000000E+00 0. -1.
<mgrwt>
<rscale>  0 0.63300206E+03</rscale>
<asrwt>0</asrwt>
<pdfrwt beam="1">0</pdfrwt>
<pdfrwt beam="2">  1        2 0.36426586E+00 0.63300206E+03</pdfrwt>
<totfact> 0.54059787E+00</totfact>
</mgrwt>
</event>
<event>
 5    1  0.2361924E-004  0.6535080E+03  0.7818608E-02  0.9800219E-01
         13   -1    0    0    0    0  0.00000000000E+00  0.00000000000E+00  0.10000000000E+04  0.10000000000E+04  0.00000000000E+00 0. -1.
          2   -1    0    0  501    0 -0.00000000000E+00 -0.00000000000E+00 -0.10676817156E+03  0.10676817156E+03  0.00000000000E+00 0. -1.
    9000006    2    1    2  501    0  0.00000000000E+00  0.00000000000E+00  0.89323182844E+03  0.11067681716E+04  0.65350798483E+03 0.  0.
         13    1    3    3    0    0 -0.22133653571E+03 -0.82314832964E+02  0.82908983366E+03  0.86206469945E+03  0.00000000000E+00 0. -1.
          2    1    3    3  501    0  0.22133653571E+03  0.82314832964E+02  0.64141994784E+02  0.24470347211E+03  0.00000000000E+00 0. -1.
<mgrwt>
<rscale>  0 0.65350798E+03</rscale>
<asrwt>0</asrwt>
<pdfrwt beam="1">0</pdfrwt>
<pdfrwt beam="2">  1        2 0.38824872E+00 0.65350798E+03</pdfrwt>
<totfact> 0.44048881E+00</totfact>
</mgrwt>
</event>
<event>
 5    1  0.2361924E-004  0.6567990E+03  0.7818608E-02  0.9794104E-01
         13   -1    0    0    0    0  0.00000000000E+00  0.00000000000E+00  0.10000000000E+04  0.10000000000E+04  0.00000000000E+00 0. -1.
          2   -1    0    0  501    0 -0.00000000000E+00 -0.00000000000E+00 -0.10784623628E+03  0.10784623628E+03  0.00000000000E+00 0. -1.
    9000006    2    1    2  501    0  0.00000000000E+00  0.00000000000E+00  0.89215376372E+03  0.11078462363E+04  0.65679901426E+03 0.  0.
         13    1    3    3    0    0  0.77962126034E+02  0.17360045061E+03 -0.53605663754E+01  0.19037842635E+03  0.00000000000E+00 0. -1.
          4    1    3    3  501    0 -0.77962126034E+02 -0.17360045061E+03  0.89751433009E+03  0.91746780994E+03  0.00000000000E+00 0. -1.
<mgrwt>
<rscale>  0 0.65679901E+03</rscale>
<asrwt>0</asrwt>
<pdfrwt beam="1">0</pdfrwt>
<pdfrwt beam="2">  1        2 0.39216896E+00 0.65679901E+03</pdfrwt>
<totfact> 0.42583232E+00</totfact>
</mgrwt>
</event>
<event>
 5    1  0.2361924E-004  0.6337482E+03  0.7818608E-02  0.9837762E-01
         13   -1    0    0    0    0  0.00000000000E+00  0.00000000000E+00  0.10000000000E+04  0.10000000000E+04  0.00000000000E+00 0. -1.
          2   -1    0    0  501    0 -0.00000000000E+00 -0.00000000000E+00 -0.10040920580E+03  0.10040920580E+03  0.00000000000E+00 0. -1.
    9000006    2    1    2  501    0  0.00000000000E+00  0.00000000000E+00  0.89959079420E+03  0.11004092058E+04  0.63374823329E+03 0.  0.
         13    1    3    3    0    0  0.22405395534E+03  0.18041081537E+03  0.21904380171E+03  0.36156385920E+03  0.00000000000E+00 0. -1.
          4    1    3    3  501    0 -0.22405395534E+03 -0.18041081537E+03  0.68054699249E+03  0.73884534660E+03  0.00000000000E+00 0. -1.
<mgrwt>
<rscale>  0 0.63374823E+03</rscale>
<asrwt>0</asrwt>
<pdfrwt beam="1">0</pdfrwt>
<pdfrwt beam="2">  1        2 0.36512515E+00 0.63374823E+03</pdfrwt>
<totfact> 0.53667843E+00</totfact>
</mgrwt>
</event>
<event>
 5    1  0.2361924E-004  0.6478983E+03  0.7818608E-02  0.9810731E-01
         13   -1    0    0    0    0  0.00000000000E+00  0.00000000000E+00  0.10000000000E+04  0.10000000000E+04  0.00000000000E+00 0. -1.
          2   -1    0    0  501    0 -0.00000000000E+00 -0.00000000000E+00 -0.10494305430E+03  0.10494305430E+03  0.00000000000E+00 0. -1.
    9000006    2    1    2  501    0  0.00000000000E+00  0.00000000000E+00  0.89505694570E+03  0.11049430543E+04  0.64789830776E+03 0.  0.
         13    1    3    3    0    0  0.28571006410E+03  0.76794128291E+02  0.22246722726E+03  0.37016110827E+03  0.00000000000E+00 0. -1.
          2    1    3    3  501    0 -0.28571006410E+03 -0.76794128291E+02  0.67258971844E+03  0.73478194603E+03  0.00000000000E+00 0. -1.
<mgrwt>
<rscale>  0 0.64789831E+03</rscale>
<asrwt>0</asrwt>
<pdfrwt beam="1">0</pdfrwt>
<pdfrwt beam="2">  1        2 0.38161191E+00 0.64789831E+03</pdfrwt>
<totfact> 0.46634595E+00</totfact>
</mgrwt>
</event>
<event>
 5    1  0.2361924E-004  0.6550158E+03  0.7818608E-02  0.9797413E-01
         13   -1    0    0    0    0  0.00000000000E+00  0.00000000000E+00  0.10000000000E+04  0.10000000000E+04  0.00000000000E+00 0. -1.
          2   -1    0    0  501    0 -0.00000000000E+00 -0.00000000000E+00 -0.10726142867E+03  0.10726142867E+03  0.00000000000E+00 0. -1.
    9000006    2    1    2  501    0  0.00000000000E+00  0.00000000000E+00  0.89273857133E+03  0.11072614287E+04  0.65501581253E+03 0.  0.
         13    1    3    3    0    0 -0.53492938502E+02 -0.34259792814E+02  0.98948623852E+03  0.99152319393E+03  0.00000000000E+00 0. -1.
          2    1    3    3  501    0  0.53492938502E+02  0.34259792814E+02 -0.96747667190E+02  0.11573823474E+03  0.00000000000E+00 0. -1.
<mgrwt>
<rscale>  0 0.65501581E+03</rscale>
<asrwt>0</asrwt>
<pdfrwt beam="1">0</pdfrwt>
<pdfrwt beam="2">  1        2 0.39004238E+00 0.65501581E+03</pdfrwt>
<totfact> 0.43372725E+00</totfact>
</mgrwt>
</event>
<event>
 5    1  0.2361924E-004  0.6267189E+03  0.7818608E-02  0.9851473E-01
         13   -1    0    0    0    0  0.00000000000E+00  0.00000000000E+00  0.10000000000E+04  0.10000000000E+04  0.00000000000E+00 0. -1.
          2   -1    0    0  501    0 -0.00000000000E+00 -0.00000000000E+00 -0.98194147395E+02  0.98194147395E+02  0.00000000000E+00 0. -1.
    9000006    2    1    2  501    0  0.00000000000E+00  0.00000000000E+00  0.90180585261E+03  0.10981941474E+04  0.62671890795E+03 0.  0.
         13    1    3    3    0    0 -0.75484877394E+02  0.25306516070E+03  0.74648599691E+03  0.79182149874E+03  0.00000000000E+00 0. -1.
          4    1    3    3  501    0  0.75484877394E+02 -0.25306516070E+03  0.15531985569E+03  0.30637264866E+03  0.00000000000E+00 0. -1.
<mgrwt>
<rscale>  0 0.62671891E+03</rscale>
<asrwt>0</asrwt>
<pdfrwt beam="1">0</pdfrwt>
<pdfrwt beam="2">  1        2 0.35707038E+00 0.62671891E+03</pdfrwt>
<totfact> 0.57446951E+00</totfact>
</mgrwt>
</event>
<event>
 5    1  0.2361924E-004  0.6296465E+03  0.7818608E-02  0.9845739E-01
         13   -1    0    0    0    0  0.00000000000E+00  0.00000000000E+00  0.10000000000E+04  0.10000000000E+04  0.00000000000E+00 0. -1.
          2   -1    0    0  501    0 -0.00000000000E+00 -0.00000000000E+00 -0.99113664325E+02  0.99113664325E+02  0.00000000000E+00 0. -1.
    9000006    2    1    2  501    0  0.00000000000E+00  0.00000000000E+00  0.90088633568E+03  0.10991136643E+04  0.62964645421E+03 0.  0.
         13    1    3    3    0    0  0.16871332761E+03  0.25592536407E+03  0.57573435190E+03  0.65225150275E+03  0.00000000000E+00 0. -1.
          2    1    3    3  501    0 -0.16871332761E+03 -0.25592536407E+03  0.32515198378E+03  0.44686216157E+03  0.00000000000E+00 0. -1.
<mgrwt>
<rscale>  0 0.62964645E+03</rscale>
<asrwt>0</asrwt>
<pdfrwt beam="1">0</pdfrwt>
<pdfrwt beam="2">  1        2 0.36041408E+00 0.62964645E+03</pdfrwt>
<totfact> 0.55849297E+00</totfact>
</mgrwt>
</event>
<event>
 5    1  0.2361924E-004  0.6484350E+03  0.7818608E-02  0.9809720E-01
         13   -1    0    0    0    0  0.00000000000E+00  0.00000000000E+00  0.10000000000E+04  0.10000000000E+04  0.00000000000E+00 0. -1.
          2   -1    0    0  501    0 -0.00000000000E+00 -0.00000000000E+00 -0.10511697358E+03  0.10511697358E+03  0.00000000000E+00 0. -1.
    9000006    2    1    2  501    0  0.00000000000E+00  0.00000000000E+00  0.89488302642E+03  0.11051169736E+04  0.64843495766E+03 0.  0.
         13    1    3    3    0    0 -0.19121567791E+03 -0.56175312738E+02  0.88327805400E+03  0.90548286671E+03  0.00000000000E+00 0. -1.
          4    1    3    3  501    0  0.19121567791E+03  0.56175312738E+02  0.11604972424E+02  0.19963410687E+03  0.00000000000E+00 0. -1.
<mgrwt>
<rscale>  0 0.64843496E+03</rscale>
<asrwt>0</asrwt>
<pdfrwt beam="1">0</pdfrwt>
<pdfrwt beam="2">  1        2 0.38224435E+00 0.64843496E+03</pdfrwt>
<totfact> 0.46382392E+00</totfact>
</mgrwt>
</event>
<event>
 5    1  0.2361924E-004  0.6588629E+03  0.7818608E-02  0.9790289E-01
         13   -1    0    0    0    0  0.00000000000E+00  0.00000000000E+00  0.10000000000E+04  0.10000000000E+04  0.00000000000E+00 0. -1.
          2   -1    0    0  501    0 -0.00000000000E+00 -0.00000000000E+00 -0.10852507220E+03  0.10852507220E+03  0.00000000000E+00 0. -1.
    9000006    2    1    2  501    0  0.00000000000E+00  0.00000000000E+00  0.89147492780E+03  0.11085250722E+04  0.65886287557E+03 0.  0.
         13    1    3    3    0    0 -0.20793387439E+03 -0.56115399991E+02  0.26331267805E+02  0.21697642705E+03  0.00000000000E+00 0. -1.
          2    1    3    3  501    0  0.20793387439E+03  0.56115399991E+02  0.86514365999E+03  0.89154864515E+03  0.00000000000E+00 0. -1.
<mgrwt>
<rscale>  0 0.65886288E+03</rscale>
<asrwt>0</asrwt>
<pdfrwt beam="1">0</pdfrwt>
<pdfrwt beam="2">  1        2 0.39463746E+00 0.65886288E+03</pdfrwt>
<totfact> 0.41683105E+00</totfact>
</mgrwt>
</event>
<event>
 5    1  0.2361924E-004  0.6433103E+03  0.7818608E-02  0.9819414E-01
         13   -1    0    0    0    0  0.00000000000E+00  0.00000000000E+00  0.10000000000E+04  0.10000000000E+04  0.00000000000E+00 0. -1.
          2   -1    0    0  501    0 -0.00000000000E+00 -0.00000000000E+00 -0.10346202203E+03  0.10346202203E+03  0.00000000000E+00 0. -1.
    9000006    2    1    2  501    0  0.00000000000E+00  0.00000000000E+00  0.89653797797E+03  0.11034620220E+04  0.64331025806E+03 0.  0.
         13    1    3    3    0    0  0.10347499185E+03 -0.29164328013E+03  0.29776147913E+03  0.42944705755E+03  0.00000000000E+00 0. -1.
          4    1    3    3  501    0 -0.10347499185E+03  0.29164328013E+03  0.59877649884E+03  0.67401496448E+03  0.00000000000E+00 0. -1.
<mgrwt>
<rscale>  0 0.64331026E+03</rscale>
<asrwt>0</asrwt>
<pdfrwt beam="1">0</pdfrwt>
<pdfrwt beam="2">  1        2 0.37622633E+00 0.64331026E+03</pdfrwt>
<totfact> 0.48833368E+00</totfact>
</mgrwt>
</event>
<event>
 5    1  0.2361924E-004  0.6359274E+03  0.7818608E-02  0.9833550E-01
         13   -1    0    0    0    0  0.00000000000E+00  0.00000000000E+00  0.10000000000E+04  0.10000000000E+04  0.00000000000E+00 0. -1.
          2   -1    0    0  501    0 -0.00000000000E+00 -0.00000000000E+00 -0.10110091848E+03  0.10110091848E+03  0.00000000000E+00 0. -1.
    9000006    2    1    2  501    0  0.00000000000E+00  0.00000000000E+00  0.89889908152E+03  0.11011009185E+04  0.63592741247E+03 0.  0.
         13    1    3    3    0    0 -0.27974857231E+03  0.13968290000E+03  0.54937220624E+03  0.63212371989E+03  0.00000000000E+00 0. -1.
          4    1    3    3  501    0  0.27974857231E+03 -0.13968290000E+03  0.34952687528E+03  0.46897719859E+03  0.00000000000E+00 0. -1.
<mgrwt>
<rscale>  0 0.63592741E+03</rscale>
<asrwt>0</asrwt>
<pdfrwt beam="1">0</pdfrwt>
<pdfrwt beam="2">  1        2 0.36764048E+00 0.63592741E+03</pdfrwt>
<totfact> 0.52535512E+00</totfact>
</mgrwt>
</event>
<event>
 5    1  0.2361924E-004  0.6518604E+03  0.7818608E-02  0.9803294E-01
         13   -1    0    0    0    0  0.00000000000E+00  0.00000000000E+00  0.10000000000E+04  0.10000000000E+04  0.00000000000E+00 0. -1.
          2   -1    0    0  501    0 -0.00000000000E+00 -0.00000000000E+00 -0.10623051102E+03  0.10623051102E+03  0.00000000000E+00 0. -1.
    9000006    2    1    2  501    0  0.00000000000E+00  0.00000000000E+00  0.89376948898E+03  0.11062305110E+04  0.65186044832E+03 0.  0.
         13    1    3    3    0    0  0.51894513912E+02  0.20547844149E+03  0.86710617281E+03  0.89262956786E+03  0.00000000000E+00 0. -1.
          2    1    3    3  501    0 -0.51894513912E+02 -0.20547844149E+03  0.26663316172E+02  0.21360094316E+03  0.00000000000E+00 0. -1.
<mgrwt>
<rscale>  0 0.65186045E+03</rscale>
<asrwt>0</asrwt>
<pdfrwt beam="1">0</pdfrwt>
<pdfrwt beam="2">  1        2 0.38629358E+00 0.65186045E+03</pdfrwt>
<totfact> 0.44796758E+00</totfact>
</mgrwt>
</event>
<event>
 5    1  0.2361924E-004  0.6375156E+03  0.7818608E-02  0.9830491E-01
         13   -1    0    0    0    0  0.00000000000E+00  0.00000000000E+00  0.10000000000E+04  0.10000000000E+04  0.00000000000E+00 0. -1.
          2   -1    0    0  501    0 -0.00000000000E+00 -0.00000000000E+00 -0.10160652422E+03  0.10160652422E+03  0.00000000000E+00 0. -1.
    9000006    2    1    2  501    0  0.00000000000E+00  0.00000000000E+00  0.89839347578E+03  0.11016065242E+04  0.63751556598E+03 0.  0.
         13    1    3    3    0    0 -0.17645425997E+02 -0.59496272788E+02 -0.91067210800E+02  0.11020165342E+03  0.00000000000E+00 0. -1.
          4    1    3    3  501    0  0.17645425997E+02  0.59496272788E+02  0.98946068658E+03  0.99140487079E+03  0.00000000000E+00 0. -1.
<mgrwt>
<rscale>  0 0.63751557E+03</rscale>
<asrwt>0</asrwt>
<pdfrwt beam="1">0</pdfrwt>
<pdfrwt beam="2">  1        2 0.36947905E+00 0.63751557E+03</pdfrwt>
<totfact> 0.51721763E+00</totfact>
</mgrwt>
</event>
<event>
 5    1  0.2361924E-004  0.6547033E+03  0.7818608E-02  0.9797994E-01
         13   -1    0    0    0    0  0.00000000000E+00  0.00000000000E+00  0.10000000000E+04  0.10000000000E+04  0.00000000000E+00 0. -1.
          4   -1    0    0  501    0 -0.00000000000E+00 -0.00000000000E+00 -0.10715909782E+03  0.10715909782E+03  0.00000000000E+00 0. -1.
    9000006    2    1    2  501    0  0.00000000000E+00  0.00000000000E+00  0.89284090218E+03  0.11071590978E+04  0.65470328491E+03 0.  0.
         13    1    3    3    0    0 -0.27401511639E+03  0.58691606302E+02  0.16028147743E+03  0.32282989432E+03  0.00000000000E+00 0. -1.
          2    1    3    3  501    0  0.27401511639E+03 -0.58691606302E+02  0.73255942475E+03  0.78432920349E+03  0.00000000000E+00 0. -1.
<mgrwt>
<rscale>  0 0.65470328E+03</rscale>
<asrwt>0</asrwt>
<pdfrwt beam="1">0</pdfrwt>
<pdfrwt beam="2">  1        4 0.38967027E+00 0.65470328E+03</pdfrwt>
<totfact> 0.37734623E-02</totfact>
</mgrwt>
</event>
<event>
 5    1  0.2361924E-004  0.6323569E+03  0.7818608E-02  0.9840460E-01
         13   -1    0    0    0    0  0.00000000000E+00  0.00000000000E+00  0.10000000000E+04  0.10000000000E+04  0.00000000000E+00 0. -1.
          2   -1    0    0  501    0 -0.00000000000E+00 -0.00000000000E+00 -0.99968800906E+02  0.99968800906E+02  0.00000000000E+00 0. -1.
    9000006    2    1    2  501    0  0.00000000000E+00  0.00000000000E+00  0.90003119909E+03  0.10999688009E+04  0.63235686414E+03 0.  0.
         13    1    3    3    0    0  0.10198881762E+03 -0.29689228541E+03  0.51561139436E+03  0.60365706991E+03  0.00000000000E+00 0. -1.
          2    1    3    3  501    0 -0.10198881762E+03  0.29689228541E+03  0.38441980473E+03  0.49631173100E+03  0.00000000000E+00 0. -1.
<mgrwt>
<rscale>  0 0.63235686E+03</rscale>
<asrwt>0</asrwt>
<pdfrwt beam="1">0</pdfrwt>
<pdfrwt beam="2">  1        2 0.36352368E+00 0.63235686E+03</pdfrwt>
<totfact> 0.54400434E+00</totfact>
</mgrwt>
</event>
<event>
 5    1  0.2361924E-004  0.6572863E+03  0.7818608E-02  0.9793202E-01
         13   -1    0    0    0    0  0.00000000000E+00  0.00000000000E+00  0.10000000000E+04  0.10000000000E+04  0.00000000000E+00 0. -1.
          2   -1    0    0  501    0 -0.00000000000E+00 -0.00000000000E+00 -0.10800630498E+03  0.10800630498E+03  0.00000000000E+00 0. -1.
    9000006    2    1    2  501    0  0.00000000000E+00  0.00000000000E+00  0.89199369502E+03  0.11080063050E+04  0.65728625417E+03 0.  0.
         13    1    3    3    0    0 -0.74037535174E+02  0.52745582022E+01  0.98568527424E+03  0.98847601763E+03  0.00000000000E+00 0. -1.
          2    1    3    3  501    0  0.74037535174E+02 -0.52745582022E+01 -0.93691579216E+02  0.11953028735E+03  0.00000000000E+00 0. -1.
<mgrwt>
<rscale>  0 0.65728625E+03</rscale>
<asrwt>0</asrwt>
<pdfrwt beam="1">0</pdfrwt>
<pdfrwt beam="2">  1        2 0.39275103E+00 0.65728625E+03</pdfrwt>
<totfact> 0.42369412E+00</totfact>
</mgrwt>
</event>
<event>
 5    1  0.2361924E-004  0.6751854E+03  0.7818608E-02  0.9760636E-01
         13   -1    0    0    0    0  0.00000000000E+00  0.00000000000E+00  0.10000000000E+04  0.10000000000E+04  0.00000000000E+00 0. -1.
          2   -1    0    0  501    0 -0.00000000000E+00 -0.00000000000E+00 -0.11396882106E+03  0.11396882106E+03  0.00000000000E+00 0. -1.
    9000006    2    1    2  501    0  0.00000000000E+00  0.00000000000E+00  0.88603117894E+03  0.11139688211E+04  0.67518537028E+03 0.  0.
         13    1    3    3    0    0 -0.16759277005E+02  0.26835046915E+03  0.77983172453E+03  0.82488203171E+03  0.00000000000E+00 0. -1.
          2    1    3    3  501    0  0.16759277005E+02 -0.26835046915E+03  0.10619945441E+03  0.28908678935E+03  0.00000000000E+00 0. -1.
<mgrwt>
<rscale>  0 0.67518537E+03</rscale>
<asrwt>0</asrwt>
<pdfrwt beam="1">0</pdfrwt>
<pdfrwt beam="2">  1        2 0.41443295E+00 0.67518537E+03</pdfrwt>
<totfact> 0.35060331E+00</totfact>
</mgrwt>
</event>
<event>
 5    1  0.2361924E-004  0.6455551E+03  0.7818608E-02  0.9815156E-01
         13   -1    0    0    0    0  0.00000000000E+00  0.00000000000E+00  0.10000000000E+04  0.10000000000E+04  0.00000000000E+00 0. -1.
          2   -1    0    0  501    0 -0.00000000000E+00 -0.00000000000E+00 -0.10418534019E+03  0.10418534019E+03  0.00000000000E+00 0. -1.
    9000006    2    1    2  501    0  0.00000000000E+00  0.00000000000E+00  0.89581465981E+03  0.11041853402E+04  0.64555507956E+03 0.  0.
         13    1    3    3    0    0  0.25364957953E+03  0.19299749268E+03  0.36070493275E+03  0.48134622663E+03  0.00000000000E+00 0. -1.
          4    1    3    3  501    0 -0.25364957953E+03 -0.19299749268E+03  0.53510972706E+03  0.62283911355E+03  0.00000000000E+00 0. -1.
<mgrwt>
<rscale>  0 0.64555508E+03</rscale>
<asrwt>0</asrwt>
<pdfrwt beam="1">0</pdfrwt>
<pdfrwt beam="2">  1        2 0.37885658E+00 0.64555508E+03</pdfrwt>
<totfact> 0.47747985E+00</totfact>
</mgrwt>
</event>
<event>
 5    1  0.2361924E-004  0.6584697E+03  0.7818608E-02  0.9791015E-01
         13   -1    0    0    0    0  0.00000000000E+00  0.00000000000E+00  0.10000000000E+04  0.10000000000E+04  0.00000000000E+00 0. -1.
          2   -1    0    0  501    0 -0.00000000000E+00 -0.00000000000E+00 -0.10839557823E+03  0.10839557823E+03  0.00000000000E+00 0. -1.
    9000006    2    1    2  501    0  0.00000000000E+00  0.00000000000E+00  0.89160442177E+03  0.11083955782E+04  0.65846967501E+03 0.  0.
         13    1    3    3    0    0  0.20710773765E+02  0.31103755373E+03  0.26748239820E+03  0.41075555910E+03  0.00000000000E+00 0. -1.
          4    1    3    3  501    0 -0.20710773765E+02 -0.31103755373E+03  0.62412202357E+03  0.69764001913E+03  0.00000000000E+00 0. -1.
<mgrwt>
<rscale>  0 0.65846968E+03</rscale>
<asrwt>0</asrwt>
<pdfrwt beam="1">0</pdfrwt>
<pdfrwt beam="2">  1        2 0.39416657E+00 0.65846968E+03</pdfrwt>
<totfact> 0.41853466E+00</totfact>
</mgrwt>
</event>
<event>
 5    1  0.2361924E-004  0.6397532E+03  0.7818608E-02  0.9826199E-01
         13   -1    0    0    0    0  0.00000000000E+00  0.00000000000E+00  0.10000000000E+04  0.10000000000E+04  0.00000000000E+00 0. -1.
          2   -1    0    0  501    0 -0.00000000000E+00 -0.00000000000E+00 -0.10232105380E+03  0.10232105380E+03  0.00000000000E+00 0. -1.
    9000006    2    1    2  501    0  0.00000000000E+00  0.00000000000E+00  0.89767894620E+03  0.11023210538E+04  0.63975324557E+03 0.  0.
         13    1    3    3    0    0  0.22628277186E+03 -0.22523044409E+03  0.48279728507E+03  0.57881418802E+03  0.00000000000E+00 0. -1.
          2    1    3    3  501    0 -0.22628277186E+03  0.22523044409E+03  0.41488166112E+03  0.52350686578E+03  0.00000000000E+00 0. -1.
<mgrwt>
<rscale>  0 0.63975325E+03</rscale>
<asrwt>0</asrwt>
<pdfrwt beam="1">0</pdfrwt>
<pdfrwt beam="2">  1        2 0.37207734E+00 0.63975325E+03</pdfrwt>
<totfact> 0.50591455E+00</totfact>
</mgrwt>
</event>
<event>
 5    1  0.2361924E-004  0.6563881E+03  0.7818608E-02  0.9794866E-01
         13   -1    0    0    0    0  0.00000000000E+00  0.00000000000E+00  0.10000000000E+04  0.10000000000E+04  0.00000000000E+00 0. -1.
          2   -1    0    0  501    0 -0.00000000000E+00 -0.00000000000E+00 -0.10771134150E+03  0.10771134150E+03  0.00000000000E+00 0. -1.
    9000006    2    1    2  501    0  0.00000000000E+00  0.00000000000E+00  0.89228865850E+03  0.11077113415E+04  0.65638812145E+03 0.  0.
         13    1    3    3    0    0  0.29376920609E+03 -0.14744555911E+02  0.20046524457E+03  0.35595514136E+03  0.00000000000E+00 0. -1.
          2    1    3    3  501    0 -0.29376920609E+03  0.14744555911E+02  0.69182341394E+03  0.75175620014E+03  0.00000000000E+00 0. -1.
<mgrwt>
<rscale>  0 0.65638812E+03</rscale>
<asrwt>0</asrwt>
<pdfrwt beam="1">0</pdfrwt>
<pdfrwt beam="2">  1        2 0.39167843E+00 0.65638812E+03</pdfrwt>
<totfact> 0.42764180E+00</totfact>
</mgrwt>
</event>
<event>
 5    1  0.2361924E-004  0.6495058E+03  0.7818608E-02  0.9807707E-01
         13   -1    0    0    0    0  0.00000000000E+00  0.00000000000E+00  0.10000000000E+04  0.10000000000E+04  0.00000000000E+00 0. -1.
          2   -1    0    0  501    0 -0.00000000000E+00 -0.00000000000E+00 -0.10546445680E+03  0.10546445680E+03  0.00000000000E+00 0. -1.
    9000006    2    1    2  501    0  0.00000000000E+00  0.00000000000E+00  0.89453554320E+03  0.11054644568E+04  0.64950583306E+03 0.  0.
         13    1    3    3    0    0 -0.11786927662E+03 -0.69084989553E+01 -0.67638506890E+02  0.13607300005E+03  0.00000000000E+00 0. -1.
          2    1    3    3  501    0  0.11786927662E+03  0.69084989553E+01  0.96217405009E+03  0.96939145674E+03  0.00000000000E+00 0. -1.
<mgrwt>
<rscale>  0 0.64950583E+03</rscale>
<asrwt>0</asrwt>
<pdfrwt beam="1">0</pdfrwt>
<pdfrwt beam="2">  1        2 0.38350792E+00 0.64950583E+03</pdfrwt>
<totfact> 0.45882208E+00</totfact>
</mgrwt>
</event>
<event>
 5    1  0.2361924E-004  0.6494177E+03  0.7818608E-02  0.9807872E-01
         13   -1    0    0    0    0  0.00000000000E+00  0.00000000000E+00  0.10000000000E+04  0.10000000000E+04  0.00000000000E+00 0. -1.
          2   -1    0    0  501    0 -0.00000000000E+00 -0.00000000000E+00 -0.10543582907E+03  0.10543582907E+03  0.00000000000E+00 0. -1.
    9000006    2    1    2  501    0  0.00000000000E+00  0.00000000000E+00  0.89456417093E+03  0.11054358291E+04  0.64941767476E+03 0.  0.
         13    1    3    3    0    0 -0.19783427869E+03 -0.25146234079E+03  0.35305794062E+03  0.47646785840E+03  0.00000000000E+00 0. -1.
          4    1    3    3  501    0  0.19783427869E+03  0.25146234079E+03  0.54150623031E+03  0.62896797067E+03  0.00000000000E+00 0. -1.
<mgrwt>
<rscale>  0 0.64941767E+03</rscale>
<asrwt>0</asrwt>
<pdfrwt beam="1">0</pdfrwt>
<pdfrwt beam="2">  1        2 0.38340382E+00 0.64941767E+03</pdfrwt>
<totfact> 0.45923230E+00</totfact>
</mgrwt>
</event>
<event>
 5    1  0.2361924E-004  0.6567474E+03  0.7818608E-02  0.9794200E-01
         13   -1    0    0    0    0  0.00000000000E+00  0.00000000000E+00  0.10000000000E+04  0.10000000000E+04  0.00000000000E+00 0. -1.
          2   -1    0    0  501    0 -0.00000000000E+00 -0.00000000000E+00 -0.10782928645E+03  0.10782928645E+03  0.00000000000E+00 0. -1.
    9000006    2    1    2  501    0  0.00000000000E+00  0.00000000000E+00  0.89217071355E+03  0.11078292864E+04  0.65674739878E+03 0.  0.
         13    1    3    3    0    0 -0.29912349467E+03  0.46543054871E+02  0.23146382135E+03  0.38107298725E+03  0.00000000000E+00 0. -1.
          2    1    3    3  501    0  0.29912349467E+03 -0.46543054871E+02  0.66070689220E+03  0.72675629920E+03  0.00000000000E+00 0. -1.
<mgrwt>
<rscale>  0 0.65674740E+03</rscale>
<asrwt>0</asrwt>
<pdfrwt beam="1">0</pdfrwt>
<pdfrwt beam="2">  1        2 0.39210732E+00 0.65674740E+03</pdfrwt>
<totfact> 0.42605930E+00</totfact>
</mgrwt>
</event>
<event>
 5    1  0.2361924E-004  0.6591109E+03  0.7818608E-02  0.9789832E-01
         13   -1    0    0    0    0  0.00000000000E+00  0.00000000000E+00  0.10000000000E+04  0.10000000000E+04  0.00000000000E+00 0. -1.
          2   -1    0    0  501    0 -0.00000000000E+00 -0.00000000000E+00 -0.10860678060E+03  0.10860678060E+03  0.00000000000E+00 0. -1.
    9000006    2    1    2  501    0  0.00000000000E+00  0.00000000000E+00  0.89139321940E+03  0.11086067806E+04  0.65911085743E+03 0.  0.
         13    1    3    3    0    0 -0.15466155706E+03  0.24111825572E+03  0.71975281025E+03  0.77466271263E+03  0.00000000000E+00 0. -1.
          4    1    3    3  501    0  0.15466155706E+03 -0.24111825572E+03  0.17164040915E+03  0.33394406796E+03  0.00000000000E+00 0. -1.
<mgrwt>
<rscale>  0 0.65911086E+03</rscale>
<asrwt>0</asrwt>
<pdfrwt beam="1">0</pdfrwt>
<pdfrwt beam="2">  1        2 0.39493458E+00 0.65911086E+03</pdfrwt>
<totfact> 0.41575932E+00</totfact>
</mgrwt>
</event>
<event>
 5    1  0.2361924E-004  0.5075089E+03  0.7818608E-02  0.1011837E+00
         13   -1    0    0    0    0  0.00000000000E+00  0.00000000000E+00  0.10000000000E+04  0.10000000000E+04  0.00000000000E+00 0. -1.
          2   -1    0    0  501    0 -0.00000000000E+00 -0.00000000000E+00 -0.64391331231E+02  0.64391331231E+02  0.00000000000E+00 0. -1.
    9000006    2    1    2  501    0  0.00000000000E+00  0.00000000000E+00  0.93560866877E+03  0.10643913312E+04  0.50750894073E+03 0.  0.
         13    1    3    3    0    0  0.11075714697E+03 -0.22750921392E+03  0.42780478693E+03  0.49703573689E+03  0.00000000000E+00 0. -1.
          4    1    3    3  501    0 -0.11075714697E+03  0.22750921392E+03  0.50780388184E+03  0.56735559435E+03  0.00000000000E+00 0. -1.
<mgrwt>
<rscale>  0 0.50750894E+03</rscale>
<asrwt>0</asrwt>
<pdfrwt beam="1">0</pdfrwt>
<pdfrwt beam="2">  1        2 0.23415079E+00 0.50750894E+03</pdfrwt>
<totfact> 0.15902737E+01</totfact>
</mgrwt>
</event>
<event>
 5    1  0.2361924E-004  0.6467138E+03  0.7818608E-02  0.9812965E-01
         13   -1    0    0    0    0  0.00000000000E+00  0.00000000000E+00  0.10000000000E+04  0.10000000000E+04  0.00000000000E+00 0. -1.
          2   -1    0    0  501    0 -0.00000000000E+00 -0.00000000000E+00 -0.10455968807E+03  0.10455968807E+03  0.00000000000E+00 0. -1.
    9000006    2    1    2  501    0  0.00000000000E+00  0.00000000000E+00  0.89544031193E+03  0.11045596881E+04  0.64671381019E+03 0.  0.
         13    1    3    3    0    0 -0.67589178749E+01 -0.18739404585E+03  0.89765424018E+03  0.91703072266E+03  0.00000000000E+00 0. -1.
          2    1    3    3  501    0  0.67589178749E+01  0.18739404585E+03 -0.22139282508E+01  0.18752896541E+03  0.00000000000E+00 0. -1.
<mgrwt>
<rscale>  0 0.64671381E+03</rscale>
<asrwt>0</asrwt>
<pdfrwt beam="1">0</pdfrwt>
<pdfrwt beam="2">  1        2 0.38021785E+00 0.64671381E+03</pdfrwt>
<totfact> 0.47194928E+00</totfact>
</mgrwt>
</event>
<event>
 5    1  0.2361924E-004  0.6412902E+03  0.7818608E-02  0.9823261E-01
         13   -1    0    0    0    0  0.00000000000E+00  0.00000000000E+00  0.10000000000E+04  0.10000000000E+04  0.00000000000E+00 0. -1.
          2   -1    0    0  501    0 -0.00000000000E+00 -0.00000000000E+00 -0.10281328779E+03  0.10281328779E+03  0.00000000000E+00 0. -1.
    9000006    2    1    2  501    0  0.00000000000E+00  0.00000000000E+00  0.89718671221E+03  0.11028132878E+04  0.64129022383E+03 0.  0.
         13    1    3    3    0    0 -0.16236259520E+03  0.15103862208E+03  0.50314044155E+02  0.22738905145E+03  0.00000000000E+00 0. -1.
          2    1    3    3  501    0  0.16236259520E+03 -0.15103862208E+03  0.84687266805E+03  0.87542423634E+03  0.00000000000E+00 0. -1.
<mgrwt>
<rscale>  0 0.64129022E+03</rscale>
<asrwt>0</asrwt>
<pdfrwt beam="1">0</pdfrwt>
<pdfrwt beam="2">  1        2 0.37386729E+00 0.64129022E+03</pdfrwt>
<totfact> 0.49825998E+00</totfact>
</mgrwt>
</event>
<event>
 5    1  0.2361924E-004  0.6649586E+03  0.7818608E-02  0.9779108E-01
         13   -1    0    0    0    0  0.00000000000E+00  0.00000000000E+00  0.10000000000E+04  0.10000000000E+04  0.00000000000E+00 0. -1.
          2   -1    0    0  501    0 -0.00000000000E+00 -0.00000000000E+00 -0.11054249759E+03  0.11054249759E+03  0.00000000000E+00 0. -1.
    9000006    2    1    2  501    0  0.00000000000E+00  0.00000000000E+00  0.88945750241E+03  0.11105424976E+04  0.66495863807E+03 0.  0.
         13    1    3    3    0    0 -0.26393013764E+03  0.48786193806E+02  0.11701893111E+03  0.29280136697E+03  0.00000000000E+00 0. -1.
          4    1    3    3  501    0  0.26393013764E+03 -0.48786193806E+02  0.77243857130E+03  0.81774113061E+03  0.00000000000E+00 0. -1.
<mgrwt>
<rscale>  0 0.66495864E+03</rscale>
<asrwt>0</asrwt>
<pdfrwt beam="1">0</pdfrwt>
<pdfrwt beam="2">  1        2 0.40197357E+00 0.66495864E+03</pdfrwt>
<totfact> 0.39108352E+00</totfact>
</mgrwt>
</event>
<event>
 5    1  0.2361924E-004  0.6457393E+03  0.7818608E-02  0.9814807E-01
         13   -1    0    0    0    0  0.00000000000E+00  0.00000000000E+00  0.10000000000E+04  0.10000000000E+04  0.00000000000E+00 0. -1.
          2   -1    0    0  501    0 -0.00000000000E+00 -0.00000000000E+00 -0.10424481977E+03  0.10424481977E+03  0.00000000000E+00 0. -1.
    9000006    2    1    2  501    0  0.00000000000E+00  0.00000000000E+00  0.89575518023E+03  0.11042448198E+04  0.64573932752E+03 0.  0.
         13    1    3    3    0    0  0.22068173524E+03 -0.43282191584E+02  0.84404445865E+03  0.87349002545E+03  0.00000000000E+00 0. -1.
          2    1    3    3  501    0 -0.22068173524E+03  0.43282191584E+02  0.51710721574E+02  0.23075479433E+03  0.00000000000E+00 0. -1.
<mgrwt>
<rscale>  0 0.64573933E+03</rscale>
<asrwt>0</asrwt>
<pdfrwt beam="1">0</pdfrwt>
<pdfrwt beam="2">  1        2 0.37907287E+00 0.64573933E+03</pdfrwt>
<totfact> 0.47659718E+00</totfact>
</mgrwt>
</event>
<event>
 5    1  0.2361924E-004  0.6463517E+03  0.7818608E-02  0.9813649E-01
         13   -1    0    0    0    0  0.00000000000E+00  0.00000000000E+00  0.10000000000E+04  0.10000000000E+04  0.00000000000E+00 0. -1.
          2   -1    0    0  501    0 -0.00000000000E+00 -0.00000000000E+00 -0.10444262965E+03  0.10444262965E+03  0.00000000000E+00 0. -1.
    9000006    2    1    2  501    0  0.00000000000E+00  0.00000000000E+00  0.89555737035E+03  0.11044426297E+04  0.64635169885E+03 0.  0.
         13    1    3    3    0    0 -0.27661699281E+03  0.16695771629E+03  0.45995632105E+03  0.56209577210E+03  0.00000000000E+00 0. -1.
          4    1    3    3  501    0  0.27661699281E+03 -0.16695771629E+03  0.43560104930E+03  0.54234685755E+03  0.00000000000E+00 0. -1.
<mgrwt>
<rscale>  0 0.64635170E+03</rscale>
<asrwt>0</asrwt>
<pdfrwt beam="1">0</pdfrwt>
<pdfrwt beam="2">  1        2 0.37979218E+00 0.64635170E+03</pdfrwt>
<totfact> 0.47367239E+00</totfact>
</mgrwt>
</event>
<event>
 5    1  0.2361924E-004  0.6455454E+03  0.7818608E-02  0.9815174E-01
         13   -1    0    0    0    0  0.00000000000E+00  0.00000000000E+00  0.10000000000E+04  0.10000000000E+04  0.00000000000E+00 0. -1.
          2   -1    0    0  501    0 -0.00000000000E+00 -0.00000000000E+00 -0.10418223115E+03  0.10418223115E+03  0.00000000000E+00 0. -1.
    9000006    2    1    2  501    0  0.00000000000E+00  0.00000000000E+00  0.89581776885E+03  0.11041822311E+04  0.64554544735E+03 0.  0.
         13    1    3    3    0    0  0.54372656067E+02 -0.22187109158E+01  0.99209703054E+03  0.99358835864E+03  0.00000000000E+00 0. -1.
          2    1    3    3  501    0 -0.54372656067E+02  0.22187109158E+01 -0.96279261691E+02  0.11059387251E+03  0.00000000000E+00 0. -1.
<mgrwt>
<rscale>  0 0.64554545E+03</rscale>
<asrwt>0</asrwt>
<pdfrwt beam="1">0</pdfrwt>
<pdfrwt beam="2">  1        2 0.37884528E+00 0.64554545E+03</pdfrwt>
<totfact> 0.47752603E+00</totfact>
</mgrwt>
</event>
<event>
 5    1  0.2361924E-004  0.6675077E+03  0.7818608E-02  0.9774471E-01
         13   -1    0    0    0    0  0.00000000000E+00  0.00000000000E+00  0.10000000000E+04  0.10000000000E+04  0.00000000000E+00 0. -1.
          2   -1    0    0  501    0 -0.00000000000E+00 -0.00000000000E+00 -0.11139164277E+03  0.11139164277E+03  0.00000000000E+00 0. -1.
    9000006    2    1    2  501    0  0.00000000000E+00  0.00000000000E+00  0.88860835723E+03  0.11113916428E+04  0.66750773109E+03 0.  0.
         13    1    3    3    0    0 -0.17558626357E+03  0.12194250439E+03  0.87104501197E+03  0.89689459983E+03  0.00000000000E+00 0. -1.
          4    1    3    3  501    0  0.17558626357E+03 -0.12194250439E+03  0.17563345265E+02  0.21449704294E+03  0.00000000000E+00 0. -1.
<mgrwt>
<rscale>  0 0.66750773E+03</rscale>
<asrwt>0</asrwt>
<pdfrwt beam="1">0</pdfrwt>
<pdfrwt beam="2">  1        2 0.40506137E+00 0.66750773E+03</pdfrwt>
<totfact> 0.38068005E+00</totfact>
</mgrwt>
</event>
<event>
 5    1  0.2361924E-004  0.6497360E+03  0.7818608E-02  0.9807275E-01
         13   -1    0    0    0    0  0.00000000000E+00  0.00000000000E+00  0.10000000000E+04  0.10000000000E+04  0.00000000000E+00 0. -1.
          2   -1    0    0  501    0 -0.00000000000E+00 -0.00000000000E+00 -0.10553921007E+03  0.10553921007E+03  0.00000000000E+00 0. -1.
    9000006    2    1    2  501    0  0.00000000000E+00  0.00000000000E+00  0.89446078993E+03  0.11055392101E+04  0.64973597735E+03 0.  0.
         13    1    3    3    0    0  0.22190783450E+03 -0.66746289473E+02  0.59817426628E+02  0.23932463037E+03  0.00000000000E+00 0. -1.
          4    1    3    3  501    0 -0.22190783450E+03  0.66746289473E+02  0.83464336331E+03  0.86621457970E+03  0.00000000000E+00 0. -1.
<mgrwt>
<rscale>  0 0.64973598E+03</rscale>
<asrwt>0</asrwt>
<pdfrwt beam="1">0</pdfrwt>
<pdfrwt beam="2">  1        2 0.38377975E+00 0.64973598E+03</pdfrwt>
<totfact> 0.45775247E+00</totfact>
</mgrwt>
</event>
<event>
 5    1  0.2361924E-004  0.6412235E+03  0.7818608E-02  0.9823388E-01
         13   -1    0    0    0    0  0.00000000000E+00  0.00000000000E+00  0.10000000000E+04  0.10000000000E+04  0.00000000000E+00 0. -1.
          2   -1    0    0  501    0 -0.00000000000E+00 -0.00000000000E+00 -0.10279190608E+03  0.10279190608E+03  0.00000000000E+00 0. -1.
    9000006    2    1    2  501    0  0.00000000000E+00  0.00000000000E+00  0.89720809392E+03  0.11027919061E+04  0.64122353693E+03 0.  0.
         13    1    3    3    0    0 -0.26894299629E+03  0.12824033251E+03  0.24499551518E+03  0.38574437208E+03  0.00000000000E+00 0. -1.
          2    1    3    3  501    0  0.26894299629E+03 -0.12824033251E+03  0.65221257875E+03  0.71704753400E+03  0.00000000000E+00 0. -1.
<mgrwt>
<rscale>  0 0.64122354E+03</rscale>
<asrwt>0</asrwt>
<pdfrwt beam="1">0</pdfrwt>
<pdfrwt beam="2">  1        2 0.37378954E+00 0.64122354E+03</pdfrwt>
<totfact> 0.49859026E+00</totfact>
</mgrwt>
</event>
<event>
 5    1  0.2361924E-004  0.6437445E+03  0.7818608E-02  0.9818589E-01
         13   -1    0    0    0    0  0.00000000000E+00  0.00000000000E+00  0.10000000000E+04  0.10000000000E+04  0.00000000000E+00 0. -1.
          2   -1    0    0  501    0 -0.00000000000E+00 -0.00000000000E+00 -0.10360173108E+03  0.10360173108E+03  0.00000000000E+00 0. -1.
    9000006    2    1    2  501    0  0.00000000000E+00  0.00000000000E+00  0.89639826892E+03  0.11036017311E+04  0.64374445576E+03 0.  0.
         13    1    3    3    0    0 -0.61760506122E+02  0.30925774772E+03  0.55859854380E+03  0.64147256199E+03  0.00000000000E+00 0. -1.
          2    1    3    3  501    0  0.61760506122E+02 -0.30925774772E+03  0.33779972512E+03  0.46212916909E+03  0.00000000000E+00 0. -1.
<mgrwt>
<rscale>  0 0.64374446E+03</rscale>
<asrwt>0</asrwt>
<pdfrwt beam="1">0</pdfrwt>
<pdfrwt beam="2">  1        2 0.37673436E+00 0.64374446E+03</pdfrwt>
<totfact> 0.48621989E+00</totfact>
</mgrwt>
</event>
<event>
 5    1  0.2361924E-004  0.6572072E+03  0.7818608E-02  0.9793349E-01
         13   -1    0    0    0    0  0.00000000000E+00  0.00000000000E+00  0.10000000000E+04  0.10000000000E+04  0.00000000000E+00 0. -1.
          4   -1    0    0  501    0 -0.00000000000E+00 -0.00000000000E+00 -0.10798033595E+03  0.10798033595E+03  0.00000000000E+00 0. -1.
    9000006    2    1    2  501    0  0.00000000000E+00  0.00000000000E+00  0.89201966405E+03  0.11079803360E+04  0.65720723050E+03 0.  0.
         13    1    3    3    0    0  0.30033283203E+03 -0.21446265745E+02  0.66788616576E+03  0.73261973951E+03  0.00000000000E+00 0. -1.
          4    1    3    3  501    0 -0.30033283203E+03  0.21446265745E+02  0.22413349829E+03  0.37536059644E+03  0.00000000000E+00 0. -1.
<mgrwt>
<rscale>  0 0.65720723E+03</rscale>
<asrwt>0</asrwt>
<pdfrwt beam="1">0</pdfrwt>
<pdfrwt beam="2">  1        4 0.39265660E+00 0.65720723E+03</pdfrwt>
<totfact> 0.36002990E-02</totfact>
</mgrwt>
</event>
<event>
 5    1  0.2361924E-004  0.6456548E+03  0.7818608E-02  0.9814967E-01
         13   -1    0    0    0    0  0.00000000000E+00  0.00000000000E+00  0.10000000000E+04  0.10000000000E+04  0.00000000000E+00 0. -1.
          2   -1    0    0  501    0 -0.00000000000E+00 -0.00000000000E+00 -0.10421753494E+03  0.10421753494E+03  0.00000000000E+00 0. -1.
    9000006    2    1    2  501    0  0.00000000000E+00  0.00000000000E+00  0.89578246506E+03  0.11042175349E+04  0.64565481471E+03 0.  0.
         13    1    3    3    0    0 -0.14960174046E+03 -0.22131979645E+03  0.13789884563E+03  0.30063137673E+03  0.00000000000E+00 0. -1.
          2    1    3    3  501    0  0.14960174046E+03  0.22131979645E+03  0.75788361944E+03  0.80358615821E+03  0.00000000000E+00 0. -1.
<mgrwt>
<rscale>  0 0.64565481E+03</rscale>
<asrwt>0</asrwt>
<pdfrwt beam="1">0</pdfrwt>
<pdfrwt beam="2">  1        2 0.37897365E+00 0.64565481E+03</pdfrwt>
<totfact> 0.47700190E+00</totfact>
</mgrwt>
</event>
<event>
 5    1  0.2361924E-004  0.6622798E+03  0.7818608E-02  0.9784006E-01
         13   -1    0    0    0    0  0.00000000000E+00  0.00000000000E+00  0.10000000000E+04  0.10000000000E+04  0.00000000000E+00 0. -1.
          2   -1    0    0  501    0 -0.00000000000E+00 -0.00000000000E+00 -0.10965363503E+03  0.10965363503E+03  0.00000000000E+00 0. -1.
    9000006    2    1    2  501    0  0.00000000000E+00  0.00000000000E+00  0.89034636497E+03  0.11096536350E+04  0.66227980501E+03 0.  0.
         13    1    3    3    0    0  0.88111572609E+02 -0.19801403013E+03  0.25692553650E+02  0.21825057312E+03  0.00000000000E+00 0. -1.
          4    1    3    3  501    0 -0.88111572609E+02  0.19801403013E+03  0.86465381132E+03  0.89140306191E+03  0.00000000000E+00 0. -1.
<mgrwt>
<rscale>  0 0.66227981E+03</rscale>
<asrwt>0</asrwt>
<pdfrwt beam="1">0</pdfrwt>
<pdfrwt beam="2">  1        2 0.39874133E+00 0.66227981E+03</pdfrwt>
<totfact> 0.40224604E+00</totfact>
</mgrwt>
</event>
<event>
 5    1  0.2361924E-004  0.6412942E+03  0.7818608E-02  0.9823254E-01
         13   -1    0    0    0    0  0.00000000000E+00  0.00000000000E+00  0.10000000000E+04  0.10000000000E+04  0.00000000000E+00 0. -1.
          2   -1    0    0  501    0 -0.00000000000E+00 -0.00000000000E+00 -0.10281454779E+03  0.10281454779E+03  0.00000000000E+00 0. -1.
    9000006    2    1    2  501    0  0.00000000000E+00  0.00000000000E+00  0.89718545221E+03  0.11028145478E+04  0.64129415338E+03 0.  0.
         13    1    3    3    0    0  0.29979303868E+03  0.93974570782E+02  0.33837994231E+03  0.46174459537E+03  0.00000000000E+00 0. -1.
          2    1    3    3  501    0 -0.29979303868E+03 -0.93974570782E+02  0.55880550990E+03  0.64106995242E+03  0.00000000000E+00 0. -1.
<mgrwt>
<rscale>  0 0.64129415E+03</rscale>
<asrwt>0</asrwt>
<pdfrwt beam="1">0</pdfrwt>
<pdfrwt beam="2">  1        2 0.37387187E+00 0.64129415E+03</pdfrwt>
<totfact> 0.49824052E+00</totfact>
</mgrwt>
</event>
<event>
 5    1  0.2361924E-004  0.6608745E+03  0.7818608E-02  0.9786585E-01
         13   -1    0    0    0    0  0.00000000000E+00  0.00000000000E+00  0.10000000000E+04  0.10000000000E+04  0.00000000000E+00 0. -1.
          2   -1    0    0  501    0 -0.00000000000E+00 -0.00000000000E+00 -0.10918877313E+03  0.10918877313E+03  0.00000000000E+00 0. -1.
    9000006    2    1    2  501    0  0.00000000000E+00  0.00000000000E+00  0.89081122687E+03  0.11091887731E+04  0.66087449075E+03 0.  0.
         13    1    3    3    0    0 -0.34713214835E+02  0.30822526234E+03  0.25418276922E+03  0.40101957533E+03  0.00000000000E+00 0. -1.
          2    1    3    3  501    0  0.34713214835E+02 -0.30822526234E+03  0.63662845764E+03  0.70816919780E+03  0.00000000000E+00 0. -1.
<mgrwt>
<rscale>  0 0.66087449E+03</rscale>
<asrwt>0</asrwt>
<pdfrwt beam="1">0</pdfrwt>
<pdfrwt beam="2">  1        2 0.39705092E+00 0.66087449E+03</pdfrwt>
<totfact> 0.40819712E+00</totfact>
</mgrwt>
</event>
<event>
 5    1  0.2361924E-004  0.6414529E+03  0.7818608E-02  0.9822951E-01
         13   -1    0    0    0    0  0.00000000000E+00  0.00000000000E+00  0.10000000000E+04  0.10000000000E+04  0.00000000000E+00 0. -1.
          2   -1    0    0  501    0 -0.00000000000E+00 -0.00000000000E+00 -0.10286544228E+03  0.10286544228E+03  0.00000000000E+00 0. -1.
    9000006    2    1    2  501    0  0.00000000000E+00  0.00000000000E+00  0.89713455772E+03  0.11028654423E+04  0.64145285806E+03 0.  0.
         13    1    3    3    0    0 -0.85609649493E+01 -0.31171600912E+03  0.31961473135E+03  0.44653525837E+03  0.00000000000E+00 0. -1.
          4    1    3    3  501    0  0.85609649493E+01  0.31171600912E+03  0.57751982637E+03  0.65633018391E+03  0.00000000000E+00 0. -1.
<mgrwt>
<rscale>  0 0.64145286E+03</rscale>
<asrwt>0</asrwt>
<pdfrwt beam="1">0</pdfrwt>
<pdfrwt beam="2">  1        2 0.37405694E+00 0.64145286E+03</pdfrwt>
<totfact> 0.49745518E+00</totfact>
</mgrwt>
</event>
<event>
 5    1  0.2361924E-004  0.6751335E+03  0.7818608E-02  0.9760728E-01
         13   -1    0    0    0    0  0.00000000000E+00  0.00000000000E+00  0.10000000000E+04  0.10000000000E+04  0.00000000000E+00 0. -1.
          2   -1    0    0  501    0 -0.00000000000E+00 -0.00000000000E+00 -0.11395129964E+03  0.11395129964E+03  0.00000000000E+00 0. -1.
    9000006    2    1    2  501    0  0.00000000000E+00  0.00000000000E+00  0.88604870036E+03  0.11139512996E+04  0.67513346721E+03 0.  0.
         13    1    3    3    0    0 -0.16999941980E+03 -0.24907707158E+03  0.69332085305E+03  0.75606414781E+03  0.00000000000E+00 0. -1.
          2    1    3    3  501    0  0.16999941980E+03  0.24907707158E+03  0.19272784731E+03  0.35788715183E+03  0.00000000000E+00 0. -1.
<mgrwt>
<rscale>  0 0.67513347E+03</rscale>
<asrwt>0</asrwt>
<pdfrwt beam="1">0</pdfrwt>
<pdfrwt beam="2">  1        2 0.41436924E+00 0.67513347E+03</pdfrwt>
<totfact> 0.35080041E+00</totfact>
</mgrwt>
</event>
<event>
 5    1  0.2361924E-004  0.6469731E+03  0.7818608E-02  0.9812476E-01
         13   -1    0    0    0    0  0.00000000000E+00  0.00000000000E+00  0.10000000000E+04  0.10000000000E+04  0.00000000000E+00 0. -1.
          2   -1    0    0  501    0 -0.00000000000E+00 -0.00000000000E+00 -0.10464353743E+03  0.10464353743E+03  0.00000000000E+00 0. -1.
    9000006    2    1    2  501    0  0.00000000000E+00  0.00000000000E+00  0.89535646257E+03  0.11046435374E+04  0.64697306723E+03 0.  0.
         13    1    3    3    0    0  0.18190978052E+03 -0.26740148956E+03  0.45960716865E+03  0.56199063546E+03  0.00000000000E+00 0. -1.
          4    1    3    3  501    0 -0.18190978052E+03  0.26740148956E+03  0.43574929392E+03  0.54265290197E+03  0.00000000000E+00 0. -1.
<mgrwt>
<rscale>  0 0.64697307E+03</rscale>
<asrwt>0</asrwt>
<pdfrwt beam="1">0</pdfrwt>
<pdfrwt beam="2">  1        2 0.38052276E+00 0.64697307E+03</pdfrwt>
<totfact> 0.47071852E+00</totfact>
</mgrwt>
</event>
<event>
 5    1  0.2361924E-004  0.6523391E+03  0.7818608E-02  0.9802400E-01
         13   -1    0    0    0    0  0.00000000000E+00  0.00000000000E+00  0.10000000000E+04  0.10000000000E+04  0.00000000000E+00 0. -1.
          2   -1    0    0  501    0 -0.00000000000E+00 -0.00000000000E+00 -0.10638656205E+03  0.10638656205E+03  0.00000000000E+00 0. -1.
    9000006    2    1    2  501    0  0.00000000000E+00  0.00000000000E+00  0.89361343795E+03  0.11063865620E+04  0.65233905923E+03 0.  0.
         13    1    3    3    0    0 -0.27869319013E+03 -0.16052356359E+03  0.35470661990E+03  0.47880527868E+03  0.00000000000E+00 0. -1.
          2    1    3    3  501    0  0.27869319013E+03  0.16052356359E+03  0.53890681805E+03  0.62758128337E+03  0.00000000000E+00 0. -1.
<mgrwt>
<rscale>  0 0.65233906E+03</rscale>
<asrwt>0</asrwt>
<pdfrwt beam="1">0</pdfrwt>
<pdfrwt beam="2">  1        2 0.38686104E+00 0.65233906E+03</pdfrwt>
<totfact> 0.44578518E+00</totfact>
</mgrwt>
</event>
<event>
 5    1  0.2361924E-004  0.6546664E+03  0.7818608E-02  0.9798062E-01
         13   -1    0    0    0    0  0.00000000000E+00  0.00000000000E+00  0.10000000000E+04  0.10000000000E+04  0.00000000000E+00 0. -1.
          2   -1    0    0  501    0 -0.00000000000E+00 -0.00000000000E+00 -0.10714702013E+03  0.10714702013E+03  0.00000000000E+00 0. -1.
    9000006    2    1    2  501    0  0.00000000000E+00  0.00000000000E+00  0.89285297987E+03  0.11071470201E+04  0.65466638872E+03 0.  0.
         13    1    3    3    0    0  0.15484886192E+03  0.28807293216E+03  0.42355913537E+03  0.53513225042E+03  0.00000000000E+00 0. -1.
          4    1    3    3  501    0 -0.15484886192E+03 -0.28807293216E+03  0.46929384450E+03  0.57201476971E+03  0.00000000000E+00 0. -1.
<mgrwt>
<rscale>  0 0.65466639E+03</rscale>
<asrwt>0</asrwt>
<pdfrwt beam="1">0</pdfrwt>
<pdfrwt beam="2">  1        2 0.38962635E+00 0.65466639E+03</pdfrwt>
<totfact> 0.43528714E+00</totfact>
</mgrwt>
</event>
<event>
 5    1  0.2361924E-004  0.7026252E+03  0.7818608E-02  0.9712753E-01
         13   -1    0    0    0    0  0.00000000000E+00  0.00000000000E+00  0.10000000000E+04  0.10000000000E+04  0.00000000000E+00 0. -1.
          2   -1    0    0  501    0 -0.00000000000E+00 -0.00000000000E+00 -0.12342055097E+03  0.12342055097E+03  0.00000000000E+00 0. -1.
    9000006    2    1    2  501    0  0.00000000000E+00  0.00000000000E+00  0.87657944903E+03  0.11234205510E+04  0.70262522291E+03 0.  0.
         13    1    3    3    0    0  0.33188730562E+01  0.26928284043E+03  0.79900263141E+03  0.84316633476E+03  0.00000000000E+00 0. -1.
          4    1    3    3  501    0 -0.33188730562E+01 -0.26928284043E+03  0.77576817622E+02  0.28025421621E+03  0.00000000000E+00 0. -1.
<mgrwt>
<rscale>  0 0.70262522E+03</rscale>
<asrwt>0</asrwt>
<pdfrwt beam="1">0</pdfrwt>
<pdfrwt beam="2">  1        2 0.44880295E+00 0.70262522E+03</pdfrwt>
<totfact> 0.25750728E+00</totfact>
</mgrwt>
</event>
<event>
 5    1  0.2361924E-004  0.6494400E+03  0.7818608E-02  0.9807831E-01
         13   -1    0    0    0    0  0.00000000000E+00  0.00000000000E+00  0.10000000000E+04  0.10000000000E+04  0.00000000000E+00 0. -1.
          2   -1    0    0  501    0 -0.00000000000E+00 -0.00000000000E+00 -0.10544308603E+03  0.10544308603E+03  0.00000000000E+00 0. -1.
    9000006    2    1    2  501    0  0.00000000000E+00  0.00000000000E+00  0.89455691397E+03  0.11054430860E+04  0.64944002350E+03 0.  0.
         13    1    3    3    0    0 -0.34218162189E+02 -0.31181070762E+03  0.30439647294E+03  0.43709725777E+03  0.00000000000E+00 0. -1.
          4    1    3    3  501    0  0.34218162189E+02  0.31181070762E+03  0.59016044103E+03  0.66834582827E+03  0.00000000000E+00 0. -1.
<mgrwt>
<rscale>  0 0.64944002E+03</rscale>
<asrwt>0</asrwt>
<pdfrwt beam="1">0</pdfrwt>
<pdfrwt beam="2">  1        2 0.38343021E+00 0.64944002E+03</pdfrwt>
<totfact> 0.45912828E+00</totfact>
</mgrwt>
</event>
<event>
 5    1  0.2361924E-004  0.6296921E+03  0.7818608E-02  0.9845650E-01
         13   -1    0    0    0    0  0.00000000000E+00  0.00000000000E+00  0.10000000000E+04  0.10000000000E+04  0.00000000000E+00 0. -1.
          2   -1    0    0  501    0 -0.00000000000E+00 -0.00000000000E+00 -0.99128028697E+02  0.99128028697E+02  0.00000000000E+00 0. -1.
    9000006    2    1    2  501    0  0.00000000000E+00  0.00000000000E+00  0.90087197130E+03  0.10991280287E+04  0.62969207934E+03 0.  0.
         13    1    3    3    0    0 -0.23779832059E+03  0.14939825823E+03  0.20198463753E+03  0.34592726785E+03  0.00000000000E+00 0. -1.
          4    1    3    3  501    0  0.23779832059E+03 -0.14939825823E+03  0.69888733377E+03  0.75320076085E+03  0.00000000000E+00 0. -1.
<mgrwt>
<rscale>  0 0.62969208E+03</rscale>
<asrwt>0</asrwt>
<pdfrwt beam="1">0</pdfrwt>
<pdfrwt beam="2">  1        2 0.36046632E+00 0.62969208E+03</pdfrwt>
<totfact> 0.55824668E+00</totfact>
</mgrwt>
</event>
<event>
 5    1  0.2361924E-004  0.6542115E+03  0.7818608E-02  0.9798909E-01
         13   -1    0    0    0    0  0.00000000000E+00  0.00000000000E+00  0.10000000000E+04  0.10000000000E+04  0.00000000000E+00 0. -1.
          2   -1    0    0  501    0 -0.00000000000E+00 -0.00000000000E+00 -0.10699817227E+03  0.10699817227E+03  0.00000000000E+00 0. -1.
    9000006    2    1    2  501    0  0.00000000000E+00  0.00000000000E+00  0.89300182773E+03  0.11069981723E+04  0.65421150180E+03 0.  0.
         13    1    3    3    0    0  0.14261305568E+03  0.13970146437E+03  0.80411836319E+01  0.19979900759E+03  0.00000000000E+00 0. -1.
          4    1    3    3  501    0 -0.14261305568E+03 -0.13970146437E+03  0.88496064410E+03  0.90719916468E+03  0.00000000000E+00 0. -1.
<mgrwt>
<rscale>  0 0.65421150E+03</rscale>
<asrwt>0</asrwt>
<pdfrwt beam="1">0</pdfrwt>
<pdfrwt beam="2">  1        2 0.38908508E+00 0.65421150E+03</pdfrwt>
<totfact> 0.43732419E+00</totfact>
</mgrwt>
</event>
<event>
 5    1  0.2361924E-004  0.6646491E+03  0.7818608E-02  0.9779673E-01
         13   -1    0    0    0    0  0.00000000000E+00  0.00000000000E+00  0.10000000000E+04  0.10000000000E+04  0.00000000000E+00 0. -1.
          2   -1    0    0  501    0 -0.00000000000E+00 -0.00000000000E+00 -0.11043961222E+03  0.11043961222E+03  0.00000000000E+00 0. -1.
    9000006    2    1    2  501    0  0.00000000000E+00  0.00000000000E+00  0.88956038778E+03  0.11104396122E+04  0.66464911712E+03 0.  0.
         13    1    3    3    0    0  0.32250908466E+03 -0.18530038187E+02  0.31446287965E+03  0.45082410615E+03  0.00000000000E+00 0. -1.
          2    1    3    3  501    0 -0.32250908466E+03  0.18530038187E+02  0.57509750813E+03  0.65961550608E+03  0.00000000000E+00 0. -1.
<mgrwt>
<rscale>  0 0.66464912E+03</rscale>
<asrwt>0</asrwt>
<pdfrwt beam="1">0</pdfrwt>
<pdfrwt beam="2">  1        2 0.40159944E+00 0.66464912E+03</pdfrwt>
<totfact> 0.39236119E+00</totfact>
</mgrwt>
</event>
<event>
 5    1  0.2361924E-004  0.6021740E+03  0.7818608E-02  0.9900906E-01
         13   -1    0    0    0    0  0.00000000000E+00  0.00000000000E+00  0.10000000000E+04  0.10000000000E+04  0.00000000000E+00 0. -1.
          2   -1    0    0  501    0 -0.00000000000E+00 -0.00000000000E+00 -0.90653371666E+02  0.90653371666E+02  0.00000000000E+00 0. -1.
    9000006    2    1    2  501    0  0.00000000000E+00  0.00000000000E+00  0.90934662833E+03  0.10906533717E+04  0.60217396711E+03 0.  0.
         13    1    3    3    0    0 -0.12322114448E+03  0.26608418479E+03  0.33091264421E+03  0.44213959553E+03  0.00000000000E+00 0. -1.
          2    1    3    3  501    0  0.12322114448E+03 -0.26608418479E+03  0.57843398412E+03  0.64851377613E+03  0.00000000000E+00 0. -1.
<mgrwt>
<rscale>  0 0.60217397E+03</rscale>
<asrwt>0</asrwt>
<pdfrwt beam="1">0</pdfrwt>
<pdfrwt beam="2">  1        2 0.32964932E+00 0.60217397E+03</pdfrwt>
<totfact> 0.72253601E+00</totfact>
</mgrwt>
</event>
<event>
 5    1  0.2361924E-004  0.6505473E+03  0.7818608E-02  0.9805753E-01
         13   -1    0    0    0    0  0.00000000000E+00  0.00000000000E+00  0.10000000000E+04  0.10000000000E+04  0.00000000000E+00 0. -1.
          2   -1    0    0  501    0 -0.00000000000E+00 -0.00000000000E+00 -0.10580295835E+03  0.10580295835E+03  0.00000000000E+00 0. -1.
    9000006    2    1    2  501    0  0.00000000000E+00  0.00000000000E+00  0.89419704165E+03  0.11058029583E+04  0.65054733370E+03 0.  0.
         13    1    3    3    0    0  0.45657258454E+02  0.31619121404E+03  0.55107164594E+03  0.63697835759E+03  0.00000000000E+00 0. -1.
          2    1    3    3  501    0 -0.45657258454E+02 -0.31619121404E+03  0.34312539572E+03  0.46882460075E+03  0.00000000000E+00 0. -1.
<mgrwt>
<rscale>  0 0.65054733E+03</rscale>
<asrwt>0</asrwt>
<pdfrwt beam="1">0</pdfrwt>
<pdfrwt beam="2">  1        2 0.38473884E+00 0.65054733E+03</pdfrwt>
<totfact> 0.45399666E+00</totfact>
</mgrwt>
</event>
<event>
 5    1  0.2361924E-004  0.6528862E+03  0.7818608E-02  0.9801378E-01
         13   -1    0    0    0    0  0.00000000000E+00  0.00000000000E+00  0.10000000000E+04  0.10000000000E+04  0.00000000000E+00 0. -1.
          2   -1    0    0  501    0 -0.00000000000E+00 -0.00000000000E+00 -0.10656510245E+03  0.10656510245E+03  0.00000000000E+00 0. -1.
    9000006    2    1    2  501    0  0.00000000000E+00  0.00000000000E+00  0.89343489755E+03  0.11065651024E+04  0.65288621505E+03 0.  0.
         13    1    3    3    0    0 -0.28508721712E+03 -0.52011548695E+02  0.70143052898E+03  0.75893656491E+03  0.00000000000E+00 0. -1.
          2    1    3    3  501    0  0.28508721712E+03  0.52011548695E+02  0.19200436857E+03  0.34762853754E+03  0.00000000000E+00 0. -1.
<mgrwt>
<rscale>  0 0.65288622E+03</rscale>
<asrwt>0</asrwt>
<pdfrwt beam="1">0</pdfrwt>
<pdfrwt beam="2">  1        2 0.38751028E+00 0.65288622E+03</pdfrwt>
<totfact> 0.44330008E+00</totfact>
</mgrwt>
</event>
<event>
 5    1  0.2361924E-004  0.6483224E+03  0.7818608E-02  0.9809932E-01
         13   -1    0    0    0    0  0.00000000000E+00  0.00000000000E+00  0.10000000000E+04  0.10000000000E+04  0.00000000000E+00 0. -1.
          2   -1    0    0  501    0 -0.00000000000E+00 -0.00000000000E+00 -0.10508049916E+03  0.10508049916E+03  0.00000000000E+00 0. -1.
    9000006    2    1    2  501    0  0.00000000000E+00  0.00000000000E+00  0.89491950084E+03  0.11050804992E+04  0.64832244806E+03 0.  0.
         13    1    3    3    0    0  0.28478659116E+03  0.94421520800E+01  0.71090612581E+03  0.76588515879E+03  0.00000000000E+00 0. -1.
          4    1    3    3  501    0 -0.28478659116E+03 -0.94421520800E+01  0.18401337502E+03  0.33919534037E+03  0.00000000000E+00 0. -1.
<mgrwt>
<rscale>  0 0.64832245E+03</rscale>
<asrwt>0</asrwt>
<pdfrwt beam="1">0</pdfrwt>
<pdfrwt beam="2">  1        2 0.38211171E+00 0.64832245E+03</pdfrwt>
<totfact> 0.46435181E+00</totfact>
</mgrwt>
</event>
<event>
 5    1  0.2361924E-004  0.6526776E+03  0.7818608E-02  0.9801768E-01
         13   -1    0    0    0    0  0.00000000000E+00  0.00000000000E+00  0.10000000000E+04  0.10000000000E+04  0.00000000000E+00 0. -1.
          2   -1    0    0  501    0 -0.00000000000E+00 -0.00000000000E+00 -0.10649702213E+03  0.10649702213E+03  0.00000000000E+00 0. -1.
    9000006    2    1    2  501    0  0.00000000000E+00  0.00000000000E+00  0.89350297787E+03  0.11064970221E+04  0.65267762988E+03 0.  0.
         13    1    3    3    0    0 -0.27178791400E+03 -0.17717377253E+03  0.38710596471E+03  0.50508439273E+03  0.00000000000E+00 0. -1.
          2    1    3    3  501    0  0.27178791400E+03  0.17717377253E+03  0.50639701316E+03  0.60141262940E+03  0.00000000000E+00 0. -1.
<mgrwt>
<rscale>  0 0.65267763E+03</rscale>
<asrwt>0</asrwt>
<pdfrwt beam="1">0</pdfrwt>
<pdfrwt beam="2">  1        2 0.38726272E+00 0.65267763E+03</pdfrwt>
<totfact> 0.44424621E+00</totfact>
</mgrwt>
</event>
<event>
 5    1  0.2361924E-004  0.6491717E+03  0.7818608E-02  0.9808335E-01
         13   -1    0    0    0    0  0.00000000000E+00  0.00000000000E+00  0.10000000000E+04  0.10000000000E+04  0.00000000000E+00 0. -1.
          2   -1    0    0  501    0 -0.00000000000E+00 -0.00000000000E+00 -0.10535595898E+03  0.10535595898E+03  0.00000000000E+00 0. -1.
    9000006    2    1    2  501    0  0.00000000000E+00  0.00000000000E+00  0.89464404102E+03  0.11053559590E+04  0.64917165366E+03 0.  0.
         13    1    3    3    0    0  0.24261919715E+03  0.11631685330E+03  0.75645916437E+03  0.80288489371E+03  0.00000000000E+00 0. -1.
          2    1    3    3  501    0 -0.24261919715E+03 -0.11631685330E+03  0.13818487665E+03  0.30247106527E+03  0.00000000000E+00 0. -1.
<mgrwt>
<rscale>  0 0.64917165E+03</rscale>
<asrwt>0</asrwt>
<pdfrwt beam="1">0</pdfrwt>
<pdfrwt beam="2">  1        2 0.38311339E+00 0.64917165E+03</pdfrwt>
<totfact> 0.46037856E+00</totfact>
</mgrwt>
</event>
<event>
 5    1  0.2361924E-004  0.6378236E+03  0.7818608E-02  0.9829899E-01
         13   -1    0    0    0    0  0.00000000000E+00  0.00000000000E+00  0.10000000000E+04  0.10000000000E+04  0.00000000000E+00 0. -1.
          2   -1    0    0  501    0 -0.00000000000E+00 -0.00000000000E+00 -0.10170474945E+03  0.10170474945E+03  0.00000000000E+00 0. -1.
    9000006    2    1    2  501    0  0.00000000000E+00  0.00000000000E+00  0.89829525055E+03  0.11017047495E+04  0.63782364162E+03 0.  0.
         13    1    3    3    0    0 -0.11995062475E+03  0.27244412872E+03  0.64677522682E+03  0.71199167810E+03  0.00000000000E+00 0. -1.
          4    1    3    3  501    0  0.11995062475E+03 -0.27244412872E+03  0.25152002372E+03  0.38971307135E+03  0.00000000000E+00 0. -1.
<mgrwt>
<rscale>  0 0.63782364E+03</rscale>
<asrwt>0</asrwt>
<pdfrwt beam="1">0</pdfrwt>
<pdfrwt beam="2">  1        2 0.36983623E+00 0.63782364E+03</pdfrwt>
<totfact> 0.51565021E+00</totfact>
</mgrwt>
</event>
<event>
 5    1  0.2361924E-004  0.6404035E+03  0.7818608E-02  0.9824955E-01
         13   -1    0    0    0    0  0.00000000000E+00  0.00000000000E+00  0.10000000000E+04  0.10000000000E+04  0.00000000000E+00 0. -1.
          2   -1    0    0  501    0 -0.00000000000E+00 -0.00000000000E+00 -0.10252915595E+03  0.10252915595E+03  0.00000000000E+00 0. -1.
    9000006    2    1    2  501    0  0.00000000000E+00  0.00000000000E+00  0.89747084405E+03  0.11025291559E+04  0.64040348515E+03 0.  0.
         13    1    3    3    0    0  0.24993886557E+03  0.11504050481E+03  0.73070971292E+03  0.78079474820E+03  0.00000000000E+00 0. -1.
          4    1    3    3  501    0 -0.24993886557E+03 -0.11504050481E+03  0.16676113113E+03  0.32173440774E+03  0.00000000000E+00 0. -1.
<mgrwt>
<rscale>  0 0.64040349E+03</rscale>
<asrwt>0</asrwt>
<pdfrwt beam="1">0</pdfrwt>
<pdfrwt beam="2">  1        2 0.37283408E+00 0.64040349E+03</pdfrwt>
<totfact> 0.50266539E+00</totfact>
</mgrwt>
</event>
<event>
 5    1  0.2361924E-004  0.6539199E+03  0.7818608E-02  0.9799451E-01
         13   -1    0    0    0    0  0.00000000000E+00  0.00000000000E+00  0.10000000000E+04  0.10000000000E+04  0.00000000000E+00 0. -1.
          2   -1    0    0  501    0 -0.00000000000E+00 -0.00000000000E+00 -0.10690282422E+03  0.10690282422E+03  0.00000000000E+00 0. -1.
    9000006    2    1    2  501    0  0.00000000000E+00  0.00000000000E+00  0.89309717578E+03  0.11069028242E+04  0.65391994683E+03 0.  0.
         13    1    3    3    0    0 -0.26325845337E+03 -0.19721131391E+02  0.77306743591E+03  0.81690097120E+03  0.00000000000E+00 0. -1.
          4    1    3    3  501    0  0.26325845337E+03  0.19721131391E+02  0.12002973988E+03  0.29000185301E+03  0.00000000000E+00 0. -1.
<mgrwt>
<rscale>  0 0.65391995E+03</rscale>
<asrwt>0</asrwt>
<pdfrwt beam="1">0</pdfrwt>
<pdfrwt beam="2">  1        2 0.38873836E+00 0.65391995E+03</pdfrwt>
<totfact> 0.43863360E+00</totfact>
</mgrwt>
</event>
<event>
 5    1  0.2361924E-004  0.6352767E+03  0.7818608E-02  0.9834805E-01
         13   -1    0    0    0    0  0.00000000000E+00  0.00000000000E+00  0.10000000000E+04  0.10000000000E+04  0.00000000000E+00 0. -1.
          2   -1    0    0  501    0 -0.00000000000E+00 -0.00000000000E+00 -0.10089412414E+03  0.10089412414E+03  0.00000000000E+00 0. -1.
    9000006    2    1    2  501    0  0.00000000000E+00  0.00000000000E+00  0.89910587586E+03  0.11008941241E+04  0.63527670866E+03 0.  0.
         13    1    3    3    0    0 -0.17587465381E+03 -0.25246870663E+03  0.58624397295E+03  0.66208333124E+03  0.00000000000E+00 0. -1.
          4    1    3    3  501    0  0.17587465381E+03  0.25246870663E+03  0.31286190291E+03  0.43881079291E+03  0.00000000000E+00 0. -1.
<mgrwt>
<rscale>  0 0.63527671E+03</rscale>
<asrwt>0</asrwt>
<pdfrwt beam="1">0</pdfrwt>
<pdfrwt beam="2">  1        2 0.36688850E+00 0.63527671E+03</pdfrwt>
<totfact> 0.52871711E+00</totfact>
</mgrwt>
</event>
<event>
 5    1  0.2361924E-004  0.6481266E+03  0.7818608E-02  0.9810301E-01
         13   -1    0    0    0    0  0.00000000000E+00  0.00000000000E+00  0.10000000000E+04  0.10000000000E+04  0.00000000000E+00 0. -1.
          2   -1    0    0  501    0 -0.00000000000E+00 -0.00000000000E+00 -0.10501703625E+03  0.10501703625E+03  0.00000000000E+00 0. -1.
    9000006    2    1    2  501    0  0.00000000000E+00  0.00000000000E+00  0.89498296375E+03  0.11050170363E+04  0.64812664273E+03 0.  0.
         13    1    3    3    0    0 -0.16900486612E+03  0.17737710884E+03  0.80913072807E+03  0.84540985245E+03  0.00000000000E+00 0. -1.
          4    1    3    3  501    0  0.16900486612E+03 -0.17737710884E+03  0.85852235674E+02  0.25960718380E+03  0.00000000000E+00 0. -1.
<mgrwt>
<rscale>  0 0.64812664E+03</rscale>
<asrwt>0</asrwt>
<pdfrwt beam="1">0</pdfrwt>
<pdfrwt beam="2">  1        2 0.38188094E+00 0.64812664E+03</pdfrwt>
<totfact> 0.46527160E+00</totfact>
</mgrwt>
</event>
<event>
 5    1  0.2361924E-004  0.6471080E+03  0.7818608E-02  0.9812221E-01
         13   -1    0    0    0    0  0.00000000000E+00  0.00000000000E+00  0.10000000000E+04  0.10000000000E+04  0.00000000000E+00 0. -1.
          2   -1    0    0  501    0 -0.00000000000E+00 -0.00000000000E+00 -0.10468720000E+03  0.10468720000E+03  0.00000000000E+00 0. -1.
    9000006    2    1    2  501    0  0.00000000000E+00  0.00000000000E+00  0.89531280000E+03  0.11046872000E+04  0.64710802809E+03 0.  0.
         13    1    3    3    0    0 -0.17936403676E+03  0.26334574061E+03  0.35162060283E+03  0.47450973132E+03  0.00000000000E+00 0. -1.
          2    1    3    3  501    0  0.17936403676E+03 -0.26334574061E+03  0.54369219717E+03  0.63017746869E+03  0.00000000000E+00 0. -1.
<mgrwt>
<rscale>  0 0.64710803E+03</rscale>
<asrwt>0</asrwt>
<pdfrwt beam="1">0</pdfrwt>
<pdfrwt beam="2">  1        2 0.38068153E+00 0.64710803E+03</pdfrwt>
<totfact> 0.47007879E+00</totfact>
</mgrwt>
</event>
<event>
 5    1  0.2361924E-004  0.6013290E+03  0.7818608E-02  0.9902653E-01
         13   -1    0    0    0    0  0.00000000000E+00  0.00000000000E+00  0.10000000000E+04  0.10000000000E+04  0.00000000000E+00 0. -1.
          2   -1    0    0  501    0 -0.00000000000E+00 -0.00000000000E+00 -0.90399153901E+02  0.90399153901E+02  0.00000000000E+00 0. -1.
    9000006    2    1    2  501    0  0.00000000000E+00  0.00000000000E+00  0.90960084610E+03  0.10903991539E+04  0.60132904105E+03 0.  0.
         13    1    3    3    0    0  0.25122206457E+03  0.12822791527E+02  0.75343206214E+03  0.79431531647E+03  0.00000000000E+00 0. -1.
          2    1    3    3  501    0 -0.25122206457E+03 -0.12822791527E+02  0.15616878396E+03  0.29608383743E+03  0.00000000000E+00 0. -1.
<mgrwt>
<rscale>  0 0.60132904E+03</rscale>
<asrwt>0</asrwt>
<pdfrwt beam="1">0</pdfrwt>
<pdfrwt beam="2">  1        2 0.32872489E+00 0.60132904E+03</pdfrwt>
<totfact> 0.72810468E+00</totfact>
</mgrwt>
</event>
<event>
 5    1  0.2361924E-004  0.6470174E+03  0.7818608E-02  0.9812392E-01
         13   -1    0    0    0    0  0.00000000000E+00  0.00000000000E+00  0.10000000000E+04  0.10000000000E+04  0.00000000000E+00 0. -1.
          2   -1    0    0  501    0 -0.00000000000E+00 -0.00000000000E+00 -0.10465788887E+03  0.10465788887E+03  0.00000000000E+00 0. -1.
    9000006    2    1    2  501    0  0.00000000000E+00  0.00000000000E+00  0.89534211113E+03  0.11046578889E+04  0.64701743060E+03 0.  0.
         13    1    3    3    0    0 -0.99379714776E+02  0.23325093788E+03  0.79073186133E+03  0.83038497352E+03  0.00000000000E+00 0. -1.
          4    1    3    3  501    0  0.99379714776E+02 -0.23325093788E+03  0.10461024980E+03  0.27427291535E+03  0.00000000000E+00 0. -1.
<mgrwt>
<rscale>  0 0.64701743E+03</rscale>
<asrwt>0</asrwt>
<pdfrwt beam="1">0</pdfrwt>
<pdfrwt beam="2">  1        2 0.38057494E+00 0.64701743E+03</pdfrwt>
<totfact> 0.47050816E+00</totfact>
</mgrwt>
</event>
<event>
 5    1  0.2361924E-004  0.7187238E+03  0.7818608E-02  0.9685737E-01
         13   -1    0    0    0    0  0.00000000000E+00  0.00000000000E+00  0.10000000000E+04  0.10000000000E+04  0.00000000000E+00 0. -1.
          2   -1    0    0  501    0 -0.00000000000E+00 -0.00000000000E+00 -0.12914096983E+03  0.12914096983E+03  0.00000000000E+00 0. -1.
    9000006    2    1    2  501    0  0.00000000000E+00  0.00000000000E+00  0.87085903017E+03  0.11291409698E+04  0.71872378513E+03 0.  0.
         13    1    3    3    0    0 -0.15452294960E+03 -0.21184157690E+03  0.49367508664E+02  0.26681706574E+03  0.00000000000E+00 0. -1.
          4    1    3    3  501    0  0.15452294960E+03  0.21184157690E+03  0.82149152151E+03  0.86232390409E+03  0.00000000000E+00 0. -1.
<mgrwt>
<rscale>  0 0.71872379E+03</rscale>
<asrwt>0</asrwt>
<pdfrwt beam="1">0</pdfrwt>
<pdfrwt beam="2">  1        2 0.46960452E+00 0.71872379E+03</pdfrwt>
<totfact> 0.21238021E+00</totfact>
</mgrwt>
</event>
<event>
 5    1  0.2361924E-004  0.6456485E+03  0.7818608E-02  0.9814979E-01
         13   -1    0    0    0    0  0.00000000000E+00  0.00000000000E+00  0.10000000000E+04  0.10000000000E+04  0.00000000000E+00 0. -1.
          2   -1    0    0  501    0 -0.00000000000E+00 -0.00000000000E+00 -0.10421549618E+03  0.10421549618E+03  0.00000000000E+00 0. -1.
    9000006    2    1    2  501    0  0.00000000000E+00  0.00000000000E+00  0.89578450382E+03  0.11042154962E+04  0.64564849936E+03 0.  0.
         13    1    3    3    0    0  0.15509400943E+03 -0.22890745256E+03  0.16292909173E+03  0.32093404701E+03  0.00000000000E+00 0. -1.
          4    1    3    3  501    0 -0.15509400943E+03  0.22890745256E+03  0.73285541208E+03  0.78328144917E+03  0.00000000000E+00 0. -1.
<mgrwt>
<rscale>  0 0.64564850E+03</rscale>
<asrwt>0</asrwt>
<pdfrwt beam="1">0</pdfrwt>
<pdfrwt beam="2">  1        2 0.37896624E+00 0.64564850E+03</pdfrwt>
<totfact> 0.47703216E+00</totfact>
</mgrwt>
</event>
<event>
 5    1  0.2361924E-004  0.6364543E+03  0.7818608E-02  0.9832534E-01
         13   -1    0    0    0    0  0.00000000000E+00  0.00000000000E+00  0.10000000000E+04  0.10000000000E+04  0.00000000000E+00 0. -1.
          2   -1    0    0  501    0 -0.00000000000E+00 -0.00000000000E+00 -0.10126850632E+03  0.10126850632E+03  0.00000000000E+00 0. -1.
    9000006    2    1    2  501    0  0.00000000000E+00  0.00000000000E+00  0.89873149368E+03  0.11012685063E+04  0.63645426015E+03 0.  0.
         13    1    3    3    0    0  0.20520636349E+03 -0.24321642495E+03  0.44564442299E+03  0.54759732718E+03  0.00000000000E+00 0. -1.
          2    1    3    3  501    0 -0.20520636349E+03  0.24321642495E+03  0.45308707069E+03  0.55367117914E+03  0.00000000000E+00 0. -1.
<mgrwt>
<rscale>  0 0.63645426E+03</rscale>
<asrwt>0</asrwt>
<pdfrwt beam="1">0</pdfrwt>
<pdfrwt beam="2">  1        2 0.36824989E+00 0.63645426E+03</pdfrwt>
<totfact> 0.52264494E+00</totfact>
</mgrwt>
</event>
<event>
 5    1  0.2361924E-004  0.6943054E+03  0.7818608E-02  0.9727021E-01
         13   -1    0    0    0    0  0.00000000000E+00  0.00000000000E+00  0.10000000000E+04  0.10000000000E+04  0.00000000000E+00 0. -1.
          2   -1    0    0  501    0 -0.00000000000E+00 -0.00000000000E+00 -0.12051498458E+03  0.12051498458E+03  0.00000000000E+00 0. -1.
    9000006    2    1    2  501    0  0.00000000000E+00  0.00000000000E+00  0.87948501542E+03  0.11205149846E+04  0.69430536388E+03 0.  0.
         13    1    3    3    0    0  0.12892494310E+03 -0.22229344848E+03  0.63054687584E+02  0.26459764137E+03  0.00000000000E+00 0. -1.
          2    1    3    3  501    0 -0.12892494310E+03  0.22229344848E+03  0.81643032784E+03  0.85591734321E+03  0.00000000000E+00 0. -1.
<mgrwt>
<rscale>  0 0.69430536E+03</rscale>
<asrwt>0</asrwt>
<pdfrwt beam="1">0</pdfrwt>
<pdfrwt beam="2">  1        2 0.43823723E+00 0.69430536E+03</pdfrwt>
<totfact> 0.28347709E+00</totfact>
</mgrwt>
</event>
<event>
 5    1  0.2361924E-004  0.6518535E+03  0.7818608E-02  0.9803307E-01
         13   -1    0    0    0    0  0.00000000000E+00  0.00000000000E+00  0.10000000000E+04  0.10000000000E+04  0.00000000000E+00 0. -1.
          2   -1    0    0  501    0 -0.00000000000E+00 -0.00000000000E+00 -0.10622826031E+03  0.10622826031E+03  0.00000000000E+00 0. -1.
    9000006    2    1    2  501    0  0.00000000000E+00  0.00000000000E+00  0.89377173969E+03  0.11062282603E+04  0.65185354278E+03 0.  0.
         13    1    3    3    0    0 -0.43054151926E+02  0.25790148693E+02  0.99340318122E+03  0.99467013237E+03  0.00000000000E+00 0. -1.
          2    1    3    3  501    0  0.43054151926E+02 -0.25790148693E+02 -0.99631441531E+02  0.11155812794E+03  0.00000000000E+00 0. -1.
<mgrwt>
<rscale>  0 0.65185354E+03</rscale>
<asrwt>0</asrwt>
<pdfrwt beam="1">0</pdfrwt>
<pdfrwt beam="2">  1        2 0.38628540E+00 0.65185354E+03</pdfrwt>
<totfact> 0.44799913E+00</totfact>
</mgrwt>
</event>
<event>
 5    1  0.2361924E-004  0.6665466E+03  0.7818608E-02  0.9776217E-01
         13   -1    0    0    0    0  0.00000000000E+00  0.00000000000E+00  0.10000000000E+04  0.10000000000E+04  0.00000000000E+00 0. -1.
          2   -1    0    0  501    0 -0.00000000000E+00 -0.00000000000E+00 -0.11107108972E+03  0.11107108972E+03  0.00000000000E+00 0. -1.
    9000006    2    1    2  501    0  0.00000000000E+00  0.00000000000E+00  0.88892891028E+03  0.11110710897E+04  0.66654659167E+03 0.  0.
         13    1    3    3    0    0 -0.27060265957E+03  0.19441615877E+03  0.45597064793E+03  0.56474124511E+03  0.00000000000E+00 0. -1.
          2    1    3    3  501    0  0.27060265957E+03 -0.19441615877E+03  0.43295826236E+03  0.54632984460E+03  0.00000000000E+00 0. -1.
<mgrwt>
<rscale>  0 0.66654659E+03</rscale>
<asrwt>0</asrwt>
<pdfrwt beam="1">0</pdfrwt>
<pdfrwt beam="2">  1        2 0.40389572E+00 0.66654659E+03</pdfrwt>
<totfact> 0.38457787E+00</totfact>
</mgrwt>
</event>
<event>
 5    1  0.2361924E-004  0.5873153E+03  0.7818608E-02  0.9932078E-01
         13   -1    0    0    0    0  0.00000000000E+00  0.00000000000E+00  0.10000000000E+04  0.10000000000E+04  0.00000000000E+00 0. -1.
          2   -1    0    0  501    0 -0.00000000000E+00 -0.00000000000E+00 -0.86234808115E+02  0.86234808115E+02  0.00000000000E+00 0. -1.
    9000006    2    1    2  501    0  0.00000000000E+00  0.00000000000E+00  0.91376519188E+03  0.10862348081E+04  0.58731527518E+03 0.  0.
         13    1    3    3    0    0  0.14319456513E+03 -0.23167505568E+03  0.65996314331E+03  0.71395333562E+03  0.00000000000E+00 0. -1.
          4    1    3    3  501    0 -0.14319456513E+03  0.23167505568E+03  0.25380204857E+03  0.37228147250E+03  0.00000000000E+00 0. -1.
<mgrwt>
<rscale>  0 0.58731528E+03</rscale>
<asrwt>0</asrwt>
<pdfrwt beam="1">0</pdfrwt>
<pdfrwt beam="2">  1        2 0.31358178E+00 0.58731528E+03</pdfrwt>
<totfact> 0.82541015E+00</totfact>
</mgrwt>
</event>
<event>
 5    1  0.2361924E-004  0.6536432E+03  0.7818608E-02  0.9799967E-01
         13   -1    0    0    0    0  0.00000000000E+00  0.00000000000E+00  0.10000000000E+04  0.10000000000E+04  0.00000000000E+00 0. -1.
          2   -1    0    0  501    0 -0.00000000000E+00 -0.00000000000E+00 -0.10681235264E+03  0.10681235264E+03  0.00000000000E+00 0. -1.
    9000006    2    1    2  501    0  0.00000000000E+00  0.00000000000E+00  0.89318764736E+03  0.11068123526E+04  0.65364318291E+03 0.  0.
         13    1    3    3    0    0 -0.15540541321E+03  0.13792602833E+01  0.93342673664E+03  0.94627597321E+03  0.00000000000E+00 0. -1.
          2    1    3    3  501    0  0.15540541321E+03 -0.13792602833E+01 -0.40239089277E+02  0.16053637943E+03  0.00000000000E+00 0. -1.
<mgrwt>
<rscale>  0 0.65364318E+03</rscale>
<asrwt>0</asrwt>
<pdfrwt beam="1">0</pdfrwt>
<pdfrwt beam="2">  1        2 0.38840937E+00 0.65364318E+03</pdfrwt>
<totfact> 0.43987931E+00</totfact>
</mgrwt>
</event>
<event>
 5    1  0.2361924E-004  0.6477072E+03  0.7818608E-02  0.9811091E-01
         13   -1    0    0    0    0  0.00000000000E+00  0.00000000000E+00  0.10000000000E+04  0.10000000000E+04  0.00000000000E+00 0. -1.
          2   -1    0    0  501    0 -0.00000000000E+00 -0.00000000000E+00 -0.10488115439E+03  0.10488115439E+03  0.00000000000E+00 0. -1.
    9000006    2    1    2  501    0  0.00000000000E+00  0.00000000000E+00  0.89511884561E+03  0.11048811544E+04  0.64770720049E+03 0.  0.
         13    1    3    3    0    0  0.17573786717E+03  0.18946404099E+01 -0.16458129778E+02  0.17651701803E+03  0.00000000000E+00 0. -1.
          2    1    3    3  501    0 -0.17573786717E+03 -0.18946404099E+01  0.91157697539E+03  0.92836413636E+03  0.00000000000E+00 0. -1.
<mgrwt>
<rscale>  0 0.64770720E+03</rscale>
<asrwt>0</asrwt>
<pdfrwt beam="1">0</pdfrwt>
<pdfrwt beam="2">  1        2 0.38138682E+00 0.64770720E+03</pdfrwt>
<totfact> 0.46724657E+00</totfact>
</mgrwt>
</event>
<event>
 5    1  0.2361924E-004  0.6437692E+03  0.7818608E-02  0.9818542E-01
         13   -1    0    0    0    0  0.00000000000E+00  0.00000000000E+00  0.10000000000E+04  0.10000000000E+04  0.00000000000E+00 0. -1.
          2   -1    0    0  501    0 -0.00000000000E+00 -0.00000000000E+00 -0.10360968450E+03  0.10360968450E+03  0.00000000000E+00 0. -1.
    9000006    2    1    2  501    0  0.00000000000E+00  0.00000000000E+00  0.89639031550E+03  0.11036096845E+04  0.64376916514E+03 0.  0.
         13    1    3    3    0    0 -0.21655622577E+03  0.92392579600E+01  0.85613852477E+03  0.88315068725E+03  0.00000000000E+00 0. -1.
          2    1    3    3  501    0  0.21655622577E+03 -0.92392579600E+01  0.40251790736E+02  0.22045899724E+03  0.00000000000E+00 0. -1.
<mgrwt>
<rscale>  0 0.64376917E+03</rscale>
<asrwt>0</asrwt>
<pdfrwt beam="1">0</pdfrwt>
<pdfrwt beam="2">  1        2 0.37676328E+00 0.64376917E+03</pdfrwt>
<totfact> 0.48609981E+00</totfact>
</mgrwt>
</event>
<event>
 5    1  0.2361924E-004  0.6431759E+03  0.7818608E-02  0.9819669E-01
         13   -1    0    0    0    0  0.00000000000E+00  0.00000000000E+00  0.10000000000E+04  0.10000000000E+04  0.00000000000E+00 0. -1.
          2   -1    0    0  501    0 -0.00000000000E+00 -0.00000000000E+00 -0.10341881127E+03  0.10341881127E+03  0.00000000000E+00 0. -1.
    9000006    2    1    2  501    0  0.00000000000E+00  0.00000000000E+00  0.89658118873E+03  0.11034188113E+04  0.64317590524E+03 0.  0.
         13    1    3    3    0    0 -0.23886267423E+02 -0.19283494115E+03  0.88790385990E+03  0.90891646081E+03  0.00000000000E+00 0. -1.
          2    1    3    3  501    0  0.23886267423E+02  0.19283494115E+03  0.86773288304E+01  0.19450235047E+03  0.00000000000E+00 0. -1.
<mgrwt>
<rscale>  0 0.64317591E+03</rscale>
<asrwt>0</asrwt>
<pdfrwt beam="1">0</pdfrwt>
<pdfrwt beam="2">  1        2 0.37606920E+00 0.64317591E+03</pdfrwt>
<totfact> 0.48898915E+00</totfact>
</mgrwt>
</event>
<event>
 5    1  0.2361924E-004  0.6514960E+03  0.7818608E-02  0.9803976E-01
         13   -1    0    0    0    0  0.00000000000E+00  0.00000000000E+00  0.10000000000E+04  0.10000000000E+04  0.00000000000E+00 0. -1.
          2   -1    0    0  501    0 -0.00000000000E+00 -0.00000000000E+00 -0.10611177032E+03  0.10611177032E+03  0.00000000000E+00 0. -1.
    9000006    2    1    2  501    0  0.00000000000E+00  0.00000000000E+00  0.89388822968E+03  0.11061117703E+04  0.65149603320E+03 0.  0.
         13    1    3    3    0    0 -0.22050856861E+03  0.23540561610E+03  0.52422561664E+03  0.61550981313E+03  0.00000000000E+00 0. -1.
          2    1    3    3  501    0  0.22050856861E+03 -0.23540561610E+03  0.36966261304E+03  0.49060195719E+03  0.00000000000E+00 0. -1.
<mgrwt>
<rscale>  0 0.65149603E+03</rscale>
<asrwt>0</asrwt>
<pdfrwt beam="1">0</pdfrwt>
<pdfrwt beam="2">  1        2 0.38586180E+00 0.65149603E+03</pdfrwt>
<totfact> 0.44963466E+00</totfact>
</mgrwt>
</event>
<event>
 5    1  0.2361924E-004  0.6399817E+03  0.7818608E-02  0.9825762E-01
         13   -1    0    0    0    0  0.00000000000E+00  0.00000000000E+00  0.10000000000E+04  0.10000000000E+04  0.00000000000E+00 0. -1.
          2   -1    0    0  501    0 -0.00000000000E+00 -0.00000000000E+00 -0.10239414466E+03  0.10239414466E+03  0.00000000000E+00 0. -1.
    9000006    2    1    2  501    0  0.00000000000E+00  0.00000000000E+00  0.89760585534E+03  0.11023941447E+04  0.63998170180E+03 0.  0.
         13    1    3    3    0    0  0.37604789915E+02 -0.31390986159E+03  0.36370485756E+03  0.48190740277E+03  0.00000000000E+00 0. -1.
          2    1    3    3  501    0 -0.37604789915E+02  0.31390986159E+03  0.53390099779E+03  0.62048674189E+03  0.00000000000E+00 0. -1.
<mgrwt>
<rscale>  0 0.63998170E+03</rscale>
<asrwt>0</asrwt>
<pdfrwt beam="1">0</pdfrwt>
<pdfrwt beam="2">  1        2 0.37234313E+00 0.63998170E+03</pdfrwt>
<totfact> 0.50477117E+00</totfact>
</mgrwt>
</event>
<event>
 5    1  0.2361924E-004  0.6485829E+03  0.7818608E-02  0.9809442E-01
         13   -1    0    0    0    0  0.00000000000E+00  0.00000000000E+00  0.10000000000E+04  0.10000000000E+04  0.00000000000E+00 0. -1.
          2   -1    0    0  501    0 -0.00000000000E+00 -0.00000000000E+00 -0.10516495090E+03  0.10516495090E+03  0.00000000000E+00 0. -1.
    9000006    2    1    2  501    0  0.00000000000E+00  0.00000000000E+00  0.89483504910E+03  0.11051649509E+04  0.64858291960E+03 0.  0.
         13    1    3    3    0    0  0.73410106679E+02 -0.29981919444E+03  0.61682626928E+03  0.68975012837E+03  0.00000000000E+00 0. -1.
          4    1    3    3  501    0 -0.73410106679E+02  0.29981919444E+03  0.27800877982E+03  0.41541482253E+03  0.00000000000E+00 0. -1.
<mgrwt>
<rscale>  0 0.64858292E+03</rscale>
<asrwt>0</asrwt>
<pdfrwt beam="1">0</pdfrwt>
<pdfrwt beam="2">  1        2 0.38241881E+00 0.64858292E+03</pdfrwt>
<totfact> 0.46313037E+00</totfact>
</mgrwt>
</event>
<event>
 5    1  0.2361924E-004  0.6529606E+03  0.7818608E-02  0.9801240E-01
         13   -1    0    0    0    0  0.00000000000E+00  0.00000000000E+00  0.10000000000E+04  0.10000000000E+04  0.00000000000E+00 0. -1.
          2   -1    0    0  501    0 -0.00000000000E+00 -0.00000000000E+00 -0.10658939662E+03  0.10658939662E+03  0.00000000000E+00 0. -1.
    9000006    2    1    2  501    0  0.00000000000E+00  0.00000000000E+00  0.89341060338E+03  0.11065893966E+04  0.65296063166E+03 0.  0.
         13    1    3    3    0    0  0.14757324947E+03  0.10077411419E+03 -0.16349281508E+02  0.17944521464E+03  0.00000000000E+00 0. -1.
          2    1    3    3  501    0 -0.14757324947E+03 -0.10077411419E+03  0.90975988488E+03  0.92714418199E+03  0.00000000000E+00 0. -1.
<mgrwt>
<rscale>  0 0.65296063E+03</rscale>
<asrwt>0</asrwt>
<pdfrwt beam="1">0</pdfrwt>
<pdfrwt beam="2">  1        2 0.38759862E+00 0.65296063E+03</pdfrwt>
<totfact> 0.44296290E+00</totfact>
</mgrwt>
</event>
<event>
 5    1  0.2361924E-004  0.6573826E+03  0.7818608E-02  0.9793024E-01
         13   -1    0    0    0    0  0.00000000000E+00  0.00000000000E+00  0.10000000000E+04  0.10000000000E+04  0.00000000000E+00 0. -1.
          2   -1    0    0  501    0 -0.00000000000E+00 -0.00000000000E+00 -0.10803796717E+03  0.10803796717E+03  0.00000000000E+00 0. -1.
    9000006    2    1    2  501    0  0.00000000000E+00  0.00000000000E+00  0.89196203283E+03  0.11080379672E+04  0.65738258926E+03 0.  0.
         13    1    3    3    0    0  0.25615115944E+03  0.35971967068E+01  0.79310036986E+03  0.83344739065E+03  0.00000000000E+00 0. -1.
          2    1    3    3  501    0 -0.25615115944E+03 -0.35971967068E+01  0.98861662972E+02  0.27459057652E+03  0.00000000000E+00 0. -1.
<mgrwt>
<rscale>  0 0.65738259E+03</rscale>
<asrwt>0</asrwt>
<pdfrwt beam="1">0</pdfrwt>
<pdfrwt beam="2">  1        2 0.39286616E+00 0.65738259E+03</pdfrwt>
<totfact> 0.42327233E+00</totfact>
</mgrwt>
</event>
<event>
 5    1  0.2361924E-004  0.6424740E+03  0.7818608E-02  0.9821005E-01
         13   -1    0    0    0    0  0.00000000000E+00  0.00000000000E+00  0.10000000000E+04  0.10000000000E+04  0.00000000000E+00 0. -1.
          2   -1    0    0  501    0 -0.00000000000E+00 -0.00000000000E+00 -0.10319322021E+03  0.10319322021E+03  0.00000000000E+00 0. -1.
    9000006    2    1    2  501    0  0.00000000000E+00  0.00000000000E+00  0.89680677979E+03  0.11031932202E+04  0.64247403126E+03 0.  0.
         13    1    3    3    0    0 -0.18889658977E+03  0.81117539453E+02  0.87225713632E+03  0.89615539316E+03  0.00000000000E+00 0. -1.
          2    1    3    3  501    0  0.18889658977E+03 -0.81117539453E+02  0.24549643467E+02  0.20703782705E+03  0.00000000000E+00 0. -1.
<mgrwt>
<rscale>  0 0.64247403E+03</rscale>
<asrwt>0</asrwt>
<pdfrwt beam="1">0</pdfrwt>
<pdfrwt beam="2">  1        2 0.37524886E+00 0.64247403E+03</pdfrwt>
<totfact> 0.49242434E+00</totfact>
</mgrwt>
</event>
<event>
 5    1  0.2361924E-004  0.6436336E+03  0.7818608E-02  0.9818799E-01
         13   -1    0    0    0    0  0.00000000000E+00  0.00000000000E+00  0.10000000000E+04  0.10000000000E+04  0.00000000000E+00 0. -1.
          2   -1    0    0  501    0 -0.00000000000E+00 -0.00000000000E+00 -0.10356606278E+03  0.10356606278E+03  0.00000000000E+00 0. -1.
    9000006    2    1    2  501    0  0.00000000000E+00  0.00000000000E+00  0.89643393722E+03  0.11035660628E+04  0.64363363113E+03 0.  0.
         13    1    3    3    0    0 -0.15503130636E+03  0.25416525937E+03  0.65772928055E+03  0.72197125394E+03  0.00000000000E+00 0. -1.
          2    1    3    3  501    0  0.15503130636E+03 -0.25416525937E+03  0.23870465667E+03  0.38159480884E+03  0.00000000000E+00 0. -1.
<mgrwt>
<rscale>  0 0.64363363E+03</rscale>
<asrwt>0</asrwt>
<pdfrwt beam="1">0</pdfrwt>
<pdfrwt beam="2">  1        2 0.37660466E+00 0.64363363E+03</pdfrwt>
<totfact> 0.48675875E+00</totfact>
</mgrwt>
</event>
<event>
 5    1  0.2361924E-004  0.6521972E+03  0.7818608E-02  0.9802665E-01
         13   -1    0    0    0    0  0.00000000000E+00  0.00000000000E+00  0.10000000000E+04  0.10000000000E+04  0.00000000000E+00 0. -1.
          2   -1    0    0  501    0 -0.00000000000E+00 -0.00000000000E+00 -0.10634030453E+03  0.10634030453E+03  0.00000000000E+00 0. -1.
    9000006    2    1    2  501    0  0.00000000000E+00  0.00000000000E+00  0.89365969547E+03  0.11063403045E+04  0.65219722333E+03 0.  0.
         13    1    3    3    0    0  0.29559750207E+03  0.11637160424E+03  0.32194427278E+03  0.45229232614E+03  0.00000000000E+00 0. -1.
          2    1    3    3  501    0 -0.29559750207E+03 -0.11637160424E+03  0.57171542269E+03  0.65404797840E+03  0.00000000000E+00 0. -1.
<mgrwt>
<rscale>  0 0.65219722E+03</rscale>
<asrwt>0</asrwt>
<pdfrwt beam="1">0</pdfrwt>
<pdfrwt beam="2">  1        2 0.38669283E+00 0.65219722E+03</pdfrwt>
<totfact> 0.44643109E+00</totfact>
</mgrwt>
</event>
<event>
 5    1  0.2361924E-004  0.6455492E+03  0.7818608E-02  0.9815167E-01
         13   -1    0    0    0    0  0.00000000000E+00  0.00000000000E+00  0.10000000000E+04  0.10000000000E+04  0.00000000000E+00 0. -1.
          2   -1    0    0  501    0 -0.00000000000E+00 -0.00000000000E+00 -0.10418344357E+03  0.10418344357E+03  0.00000000000E+00 0. -1.
    9000006    2    1    2  501    0  0.00000000000E+00  0.00000000000E+00  0.89581655643E+03  0.11041834436E+04  0.64554920362E+03 0.  0.
         13    1    3    3    0    0 -0.14618727773E+02 -0.17907901188E+03  0.90655433813E+03  0.92418816682E+03  0.00000000000E+00 0. -1.
          2    1    3    3  501    0  0.14618727773E+02  0.17907901188E+03 -0.10737781705E+02  0.17999527676E+03  0.00000000000E+00 0. -1.
<mgrwt>
<rscale>  0 0.64554920E+03</rscale>
<asrwt>0</asrwt>
<pdfrwt beam="1">0</pdfrwt>
<pdfrwt beam="2">  1        2 0.37884968E+00 0.64554920E+03</pdfrwt>
<totfact> 0.47750802E+00</totfact>
</mgrwt>
</event>
<event>
 5    1  0.2361924E-004  0.6173641E+03  0.7818608E-02  0.9870022E-01
         13   -1    0    0    0    0  0.00000000000E+00  0.00000000000E+00  0.10000000000E+04  0.10000000000E+04  0.00000000000E+00 0. -1.
          2   -1    0    0  501    0 -0.00000000000E+00 -0.00000000000E+00 -0.95284622082E+02  0.95284622082E+02  0.00000000000E+00 0. -1.
    9000006    2    1    2  501    0  0.00000000000E+00  0.00000000000E+00  0.90471537792E+03  0.10952846221E+04  0.61736414564E+03 0.  0.
         13    1    3    3    0    0 -0.16985060069E+03  0.19904798936E+03  0.74287824295E+03  0.78761501539E+03  0.00000000000E+00 0. -1.
          4    1    3    3  501    0  0.16985060069E+03 -0.19904798936E+03  0.16183713497E+03  0.30766960669E+03  0.00000000000E+00 0. -1.
<mgrwt>
<rscale>  0 0.61736415E+03</rscale>
<asrwt>0</asrwt>
<pdfrwt beam="1">0</pdfrwt>
<pdfrwt beam="2">  1        2 0.34649027E+00 0.61736415E+03</pdfrwt>
<totfact> 0.62786457E+00</totfact>
</mgrwt>
</event>
<event>
 5    1  0.2361924E-004  0.6421445E+03  0.7818608E-02  0.9821632E-01
         13   -1    0    0    0    0  0.00000000000E+00  0.00000000000E+00  0.10000000000E+04  0.10000000000E+04  0.00000000000E+00 0. -1.
          2   -1    0    0  501    0 -0.00000000000E+00 -0.00000000000E+00 -0.10308738653E+03  0.10308738653E+03  0.00000000000E+00 0. -1.
    9000006    2    1    2  501    0  0.00000000000E+00  0.00000000000E+00  0.89691261347E+03  0.11030873865E+04  0.64214449006E+03 0.  0.
         13    1    3    3    0    0  0.10934139983E+03  0.29104168838E+03  0.58616683108E+03  0.66351515428E+03  0.00000000000E+00 0. -1.
          2    1    3    3  501    0 -0.10934139983E+03 -0.29104168838E+03  0.31074578239E+03  0.43957223225E+03  0.00000000000E+00 0. -1.
<mgrwt>
<rscale>  0 0.64214449E+03</rscale>
<asrwt>0</asrwt>
<pdfrwt beam="1">0</pdfrwt>
<pdfrwt beam="2">  1        2 0.37486401E+00 0.64214449E+03</pdfrwt>
<totfact> 0.49404360E+00</totfact>
</mgrwt>
</event>
<event>
 5    1  0.2361924E-004  0.6441614E+03  0.7818608E-02  0.9817797E-01
         13   -1    0    0    0    0  0.00000000000E+00  0.00000000000E+00  0.10000000000E+04  0.10000000000E+04  0.00000000000E+00 0. -1.
          2   -1    0    0  501    0 -0.00000000000E+00 -0.00000000000E+00 -0.10373596545E+03  0.10373596545E+03  0.00000000000E+00 0. -1.
    9000006    2    1    2  501    0  0.00000000000E+00  0.00000000000E+00  0.89626403455E+03  0.11037359654E+04  0.64416136316E+03 0.  0.
         13    1    3    3    0    0  0.95768072438E+02  0.29783113510E+03  0.31695477878E+03  0.44534844844E+03  0.00000000000E+00 0. -1.
          2    1    3    3  501    0 -0.95768072438E+02 -0.29783113510E+03  0.57930925577E+03  0.65838751701E+03  0.00000000000E+00 0. -1.
<mgrwt>
<rscale>  0 0.64416136E+03</rscale>
<asrwt>0</asrwt>
<pdfrwt beam="1">0</pdfrwt>
<pdfrwt beam="2">  1        2 0.37722249E+00 0.64416136E+03</pdfrwt>
<totfact> 0.48419680E+00</totfact>
</mgrwt>
</event>
<event>
 5    1  0.2361924E-004  0.5953294E+03  0.7818608E-02  0.9915144E-01
         13   -1    0    0    0    0  0.00000000000E+00  0.00000000000E+00  0.10000000000E+04  0.10000000000E+04  0.00000000000E+00 0. -1.
          2   -1    0    0  501    0 -0.00000000000E+00 -0.00000000000E+00 -0.88604268900E+02  0.88604268900E+02  0.00000000000E+00 0. -1.
    9000006    2    1    2  501    0  0.00000000000E+00  0.00000000000E+00  0.91139573110E+03  0.10886042689E+04  0.59532938412E+03 0.  0.
         13    1    3    3    0    0  0.13380562172E+03  0.25968754091E+03  0.35124949775E+03  0.45685640302E+03  0.00000000000E+00 0. -1.
          4    1    3    3  501    0 -0.13380562172E+03 -0.25968754091E+03  0.56014623335E+03  0.63174786588E+03  0.00000000000E+00 0. -1.
<mgrwt>
<rscale>  0 0.59532938E+03</rscale>
<asrwt>0</asrwt>
<pdfrwt beam="1">0</pdfrwt>
<pdfrwt beam="2">  1        2 0.32219802E+00 0.59532938E+03</pdfrwt>
<totfact> 0.76860392E+00</totfact>
</mgrwt>
</event>
<event>
 5    1  0.2361924E-004  0.6437843E+03  0.7818608E-02  0.9818513E-01
         13   -1    0    0    0    0  0.00000000000E+00  0.00000000000E+00  0.10000000000E+04  0.10000000000E+04  0.00000000000E+00 0. -1.
          2   -1    0    0  501    0 -0.00000000000E+00 -0.00000000000E+00 -0.10361456693E+03  0.10361456693E+03  0.00000000000E+00 0. -1.
    9000006    2    1    2  501    0  0.00000000000E+00  0.00000000000E+00  0.89638543307E+03  0.11036145669E+04  0.64378433324E+03 0.  0.
         13    1    3    3    0    0 -0.31809042392E+03  0.26916389076E+02  0.51905118717E+03  0.60936043906E+03  0.00000000000E+00 0. -1.
          4    1    3    3  501    0  0.31809042392E+03 -0.26916389076E+02  0.37733424590E+03  0.49425412787E+03  0.00000000000E+00 0. -1.
<mgrwt>
<rscale>  0 0.64378433E+03</rscale>
<asrwt>0</asrwt>
<pdfrwt beam="1">0</pdfrwt>
<pdfrwt beam="2">  1        2 0.37678104E+00 0.64378433E+03</pdfrwt>
<totfact> 0.48602610E+00</totfact>
</mgrwt>
</event>
<event>
 5    1  0.2361924E-004  0.6438436E+03  0.7818608E-02  0.9818400E-01
         13   -1    0    0    0    0  0.00000000000E+00  0.00000000000E+00  0.10000000000E+04  0.10000000000E+04  0.00000000000E+00 0. -1.
          2   -1    0    0  501    0 -0.00000000000E+00 -0.00000000000E+00 -0.10363364544E+03  0.10363364544E+03  0.00000000000E+00 0. -1.
    9000006    2    1    2  501    0  0.00000000000E+00  0.00000000000E+00  0.89636635456E+03  0.11036336454E+04  0.64384360039E+03 0.  0.
         13    1    3    3    0    0  0.29281207090E+03 -0.52848826366E+02  0.65883150524E+03  0.72290446091E+03  0.00000000000E+00 0. -1.
          2    1    3    3  501    0 -0.29281207090E+03  0.52848826366E+02  0.23753484932E+03  0.38072918453E+03  0.00000000000E+00 0. -1.
<mgrwt>
<rscale>  0 0.64384360E+03</rscale>
<asrwt>0</asrwt>
<pdfrwt beam="1">0</pdfrwt>
<pdfrwt beam="2">  1        2 0.37685041E+00 0.64384360E+03</pdfrwt>
<totfact> 0.48573820E+00</totfact>
</mgrwt>
</event>
<event>
 5    1  0.2361924E-004  0.6445816E+03  0.7818608E-02  0.9817000E-01
         13   -1    0    0    0    0  0.00000000000E+00  0.00000000000E+00  0.10000000000E+04  0.10000000000E+04  0.00000000000E+00 0. -1.
          2   -1    0    0  501    0 -0.00000000000E+00 -0.00000000000E+00 -0.10387136516E+03  0.10387136516E+03  0.00000000000E+00 0. -1.
    9000006    2    1    2  501    0  0.00000000000E+00  0.00000000000E+00  0.89612863484E+03  0.11038713652E+04  0.64458161673E+03 0.  0.
         13    1    3    3    0    0  0.91838975792E+02 -0.69735751316E+02 -0.67332899289E+02  0.13353348574E+03  0.00000000000E+00 0. -1.
          2    1    3    3  501    0 -0.91838975792E+02  0.69735751316E+02  0.96346153413E+03  0.97033787942E+03  0.00000000000E+00 0. -1.
<mgrwt>
<rscale>  0 0.64458162E+03</rscale>
<asrwt>0</asrwt>
<pdfrwt beam="1">0</pdfrwt>
<pdfrwt beam="2">  1        2 0.37771485E+00 0.64458162E+03</pdfrwt>
<totfact> 0.48216393E+00</totfact>
</mgrwt>
</event>
<event>
 5    1  0.2361924E-004  0.6500843E+03  0.7818608E-02  0.9806621E-01
         13   -1    0    0    0    0  0.00000000000E+00  0.00000000000E+00  0.10000000000E+04  0.10000000000E+04  0.00000000000E+00 0. -1.
          2   -1    0    0  501    0 -0.00000000000E+00 -0.00000000000E+00 -0.10565241263E+03  0.10565241263E+03  0.00000000000E+00 0. -1.
    9000006    2    1    2  501    0  0.00000000000E+00  0.00000000000E+00  0.89434758737E+03  0.11056524126E+04  0.65008434109E+03 0.  0.
         13    1    3    3    0    0 -0.37873487723E+02 -0.23706972145E+03  0.74488963758E+02  0.25136638523E+03  0.00000000000E+00 0. -1.
          4    1    3    3  501    0  0.37873487723E+02  0.23706972145E+03  0.81985862361E+03  0.85428602740E+03  0.00000000000E+00 0. -1.
<mgrwt>
<rscale>  0 0.65008434E+03</rscale>
<asrwt>0</asrwt>
<pdfrwt beam="1">0</pdfrwt>
<pdfrwt beam="2">  1        2 0.38419140E+00 0.65008434E+03</pdfrwt>
<totfact> 0.45613701E+00</totfact>
</mgrwt>
</event>
<event>
 5    1  0.2361924E-004  0.6384497E+03  0.7818608E-02  0.9828697E-01
         13   -1    0    0    0    0  0.00000000000E+00  0.00000000000E+00  0.10000000000E+04  0.10000000000E+04  0.00000000000E+00 0. -1.
          2   -1    0    0  501    0 -0.00000000000E+00 -0.00000000000E+00 -0.10190451297E+03  0.10190451297E+03  0.00000000000E+00 0. -1.
    9000006    2    1    2  501    0  0.00000000000E+00  0.00000000000E+00  0.89809548703E+03  0.11019045130E+04  0.63844972540E+03 0.  0.
         13    1    3    3    0    0 -0.12649142521E+03 -0.26045498871E+03  0.68103699598E+03  0.74003261528E+03  0.00000000000E+00 0. -1.
          2    1    3    3  501    0  0.12649142521E+03  0.26045498871E+03  0.21705849106E+03  0.36187189768E+03  0.00000000000E+00 0. -1.
<mgrwt>
<rscale>  0 0.63844973E+03</rscale>
<asrwt>0</asrwt>
<pdfrwt beam="1">0</pdfrwt>
<pdfrwt beam="2">  1        2 0.37056265E+00 0.63844973E+03</pdfrwt>
<totfact> 0.51247594E+00</totfact>
</mgrwt>
</event>
<event>
 5    1  0.2361924E-004  0.6544839E+03  0.7818608E-02  0.9798402E-01
         13   -1    0    0    0    0  0.00000000000E+00  0.00000000000E+00  0.10000000000E+04  0.10000000000E+04  0.00000000000E+00 0. -1.
          2   -1    0    0  501    0 -0.00000000000E+00 -0.00000000000E+00 -0.10708728931E+03  0.10708728931E+03  0.00000000000E+00 0. -1.
    9000006    2    1    2  501    0  0.00000000000E+00  0.00000000000E+00  0.89291271069E+03  0.11070872893E+04  0.65448388615E+03 0.  0.
         13    1    3    3    0    0 -0.98695285596E+02  0.13447328943E+03  0.92268929518E+03  0.93764564757E+03  0.00000000000E+00 0. -1.
          4    1    3    3  501    0  0.98695285596E+02 -0.13447328943E+03 -0.29776584491E+02  0.16944164173E+03  0.00000000000E+00 0. -1.
<mgrwt>
<rscale>  0 0.65448389E+03</rscale>
<asrwt>0</asrwt>
<pdfrwt beam="1">0</pdfrwt>
<pdfrwt beam="2">  1        2 0.38940915E+00 0.65448389E+03</pdfrwt>
<totfact> 0.43610355E+00</totfact>
</mgrwt>
</event>
<event>
 5    1  0.2361924E-004  0.6537800E+03  0.7818608E-02  0.9799712E-01
         13   -1    0    0    0    0  0.00000000000E+00  0.00000000000E+00  0.10000000000E+04  0.10000000000E+04  0.00000000000E+00 0. -1.
          2   -1    0    0  501    0 -0.00000000000E+00 -0.00000000000E+00 -0.10685707125E+03  0.10685707125E+03  0.00000000000E+00 0. -1.
    9000006    2    1    2  501    0  0.00000000000E+00  0.00000000000E+00  0.89314292875E+03  0.11068570712E+04  0.65377999739E+03 0.  0.
         13    1    3    3    0    0  0.27571432184E+03 -0.14990975193E+03  0.60142187539E+03  0.67838012441E+03  0.00000000000E+00 0. -1.
          2    1    3    3  501    0 -0.27571432184E+03  0.14990975193E+03  0.29172105337E+03  0.42847694684E+03  0.00000000000E+00 0. -1.
<mgrwt>
<rscale>  0 0.65378000E+03</rscale>
<asrwt>0</asrwt>
<pdfrwt beam="1">0</pdfrwt>
<pdfrwt beam="2">  1        2 0.38857199E+00 0.65378000E+03</pdfrwt>
<totfact> 0.43926318E+00</totfact>
</mgrwt>
</event>
<event>
 5    1  0.2361924E-004  0.6499798E+03  0.7818608E-02  0.9806817E-01
         13   -1    0    0    0    0  0.00000000000E+00  0.00000000000E+00  0.10000000000E+04  0.10000000000E+04  0.00000000000E+00 0. -1.
          2   -1    0    0  501    0 -0.00000000000E+00 -0.00000000000E+00 -0.10561843673E+03  0.10561843673E+03  0.00000000000E+00 0. -1.
    9000006    2    1    2  501    0  0.00000000000E+00  0.00000000000E+00  0.89438156327E+03  0.11056184367E+04  0.64997980499E+03 0.  0.
         13    1    3    3    0    0 -0.19424719218E+03  0.13848442954E+03  0.82260257424E+03  0.85649571163E+03  0.00000000000E+00 0. -1.
          2    1    3    3  501    0  0.19424719218E+03 -0.13848442954E+03  0.71778989033E+02  0.24912272509E+03  0.00000000000E+00 0. -1.
<mgrwt>
<rscale>  0 0.64997980E+03</rscale>
<asrwt>0</asrwt>
<pdfrwt beam="1">0</pdfrwt>
<pdfrwt beam="2">  1        2 0.38406785E+00 0.64997980E+03</pdfrwt>
<totfact> 0.45662132E+00</totfact>
</mgrwt>
</event>
<event>
 5    1  0.2361924E-004  0.6617245E+03  0.7818608E-02  0.9785024E-01
         13   -1    0    0    0    0  0.00000000000E+00  0.00000000000E+00  0.10000000000E+04  0.10000000000E+04  0.00000000000E+00 0. -1.
          2   -1    0    0  501    0 -0.00000000000E+00 -0.00000000000E+00 -0.10946984025E+03  0.10946984025E+03  0.00000000000E+00 0. -1.
    9000006    2    1    2  501    0  0.00000000000E+00  0.00000000000E+00  0.89053015975E+03  0.11094698403E+04  0.66172453560E+03 0.  0.
         13    1    3    3    0    0  0.58098506462E+02 -0.10057079414E+03  0.96469678306E+03  0.97166342132E+03  0.00000000000E+00 0. -1.
          4    1    3    3  501    0 -0.58098506462E+02  0.10057079414E+03 -0.74166623310E+02  0.13780641893E+03  0.00000000000E+00 0. -1.
<mgrwt>
<rscale>  0 0.66172454E+03</rscale>
<asrwt>0</asrwt>
<pdfrwt beam="1">0</pdfrwt>
<pdfrwt beam="2">  1        2 0.39807299E+00 0.66172454E+03</pdfrwt>
<totfact> 0.40458956E+00</totfact>
</mgrwt>
</event>
<event>
 5    1  0.2361924E-004  0.6897362E+03  0.7818608E-02  0.9734947E-01
         13   -1    0    0    0    0  0.00000000000E+00  0.00000000000E+00  0.10000000000E+04  0.10000000000E+04  0.00000000000E+00 0. -1.
          2   -1    0    0  501    0 -0.00000000000E+00 -0.00000000000E+00 -0.11893401605E+03  0.11893401605E+03  0.00000000000E+00 0. -1.
    9000006    2    1    2  501    0  0.00000000000E+00  0.00000000000E+00  0.88106598395E+03  0.11189340160E+04  0.68973622799E+03 0.  0.
         13    1    3    3    0    0  0.24175357785E+03  0.20995056018E+03  0.23271863707E+03  0.39583076455E+03  0.00000000000E+00 0. -1.
          2    1    3    3  501    0 -0.24175357785E+03 -0.20995056018E+03  0.64834734688E+03  0.72310325150E+03  0.00000000000E+00 0. -1.
<mgrwt>
<rscale>  0 0.68973623E+03</rscale>
<asrwt>0</asrwt>
<pdfrwt beam="1">0</pdfrwt>
<pdfrwt beam="2">  1        2 0.43248824E+00 0.68973623E+03</pdfrwt>
<totfact> 0.29855110E+00</totfact>
</mgrwt>
</event>
<event>
 5    1  0.2361924E-004  0.6553446E+03  0.7818608E-02  0.9796802E-01
         13   -1    0    0    0    0  0.00000000000E+00  0.00000000000E+00  0.10000000000E+04  0.10000000000E+04  0.00000000000E+00 0. -1.
          2   -1    0    0  501    0 -0.00000000000E+00 -0.00000000000E+00 -0.10736912913E+03  0.10736912913E+03  0.00000000000E+00 0. -1.
    9000006    2    1    2  501    0  0.00000000000E+00  0.00000000000E+00  0.89263087087E+03  0.11073691291E+04  0.65534457847E+03 0.  0.
         13    1    3    3    0    0  0.21691904856E+03  0.13848028289E+03  0.10358967244E+03  0.27741932632E+03  0.00000000000E+00 0. -1.
          4    1    3    3  501    0 -0.21691904856E+03 -0.13848028289E+03  0.78904119843E+03  0.82994980282E+03  0.00000000000E+00 0. -1.
<mgrwt>
<rscale>  0 0.65534458E+03</rscale>
<asrwt>0</asrwt>
<pdfrwt beam="1">0</pdfrwt>
<pdfrwt beam="2">  1        2 0.39043402E+00 0.65534458E+03</pdfrwt>
<totfact> 0.43226343E+00</totfact>
</mgrwt>
</event>
<event>
 5    1  0.2361924E-004  0.6533539E+03  0.7818608E-02  0.9800506E-01
         13   -1    0    0    0    0  0.00000000000E+00  0.00000000000E+00  0.10000000000E+04  0.10000000000E+04  0.00000000000E+00 0. -1.
          2   -1    0    0  501    0 -0.00000000000E+00 -0.00000000000E+00 -0.10671784014E+03  0.10671784014E+03  0.00000000000E+00 0. -1.
    9000006    2    1    2  501    0  0.00000000000E+00  0.00000000000E+00  0.89328215986E+03  0.11067178401E+04  0.65335393207E+03 0.  0.
         13    1    3    3    0    0 -0.11810202867E+03  0.26562065369E+03  0.19416766232E+03  0.34957617472E+03  0.00000000000E+00 0. -1.
          2    1    3    3  501    0  0.11810202867E+03 -0.26562065369E+03  0.69911449754E+03  0.75714166542E+03  0.00000000000E+00 0. -1.
<mgrwt>
<rscale>  0 0.65335393E+03</rscale>
<asrwt>0</asrwt>
<pdfrwt beam="1">0</pdfrwt>
<pdfrwt beam="2">  1        2 0.38806569E+00 0.65335393E+03</pdfrwt>
<totfact> 0.44118409E+00</totfact>
</mgrwt>
</event>
<event>
 5    1  0.2361924E-004  0.6837293E+03  0.7818608E-02  0.9745469E-01
         13   -1    0    0    0    0  0.00000000000E+00  0.00000000000E+00  0.10000000000E+04  0.10000000000E+04  0.00000000000E+00 0. -1.
          2   -1    0    0  501    0 -0.00000000000E+00 -0.00000000000E+00 -0.11687142478E+03  0.11687142478E+03  0.00000000000E+00 0. -1.
    9000006    2    1    2  501    0  0.00000000000E+00  0.00000000000E+00  0.88312857522E+03  0.11168714248E+04  0.68372925863E+03 0.  0.
         13    1    3    3    0    0  0.28219617709E+03  0.17058332606E+03  0.58892433738E+03  0.67495572347E+03  0.00000000000E+00 0. -1.
          2    1    3    3  501    0 -0.28219617709E+03 -0.17058332606E+03  0.29420423784E+03  0.44191570130E+03  0.00000000000E+00 0. -1.
<mgrwt>
<rscale>  0 0.68372926E+03</rscale>
<asrwt>0</asrwt>
<pdfrwt beam="1">0</pdfrwt>
<pdfrwt beam="2">  1        2 0.42498790E+00 0.68372926E+03</pdfrwt>
<totfact> 0.31927830E+00</totfact>
</mgrwt>
</event>
<event>
 5    1  0.2361924E-004  0.6552239E+03  0.7818608E-02  0.9797026E-01
         13   -1    0    0    0    0  0.00000000000E+00  0.00000000000E+00  0.10000000000E+04  0.10000000000E+04  0.00000000000E+00 0. -1.
          2   -1    0    0  501    0 -0.00000000000E+00 -0.00000000000E+00 -0.10732957578E+03  0.10732957578E+03  0.00000000000E+00 0. -1.
    9000006    2    1    2  501    0  0.00000000000E+00  0.00000000000E+00  0.89267042422E+03  0.11073295758E+04  0.65522385727E+03 0.  0.
         13    1    3    3    0    0  0.44516350437E+02  0.32408874228E+03  0.41637126088E+03  0.52950943826E+03  0.00000000000E+00 0. -1.
          2    1    3    3  501    0 -0.44516350437E+02 -0.32408874228E+03  0.47629916334E+03  0.57782013752E+03  0.00000000000E+00 0. -1.
<mgrwt>
<rscale>  0 0.65522386E+03</rscale>
<asrwt>0</asrwt>
<pdfrwt beam="1">0</pdfrwt>
<pdfrwt beam="2">  1        2 0.39029019E+00 0.65522386E+03</pdfrwt>
<totfact> 0.43280050E+00</totfact>
</mgrwt>
</event>
<event>
 5    1  0.2361924E-004  0.6637314E+03  0.7818608E-02  0.9781349E-01
         13   -1    0    0    0    0  0.00000000000E+00  0.00000000000E+00  0.10000000000E+04  0.10000000000E+04  0.00000000000E+00 0. -1.
          2   -1    0    0  501    0 -0.00000000000E+00 -0.00000000000E+00 -0.11013484772E+03  0.11013484772E+03  0.00000000000E+00 0. -1.
    9000006    2    1    2  501    0  0.00000000000E+00  0.00000000000E+00  0.88986515228E+03  0.11101348477E+04  0.66373141472E+03 0.  0.
         13    1    3    3    0    0 -0.16030765119E+03 -0.18396657794E+03  0.82113957770E+03  0.85662853729E+03  0.00000000000E+00 0. -1.
          4    1    3    3  501    0  0.16030765119E+03  0.18396657794E+03  0.68725574574E+02  0.25350631043E+03  0.00000000000E+00 0. -1.
<mgrwt>
<rscale>  0 0.66373141E+03</rscale>
<asrwt>0</asrwt>
<pdfrwt beam="1">0</pdfrwt>
<pdfrwt beam="2">  1        2 0.40049120E+00 0.66373141E+03</pdfrwt>
<totfact> 0.39616787E+00</totfact>
</mgrwt>
</event>
<event>
 5    1  0.2361924E-004  0.6793884E+03  0.7818608E-02  0.9753145E-01
         13   -1    0    0    0    0  0.00000000000E+00  0.00000000000E+00  0.10000000000E+04  0.10000000000E+04  0.00000000000E+00 0. -1.
          2   -1    0    0  501    0 -0.00000000000E+00 -0.00000000000E+00 -0.11539213387E+03  0.11539213387E+03  0.00000000000E+00 0. -1.
    9000006    2    1    2  501    0  0.00000000000E+00  0.00000000000E+00  0.88460786613E+03  0.11153921339E+04  0.67938835395E+03 0.  0.
         13    1    3    3    0    0 -0.12472638377E+03  0.30644618558E+03  0.56868952681E+03  0.65793138956E+03  0.00000000000E+00 0. -1.
          2    1    3    3  501    0  0.12472638377E+03 -0.30644618558E+03  0.31591833932E+03  0.45746074431E+03  0.00000000000E+00 0. -1.
<mgrwt>
<rscale>  0 0.67938835E+03</rscale>
<asrwt>0</asrwt>
<pdfrwt beam="1">0</pdfrwt>
<pdfrwt beam="2">  1        2 0.41960864E+00 0.67938835E+03</pdfrwt>
<totfact> 0.33491779E+00</totfact>
</mgrwt>
</event>
<event>
 5    1  0.2361924E-004  0.6658081E+03  0.7818608E-02  0.9777560E-01
         13   -1    0    0    0    0  0.00000000000E+00  0.00000000000E+00  0.10000000000E+04  0.10000000000E+04  0.00000000000E+00 0. -1.
          2   -1    0    0  501    0 -0.00000000000E+00 -0.00000000000E+00 -0.11082510257E+03  0.11082510257E+03  0.00000000000E+00 0. -1.
    9000006    2    1    2  501    0  0.00000000000E+00  0.00000000000E+00  0.88917489743E+03  0.11108251026E+04  0.66580808818E+03 0.  0.
         13    1    3    3    0    0  0.74293991178E+02 -0.31912792961E+03  0.54276556883E+03  0.63400054834E+03  0.00000000000E+00 0. -1.
          4    1    3    3  501    0 -0.74293991178E+02  0.31912792961E+03  0.34640932860E+03  0.47682455424E+03  0.00000000000E+00 0. -1.
<mgrwt>
<rscale>  0 0.66580809E+03</rscale>
<asrwt>0</asrwt>
<pdfrwt beam="1">0</pdfrwt>
<pdfrwt beam="2">  1        2 0.40300122E+00 0.66580809E+03</pdfrwt>
<totfact> 0.38759319E+00</totfact>
</mgrwt>
</event>
<event>
 5    1  0.2361924E-004  0.6586951E+03  0.7818608E-02  0.9790599E-01
         13   -1    0    0    0    0  0.00000000000E+00  0.00000000000E+00  0.10000000000E+04  0.10000000000E+04  0.00000000000E+00 0. -1.
          2   -1    0    0  501    0 -0.00000000000E+00 -0.00000000000E+00 -0.10846980133E+03  0.10846980133E+03  0.00000000000E+00 0. -1.
    9000006    2    1    2  501    0  0.00000000000E+00  0.00000000000E+00  0.89153019867E+03  0.11084698013E+04  0.65869507765E+03 0.  0.
         13    1    3    3    0    0 -0.32146328024E+03  0.71592081262E+02  0.44173519934E+03  0.55099369595E+03  0.00000000000E+00 0. -1.
          4    1    3    3  501    0  0.32146328024E+03 -0.71592081262E+02  0.44979499933E+03  0.55747610538E+03  0.00000000000E+00 0. -1.
<mgrwt>
<rscale>  0 0.65869508E+03</rscale>
<asrwt>0</asrwt>
<pdfrwt beam="1">0</pdfrwt>
<pdfrwt beam="2">  1        2 0.39443647E+00 0.65869508E+03</pdfrwt>
<totfact> 0.41755742E+00</totfact>
</mgrwt>
</event>
<event>
 5    1  0.2361924E-004  0.6398702E+03  0.7818608E-02  0.9825975E-01
         13   -1    0    0    0    0  0.00000000000E+00  0.00000000000E+00  0.10000000000E+04  0.10000000000E+04  0.00000000000E+00 0. -1.
          2   -1    0    0  501    0 -0.00000000000E+00 -0.00000000000E+00 -0.10235845454E+03  0.10235845454E+03  0.00000000000E+00 0. -1.
    9000006    2    1    2  501    0  0.00000000000E+00  0.00000000000E+00  0.89764154546E+03  0.11023584545E+04  0.63987015727E+03 0.  0.
         13    1    3    3    0    0 -0.98694911793E+02 -0.33008515861E+01  0.97308785764E+03  0.97808566083E+03  0.00000000000E+00 0. -1.
          4    1    3    3  501    0  0.98694911793E+02  0.33008515861E+01 -0.75446312181E+02  0.12427279371E+03  0.00000000000E+00 0. -1.
<mgrwt>
<rscale>  0 0.63987016E+03</rscale>
<asrwt>0</asrwt>
<pdfrwt beam="1">0</pdfrwt>
<pdfrwt beam="2">  1        2 0.37221335E+00 0.63987016E+03</pdfrwt>
<totfact> 0.50532918E+00</totfact>
</mgrwt>
</event>
<event>
 5    1  0.2361924E-004  0.6510291E+03  0.7818608E-02  0.9804850E-01
         13   -1    0    0    0    0  0.00000000000E+00  0.00000000000E+00  0.10000000000E+04  0.10000000000E+04  0.00000000000E+00 0. -1.
          2   -1    0    0  501    0 -0.00000000000E+00 -0.00000000000E+00 -0.10595972455E+03  0.10595972455E+03  0.00000000000E+00 0. -1.
    9000006    2    1    2  501    0  0.00000000000E+00  0.00000000000E+00  0.89404027545E+03  0.11059597246E+04  0.65102910704E+03 0.  0.
         13    1    3    3    0    0  0.10227393732E+03 -0.29189208753E+03  0.61941793086E+03  0.69234350006E+03  0.00000000000E+00 0. -1.
          4    1    3    3  501    0 -0.10227393732E+03  0.29189208753E+03  0.27462234459E+03  0.41361622449E+03  0.00000000000E+00 0. -1.
<mgrwt>
<rscale>  0 0.65102911E+03</rscale>
<asrwt>0</asrwt>
<pdfrwt beam="1">0</pdfrwt>
<pdfrwt beam="2">  1        2 0.38530890E+00 0.65102911E+03</pdfrwt>
<totfact> 0.45177755E+00</totfact>
</mgrwt>
</event>
<event>
 5    1  0.2361924E-004  0.6421648E+03  0.7818608E-02  0.9821593E-01
         13   -1    0    0    0    0  0.00000000000E+00  0.00000000000E+00  0.10000000000E+04  0.10000000000E+04  0.00000000000E+00 0. -1.
          2   -1    0    0  501    0 -0.00000000000E+00 -0.00000000000E+00 -0.10309391549E+03  0.10309391549E+03  0.00000000000E+00 0. -1.
    9000006    2    1    2  501    0  0.00000000000E+00  0.00000000000E+00  0.89690608451E+03  0.11030939155E+04  0.64216482460E+03 0.  0.
         13    1    3    3    0    0 -0.16364790958E+03  0.11533375882E+03  0.87964985799E+03  0.90214543556E+03  0.00000000000E+00 0. -1.
          2    1    3    3  501    0  0.16364790958E+03 -0.11533375882E+03  0.17256226522E+02  0.20094847993E+03  0.00000000000E+00 0. -1.
<mgrwt>
<rscale>  0 0.64216482E+03</rscale>
<asrwt>0</asrwt>
<pdfrwt beam="1">0</pdfrwt>
<pdfrwt beam="2">  1        2 0.37488776E+00 0.64216482E+03</pdfrwt>
<totfact> 0.49394357E+00</totfact>
</mgrwt>
</event>
<event>
 5    1  0.2361924E-004  0.6662902E+03  0.7818608E-02  0.9776683E-01
         13   -1    0    0    0    0  0.00000000000E+00  0.00000000000E+00  0.10000000000E+04  0.10000000000E+04  0.00000000000E+00 0. -1.
          2   -1    0    0  501    0 -0.00000000000E+00 -0.00000000000E+00 -0.11098567159E+03  0.11098567159E+03  0.00000000000E+00 0. -1.
    9000006    2    1    2  501    0  0.00000000000E+00  0.00000000000E+00  0.88901432841E+03  0.11109856716E+04  0.66629024185E+03 0.  0.
         13    1    3    3    0    0  0.23411191677E+03 -0.19745714332E+03  0.66311068590E+03  0.73042008103E+03  0.00000000000E+00 0. -1.
          4    1    3    3  501    0 -0.23411191677E+03  0.19745714332E+03  0.22590364251E+03  0.38056559056E+03  0.00000000000E+00 0. -1.
<mgrwt>
<rscale>  0 0.66629024E+03</rscale>
<asrwt>0</asrwt>
<pdfrwt beam="1">0</pdfrwt>
<pdfrwt beam="2">  1        2 0.40358511E+00 0.66629024E+03</pdfrwt>
<totfact> 0.38562254E+00</totfact>
</mgrwt>
</event>
<event>
 5    1  0.2361924E-004  0.6372152E+03  0.7818608E-02  0.9831069E-01
         13   -1    0    0    0    0  0.00000000000E+00  0.00000000000E+00  0.10000000000E+04  0.10000000000E+04  0.00000000000E+00 0. -1.
          2   -1    0    0  501    0 -0.00000000000E+00 -0.00000000000E+00 -0.10151079512E+03  0.10151079512E+03  0.00000000000E+00 0. -1.
    9000006    2    1    2  501    0  0.00000000000E+00  0.00000000000E+00  0.89848920488E+03  0.11015107951E+04  0.63721517598E+03 0.  0.
         13    1    3    3    0    0 -0.66263318389E+02 -0.14407405120E+03  0.92693124979E+03  0.94039869281E+03  0.00000000000E+00 0. -1.
          2    1    3    3  501    0  0.66263318389E+02  0.14407405120E+03 -0.28442044916E+02  0.16111210232E+03  0.00000000000E+00 0. -1.
<mgrwt>
<rscale>  0 0.63721518E+03</rscale>
<asrwt>0</asrwt>
<pdfrwt beam="1">0</pdfrwt>
<pdfrwt beam="2">  1        2 0.36913094E+00 0.63721518E+03</pdfrwt>
<totfact> 0.51874941E+00</totfact>
</mgrwt>
</event>
<event>
 5    1  0.2361924E-004  0.6482058E+03  0.7818608E-02  0.9810152E-01
         13   -1    0    0    0    0  0.00000000000E+00  0.00000000000E+00  0.10000000000E+04  0.10000000000E+04  0.00000000000E+00 0. -1.
          2   -1    0    0  501    0 -0.00000000000E+00 -0.00000000000E+00 -0.10504270305E+03  0.10504270305E+03  0.00000000000E+00 0. -1.
    9000006    2    1    2  501    0  0.00000000000E+00  0.00000000000E+00  0.89495729695E+03  0.11050427030E+04  0.64820584092E+03 0.  0.
         13    1    3    3    0    0  0.20823468268E+03 -0.16319274886E+03  0.76663599494E+03  0.81100203766E+03  0.00000000000E+00 0. -1.
          4    1    3    3  501    0 -0.20823468268E+03  0.16319274886E+03  0.12832130201E+03  0.29404066539E+03  0.00000000000E+00 0. -1.
<mgrwt>
<rscale>  0 0.64820584E+03</rscale>
<asrwt>0</asrwt>
<pdfrwt beam="1">0</pdfrwt>
<pdfrwt beam="2">  1        2 0.38197427E+00 0.64820584E+03</pdfrwt>
<totfact> 0.46489940E+00</totfact>
</mgrwt>
</event>
<event>
 5    1  0.2361924E-004  0.6497517E+03  0.7818608E-02  0.9807245E-01
         13   -1    0    0    0    0  0.00000000000E+00  0.00000000000E+00  0.10000000000E+04  0.10000000000E+04  0.00000000000E+00 0. -1.
          2   -1    0    0  501    0 -0.00000000000E+00 -0.00000000000E+00 -0.10554431851E+03  0.10554431851E+03  0.00000000000E+00 0. -1.
    9000006    2    1    2  501    0  0.00000000000E+00  0.00000000000E+00  0.89445568149E+03  0.11055443185E+04  0.64975170184E+03 0.  0.
         13    1    3    3    0    0 -0.28821109623E+03  0.12858039967E+03  0.57842744980E+03  0.65892098908E+03  0.00000000000E+00 0. -1.
          2    1    3    3  501    0  0.28821109623E+03 -0.12858039967E+03  0.31602823169E+03  0.44662332943E+03  0.00000000000E+00 0. -1.
<mgrwt>
<rscale>  0 0.64975170E+03</rscale>
<asrwt>0</asrwt>
<pdfrwt beam="1">0</pdfrwt>
<pdfrwt beam="2">  1        2 0.38379833E+00 0.64975170E+03</pdfrwt>
<totfact> 0.45767945E+00</totfact>
</mgrwt>
</event>
<event>
 5    1  0.2361924E-004  0.6318418E+03  0.7818608E-02  0.9841461E-01
         13   -1    0    0    0    0  0.00000000000E+00  0.00000000000E+00  0.10000000000E+04  0.10000000000E+04  0.00000000000E+00 0. -1.
          2   -1    0    0  501    0 -0.00000000000E+00 -0.00000000000E+00 -0.99806019171E+02  0.99806019171E+02  0.00000000000E+00 0. -1.
    9000006    2    1    2  501    0  0.00000000000E+00  0.00000000000E+00  0.90019398083E+03  0.10998060192E+04  0.63184181302E+03 0.  0.
         13    1    3    3    0    0 -0.55142904689E+02  0.71574057554E+02 -0.76836784196E+02  0.11860639552E+03  0.00000000000E+00 0. -1.
          4    1    3    3  501    0  0.55142904689E+02 -0.71574057554E+02  0.97703076502E+03  0.98119962365E+03  0.00000000000E+00 0. -1.
<mgrwt>
<rscale>  0 0.63184181E+03</rscale>
<asrwt>0</asrwt>
<pdfrwt beam="1">0</pdfrwt>
<pdfrwt beam="2">  1        2 0.36293174E+00 0.63184181E+03</pdfrwt>
<totfact> 0.54673537E+00</totfact>
</mgrwt>
</event>
<event>
 5    1  0.2361924E-004  0.6542093E+03  0.7818608E-02  0.9798913E-01
         13   -1    0    0    0    0  0.00000000000E+00  0.00000000000E+00  0.10000000000E+04  0.10000000000E+04  0.00000000000E+00 0. -1.
          2   -1    0    0  501    0 -0.00000000000E+00 -0.00000000000E+00 -0.10699744407E+03  0.10699744407E+03  0.00000000000E+00 0. -1.
    9000006    2    1    2  501    0  0.00000000000E+00  0.00000000000E+00  0.89300255593E+03  0.11069974441E+04  0.65420927561E+03 0.  0.
         13    1    3    3    0    0  0.25339891615E+03  0.19305507322E+03  0.32082629840E+03  0.45211811039E+03  0.00000000000E+00 0. -1.
          4    1    3    3  501    0 -0.25339891615E+03 -0.19305507322E+03  0.57217625753E+03  0.65487933368E+03  0.00000000000E+00 0. -1.
<mgrwt>
<rscale>  0 0.65420928E+03</rscale>
<asrwt>0</asrwt>
<pdfrwt beam="1">0</pdfrwt>
<pdfrwt beam="2">  1        2 0.38908244E+00 0.65420928E+03</pdfrwt>
<totfact> 0.43733418E+00</totfact>
</mgrwt>
</event>
<event>
 5    1  0.2361924E-004  0.6512814E+03  0.7818608E-02  0.9804378E-01
         13   -1    0    0    0    0  0.00000000000E+00  0.00000000000E+00  0.10000000000E+04  0.10000000000E+04  0.00000000000E+00 0. -1.
          2   -1    0    0  501    0 -0.00000000000E+00 -0.00000000000E+00 -0.10604187307E+03  0.10604187307E+03  0.00000000000E+00 0. -1.
    9000006    2    1    2  501    0  0.00000000000E+00  0.00000000000E+00  0.89395812693E+03  0.11060418731E+04  0.65128142324E+03 0.  0.
         13    1    3    3    0    0  0.21150329794E+03 -0.90183167556E+02  0.55365663741E+02  0.23649948303E+03  0.00000000000E+00 0. -1.
          2    1    3    3  501    0 -0.21150329794E+03  0.90183167556E+02  0.83859246319E+03  0.86954239004E+03  0.00000000000E+00 0. -1.
<mgrwt>
<rscale>  0 0.65128142E+03</rscale>
<asrwt>0</asrwt>
<pdfrwt beam="1">0</pdfrwt>
<pdfrwt beam="2">  1        2 0.38560762E+00 0.65128142E+03</pdfrwt>
<totfact> 0.45061863E+00</totfact>
</mgrwt>
</event>
<event>
 5    1  0.2361924E-004  0.5931453E+03  0.7818608E-02  0.9919730E-01
         13   -1    0    0    0    0  0.00000000000E+00  0.00000000000E+00  0.10000000000E+04  0.10000000000E+04  0.00000000000E+00 0. -1.
          2   -1    0    0  501    0 -0.00000000000E+00 -0.00000000000E+00 -0.87955334440E+02  0.87955334440E+02  0.00000000000E+00 0. -1.
    9000006    2    1    2  501    0  0.00000000000E+00  0.00000000000E+00  0.91204466556E+03  0.10879553344E+04  0.59314529229E+03 0.  0.
         13    1    3    3    0    0  0.17034149164E+03 -0.24267965542E+03  0.46842133562E+03  0.55437188474E+03  0.00000000000E+00 0. -1.
          2    1    3    3  501    0 -0.17034149164E+03  0.24267965542E+03  0.44362332994E+03  0.53358344970E+03  0.00000000000E+00 0. -1.
<mgrwt>
<rscale>  0 0.59314529E+03</rscale>
<asrwt>0</asrwt>
<pdfrwt beam="1">0</pdfrwt>
<pdfrwt beam="2">  1        2 0.31983825E+00 0.59314529E+03</pdfrwt>
<totfact> 0.78377659E+00</totfact>
</mgrwt>
</event>
<event>
 5    1  0.2361924E-004  0.6467190E+03  0.7818608E-02  0.9812955E-01
         13   -1    0    0    0    0  0.00000000000E+00  0.00000000000E+00  0.10000000000E+04  0.10000000000E+04  0.00000000000E+00 0. -1.
          2   -1    0    0  501    0 -0.00000000000E+00 -0.00000000000E+00 -0.10456137783E+03  0.10456137783E+03  0.00000000000E+00 0. -1.
    9000006    2    1    2  501    0  0.00000000000E+00  0.00000000000E+00  0.89543862217E+03  0.11045613778E+04  0.64671903585E+03 0.  0.
         13    1    3    3    0    0 -0.19302076293E+03  0.23613759417E+03  0.63122142553E+03  0.70104098764E+03  0.00000000000E+00 0. -1.
          4    1    3    3  501    0  0.19302076293E+03 -0.23613759417E+03  0.26421719664E+03  0.40352039019E+03  0.00000000000E+00 0. -1.
<mgrwt>
<rscale>  0 0.64671904E+03</rscale>
<asrwt>0</asrwt>
<pdfrwt beam="1">0</pdfrwt>
<pdfrwt beam="2">  1        2 0.38022399E+00 0.64671904E+03</pdfrwt>
<totfact> 0.47192445E+00</totfact>
</mgrwt>
</event>
<event>
 5    1  0.2361924E-004  0.6545211E+03  0.7818608E-02  0.9798332E-01
         13   -1    0    0    0    0  0.00000000000E+00  0.00000000000E+00  0.10000000000E+04  0.10000000000E+04  0.00000000000E+00 0. -1.
          2   -1    0    0  501    0 -0.00000000000E+00 -0.00000000000E+00 -0.10709948126E+03  0.10709948126E+03  0.00000000000E+00 0. -1.
    9000006    2    1    2  501    0  0.00000000000E+00  0.00000000000E+00  0.89290051874E+03  0.11070994813E+04  0.65452114178E+03 0.  0.
         13    1    3    3    0    0  0.72604175173E+02 -0.24853663213E+03  0.78498694841E+03  0.82658715991E+03  0.00000000000E+00 0. -1.
          4    1    3    3  501    0 -0.72604175173E+02  0.24853663213E+03  0.10791357033E+03  0.28051232135E+03  0.00000000000E+00 0. -1.
<mgrwt>
<rscale>  0 0.65452114E+03</rscale>
<asrwt>0</asrwt>
<pdfrwt beam="1">0</pdfrwt>
<pdfrwt beam="2">  1        2 0.38945348E+00 0.65452114E+03</pdfrwt>
<totfact> 0.43593680E+00</totfact>
</mgrwt>
</event>
<event>
 5    1  0.2361924E-004  0.6497860E+03  0.7818608E-02  0.9807181E-01
         13   -1    0    0    0    0  0.00000000000E+00  0.00000000000E+00  0.10000000000E+04  0.10000000000E+04  0.00000000000E+00 0. -1.
          2   -1    0    0  501    0 -0.00000000000E+00 -0.00000000000E+00 -0.10555547650E+03  0.10555547650E+03  0.00000000000E+00 0. -1.
    9000006    2    1    2  501    0  0.00000000000E+00  0.00000000000E+00  0.89444452350E+03  0.11055554765E+04  0.64978604632E+03 0.  0.
         13    1    3    3    0    0  0.31764610006E+03 -0.26019467183E+01  0.33120547651E+03  0.45891489699E+03  0.00000000000E+00 0. -1.
          2    1    3    3  501    0 -0.31764610006E+03  0.26019467183E+01  0.56323904699E+03  0.64664057951E+03  0.00000000000E+00 0. -1.
<mgrwt>
<rscale>  0 0.64978605E+03</rscale>
<asrwt>0</asrwt>
<pdfrwt beam="1">0</pdfrwt>
<pdfrwt beam="2">  1        2 0.38383891E+00 0.64978605E+03</pdfrwt>
<totfact> 0.45752002E+00</totfact>
</mgrwt>
</event>
<event>
 5    1  0.2361924E-004  0.6482998E+03  0.7818608E-02  0.9809975E-01
         13   -1    0    0    0    0  0.00000000000E+00  0.00000000000E+00  0.10000000000E+04  0.10000000000E+04  0.00000000000E+00 0. -1.
          2   -1    0    0  501    0 -0.00000000000E+00 -0.00000000000E+00 -0.10507316352E+03  0.10507316352E+03  0.00000000000E+00 0. -1.
    9000006    2    1    2  501    0  0.00000000000E+00  0.00000000000E+00  0.89492683648E+03  0.11050731635E+04  0.64829981806E+03 0.  0.
         13    1    3    3    0    0  0.17495010290E+03 -0.33204153168E+02 -0.14230333463E+02  0.17864085950E+03  0.00000000000E+00 0. -1.
          4    1    3    3  501    0 -0.17495010290E+03  0.33204153168E+02  0.90915716994E+03  0.92643230403E+03  0.00000000000E+00 0. -1.
<mgrwt>
<rscale>  0 0.64829982E+03</rscale>
<asrwt>0</asrwt>
<pdfrwt beam="1">0</pdfrwt>
<pdfrwt beam="2">  1        2 0.38208504E+00 0.64829982E+03</pdfrwt>
<totfact> 0.46445804E+00</totfact>
</mgrwt>
</event>
<event>
 5    1  0.2361924E-004  0.6446597E+03  0.7818608E-02  0.9816852E-01
         13   -1    0    0    0    0  0.00000000000E+00  0.00000000000E+00  0.10000000000E+04  0.10000000000E+04  0.00000000000E+00 0. -1.
          2   -1    0    0  501    0 -0.00000000000E+00 -0.00000000000E+00 -0.10389653195E+03  0.10389653195E+03  0.00000000000E+00 0. -1.
    9000006    2    1    2  501    0  0.00000000000E+00  0.00000000000E+00  0.89610346805E+03  0.11038965320E+04  0.64465969923E+03 0.  0.
         13    1    3    3    0    0  0.17129639934E+03  0.13621565826E+03  0.85327037734E+03  0.88089017410E+03  0.00000000000E+00 0. -1.
          2    1    3    3  501    0 -0.17129639934E+03 -0.13621565826E+03  0.42833090706E+02  0.22300635785E+03  0.00000000000E+00 0. -1.
<mgrwt>
<rscale>  0 0.64465970E+03</rscale>
<asrwt>0</asrwt>
<pdfrwt beam="1">0</pdfrwt>
<pdfrwt beam="2">  1        2 0.37780637E+00 0.64465970E+03</pdfrwt>
<totfact> 0.48178694E+00</totfact>
</mgrwt>
</event>
<event>
 5    1  0.2361924E-004  0.5920650E+03  0.7818608E-02  0.9922007E-01
         13   -1    0    0    0    0  0.00000000000E+00  0.00000000000E+00  0.10000000000E+04  0.10000000000E+04  0.00000000000E+00 0. -1.
          2   -1    0    0  501    0 -0.00000000000E+00 -0.00000000000E+00 -0.87635238623E+02  0.87635238623E+02  0.00000000000E+00 0. -1.
    9000006    2    1    2  501    0  0.00000000000E+00  0.00000000000E+00  0.91236476138E+03  0.10876352386E+04  0.59206499178E+03 0.  0.
         13    1    3    3    0    0  0.86196458598E+02  0.18692122047E+03  0.84702265247E+03  0.87167467895E+03  0.00000000000E+00 0. -1.
          4    1    3    3  501    0 -0.86196458598E+02 -0.18692122047E+03  0.65342108911E+02  0.21596055967E+03  0.00000000000E+00 0. -1.
<mgrwt>
<rscale>  0 0.59206499E+03</rscale>
<asrwt>0</asrwt>
<pdfrwt beam="1">0</pdfrwt>
<pdfrwt beam="2">  1        2 0.31867427E+00 0.59206499E+03</pdfrwt>
<totfact> 0.79136646E+00</totfact>
</mgrwt>
</event>
<event>
 5    1  0.2361924E-004  0.6501215E+03  0.7818608E-02  0.9806551E-01
         13   -1    0    0    0    0  0.00000000000E+00  0.00000000000E+00  0.10000000000E+04  0.10000000000E+04  0.00000000000E+00 0. -1.
          2   -1    0    0  501    0 -0.00000000000E+00 -0.00000000000E+00 -0.10566449637E+03  0.10566449637E+03  0.00000000000E+00 0. -1.
    9000006    2    1    2  501    0  0.00000000000E+00  0.00000000000E+00  0.89433550363E+03  0.11056644964E+04  0.65012151594E+03 0.  0.
         13    1    3    3    0    0 -0.21035117662E+03 -0.22086840647E+01  0.86862686369E+03  0.89373660779E+03  0.00000000000E+00 0. -1.
          2    1    3    3  501    0  0.21035117662E+03  0.22086840647E+01  0.25708639942E+02  0.21192788858E+03  0.00000000000E+00 0. -1.
<mgrwt>
<rscale>  0 0.65012152E+03</rscale>
<asrwt>0</asrwt>
<pdfrwt beam="1">0</pdfrwt>
<pdfrwt beam="2">  1        2 0.38423534E+00 0.65012152E+03</pdfrwt>
<totfact> 0.45596487E+00</totfact>
</mgrwt>
</event>
<event>
 5    1  0.2361924E-004  0.6484728E+03  0.7818608E-02  0.9809649E-01
         13   -1    0    0    0    0  0.00000000000E+00  0.00000000000E+00  0.10000000000E+04  0.10000000000E+04  0.00000000000E+00 0. -1.
          2   -1    0    0  501    0 -0.00000000000E+00 -0.00000000000E+00 -0.10512925034E+03  0.10512925034E+03  0.00000000000E+00 0. -1.
    9000006    2    1    2  501    0  0.00000000000E+00  0.00000000000E+00  0.89487074966E+03  0.11051292503E+04  0.64847282236E+03 0.  0.
         13    1    3    3    0    0  0.22695587770E+03 -0.20536097518E+03  0.26510040175E+03  0.40492014466E+03  0.00000000000E+00 0. -1.
          4    1    3    3  501    0 -0.22695587770E+03  0.20536097518E+03  0.62977034792E+03  0.70020910567E+03  0.00000000000E+00 0. -1.
<mgrwt>
<rscale>  0 0.64847282E+03</rscale>
<asrwt>0</asrwt>
<pdfrwt beam="1">0</pdfrwt>
<pdfrwt beam="2">  1        2 0.38228899E+00 0.64847282E+03</pdfrwt>
<totfact> 0.46364636E+00</totfact>
</mgrwt>
</event>
<event>
 5    1  0.2361924E-004  0.6523052E+03  0.7818608E-02  0.9802463E-01
         13   -1    0    0    0    0  0.00000000000E+00  0.00000000000E+00  0.10000000000E+04  0.10000000000E+04  0.00000000000E+00 0. -1.
          2   -1    0    0  501    0 -0.00000000000E+00 -0.00000000000E+00 -0.10637552148E+03  0.10637552148E+03  0.00000000000E+00 0. -1.
    9000006    2    1    2  501    0  0.00000000000E+00  0.00000000000E+00  0.89362447852E+03  0.11063755215E+04  0.65230520918E+03 0.  0.
         13    1    3    3    0    0 -0.17207829010E+03  0.15123336676E+03  0.53064473555E+02  0.23515592167E+03  0.00000000000E+00 0. -1.
          2    1    3    3  501    0  0.17207829010E+03 -0.15123336676E+03  0.84056000496E+03  0.87121959981E+03  0.00000000000E+00 0. -1.
<mgrwt>
<rscale>  0 0.65230521E+03</rscale>
<asrwt>0</asrwt>
<pdfrwt beam="1">0</pdfrwt>
<pdfrwt beam="2">  1        2 0.38682089E+00 0.65230521E+03</pdfrwt>
<totfact> 0.44593927E+00</totfact>
</mgrwt>
</event>
<event>
 5    1  0.2361924E-004  0.6568371E+03  0.7818608E-02  0.9794034E-01
         13   -1    0    0    0    0  0.00000000000E+00  0.00000000000E+00  0.10000000000E+04  0.10000000000E+04  0.00000000000E+00 0. -1.
          2   -1    0    0  501    0 -0.00000000000E+00 -0.00000000000E+00 -0.10785874306E+03  0.10785874306E+03  0.00000000000E+00 0. -1.
    9000006    2    1    2  501    0  0.00000000000E+00  0.00000000000E+00  0.89214125694E+03  0.11078587431E+04  0.65683709719E+03 0.  0.
         13    1    3    3    0    0 -0.10118471450E+03  0.34285461546E+02 -0.77730413850E+02  0.13212061368E+03  0.00000000000E+00 0. -1.
          4    1    3    3  501    0  0.10118471450E+03 -0.34285461546E+02  0.96987167079E+03  0.97573812938E+03  0.00000000000E+00 0. -1.
<mgrwt>
<rscale>  0 0.65683710E+03</rscale>
<asrwt>0</asrwt>
<pdfrwt beam="1">0</pdfrwt>
<pdfrwt beam="2">  1        2 0.39221444E+00 0.65683710E+03</pdfrwt>
<totfact> 0.42566490E+00</totfact>
</mgrwt>
</event>
<event>
 5    1  0.2361924E-004  0.6479020E+03  0.7818608E-02  0.9810724E-01
         13   -1    0    0    0    0  0.00000000000E+00  0.00000000000E+00  0.10000000000E+04  0.10000000000E+04  0.00000000000E+00 0. -1.
          2   -1    0    0  501    0 -0.00000000000E+00 -0.00000000000E+00 -0.10494423862E+03  0.10494423862E+03  0.00000000000E+00 0. -1.
    9000006    2    1    2  501    0  0.00000000000E+00  0.00000000000E+00  0.89505576138E+03  0.11049442386E+04  0.64790196362E+03 0.  0.
         13    1    3    3    0    0  0.76476645261E+01  0.11193916419E+03  0.96580514113E+03  0.97230058824E+03  0.00000000000E+00 0. -1.
          2    1    3    3  501    0 -0.76476645261E+01 -0.11193916419E+03 -0.70749379747E+02  0.13264365038E+03  0.00000000000E+00 0. -1.
<mgrwt>
<rscale>  0 0.64790196E+03</rscale>
<asrwt>0</asrwt>
<pdfrwt beam="1">0</pdfrwt>
<pdfrwt beam="2">  1        2 0.38161622E+00 0.64790196E+03</pdfrwt>
<totfact> 0.46632873E+00</totfact>
</mgrwt>
</event>
<event>
 5    1  0.2361924E-004  0.6566215E+03  0.7818608E-02  0.9794433E-01
         13   -1    0    0    0    0  0.00000000000E+00  0.00000000000E+00  0.10000000000E+04  0.10000000000E+04  0.00000000000E+00 0. -1.
          2   -1    0    0  501    0 -0.00000000000E+00 -0.00000000000E+00 -0.10778794897E+03  0.10778794897E+03  0.00000000000E+00 0. -1.
    9000006    2    1    2  501    0  0.00000000000E+00  0.00000000000E+00  0.89221205103E+03  0.11077879490E+04  0.65662150123E+03 0.  0.
         13    1    3    3    0    0 -0.26069579674E+03  0.19836732202E+03  0.40929562033E+03  0.52424688621E+03  0.00000000000E+00 0. -1.
          2    1    3    3  501    0  0.26069579674E+03 -0.19836732202E+03  0.48291643070E+03  0.58354106276E+03  0.00000000000E+00 0. -1.
<mgrwt>
<rscale>  0 0.65662150E+03</rscale>
<asrwt>0</asrwt>
<pdfrwt beam="1">0</pdfrwt>
<pdfrwt beam="2">  1        2 0.39195700E+00 0.65662150E+03</pdfrwt>
<totfact> 0.42661334E+00</totfact>
</mgrwt>
</event>
<event>
 5    1  0.2361924E-004  0.6494559E+03  0.7818608E-02  0.9807801E-01
         13   -1    0    0    0    0  0.00000000000E+00  0.00000000000E+00  0.10000000000E+04  0.10000000000E+04  0.00000000000E+00 0. -1.
          2   -1    0    0  501    0 -0.00000000000E+00 -0.00000000000E+00 -0.10544823994E+03  0.10544823994E+03  0.00000000000E+00 0. -1.
    9000006    2    1    2  501    0  0.00000000000E+00  0.00000000000E+00  0.89455176006E+03  0.11054482399E+04  0.64945589516E+03 0.  0.
         13    1    3    3    0    0  0.11585381960E+03 -0.17506719800E+03  0.86896629636E+03  0.89396479547E+03  0.00000000000E+00 0. -1.
          2    1    3    3  501    0 -0.11585381960E+03  0.17506719800E+03  0.25585463701E+02  0.21148344447E+03  0.00000000000E+00 0. -1.
<mgrwt>
<rscale>  0 0.64945590E+03</rscale>
<asrwt>0</asrwt>
<pdfrwt beam="1">0</pdfrwt>
<pdfrwt beam="2">  1        2 0.38344895E+00 0.64945590E+03</pdfrwt>
<totfact> 0.45905442E+00</totfact>
</mgrwt>
</event>
<event>
 5    1  0.2361924E-004  0.6457552E+03  0.7818608E-02  0.9814777E-01
         13   -1    0    0    0    0  0.00000000000E+00  0.00000000000E+00  0.10000000000E+04  0.10000000000E+04  0.00000000000E+00 0. -1.
          2   -1    0    0  501    0 -0.00000000000E+00 -0.00000000000E+00 -0.10424995246E+03  0.10424995246E+03  0.00000000000E+00 0. -1.
    9000006    2    1    2  501    0  0.00000000000E+00  0.00000000000E+00  0.89575004754E+03  0.11042499525E+04  0.64575522441E+03 0.  0.
         13    1    3    3    0    0 -0.31084994843E+03 -0.81014594801E+02  0.39222998971E+03  0.50698660716E+03  0.00000000000E+00 0. -1.
          2    1    3    3  501    0  0.31084994843E+03  0.81014594801E+02  0.50352005782E+03  0.59726334530E+03  0.00000000000E+00 0. -1.
<mgrwt>
<rscale>  0 0.64575522E+03</rscale>
<asrwt>0</asrwt>
<pdfrwt beam="1">0</pdfrwt>
<pdfrwt beam="2">  1        2 0.37909154E+00 0.64575522E+03</pdfrwt>
<totfact> 0.47652108E+00</totfact>
</mgrwt>
</event>
<event>
 5    1  0.2361924E-004  0.6750817E+03  0.7818608E-02  0.9760821E-01
         13   -1    0    0    0    0  0.00000000000E+00  0.00000000000E+00  0.10000000000E+04  0.10000000000E+04  0.00000000000E+00 0. -1.
          2   -1    0    0  501    0 -0.00000000000E+00 -0.00000000000E+00 -0.11393381109E+03  0.11393381109E+03  0.00000000000E+00 0. -1.
    9000006    2    1    2  501    0  0.00000000000E+00  0.00000000000E+00  0.88606618891E+03  0.11139338111E+04  0.67508165755E+03 0.  0.
         13    1    3    3    0    0 -0.96768397510E+01 -0.10534191370E+03 -0.85874411248E+02  0.13625334681E+03  0.00000000000E+00 0. -1.
          2    1    3    3  501    0  0.96768397510E+01  0.10534191370E+03  0.97194060016E+03  0.97768046428E+03  0.00000000000E+00 0. -1.
<mgrwt>
<rscale>  0 0.67508166E+03</rscale>
<asrwt>0</asrwt>
<pdfrwt beam="1">0</pdfrwt>
<pdfrwt beam="2">  1        2 0.41430564E+00 0.67508166E+03</pdfrwt>
<totfact> 0.35099723E+00</totfact>
</mgrwt>
</event>
<event>
 5    1  0.2361924E-004  0.6537111E+03  0.7818608E-02  0.9799840E-01
         13   -1    0    0    0    0  0.00000000000E+00  0.00000000000E+00  0.10000000000E+04  0.10000000000E+04  0.00000000000E+00 0. -1.
          2   -1    0    0  501    0 -0.00000000000E+00 -0.00000000000E+00 -0.10683453480E+03  0.10683453480E+03  0.00000000000E+00 0. -1.
    9000006    2    1    2  501    0  0.00000000000E+00  0.00000000000E+00  0.89316546520E+03  0.11068345348E+04  0.65371105178E+03 0.  0.
         13    1    3    3    0    0 -0.25190868771E+03  0.48486583498E+02  0.10363783969E+03  0.27667623234E+03  0.00000000000E+00 0. -1.
          4    1    3    3  501    0  0.25190868771E+03 -0.48486583498E+02  0.78952762550E+03  0.83015830247E+03  0.00000000000E+00 0. -1.
<mgrwt>
<rscale>  0 0.65371105E+03</rscale>
<asrwt>0</asrwt>
<pdfrwt beam="1">0</pdfrwt>
<pdfrwt beam="2">  1        2 0.38849004E+00 0.65371105E+03</pdfrwt>
<totfact> 0.43957359E+00</totfact>
</mgrwt>
</event>
<event>
 5    1  0.2361924E-004  0.6476213E+03  0.7818608E-02  0.9811253E-01
         13   -1    0    0    0    0  0.00000000000E+00  0.00000000000E+00  0.10000000000E+04  0.10000000000E+04  0.00000000000E+00 0. -1.
          2   -1    0    0  501    0 -0.00000000000E+00 -0.00000000000E+00 -0.10485333520E+03  0.10485333520E+03  0.00000000000E+00 0. -1.
    9000006    2    1    2  501    0  0.00000000000E+00  0.00000000000E+00  0.89514666480E+03  0.11048533352E+04  0.64762129426E+03 0.  0.
         13    1    3    3    0    0 -0.23928524021E+03  0.21813082240E+03  0.45414832790E+03  0.55775369617E+03  0.00000000000E+00 0. -1.
          2    1    3    3  501    0  0.23928524021E+03 -0.21813082240E+03  0.44099833691E+03  0.54709963902E+03  0.00000000000E+00 0. -1.
<mgrwt>
<rscale>  0 0.64762129E+03</rscale>
<asrwt>0</asrwt>
<pdfrwt beam="1">0</pdfrwt>
<pdfrwt beam="2">  1        2 0.38128566E+00 0.64762129E+03</pdfrwt>
<totfact> 0.46765184E+00</totfact>
</mgrwt>
</event>
<event>
 5    1  0.2361924E-004  0.6430406E+03  0.7818608E-02  0.9819926E-01
         13   -1    0    0    0    0  0.00000000000E+00  0.00000000000E+00  0.10000000000E+04  0.10000000000E+04  0.00000000000E+00 0. -1.
          2   -1    0    0  501    0 -0.00000000000E+00 -0.00000000000E+00 -0.10337530335E+03  0.10337530335E+03  0.00000000000E+00 0. -1.
    9000006    2    1    2  501    0  0.00000000000E+00  0.00000000000E+00  0.89662469665E+03  0.11033753033E+04  0.64304060011E+03 0.  0.
         13    1    3    3    0    0  0.17663143967E+03 -0.65782236045E+02  0.13636636954E+01  0.18848826923E+03  0.00000000000E+00 0. -1.
          4    1    3    3  501    0 -0.17663143967E+03  0.65782236045E+02  0.89526103296E+03  0.91488703411E+03  0.00000000000E+00 0. -1.
<mgrwt>
<rscale>  0 0.64304060E+03</rscale>
<asrwt>0</asrwt>
<pdfrwt beam="1">0</pdfrwt>
<pdfrwt beam="2">  1        2 0.37591099E+00 0.64304060E+03</pdfrwt>
<totfact> 0.48964994E+00</totfact>
</mgrwt>
</event>
<event>
 5    1  0.2361924E-004  0.6462401E+03  0.7818608E-02  0.9813860E-01
         13   -1    0    0    0    0  0.00000000000E+00  0.00000000000E+00  0.10000000000E+04  0.10000000000E+04  0.00000000000E+00 0. -1.
          2   -1    0    0  501    0 -0.00000000000E+00 -0.00000000000E+00 -0.10440658004E+03  0.10440658004E+03  0.00000000000E+00 0. -1.
    9000006    2    1    2  501    0  0.00000000000E+00  0.00000000000E+00  0.89559341996E+03  0.11044065800E+04  0.64624014124E+03 0.  0.
         13    1    3    3    0    0  0.87309488866E+02 -0.11262425411E+03  0.94339697592E+03  0.95409906385E+03  0.00000000000E+00 0. -1.
          4    1    3    3  501    0 -0.87309488866E+02  0.11262425411E+03 -0.47803555961E+02  0.15030751619E+03  0.00000000000E+00 0. -1.
<mgrwt>
<rscale>  0 0.64624014E+03</rscale>
<asrwt>0</asrwt>
<pdfrwt beam="1">0</pdfrwt>
<pdfrwt beam="2">  1        2 0.37966109E+00 0.64624014E+03</pdfrwt>
<totfact> 0.47420419E+00</totfact>
</mgrwt>
</event>
<event>
 5    1  0.2361924E-004  0.6447058E+03  0.7818608E-02  0.9816764E-01
         13   -1    0    0    0    0  0.00000000000E+00  0.00000000000E+00  0.10000000000E+04  0.10000000000E+04  0.00000000000E+00 0. -1.
          2   -1    0    0  501    0 -0.00000000000E+00 -0.00000000000E+00 -0.10391138532E+03  0.10391138532E+03  0.00000000000E+00 0. -1.
    9000006    2    1    2  501    0  0.00000000000E+00  0.00000000000E+00  0.89608861468E+03  0.11039113853E+04  0.64470577885E+03 0.  0.
         13    1    3    3    0    0 -0.15740878714E+03  0.26992376275E+03  0.31240665833E+03  0.44185323823E+03  0.00000000000E+00 0. -1.
          4    1    3    3  501    0  0.15740878714E+03 -0.26992376275E+03  0.58368195634E+03  0.66205814709E+03  0.00000000000E+00 0. -1.
<mgrwt>
<rscale>  0 0.64470578E+03</rscale>
<asrwt>0</asrwt>
<pdfrwt beam="1">0</pdfrwt>
<pdfrwt beam="2">  1        2 0.37786038E+00 0.64470578E+03</pdfrwt>
<totfact> 0.48156456E+00</totfact>
</mgrwt>
</event>
<event>
 5    1  0.2361924E-004  0.6075181E+03  0.7818608E-02  0.9889930E-01
         13   -1    0    0    0    0  0.00000000000E+00  0.00000000000E+00  0.10000000000E+04  0.10000000000E+04  0.00000000000E+00 0. -1.
          2   -1    0    0  501    0 -0.00000000000E+00 -0.00000000000E+00 -0.92269550257E+02  0.92269550257E+02  0.00000000000E+00 0. -1.
    9000006    2    1    2  501    0  0.00000000000E+00  0.00000000000E+00  0.90773044974E+03  0.10922695503E+04  0.60751806642E+03 0.  0.
         13    1    3    3    0    0  0.20784580083E+03  0.57773467458E+02  0.83835097702E+03  0.86566160313E+03  0.00000000000E+00 0. -1.
          4    1    3    3  501    0 -0.20784580083E+03 -0.57773467458E+02  0.69379472726E+02  0.22660794713E+03  0.00000000000E+00 0. -1.
<mgrwt>
<rscale>  0 0.60751807E+03</rscale>
<asrwt>0</asrwt>
<pdfrwt beam="1">0</pdfrwt>
<pdfrwt beam="2">  1        2 0.33552634E+00 0.60751807E+03</pdfrwt>
<totfact> 0.68806571E+00</totfact>
</mgrwt>
</event>
<event>
 5    1  0.2361924E-004  0.6533006E+03  0.7818608E-02  0.9800606E-01
         13   -1    0    0    0    0  0.00000000000E+00  0.00000000000E+00  0.10000000000E+04  0.10000000000E+04  0.00000000000E+00 0. -1.
          2   -1    0    0  501    0 -0.00000000000E+00 -0.00000000000E+00 -0.10670040498E+03  0.10670040498E+03  0.00000000000E+00 0. -1.
    9000006    2    1    2  501    0  0.00000000000E+00  0.00000000000E+00  0.89329959502E+03  0.11067004050E+04  0.65330055865E+03 0.  0.
         13    1    3    3    0    0 -0.18537115840E+03 -0.24862106939E+03  0.62044526983E+03  0.69363335803E+03  0.00000000000E+00 0. -1.
          2    1    3    3  501    0  0.18537115840E+03  0.24862106939E+03  0.27285432518E+03  0.41306704695E+03  0.00000000000E+00 0. -1.
<mgrwt>
<rscale>  0 0.65330056E+03</rscale>
<asrwt>0</asrwt>
<pdfrwt beam="1">0</pdfrwt>
<pdfrwt beam="2">  1        2 0.38800229E+00 0.65330056E+03</pdfrwt>
<totfact> 0.44142517E+00</totfact>
</mgrwt>
</event>
<event>
 5    1  0.2361924E-004  0.6448028E+03  0.7818608E-02  0.9816580E-01
         13   -1    0    0    0    0  0.00000000000E+00  0.00000000000E+00  0.10000000000E+04  0.10000000000E+04  0.00000000000E+00 0. -1.
          2   -1    0    0  501    0 -0.00000000000E+00 -0.00000000000E+00 -0.10394266659E+03  0.10394266659E+03  0.00000000000E+00 0. -1.
    9000006    2    1    2  501    0  0.00000000000E+00  0.00000000000E+00  0.89605733341E+03  0.11039426666E+04  0.64480281199E+03 0.  0.
         13    1    3    3    0    0 -0.14606480400E+03  0.10485104823E+03 -0.10132793092E+02  0.18008704223E+03  0.00000000000E+00 0. -1.
          2    1    3    3  501    0  0.14606480400E+03 -0.10485104823E+03  0.90619012651E+03  0.92385562436E+03  0.00000000000E+00 0. -1.
<mgrwt>
<rscale>  0 0.64480281E+03</rscale>
<asrwt>0</asrwt>
<pdfrwt beam="1">0</pdfrwt>
<pdfrwt beam="2">  1        2 0.37797413E+00 0.64480281E+03</pdfrwt>
<totfact> 0.48109655E+00</totfact>
</mgrwt>
</event>
<event>
 5    1  0.2361924E-004  0.6662189E+03  0.7818608E-02  0.9776813E-01
         13   -1    0    0    0    0  0.00000000000E+00  0.00000000000E+00  0.10000000000E+04  0.10000000000E+04  0.00000000000E+00 0. -1.
          2   -1    0    0  501    0 -0.00000000000E+00 -0.00000000000E+00 -0.11096191981E+03  0.11096191981E+03  0.00000000000E+00 0. -1.
    9000006    2    1    2  501    0  0.00000000000E+00  0.00000000000E+00  0.88903808019E+03  0.11109619198E+04  0.66621894242E+03 0.  0.
         13    1    3    3    0    0  0.16290614379E+03  0.24113898132E+03  0.71482628699E+03  0.77179209673E+03  0.00000000000E+00 0. -1.
          2    1    3    3  501    0 -0.16290614379E+03 -0.24113898132E+03  0.17421179320E+03  0.33916982308E+03  0.00000000000E+00 0. -1.
<mgrwt>
<rscale>  0 0.66621894E+03</rscale>
<asrwt>0</asrwt>
<pdfrwt beam="1">0</pdfrwt>
<pdfrwt beam="2">  1        2 0.40349874E+00 0.66621894E+03</pdfrwt>
<totfact> 0.38591348E+00</totfact>
</mgrwt>
</event>
<event>
 5    1  0.2361924E-004  0.6428440E+03  0.7818608E-02  0.9820300E-01
         13   -1    0    0    0    0  0.00000000000E+00  0.00000000000E+00  0.10000000000E+04  0.10000000000E+04  0.00000000000E+00 0. -1.
          2   -1    0    0  501    0 -0.00000000000E+00 -0.00000000000E+00 -0.10331209606E+03  0.10331209606E+03  0.00000000000E+00 0. -1.
    9000006    2    1    2  501    0  0.00000000000E+00  0.00000000000E+00  0.89668790394E+03  0.11033120961E+04  0.64284398126E+03 0.  0.
         13    1    3    3    0    0 -0.51967827296E+02  0.35940986650E+02  0.98923583900E+03  0.99125171110E+03  0.00000000000E+00 0. -1.
          4    1    3    3  501    0  0.51967827296E+02 -0.35940986650E+02 -0.92547935058E+02  0.11206038497E+03  0.00000000000E+00 0. -1.
<mgrwt>
<rscale>  0 0.64284398E+03</rscale>
<asrwt>0</asrwt>
<pdfrwt beam="1">0</pdfrwt>
<pdfrwt beam="2">  1        2 0.37568114E+00 0.64284398E+03</pdfrwt>
<totfact> 0.49061137E+00</totfact>
</mgrwt>
</event>
<event>
 5    1  0.2361924E-004  0.6431344E+03  0.7818608E-02  0.9819748E-01
         13   -1    0    0    0    0  0.00000000000E+00  0.00000000000E+00  0.10000000000E+04  0.10000000000E+04  0.00000000000E+00 0. -1.
          2   -1    0    0  501    0 -0.00000000000E+00 -0.00000000000E+00 -0.10340547830E+03  0.10340547830E+03  0.00000000000E+00 0. -1.
    9000006    2    1    2  501    0  0.00000000000E+00  0.00000000000E+00  0.89659452170E+03  0.11034054783E+04  0.64313444411E+03 0.  0.
         13    1    3    3    0    0  0.29392812062E+02  0.31568342251E+03  0.35613667351E+03  0.47681578295E+03  0.00000000000E+00 0. -1.
          4    1    3    3  501    0 -0.29392812062E+02 -0.31568342251E+03  0.54045784819E+03  0.62658969535E+03  0.00000000000E+00 0. -1.
<mgrwt>
<rscale>  0 0.64313444E+03</rscale>
<asrwt>0</asrwt>
<pdfrwt beam="1">0</pdfrwt>
<pdfrwt beam="2">  1        2 0.37602071E+00 0.64313444E+03</pdfrwt>
<totfact> 0.48919156E+00</totfact>
</mgrwt>
</event>
<event>
 5    1  0.2361924E-004  0.6453816E+03  0.7818608E-02  0.9815484E-01
         13   -1    0    0    0    0  0.00000000000E+00  0.00000000000E+00  0.10000000000E+04  0.10000000000E+04  0.00000000000E+00 0. -1.
          2   -1    0    0  501    0 -0.00000000000E+00 -0.00000000000E+00 -0.10412935996E+03  0.10412935996E+03  0.00000000000E+00 0. -1.
    9000006    2    1    2  501    0  0.00000000000E+00  0.00000000000E+00  0.89587064004E+03  0.11041293600E+04  0.64538162341E+03 0.  0.
         13    1    3    3    0    0  0.29210490997E+03  0.13684268723E+03  0.43281026469E+03  0.53979248300E+03  0.00000000000E+00 0. -1.
          2    1    3    3  501    0 -0.29210490997E+03 -0.13684268723E+03  0.46306037535E+03  0.56433687696E+03  0.00000000000E+00 0. -1.
<mgrwt>
<rscale>  0 0.64538162E+03</rscale>
<asrwt>0</asrwt>
<pdfrwt beam="1">0</pdfrwt>
<pdfrwt beam="2">  1        2 0.37865302E+00 0.64538162E+03</pdfrwt>
<totfact> 0.47831195E+00</totfact>
</mgrwt>
</event>
<event>
 5    1  0.2361924E-004  0.6436788E+03  0.7818608E-02  0.9818713E-01
         13   -1    0    0    0    0  0.00000000000E+00  0.00000000000E+00  0.10000000000E+04  0.10000000000E+04  0.00000000000E+00 0. -1.
          2   -1    0    0  501    0 -0.00000000000E+00 -0.00000000000E+00 -0.10358059142E+03  0.10358059142E+03  0.00000000000E+00 0. -1.
    9000006    2    1    2  501    0  0.00000000000E+00  0.00000000000E+00  0.89641940858E+03  0.11035805914E+04  0.64367877523E+03 0.  0.
         13    1    3    3    0    0 -0.32014140328E+03  0.11669114708E+02  0.39525708498E+03  0.50877779979E+03  0.00000000000E+00 0. -1.
          4    1    3    3  501    0  0.32014140328E+03 -0.11669114708E+02  0.50116232360E+03  0.59480279163E+03  0.00000000000E+00 0. -1.
<mgrwt>
<rscale>  0 0.64367878E+03</rscale>
<asrwt>0</asrwt>
<pdfrwt beam="1">0</pdfrwt>
<pdfrwt beam="2">  1        2 0.37665749E+00 0.64367878E+03</pdfrwt>
<totfact> 0.48653919E+00</totfact>
</mgrwt>
</event>
<event>
 5    1  0.2361924E-004  0.4718672E+03  0.7818608E-02  0.1021395E+00
         13   -1    0    0    0    0  0.00000000000E+00  0.00000000000E+00  0.10000000000E+04  0.10000000000E+04  0.00000000000E+00 0. -1.
          2   -1    0    0  501    0 -0.00000000000E+00 -0.00000000000E+00 -0.55664665695E+02  0.55664665695E+02  0.00000000000E+00 0. -1.
    9000006    2    1    2  501    0  0.00000000000E+00  0.00000000000E+00  0.94433533431E+03  0.10556646657E+04  0.47186720884E+03 0.  0.
         13    1    3    3    0    0  0.16675417869E+03 -0.15342312298E+02  0.10034463582E+03  0.19522138355E+03  0.00000000000E+00 0. -1.
          4    1    3    3  501    0 -0.16675417869E+03  0.15342312298E+02  0.84399069848E+03  0.86044328214E+03  0.00000000000E+00 0. -1.
<mgrwt>
<rscale>  0 0.47186721E+03</rscale>
<asrwt>0</asrwt>
<pdfrwt beam="1">0</pdfrwt>
<pdfrwt beam="2">  1        2 0.20241739E+00 0.47186721E+03</pdfrwt>
<totfact> 0.20806069E+01</totfact>
</mgrwt>
</event>
<event>
 5    1  0.2361924E-004  0.6535393E+03  0.7818608E-02  0.9800160E-01
         13   -1    0    0    0    0  0.00000000000E+00  0.00000000000E+00  0.10000000000E+04  0.10000000000E+04  0.00000000000E+00 0. -1.
          2   -1    0    0  501    0 -0.00000000000E+00 -0.00000000000E+00 -0.10677841591E+03  0.10677841591E+03  0.00000000000E+00 0. -1.
    9000006    2    1    2  501    0  0.00000000000E+00  0.00000000000E+00  0.89322158409E+03  0.11067784159E+04  0.65353933596E+03 0.  0.
         13    1    3    3    0    0 -0.88688359887E+02  0.53671961413E+02  0.97141485313E+03  0.97693045888E+03  0.00000000000E+00 0. -1.
          4    1    3    3  501    0  0.88688359887E+02 -0.53671961413E+02 -0.78193269039E+02  0.12984795703E+03  0.00000000000E+00 0. -1.
<mgrwt>
<rscale>  0 0.65353934E+03</rscale>
<asrwt>0</asrwt>
<pdfrwt beam="1">0</pdfrwt>
<pdfrwt beam="2">  1        2 0.38828597E+00 0.65353934E+03</pdfrwt>
<totfact> 0.44034742E+00</totfact>
</mgrwt>
</event>
<event>
 5    1  0.2361924E-004  0.6471343E+03  0.7818608E-02  0.9812171E-01
         13   -1    0    0    0    0  0.00000000000E+00  0.00000000000E+00  0.10000000000E+04  0.10000000000E+04  0.00000000000E+00 0. -1.
          2   -1    0    0  501    0 -0.00000000000E+00 -0.00000000000E+00 -0.10469568531E+03  0.10469568531E+03  0.00000000000E+00 0. -1.
    9000006    2    1    2  501    0  0.00000000000E+00  0.00000000000E+00  0.89530431469E+03  0.11046956853E+04  0.64713425286E+03 0.  0.
         13    1    3    3    0    0 -0.29031810149E+03  0.24177898464E+02  0.68801728262E+03  0.74715256274E+03  0.00000000000E+00 0. -1.
          4    1    3    3  501    0  0.29031810149E+03 -0.24177898464E+02  0.20728703207E+03  0.35754312257E+03  0.00000000000E+00 0. -1.
<mgrwt>
<rscale>  0 0.64713425E+03</rscale>
<asrwt>0</asrwt>
<pdfrwt beam="1">0</pdfrwt>
<pdfrwt beam="2">  1        2 0.38071239E+00 0.64713425E+03</pdfrwt>
<totfact> 0.46995456E+00</totfact>
</mgrwt>
</event>
<event>
 5    1  0.2361924E-004  0.6772190E+03  0.7818608E-02  0.9757004E-01
         13   -1    0    0    0    0  0.00000000000E+00  0.00000000000E+00  0.10000000000E+04  0.10000000000E+04  0.00000000000E+00 0. -1.
          2   -1    0    0  501    0 -0.00000000000E+00 -0.00000000000E+00 -0.11465638273E+03  0.11465638273E+03  0.00000000000E+00 0. -1.
    9000006    2    1    2  501    0  0.00000000000E+00  0.00000000000E+00  0.88534361727E+03  0.11146563827E+04  0.67721896822E+03 0.  0.
         13    1    3    3    0    0 -0.27993528455E+03 -0.13289888175E+03  0.21801260060E+03  0.37888701525E+03  0.00000000000E+00 0. -1.
          4    1    3    3  501    0  0.27993528455E+03  0.13289888175E+03  0.66733101667E+03  0.73576936748E+03  0.00000000000E+00 0. -1.
<mgrwt>
<rscale>  0 0.67721897E+03</rscale>
<asrwt>0</asrwt>
<pdfrwt beam="1">0</pdfrwt>
<pdfrwt beam="2">  1        2 0.41693318E+00 0.67721897E+03</pdfrwt>
<totfact> 0.34294641E+00</totfact>
</mgrwt>
</event>
<event>
 5    1  0.2361924E-004  0.6373143E+03  0.7818608E-02  0.9830879E-01
         13   -1    0    0    0    0  0.00000000000E+00  0.00000000000E+00  0.10000000000E+04  0.10000000000E+04  0.00000000000E+00 0. -1.
          2   -1    0    0  501    0 -0.00000000000E+00 -0.00000000000E+00 -0.10154237753E+03  0.10154237753E+03  0.00000000000E+00 0. -1.
    9000006    2    1    2  501    0  0.00000000000E+00  0.00000000000E+00  0.89845762247E+03  0.11015423775E+04  0.63731429463E+03 0.  0.
         13    1    3    3    0    0 -0.36667502773E+02 -0.59059094347E+02  0.98673442722E+03  0.98918012123E+03  0.00000000000E+00 0. -1.
          2    1    3    3  501    0  0.36667502773E+02  0.59059094347E+02 -0.88276804751E+02  0.11236225630E+03  0.00000000000E+00 0. -1.
<mgrwt>
<rscale>  0 0.63731429E+03</rscale>
<asrwt>0</asrwt>
<pdfrwt beam="1">0</pdfrwt>
<pdfrwt beam="2">  1        2 0.36924579E+00 0.63731429E+03</pdfrwt>
<totfact> 0.51824359E+00</totfact>
</mgrwt>
</event>
<event>
 5    1  0.2361924E-004  0.6410108E+03  0.7818608E-02  0.9823795E-01
         13   -1    0    0    0    0  0.00000000000E+00  0.00000000000E+00  0.10000000000E+04  0.10000000000E+04  0.00000000000E+00 0. -1.
          2   -1    0    0  501    0 -0.00000000000E+00 -0.00000000000E+00 -0.10272370185E+03  0.10272370185E+03  0.00000000000E+00 0. -1.
    9000006    2    1    2  501    0  0.00000000000E+00  0.00000000000E+00  0.89727629815E+03  0.11027237018E+04  0.64101077011E+03 0.  0.
         13    1    3    3    0    0 -0.20409804797E+03 -0.24615015540E+03  0.41103538625E+03  0.52076482306E+03  0.00000000000E+00 0. -1.
          4    1    3    3  501    0  0.20409804797E+03  0.24615015540E+03  0.48624091191E+03  0.58195887879E+03  0.00000000000E+00 0. -1.
<mgrwt>
<rscale>  0 0.64101077E+03</rscale>
<asrwt>0</asrwt>
<pdfrwt beam="1">0</pdfrwt>
<pdfrwt beam="2">  1        2 0.37354152E+00 0.64101077E+03</pdfrwt>
<totfact> 0.49964516E+00</totfact>
</mgrwt>
</event>
<event>
 5    1  0.2361924E-004  0.6774111E+03  0.7818608E-02  0.9756661E-01
         13   -1    0    0    0    0  0.00000000000E+00  0.00000000000E+00  0.10000000000E+04  0.10000000000E+04  0.00000000000E+00 0. -1.
          2   -1    0    0  501    0 -0.00000000000E+00 -0.00000000000E+00 -0.11472146243E+03  0.11472146243E+03  0.00000000000E+00 0. -1.
    9000006    2    1    2  501    0  0.00000000000E+00  0.00000000000E+00  0.88527853757E+03  0.11147214624E+04  0.67741113787E+03 0.  0.
         13    1    3    3    0    0  0.12685821391E+03 -0.17684558129E+03  0.86970629114E+03  0.89652462259E+03  0.00000000000E+00 0. -1.
          4    1    3    3  501    0 -0.12685821391E+03  0.17684558129E+03  0.15572246433E+02  0.21819683984E+03  0.00000000000E+00 0. -1.
<mgrwt>
<rscale>  0 0.67741114E+03</rscale>
<asrwt>0</asrwt>
<pdfrwt beam="1">0</pdfrwt>
<pdfrwt beam="2">  1        2 0.41716983E+00 0.67741114E+03</pdfrwt>
<totfact> 0.34222942E+00</totfact>
</mgrwt>
</event>
<event>
 5    1  0.2361924E-004  0.6352370E+03  0.7818608E-02  0.9834882E-01
         13   -1    0    0    0    0  0.00000000000E+00  0.00000000000E+00  0.10000000000E+04  0.10000000000E+04  0.00000000000E+00 0. -1.
          2   -1    0    0  501    0 -0.00000000000E+00 -0.00000000000E+00 -0.10088152121E+03  0.10088152121E+03  0.00000000000E+00 0. -1.
    9000006    2    1    2  501    0  0.00000000000E+00  0.00000000000E+00  0.89911847879E+03  0.11008815212E+04  0.63523703044E+03 0.  0.
         13    1    3    3    0    0  0.20681137074E+03 -0.24083350494E+03  0.43139956700E+03  0.53560928537E+03  0.00000000000E+00 0. -1.
          4    1    3    3  501    0 -0.20681137074E+03  0.24083350494E+03  0.46771891179E+03  0.56527223584E+03  0.00000000000E+00 0. -1.
<mgrwt>
<rscale>  0 0.63523703E+03</rscale>
<asrwt>0</asrwt>
<pdfrwt beam="1">0</pdfrwt>
<pdfrwt beam="2">  1        2 0.36684267E+00 0.63523703E+03</pdfrwt>
<totfact> 0.52892264E+00</totfact>
</mgrwt>
</event>
<event>
 5    1  0.2361924E-004  0.6818230E+03  0.7818608E-02  0.9748832E-01
         13   -1    0    0    0    0  0.00000000000E+00  0.00000000000E+00  0.10000000000E+04  0.10000000000E+04  0.00000000000E+00 0. -1.
          2   -1    0    0  501    0 -0.00000000000E+00 -0.00000000000E+00 -0.11622066626E+03  0.11622066626E+03  0.00000000000E+00 0. -1.
    9000006    2    1    2  501    0  0.00000000000E+00  0.00000000000E+00  0.88377933374E+03  0.11162206663E+04  0.68182304527E+03 0.  0.
         13    1    3    3    0    0 -0.13407315352E+03 -0.21631149525E+03  0.81324495414E+03  0.85213474809E+03  0.00000000000E+00 0. -1.
          4    1    3    3  501    0  0.13407315352E+03  0.21631149525E+03  0.70534379601E+02  0.26408591818E+03  0.00000000000E+00 0. -1.
<mgrwt>
<rscale>  0 0.68182305E+03</rscale>
<asrwt>0</asrwt>
<pdfrwt beam="1">0</pdfrwt>
<pdfrwt beam="2">  1        2 0.42262150E+00 0.68182305E+03</pdfrwt>
<totfact> 0.32607675E+00</totfact>
</mgrwt>
</event>
<event>
 5    1  0.2361924E-004  0.6281622E+03  0.7818608E-02  0.9848642E-01
         13   -1    0    0    0    0  0.00000000000E+00  0.00000000000E+00  0.10000000000E+04  0.10000000000E+04  0.00000000000E+00 0. -1.
          2   -1    0    0  501    0 -0.00000000000E+00 -0.00000000000E+00 -0.98646943710E+02  0.98646943710E+02  0.00000000000E+00 0. -1.
    9000006    2    1    2  501    0  0.00000000000E+00  0.00000000000E+00  0.90135305629E+03  0.10986469437E+04  0.62816222016E+03 0.  0.
         13    1    3    3    0    0 -0.18427229114E+03 -0.15721407828E+03  0.80036177995E+03  0.83621260604E+03  0.00000000000E+00 0. -1.
          2    1    3    3  501    0  0.18427229114E+03  0.15721407828E+03  0.10099127634E+03  0.26243433767E+03  0.00000000000E+00 0. -1.
<mgrwt>
<rscale>  0 0.62816222E+03</rscale>
<asrwt>0</asrwt>
<pdfrwt beam="1">0</pdfrwt>
<pdfrwt beam="2">  1        2 0.35871692E+00 0.62816222E+03</pdfrwt>
<totfact> 0.56655011E+00</totfact>
</mgrwt>
</event>
<event>
 5    1  0.2361924E-004  0.5981532E+03  0.7818608E-02  0.9909245E-01
         13   -1    0    0    0    0  0.00000000000E+00  0.00000000000E+00  0.10000000000E+04  0.10000000000E+04  0.00000000000E+00 0. -1.
          2   -1    0    0  501    0 -0.00000000000E+00 -0.00000000000E+00 -0.89446819370E+02  0.89446819370E+02  0.00000000000E+00 0. -1.
    9000006    2    1    2  501    0  0.00000000000E+00  0.00000000000E+00  0.91055318063E+03  0.10894468194E+04  0.59815322241E+03 0.  0.
         13    1    3    3    0    0 -0.78560479634E+02 -0.88605035797E+02  0.95548270539E+03  0.96279270959E+03  0.00000000000E+00 0. -1.
          4    1    3    3  501    0  0.78560479634E+02  0.88605035797E+02 -0.44929524764E+02  0.12665410978E+03  0.00000000000E+00 0. -1.
<mgrwt>
<rscale>  0 0.59815322E+03</rscale>
<asrwt>0</asrwt>
<pdfrwt beam="1">0</pdfrwt>
<pdfrwt beam="2">  1        2 0.32526185E+00 0.59815322E+03</pdfrwt>
<totfact> 0.74933043E+00</totfact>
</mgrwt>
</event>
<event>
 5    1  0.2361924E-004  0.6396145E+03  0.7818608E-02  0.9826464E-01
         13   -1    0    0    0    0  0.00000000000E+00  0.00000000000E+00  0.10000000000E+04  0.10000000000E+04  0.00000000000E+00 0. -1.
          2   -1    0    0  501    0 -0.00000000000E+00 -0.00000000000E+00 -0.10227669269E+03  0.10227669269E+03  0.00000000000E+00 0. -1.
    9000006    2    1    2  501    0  0.00000000000E+00  0.00000000000E+00  0.89772330731E+03  0.11022766927E+04  0.63961454859E+03 0.  0.
         13    1    3    3    0    0  0.13257064791E+03 -0.11678802614E+03  0.90826254989E+03  0.92528659305E+03  0.00000000000E+00 0. -1.
          2    1    3    3  501    0 -0.13257064791E+03  0.11678802614E+03 -0.10539242586E+02  0.17699009964E+03  0.00000000000E+00 0. -1.
<mgrwt>
<rscale>  0 0.63961455E+03</rscale>
<asrwt>0</asrwt>
<pdfrwt beam="1">0</pdfrwt>
<pdfrwt beam="2">  1        2 0.37191603E+00 0.63961455E+03</pdfrwt>
<totfact> 0.50660965E+00</totfact>
</mgrwt>
</event>
<event>
 5    1  0.2361924E-004  0.6528124E+03  0.7818608E-02  0.9801516E-01
         13   -1    0    0    0    0  0.00000000000E+00  0.00000000000E+00  0.10000000000E+04  0.10000000000E+04  0.00000000000E+00 0. -1.
          2   -1    0    0  501    0 -0.00000000000E+00 -0.00000000000E+00 -0.10654100612E+03  0.10654100612E+03  0.00000000000E+00 0. -1.
    9000006    2    1    2  501    0  0.00000000000E+00  0.00000000000E+00  0.89345899388E+03  0.11065410061E+04  0.65281239609E+03 0.  0.
         13    1    3    3    0    0 -0.89492011468E+02 -0.20667540377E+03  0.84719413096E+03  0.87661932341E+03  0.00000000000E+00 0. -1.
          2    1    3    3  501    0  0.89492011468E+02  0.20667540377E+03  0.46264862921E+02  0.22992168271E+03  0.00000000000E+00 0. -1.
<mgrwt>
<rscale>  0 0.65281240E+03</rscale>
<asrwt>0</asrwt>
<pdfrwt beam="1">0</pdfrwt>
<pdfrwt beam="2">  1        2 0.38742266E+00 0.65281240E+03</pdfrwt>
<totfact> 0.44363474E+00</totfact>
</mgrwt>
</event>
<event>
 5    1  0.2361924E-004  0.6725245E+03  0.7818608E-02  0.9765408E-01
         13   -1    0    0    0    0  0.00000000000E+00  0.00000000000E+00  0.10000000000E+04  0.10000000000E+04  0.00000000000E+00 0. -1.
          2   -1    0    0  501    0 -0.00000000000E+00 -0.00000000000E+00 -0.11307229335E+03  0.11307229335E+03  0.00000000000E+00 0. -1.
    9000006    2    1    2  501    0  0.00000000000E+00  0.00000000000E+00  0.88692770665E+03  0.11130722934E+04  0.67252447792E+03 0.  0.
         13    1    3    3    0    0  0.28880931609E+03  0.11536412543E+03  0.23181858588E+03  0.38789116935E+03  0.00000000000E+00 0. -1.
          4    1    3    3  501    0 -0.28880931609E+03 -0.11536412543E+03  0.65510912077E+03  0.72518112400E+03  0.00000000000E+00 0. -1.
<mgrwt>
<rscale>  0 0.67252448E+03</rscale>
<asrwt>0</asrwt>
<pdfrwt beam="1">0</pdfrwt>
<pdfrwt beam="2">  1        2 0.41117284E+00 0.67252448E+03</pdfrwt>
<totfact> 0.36081608E+00</totfact>
</mgrwt>
</event>
<event>
 5    1  0.2361924E-004  0.6721131E+03  0.7818608E-02  0.9766148E-01
         13   -1    0    0    0    0  0.00000000000E+00  0.00000000000E+00  0.10000000000E+04  0.10000000000E+04  0.00000000000E+00 0. -1.
          2   -1    0    0  501    0 -0.00000000000E+00 -0.00000000000E+00 -0.11293399577E+03  0.11293399577E+03  0.00000000000E+00 0. -1.
    9000006    2    1    2  501    0  0.00000000000E+00  0.00000000000E+00  0.88706600423E+03  0.11129339958E+04  0.67211307313E+03 0.  0.
         13    1    3    3    0    0 -0.24674603816E+03 -0.12640248022E+03  0.12903564426E+03  0.30579632412E+03  0.00000000000E+00 0. -1.
          4    1    3    3  501    0  0.24674603816E+03  0.12640248022E+03  0.75803035998E+03  0.80713767165E+03  0.00000000000E+00 0. -1.
<mgrwt>
<rscale>  0 0.67211307E+03</rscale>
<asrwt>0</asrwt>
<pdfrwt beam="1">0</pdfrwt>
<pdfrwt beam="2">  1        2 0.41066994E+00 0.67211307E+03</pdfrwt>
<totfact> 0.36241497E+00</totfact>
</mgrwt>
</event>
<event>
 5    1  0.2361924E-004  0.6350767E+03  0.7818608E-02  0.9835192E-01
         13   -1    0    0    0    0  0.00000000000E+00  0.00000000000E+00  0.10000000000E+04  0.10000000000E+04  0.00000000000E+00 0. -1.
          2   -1    0    0  501    0 -0.00000000000E+00 -0.00000000000E+00 -0.10083059296E+03  0.10083059296E+03  0.00000000000E+00 0. -1.
    9000006    2    1    2  501    0  0.00000000000E+00  0.00000000000E+00  0.89916940704E+03  0.11008305930E+04  0.63507666613E+03 0.  0.
         13    1    3    3    0    0 -0.11469135239E+03 -0.74781063647E+02  0.94620484415E+03  0.95605958020E+03  0.00000000000E+00 0. -1.
          2    1    3    3  501    0  0.11469135239E+03  0.74781063647E+02 -0.47035437114E+02  0.14477101277E+03  0.00000000000E+00 0. -1.
<mgrwt>
<rscale>  0 0.63507667E+03</rscale>
<asrwt>0</asrwt>
<pdfrwt beam="1">0</pdfrwt>
<pdfrwt beam="2">  1        2 0.36665747E+00 0.63507667E+03</pdfrwt>
<totfact> 0.52975394E+00</totfact>
</mgrwt>
</event>
<event>
 5    1  0.2361924E-004  0.6662917E+03  0.7818608E-02  0.9776680E-01
         13   -1    0    0    0    0  0.00000000000E+00  0.00000000000E+00  0.10000000000E+04  0.10000000000E+04  0.00000000000E+00 0. -1.
          2   -1    0    0  501    0 -0.00000000000E+00 -0.00000000000E+00 -0.11098615951E+03  0.11098615951E+03  0.00000000000E+00 0. -1.
    9000006    2    1    2  501    0  0.00000000000E+00  0.00000000000E+00  0.88901384049E+03  0.11109861595E+04  0.66629170642E+03 0.  0.
         13    1    3    3    0    0 -0.22604942578E+03  0.23989235554E+03  0.52515673726E+03  0.62002926047E+03  0.00000000000E+00 0. -1.
          4    1    3    3  501    0  0.22604942578E+03 -0.23989235554E+03  0.36385710323E+03  0.49095689904E+03  0.00000000000E+00 0. -1.
<mgrwt>
<rscale>  0 0.66629171E+03</rscale>
<asrwt>0</asrwt>
<pdfrwt beam="1">0</pdfrwt>
<pdfrwt beam="2">  1        2 0.40358689E+00 0.66629171E+03</pdfrwt>
<totfact> 0.38561657E+00</totfact>
</mgrwt>
</event>
<event>
 5    1  0.2361924E-004  0.6621507E+03  0.7818608E-02  0.9784243E-01
         13   -1    0    0    0    0  0.00000000000E+00  0.00000000000E+00  0.10000000000E+04  0.10000000000E+04  0.00000000000E+00 0. -1.
          2   -1    0    0  501    0 -0.00000000000E+00 -0.00000000000E+00 -0.10961087300E+03  0.10961087300E+03  0.00000000000E+00 0. -1.
    9000006    2    1    2  501    0  0.00000000000E+00  0.00000000000E+00  0.89038912700E+03  0.11096108730E+04  0.66215065656E+03 0.  0.
         13    1    3    3    0    0  0.25232556157E+03 -0.21281811546E+03  0.40243345266E+03  0.52049248132E+03  0.00000000000E+00 0. -1.
          4    1    3    3  501    0 -0.25232556157E+03  0.21281811546E+03  0.48795567434E+03  0.58911839168E+03  0.00000000000E+00 0. -1.
<mgrwt>
<rscale>  0 0.66215066E+03</rscale>
<asrwt>0</asrwt>
<pdfrwt beam="1">0</pdfrwt>
<pdfrwt beam="2">  1        2 0.39858583E+00 0.66215066E+03</pdfrwt>
<totfact> 0.40279020E+00</totfact>
</mgrwt>
</event>
<event>
 5    1  0.2361924E-004  0.6702061E+03  0.7818608E-02  0.9769586E-01
         13   -1    0    0    0    0  0.00000000000E+00  0.00000000000E+00  0.10000000000E+04  0.10000000000E+04  0.00000000000E+00 0. -1.
          2   -1    0    0  501    0 -0.00000000000E+00 -0.00000000000E+00 -0.11229405309E+03  0.11229405309E+03  0.00000000000E+00 0. -1.
    9000006    2    1    2  501    0  0.00000000000E+00  0.00000000000E+00  0.88770594691E+03  0.11122940531E+04  0.67020609693E+03 0.  0.
         13    1    3    3    0    0  0.54001103719E+02  0.32100903309E+03  0.31179883594E+03  0.45075651146E+03  0.00000000000E+00 0. -1.
          2    1    3    3  501    0 -0.54001103719E+02 -0.32100903309E+03  0.57590711097E+03  0.66153754163E+03  0.00000000000E+00 0. -1.
<mgrwt>
<rscale>  0 0.67020610E+03</rscale>
<asrwt>0</asrwt>
<pdfrwt beam="1">0</pdfrwt>
<pdfrwt beam="2">  1        2 0.40834287E+00 0.67020610E+03</pdfrwt>
<totfact> 0.36989611E+00</totfact>
</mgrwt>
</event>
<event>
 5    1  0.2361924E-004  0.5681948E+03  0.7818608E-02  0.9973681E-01
         13   -1    0    0    0    0  0.00000000000E+00  0.00000000000E+00  0.10000000000E+04  0.10000000000E+04  0.00000000000E+00 0. -1.
          2   -1    0    0  501    0 -0.00000000000E+00 -0.00000000000E+00 -0.80711335838E+02  0.80711335838E+02  0.00000000000E+00 0. -1.
    9000006    2    1    2  501    0  0.00000000000E+00  0.00000000000E+00  0.91928866416E+03  0.10807113358E+04  0.56819481109E+03 0.  0.
         13    1    3    3    0    0 -0.24201532515E+02 -0.28053260905E+03  0.38779278308E+03  0.47923637334E+03  0.00000000000E+00 0. -1.
          2    1    3    3  501    0  0.24201532515E+02  0.28053260905E+03  0.53149588108E+03  0.60147496250E+03  0.00000000000E+00 0. -1.
<mgrwt>
<rscale>  0 0.56819481E+03</rscale>
<asrwt>0</asrwt>
<pdfrwt beam="1">0</pdfrwt>
<pdfrwt beam="2">  1        2 0.29349639E+00 0.56819481E+03</pdfrwt>
<totfact> 0.97406912E+00</totfact>
</mgrwt>
</event>
<event>
 5    1  0.2361924E-004  0.6514418E+03  0.7818608E-02  0.9804078E-01
         13   -1    0    0    0    0  0.00000000000E+00  0.00000000000E+00  0.10000000000E+04  0.10000000000E+04  0.00000000000E+00 0. -1.
          2   -1    0    0  501    0 -0.00000000000E+00 -0.00000000000E+00 -0.10609408918E+03  0.10609408918E+03  0.00000000000E+00 0. -1.
    9000006    2    1    2  501    0  0.00000000000E+00  0.00000000000E+00  0.89390591082E+03  0.11060940892E+04  0.65144175236E+03 0.  0.
         13    1    3    3    0    0  0.47262394734E+02 -0.22424591484E+03  0.83995428931E+03  0.87065674775E+03  0.00000000000E+00 0. -1.
          2    1    3    3  501    0 -0.47262394734E+02  0.22424591484E+03  0.53951621514E+02  0.23543734143E+03  0.00000000000E+00 0. -1.
<mgrwt>
<rscale>  0 0.65144175E+03</rscale>
<asrwt>0</asrwt>
<pdfrwt beam="1">0</pdfrwt>
<pdfrwt beam="2">  1        2 0.38579750E+00 0.65144175E+03</pdfrwt>
<totfact> 0.44988338E+00</totfact>
</mgrwt>
</event>
<event>
 5    1  0.2361924E-004  0.6490578E+03  0.7818608E-02  0.9808549E-01
         13   -1    0    0    0    0  0.00000000000E+00  0.00000000000E+00  0.10000000000E+04  0.10000000000E+04  0.00000000000E+00 0. -1.
          2   -1    0    0  501    0 -0.00000000000E+00 -0.00000000000E+00 -0.10531900180E+03  0.10531900180E+03  0.00000000000E+00 0. -1.
    9000006    2    1    2  501    0  0.00000000000E+00  0.00000000000E+00  0.89468099820E+03  0.11053190018E+04  0.64905778419E+03 0.  0.
         13    1    3    3    0    0  0.29147154619E+03 -0.11449629063E+03  0.30229935300E+03  0.43525849978E+03  0.00000000000E+00 0. -1.
          2    1    3    3  501    0 -0.29147154619E+03  0.11449629063E+03  0.59238164520E+03  0.67006050203E+03  0.00000000000E+00 0. -1.
<mgrwt>
<rscale>  0 0.64905778E+03</rscale>
<asrwt>0</asrwt>
<pdfrwt beam="1">0</pdfrwt>
<pdfrwt beam="2">  1        2 0.38297900E+00 0.64905778E+03</pdfrwt>
<totfact> 0.46090983E+00</totfact>
</mgrwt>
</event>
<event>
 5    1  0.2361924E-004  0.6570828E+03  0.7818608E-02  0.9793579E-01
         13   -1    0    0    0    0  0.00000000000E+00  0.00000000000E+00  0.10000000000E+04  0.10000000000E+04  0.00000000000E+00 0. -1.
          2   -1    0    0  501    0 -0.00000000000E+00 -0.00000000000E+00 -0.10793944813E+03  0.10793944813E+03  0.00000000000E+00 0. -1.
    9000006    2    1    2  501    0  0.00000000000E+00  0.00000000000E+00  0.89206055187E+03  0.11079394481E+04  0.65708278970E+03 0.  0.
         13    1    3    3    0    0 -0.24616578688E+03  0.14289921078E+03  0.16936992469E+03  0.33121586687E+03  0.00000000000E+00 0. -1.
          2    1    3    3  501    0  0.24616578688E+03 -0.14289921078E+03  0.72269062718E+03  0.77672358126E+03  0.00000000000E+00 0. -1.
<mgrwt>
<rscale>  0 0.65708279E+03</rscale>
<asrwt>0</asrwt>
<pdfrwt beam="1">0</pdfrwt>
<pdfrwt beam="2">  1        2 0.39250791E+00 0.65708279E+03</pdfrwt>
<totfact> 0.42458601E+00</totfact>
</mgrwt>
</event>
<event>
 5    1  0.2361924E-004  0.6580676E+03  0.7818608E-02  0.9791758E-01
         13   -1    0    0    0    0  0.00000000000E+00  0.00000000000E+00  0.10000000000E+04  0.10000000000E+04  0.00000000000E+00 0. -1.
          2   -1    0    0  501    0 -0.00000000000E+00 -0.00000000000E+00 -0.10826325122E+03  0.10826325122E+03  0.00000000000E+00 0. -1.
    9000006    2    1    2  501    0  0.00000000000E+00  0.00000000000E+00  0.89173674878E+03  0.11082632512E+04  0.65806762940E+03 0.  0.
         13    1    3    3    0    0  0.23570705789E+02  0.32010216150E+03  0.32393222390E+03  0.45601870318E+03  0.00000000000E+00 0. -1.
          4    1    3    3  501    0 -0.23570705789E+02 -0.32010216150E+03  0.56780452489E+03  0.65224454804E+03  0.00000000000E+00 0. -1.
<mgrwt>
<rscale>  0 0.65806763E+03</rscale>
<asrwt>0</asrwt>
<pdfrwt beam="1">0</pdfrwt>
<pdfrwt beam="2">  1        2 0.39368538E+00 0.65806763E+03</pdfrwt>
<totfact> 0.42028208E+00</totfact>
</mgrwt>
</event>
<event>
 5    1  0.2361924E-004  0.6575754E+03  0.7818608E-02  0.9792667E-01
         13   -1    0    0    0    0  0.00000000000E+00  0.00000000000E+00  0.10000000000E+04  0.10000000000E+04  0.00000000000E+00 0. -1.
          2   -1    0    0  501    0 -0.00000000000E+00 -0.00000000000E+00 -0.10810134336E+03  0.10810134336E+03  0.00000000000E+00 0. -1.
    9000006    2    1    2  501    0  0.00000000000E+00  0.00000000000E+00  0.89189865664E+03  0.11081013434E+04  0.65757537471E+03 0.  0.
         13    1    3    3    0    0  0.96797184238E+02  0.15360202032E+03 -0.15967677891E+02  0.18225872341E+03  0.00000000000E+00 0. -1.
          2    1    3    3  501    0 -0.96797184238E+02 -0.15360202032E+03  0.90786633453E+03  0.92584261994E+03  0.00000000000E+00 0. -1.
<mgrwt>
<rscale>  0 0.65757537E+03</rscale>
<asrwt>0</asrwt>
<pdfrwt beam="1">0</pdfrwt>
<pdfrwt beam="2">  1        2 0.39309662E+00 0.65757537E+03</pdfrwt>
<totfact> 0.42242919E+00</totfact>
</mgrwt>
</event>
<event>
 5    1  0.2361924E-004  0.5533993E+03  0.7818608E-02  0.1000710E+00
         13   -1    0    0    0    0  0.00000000000E+00  0.00000000000E+00  0.10000000000E+04  0.10000000000E+04  0.00000000000E+00 0. -1.
          2   -1    0    0  501    0 -0.00000000000E+00 -0.00000000000E+00 -0.76562706821E+02  0.76562706821E+02  0.00000000000E+00 0. -1.
    9000006    2    1    2  501    0  0.00000000000E+00  0.00000000000E+00  0.92343729318E+03  0.10765627068E+04  0.55339933799E+03 0.  0.
         13    1    3    3    0    0  0.16566498556E+03  0.10793184255E+03  0.85158753019E+02  0.21528163715E+03  0.00000000000E+00 0. -1.
          4    1    3    3  501    0 -0.16566498556E+03 -0.10793184255E+03  0.83827854016E+03  0.86128106967E+03  0.00000000000E+00 0. -1.
<mgrwt>
<rscale>  0 0.55339934E+03</rscale>
<asrwt>0</asrwt>
<pdfrwt beam="1">0</pdfrwt>
<pdfrwt beam="2">  1        2 0.27841043E+00 0.55339934E+03</pdfrwt>
<totfact> 0.11027917E+01</totfact>
</mgrwt>
</event>
<event>
 5    1  0.2361924E-004  0.6752506E+03  0.7818608E-02  0.9760519E-01
         13   -1    0    0    0    0  0.00000000000E+00  0.00000000000E+00  0.10000000000E+04  0.10000000000E+04  0.00000000000E+00 0. -1.
          2   -1    0    0  501    0 -0.00000000000E+00 -0.00000000000E+00 -0.11399083161E+03  0.11399083161E+03  0.00000000000E+00 0. -1.
    9000006    2    1    2  501    0  0.00000000000E+00  0.00000000000E+00  0.88600916839E+03  0.11139908316E+04  0.67525056568E+03 0.  0.
         13    1    3    3    0    0 -0.29264200176E+03 -0.15388085701E+03  0.33023912744E+03  0.46730775795E+03  0.00000000000E+00 0. -1.
          4    1    3    3  501    0  0.29264200176E+03  0.15388085701E+03  0.55577004095E+03  0.64668307366E+03  0.00000000000E+00 0. -1.
<mgrwt>
<rscale>  0 0.67525057E+03</rscale>
<asrwt>0</asrwt>
<pdfrwt beam="1">0</pdfrwt>
<pdfrwt beam="2">  1        2 0.41451299E+00 0.67525057E+03</pdfrwt>
<totfact> 0.35035586E+00</totfact>
</mgrwt>
</event>
<event>
 5    1  0.2361924E-004  0.6530789E+03  0.7818608E-02  0.9801019E-01
         13   -1    0    0    0    0  0.00000000000E+00  0.00000000000E+00  0.10000000000E+04  0.10000000000E+04  0.00000000000E+00 0. -1.
          2   -1    0    0  501    0 -0.00000000000E+00 -0.00000000000E+00 -0.10662799978E+03  0.10662799978E+03  0.00000000000E+00 0. -1.
    9000006    2    1    2  501    0  0.00000000000E+00  0.00000000000E+00  0.89337200022E+03  0.11066279998E+04  0.65307886132E+03 0.  0.
         13    1    3    3    0    0  0.16614434352E+03  0.13279585546E+03  0.86652466353E+03  0.89224642035E+03  0.00000000000E+00 0. -1.
          4    1    3    3  501    0 -0.16614434352E+03 -0.13279585546E+03  0.26847336692E+02  0.21438157943E+03  0.00000000000E+00 0. -1.
<mgrwt>
<rscale>  0 0.65307886E+03</rscale>
<asrwt>0</asrwt>
<pdfrwt beam="1">0</pdfrwt>
<pdfrwt beam="2">  1        2 0.38773900E+00 0.65307886E+03</pdfrwt>
<totfact> 0.44242761E+00</totfact>
</mgrwt>
</event>
<event>
 5    1  0.2361924E-004  0.6326392E+03  0.7818608E-02  0.9839912E-01
         13   -1    0    0    0    0  0.00000000000E+00  0.00000000000E+00  0.10000000000E+04  0.10000000000E+04  0.00000000000E+00 0. -1.
          2   -1    0    0  501    0 -0.00000000000E+00 -0.00000000000E+00 -0.10005808534E+03  0.10005808534E+03  0.00000000000E+00 0. -1.
    9000006    2    1    2  501    0  0.00000000000E+00  0.00000000000E+00  0.89994191466E+03  0.11000580853E+04  0.63263918734E+03 0.  0.
         13    1    3    3    0    0  0.13892816512E+03 -0.13686285807E+03  0.88302793834E+03  0.90430681567E+03  0.00000000000E+00 0. -1.
          4    1    3    3  501    0 -0.13892816512E+03  0.13686285807E+03  0.16913976325E+02  0.19575126967E+03  0.00000000000E+00 0. -1.
<mgrwt>
<rscale>  0 0.63263919E+03</rscale>
<asrwt>0</asrwt>
<pdfrwt beam="1">0</pdfrwt>
<pdfrwt beam="2">  1        2 0.36384835E+00 0.63263919E+03</pdfrwt>
<totfact> 0.54251174E+00</totfact>
</mgrwt>
</event>
<event>
 5    1  0.2361924E-004  0.6472048E+03  0.7818608E-02  0.9812038E-01
         13   -1    0    0    0    0  0.00000000000E+00  0.00000000000E+00  0.10000000000E+04  0.10000000000E+04  0.00000000000E+00 0. -1.
          2   -1    0    0  501    0 -0.00000000000E+00 -0.00000000000E+00 -0.10471851342E+03  0.10471851342E+03  0.00000000000E+00 0. -1.
    9000006    2    1    2  501    0  0.00000000000E+00  0.00000000000E+00  0.89528148658E+03  0.11047185134E+04  0.64720480042E+03 0.  0.
         13    1    3    3    0    0 -0.14097353700E+03  0.21184087775E+03  0.78888738071E+03  0.82891096932E+03  0.00000000000E+00 0. -1.
          2    1    3    3  501    0  0.14097353700E+03 -0.21184087775E+03  0.10639410587E+03  0.27580754410E+03  0.00000000000E+00 0. -1.
<mgrwt>
<rscale>  0 0.64720480E+03</rscale>
<asrwt>0</asrwt>
<pdfrwt beam="1">0</pdfrwt>
<pdfrwt beam="2">  1        2 0.38079540E+00 0.64720480E+03</pdfrwt>
<totfact> 0.46962048E+00</totfact>
</mgrwt>
</event>
<event>
 5    1  0.2361924E-004  0.6690703E+03  0.7818608E-02  0.9771639E-01
         13   -1    0    0    0    0  0.00000000000E+00  0.00000000000E+00  0.10000000000E+04  0.10000000000E+04  0.00000000000E+00 0. -1.
          2   -1    0    0  501    0 -0.00000000000E+00 -0.00000000000E+00 -0.11191375980E+03  0.11191375980E+03  0.00000000000E+00 0. -1.
    9000006    2    1    2  501    0  0.00000000000E+00  0.00000000000E+00  0.88808624020E+03  0.11119137598E+04  0.66907027972E+03 0.  0.
         13    1    3    3    0    0 -0.26065225687E+03  0.99101003384E+01  0.79215002328E+03  0.83399008896E+03  0.00000000000E+00 0. -1.
          2    1    3    3  501    0  0.26065225687E+03 -0.99101003384E+01  0.95936216920E+02  0.27792367085E+03  0.00000000000E+00 0. -1.
<mgrwt>
<rscale>  0 0.66907028E+03</rscale>
<asrwt>0</asrwt>
<pdfrwt beam="1">0</pdfrwt>
<pdfrwt beam="2">  1        2 0.40695998E+00 0.66907028E+03</pdfrwt>
<totfact> 0.37440692E+00</totfact>
</mgrwt>
</event>
<event>
 5    1  0.2361924E-004  0.5150377E+03  0.7818608E-02  0.1009927E+00
         13   -1    0    0    0    0  0.00000000000E+00  0.00000000000E+00  0.10000000000E+04  0.10000000000E+04  0.00000000000E+00 0. -1.
          2   -1    0    0  501    0 -0.00000000000E+00 -0.00000000000E+00 -0.66315955110E+02  0.66315955110E+02  0.00000000000E+00 0. -1.
    9000006    2    1    2  501    0  0.00000000000E+00  0.00000000000E+00  0.93368404489E+03  0.10663159551E+04  0.51503768837E+03 0.  0.
         13    1    3    3    0    0 -0.27997545946E+02  0.25587632453E+03  0.48279848979E+03  0.54712972664E+03  0.00000000000E+00 0. -1.
          4    1    3    3  501    0  0.27997545946E+02 -0.25587632453E+03  0.45088555510E+03  0.51918622847E+03  0.00000000000E+00 0. -1.
<mgrwt>
<rscale>  0 0.51503769E+03</rscale>
<asrwt>0</asrwt>
<pdfrwt beam="1">0</pdfrwt>
<pdfrwt beam="2">  1        2 0.24114944E+00 0.51503769E+03</pdfrwt>
<totfact> 0.15001782E+01</totfact>
</mgrwt>
</event>
<event>
 5    1  0.2361924E-004  0.8060748E+03  0.7818608E-02  0.9551265E-01
         13   -1    0    0    0    0  0.00000000000E+00  0.00000000000E+00  0.10000000000E+04  0.10000000000E+04  0.00000000000E+00 0. -1.
          2   -1    0    0  501    0 -0.00000000000E+00 -0.00000000000E+00 -0.16243915054E+03  0.16243915054E+03  0.00000000000E+00 0. -1.
    9000006    2    1    2  501    0  0.00000000000E+00  0.00000000000E+00  0.83756084946E+03  0.11624391505E+04  0.80607481176E+03 0.  0.
         13    1    3    3    0    0  0.23573292015E+03 -0.89723865699E+02  0.87211056770E+03  0.90785308503E+03  0.00000000000E+00 0. -1.
          2    1    3    3  501    0 -0.23573292015E+03  0.89723865699E+02 -0.34549718233E+02  0.25458606550E+03  0.00000000000E+00 0. -1.
<mgrwt>
<rscale>  0 0.80607481E+03</rscale>
<asrwt>0</asrwt>
<pdfrwt beam="1">0</pdfrwt>
<pdfrwt beam="2">  1        2 0.59068907E+00 0.80607481E+03</pdfrwt>
<totfact> 0.61237204E-01</totfact>
</mgrwt>
</event>
<event>
 5    1  0.2361924E-004  0.6484625E+03  0.7818608E-02  0.9809669E-01
         13   -1    0    0    0    0  0.00000000000E+00  0.00000000000E+00  0.10000000000E+04  0.10000000000E+04  0.00000000000E+00 0. -1.
          2   -1    0    0  501    0 -0.00000000000E+00 -0.00000000000E+00 -0.10512588821E+03  0.10512588821E+03  0.00000000000E+00 0. -1.
    9000006    2    1    2  501    0  0.00000000000E+00  0.00000000000E+00  0.89487411179E+03  0.11051258882E+04  0.64846245291E+03 0.  0.
         13    1    3    3    0    0  0.62757080636E+02  0.15183319610E+03 -0.28936092577E+02  0.16682046655E+03  0.00000000000E+00 0. -1.
          4    1    3    3  501    0 -0.62757080636E+02 -0.15183319610E+03  0.92381020437E+03  0.93830542165E+03  0.00000000000E+00 0. -1.
<mgrwt>
<rscale>  0 0.64846245E+03</rscale>
<asrwt>0</asrwt>
<pdfrwt beam="1">0</pdfrwt>
<pdfrwt beam="2">  1        2 0.38227676E+00 0.64846245E+03</pdfrwt>
<totfact> 0.46369498E+00</totfact>
</mgrwt>
</event>
<event>
 5    1  0.2361924E-004  0.6511302E+03  0.7818608E-02  0.9804661E-01
         13   -1    0    0    0    0  0.00000000000E+00  0.00000000000E+00  0.10000000000E+04  0.10000000000E+04  0.00000000000E+00 0. -1.
          2   -1    0    0  501    0 -0.00000000000E+00 -0.00000000000E+00 -0.10599262620E+03  0.10599262620E+03  0.00000000000E+00 0. -1.
    9000006    2    1    2  501    0  0.00000000000E+00  0.00000000000E+00  0.89400737380E+03  0.11059926262E+04  0.65113017499E+03 0.  0.
         13    1    3    3    0    0 -0.13966578231E+03 -0.11160060053E+03  0.90916372964E+03  0.92657428848E+03  0.00000000000E+00 0. -1.
          2    1    3    3  501    0  0.13966578231E+03  0.11160060053E+03 -0.15156355837E+02  0.17941833771E+03  0.00000000000E+00 0. -1.
<mgrwt>
<rscale>  0 0.65113017E+03</rscale>
<asrwt>0</asrwt>
<pdfrwt beam="1">0</pdfrwt>
<pdfrwt beam="2">  1        2 0.38542854E+00 0.65113017E+03</pdfrwt>
<totfact> 0.45131306E+00</totfact>
</mgrwt>
</event>
<event>
 5    1  0.2361924E-004  0.5982880E+03  0.7818608E-02  0.9908964E-01
         13   -1    0    0    0    0  0.00000000000E+00  0.00000000000E+00  0.10000000000E+04  0.10000000000E+04  0.00000000000E+00 0. -1.
          2   -1    0    0  501    0 -0.00000000000E+00 -0.00000000000E+00 -0.89487146795E+02  0.89487146795E+02  0.00000000000E+00 0. -1.
    9000006    2    1    2  501    0  0.00000000000E+00  0.00000000000E+00  0.91051285320E+03  0.10894871468E+04  0.59828804700E+03 0.  0.
         13    1    3    3    0    0 -0.96313591770E+02  0.18221110011E+03  0.60429560149E+02  0.21477645286E+03  0.00000000000E+00 0. -1.
          4    1    3    3  501    0  0.96313591770E+02 -0.18221110011E+03  0.85008329306E+03  0.87471069394E+03  0.00000000000E+00 0. -1.
<mgrwt>
<rscale>  0 0.59828805E+03</rscale>
<asrwt>0</asrwt>
<pdfrwt beam="1">0</pdfrwt>
<pdfrwt beam="2">  1        2 0.32540849E+00 0.59828805E+03</pdfrwt>
<totfact> 0.74841979E+00</totfact>
</mgrwt>
</event>
<event>
 5    1  0.2361924E-004  0.7137318E+03  0.7818608E-02  0.9694033E-01
         13   -1    0    0    0    0  0.00000000000E+00  0.00000000000E+00  0.10000000000E+04  0.10000000000E+04  0.00000000000E+00 0. -1.
          2   -1    0    0  501    0 -0.00000000000E+00 -0.00000000000E+00 -0.12735327663E+03  0.12735327663E+03  0.00000000000E+00 0. -1.
    9000006    2    1    2  501    0  0.00000000000E+00  0.00000000000E+00  0.87264672337E+03  0.11273532766E+04  0.71373181694E+03 0.  0.
         13    1    3    3    0    0  0.27499349107E+03  0.22661604483E+03  0.46699308718E+03  0.58741705404E+03  0.00000000000E+00 0. -1.
          2    1    3    3  501    0 -0.27499349107E+03 -0.22661604483E+03  0.40565363619E+03  0.53993622259E+03  0.00000000000E+00 0. -1.
<mgrwt>
<rscale>  0 0.71373182E+03</rscale>
<asrwt>0</asrwt>
<pdfrwt beam="1">0</pdfrwt>
<pdfrwt beam="2">  1        2 0.46310380E+00 0.71373182E+03</pdfrwt>
<totfact> 0.22567903E+00</totfact>
</mgrwt>
</event>
<event>
 5    1  0.2361924E-004  0.6454049E+03  0.7818608E-02  0.9815440E-01
         13   -1    0    0    0    0  0.00000000000E+00  0.00000000000E+00  0.10000000000E+04  0.10000000000E+04  0.00000000000E+00 0. -1.
          2   -1    0    0  501    0 -0.00000000000E+00 -0.00000000000E+00 -0.10413688465E+03  0.10413688465E+03  0.00000000000E+00 0. -1.
    9000006    2    1    2  501    0  0.00000000000E+00  0.00000000000E+00  0.89586311535E+03  0.11041368847E+04  0.64540494157E+03 0.  0.
         13    1    3    3    0    0 -0.20881843679E+03  0.21517258927E+03  0.65202603708E+03  0.71766450083E+03  0.00000000000E+00 0. -1.
          2    1    3    3  501    0  0.20881843679E+03 -0.21517258927E+03  0.24383707827E+03  0.38647238382E+03  0.00000000000E+00 0. -1.
<mgrwt>
<rscale>  0 0.64540494E+03</rscale>
<asrwt>0</asrwt>
<pdfrwt beam="1">0</pdfrwt>
<pdfrwt beam="2">  1        2 0.37868038E+00 0.64540494E+03</pdfrwt>
<totfact> 0.47820003E+00</totfact>
</mgrwt>
</event>
<event>
 5    1  0.2361924E-004  0.6429992E+03  0.7818608E-02  0.9820005E-01
         13   -1    0    0    0    0  0.00000000000E+00  0.00000000000E+00  0.10000000000E+04  0.10000000000E+04  0.00000000000E+00 0. -1.
          2   -1    0    0  501    0 -0.00000000000E+00 -0.00000000000E+00 -0.10336200229E+03  0.10336200229E+03  0.00000000000E+00 0. -1.
    9000006    2    1    2  501    0  0.00000000000E+00  0.00000000000E+00  0.89663799771E+03  0.11033620023E+04  0.64299922952E+03 0.  0.
         13    1    3    3    0    0 -0.11288193278E+03 -0.62639654631E+02  0.95356974555E+03  0.96226883806E+03  0.00000000000E+00 0. -1.
          2    1    3    3  501    0  0.11288193278E+03  0.62639654631E+02 -0.56931747840E+02  0.14109316423E+03  0.00000000000E+00 0. -1.
<mgrwt>
<rscale>  0 0.64299923E+03</rscale>
<asrwt>0</asrwt>
<pdfrwt beam="1">0</pdfrwt>
<pdfrwt beam="2">  1        2 0.37586262E+00 0.64299923E+03</pdfrwt>
<totfact> 0.48985212E+00</totfact>
</mgrwt>
</event>
<event>
 5    1  0.2361924E-004  0.6510781E+03  0.7818608E-02  0.9804758E-01
         13   -1    0    0    0    0  0.00000000000E+00  0.00000000000E+00  0.10000000000E+04  0.10000000000E+04  0.00000000000E+00 0. -1.
          4   -1    0    0  501    0 -0.00000000000E+00 -0.00000000000E+00 -0.10597567649E+03  0.10597567649E+03  0.00000000000E+00 0. -1.
    9000006    2    1    2  501    0  0.00000000000E+00  0.00000000000E+00  0.89402432351E+03  0.11059756765E+04  0.65107811048E+03 0.  0.
         13    1    3    3    0    0 -0.26916926517E+02 -0.26538827651E+03  0.76398950840E+03  0.80921902300E+03  0.00000000000E+00 0. -1.
          2    1    3    3  501    0  0.26916926517E+02  0.26538827651E+03  0.13003481511E+03  0.29675665348E+03  0.00000000000E+00 0. -1.
<mgrwt>
<rscale>  0 0.65107811E+03</rscale>
<asrwt>0</asrwt>
<pdfrwt beam="1">0</pdfrwt>
<pdfrwt beam="2">  1        4 0.38536691E+00 0.65107811E+03</pdfrwt>
<totfact> 0.40363069E-02</totfact>
</mgrwt>
</event>
<event>
 5    1  0.2361924E-004  0.6453756E+03  0.7818608E-02  0.9815495E-01
         13   -1    0    0    0    0  0.00000000000E+00  0.00000000000E+00  0.10000000000E+04  0.10000000000E+04  0.00000000000E+00 0. -1.
          2   -1    0    0  501    0 -0.00000000000E+00 -0.00000000000E+00 -0.10412743011E+03  0.10412743011E+03  0.00000000000E+00 0. -1.
    9000006    2    1    2  501    0  0.00000000000E+00  0.00000000000E+00  0.89587256989E+03  0.11041274301E+04  0.64537564290E+03 0.  0.
         13    1    3    3    0    0 -0.18261930951E+03  0.22134232571E+02  0.90150832505E+03  0.92008532027E+03  0.00000000000E+00 0. -1.
          2    1    3    3  501    0  0.18261930951E+03 -0.22134232571E+02 -0.56357551574E+01  0.18404210984E+03  0.00000000000E+00 0. -1.
<mgrwt>
<rscale>  0 0.64537564E+03</rscale>
<asrwt>0</asrwt>
<pdfrwt beam="1">0</pdfrwt>
<pdfrwt beam="2">  1        2 0.37864600E+00 0.64537564E+03</pdfrwt>
<totfact> 0.47834066E+00</totfact>
</mgrwt>
</event>
<event>
 5    1  0.2361924E-004  0.6337230E+03  0.7818608E-02  0.9837810E-01
         13   -1    0    0    0    0  0.00000000000E+00  0.00000000000E+00  0.10000000000E+04  0.10000000000E+04  0.00000000000E+00 0. -1.
          2   -1    0    0  501    0 -0.00000000000E+00 -0.00000000000E+00 -0.10040121866E+03  0.10040121866E+03  0.00000000000E+00 0. -1.
    9000006    2    1    2  501    0  0.00000000000E+00  0.00000000000E+00  0.89959878134E+03  0.11004012187E+04  0.63372302676E+03 0.  0.
         13    1    3    3    0    0  0.39252512620E+02  0.31333992825E+03  0.49503099075E+03  0.58717829676E+03  0.00000000000E+00 0. -1.
          4    1    3    3  501    0 -0.39252512620E+02 -0.31333992825E+03  0.40456779059E+03  0.51322292190E+03  0.00000000000E+00 0. -1.
<mgrwt>
<rscale>  0 0.63372303E+03</rscale>
<asrwt>0</asrwt>
<pdfrwt beam="1">0</pdfrwt>
<pdfrwt beam="2">  1        2 0.36509611E+00 0.63372303E+03</pdfrwt>
<totfact> 0.53681048E+00</totfact>
</mgrwt>
</event>
<event>
 5    1  0.2361924E-004  0.5734669E+03  0.7818608E-02  0.9962036E-01
         13   -1    0    0    0    0  0.00000000000E+00  0.00000000000E+00  0.10000000000E+04  0.10000000000E+04  0.00000000000E+00 0. -1.
          2   -1    0    0  501    0 -0.00000000000E+00 -0.00000000000E+00 -0.82216076151E+02  0.82216076151E+02  0.00000000000E+00 0. -1.
    9000006    2    1    2  501    0  0.00000000000E+00  0.00000000000E+00  0.91778392385E+03  0.10822160762E+04  0.57346691675E+03 0.  0.
         13    1    3    3    0    0 -0.18803086849E+03 -0.20303898722E+03  0.31722219837E+03  0.42096361003E+03  0.00000000000E+00 0. -1.
          2    1    3    3  501    0  0.18803086849E+03  0.20303898722E+03  0.60056172548E+03  0.66125246612E+03  0.00000000000E+00 0. -1.
<mgrwt>
<rscale>  0 0.57346692E+03</rscale>
<asrwt>0</asrwt>
<pdfrwt beam="1">0</pdfrwt>
<pdfrwt beam="2">  1        2 0.29896818E+00 0.57346692E+03</pdfrwt>
<totfact> 0.93115799E+00</totfact>
</mgrwt>
</event>
<event>
 5    1  0.2361924E-004  0.6534754E+03  0.7818608E-02  0.9800280E-01
         13   -1    0    0    0    0  0.00000000000E+00  0.00000000000E+00  0.10000000000E+04  0.10000000000E+04  0.00000000000E+00 0. -1.
          2   -1    0    0  501    0 -0.00000000000E+00 -0.00000000000E+00 -0.10675752883E+03  0.10675752883E+03  0.00000000000E+00 0. -1.
    9000006    2    1    2  501    0  0.00000000000E+00  0.00000000000E+00  0.89324247117E+03  0.11067575288E+04  0.65347541294E+03 0.  0.
         13    1    3    3    0    0  0.74265014693E+02  0.91148453813E+02  0.96293179321E+03  0.97008297141E+03  0.00000000000E+00 0. -1.
          2    1    3    3  501    0 -0.74265014693E+02 -0.91148453813E+02 -0.69689322038E+02  0.13667455742E+03  0.00000000000E+00 0. -1.
<mgrwt>
<rscale>  0 0.65347541E+03</rscale>
<asrwt>0</asrwt>
<pdfrwt beam="1">0</pdfrwt>
<pdfrwt beam="2">  1        2 0.38821001E+00 0.65347541E+03</pdfrwt>
<totfact> 0.44063575E+00</totfact>
</mgrwt>
</event>
<event>
 5    1  0.2361924E-004  0.6502358E+03  0.7818608E-02  0.9806337E-01
         13   -1    0    0    0    0  0.00000000000E+00  0.00000000000E+00  0.10000000000E+04  0.10000000000E+04  0.00000000000E+00 0. -1.
          2   -1    0    0  501    0 -0.00000000000E+00 -0.00000000000E+00 -0.10570165255E+03  0.10570165255E+03  0.00000000000E+00 0. -1.
    9000006    2    1    2  501    0  0.00000000000E+00  0.00000000000E+00  0.89429834745E+03  0.11057016525E+04  0.65023581122E+03 0.  0.
         13    1    3    3    0    0  0.18272542721E+03  0.12347537281E+03  0.85336723298E+03  0.88140250950E+03  0.00000000000E+00 0. -1.
          2    1    3    3  501    0 -0.18272542721E+03 -0.12347537281E+03  0.40931114476E+02  0.22429914305E+03  0.00000000000E+00 0. -1.
<mgrwt>
<rscale>  0 0.65023581E+03</rscale>
<asrwt>0</asrwt>
<pdfrwt beam="1">0</pdfrwt>
<pdfrwt beam="2">  1        2 0.38437046E+00 0.65023581E+03</pdfrwt>
<totfact> 0.45543594E+00</totfact>
</mgrwt>
</event>
<event>
 5    1  0.2361924E-004  0.6552494E+03  0.7818608E-02  0.9796979E-01
         13   -1    0    0    0    0  0.00000000000E+00  0.00000000000E+00  0.10000000000E+04  0.10000000000E+04  0.00000000000E+00 0. -1.
          2   -1    0    0  501    0 -0.00000000000E+00 -0.00000000000E+00 -0.10733793618E+03  0.10733793618E+03  0.00000000000E+00 0. -1.
    9000006    2    1    2  501    0  0.00000000000E+00  0.00000000000E+00  0.89266206382E+03  0.11073379362E+04  0.65524937599E+03 0.  0.
         13    1    3    3    0    0 -0.20095613722E+03 -0.15470251291E+03  0.79685469721E+03  0.83623779217E+03  0.00000000000E+00 0. -1.
          2    1    3    3  501    0  0.20095613722E+03  0.15470251291E+03  0.95807366603E+02  0.27110014401E+03  0.00000000000E+00 0. -1.
<mgrwt>
<rscale>  0 0.65524938E+03</rscale>
<asrwt>0</asrwt>
<pdfrwt beam="1">0</pdfrwt>
<pdfrwt beam="2">  1        2 0.39032059E+00 0.65524938E+03</pdfrwt>
<totfact> 0.43268693E+00</totfact>
</mgrwt>
</event>
<event>
 5    1  0.2361924E-004  0.6541906E+03  0.7818608E-02  0.9798948E-01
         13   -1    0    0    0    0  0.00000000000E+00  0.00000000000E+00  0.10000000000E+04  0.10000000000E+04  0.00000000000E+00 0. -1.
          2   -1    0    0  501    0 -0.00000000000E+00 -0.00000000000E+00 -0.10699132387E+03  0.10699132387E+03  0.00000000000E+00 0. -1.
    9000006    2    1    2  501    0  0.00000000000E+00  0.00000000000E+00  0.89300867613E+03  0.11069913239E+04  0.65419056512E+03 0.  0.
         13    1    3    3    0    0  0.93691158384E+02  0.13789036472E+03  0.92271735781E+03  0.93765617805E+03  0.00000000000E+00 0. -1.
          4    1    3    3  501    0 -0.93691158384E+02 -0.13789036472E+03 -0.29708681679E+02  0.16933514582E+03  0.00000000000E+00 0. -1.
<mgrwt>
<rscale>  0 0.65419057E+03</rscale>
<asrwt>0</asrwt>
<pdfrwt beam="1">0</pdfrwt>
<pdfrwt beam="2">  1        2 0.38906018E+00 0.65419057E+03</pdfrwt>
<totfact> 0.43741812E+00</totfact>
</mgrwt>
</event>
<event>
 5    1  0.2361924E-004  0.6540522E+03  0.7818608E-02  0.9799205E-01
         13   -1    0    0    0    0  0.00000000000E+00  0.00000000000E+00  0.10000000000E+04  0.10000000000E+04  0.00000000000E+00 0. -1.
          2   -1    0    0  501    0 -0.00000000000E+00 -0.00000000000E+00 -0.10694607329E+03  0.10694607329E+03  0.00000000000E+00 0. -1.
    9000006    2    1    2  501    0  0.00000000000E+00  0.00000000000E+00  0.89305392671E+03  0.11069460733E+04  0.65405220981E+03 0.  0.
         13    1    3    3    0    0  0.16767296255E+03  0.14924697940E+03  0.44034308945E+02  0.22875293133E+03  0.00000000000E+00 0. -1.
          4    1    3    3  501    0 -0.16767296255E+03 -0.14924697940E+03  0.84901961777E+03  0.87819314196E+03  0.00000000000E+00 0. -1.
<mgrwt>
<rscale>  0 0.65405221E+03</rscale>
<asrwt>0</asrwt>
<pdfrwt beam="1">0</pdfrwt>
<pdfrwt beam="2">  1        2 0.38889563E+00 0.65405221E+03</pdfrwt>
<totfact> 0.43803923E+00</totfact>
</mgrwt>
</event>
<event>
 5    1  0.2361924E-004  0.6533858E+03  0.7818608E-02  0.9800447E-01
         13   -1    0    0    0    0  0.00000000000E+00  0.00000000000E+00  0.10000000000E+04  0.10000000000E+04  0.00000000000E+00 0. -1.
          2   -1    0    0  501    0 -0.00000000000E+00 -0.00000000000E+00 -0.10672825959E+03  0.10672825959E+03  0.00000000000E+00 0. -1.
    9000006    2    1    2  501    0  0.00000000000E+00  0.00000000000E+00  0.89327174041E+03  0.11067282596E+04  0.65338582656E+03 0.  0.
         13    1    3    3    0    0  0.30165522181E+03 -0.12080621250E+03  0.38948941307E+03  0.50723960484E+03  0.00000000000E+00 0. -1.
          2    1    3    3  501    0 -0.30165522181E+03  0.12080621250E+03  0.50378232734E+03  0.59948865474E+03  0.00000000000E+00 0. -1.
<mgrwt>
<rscale>  0 0.65338583E+03</rscale>
<asrwt>0</asrwt>
<pdfrwt beam="1">0</pdfrwt>
<pdfrwt beam="2">  1        2 0.38810358E+00 0.65338583E+03</pdfrwt>
<totfact> 0.44104007E+00</totfact>
</mgrwt>
</event>
<event>
 5    1  0.2361924E-004  0.6491929E+03  0.7818608E-02  0.9808295E-01
         13   -1    0    0    0    0  0.00000000000E+00  0.00000000000E+00  0.10000000000E+04  0.10000000000E+04  0.00000000000E+00 0. -1.
          2   -1    0    0  501    0 -0.00000000000E+00 -0.00000000000E+00 -0.10536286833E+03  0.10536286833E+03  0.00000000000E+00 0. -1.
    9000006    2    1    2  501    0  0.00000000000E+00  0.00000000000E+00  0.89463713167E+03  0.11053628683E+04  0.64919293997E+03 0.  0.
         13    1    3    3    0    0  0.47440515628E+02 -0.46449351124E+02  0.98831500347E+03  0.99054262444E+03  0.00000000000E+00 0. -1.
          2    1    3    3  501    0 -0.47440515628E+02  0.46449351124E+02 -0.93677871796E+02  0.11482024389E+03  0.00000000000E+00 0. -1.
<mgrwt>
<rscale>  0 0.64919294E+03</rscale>
<asrwt>0</asrwt>
<pdfrwt beam="1">0</pdfrwt>
<pdfrwt beam="2">  1        2 0.38313851E+00 0.64919294E+03</pdfrwt>
<totfact> 0.46027930E+00</totfact>
</mgrwt>
</event>
<event>
 5    1  0.2361924E-004  0.6494790E+03  0.7818608E-02  0.9807757E-01
         13   -1    0    0    0    0  0.00000000000E+00  0.00000000000E+00  0.10000000000E+04  0.10000000000E+04  0.00000000000E+00 0. -1.
          2   -1    0    0  501    0 -0.00000000000E+00 -0.00000000000E+00 -0.10545573813E+03  0.10545573813E+03  0.00000000000E+00 0. -1.
    9000006    2    1    2  501    0  0.00000000000E+00  0.00000000000E+00  0.89454426187E+03  0.11054557381E+04  0.64947898543E+03 0.  0.
         13    1    3    3    0    0 -0.12817185467E+03 -0.17835613604E+03  0.85440676358E+03  0.88218470472E+03  0.00000000000E+00 0. -1.
          2    1    3    3  501    0  0.12817185467E+03  0.17835613604E+03  0.40137498291E+02  0.22327103341E+03  0.00000000000E+00 0. -1.
<mgrwt>
<rscale>  0 0.64947899E+03</rscale>
<asrwt>0</asrwt>
<pdfrwt beam="1">0</pdfrwt>
<pdfrwt beam="2">  1        2 0.38347622E+00 0.64947899E+03</pdfrwt>
<totfact> 0.45894698E+00</totfact>
</mgrwt>
</event>
<event>
 5    1  0.2361924E-004  0.6459460E+03  0.7818608E-02  0.9814416E-01
         13   -1    0    0    0    0  0.00000000000E+00  0.00000000000E+00  0.10000000000E+04  0.10000000000E+04  0.00000000000E+00 0. -1.
          2   -1    0    0  501    0 -0.00000000000E+00 -0.00000000000E+00 -0.10431156769E+03  0.10431156769E+03  0.00000000000E+00 0. -1.
    9000006    2    1    2  501    0  0.00000000000E+00  0.00000000000E+00  0.89568843231E+03  0.11043115677E+04  0.64594602773E+03 0.  0.
         13    1    3    3    0    0  0.14968187337E+03 -0.24247460220E+03  0.70775439249E+03  0.76296453130E+03  0.00000000000E+00 0. -1.
          2    1    3    3  501    0 -0.14968187337E+03  0.24247460220E+03  0.18793403982E+03  0.34134703639E+03  0.00000000000E+00 0. -1.
<mgrwt>
<rscale>  0 0.64594603E+03</rscale>
<asrwt>0</asrwt>
<pdfrwt beam="1">0</pdfrwt>
<pdfrwt beam="2">  1        2 0.37931559E+00 0.64594603E+03</pdfrwt>
<totfact> 0.47560842E+00</totfact>
</mgrwt>
</event>
<event>
 5    1  0.2361924E-004  0.6462836E+03  0.7818608E-02  0.9813778E-01
         13   -1    0    0    0    0  0.00000000000E+00  0.00000000000E+00  0.10000000000E+04  0.10000000000E+04  0.00000000000E+00 0. -1.
          2   -1    0    0  501    0 -0.00000000000E+00 -0.00000000000E+00 -0.10442063029E+03  0.10442063029E+03  0.00000000000E+00 0. -1.
    9000006    2    1    2  501    0  0.00000000000E+00  0.00000000000E+00  0.89557936971E+03  0.11044206303E+04  0.64628362286E+03 0.  0.
         13    1    3    3    0    0  0.23893407259E+03  0.21005378492E+03  0.54458749704E+03  0.63070407129E+03  0.00000000000E+00 0. -1.
          4    1    3    3  501    0 -0.23893407259E+03 -0.21005378492E+03  0.35099187266E+03  0.47371655901E+03  0.00000000000E+00 0. -1.
<mgrwt>
<rscale>  0 0.64628362E+03</rscale>
<asrwt>0</asrwt>
<pdfrwt beam="1">0</pdfrwt>
<pdfrwt beam="2">  1        2 0.37971218E+00 0.64628362E+03</pdfrwt>
<totfact> 0.47399686E+00</totfact>
</mgrwt>
</event>
<event>
 5    1  0.2361924E-004  0.6548617E+03  0.7818608E-02  0.9797699E-01
         13   -1    0    0    0    0  0.00000000000E+00  0.00000000000E+00  0.10000000000E+04  0.10000000000E+04  0.00000000000E+00 0. -1.
          2   -1    0    0  501    0 -0.00000000000E+00 -0.00000000000E+00 -0.10721096761E+03  0.10721096761E+03  0.00000000000E+00 0. -1.
    9000006    2    1    2  501    0  0.00000000000E+00  0.00000000000E+00  0.89278903239E+03  0.11072109676E+04  0.65486171855E+03 0.  0.
         13    1    3    3    0    0 -0.49413352942E+02 -0.19691176260E+02 -0.99856977466E+02  0.11314078761E+03  0.00000000000E+00 0. -1.
          4    1    3    3  501    0  0.49413352942E+02  0.19691176260E+02  0.99264600986E+03  0.99407018000E+03  0.00000000000E+00 0. -1.
<mgrwt>
<rscale>  0 0.65486172E+03</rscale>
<asrwt>0</asrwt>
<pdfrwt beam="1">0</pdfrwt>
<pdfrwt beam="2">  1        2 0.38985889E+00 0.65486172E+03</pdfrwt>
<totfact> 0.43441463E+00</totfact>
</mgrwt>
</event>
<event>
 5    1  0.2361924E-004  0.6268297E+03  0.7818608E-02  0.9851255E-01
         13   -1    0    0    0    0  0.00000000000E+00  0.00000000000E+00  0.10000000000E+04  0.10000000000E+04  0.00000000000E+00 0. -1.
          2   -1    0    0  501    0 -0.00000000000E+00 -0.00000000000E+00 -0.98228873321E+02  0.98228873321E+02  0.00000000000E+00 0. -1.
    9000006    2    1    2  501    0  0.00000000000E+00  0.00000000000E+00  0.90177112668E+03  0.10982288733E+04  0.62682971634E+03 0.  0.
         13    1    3    3    0    0  0.19102836531E+03  0.21249721284E+03  0.67649713071E+03  0.73436725804E+03  0.00000000000E+00 0. -1.
          2    1    3    3  501    0 -0.19102836531E+03 -0.21249721284E+03  0.22527399597E+03  0.36386161528E+03  0.00000000000E+00 0. -1.
<mgrwt>
<rscale>  0 0.62682972E+03</rscale>
<asrwt>0</asrwt>
<pdfrwt beam="1">0</pdfrwt>
<pdfrwt beam="2">  1        2 0.35719666E+00 0.62682972E+03</pdfrwt>
<totfact> 0.57385852E+00</totfact>
</mgrwt>
</event>
<event>
 5    1  0.2361924E-004  0.6426648E+03  0.7818608E-02  0.9820641E-01
         13   -1    0    0    0    0  0.00000000000E+00  0.00000000000E+00  0.10000000000E+04  0.10000000000E+04  0.00000000000E+00 0. -1.
          2   -1    0    0  501    0 -0.00000000000E+00 -0.00000000000E+00 -0.10325451668E+03  0.10325451668E+03  0.00000000000E+00 0. -1.
    9000006    2    1    2  501    0  0.00000000000E+00  0.00000000000E+00  0.89674548332E+03  0.11032545167E+04  0.64266481677E+03 0.  0.
         13    1    3    3    0    0  0.26735524895E+02 -0.10086736583E+03 -0.73357593669E+02  0.12755528343E+03  0.00000000000E+00 0. -1.
          2    1    3    3  501    0 -0.26735524895E+02  0.10086736583E+03  0.97010307699E+03  0.97569923325E+03  0.00000000000E+00 0. -1.
<mgrwt>
<rscale>  0 0.64266482E+03</rscale>
<asrwt>0</asrwt>
<pdfrwt beam="1">0</pdfrwt>
<pdfrwt beam="2">  1        2 0.37547176E+00 0.64266482E+03</pdfrwt>
<totfact> 0.49148872E+00</totfact>
</mgrwt>
</event>
<event>
 5    1  0.2361924E-004  0.6547047E+03  0.7818608E-02  0.9797991E-01
         13   -1    0    0    0    0  0.00000000000E+00  0.00000000000E+00  0.10000000000E+04  0.10000000000E+04  0.00000000000E+00 0. -1.
          2   -1    0    0  501    0 -0.00000000000E+00 -0.00000000000E+00 -0.10715956358E+03  0.10715956358E+03  0.00000000000E+00 0. -1.
    9000006    2    1    2  501    0  0.00000000000E+00  0.00000000000E+00  0.89284043642E+03  0.11071595636E+04  0.65470470772E+03 0.  0.
         13    1    3    3    0    0 -0.29420713116E+03 -0.12421131749E+03  0.32478829235E+03  0.45549283448E+03  0.00000000000E+00 0. -1.
          4    1    3    3  501    0  0.29420713116E+03  0.12421131749E+03  0.56805214407E+03  0.65166672909E+03  0.00000000000E+00 0. -1.
<mgrwt>
<rscale>  0 0.65470471E+03</rscale>
<asrwt>0</asrwt>
<pdfrwt beam="1">0</pdfrwt>
<pdfrwt beam="2">  1        2 0.38967196E+00 0.65470471E+03</pdfrwt>
<totfact> 0.43511587E+00</totfact>
</mgrwt>
</event>
<event>
 5    1  0.2361924E-004  0.6726314E+03  0.7818608E-02  0.9765216E-01
         13   -1    0    0    0    0  0.00000000000E+00  0.00000000000E+00  0.10000000000E+04  0.10000000000E+04  0.00000000000E+00 0. -1.
          2   -1    0    0  501    0 -0.00000000000E+00 -0.00000000000E+00 -0.11310824125E+03  0.11310824125E+03  0.00000000000E+00 0. -1.
    9000006    2    1    2  501    0  0.00000000000E+00  0.00000000000E+00  0.88689175875E+03  0.11131082412E+04  0.67263137378E+03 0.  0.
         13    1    3    3    0    0 -0.11834087710E+03  0.16868961431E+03  0.35917712729E+01  0.20609136321E+03  0.00000000000E+00 0. -1.
          2    1    3    3  501    0  0.11834087710E+03 -0.16868961431E+03  0.88329998748E+03  0.90701687804E+03  0.00000000000E+00 0. -1.
<mgrwt>
<rscale>  0 0.67263137E+03</rscale>
<asrwt>0</asrwt>
<pdfrwt beam="1">0</pdfrwt>
<pdfrwt beam="2">  1        2 0.41130356E+00 0.67263137E+03</pdfrwt>
<totfact> 0.36040151E+00</totfact>
</mgrwt>
</event>
<event>
 5    1  0.2361924E-004  0.6371992E+03  0.7818608E-02  0.9831100E-01
         13   -1    0    0    0    0  0.00000000000E+00  0.00000000000E+00  0.10000000000E+04  0.10000000000E+04  0.00000000000E+00 0. -1.
          2   -1    0    0  501    0 -0.00000000000E+00 -0.00000000000E+00 -0.10150569510E+03  0.10150569510E+03  0.00000000000E+00 0. -1.
    9000006    2    1    2  501    0  0.00000000000E+00  0.00000000000E+00  0.89849430490E+03  0.11015056951E+04  0.63719916856E+03 0.  0.
         13    1    3    3    0    0 -0.23593869694E+03 -0.19832422900E+03  0.58868247341E+03  0.66448974636E+03  0.00000000000E+00 0. -1.
          4    1    3    3  501    0  0.23593869694E+03  0.19832422900E+03  0.30981183149E+03  0.43701594874E+03  0.00000000000E+00 0. -1.
<mgrwt>
<rscale>  0 0.63719917E+03</rscale>
<asrwt>0</asrwt>
<pdfrwt beam="1">0</pdfrwt>
<pdfrwt beam="2">  1        2 0.36911240E+00 0.63719917E+03</pdfrwt>
<totfact> 0.51883113E+00</totfact>
</mgrwt>
</event>
<event>
 5    1  0.2361924E-004  0.6399581E+03  0.7818608E-02  0.9825807E-01
         13   -1    0    0    0    0  0.00000000000E+00  0.00000000000E+00  0.10000000000E+04  0.10000000000E+04  0.00000000000E+00 0. -1.
          2   -1    0    0  501    0 -0.00000000000E+00 -0.00000000000E+00 -0.10238660638E+03  0.10238660638E+03  0.00000000000E+00 0. -1.
    9000006    2    1    2  501    0  0.00000000000E+00  0.00000000000E+00  0.89761339362E+03  0.11023866064E+04  0.63995814358E+03 0.  0.
         13    1    3    3    0    0 -0.28038251430E+03 -0.10893154992E+03  0.26084541911E+03  0.39814666841E+03  0.00000000000E+00 0. -1.
          4    1    3    3  501    0  0.28038251430E+03  0.10893154992E+03  0.63676797450E+03  0.70423993798E+03  0.00000000000E+00 0. -1.
<mgrwt>
<rscale>  0 0.63995814E+03</rscale>
<asrwt>0</asrwt>
<pdfrwt beam="1">0</pdfrwt>
<pdfrwt beam="2">  1        2 0.37231572E+00 0.63995814E+03</pdfrwt>
<totfact> 0.50488899E+00</totfact>
</mgrwt>
</event>
<event>
 5    1  0.2361924E-004  0.6491394E+03  0.7818608E-02  0.9808395E-01
         13   -1    0    0    0    0  0.00000000000E+00  0.00000000000E+00  0.10000000000E+04  0.10000000000E+04  0.00000000000E+00 0. -1.
          2   -1    0    0  501    0 -0.00000000000E+00 -0.00000000000E+00 -0.10534549652E+03  0.10534549652E+03  0.00000000000E+00 0. -1.
    9000006    2    1    2  501    0  0.00000000000E+00  0.00000000000E+00  0.89465450348E+03  0.11053454965E+04  0.64913941959E+03 0.  0.
         13    1    3    3    0    0  0.11663728179E+03  0.52045513394E+02 -0.60755393724E+02  0.14143623593E+03  0.00000000000E+00 0. -1.
          2    1    3    3  501    0 -0.11663728179E+03 -0.52045513394E+02  0.95540989721E+03  0.96390926059E+03  0.00000000000E+00 0. -1.
<mgrwt>
<rscale>  0 0.64913942E+03</rscale>
<asrwt>0</asrwt>
<pdfrwt beam="1">0</pdfrwt>
<pdfrwt beam="2">  1        2 0.38307534E+00 0.64913942E+03</pdfrwt>
<totfact> 0.46052891E+00</totfact>
</mgrwt>
</event>
<event>
 5    1  0.2361924E-004  0.6340209E+03  0.7818608E-02  0.9837234E-01
         13   -1    0    0    0    0  0.00000000000E+00  0.00000000000E+00  0.10000000000E+04  0.10000000000E+04  0.00000000000E+00 0. -1.
          2   -1    0    0  501    0 -0.00000000000E+00 -0.00000000000E+00 -0.10049561538E+03  0.10049561538E+03  0.00000000000E+00 0. -1.
    9000006    2    1    2  501    0  0.00000000000E+00  0.00000000000E+00  0.89950438462E+03  0.11004956154E+04  0.63402086837E+03 0.  0.
         13    1    3    3    0    0  0.61650671121E+02 -0.41451732190E+02 -0.85172925463E+02  0.11301981500E+03  0.00000000000E+00 0. -1.
          2    1    3    3  501    0 -0.61650671121E+02  0.41451732190E+02  0.98467731008E+03  0.98747580038E+03  0.00000000000E+00 0. -1.
<mgrwt>
<rscale>  0 0.63402087E+03</rscale>
<asrwt>0</asrwt>
<pdfrwt beam="1">0</pdfrwt>
<pdfrwt beam="2">  1        2 0.36543937E+00 0.63402087E+03</pdfrwt>
<totfact> 0.53525175E+00</totfact>
</mgrwt>
</event>
<event>
 5    1  0.2361924E-004  0.6472203E+03  0.7818608E-02  0.9812009E-01
         13   -1    0    0    0    0  0.00000000000E+00  0.00000000000E+00  0.10000000000E+04  0.10000000000E+04  0.00000000000E+00 0. -1.
          2   -1    0    0  501    0 -0.00000000000E+00 -0.00000000000E+00 -0.10472352439E+03  0.10472352439E+03  0.00000000000E+00 0. -1.
    9000006    2    1    2  501    0  0.00000000000E+00  0.00000000000E+00  0.89527647561E+03  0.11047235244E+04  0.64722028519E+03 0.  0.
         13    1    3    3    0    0 -0.22140630039E+03 -0.23499553988E+03  0.41024753464E+03  0.52206004759E+03  0.00000000000E+00 0. -1.
          2    1    3    3  501    0  0.22140630039E+03  0.23499553988E+03  0.48502894097E+03  0.58266347680E+03  0.00000000000E+00 0. -1.
<mgrwt>
<rscale>  0 0.64722029E+03</rscale>
<asrwt>0</asrwt>
<pdfrwt beam="1">0</pdfrwt>
<pdfrwt beam="2">  1        2 0.38081362E+00 0.64722029E+03</pdfrwt>
<totfact> 0.46954718E+00</totfact>
</mgrwt>
</event>
<event>
 5    1  0.2361924E-004  0.6753614E+03  0.7818608E-02  0.9760321E-01
         13   -1    0    0    0    0  0.00000000000E+00  0.00000000000E+00  0.10000000000E+04  0.10000000000E+04  0.00000000000E+00 0. -1.
          2   -1    0    0  501    0 -0.00000000000E+00 -0.00000000000E+00 -0.11402824030E+03  0.11402824030E+03  0.00000000000E+00 0. -1.
    9000006    2    1    2  501    0  0.00000000000E+00  0.00000000000E+00  0.88597175970E+03  0.11140282403E+04  0.67536135601E+03 0.  0.
         13    1    3    3    0    0  0.29268809893E+03 -0.29354633934E+02  0.16944131042E+03  0.33946778266E+03  0.00000000000E+00 0. -1.
          4    1    3    3  501    0 -0.29268809893E+03  0.29354633934E+02  0.71653044928E+03  0.77456045764E+03  0.00000000000E+00 0. -1.
<mgrwt>
<rscale>  0 0.67536136E+03</rscale>
<asrwt>0</asrwt>
<pdfrwt beam="1">0</pdfrwt>
<pdfrwt beam="2">  1        2 0.41464902E+00 0.67536136E+03</pdfrwt>
<totfact> 0.34993565E+00</totfact>
</mgrwt>
</event>
<event>
 5    1  0.2361924E-004  0.6425379E+03  0.7818608E-02  0.9820883E-01
         13   -1    0    0    0    0  0.00000000000E+00  0.00000000000E+00  0.10000000000E+04  0.10000000000E+04  0.00000000000E+00 0. -1.
          2   -1    0    0  501    0 -0.00000000000E+00 -0.00000000000E+00 -0.10321374536E+03  0.10321374536E+03  0.00000000000E+00 0. -1.
    9000006    2    1    2  501    0  0.00000000000E+00  0.00000000000E+00  0.89678625464E+03  0.11032137454E+04  0.64253792219E+03 0.  0.
         13    1    3    3    0    0  0.19006846496E+03  0.11885921836E+03  0.84351925634E+03  0.87279910115E+03  0.00000000000E+00 0. -1.
          4    1    3    3  501    0 -0.19006846496E+03 -0.11885921836E+03  0.53266998300E+02  0.23041464421E+03  0.00000000000E+00 0. -1.
<mgrwt>
<rscale>  0 0.64253792E+03</rscale>
<asrwt>0</asrwt>
<pdfrwt beam="1">0</pdfrwt>
<pdfrwt beam="2">  1        2 0.37532350E+00 0.64253792E+03</pdfrwt>
<totfact> 0.49211086E+00</totfact>
</mgrwt>
</event>
<event>
 5    1  0.2361924E-004  0.6525157E+03  0.7818608E-02  0.9802070E-01
         13   -1    0    0    0    0  0.00000000000E+00  0.00000000000E+00  0.10000000000E+04  0.10000000000E+04  0.00000000000E+00 0. -1.
          2   -1    0    0  501    0 -0.00000000000E+00 -0.00000000000E+00 -0.10644417639E+03  0.10644417639E+03  0.00000000000E+00 0. -1.
    9000006    2    1    2  501    0  0.00000000000E+00  0.00000000000E+00  0.89355582361E+03  0.11064441764E+04  0.65251567458E+03 0.  0.
         13    1    3    3    0    0 -0.15167256821E+03  0.10599567702E+03 -0.88609580517E+01  0.18525163446E+03  0.00000000000E+00 0. -1.
          4    1    3    3  501    0  0.15167256821E+03 -0.10599567702E+03  0.90241678166E+03  0.92119254193E+03  0.00000000000E+00 0. -1.
<mgrwt>
<rscale>  0 0.65251567E+03</rscale>
<asrwt>0</asrwt>
<pdfrwt beam="1">0</pdfrwt>
<pdfrwt beam="2">  1        2 0.38707055E+00 0.65251567E+03</pdfrwt>
<totfact> 0.44498187E+00</totfact>
</mgrwt>
</event>
<event>
 5    1  0.2361924E-004  0.6572266E+03  0.7818608E-02  0.9793313E-01
         13   -1    0    0    0    0  0.00000000000E+00  0.00000000000E+00  0.10000000000E+04  0.10000000000E+04  0.00000000000E+00 0. -1.
          2   -1    0    0  501    0 -0.00000000000E+00 -0.00000000000E+00 -0.10798670523E+03  0.10798670523E+03  0.00000000000E+00 0. -1.
    9000006    2    1    2  501    0  0.00000000000E+00  0.00000000000E+00  0.89201329477E+03  0.11079867052E+04  0.65722661307E+03 0.  0.
         13    1    3    3    0    0 -0.28831670061E+03  0.14779123673E+03  0.53862016957E+03  0.62855425905E+03  0.00000000000E+00 0. -1.
          4    1    3    3  501    0  0.28831670061E+03 -0.14779123673E+03  0.35339312520E+03  0.47943244618E+03  0.00000000000E+00 0. -1.
<mgrwt>
<rscale>  0 0.65722661E+03</rscale>
<asrwt>0</asrwt>
<pdfrwt beam="1">0</pdfrwt>
<pdfrwt beam="2">  1        2 0.39267976E+00 0.65722661E+03</pdfrwt>
<totfact> 0.42395541E+00</totfact>
</mgrwt>
</event>
<event>
 5    1  0.2361924E-004  0.6525745E+03  0.7818608E-02  0.9801960E-01
         13   -1    0    0    0    0  0.00000000000E+00  0.00000000000E+00  0.10000000000E+04  0.10000000000E+04  0.00000000000E+00 0. -1.
          2   -1    0    0  501    0 -0.00000000000E+00 -0.00000000000E+00 -0.10646335468E+03  0.10646335468E+03  0.00000000000E+00 0. -1.
    9000006    2    1    2  501    0  0.00000000000E+00  0.00000000000E+00  0.89353664532E+03  0.11064633547E+04  0.65257445455E+03 0.  0.
         13    1    3    3    0    0  0.12279600761E+03 -0.27196702573E+03  0.67054328671E+03  0.73394360949E+03  0.00000000000E+00 0. -1.
          4    1    3    3  501    0 -0.12279600761E+03  0.27196702573E+03  0.22299335861E+03  0.37251974519E+03  0.00000000000E+00 0. -1.
<mgrwt>
<rscale>  0 0.65257445E+03</rscale>
<asrwt>0</asrwt>
<pdfrwt beam="1">0</pdfrwt>
<pdfrwt beam="2">  1        2 0.38714029E+00 0.65257445E+03</pdfrwt>
<totfact> 0.44471476E+00</totfact>
</mgrwt>
</event>
<event>
 5    1  0.2361924E-004  0.6438475E+03  0.7818608E-02  0.9818393E-01
         13   -1    0    0    0    0  0.00000000000E+00  0.00000000000E+00  0.10000000000E+04  0.10000000000E+04  0.00000000000E+00 0. -1.
          2   -1    0    0  501    0 -0.00000000000E+00 -0.00000000000E+00 -0.10363491581E+03  0.10363491581E+03  0.00000000000E+00 0. -1.
    9000006    2    1    2  501    0  0.00000000000E+00  0.00000000000E+00  0.89636508419E+03  0.11036349158E+04  0.64384754659E+03 0.  0.
         13    1    3    3    0    0  0.14145341708E+03  0.13857738349E+03  0.13111666093E+02  0.19845572858E+03  0.00000000000E+00 0. -1.
          2    1    3    3  501    0 -0.14145341708E+03 -0.13857738349E+03  0.88325341809E+03  0.90517918723E+03  0.00000000000E+00 0. -1.
<mgrwt>
<rscale>  0 0.64384755E+03</rscale>
<asrwt>0</asrwt>
<pdfrwt beam="1">0</pdfrwt>
<pdfrwt beam="2">  1        2 0.37685503E+00 0.64384755E+03</pdfrwt>
<totfact> 0.48571903E+00</totfact>
</mgrwt>
</event>
<event>
 5    1  0.2361924E-004  0.6519220E+03  0.7818608E-02  0.9803179E-01
         13   -1    0    0    0    0  0.00000000000E+00  0.00000000000E+00  0.10000000000E+04  0.10000000000E+04  0.00000000000E+00 0. -1.
          2   -1    0    0  501    0 -0.00000000000E+00 -0.00000000000E+00 -0.10625057540E+03  0.10625057540E+03  0.00000000000E+00 0. -1.
    9000006    2    1    2  501    0  0.00000000000E+00  0.00000000000E+00  0.89374942460E+03  0.11062505754E+04  0.65192200578E+03 0.  0.
         13    1    3    3    0    0 -0.23475098063E+03  0.79488033608E+02  0.80613909739E+03  0.84337809714E+03  0.00000000000E+00 0. -1.
          4    1    3    3  501    0  0.23475098063E+03 -0.79488033608E+02  0.87610327204E+02  0.26287247826E+03  0.00000000000E+00 0. -1.
<mgrwt>
<rscale>  0 0.65192201E+03</rscale>
<asrwt>0</asrwt>
<pdfrwt beam="1">0</pdfrwt>
<pdfrwt beam="2">  1        2 0.38636654E+00 0.65192201E+03</pdfrwt>
<totfact> 0.44768643E+00</totfact>
</mgrwt>
</event>
<event>
 5    1  0.2361924E-004  0.6451587E+03  0.7818608E-02  0.9815906E-01
         13   -1    0    0    0    0  0.00000000000E+00  0.00000000000E+00  0.10000000000E+04  0.10000000000E+04  0.00000000000E+00 0. -1.
          4   -1    0    0  501    0 -0.00000000000E+00 -0.00000000000E+00 -0.10405744069E+03  0.10405744069E+03  0.00000000000E+00 0. -1.
    9000006    2    1    2  501    0  0.00000000000E+00  0.00000000000E+00  0.89594255931E+03  0.11040574407E+04  0.64515871128E+03 0.  0.
         13    1    3    3    0    0  0.19875060447E+03  0.22934921811E+02  0.14943667568E+02  0.20062683424E+03  0.00000000000E+00 0. -1.
          2    1    3    3  501    0 -0.19875060447E+03 -0.22934921811E+02  0.88099889175E+03  0.90343060645E+03  0.00000000000E+00 0. -1.
<mgrwt>
<rscale>  0 0.64515871E+03</rscale>
<asrwt>0</asrwt>
<pdfrwt beam="1">0</pdfrwt>
<pdfrwt beam="2">  1        4 0.37839149E+00 0.64515871E+03</pdfrwt>
<totfact> 0.44978601E-02</totfact>
</mgrwt>
</event>
<event>
 5    1  0.2361924E-004  0.5553272E+03  0.7818608E-02  0.1000268E+00
         13   -1    0    0    0    0  0.00000000000E+00  0.00000000000E+00  0.10000000000E+04  0.10000000000E+04  0.00000000000E+00 0. -1.
          2   -1    0    0  501    0 -0.00000000000E+00 -0.00000000000E+00 -0.77097061294E+02  0.77097061294E+02  0.00000000000E+00 0. -1.
    9000006    2    1    2  501    0  0.00000000000E+00  0.00000000000E+00  0.92290293871E+03  0.10770970613E+04  0.55532715149E+03 0.  0.
         13    1    3    3    0    0 -0.62147362390E+02 -0.93132143653E+02 -0.31372282633E+02  0.11627601193E+03  0.00000000000E+00 0. -1.
          2    1    3    3  501    0  0.62147362390E+02  0.93132143653E+02  0.95427522134E+03  0.96082104936E+03  0.00000000000E+00 0. -1.
<mgrwt>
<rscale>  0 0.55532715E+03</rscale>
<asrwt>0</asrwt>
<pdfrwt beam="1">0</pdfrwt>
<pdfrwt beam="2">  1        2 0.28035354E+00 0.55532715E+03</pdfrwt>
<totfact> 0.10853022E+01</totfact>
</mgrwt>
</event>
<event>
 5    1  0.2361924E-004  0.6576927E+03  0.7818608E-02  0.9792450E-01
         13   -1    0    0    0    0  0.00000000000E+00  0.00000000000E+00  0.10000000000E+04  0.10000000000E+04  0.00000000000E+00 0. -1.
          2   -1    0    0  501    0 -0.00000000000E+00 -0.00000000000E+00 -0.10813993000E+03  0.10813993000E+03  0.00000000000E+00 0. -1.
    9000006    2    1    2  501    0  0.00000000000E+00  0.00000000000E+00  0.89186007000E+03  0.11081399300E+04  0.65769272460E+03 0.  0.
         13    1    3    3    0    0 -0.17237558130E+02  0.28584766339E+03  0.17355094698E+03  0.33485213345E+03  0.00000000000E+00 0. -1.
          2    1    3    3  501    0  0.17237558130E+02 -0.28584766339E+03  0.71830912302E+03  0.77328779655E+03  0.00000000000E+00 0. -1.
<mgrwt>
<rscale>  0 0.65769272E+03</rscale>
<asrwt>0</asrwt>
<pdfrwt beam="1">0</pdfrwt>
<pdfrwt beam="2">  1        2 0.39323694E+00 0.65769272E+03</pdfrwt>
<totfact> 0.42191658E+00</totfact>
</mgrwt>
</event>
<event>
 5    1  0.2361924E-004  0.5270655E+03  0.7818608E-02  0.1006946E+00
         13   -1    0    0    0    0  0.00000000000E+00  0.00000000000E+00  0.10000000000E+04  0.10000000000E+04  0.00000000000E+00 0. -1.
          2   -1    0    0  501    0 -0.00000000000E+00 -0.00000000000E+00 -0.69449517678E+02  0.69449517678E+02  0.00000000000E+00 0. -1.
    9000006    2    1    2  501    0  0.00000000000E+00  0.00000000000E+00  0.93055048232E+03  0.10694495177E+04  0.52706552791E+03 0.  0.
         13    1    3    3    0    0  0.86821818075E+02  0.14811338877E+03  0.59594854657E+02  0.18173373580E+03  0.00000000000E+00 0. -1.
          2    1    3    3  501    0 -0.86821818075E+02 -0.14811338877E+03  0.87095562767E+03  0.88771578187E+03  0.00000000000E+00 0. -1.
<mgrwt>
<rscale>  0 0.52706553E+03</rscale>
<asrwt>0</asrwt>
<pdfrwt beam="1">0</pdfrwt>
<pdfrwt beam="2">  1        2 0.25254423E+00 0.52706553E+03</pdfrwt>
<totfact> 0.13649084E+01</totfact>
</mgrwt>
</event>
<event>
 5    1  0.2361924E-004  0.6531579E+03  0.7818608E-02  0.9800872E-01
         13   -1    0    0    0    0  0.00000000000E+00  0.00000000000E+00  0.10000000000E+04  0.10000000000E+04  0.00000000000E+00 0. -1.
          2   -1    0    0  501    0 -0.00000000000E+00 -0.00000000000E+00 -0.10665381688E+03  0.10665381688E+03  0.00000000000E+00 0. -1.
    9000006    2    1    2  501    0  0.00000000000E+00  0.00000000000E+00  0.89334618312E+03  0.11066538169E+04  0.65315791927E+03 0.  0.
         13    1    3    3    0    0 -0.20722799855E+03  0.22215485112E+03  0.64969104621E+03  0.71721313205E+03  0.00000000000E+00 0. -1.
          4    1    3    3  501    0  0.20722799855E+03 -0.22215485112E+03  0.24365513692E+03  0.38944068483E+03  0.00000000000E+00 0. -1.
<mgrwt>
<rscale>  0 0.65315792E+03</rscale>
<asrwt>0</asrwt>
<pdfrwt beam="1">0</pdfrwt>
<pdfrwt beam="2">  1        2 0.38783288E+00 0.65315792E+03</pdfrwt>
<totfact> 0.44206994E+00</totfact>
</mgrwt>
</event>
<event>
 5    1  0.2361924E-004  0.6511247E+03  0.7818608E-02  0.9804671E-01
         13   -1    0    0    0    0  0.00000000000E+00  0.00000000000E+00  0.10000000000E+04  0.10000000000E+04  0.00000000000E+00 0. -1.
          2   -1    0    0  501    0 -0.00000000000E+00 -0.00000000000E+00 -0.10599082875E+03  0.10599082875E+03  0.00000000000E+00 0. -1.
    9000006    2    1    2  501    0  0.00000000000E+00  0.00000000000E+00  0.89400917125E+03  0.11059908288E+04  0.65112465397E+03 0.  0.
         13    1    3    3    0    0 -0.77058004406E+02  0.13490288327E+03  0.93297252386E+03  0.94581946176E+03  0.00000000000E+00 0. -1.
          2    1    3    3  501    0  0.77058004406E+02 -0.13490288327E+03 -0.38963352614E+02  0.16017136699E+03  0.00000000000E+00 0. -1.
<mgrwt>
<rscale>  0 0.65112465E+03</rscale>
<asrwt>0</asrwt>
<pdfrwt beam="1">0</pdfrwt>
<pdfrwt beam="2">  1        2 0.38542201E+00 0.65112465E+03</pdfrwt>
<totfact> 0.45133843E+00</totfact>
</mgrwt>
</event>
<event>
 5    1  0.2361924E-004  0.6379630E+03  0.7818608E-02  0.9829632E-01
         13   -1    0    0    0    0  0.00000000000E+00  0.00000000000E+00  0.10000000000E+04  0.10000000000E+04  0.00000000000E+00 0. -1.
          2   -1    0    0  501    0 -0.00000000000E+00 -0.00000000000E+00 -0.10174919588E+03  0.10174919588E+03  0.00000000000E+00 0. -1.
    9000006    2    1    2  501    0  0.00000000000E+00  0.00000000000E+00  0.89825080412E+03  0.11017491959E+04  0.63796299542E+03 0.  0.
         13    1    3    3    0    0  0.41194750265E+02 -0.12006073673E+03  0.95450710866E+03  0.96290986517E+03  0.00000000000E+00 0. -1.
          2    1    3    3  501    0 -0.41194750265E+02  0.12006073673E+03 -0.56256304540E+02  0.13883933072E+03  0.00000000000E+00 0. -1.
<mgrwt>
<rscale>  0 0.63796300E+03</rscale>
<asrwt>0</asrwt>
<pdfrwt beam="1">0</pdfrwt>
<pdfrwt beam="2">  1        2 0.36999786E+00 0.63796300E+03</pdfrwt>
<totfact> 0.51494240E+00</totfact>
</mgrwt>
</event>
<event>
 5    1  0.2361924E-004  0.6031250E+03  0.7818608E-02  0.9898944E-01
         13   -1    0    0    0    0  0.00000000000E+00  0.00000000000E+00  0.10000000000E+04  0.10000000000E+04  0.00000000000E+00 0. -1.
          2   -1    0    0  501    0 -0.00000000000E+00 -0.00000000000E+00 -0.90939938053E+02  0.90939938053E+02  0.00000000000E+00 0. -1.
    9000006    2    1    2  501    0  0.00000000000E+00  0.00000000000E+00  0.90906006195E+03  0.10909399381E+04  0.60312498888E+03 0.  0.
         13    1    3    3    0    0  0.63258123257E+02  0.14847282636E+03  0.91531292900E+03  0.92943183091E+03  0.00000000000E+00 0. -1.
          4    1    3    3  501    0 -0.63258123257E+02 -0.14847282636E+03 -0.62528670507E+01  0.16150810714E+03  0.00000000000E+00 0. -1.
<mgrwt>
<rscale>  0 0.60312499E+03</rscale>
<asrwt>0</asrwt>
<pdfrwt beam="1">0</pdfrwt>
<pdfrwt beam="2">  1        2 0.33069138E+00 0.60312499E+03</pdfrwt>
<totfact> 0.71630718E+00</totfact>
</mgrwt>
</event>
<event>
 5    1  0.2361924E-004  0.6623080E+03  0.7818608E-02  0.9783954E-01
         13   -1    0    0    0    0  0.00000000000E+00  0.00000000000E+00  0.10000000000E+04  0.10000000000E+04  0.00000000000E+00 0. -1.
          2   -1    0    0  501    0 -0.00000000000E+00 -0.00000000000E+00 -0.10966298601E+03  0.10966298601E+03  0.00000000000E+00 0. -1.
    9000006    2    1    2  501    0  0.00000000000E+00  0.00000000000E+00  0.89033701399E+03  0.11096629860E+04  0.66230804315E+03 0.  0.
         13    1    3    3    0    0 -0.60914862991E+02 -0.27894543085E+03  0.72623372199E+03  0.78034389398E+03  0.00000000000E+00 0. -1.
          4    1    3    3  501    0  0.60914862991E+02  0.27894543085E+03  0.16410329201E+03  0.32931909202E+03  0.00000000000E+00 0. -1.
<mgrwt>
<rscale>  0 0.66230804E+03</rscale>
<asrwt>0</asrwt>
<pdfrwt beam="1">0</pdfrwt>
<pdfrwt beam="2">  1        2 0.39877534E+00 0.66230804E+03</pdfrwt>
<totfact> 0.40212714E+00</totfact>
</mgrwt>
</event>
<event>
 5    1  0.2361924E-004  0.5830723E+03  0.7818608E-02  0.9941162E-01
         13   -1    0    0    0    0  0.00000000000E+00  0.00000000000E+00  0.10000000000E+04  0.10000000000E+04  0.00000000000E+00 0. -1.
          2   -1    0    0  501    0 -0.00000000000E+00 -0.00000000000E+00 -0.84993339635E+02  0.84993339635E+02  0.00000000000E+00 0. -1.
    9000006    2    1    2  501    0  0.00000000000E+00  0.00000000000E+00  0.91500666036E+03  0.10849933396E+04  0.58307234417E+03 0.  0.
         13    1    3    3    0    0 -0.12529934027E+03  0.25627274690E+03  0.34558001800E+03  0.44810846267E+03  0.00000000000E+00 0. -1.
          2    1    3    3  501    0  0.12529934027E+03 -0.25627274690E+03  0.56942664236E+03  0.63688487697E+03  0.00000000000E+00 0. -1.
<mgrwt>
<rscale>  0 0.58307234E+03</rscale>
<asrwt>0</asrwt>
<pdfrwt beam="1">0</pdfrwt>
<pdfrwt beam="2">  1        2 0.30906734E+00 0.58307234E+03</pdfrwt>
<totfact> 0.85676609E+00</totfact>
</mgrwt>
</event>
<event>
 5    1  0.2361924E-004  0.6515972E+03  0.7818608E-02  0.9803787E-01
         13   -1    0    0    0    0  0.00000000000E+00  0.00000000000E+00  0.10000000000E+04  0.10000000000E+04  0.00000000000E+00 0. -1.
          2   -1    0    0  501    0 -0.00000000000E+00 -0.00000000000E+00 -0.10614473844E+03  0.10614473844E+03  0.00000000000E+00 0. -1.
    9000006    2    1    2  501    0  0.00000000000E+00  0.00000000000E+00  0.89385526156E+03  0.11061447384E+04  0.65159723278E+03 0.  0.
         13    1    3    3    0    0  0.60251734922E+02  0.83536262131E+01  0.99027483881E+03  0.99214127573E+03  0.00000000000E+00 0. -1.
          2    1    3    3  501    0 -0.60251734922E+02 -0.83536262131E+01 -0.96419577252E+02  0.11400346271E+03  0.00000000000E+00 0. -1.
<mgrwt>
<rscale>  0 0.65159723E+03</rscale>
<asrwt>0</asrwt>
<pdfrwt beam="1">0</pdfrwt>
<pdfrwt beam="2">  1        2 0.38598168E+00 0.65159723E+03</pdfrwt>
<totfact> 0.44917124E+00</totfact>
</mgrwt>
</event>
<event>
 5    1  0.2361924E-004  0.6504033E+03  0.7818608E-02  0.9806023E-01
         13   -1    0    0    0    0  0.00000000000E+00  0.00000000000E+00  0.10000000000E+04  0.10000000000E+04  0.00000000000E+00 0. -1.
          2   -1    0    0  501    0 -0.00000000000E+00 -0.00000000000E+00 -0.10575610833E+03  0.10575610833E+03  0.00000000000E+00 0. -1.
    9000006    2    1    2  501    0  0.00000000000E+00  0.00000000000E+00  0.89424389167E+03  0.11057561083E+04  0.65040328515E+03 0.  0.
         13    1    3    3    0    0 -0.39731762603E+02  0.31984405680E+03  0.52078344191E+03  0.61244936688E+03  0.00000000000E+00 0. -1.
          4    1    3    3  501    0  0.39731762603E+02 -0.31984405680E+03  0.37346044976E+03  0.49330674145E+03  0.00000000000E+00 0. -1.
<mgrwt>
<rscale>  0 0.65040329E+03</rscale>
<asrwt>0</asrwt>
<pdfrwt beam="1">0</pdfrwt>
<pdfrwt beam="2">  1        2 0.38456848E+00 0.65040329E+03</pdfrwt>
<totfact> 0.45466176E+00</totfact>
</mgrwt>
</event>
<event>
 5    1  0.2361924E-004  0.6400805E+03  0.7818608E-02  0.9825573E-01
         13   -1    0    0    0    0  0.00000000000E+00  0.00000000000E+00  0.10000000000E+04  0.10000000000E+04  0.00000000000E+00 0. -1.
          2   -1    0    0  501    0 -0.00000000000E+00 -0.00000000000E+00 -0.10242574919E+03  0.10242574919E+03  0.00000000000E+00 0. -1.
    9000006    2    1    2  501    0  0.00000000000E+00  0.00000000000E+00  0.89757425081E+03  0.11024257492E+04  0.64008046118E+03 0.  0.
         13    1    3    3    0    0  0.46216900275E+02  0.25309278582E+03  0.12093979310E+03  0.28428576056E+03  0.00000000000E+00 0. -1.
          2    1    3    3  501    0 -0.46216900275E+02 -0.25309278582E+03  0.77663445771E+03  0.81813998863E+03  0.00000000000E+00 0. -1.
<mgrwt>
<rscale>  0 0.64008046E+03</rscale>
<asrwt>0</asrwt>
<pdfrwt beam="1">0</pdfrwt>
<pdfrwt beam="2">  1        2 0.37245806E+00 0.64008046E+03</pdfrwt>
<totfact> 0.50427751E+00</totfact>
</mgrwt>
</event>
<event>
 5    1  0.2361924E-004  0.6750840E+03  0.7818608E-02  0.9760817E-01
         13   -1    0    0    0    0  0.00000000000E+00  0.00000000000E+00  0.10000000000E+04  0.10000000000E+04  0.00000000000E+00 0. -1.
          2   -1    0    0  501    0 -0.00000000000E+00 -0.00000000000E+00 -0.11393461473E+03  0.11393461473E+03  0.00000000000E+00 0. -1.
    9000006    2    1    2  501    0  0.00000000000E+00  0.00000000000E+00  0.88606538527E+03  0.11139346147E+04  0.67508403841E+03 0.  0.
         13    1    3    3    0    0  0.28042827209E+03 -0.70279346649E+02  0.73052082953E+03  0.78564615746E+03  0.00000000000E+00 0. -1.
          2    1    3    3  501    0 -0.28042827209E+03  0.70279346649E+02  0.15554455574E+03  0.32828845727E+03  0.00000000000E+00 0. -1.
<mgrwt>
<rscale>  0 0.67508404E+03</rscale>
<asrwt>0</asrwt>
<pdfrwt beam="1">0</pdfrwt>
<pdfrwt beam="2">  1        2 0.41430856E+00 0.67508404E+03</pdfrwt>
<totfact> 0.35098819E+00</totfact>
</mgrwt>
</event>
<event>
 5    1  0.2361924E-004  0.6585085E+03  0.7818608E-02  0.9790943E-01
         13   -1    0    0    0    0  0.00000000000E+00  0.00000000000E+00  0.10000000000E+04  0.10000000000E+04  0.00000000000E+00 0. -1.
          2   -1    0    0  501    0 -0.00000000000E+00 -0.00000000000E+00 -0.10840835276E+03  0.10840835276E+03  0.00000000000E+00 0. -1.
    9000006    2    1    2  501    0  0.00000000000E+00  0.00000000000E+00  0.89159164724E+03  0.11084083528E+04  0.65850847454E+03 0.  0.
         13    1    3    3    0    0 -0.11565997504E+03  0.17321860329E+03  0.87501923839E+03  0.89946683202E+03  0.00000000000E+00 0. -1.
          4    1    3    3  501    0  0.11565997504E+03 -0.17321860329E+03  0.16572408845E+02  0.20894152074E+03  0.00000000000E+00 0. -1.
<mgrwt>
<rscale>  0 0.65850847E+03</rscale>
<asrwt>0</asrwt>
<pdfrwt beam="1">0</pdfrwt>
<pdfrwt beam="2">  1        2 0.39421302E+00 0.65850847E+03</pdfrwt>
<totfact> 0.41836632E+00</totfact>
</mgrwt>
</event>
<event>
 5    1  0.2361924E-004  0.6533635E+03  0.7818608E-02  0.9800488E-01
         13   -1    0    0    0    0  0.00000000000E+00  0.00000000000E+00  0.10000000000E+04  0.10000000000E+04  0.00000000000E+00 0. -1.
          2   -1    0    0  501    0 -0.00000000000E+00 -0.00000000000E+00 -0.10672095950E+03  0.10672095950E+03  0.00000000000E+00 0. -1.
    9000006    2    1    2  501    0  0.00000000000E+00  0.00000000000E+00  0.89327904050E+03  0.11067209595E+04  0.65336348077E+03 0.  0.
         13    1    3    3    0    0  0.30472454270E+02  0.27604339091E+03  0.15525019859E+03  0.31816842756E+03  0.00000000000E+00 0. -1.
          4    1    3    3  501    0 -0.30472454270E+02 -0.27604339091E+03  0.73802884191E+03  0.78855253194E+03  0.00000000000E+00 0. -1.
<mgrwt>
<rscale>  0 0.65336348E+03</rscale>
<asrwt>0</asrwt>
<pdfrwt beam="1">0</pdfrwt>
<pdfrwt beam="2">  1        2 0.38807703E+00 0.65336348E+03</pdfrwt>
<totfact> 0.44114097E+00</totfact>
</mgrwt>
</event>
<event>
 5    1  0.2361924E-004  0.6518453E+03  0.7818608E-02  0.9803323E-01
         13   -1    0    0    0    0  0.00000000000E+00  0.00000000000E+00  0.10000000000E+04  0.10000000000E+04  0.00000000000E+00 0. -1.
          2   -1    0    0  501    0 -0.00000000000E+00 -0.00000000000E+00 -0.10622558865E+03  0.10622558865E+03  0.00000000000E+00 0. -1.
    9000006    2    1    2  501    0  0.00000000000E+00  0.00000000000E+00  0.89377441135E+03  0.11062255886E+04  0.65184534561E+03 0.  0.
         13    1    3    3    0    0  0.59653811971E+02 -0.31899491793E+03  0.39571411240E+03  0.51176751919E+03  0.00000000000E+00 0. -1.
          2    1    3    3  501    0 -0.59653811971E+02  0.31899491793E+03  0.49806029896E+03  0.59445806946E+03  0.00000000000E+00 0. -1.
<mgrwt>
<rscale>  0 0.65184535E+03</rscale>
<asrwt>0</asrwt>
<pdfrwt beam="1">0</pdfrwt>
<pdfrwt beam="2">  1        2 0.38627568E+00 0.65184535E+03</pdfrwt>
<totfact> 0.44803658E+00</totfact>
</mgrwt>
</event>
<event>
 5    1  0.2361924E-004  0.6386642E+03  0.7818608E-02  0.9828286E-01
         13   -1    0    0    0    0  0.00000000000E+00  0.00000000000E+00  0.10000000000E+04  0.10000000000E+04  0.00000000000E+00 0. -1.
          2   -1    0    0  501    0 -0.00000000000E+00 -0.00000000000E+00 -0.10197297830E+03  0.10197297830E+03  0.00000000000E+00 0. -1.
    9000006    2    1    2  501    0  0.00000000000E+00  0.00000000000E+00  0.89802702170E+03  0.11019729783E+04  0.63866416309E+03 0.  0.
         13    1    3    3    0    0 -0.15452709961E+03 -0.97240472266E+01 -0.32873403296E+02  0.15828405559E+03  0.00000000000E+00 0. -1.
          4    1    3    3  501    0  0.15452709961E+03  0.97240472266E+01  0.93090042499E+03  0.94368892272E+03  0.00000000000E+00 0. -1.
<mgrwt>
<rscale>  0 0.63866416E+03</rscale>
<asrwt>0</asrwt>
<pdfrwt beam="1">0</pdfrwt>
<pdfrwt beam="2">  1        2 0.37081161E+00 0.63866416E+03</pdfrwt>
<totfact> 0.51139214E+00</totfact>
</mgrwt>
</event>
<event>
 5    1  0.2361924E-004  0.6251914E+03  0.7818608E-02  0.9854478E-01
         13   -1    0    0    0    0  0.00000000000E+00  0.00000000000E+00  0.10000000000E+04  0.10000000000E+04  0.00000000000E+00 0. -1.
          2   -1    0    0  501    0 -0.00000000000E+00 -0.00000000000E+00 -0.97716057947E+02  0.97716057947E+02  0.00000000000E+00 0. -1.
    9000006    2    1    2  501    0  0.00000000000E+00  0.00000000000E+00  0.90228394205E+03  0.10977160579E+04  0.62519135614E+03 0.  0.
         13    1    3    3    0    0 -0.66675090675E+02 -0.20705843613E+03  0.84530933479E+03  0.87284972085E+03  0.00000000000E+00 0. -1.
          4    1    3    3  501    0  0.66675090675E+02  0.20705843613E+03  0.56974607258E+02  0.22486633710E+03  0.00000000000E+00 0. -1.
<mgrwt>
<rscale>  0 0.62519136E+03</rscale>
<asrwt>0</asrwt>
<pdfrwt beam="1">0</pdfrwt>
<pdfrwt beam="2">  1        2 0.35533187E+00 0.62519136E+03</pdfrwt>
<totfact> 0.58294322E+00</totfact>
</mgrwt>
</event>
<event>
 5    1  0.2361924E-004  0.6500160E+03  0.7818608E-02  0.9806749E-01
         13   -1    0    0    0    0  0.00000000000E+00  0.00000000000E+00  0.10000000000E+04  0.10000000000E+04  0.00000000000E+00 0. -1.
          2   -1    0    0  501    0 -0.00000000000E+00 -0.00000000000E+00 -0.10563019893E+03  0.10563019893E+03  0.00000000000E+00 0. -1.
    9000006    2    1    2  501    0  0.00000000000E+00  0.00000000000E+00  0.89436980107E+03  0.11056301989E+04  0.65001599653E+03 0.  0.
         13    1    3    3    0    0 -0.32412311938E+03 -0.12636130147E+01  0.48789381424E+03  0.58574547989E+03  0.00000000000E+00 0. -1.
          2    1    3    3  501    0  0.32412311938E+03  0.12636130147E+01  0.40647598682E+03  0.51988471905E+03  0.00000000000E+00 0. -1.
<mgrwt>
<rscale>  0 0.65001600E+03</rscale>
<asrwt>0</asrwt>
<pdfrwt beam="1">0</pdfrwt>
<pdfrwt beam="2">  1        2 0.38411062E+00 0.65001600E+03</pdfrwt>
<totfact> 0.45645360E+00</totfact>
</mgrwt>
</event>
<event>
 5    1  0.2361924E-004  0.6580426E+03  0.7818608E-02  0.9791804E-01
         13   -1    0    0    0    0  0.00000000000E+00  0.00000000000E+00  0.10000000000E+04  0.10000000000E+04  0.00000000000E+00 0. -1.
          2   -1    0    0  501    0 -0.00000000000E+00 -0.00000000000E+00 -0.10825500099E+03  0.10825500099E+03  0.00000000000E+00 0. -1.
    9000006    2    1    2  501    0  0.00000000000E+00  0.00000000000E+00  0.89174499901E+03  0.11082550010E+04  0.65804255482E+03 0.  0.
         13    1    3    3    0    0  0.34259658443E+02 -0.23150131215E+02  0.99560696580E+03  0.99646519413E+03  0.00000000000E+00 0. -1.
          2    1    3    3  501    0 -0.34259658443E+02  0.23150131215E+02 -0.10386196679E+03  0.11178980686E+03  0.00000000000E+00 0. -1.
<mgrwt>
<rscale>  0 0.65804255E+03</rscale>
<asrwt>0</asrwt>
<pdfrwt beam="1">0</pdfrwt>
<pdfrwt beam="2">  1        2 0.39365538E+00 0.65804255E+03</pdfrwt>
<totfact> 0.42039125E+00</totfact>
</mgrwt>
</event>
<event>
 5    1  0.2361924E-004  0.6142232E+03  0.7818608E-02  0.9876329E-01
         13   -1    0    0    0    0  0.00000000000E+00  0.00000000000E+00  0.10000000000E+04  0.10000000000E+04  0.00000000000E+00 0. -1.
          2   -1    0    0  501    0 -0.00000000000E+00 -0.00000000000E+00 -0.94317548962E+02  0.94317548962E+02  0.00000000000E+00 0. -1.
    9000006    2    1    2  501    0  0.00000000000E+00  0.00000000000E+00  0.90568245104E+03  0.10943175490E+04  0.61422324594E+03 0.  0.
         13    1    3    3    0    0  0.55315171642E+02  0.28497765835E+03  0.27427339672E+03  0.39937191954E+03  0.00000000000E+00 0. -1.
          2    1    3    3  501    0 -0.55315171642E+02 -0.28497765835E+03  0.63140905432E+03  0.69494562942E+03  0.00000000000E+00 0. -1.
<mgrwt>
<rscale>  0 0.61422325E+03</rscale>
<asrwt>0</asrwt>
<pdfrwt beam="1">0</pdfrwt>
<pdfrwt beam="2">  1        2 0.34297363E+00 0.61422325E+03</pdfrwt>
<totfact> 0.64661276E+00</totfact>
</mgrwt>
</event>
<event>
 5    1  0.2361924E-004  0.6533028E+03  0.7818608E-02  0.9800601E-01
         13   -1    0    0    0    0  0.00000000000E+00  0.00000000000E+00  0.10000000000E+04  0.10000000000E+04  0.00000000000E+00 0. -1.
          2   -1    0    0  501    0 -0.00000000000E+00 -0.00000000000E+00 -0.10670114471E+03  0.10670114471E+03  0.00000000000E+00 0. -1.
    9000006    2    1    2  501    0  0.00000000000E+00  0.00000000000E+00  0.89329885529E+03  0.11067011447E+04  0.65330282324E+03 0.  0.
         13    1    3    3    0    0 -0.30545821064E+03 -0.86120129728E+02  0.31565364300E+03  0.44761436252E+03  0.00000000000E+00 0. -1.
          2    1    3    3  501    0  0.30545821064E+03  0.86120129728E+02  0.57764521228E+03  0.65908678220E+03  0.00000000000E+00 0. -1.
<mgrwt>
<rscale>  0 0.65330282E+03</rscale>
<asrwt>0</asrwt>
<pdfrwt beam="1">0</pdfrwt>
<pdfrwt beam="2">  1        2 0.38800498E+00 0.65330282E+03</pdfrwt>
<totfact> 0.44141494E+00</totfact>
</mgrwt>
</event>
<event>
 5    1  0.2361924E-004  0.6413660E+03  0.7818608E-02  0.9823117E-01
         13   -1    0    0    0    0  0.00000000000E+00  0.00000000000E+00  0.10000000000E+04  0.10000000000E+04  0.00000000000E+00 0. -1.
          2   -1    0    0  501    0 -0.00000000000E+00 -0.00000000000E+00 -0.10283757715E+03  0.10283757715E+03  0.00000000000E+00 0. -1.
    9000006    2    1    2  501    0  0.00000000000E+00  0.00000000000E+00  0.89716242285E+03  0.11028375771E+04  0.64136597088E+03 0.  0.
         13    1    3    3    0    0  0.35653352503E+01 -0.25775894209E+03  0.77657678669E+03  0.81824439471E+03  0.00000000000E+00 0. -1.
          2    1    3    3  501    0 -0.35653352503E+01  0.25775894209E+03  0.12058563616E+03  0.28459318244E+03  0.00000000000E+00 0. -1.
<mgrwt>
<rscale>  0 0.64136597E+03</rscale>
<asrwt>0</asrwt>
<pdfrwt beam="1">0</pdfrwt>
<pdfrwt beam="2">  1        2 0.37395561E+00 0.64136597E+03</pdfrwt>
<totfact> 0.49788502E+00</totfact>
</mgrwt>
</event>
<event>
 5    1  0.2361924E-004  0.6471823E+03  0.7818608E-02  0.9812081E-01
         13   -1    0    0    0    0  0.00000000000E+00  0.00000000000E+00  0.10000000000E+04  0.10000000000E+04  0.00000000000E+00 0. -1.
          2   -1    0    0  501    0 -0.00000000000E+00 -0.00000000000E+00 -0.10471122967E+03  0.10471122967E+03  0.00000000000E+00 0. -1.
    9000006    2    1    2  501    0  0.00000000000E+00  0.00000000000E+00  0.89528877033E+03  0.11047112297E+04  0.64718229169E+03 0.  0.
         13    1    3    3    0    0  0.30667247281E+03  0.89544579513E+02  0.35985654686E+03  0.48120990390E+03  0.00000000000E+00 0. -1.
          4    1    3    3  501    0 -0.30667247281E+03 -0.89544579513E+02  0.53543222347E+03  0.62350132577E+03  0.00000000000E+00 0. -1.
<mgrwt>
<rscale>  0 0.64718229E+03</rscale>
<asrwt>0</asrwt>
<pdfrwt beam="1">0</pdfrwt>
<pdfrwt beam="2">  1        2 0.38076891E+00 0.64718229E+03</pdfrwt>
<totfact> 0.46972705E+00</totfact>
</mgrwt>
</event>
<event>
 5    1  0.2361924E-004  0.6808951E+03  0.7818608E-02  0.9750474E-01
         13   -1    0    0    0    0  0.00000000000E+00  0.00000000000E+00  0.10000000000E+04  0.10000000000E+04  0.00000000000E+00 0. -1.
          2   -1    0    0  501    0 -0.00000000000E+00 -0.00000000000E+00 -0.11590454849E+03  0.11590454849E+03  0.00000000000E+00 0. -1.
    9000006    2    1    2  501    0  0.00000000000E+00  0.00000000000E+00  0.88409545151E+03  0.11159045485E+04  0.68089514168E+03 0.  0.
         13    1    3    3    0    0  0.21688497576E+02  0.16721422640E+03  0.92676133488E+03  0.94197535013E+03  0.00000000000E+00 0. -1.
          2    1    3    3  501    0 -0.21688497576E+02 -0.16721422640E+03 -0.42665883367E+02  0.17392919836E+03  0.00000000000E+00 0. -1.
<mgrwt>
<rscale>  0 0.68089514E+03</rscale>
<asrwt>0</asrwt>
<pdfrwt beam="1">0</pdfrwt>
<pdfrwt beam="2">  1        2 0.42147197E+00 0.68089514E+03</pdfrwt>
<totfact> 0.32942524E+00</totfact>
</mgrwt>
</event>
<event>
 5    1  0.2361924E-004  0.6519550E+03  0.7818608E-02  0.9803118E-01
         13   -1    0    0    0    0  0.00000000000E+00  0.00000000000E+00  0.10000000000E+04  0.10000000000E+04  0.00000000000E+00 0. -1.
          2   -1    0    0  501    0 -0.00000000000E+00 -0.00000000000E+00 -0.10626133663E+03  0.10626133663E+03  0.00000000000E+00 0. -1.
    9000006    2    1    2  501    0  0.00000000000E+00  0.00000000000E+00  0.89373866337E+03  0.11062613366E+04  0.65195501878E+03 0.  0.
         13    1    3    3    0    0  0.34069937188E+02  0.29329991228E+03  0.68122786408E+03  0.74246683560E+03  0.00000000000E+00 0. -1.
          4    1    3    3  501    0 -0.34069937188E+02 -0.29329991228E+03  0.21251079929E+03  0.36379450103E+03  0.00000000000E+00 0. -1.
<mgrwt>
<rscale>  0 0.65195502E+03</rscale>
<asrwt>0</asrwt>
<pdfrwt beam="1">0</pdfrwt>
<pdfrwt beam="2">  1        2 0.38640568E+00 0.65195502E+03</pdfrwt>
<totfact> 0.44753571E+00</totfact>
</mgrwt>
</event>
<event>
 5    1  0.2361924E-004  0.6516220E+03  0.7818608E-02  0.9803740E-01
         13   -1    0    0    0    0  0.00000000000E+00  0.00000000000E+00  0.10000000000E+04  0.10000000000E+04  0.00000000000E+00 0. -1.
          2   -1    0    0  501    0 -0.00000000000E+00 -0.00000000000E+00 -0.10615279328E+03  0.10615279328E+03  0.00000000000E+00 0. -1.
    9000006    2    1    2  501    0  0.00000000000E+00  0.00000000000E+00  0.89384720672E+03  0.11061527933E+04  0.65162195569E+03 0.  0.
         13    1    3    3    0    0  0.21514121195E+03  0.90942228920E+01  0.86198577838E+03  0.88847505767E+03  0.00000000000E+00 0. -1.
          2    1    3    3  501    0 -0.21514121195E+03 -0.90942228920E+01  0.31861428336E+02  0.21767773562E+03  0.00000000000E+00 0. -1.
<mgrwt>
<rscale>  0 0.65162196E+03</rscale>
<asrwt>0</asrwt>
<pdfrwt beam="1">0</pdfrwt>
<pdfrwt beam="2">  1        2 0.38601097E+00 0.65162196E+03</pdfrwt>
<totfact> 0.44905808E+00</totfact>
</mgrwt>
</event>
<event>
 5    1  0.2361924E-004  0.6501269E+03  0.7818608E-02  0.9806541E-01
         13   -1    0    0    0    0  0.00000000000E+00  0.00000000000E+00  0.10000000000E+04  0.10000000000E+04  0.00000000000E+00 0. -1.
          2   -1    0    0  501    0 -0.00000000000E+00 -0.00000000000E+00 -0.10566623861E+03  0.10566623861E+03  0.00000000000E+00 0. -1.
    9000006    2    1    2  501    0  0.00000000000E+00  0.00000000000E+00  0.89433376139E+03  0.11056662386E+04  0.65012687566E+03 0.  0.
         13    1    3    3    0    0 -0.13277358650E+03 -0.24838617933E+03  0.72319160665E+03  0.77609961943E+03  0.00000000000E+00 0. -1.
          2    1    3    3  501    0  0.13277358650E+03  0.24838617933E+03  0.17114215474E+03  0.32956661918E+03  0.00000000000E+00 0. -1.
<mgrwt>
<rscale>  0 0.65012688E+03</rscale>
<asrwt>0</asrwt>
<pdfrwt beam="1">0</pdfrwt>
<pdfrwt beam="2">  1        2 0.38424168E+00 0.65012688E+03</pdfrwt>
<totfact> 0.45594006E+00</totfact>
</mgrwt>
</event>
<event>
 5    1  0.2361924E-004  0.6557964E+03  0.7818608E-02  0.9795963E-01
         13   -1    0    0    0    0  0.00000000000E+00  0.00000000000E+00  0.10000000000E+04  0.10000000000E+04  0.00000000000E+00 0. -1.
          2   -1    0    0  501    0 -0.00000000000E+00 -0.00000000000E+00 -0.10751721632E+03  0.10751721632E+03  0.00000000000E+00 0. -1.
    9000006    2    1    2  501    0  0.00000000000E+00  0.00000000000E+00  0.89248278368E+03  0.11075172163E+04  0.65579635962E+03 0.  0.
         13    1    3    3    0    0 -0.19232826131E+03 -0.26422507682E+03  0.40117302718E+03  0.51744067202E+03  0.00000000000E+00 0. -1.
          4    1    3    3  501    0  0.19232826131E+03  0.26422507682E+03  0.49130975649E+03  0.59007654431E+03  0.00000000000E+00 0. -1.
<mgrwt>
<rscale>  0 0.65579636E+03</rscale>
<asrwt>0</asrwt>
<pdfrwt beam="1">0</pdfrwt>
<pdfrwt beam="2">  1        2 0.39097252E+00 0.65579636E+03</pdfrwt>
<totfact> 0.43025798E+00</totfact>
</mgrwt>
</event>
<event>
 5    1  0.2361924E-004  0.6565092E+03  0.7818608E-02  0.9794641E-01
         13   -1    0    0    0    0  0.00000000000E+00  0.00000000000E+00  0.10000000000E+04  0.10000000000E+04  0.00000000000E+00 0. -1.
          2   -1    0    0  501    0 -0.00000000000E+00 -0.00000000000E+00 -0.10775106677E+03  0.10775106677E+03  0.00000000000E+00 0. -1.
    9000006    2    1    2  501    0  0.00000000000E+00  0.00000000000E+00  0.89224893323E+03  0.11077510668E+04  0.65650915232E+03 0.  0.
         13    1    3    3    0    0  0.17746441378E+03  0.23766957986E+03  0.20887156637E+03  0.36277786397E+03  0.00000000000E+00 0. -1.
          2    1    3    3  501    0 -0.17746441378E+03 -0.23766957986E+03  0.68337736686E+03  0.74497320280E+03  0.00000000000E+00 0. -1.
<mgrwt>
<rscale>  0 0.65650915E+03</rscale>
<asrwt>0</asrwt>
<pdfrwt beam="1">0</pdfrwt>
<pdfrwt beam="2">  1        2 0.39182289E+00 0.65650915E+03</pdfrwt>
<totfact> 0.42710820E+00</totfact>
</mgrwt>
</event>
<event>
 5    1  0.2361924E-004  0.6404309E+03  0.7818608E-02  0.9824903E-01
         13   -1    0    0    0    0  0.00000000000E+00  0.00000000000E+00  0.10000000000E+04  0.10000000000E+04  0.00000000000E+00 0. -1.
          2   -1    0    0  501    0 -0.00000000000E+00 -0.00000000000E+00 -0.10253792357E+03  0.10253792357E+03  0.00000000000E+00 0. -1.
    9000006    2    1    2  501    0  0.00000000000E+00  0.00000000000E+00  0.89746207643E+03  0.11025379236E+04  0.64043086611E+03 0.  0.
         13    1    3    3    0    0 -0.30595845485E+03 -0.44205948771E+02  0.59249060933E+03  0.66828875806E+03  0.00000000000E+00 0. -1.
          4    1    3    3  501    0  0.30595845485E+03  0.44205948771E+02  0.30497146710E+03  0.43424916551E+03  0.00000000000E+00 0. -1.
<mgrwt>
<rscale>  0 0.64043087E+03</rscale>
<asrwt>0</asrwt>
<pdfrwt beam="1">0</pdfrwt>
<pdfrwt beam="2">  1        2 0.37286596E+00 0.64043087E+03</pdfrwt>
<totfact> 0.50252892E+00</totfact>
</mgrwt>
</event>
<event>
 5    1  0.2361924E-004  0.6471275E+03  0.7818608E-02  0.9812184E-01
         13   -1    0    0    0    0  0.00000000000E+00  0.00000000000E+00  0.10000000000E+04  0.10000000000E+04  0.00000000000E+00 0. -1.
          2   -1    0    0  501    0 -0.00000000000E+00 -0.00000000000E+00 -0.10469350997E+03  0.10469350997E+03  0.00000000000E+00 0. -1.
    9000006    2    1    2  501    0  0.00000000000E+00  0.00000000000E+00  0.89530649003E+03  0.11046935100E+04  0.64712752984E+03 0.  0.
         13    1    3    3    0    0 -0.90501068713E+02  0.12244294120E+03 -0.39717531931E+02  0.15735374044E+03  0.00000000000E+00 0. -1.
          2    1    3    3  501    0  0.90501068713E+02 -0.12244294120E+03  0.93502402196E+03  0.94733976953E+03  0.00000000000E+00 0. -1.
<mgrwt>
<rscale>  0 0.64712753E+03</rscale>
<asrwt>0</asrwt>
<pdfrwt beam="1">0</pdfrwt>
<pdfrwt beam="2">  1        2 0.38070448E+00 0.64712753E+03</pdfrwt>
<totfact> 0.46998640E+00</totfact>
</mgrwt>
</event>
<event>
 5    1  0.2361924E-004  0.6537870E+03  0.7818608E-02  0.9799699E-01
         13   -1    0    0    0    0  0.00000000000E+00  0.00000000000E+00  0.10000000000E+04  0.10000000000E+04  0.00000000000E+00 0. -1.
          2   -1    0    0  501    0 -0.00000000000E+00 -0.00000000000E+00 -0.10685935678E+03  0.10685935678E+03  0.00000000000E+00 0. -1.
    9000006    2    1    2  501    0  0.00000000000E+00  0.00000000000E+00  0.89314064322E+03  0.11068593568E+04  0.65378698909E+03 0.  0.
         13    1    3    3    0    0 -0.15790930833E+03  0.78876269395E+01  0.93096213220E+03  0.94429235722E+03  0.00000000000E+00 0. -1.
          2    1    3    3  501    0  0.15790930833E+03 -0.78876269395E+01 -0.37821488978E+02  0.16256699956E+03  0.00000000000E+00 0. -1.
<mgrwt>
<rscale>  0 0.65378699E+03</rscale>
<asrwt>0</asrwt>
<pdfrwt beam="1">0</pdfrwt>
<pdfrwt beam="2">  1        2 0.38858030E+00 0.65378699E+03</pdfrwt>
<totfact> 0.43923171E+00</totfact>
</mgrwt>
</event>
<event>
 5    1  0.2361924E-004  0.6673974E+03  0.7818608E-02  0.9774671E-01
         13   -1    0    0    0    0  0.00000000000E+00  0.00000000000E+00  0.10000000000E+04  0.10000000000E+04  0.00000000000E+00 0. -1.
          2   -1    0    0  501    0 -0.00000000000E+00 -0.00000000000E+00 -0.11135483322E+03  0.11135483322E+03  0.00000000000E+00 0. -1.
    9000006    2    1    2  501    0  0.00000000000E+00  0.00000000000E+00  0.88864516678E+03  0.11113548332E+04  0.66739743247E+03 0.  0.
         13    1    3    3    0    0 -0.19323617212E+03  0.23663511372E+03  0.22079723508E+03  0.37694537307E+03  0.00000000000E+00 0. -1.
          4    1    3    3  501    0  0.19323617212E+03 -0.23663511372E+03  0.66784793171E+03  0.73440946014E+03  0.00000000000E+00 0. -1.
<mgrwt>
<rscale>  0 0.66739743E+03</rscale>
<asrwt>0</asrwt>
<pdfrwt beam="1">0</pdfrwt>
<pdfrwt beam="2">  1        2 0.40492752E+00 0.66739743E+03</pdfrwt>
<totfact> 0.38112584E+00</totfact>
</mgrwt>
</event>
<event>
 5    1  0.2361924E-004  0.6344151E+03  0.7818608E-02  0.9836471E-01
         13   -1    0    0    0    0  0.00000000000E+00  0.00000000000E+00  0.10000000000E+04  0.10000000000E+04  0.00000000000E+00 0. -1.
          2   -1    0    0  501    0 -0.00000000000E+00 -0.00000000000E+00 -0.10062064238E+03  0.10062064238E+03  0.00000000000E+00 0. -1.
    9000006    2    1    2  501    0  0.00000000000E+00  0.00000000000E+00  0.89937935762E+03  0.11006206424E+04  0.63441513973E+03 0.  0.
         13    1    3    3    0    0 -0.97558131003E+02  0.13728733500E+03  0.91602551712E+03  0.93137970199E+03  0.00000000000E+00 0. -1.
          2    1    3    3  501    0  0.97558131003E+02 -0.13728733500E+03 -0.16646159498E+02  0.16924094039E+03  0.00000000000E+00 0. -1.
<mgrwt>
<rscale>  0 0.63441514E+03</rscale>
<asrwt>0</asrwt>
<pdfrwt beam="1">0</pdfrwt>
<pdfrwt beam="2">  1        2 0.36589402E+00 0.63441514E+03</pdfrwt>
<totfact> 0.53319364E+00</totfact>
</mgrwt>
</event>
<event>
 5    1  0.2361924E-004  0.6513677E+03  0.7818608E-02  0.9804216E-01
         13   -1    0    0    0    0  0.00000000000E+00  0.00000000000E+00  0.10000000000E+04  0.10000000000E+04  0.00000000000E+00 0. -1.
          2   -1    0    0  501    0 -0.00000000000E+00 -0.00000000000E+00 -0.10606995823E+03  0.10606995823E+03  0.00000000000E+00 0. -1.
    9000006    2    1    2  501    0  0.00000000000E+00  0.00000000000E+00  0.89393004177E+03  0.11060699582E+04  0.65136766341E+03 0.  0.
         13    1    3    3    0    0 -0.38566556238E+02 -0.32126673760E+03  0.38410735442E+03  0.50223316862E+03  0.00000000000E+00 0. -1.
          2    1    3    3  501    0  0.38566556238E+02  0.32126673760E+03  0.50982268735E+03  0.60383678961E+03  0.00000000000E+00 0. -1.
<mgrwt>
<rscale>  0 0.65136766E+03</rscale>
<asrwt>0</asrwt>
<pdfrwt beam="1">0</pdfrwt>
<pdfrwt beam="2">  1        2 0.38570975E+00 0.65136766E+03</pdfrwt>
<totfact> 0.45022303E+00</totfact>
</mgrwt>
</event>
<event>
 5    1  0.2361924E-004  0.6090642E+03  0.7818608E-02  0.9886777E-01
         13   -1    0    0    0    0  0.00000000000E+00  0.00000000000E+00  0.10000000000E+04  0.10000000000E+04  0.00000000000E+00 0. -1.
          2   -1    0    0  501    0 -0.00000000000E+00 -0.00000000000E+00 -0.92739789300E+02  0.92739789300E+02  0.00000000000E+00 0. -1.
    9000006    2    1    2  501    0  0.00000000000E+00  0.00000000000E+00  0.90726021070E+03  0.10927397893E+04  0.60906416509E+03 0.  0.
         13    1    3    3    0    0 -0.22691105322E+03  0.17174074743E+03  0.64816102916E+03  0.70788150854E+03  0.00000000000E+00 0. -1.
          4    1    3    3  501    0  0.22691105322E+03 -0.17174074743E+03  0.25909918153E+03  0.38485828076E+03  0.00000000000E+00 0. -1.
<mgrwt>
<rscale>  0 0.60906417E+03</rscale>
<asrwt>0</asrwt>
<pdfrwt beam="1">0</pdfrwt>
<pdfrwt beam="2">  1        2 0.33723631E+00 0.60906417E+03</pdfrwt>
<totfact> 0.67833185E+00</totfact>
</mgrwt>
</event>
<event>
 5    1  0.2361924E-004  0.6867907E+03  0.7818608E-02  0.9740092E-01
         13   -1    0    0    0    0  0.00000000000E+00  0.00000000000E+00  0.10000000000E+04  0.10000000000E+04  0.00000000000E+00 0. -1.
          2   -1    0    0  501    0 -0.00000000000E+00 -0.00000000000E+00 -0.11792037810E+03  0.11792037810E+03  0.00000000000E+00 0. -1.
    9000006    2    1    2  501    0  0.00000000000E+00  0.00000000000E+00  0.88207962190E+03  0.11179203781E+04  0.68679073408E+03 0.  0.
         13    1    3    3    0    0 -0.25732460257E+03 -0.14331049172E+03  0.72840269344E+03  0.78569989941E+03  0.00000000000E+00 0. -1.
          4    1    3    3  501    0  0.25732460257E+03  0.14331049172E+03  0.15367692845E+03  0.33222047869E+03  0.00000000000E+00 0. -1.
<mgrwt>
<rscale>  0 0.68679073E+03</rscale>
<asrwt>0</asrwt>
<pdfrwt beam="1">0</pdfrwt>
<pdfrwt beam="2">  1        2 0.42880228E+00 0.68679073E+03</pdfrwt>
<totfact> 0.30858359E+00</totfact>
</mgrwt>
</event>
<event>
 5    1  0.2361924E-004  0.6423172E+03  0.7818608E-02  0.9821303E-01
         13   -1    0    0    0    0  0.00000000000E+00  0.00000000000E+00  0.10000000000E+04  0.10000000000E+04  0.00000000000E+00 0. -1.
          2   -1    0    0  501    0 -0.00000000000E+00 -0.00000000000E+00 -0.10314285735E+03  0.10314285735E+03  0.00000000000E+00 0. -1.
    9000006    2    1    2  501    0  0.00000000000E+00  0.00000000000E+00  0.89685714265E+03  0.11031428574E+04  0.64231723424E+03 0.  0.
         13    1    3    3    0    0 -0.28550873047E+02  0.12924348578E+03 -0.54121684474E+02  0.14299715976E+03  0.00000000000E+00 0. -1.
          4    1    3    3  501    0  0.28550873047E+02 -0.12924348578E+03  0.95097882712E+03  0.96014569759E+03  0.00000000000E+00 0. -1.
<mgrwt>
<rscale>  0 0.64231723E+03</rscale>
<asrwt>0</asrwt>
<pdfrwt beam="1">0</pdfrwt>
<pdfrwt beam="2">  1        2 0.37506573E+00 0.64231723E+03</pdfrwt>
<totfact> 0.49319429E+00</totfact>
</mgrwt>
</event>
<event>
 5    1  0.2361924E-004  0.6372806E+03  0.7818608E-02  0.9830943E-01
         13   -1    0    0    0    0  0.00000000000E+00  0.00000000000E+00  0.10000000000E+04  0.10000000000E+04  0.00000000000E+00 0. -1.
          2   -1    0    0  501    0 -0.00000000000E+00 -0.00000000000E+00 -0.10153165028E+03  0.10153165028E+03  0.00000000000E+00 0. -1.
    9000006    2    1    2  501    0  0.00000000000E+00  0.00000000000E+00  0.89846834972E+03  0.11015316503E+04  0.63728062979E+03 0.  0.
         13    1    3    3    0    0 -0.20371420873E+03 -0.24378555564E+03  0.40686773852E+03  0.51620948522E+03  0.00000000000E+00 0. -1.
          4    1    3    3  501    0  0.20371420873E+03  0.24378555564E+03  0.49160061120E+03  0.58532216506E+03  0.00000000000E+00 0. -1.
<mgrwt>
<rscale>  0 0.63728063E+03</rscale>
<asrwt>0</asrwt>
<pdfrwt beam="1">0</pdfrwt>
<pdfrwt beam="2">  1        2 0.36920678E+00 0.63728063E+03</pdfrwt>
<totfact> 0.51841535E+00</totfact>
</mgrwt>
</event>
<event>
 5    1  0.2361924E-004  0.4678532E+03  0.7818608E-02  0.1022528E+00
         13   -1    0    0    0    0  0.00000000000E+00  0.00000000000E+00  0.10000000000E+04  0.10000000000E+04  0.00000000000E+00 0. -1.
          2   -1    0    0  501    0 -0.00000000000E+00 -0.00000000000E+00 -0.54721653070E+02  0.54721653070E+02  0.00000000000E+00 0. -1.
    9000006    2    1    2  501    0  0.00000000000E+00  0.00000000000E+00  0.94527834693E+03  0.10547216531E+04  0.46785319522E+03 0.  0.
         13    1    3    3    0    0  0.21280461395E+03  0.54490133590E+02  0.29135129389E+03  0.36488430335E+03  0.00000000000E+00 0. -1.
          4    1    3    3  501    0 -0.21280461395E+03 -0.54490133590E+02  0.65392705304E+03  0.68983734972E+03  0.00000000000E+00 0. -1.
<mgrwt>
<rscale>  0 0.46785320E+03</rscale>
<asrwt>0</asrwt>
<pdfrwt beam="1">0</pdfrwt>
<pdfrwt beam="2">  1        2 0.19898825E+00 0.46785320E+03</pdfrwt>
<totfact> 0.21431357E+01</totfact>
</mgrwt>
</event>
<event>
 5    1  0.2361924E-004  0.6452326E+03  0.7818608E-02  0.9815766E-01
         13   -1    0    0    0    0  0.00000000000E+00  0.00000000000E+00  0.10000000000E+04  0.10000000000E+04  0.00000000000E+00 0. -1.
          2   -1    0    0  501    0 -0.00000000000E+00 -0.00000000000E+00 -0.10408127581E+03  0.10408127581E+03  0.00000000000E+00 0. -1.
    9000006    2    1    2  501    0  0.00000000000E+00  0.00000000000E+00  0.89591872419E+03  0.11040812758E+04  0.64523259623E+03 0.  0.
         13    1    3    3    0    0 -0.23414866417E+02 -0.25225022863E+03  0.10614787027E+03  0.27467399617E+03  0.00000000000E+00 0. -1.
          2    1    3    3  501    0  0.23414866417E+02  0.25225022863E+03  0.78977085392E+03  0.82940727963E+03  0.00000000000E+00 0. -1.
<mgrwt>
<rscale>  0 0.64523260E+03</rscale>
<asrwt>0</asrwt>
<pdfrwt beam="1">0</pdfrwt>
<pdfrwt beam="2">  1        2 0.37847816E+00 0.64523260E+03</pdfrwt>
<totfact> 0.47902774E+00</totfact>
</mgrwt>
</event>
<event>
 5    1  0.2361924E-004  0.6452358E+03  0.7818608E-02  0.9815760E-01
         13   -1    0    0    0    0  0.00000000000E+00  0.00000000000E+00  0.10000000000E+04  0.10000000000E+04  0.00000000000E+00 0. -1.
          2   -1    0    0  501    0 -0.00000000000E+00 -0.00000000000E+00 -0.10408232507E+03  0.10408232507E+03  0.00000000000E+00 0. -1.
    9000006    2    1    2  501    0  0.00000000000E+00  0.00000000000E+00  0.89591767493E+03  0.11040823251E+04  0.64523584856E+03 0.  0.
         13    1    3    3    0    0 -0.62838972828E+02 -0.31407736202E+03  0.38193052386E+03  0.49846188510E+03  0.00000000000E+00 0. -1.
          2    1    3    3  501    0  0.62838972828E+02  0.31407736202E+03  0.51398715107E+03  0.60562043997E+03  0.00000000000E+00 0. -1.
<mgrwt>
<rscale>  0 0.64523585E+03</rscale>
<asrwt>0</asrwt>
<pdfrwt beam="1">0</pdfrwt>
<pdfrwt beam="2">  1        2 0.37848198E+00 0.64523585E+03</pdfrwt>
<totfact> 0.47901211E+00</totfact>
</mgrwt>
</event>
<event>
 5    1  0.2361924E-004  0.6489154E+03  0.7818608E-02  0.9808816E-01
         13   -1    0    0    0    0  0.00000000000E+00  0.00000000000E+00  0.10000000000E+04  0.10000000000E+04  0.00000000000E+00 0. -1.
          2   -1    0    0  501    0 -0.00000000000E+00 -0.00000000000E+00 -0.10527280191E+03  0.10527280191E+03  0.00000000000E+00 0. -1.
    9000006    2    1    2  501    0  0.00000000000E+00  0.00000000000E+00  0.89472719809E+03  0.11052728019E+04  0.64891540871E+03 0.  0.
         13    1    3    3    0    0  0.11214230892E+03  0.50202588549E+02 -0.64116023299E+02  0.13858954430E+03  0.00000000000E+00 0. -1.
          4    1    3    3  501    0 -0.11214230892E+03 -0.50202588549E+02  0.95884322138E+03  0.96668325761E+03  0.00000000000E+00 0. -1.
<mgrwt>
<rscale>  0 0.64891541E+03</rscale>
<asrwt>0</asrwt>
<pdfrwt beam="1">0</pdfrwt>
<pdfrwt beam="2">  1        2 0.38281100E+00 0.64891541E+03</pdfrwt>
<totfact> 0.46157476E+00</totfact>
</mgrwt>
</event>
<event>
 5    1  0.2361924E-004  0.6643007E+03  0.7818608E-02  0.9780309E-01
         13   -1    0    0    0    0  0.00000000000E+00  0.00000000000E+00  0.10000000000E+04  0.10000000000E+04  0.00000000000E+00 0. -1.
          2   -1    0    0  501    0 -0.00000000000E+00 -0.00000000000E+00 -0.11032384655E+03  0.11032384655E+03  0.00000000000E+00 0. -1.
    9000006    2    1    2  501    0  0.00000000000E+00  0.00000000000E+00  0.88967615345E+03  0.11103238465E+04  0.66430067454E+03 0.  0.
         13    1    3    3    0    0  0.86136816160E+02  0.23424056140E+03  0.81116330734E+03  0.84868963872E+03  0.00000000000E+00 0. -1.
          4    1    3    3  501    0 -0.86136816160E+02 -0.23424056140E+03  0.78512846115E+02  0.26163420783E+03  0.00000000000E+00 0. -1.
<mgrwt>
<rscale>  0 0.66430067E+03</rscale>
<asrwt>0</asrwt>
<pdfrwt beam="1">0</pdfrwt>
<pdfrwt beam="2">  1        2 0.40117847E+00 0.66430067E+03</pdfrwt>
<totfact> 0.39380329E+00</totfact>
</mgrwt>
</event>
<event>
 5    1  0.2361924E-004  0.6445470E+03  0.7818608E-02  0.9817065E-01
         13   -1    0    0    0    0  0.00000000000E+00  0.00000000000E+00  0.10000000000E+04  0.10000000000E+04  0.00000000000E+00 0. -1.
          2   -1    0    0  501    0 -0.00000000000E+00 -0.00000000000E+00 -0.10386022001E+03  0.10386022001E+03  0.00000000000E+00 0. -1.
    9000006    2    1    2  501    0  0.00000000000E+00  0.00000000000E+00  0.89613977999E+03  0.11038602200E+04  0.64454703479E+03 0.  0.
         13    1    3    3    0    0  0.29718292438E+03 -0.11645810656E+03  0.37186263337E+03  0.49006326043E+03  0.00000000000E+00 0. -1.
          4    1    3    3  501    0 -0.29718292438E+03  0.11645810656E+03  0.52427714661E+03  0.61379695958E+03  0.00000000000E+00 0. -1.
<mgrwt>
<rscale>  0 0.64454703E+03</rscale>
<asrwt>0</asrwt>
<pdfrwt beam="1">0</pdfrwt>
<pdfrwt beam="2">  1        2 0.37767432E+00 0.64454703E+03</pdfrwt>
<totfact> 0.48233096E+00</totfact>
</mgrwt>
</event>
<event>
 5    1  0.2361924E-004  0.6553851E+03  0.7818608E-02  0.9796727E-01
         13   -1    0    0    0    0  0.00000000000E+00  0.00000000000E+00  0.10000000000E+04  0.10000000000E+04  0.00000000000E+00 0. -1.
          2   -1    0    0  501    0 -0.00000000000E+00 -0.00000000000E+00 -0.10738241212E+03  0.10738241212E+03  0.00000000000E+00 0. -1.
    9000006    2    1    2  501    0  0.00000000000E+00  0.00000000000E+00  0.89261758788E+03  0.11073824121E+04  0.65538511462E+03 0.  0.
         13    1    3    3    0    0  0.26670964667E+03  0.19037358693E+03  0.44207656149E+03  0.55027976925E+03  0.00000000000E+00 0. -1.
          2    1    3    3  501    0 -0.26670964667E+03 -0.19037358693E+03  0.45054102639E+03  0.55710264287E+03  0.00000000000E+00 0. -1.
<mgrwt>
<rscale>  0 0.65538511E+03</rscale>
<asrwt>0</asrwt>
<pdfrwt beam="1">0</pdfrwt>
<pdfrwt beam="2">  1        2 0.39048232E+00 0.65538511E+03</pdfrwt>
<totfact> 0.43208320E+00</totfact>
</mgrwt>
</event>
<event>
 5    1  0.2361924E-004  0.5654836E+03  0.7818608E-02  0.9979723E-01
         13   -1    0    0    0    0  0.00000000000E+00  0.00000000000E+00  0.10000000000E+04  0.10000000000E+04  0.00000000000E+00 0. -1.
          2   -1    0    0  501    0 -0.00000000000E+00 -0.00000000000E+00 -0.79942916927E+02  0.79942916927E+02  0.00000000000E+00 0. -1.
    9000006    2    1    2  501    0  0.00000000000E+00  0.00000000000E+00  0.92005708307E+03  0.10799429169E+04  0.56548356979E+03 0.  0.
         13    1    3    3    0    0  0.13688583781E+03 -0.11937613782E+03  0.87385620749E+03  0.89253182926E+03  0.00000000000E+00 0. -1.
          2    1    3    3  501    0 -0.13688583781E+03  0.11937613782E+03  0.46200875581E+02  0.18741108766E+03  0.00000000000E+00 0. -1.
<mgrwt>
<rscale>  0 0.56548357E+03</rscale>
<asrwt>0</asrwt>
<pdfrwt beam="1">0</pdfrwt>
<pdfrwt beam="2">  1        2 0.29070213E+00 0.56548357E+03</pdfrwt>
<totfact> 0.99672801E+00</totfact>
</mgrwt>
</event>
<event>
 5    1  0.2361924E-004  0.6499617E+03  0.7818608E-02  0.9806851E-01
         13   -1    0    0    0    0  0.00000000000E+00  0.00000000000E+00  0.10000000000E+04  0.10000000000E+04  0.00000000000E+00 0. -1.
          2   -1    0    0  501    0 -0.00000000000E+00 -0.00000000000E+00 -0.10561254605E+03  0.10561254605E+03  0.00000000000E+00 0. -1.
    9000006    2    1    2  501    0  0.00000000000E+00  0.00000000000E+00  0.89438745395E+03  0.11056125460E+04  0.64996167901E+03 0.  0.
         13    1    3    3    0    0 -0.16458424186E+03 -0.82629061909E+02 -0.82825196775E+01  0.18434786321E+03  0.00000000000E+00 0. -1.
          2    1    3    3  501    0  0.16458424186E+03  0.82629061909E+02  0.90266997363E+03  0.92126468283E+03  0.00000000000E+00 0. -1.
<mgrwt>
<rscale>  0 0.64996168E+03</rscale>
<asrwt>0</asrwt>
<pdfrwt beam="1">0</pdfrwt>
<pdfrwt beam="2">  1        2 0.38404643E+00 0.64996168E+03</pdfrwt>
<totfact> 0.45670533E+00</totfact>
</mgrwt>
</event>
<event>
 5    1  0.2361924E-004  0.6523356E+03  0.7818608E-02  0.9802406E-01
         13   -1    0    0    0    0  0.00000000000E+00  0.00000000000E+00  0.10000000000E+04  0.10000000000E+04  0.00000000000E+00 0. -1.
          2   -1    0    0  501    0 -0.00000000000E+00 -0.00000000000E+00 -0.10638542628E+03  0.10638542628E+03  0.00000000000E+00 0. -1.
    9000006    2    1    2  501    0  0.00000000000E+00  0.00000000000E+00  0.89361457372E+03  0.11063854263E+04  0.65233557706E+03 0.  0.
         13    1    3    3    0    0  0.61177258203E+02 -0.23776948814E+03  0.82619317192E+02  0.25904234786E+03  0.00000000000E+00 0. -1.
          2    1    3    3  501    0 -0.61177258203E+02  0.23776948814E+03  0.81099525653E+03  0.84734307841E+03  0.00000000000E+00 0. -1.
<mgrwt>
<rscale>  0 0.65233558E+03</rscale>
<asrwt>0</asrwt>
<pdfrwt beam="1">0</pdfrwt>
<pdfrwt beam="2">  1        2 0.38685691E+00 0.65233558E+03</pdfrwt>
<totfact> 0.44580103E+00</totfact>
</mgrwt>
</event>
<event>
 5    1  0.2361924E-004  0.6441948E+03  0.7818608E-02  0.9817734E-01
         13   -1    0    0    0    0  0.00000000000E+00  0.00000000000E+00  0.10000000000E+04  0.10000000000E+04  0.00000000000E+00 0. -1.
          2   -1    0    0  501    0 -0.00000000000E+00 -0.00000000000E+00 -0.10374674251E+03  0.10374674251E+03  0.00000000000E+00 0. -1.
    9000006    2    1    2  501    0  0.00000000000E+00  0.00000000000E+00  0.89625325749E+03  0.11037467425E+04  0.64419482304E+03 0.  0.
         13    1    3    3    0    0 -0.28834380750E+03  0.11578905452E+03  0.30276739664E+03  0.43384023896E+03  0.00000000000E+00 0. -1.
          2    1    3    3  501    0  0.28834380750E+03 -0.11578905452E+03  0.59348586085E+03  0.66990650355E+03  0.00000000000E+00 0. -1.
<mgrwt>
<rscale>  0 0.64419482E+03</rscale>
<asrwt>0</asrwt>
<pdfrwt beam="1">0</pdfrwt>
<pdfrwt beam="2">  1        2 0.37726168E+00 0.64419482E+03</pdfrwt>
<totfact> 0.48403471E+00</totfact>
</mgrwt>
</event>
<event>
 5    1  0.2361924E-004  0.6312224E+03  0.7818608E-02  0.9842666E-01
         13   -1    0    0    0    0  0.00000000000E+00  0.00000000000E+00  0.10000000000E+04  0.10000000000E+04  0.00000000000E+00 0. -1.
          2   -1    0    0  501    0 -0.00000000000E+00 -0.00000000000E+00 -0.99610414271E+02  0.99610414271E+02  0.00000000000E+00 0. -1.
    9000006    2    1    2  501    0  0.00000000000E+00  0.00000000000E+00  0.90038958573E+03  0.10996104143E+04  0.63122235154E+03 0.  0.
         13    1    3    3    0    0 -0.18113365923E+03  0.16139428008E+03  0.98524466120E+02  0.26184840380E+03  0.00000000000E+00 0. -1.
          4    1    3    3  501    0  0.18113365923E+03 -0.16139428008E+03  0.80186511961E+03  0.83776201047E+03  0.00000000000E+00 0. -1.
<mgrwt>
<rscale>  0 0.63122235E+03</rscale>
<asrwt>0</asrwt>
<pdfrwt beam="1">0</pdfrwt>
<pdfrwt beam="2">  1        2 0.36222045E+00 0.63122235E+03</pdfrwt>
<totfact> 0.55003378E+00</totfact>
</mgrwt>
</event>
<event>
 5    1  0.2361924E-004  0.6411601E+03  0.7818608E-02  0.9823509E-01
         13   -1    0    0    0    0  0.00000000000E+00  0.00000000000E+00  0.10000000000E+04  0.10000000000E+04  0.00000000000E+00 0. -1.
          2   -1    0    0  501    0 -0.00000000000E+00 -0.00000000000E+00 -0.10277156434E+03  0.10277156434E+03  0.00000000000E+00 0. -1.
    9000006    2    1    2  501    0  0.00000000000E+00  0.00000000000E+00  0.89722843566E+03  0.11027715643E+04  0.64116008715E+03 0.  0.
         13    1    3    3    0    0 -0.31268802600E+03  0.45007723382E+01  0.56996007855E+03  0.65011425895E+03  0.00000000000E+00 0. -1.
          4    1    3    3  501    0  0.31268802600E+03 -0.45007723382E+01  0.32726835711E+03  0.45265730539E+03  0.00000000000E+00 0. -1.
<mgrwt>
<rscale>  0 0.64116009E+03</rscale>
<asrwt>0</asrwt>
<pdfrwt beam="1">0</pdfrwt>
<pdfrwt beam="2">  1        2 0.37371557E+00 0.64116009E+03</pdfrwt>
<totfact> 0.49890467E+00</totfact>
</mgrwt>
</event>
<event>
 5    1  0.2361924E-004  0.6463399E+03  0.7818608E-02  0.9813671E-01
         13   -1    0    0    0    0  0.00000000000E+00  0.00000000000E+00  0.10000000000E+04  0.10000000000E+04  0.00000000000E+00 0. -1.
          2   -1    0    0  501    0 -0.00000000000E+00 -0.00000000000E+00 -0.10443881142E+03  0.10443881142E+03  0.00000000000E+00 0. -1.
    9000006    2    1    2  501    0  0.00000000000E+00  0.00000000000E+00  0.89556118858E+03  0.11044388114E+04  0.64633988403E+03 0.  0.
         13    1    3    3    0    0  0.68793986302E+02  0.21599201419E+03  0.84136540752E+03  0.87136726569E+03  0.00000000000E+00 0. -1.
          2    1    3    3  501    0 -0.68793986302E+02 -0.21599201419E+03  0.54195781062E+02  0.23307154573E+03  0.00000000000E+00 0. -1.
<mgrwt>
<rscale>  0 0.64633988E+03</rscale>
<asrwt>0</asrwt>
<pdfrwt beam="1">0</pdfrwt>
<pdfrwt beam="2">  1        2 0.37977830E+00 0.64633988E+03</pdfrwt>
<totfact> 0.47372869E+00</totfact>
</mgrwt>
</event>
<event>
 5    1  0.2361924E-004  0.6491204E+03  0.7818608E-02  0.9808431E-01
         13   -1    0    0    0    0  0.00000000000E+00  0.00000000000E+00  0.10000000000E+04  0.10000000000E+04  0.00000000000E+00 0. -1.
          2   -1    0    0  501    0 -0.00000000000E+00 -0.00000000000E+00 -0.10533933389E+03  0.10533933389E+03  0.00000000000E+00 0. -1.
    9000006    2    1    2  501    0  0.00000000000E+00  0.00000000000E+00  0.89466066611E+03  0.11053393339E+04  0.64912043225E+03 0.  0.
         13    1    3    3    0    0  0.31422039724E+03 -0.66014210589E+02  0.52804860711E+03  0.61800296562E+03  0.00000000000E+00 0. -1.
          4    1    3    3  501    0 -0.31422039724E+03  0.66014210589E+02  0.36661205900E+03  0.48733636827E+03  0.00000000000E+00 0. -1.
<mgrwt>
<rscale>  0 0.64912043E+03</rscale>
<asrwt>0</asrwt>
<pdfrwt beam="1">0</pdfrwt>
<pdfrwt beam="2">  1        2 0.38305293E+00 0.64912043E+03</pdfrwt>
<totfact> 0.46061748E+00</totfact>
</mgrwt>
</event>
<event>
 5    1  0.2361924E-004  0.6494435E+03  0.7818608E-02  0.9807824E-01
         13   -1    0    0    0    0  0.00000000000E+00  0.00000000000E+00  0.10000000000E+04  0.10000000000E+04  0.00000000000E+00 0. -1.
          2   -1    0    0  501    0 -0.00000000000E+00 -0.00000000000E+00 -0.10544421439E+03  0.10544421439E+03  0.00000000000E+00 0. -1.
    9000006    2    1    2  501    0  0.00000000000E+00  0.00000000000E+00  0.89455578561E+03  0.11054442144E+04  0.64944349835E+03 0.  0.
         13    1    3    3    0    0 -0.19420284996E+03 -0.12244511077E+03  0.83816538833E+03  0.86903899238E+03  0.00000000000E+00 0. -1.
          2    1    3    3  501    0  0.19420284996E+03  0.12244511077E+03  0.56390397280E+02  0.23640522200E+03  0.00000000000E+00 0. -1.
<mgrwt>
<rscale>  0 0.64944350E+03</rscale>
<asrwt>0</asrwt>
<pdfrwt beam="1">0</pdfrwt>
<pdfrwt beam="2">  1        2 0.38343432E+00 0.64944350E+03</pdfrwt>
<totfact> 0.45911211E+00</totfact>
</mgrwt>
</event>
<event>
 5    1  0.2361924E-004  0.6529910E+03  0.7818608E-02  0.9801183E-01
         13   -1    0    0    0    0  0.00000000000E+00  0.00000000000E+00  0.10000000000E+04  0.10000000000E+04  0.00000000000E+00 0. -1.
          2   -1    0    0  501    0 -0.00000000000E+00 -0.00000000000E+00 -0.10659930559E+03  0.10659930559E+03  0.00000000000E+00 0. -1.
    9000006    2    1    2  501    0  0.00000000000E+00  0.00000000000E+00  0.89340069441E+03  0.11065993056E+04  0.65299098184E+03 0.  0.
         13    1    3    3    0    0 -0.31770690570E+03  0.31531156538E+02  0.56247709991E+03  0.64677073193E+03  0.00000000000E+00 0. -1.
          4    1    3    3  501    0  0.31770690570E+03 -0.31531156538E+02  0.33092359450E+03  0.45982857366E+03  0.00000000000E+00 0. -1.
<mgrwt>
<rscale>  0 0.65299098E+03</rscale>
<asrwt>0</asrwt>
<pdfrwt beam="1">0</pdfrwt>
<pdfrwt beam="2">  1        2 0.38763466E+00 0.65299098E+03</pdfrwt>
<totfact> 0.44282544E+00</totfact>
</mgrwt>
</event>
<event>
 5    1  0.2361924E-004  0.6472955E+03  0.7818608E-02  0.9811867E-01
         13   -1    0    0    0    0  0.00000000000E+00  0.00000000000E+00  0.10000000000E+04  0.10000000000E+04  0.00000000000E+00 0. -1.
          2   -1    0    0  501    0 -0.00000000000E+00 -0.00000000000E+00 -0.10474786326E+03  0.10474786326E+03  0.00000000000E+00 0. -1.
    9000006    2    1    2  501    0  0.00000000000E+00  0.00000000000E+00  0.89525213674E+03  0.11047478633E+04  0.64729549128E+03 0.  0.
         13    1    3    3    0    0 -0.24199569056E+03 -0.17827454766E+03  0.24279106434E+03  0.38638223240E+03  0.00000000000E+00 0. -1.
          2    1    3    3  501    0  0.24199569056E+03  0.17827454766E+03  0.65246107240E+03  0.71836563086E+03  0.00000000000E+00 0. -1.
<mgrwt>
<rscale>  0 0.64729549E+03</rscale>
<asrwt>0</asrwt>
<pdfrwt beam="1">0</pdfrwt>
<pdfrwt beam="2">  1        2 0.38090212E+00 0.64729549E+03</pdfrwt>
<totfact> 0.46919128E+00</totfact>
</mgrwt>
</event>
<event>
 5    1  0.2361924E-004  0.6348316E+03  0.7818608E-02  0.9835665E-01
         13   -1    0    0    0    0  0.00000000000E+00  0.00000000000E+00  0.10000000000E+04  0.10000000000E+04  0.00000000000E+00 0. -1.
          2   -1    0    0  501    0 -0.00000000000E+00 -0.00000000000E+00 -0.10075278514E+03  0.10075278514E+03  0.00000000000E+00 0. -1.
    9000006    2    1    2  501    0  0.00000000000E+00  0.00000000000E+00  0.89924721486E+03  0.11007527851E+04  0.63483158440E+03 0.  0.
         13    1    3    3    0    0  0.23129250410E+03  0.21709440669E+03  0.46913175302E+03  0.56631334574E+03  0.00000000000E+00 0. -1.
          2    1    3    3  501    0 -0.23129250410E+03 -0.21709440669E+03  0.43011546184E+03  0.53443943940E+03  0.00000000000E+00 0. -1.
<mgrwt>
<rscale>  0 0.63483158E+03</rscale>
<asrwt>0</asrwt>
<pdfrwt beam="1">0</pdfrwt>
<pdfrwt beam="2">  1        2 0.36637454E+00 0.63483158E+03</pdfrwt>
<totfact> 0.53102631E+00</totfact>
</mgrwt>
</event>
<event>
 5    1  0.2361924E-004  0.6479592E+03  0.7818608E-02  0.9810616E-01
         13   -1    0    0    0    0  0.00000000000E+00  0.00000000000E+00  0.10000000000E+04  0.10000000000E+04  0.00000000000E+00 0. -1.
          2   -1    0    0  501    0 -0.00000000000E+00 -0.00000000000E+00 -0.10496278479E+03  0.10496278479E+03  0.00000000000E+00 0. -1.
    9000006    2    1    2  501    0  0.00000000000E+00  0.00000000000E+00  0.89503721521E+03  0.11049627848E+04  0.64795921102E+03 0.  0.
         13    1    3    3    0    0  0.39068535188E+01  0.29617638795E+03  0.22369511226E+03  0.37118084478E+03  0.00000000000E+00 0. -1.
          4    1    3    3  501    0 -0.39068535188E+01 -0.29617638795E+03  0.67134210295E+03  0.73378194000E+03  0.00000000000E+00 0. -1.
<mgrwt>
<rscale>  0 0.64795921E+03</rscale>
<asrwt>0</asrwt>
<pdfrwt beam="1">0</pdfrwt>
<pdfrwt beam="2">  1        2 0.38168366E+00 0.64795921E+03</pdfrwt>
<totfact> 0.46605920E+00</totfact>
</mgrwt>
</event>
<event>
 5    1  0.2361924E-004  0.6527954E+03  0.7818608E-02  0.9801548E-01
         13   -1    0    0    0    0  0.00000000000E+00  0.00000000000E+00  0.10000000000E+04  0.10000000000E+04  0.00000000000E+00 0. -1.
          2   -1    0    0  501    0 -0.00000000000E+00 -0.00000000000E+00 -0.10653545355E+03  0.10653545355E+03  0.00000000000E+00 0. -1.
    9000006    2    1    2  501    0  0.00000000000E+00  0.00000000000E+00  0.89346454645E+03  0.11065354535E+04  0.65279538463E+03 0.  0.
         13    1    3    3    0    0  0.12177088584E+03 -0.13504601205E+03 -0.12722663222E+02  0.18228395478E+03  0.00000000000E+00 0. -1.
          4    1    3    3  501    0 -0.12177088584E+03  0.13504601205E+03  0.90618720967E+03  0.92425149877E+03  0.00000000000E+00 0. -1.
<mgrwt>
<rscale>  0 0.65279538E+03</rscale>
<asrwt>0</asrwt>
<pdfrwt beam="1">0</pdfrwt>
<pdfrwt beam="2">  1        2 0.38740247E+00 0.65279538E+03</pdfrwt>
<totfact> 0.44371189E+00</totfact>
</mgrwt>
</event>
<event>
 5    1  0.2361924E-004  0.6487055E+03  0.7818608E-02  0.9809211E-01
         13   -1    0    0    0    0  0.00000000000E+00  0.00000000000E+00  0.10000000000E+04  0.10000000000E+04  0.00000000000E+00 0. -1.
          2   -1    0    0  501    0 -0.00000000000E+00 -0.00000000000E+00 -0.10520472183E+03  0.10520472183E+03  0.00000000000E+00 0. -1.
    9000006    2    1    2  501    0  0.00000000000E+00  0.00000000000E+00  0.89479527817E+03  0.11052047218E+04  0.64870554746E+03 0.  0.
         13    1    3    3    0    0 -0.30222312722E+03  0.82680171832E+02  0.30455118694E+03  0.43695108983E+03  0.00000000000E+00 0. -1.
          4    1    3    3  501    0  0.30222312722E+03 -0.82680171832E+02  0.59024409123E+03  0.66825363199E+03  0.00000000000E+00 0. -1.
<mgrwt>
<rscale>  0 0.64870555E+03</rscale>
<asrwt>0</asrwt>
<pdfrwt beam="1">0</pdfrwt>
<pdfrwt beam="2">  1        2 0.38256343E+00 0.64870555E+03</pdfrwt>
<totfact> 0.46255617E+00</totfact>
</mgrwt>
</event>
<event>
 5    1  0.2361924E-004  0.6612424E+03  0.7818608E-02  0.9785909E-01
         13   -1    0    0    0    0  0.00000000000E+00  0.00000000000E+00  0.10000000000E+04  0.10000000000E+04  0.00000000000E+00 0. -1.
          2   -1    0    0  501    0 -0.00000000000E+00 -0.00000000000E+00 -0.10931037458E+03  0.10931037458E+03  0.00000000000E+00 0. -1.
    9000006    2    1    2  501    0  0.00000000000E+00  0.00000000000E+00  0.89068962542E+03  0.11093103746E+04  0.66124238998E+03 0.  0.
         13    1    3    3    0    0  0.36634894080E+02 -0.26600544584E+03  0.76895225351E+03  0.81448669778E+03  0.00000000000E+00 0. -1.
          4    1    3    3  501    0 -0.36634894080E+02  0.26600544584E+03  0.12173737192E+03  0.29482367680E+03  0.00000000000E+00 0. -1.
<mgrwt>
<rscale>  0 0.66124239E+03</rscale>
<asrwt>0</asrwt>
<pdfrwt beam="1">0</pdfrwt>
<pdfrwt beam="2">  1        2 0.39749311E+00 0.66124239E+03</pdfrwt>
<totfact> 0.40663281E+00</totfact>
</mgrwt>
</event>
<event>
 5    1  0.2361924E-004  0.6432579E+03  0.7818608E-02  0.9819513E-01
         13   -1    0    0    0    0  0.00000000000E+00  0.00000000000E+00  0.10000000000E+04  0.10000000000E+04  0.00000000000E+00 0. -1.
          2   -1    0    0  501    0 -0.00000000000E+00 -0.00000000000E+00 -0.10344517941E+03  0.10344517941E+03  0.00000000000E+00 0. -1.
    9000006    2    1    2  501    0  0.00000000000E+00  0.00000000000E+00  0.89655482059E+03  0.11034451794E+04  0.64325789356E+03 0.  0.
         13    1    3    3    0    0 -0.99069531134E+02  0.95844600807E+02 -0.50205876135E+02  0.14670238410E+03  0.00000000000E+00 0. -1.
          2    1    3    3  501    0  0.99069531134E+02 -0.95844600807E+02  0.94676069673E+03  0.95674279531E+03  0.00000000000E+00 0. -1.
<mgrwt>
<rscale>  0 0.64325789E+03</rscale>
<asrwt>0</asrwt>
<pdfrwt beam="1">0</pdfrwt>
<pdfrwt beam="2">  1        2 0.37616508E+00 0.64325789E+03</pdfrwt>
<totfact> 0.48858907E+00</totfact>
</mgrwt>
</event>
<event>
 5    1  0.2361924E-004  0.6359366E+03  0.7818608E-02  0.9833532E-01
         13   -1    0    0    0    0  0.00000000000E+00  0.00000000000E+00  0.10000000000E+04  0.10000000000E+04  0.00000000000E+00 0. -1.
          2   -1    0    0  501    0 -0.00000000000E+00 -0.00000000000E+00 -0.10110383958E+03  0.10110383958E+03  0.00000000000E+00 0. -1.
    9000006    2    1    2  501    0  0.00000000000E+00  0.00000000000E+00  0.89889616042E+03  0.11011038396E+04  0.63593659931E+03 0.  0.
         13    1    3    3    0    0 -0.13265641365E+03 -0.28239675153E+03  0.55559412991E+03  0.63720521541E+03  0.00000000000E+00 0. -1.
          2    1    3    3  501    0  0.13265641365E+03  0.28239675153E+03  0.34330203051E+03  0.46389862417E+03  0.00000000000E+00 0. -1.
<mgrwt>
<rscale>  0 0.63593660E+03</rscale>
<asrwt>0</asrwt>
<pdfrwt beam="1">0</pdfrwt>
<pdfrwt beam="2">  1        2 0.36765110E+00 0.63593660E+03</pdfrwt>
<totfact> 0.52530777E+00</totfact>
</mgrwt>
</event>
<event>
 5    1  0.2361924E-004  0.6538203E+03  0.7818608E-02  0.9799637E-01
         13   -1    0    0    0    0  0.00000000000E+00  0.00000000000E+00  0.10000000000E+04  0.10000000000E+04  0.00000000000E+00 0. -1.
          2   -1    0    0  501    0 -0.00000000000E+00 -0.00000000000E+00 -0.10687022987E+03  0.10687022987E+03  0.00000000000E+00 0. -1.
    9000006    2    1    2  501    0  0.00000000000E+00  0.00000000000E+00  0.89312977013E+03  0.11068702299E+04  0.65382025014E+03 0.  0.
         13    1    3    3    0    0 -0.20711249021E+03  0.12820793531E+03  0.81567497923E+03  0.85126877660E+03  0.00000000000E+00 0. -1.
          4    1    3    3  501    0  0.20711249021E+03 -0.12820793531E+03  0.77454790898E+02  0.25560145327E+03  0.00000000000E+00 0. -1.
<mgrwt>
<rscale>  0 0.65382025E+03</rscale>
<asrwt>0</asrwt>
<pdfrwt beam="1">0</pdfrwt>
<pdfrwt beam="2">  1        2 0.38861984E+00 0.65382025E+03</pdfrwt>
<totfact> 0.43908203E+00</totfact>
</mgrwt>
</event>
<event>
 5    1  0.2361924E-004  0.6487169E+03  0.7818608E-02  0.9809190E-01
         13   -1    0    0    0    0  0.00000000000E+00  0.00000000000E+00  0.10000000000E+04  0.10000000000E+04  0.00000000000E+00 0. -1.
          2   -1    0    0  501    0 -0.00000000000E+00 -0.00000000000E+00 -0.10520839964E+03  0.10520839964E+03  0.00000000000E+00 0. -1.
    9000006    2    1    2  501    0  0.00000000000E+00  0.00000000000E+00  0.89479160036E+03  0.11052083996E+04  0.64871688630E+03 0.  0.
         13    1    3    3    0    0 -0.23555743280E+03  0.35485038693E+02  0.72345751396E+02  0.24895863083E+03  0.00000000000E+00 0. -1.
          4    1    3    3  501    0  0.23555743280E+03 -0.35485038693E+02  0.82244584896E+03  0.85624976881E+03  0.00000000000E+00 0. -1.
<mgrwt>
<rscale>  0 0.64871689E+03</rscale>
<asrwt>0</asrwt>
<pdfrwt beam="1">0</pdfrwt>
<pdfrwt beam="2">  1        2 0.38257681E+00 0.64871689E+03</pdfrwt>
<totfact> 0.46250311E+00</totfact>
</mgrwt>
</event>
<event>
 5    1  0.2361924E-004  0.6613708E+03  0.7818608E-02  0.9785674E-01
         13   -1    0    0    0    0  0.00000000000E+00  0.00000000000E+00  0.10000000000E+04  0.10000000000E+04  0.00000000000E+00 0. -1.
          2   -1    0    0  501    0 -0.00000000000E+00 -0.00000000000E+00 -0.10935282569E+03  0.10935282569E+03  0.00000000000E+00 0. -1.
    9000006    2    1    2  501    0  0.00000000000E+00  0.00000000000E+00  0.89064717431E+03  0.11093528257E+04  0.66137077555E+03 0.  0.
         13    1    3    3    0    0 -0.12829352057E+03 -0.30341111477E+03  0.49380154278E+03  0.59359708190E+03  0.00000000000E+00 0. -1.
          4    1    3    3  501    0  0.12829352057E+03  0.30341111477E+03  0.39684563153E+03  0.51575574379E+03  0.00000000000E+00 0. -1.
<mgrwt>
<rscale>  0 0.66137078E+03</rscale>
<asrwt>0</asrwt>
<pdfrwt beam="1">0</pdfrwt>
<pdfrwt beam="2">  1        2 0.39764748E+00 0.66137078E+03</pdfrwt>
<totfact> 0.40608797E+00</totfact>
</mgrwt>
</event>
<event>
 5    1  0.2361924E-004  0.6568847E+03  0.7818608E-02  0.9793946E-01
         13   -1    0    0    0    0  0.00000000000E+00  0.00000000000E+00  0.10000000000E+04  0.10000000000E+04  0.00000000000E+00 0. -1.
          2   -1    0    0  501    0 -0.00000000000E+00 -0.00000000000E+00 -0.10787439255E+03  0.10787439255E+03  0.00000000000E+00 0. -1.
    9000006    2    1    2  501    0  0.00000000000E+00  0.00000000000E+00  0.89212560745E+03  0.11078743925E+04  0.65688474651E+03 0.  0.
         13    1    3    3    0    0 -0.23020889099E+03 -0.71192709164E+02  0.82247093391E+03  0.85704315670E+03  0.00000000000E+00 0. -1.
          2    1    3    3  501    0  0.23020889099E+03  0.71192709164E+02  0.69654673546E+02  0.25083123585E+03  0.00000000000E+00 0. -1.
<mgrwt>
<rscale>  0 0.65688475E+03</rscale>
<asrwt>0</asrwt>
<pdfrwt beam="1">0</pdfrwt>
<pdfrwt beam="2">  1        2 0.39227135E+00 0.65688475E+03</pdfrwt>
<totfact> 0.42545550E+00</totfact>
</mgrwt>
</event>
<event>
 5    1  0.2361924E-004  0.6467261E+03  0.7818608E-02  0.9812942E-01
         13   -1    0    0    0    0  0.00000000000E+00  0.00000000000E+00  0.10000000000E+04  0.10000000000E+04  0.00000000000E+00 0. -1.
          2   -1    0    0  501    0 -0.00000000000E+00 -0.00000000000E+00 -0.10456367376E+03  0.10456367376E+03  0.00000000000E+00 0. -1.
    9000006    2    1    2  501    0  0.00000000000E+00  0.00000000000E+00  0.89543632624E+03  0.11045636738E+04  0.64672613603E+03 0.  0.
         13    1    3    3    0    0 -0.44539298430E+02  0.30205962248E+03  0.62959405288E+03  0.69972311386E+03  0.00000000000E+00 0. -1.
          4    1    3    3  501    0  0.44539298430E+02 -0.30205962248E+03  0.26584227336E+03  0.40484055990E+03  0.00000000000E+00 0. -1.
<mgrwt>
<rscale>  0 0.64672614E+03</rscale>
<asrwt>0</asrwt>
<pdfrwt beam="1">0</pdfrwt>
<pdfrwt beam="2">  1        2 0.38023234E+00 0.64672614E+03</pdfrwt>
<totfact> 0.47189071E+00</totfact>
</mgrwt>
</event>
<event>
 5    1  0.2361924E-004  0.5794243E+03  0.7818608E-02  0.9949038E-01
         13   -1    0    0    0    0  0.00000000000E+00  0.00000000000E+00  0.10000000000E+04  0.10000000000E+04  0.00000000000E+00 0. -1.
          2   -1    0    0  501    0 -0.00000000000E+00 -0.00000000000E+00 -0.83933132886E+02  0.83933132886E+02  0.00000000000E+00 0. -1.
    9000006    2    1    2  501    0  0.00000000000E+00  0.00000000000E+00  0.91606686711E+03  0.10839331329E+04  0.57942431045E+03 0.  0.
         13    1    3    3    0    0  0.24942564402E+03  0.69954601178E+02  0.70069474570E+03  0.74704747156E+03  0.00000000000E+00 0. -1.
          2    1    3    3  501    0 -0.24942564402E+03 -0.69954601178E+02  0.21537212142E+03  0.33688566132E+03  0.00000000000E+00 0. -1.
<mgrwt>
<rscale>  0 0.57942431E+03</rscale>
<asrwt>0</asrwt>
<pdfrwt beam="1">0</pdfrwt>
<pdfrwt beam="2">  1        2 0.30521204E+00 0.57942431E+03</pdfrwt>
<totfact> 0.88445441E+00</totfact>
</mgrwt>
</event>
<event>
 5    1  0.2361924E-004  0.6468073E+03  0.7818608E-02  0.9812789E-01
         13   -1    0    0    0    0  0.00000000000E+00  0.00000000000E+00  0.10000000000E+04  0.10000000000E+04  0.00000000000E+00 0. -1.
          2   -1    0    0  501    0 -0.00000000000E+00 -0.00000000000E+00 -0.10458990794E+03  0.10458990794E+03  0.00000000000E+00 0. -1.
    9000006    2    1    2  501    0  0.00000000000E+00  0.00000000000E+00  0.89541009206E+03  0.11045899079E+04  0.64680726013E+03 0.  0.
         13    1    3    3    0    0 -0.26112132213E+03 -0.13401775572E+03  0.21577169125E+03  0.36428357974E+03  0.00000000000E+00 0. -1.
          2    1    3    3  501    0  0.26112132213E+03  0.13401775572E+03  0.67963840081E+03  0.74030632821E+03  0.00000000000E+00 0. -1.
<mgrwt>
<rscale>  0 0.64680726E+03</rscale>
<asrwt>0</asrwt>
<pdfrwt beam="1">0</pdfrwt>
<pdfrwt beam="2">  1        2 0.38032774E+00 0.64680726E+03</pdfrwt>
<totfact> 0.47150537E+00</totfact>
</mgrwt>
</event>
<event>
 5    1  0.2361924E-004  0.6558449E+03  0.7818608E-02  0.9795873E-01
         13   -1    0    0    0    0  0.00000000000E+00  0.00000000000E+00  0.10000000000E+04  0.10000000000E+04  0.00000000000E+00 0. -1.
          2   -1    0    0  501    0 -0.00000000000E+00 -0.00000000000E+00 -0.10753311688E+03  0.10753311688E+03  0.00000000000E+00 0. -1.
    9000006    2    1    2  501    0  0.00000000000E+00  0.00000000000E+00  0.89246688312E+03  0.11075331169E+04  0.65584485019E+03 0.  0.
         13    1    3    3    0    0 -0.30157368872E+03 -0.11777353675E+03  0.35822867510E+03  0.48285099083E+03  0.00000000000E+00 0. -1.
          2    1    3    3  501    0  0.30157368872E+03  0.11777353675E+03  0.53423820802E+03  0.62468212605E+03  0.00000000000E+00 0. -1.
<mgrwt>
<rscale>  0 0.65584485E+03</rscale>
<asrwt>0</asrwt>
<pdfrwt beam="1">0</pdfrwt>
<pdfrwt beam="2">  1        2 0.39103034E+00 0.65584485E+03</pdfrwt>
<totfact> 0.43004315E+00</totfact>
</mgrwt>
</event>
<event>
 5    1  0.2361924E-004  0.6576005E+03  0.7818608E-02  0.9792621E-01
         13   -1    0    0    0    0  0.00000000000E+00  0.00000000000E+00  0.10000000000E+04  0.10000000000E+04  0.00000000000E+00 0. -1.
          2   -1    0    0  501    0 -0.00000000000E+00 -0.00000000000E+00 -0.10810958921E+03  0.10810958921E+03  0.00000000000E+00 0. -1.
    9000006    2    1    2  501    0  0.00000000000E+00  0.00000000000E+00  0.89189041079E+03  0.11081095892E+04  0.65760045379E+03 0.  0.
         13    1    3    3    0    0 -0.38346213487E+02 -0.24550912022E+03  0.83106952808E+02  0.26201512515E+03  0.00000000000E+00 0. -1.
          4    1    3    3  501    0  0.38346213487E+02  0.24550912022E+03  0.80878345799E+03  0.84609446406E+03  0.00000000000E+00 0. -1.
<mgrwt>
<rscale>  0 0.65760045E+03</rscale>
<asrwt>0</asrwt>
<pdfrwt beam="1">0</pdfrwt>
<pdfrwt beam="2">  1        2 0.39312661E+00 0.65760045E+03</pdfrwt>
<totfact> 0.42231960E+00</totfact>
</mgrwt>
</event>
<event>
 5    1  0.2361924E-004  0.6535603E+03  0.7818608E-02  0.9800121E-01
         13   -1    0    0    0    0  0.00000000000E+00  0.00000000000E+00  0.10000000000E+04  0.10000000000E+04  0.00000000000E+00 0. -1.
          2   -1    0    0  501    0 -0.00000000000E+00 -0.00000000000E+00 -0.10678525205E+03  0.10678525205E+03  0.00000000000E+00 0. -1.
    9000006    2    1    2  501    0  0.00000000000E+00  0.00000000000E+00  0.89321474795E+03  0.11067852521E+04  0.65356025599E+03 0.  0.
         13    1    3    3    0    0  0.49499562698E+02  0.22036154012E+03  0.84655283961E+03  0.87616272765E+03  0.00000000000E+00 0. -1.
          4    1    3    3  501    0 -0.49499562698E+02 -0.22036154012E+03  0.46661908340E+02  0.23062252441E+03  0.00000000000E+00 0. -1.
<mgrwt>
<rscale>  0 0.65356026E+03</rscale>
<asrwt>0</asrwt>
<pdfrwt beam="1">0</pdfrwt>
<pdfrwt beam="2">  1        2 0.38831083E+00 0.65356026E+03</pdfrwt>
<totfact> 0.44025309E+00</totfact>
</mgrwt>
</event>
<event>
 5    1  0.2361924E-004  0.6493056E+03  0.7818608E-02  0.9808083E-01
         13   -1    0    0    0    0  0.00000000000E+00  0.00000000000E+00  0.10000000000E+04  0.10000000000E+04  0.00000000000E+00 0. -1.
          2   -1    0    0  501    0 -0.00000000000E+00 -0.00000000000E+00 -0.10539944660E+03  0.10539944660E+03  0.00000000000E+00 0. -1.
    9000006    2    1    2  501    0  0.00000000000E+00  0.00000000000E+00  0.89460055340E+03  0.11053994466E+04  0.64930561863E+03 0.  0.
         13    1    3    3    0    0  0.58315833948E+02 -0.39127887577E+02 -0.92313901288E+02  0.11598958766E+03  0.00000000000E+00 0. -1.
          4    1    3    3  501    0 -0.58315833948E+02  0.39127887577E+02  0.98691445469E+03  0.98940985893E+03  0.00000000000E+00 0. -1.
<mgrwt>
<rscale>  0 0.64930562E+03</rscale>
<asrwt>0</asrwt>
<pdfrwt beam="1">0</pdfrwt>
<pdfrwt beam="2">  1        2 0.38327152E+00 0.64930562E+03</pdfrwt>
<totfact> 0.45975412E+00</totfact>
</mgrwt>
</event>
<event>
 5    1  0.2361924E-004  0.6550553E+03  0.7818608E-02  0.9797339E-01
         13   -1    0    0    0    0  0.00000000000E+00  0.00000000000E+00  0.10000000000E+04  0.10000000000E+04  0.00000000000E+00 0. -1.
          2   -1    0    0  501    0 -0.00000000000E+00 -0.00000000000E+00 -0.10727435439E+03  0.10727435439E+03  0.00000000000E+00 0. -1.
    9000006    2    1    2  501    0  0.00000000000E+00  0.00000000000E+00  0.89272564561E+03  0.11072743544E+04  0.65505527826E+03 0.  0.
         13    1    3    3    0    0  0.74415574975E+02 -0.16702476834E+03  0.90568919414E+03  0.92396313098E+03  0.00000000000E+00 0. -1.
          2    1    3    3  501    0 -0.74415574975E+02  0.16702476834E+03 -0.12963548534E+02  0.18331122341E+03  0.00000000000E+00 0. -1.
<mgrwt>
<rscale>  0 0.65505528E+03</rscale>
<asrwt>0</asrwt>
<pdfrwt beam="1">0</pdfrwt>
<pdfrwt beam="2">  1        2 0.39008938E+00 0.65505528E+03</pdfrwt>
<totfact> 0.43355133E+00</totfact>
</mgrwt>
</event>
<event>
 5    1  0.2361924E-004  0.6481922E+03  0.7818608E-02  0.9810177E-01
         13   -1    0    0    0    0  0.00000000000E+00  0.00000000000E+00  0.10000000000E+04  0.10000000000E+04  0.00000000000E+00 0. -1.
          2   -1    0    0  501    0 -0.00000000000E+00 -0.00000000000E+00 -0.10503827403E+03  0.10503827403E+03  0.00000000000E+00 0. -1.
    9000006    2    1    2  501    0  0.00000000000E+00  0.00000000000E+00  0.89496172597E+03  0.11050382740E+04  0.64819217531E+03 0.  0.
         13    1    3    3    0    0  0.40175409150E+02  0.17179414814E+03 -0.15995958838E+02  0.17715293826E+03  0.00000000000E+00 0. -1.
          4    1    3    3  501    0 -0.40175409150E+02 -0.17179414814E+03  0.91095768481E+03  0.92788533577E+03  0.00000000000E+00 0. -1.
<mgrwt>
<rscale>  0 0.64819218E+03</rscale>
<asrwt>0</asrwt>
<pdfrwt beam="1">0</pdfrwt>
<pdfrwt beam="2">  1        2 0.38195817E+00 0.64819218E+03</pdfrwt>
<totfact> 0.46496361E+00</totfact>
</mgrwt>
</event>
<event>
 5    1  0.2361924E-004  0.6574170E+03  0.7818608E-02  0.9792960E-01
         13   -1    0    0    0    0  0.00000000000E+00  0.00000000000E+00  0.10000000000E+04  0.10000000000E+04  0.00000000000E+00 0. -1.
          2   -1    0    0  501    0 -0.00000000000E+00 -0.00000000000E+00 -0.10804929201E+03  0.10804929201E+03  0.00000000000E+00 0. -1.
    9000006    2    1    2  501    0  0.00000000000E+00  0.00000000000E+00  0.89195070799E+03  0.11080492920E+04  0.65741704272E+03 0.  0.
         13    1    3    3    0    0  0.32078734670E+03  0.61179073704E+02  0.50908202478E+03  0.60482386594E+03  0.00000000000E+00 0. -1.
          2    1    3    3  501    0 -0.32078734670E+03 -0.61179073704E+02  0.38286868321E+03  0.50322542607E+03  0.00000000000E+00 0. -1.
<mgrwt>
<rscale>  0 0.65741704E+03</rscale>
<asrwt>0</asrwt>
<pdfrwt beam="1">0</pdfrwt>
<pdfrwt beam="2">  1        2 0.39290734E+00 0.65741704E+03</pdfrwt>
<totfact> 0.42312155E+00</totfact>
</mgrwt>
</event>
<event>
 5    1  0.2361924E-004  0.6458898E+03  0.7818608E-02  0.9814522E-01
         13   -1    0    0    0    0  0.00000000000E+00  0.00000000000E+00  0.10000000000E+04  0.10000000000E+04  0.00000000000E+00 0. -1.
          2   -1    0    0  501    0 -0.00000000000E+00 -0.00000000000E+00 -0.10429341311E+03  0.10429341311E+03  0.00000000000E+00 0. -1.
    9000006    2    1    2  501    0  0.00000000000E+00  0.00000000000E+00  0.89570658689E+03  0.11042934131E+04  0.64588981446E+03 0.  0.
         13    1    3    3    0    0 -0.16145518640E+03 -0.20928228471E+03  0.13062430394E+03  0.29483819409E+03  0.00000000000E+00 0. -1.
          4    1    3    3  501    0  0.16145518640E+03  0.20928228471E+03  0.76508228295E+03  0.80945521902E+03  0.00000000000E+00 0. -1.
<mgrwt>
<rscale>  0 0.64588981E+03</rscale>
<asrwt>0</asrwt>
<pdfrwt beam="1">0</pdfrwt>
<pdfrwt beam="2">  1        2 0.37924957E+00 0.64588981E+03</pdfrwt>
<totfact> 0.47587717E+00</totfact>
</mgrwt>
</event>
<event>
 5    1  0.2361924E-004  0.6533748E+03  0.7818608E-02  0.9800467E-01
         13   -1    0    0    0    0  0.00000000000E+00  0.00000000000E+00  0.10000000000E+04  0.10000000000E+04  0.00000000000E+00 0. -1.
          2   -1    0    0  501    0 -0.00000000000E+00 -0.00000000000E+00 -0.10672465642E+03  0.10672465642E+03  0.00000000000E+00 0. -1.
    9000006    2    1    2  501    0  0.00000000000E+00  0.00000000000E+00  0.89327534358E+03  0.11067246564E+04  0.65337479725E+03 0.  0.
         13    1    3    3    0    0  0.97429001501E+01  0.29592880253E+03  0.21281228145E+03  0.36463385389E+03  0.00000000000E+00 0. -1.
          4    1    3    3  501    0 -0.97429001501E+01 -0.29592880253E+03  0.68046306213E+03  0.74209080253E+03  0.00000000000E+00 0. -1.
<mgrwt>
<rscale>  0 0.65337480E+03</rscale>
<asrwt>0</asrwt>
<pdfrwt beam="1">0</pdfrwt>
<pdfrwt beam="2">  1        2 0.38809048E+00 0.65337480E+03</pdfrwt>
<totfact> 0.44108987E+00</totfact>
</mgrwt>
</event>
<event>
 5    1  0.2361924E-004  0.6115588E+03  0.7818608E-02  0.9881711E-01
         13   -1    0    0    0    0  0.00000000000E+00  0.00000000000E+00  0.10000000000E+04  0.10000000000E+04  0.00000000000E+00 0. -1.
          2   -1    0    0  501    0 -0.00000000000E+00 -0.00000000000E+00 -0.93501050131E+02  0.93501050131E+02  0.00000000000E+00 0. -1.
    9000006    2    1    2  501    0  0.00000000000E+00  0.00000000000E+00  0.90649894987E+03  0.10935010501E+04  0.61155882834E+03 0.  0.
         13    1    3    3    0    0  0.17584122901E+03 -0.57015893011E+02  0.88877990650E+03  0.90779990751E+03  0.00000000000E+00 0. -1.
          4    1    3    3  501    0 -0.17584122901E+03  0.57015893011E+02  0.17719043373E+02  0.18570114263E+03  0.00000000000E+00 0. -1.
<mgrwt>
<rscale>  0 0.61155883E+03</rscale>
<asrwt>0</asrwt>
<pdfrwt beam="1">0</pdfrwt>
<pdfrwt beam="2">  1        2 0.34000454E+00 0.61155883E+03</pdfrwt>
<totfact> 0.66284892E+00</totfact>
</mgrwt>
</event>
<event>
 5    1  0.2361924E-004  0.6489500E+03  0.7818608E-02  0.9808751E-01
         13   -1    0    0    0    0  0.00000000000E+00  0.00000000000E+00  0.10000000000E+04  0.10000000000E+04  0.00000000000E+00 0. -1.
          2   -1    0    0  501    0 -0.00000000000E+00 -0.00000000000E+00 -0.10528403453E+03  0.10528403453E+03  0.00000000000E+00 0. -1.
    9000006    2    1    2  501    0  0.00000000000E+00  0.00000000000E+00  0.89471596547E+03  0.11052840345E+04  0.64895002745E+03 0.  0.
         13    1    3    3    0    0 -0.31076520831E+03  0.57536860536E+02  0.32221676355E+03  0.45134149790E+03  0.00000000000E+00 0. -1.
          4    1    3    3  501    0  0.31076520831E+03 -0.57536860536E+02  0.57249920192E+03  0.65394253663E+03  0.00000000000E+00 0. -1.
<mgrwt>
<rscale>  0 0.64895003E+03</rscale>
<asrwt>0</asrwt>
<pdfrwt beam="1">0</pdfrwt>
<pdfrwt beam="2">  1        2 0.38285184E+00 0.64895003E+03</pdfrwt>
<totfact> 0.46141301E+00</totfact>
</mgrwt>
</event>
<event>
 5    1  0.2361924E-004  0.6417993E+03  0.7818608E-02  0.9822290E-01
         13   -1    0    0    0    0  0.00000000000E+00  0.00000000000E+00  0.10000000000E+04  0.10000000000E+04  0.00000000000E+00 0. -1.
          2   -1    0    0  501    0 -0.00000000000E+00 -0.00000000000E+00 -0.10297660062E+03  0.10297660062E+03  0.00000000000E+00 0. -1.
    9000006    2    1    2  501    0  0.00000000000E+00  0.00000000000E+00  0.89702339938E+03  0.11029766006E+04  0.64179934752E+03 0.  0.
         13    1    3    3    0    0 -0.28524914550E+03 -0.14307939353E+03  0.39054181624E+03  0.50434283785E+03  0.00000000000E+00 0. -1.
          4    1    3    3  501    0  0.28524914550E+03  0.14307939353E+03  0.50648158314E+03  0.59863376277E+03  0.00000000000E+00 0. -1.
<mgrwt>
<rscale>  0 0.64179935E+03</rscale>
<asrwt>0</asrwt>
<pdfrwt beam="1">0</pdfrwt>
<pdfrwt beam="2">  1        2 0.37446116E+00 0.64179935E+03</pdfrwt>
<totfact> 0.49574385E+00</totfact>
</mgrwt>
</event>
<event>
 5    1  0.2361924E-004  0.6294932E+03  0.7818608E-02  0.9846038E-01
         13   -1    0    0    0    0  0.00000000000E+00  0.00000000000E+00  0.10000000000E+04  0.10000000000E+04  0.00000000000E+00 0. -1.
          2   -1    0    0  501    0 -0.00000000000E+00 -0.00000000000E+00 -0.99065416217E+02  0.99065416217E+02  0.00000000000E+00 0. -1.
    9000006    2    1    2  501    0  0.00000000000E+00  0.00000000000E+00  0.90093458378E+03  0.10990654162E+04  0.62949318095E+03 0.  0.
         13    1    3    3    0    0  0.10900324735E+03 -0.14575270081E+03  0.21282929311E+01  0.18201672274E+03  0.00000000000E+00 0. -1.
          2    1    3    3  501    0 -0.10900324735E+03  0.14575270081E+03  0.89880629085E+03  0.91704869347E+03  0.00000000000E+00 0. -1.
<mgrwt>
<rscale>  0 0.62949318E+03</rscale>
<asrwt>0</asrwt>
<pdfrwt beam="1">0</pdfrwt>
<pdfrwt beam="2">  1        2 0.36023864E+00 0.62949318E+03</pdfrwt>
<totfact> 0.55932096E+00</totfact>
</mgrwt>
</event>
<event>
 5    1  0.2361924E-004  0.6521287E+03  0.7818608E-02  0.9802793E-01
         13   -1    0    0    0    0  0.00000000000E+00  0.00000000000E+00  0.10000000000E+04  0.10000000000E+04  0.00000000000E+00 0. -1.
          2   -1    0    0  501    0 -0.00000000000E+00 -0.00000000000E+00 -0.10631796200E+03  0.10631796200E+03  0.00000000000E+00 0. -1.
    9000006    2    1    2  501    0  0.00000000000E+00  0.00000000000E+00  0.89368203800E+03  0.11063179620E+04  0.65212870510E+03 0.  0.
         13    1    3    3    0    0  0.38462732887E+02  0.24339830192E+03  0.84590272351E+02  0.26053335559E+03  0.00000000000E+00 0. -1.
          2    1    3    3  501    0 -0.38462732887E+02 -0.24339830192E+03  0.80909176565E+03  0.84578460641E+03  0.00000000000E+00 0. -1.
<mgrwt>
<rscale>  0 0.65212871E+03</rscale>
<asrwt>0</asrwt>
<pdfrwt beam="1">0</pdfrwt>
<pdfrwt beam="2">  1        2 0.38661159E+00 0.65212871E+03</pdfrwt>
<totfact> 0.44674337E+00</totfact>
</mgrwt>
</event>
<event>
 5    1  0.2361924E-004  0.6636631E+03  0.7818608E-02  0.9781474E-01
         13   -1    0    0    0    0  0.00000000000E+00  0.00000000000E+00  0.10000000000E+04  0.10000000000E+04  0.00000000000E+00 0. -1.
          2   -1    0    0  501    0 -0.00000000000E+00 -0.00000000000E+00 -0.11011216418E+03  0.11011216418E+03  0.00000000000E+00 0. -1.
    9000006    2    1    2  501    0  0.00000000000E+00  0.00000000000E+00  0.88988783582E+03  0.11101121642E+04  0.66366305964E+03 0.  0.
         13    1    3    3    0    0  0.29865894992E+03 -0.14461731973E+03  0.44646474418E+03  0.55627520647E+03  0.00000000000E+00 0. -1.
          4    1    3    3  501    0 -0.29865894992E+03  0.14461731973E+03  0.44342309164E+03  0.55383695771E+03  0.00000000000E+00 0. -1.
<mgrwt>
<rscale>  0 0.66366306E+03</rscale>
<asrwt>0</asrwt>
<pdfrwt beam="1">0</pdfrwt>
<pdfrwt beam="2">  1        2 0.40040871E+00 0.66366306E+03</pdfrwt>
<totfact> 0.39645253E+00</totfact>
</mgrwt>
</event>
<event>
 5    1  0.2361924E-004  0.6533015E+03  0.7818608E-02  0.9800604E-01
         13   -1    0    0    0    0  0.00000000000E+00  0.00000000000E+00  0.10000000000E+04  0.10000000000E+04  0.00000000000E+00 0. -1.
          2   -1    0    0  501    0 -0.00000000000E+00 -0.00000000000E+00 -0.10670069816E+03  0.10670069816E+03  0.00000000000E+00 0. -1.
    9000006    2    1    2  501    0  0.00000000000E+00  0.00000000000E+00  0.89329930184E+03  0.11067006982E+04  0.65330145618E+03 0.  0.
         13    1    3    3    0    0 -0.11832412207E+02  0.30330726766E+03  0.24220409732E+03  0.38832734819E+03  0.00000000000E+00 0. -1.
          4    1    3    3  501    0  0.11832412207E+02 -0.30330726766E+03  0.65109520452E+03  0.71837334997E+03  0.00000000000E+00 0. -1.
<mgrwt>
<rscale>  0 0.65330146E+03</rscale>
<asrwt>0</asrwt>
<pdfrwt beam="1">0</pdfrwt>
<pdfrwt beam="2">  1        2 0.38800336E+00 0.65330146E+03</pdfrwt>
<totfact> 0.44142111E+00</totfact>
</mgrwt>
</event>
<event>
 5    1  0.2361924E-004  0.6397794E+03  0.7818608E-02  0.9826149E-01
         13   -1    0    0    0    0  0.00000000000E+00  0.00000000000E+00  0.10000000000E+04  0.10000000000E+04  0.00000000000E+00 0. -1.
          2   -1    0    0  501    0 -0.00000000000E+00 -0.00000000000E+00 -0.10232943464E+03  0.10232943464E+03  0.00000000000E+00 0. -1.
    9000006    2    1    2  501    0  0.00000000000E+00  0.00000000000E+00  0.89767056536E+03  0.11023294346E+04  0.63977944525E+03 0.  0.
         13    1    3    3    0    0  0.31327892630E+03  0.54942487361E+02  0.50769659723E+03  0.59909781958E+03  0.00000000000E+00 0. -1.
          2    1    3    3  501    0 -0.31327892630E+03 -0.54942487361E+02  0.38997396813E+03  0.50323161506E+03  0.00000000000E+00 0. -1.
<mgrwt>
<rscale>  0 0.63977945E+03</rscale>
<asrwt>0</asrwt>
<pdfrwt beam="1">0</pdfrwt>
<pdfrwt beam="2">  1        2 0.37210782E+00 0.63977945E+03</pdfrwt>
<totfact> 0.50578332E+00</totfact>
</mgrwt>
</event>
<event>
 5    1  0.2361924E-004  0.6667452E+03  0.7818608E-02  0.9775856E-01
         13   -1    0    0    0    0  0.00000000000E+00  0.00000000000E+00  0.10000000000E+04  0.10000000000E+04  0.00000000000E+00 0. -1.
          2   -1    0    0  501    0 -0.00000000000E+00 -0.00000000000E+00 -0.11113728518E+03  0.11113728518E+03  0.00000000000E+00 0. -1.
    9000006    2    1    2  501    0  0.00000000000E+00  0.00000000000E+00  0.88886271482E+03  0.11111372852E+04  0.66674518424E+03 0.  0.
         13    1    3    3    0    0  0.16698852939E+03  0.28551460635E+03  0.51381753878E+03  0.61107464564E+03  0.00000000000E+00 0. -1.
          2    1    3    3  501    0 -0.16698852939E+03 -0.28551460635E+03  0.37504517605E+03  0.50006263954E+03  0.00000000000E+00 0. -1.
<mgrwt>
<rscale>  0 0.66674518E+03</rscale>
<asrwt>0</asrwt>
<pdfrwt beam="1">0</pdfrwt>
<pdfrwt beam="2">  1        2 0.40413643E+00 0.66674518E+03</pdfrwt>
<totfact> 0.38377004E+00</totfact>
</mgrwt>
</event>
<event>
 5    1  0.2361924E-004  0.6525238E+03  0.7818608E-02  0.9802055E-01
         13   -1    0    0    0    0  0.00000000000E+00  0.00000000000E+00  0.10000000000E+04  0.10000000000E+04  0.00000000000E+00 0. -1.
          2   -1    0    0  501    0 -0.00000000000E+00 -0.00000000000E+00 -0.10644684025E+03  0.10644684025E+03  0.00000000000E+00 0. -1.
    9000006    2    1    2  501    0  0.00000000000E+00  0.00000000000E+00  0.89355315975E+03  0.11064468402E+04  0.65252383941E+03 0.  0.
         13    1    3    3    0    0 -0.20281692749E+03 -0.24977849068E+03  0.35510458683E+03  0.47919022118E+03  0.00000000000E+00 0. -1.
          4    1    3    3  501    0  0.20281692749E+03  0.24977849068E+03  0.53844857292E+03  0.62725661907E+03  0.00000000000E+00 0. -1.
<mgrwt>
<rscale>  0 0.65252384E+03</rscale>
<asrwt>0</asrwt>
<pdfrwt beam="1">0</pdfrwt>
<pdfrwt beam="2">  1        2 0.38708024E+00 0.65252384E+03</pdfrwt>
<totfact> 0.44494476E+00</totfact>
</mgrwt>
</event>
<event>
 5    1  0.2361924E-004  0.6535966E+03  0.7818608E-02  0.9800054E-01
         13   -1    0    0    0    0  0.00000000000E+00  0.00000000000E+00  0.10000000000E+04  0.10000000000E+04  0.00000000000E+00 0. -1.
          4   -1    0    0  501    0 -0.00000000000E+00 -0.00000000000E+00 -0.10679713854E+03  0.10679713854E+03  0.00000000000E+00 0. -1.
    9000006    2    1    2  501    0  0.00000000000E+00  0.00000000000E+00  0.89320286146E+03  0.11067971385E+04  0.65359662956E+03 0.  0.
         13    1    3    3    0    0 -0.13300272776E+03  0.18665586142E+03  0.84108247558E+03  0.87175103494E+03  0.00000000000E+00 0. -1.
          2    1    3    3  501    0  0.13300272776E+03 -0.18665586142E+03  0.52120385878E+02  0.23504610360E+03  0.00000000000E+00 0. -1.
<mgrwt>
<rscale>  0 0.65359663E+03</rscale>
<asrwt>0</asrwt>
<pdfrwt beam="1">0</pdfrwt>
<pdfrwt beam="2">  1        4 0.38835405E+00 0.65359663E+03</pdfrwt>
<totfact> 0.38521560E-02</totfact>
</mgrwt>
</event>
<event>
 5    1  0.2361924E-004  0.6497825E+03  0.7818608E-02  0.9807187E-01
         13   -1    0    0    0    0  0.00000000000E+00  0.00000000000E+00  0.10000000000E+04  0.10000000000E+04  0.00000000000E+00 0. -1.
          2   -1    0    0  501    0 -0.00000000000E+00 -0.00000000000E+00 -0.10555432081E+03  0.10555432081E+03  0.00000000000E+00 0. -1.
    9000006    2    1    2  501    0  0.00000000000E+00  0.00000000000E+00  0.89444567919E+03  0.11055543208E+04  0.64978248916E+03 0.  0.
         13    1    3    3    0    0 -0.14932977895E+03  0.28817466800E+03  0.42254936450E+03  0.53281515331E+03  0.00000000000E+00 0. -1.
          4    1    3    3  501    0  0.14932977895E+03 -0.28817466800E+03  0.47189631469E+03  0.57273916749E+03  0.00000000000E+00 0. -1.
<mgrwt>
<rscale>  0 0.64978249E+03</rscale>
<asrwt>0</asrwt>
<pdfrwt beam="1">0</pdfrwt>
<pdfrwt beam="2">  1        2 0.38383470E+00 0.64978249E+03</pdfrwt>
<totfact> 0.45753653E+00</totfact>
</mgrwt>
</event>
<event>
 5    1  0.2361924E-004  0.6516864E+03  0.7818608E-02  0.9803620E-01
         13   -1    0    0    0    0  0.00000000000E+00  0.00000000000E+00  0.10000000000E+04  0.10000000000E+04  0.00000000000E+00 0. -1.
          2   -1    0    0  501    0 -0.00000000000E+00 -0.00000000000E+00 -0.10617380338E+03  0.10617380338E+03  0.00000000000E+00 0. -1.
    9000006    2    1    2  501    0  0.00000000000E+00  0.00000000000E+00  0.89382619662E+03  0.11061738034E+04  0.65168643803E+03 0.  0.
         13    1    3    3    0    0  0.12354931849E+03  0.22251911576E+03  0.79226082079E+03  0.83213965123E+03  0.00000000000E+00 0. -1.
          4    1    3    3  501    0 -0.12354931849E+03 -0.22251911576E+03  0.10156537583E+03  0.27403415215E+03  0.00000000000E+00 0. -1.
<mgrwt>
<rscale>  0 0.65168644E+03</rscale>
<asrwt>0</asrwt>
<pdfrwt beam="1">0</pdfrwt>
<pdfrwt beam="2">  1        2 0.38608737E+00 0.65168644E+03</pdfrwt>
<totfact> 0.44876304E+00</totfact>
</mgrwt>
</event>
<event>
 5    1  0.2361924E-004  0.6870373E+03  0.7818608E-02  0.9739660E-01
         13   -1    0    0    0    0  0.00000000000E+00  0.00000000000E+00  0.10000000000E+04  0.10000000000E+04  0.00000000000E+00 0. -1.
          2   -1    0    0  501    0 -0.00000000000E+00 -0.00000000000E+00 -0.11800507362E+03  0.11800507362E+03  0.00000000000E+00 0. -1.
    9000006    2    1    2  501    0  0.00000000000E+00  0.00000000000E+00  0.88199492638E+03  0.11180050736E+04  0.68703733121E+03 0.  0.
         13    1    3    3    0    0  0.33777628722E+03 -0.57829406911E+02  0.47978057190E+03  0.58959855638E+03  0.00000000000E+00 0. -1.
          2    1    3    3  501    0 -0.33777628722E+03  0.57829406911E+02  0.40221435448E+03  0.52840651724E+03  0.00000000000E+00 0. -1.
<mgrwt>
<rscale>  0 0.68703733E+03</rscale>
<asrwt>0</asrwt>
<pdfrwt beam="1">0</pdfrwt>
<pdfrwt beam="2">  1        2 0.42911026E+00 0.68703733E+03</pdfrwt>
<totfact> 0.30773404E+00</totfact>
</mgrwt>
</event>
<event>
 5    1  0.2361924E-004  0.6521145E+03  0.7818608E-02  0.9802820E-01
         13   -1    0    0    0    0  0.00000000000E+00  0.00000000000E+00  0.10000000000E+04  0.10000000000E+04  0.00000000000E+00 0. -1.
          2   -1    0    0  501    0 -0.00000000000E+00 -0.00000000000E+00 -0.10631331705E+03  0.10631331705E+03  0.00000000000E+00 0. -1.
    9000006    2    1    2  501    0  0.00000000000E+00  0.00000000000E+00  0.89368668295E+03  0.11063133170E+04  0.65211445943E+03 0.  0.
         13    1    3    3    0    0 -0.37586675198E+02  0.58529415788E+02 -0.93579322859E+02  0.11659991566E+03  0.00000000000E+00 0. -1.
          4    1    3    3  501    0  0.37586675198E+02 -0.58529415788E+02  0.98726600581E+03  0.98971340139E+03  0.00000000000E+00 0. -1.
<mgrwt>
<rscale>  0 0.65211446E+03</rscale>
<asrwt>0</asrwt>
<pdfrwt beam="1">0</pdfrwt>
<pdfrwt beam="2">  1        2 0.38659470E+00 0.65211446E+03</pdfrwt>
<totfact> 0.44680832E+00</totfact>
</mgrwt>
</event>
<event>
 5    1  0.2361924E-004  0.4980228E+03  0.7818608E-02  0.1014296E+00
         13   -1    0    0    0    0  0.00000000000E+00  0.00000000000E+00  0.10000000000E+04  0.10000000000E+04  0.00000000000E+00 0. -1.
          2   -1    0    0  501    0 -0.00000000000E+00 -0.00000000000E+00 -0.62006681040E+02  0.62006681040E+02  0.00000000000E+00 0. -1.
    9000006    2    1    2  501    0  0.00000000000E+00  0.00000000000E+00  0.93799331896E+03  0.10620066810E+04  0.49802281490E+03 0.  0.
         13    1    3    3    0    0  0.14094995759E+03 -0.94339610858E+02  0.85777977551E+03  0.87438721170E+03  0.00000000000E+00 0. -1.
          4    1    3    3  501    0 -0.14094995759E+03  0.94339610858E+02  0.80213543453E+02  0.18761946934E+03  0.00000000000E+00 0. -1.
<mgrwt>
<rscale>  0 0.49802281E+03</rscale>
<asrwt>0</asrwt>
<pdfrwt beam="1">0</pdfrwt>
<pdfrwt beam="2">  1        2 0.22547932E+00 0.49802281E+03</pdfrwt>
<totfact> 0.17100998E+01</totfact>
</mgrwt>
</event>
<event>
 5    1  0.2361924E-004  0.6566841E+03  0.7818608E-02  0.9794317E-01
         13   -1    0    0    0    0  0.00000000000E+00  0.00000000000E+00  0.10000000000E+04  0.10000000000E+04  0.00000000000E+00 0. -1.
          2   -1    0    0  501    0 -0.00000000000E+00 -0.00000000000E+00 -0.10780849257E+03  0.10780849257E+03  0.00000000000E+00 0. -1.
    9000006    2    1    2  501    0  0.00000000000E+00  0.00000000000E+00  0.89219150743E+03  0.11078084926E+04  0.65668407188E+03 0.  0.
         13    1    3    3    0    0 -0.22623345117E+03  0.55180729456E+02  0.83659274222E+03  0.86839731901E+03  0.00000000000E+00 0. -1.
          2    1    3    3  501    0  0.22623345117E+03 -0.55180729456E+02  0.55598765218E+02  0.23941117356E+03  0.00000000000E+00 0. -1.
<mgrwt>
<rscale>  0 0.65668407E+03</rscale>
<asrwt>0</asrwt>
<pdfrwt beam="1">0</pdfrwt>
<pdfrwt beam="2">  1        2 0.39203171E+00 0.65668407E+03</pdfrwt>
<totfact> 0.42633792E+00</totfact>
</mgrwt>
</event>
<event>
 5    1  0.2361924E-004  0.6540533E+03  0.7818608E-02  0.9799203E-01
         13   -1    0    0    0    0  0.00000000000E+00  0.00000000000E+00  0.10000000000E+04  0.10000000000E+04  0.00000000000E+00 0. -1.
          2   -1    0    0  501    0 -0.00000000000E+00 -0.00000000000E+00 -0.10694643925E+03  0.10694643925E+03  0.00000000000E+00 0. -1.
    9000006    2    1    2  501    0  0.00000000000E+00  0.00000000000E+00  0.89305356075E+03  0.11069464393E+04  0.65405332888E+03 0.  0.
         13    1    3    3    0    0 -0.20070170224E+03  0.10377638900E+03  0.46395271326E+02  0.23065826106E+03  0.00000000000E+00 0. -1.
          4    1    3    3  501    0  0.20070170224E+03 -0.10377638900E+03  0.84665828942E+03  0.87628817819E+03  0.00000000000E+00 0. -1.
<mgrwt>
<rscale>  0 0.65405333E+03</rscale>
<asrwt>0</asrwt>
<pdfrwt beam="1">0</pdfrwt>
<pdfrwt beam="2">  1        2 0.38889696E+00 0.65405333E+03</pdfrwt>
<totfact> 0.43803420E+00</totfact>
</mgrwt>
</event>
<event>
 5    1  0.2361924E-004  0.6651448E+03  0.7818608E-02  0.9778769E-01
         13   -1    0    0    0    0  0.00000000000E+00  0.00000000000E+00  0.10000000000E+04  0.10000000000E+04  0.00000000000E+00 0. -1.
          2   -1    0    0  501    0 -0.00000000000E+00 -0.00000000000E+00 -0.11060441507E+03  0.11060441507E+03  0.00000000000E+00 0. -1.
    9000006    2    1    2  501    0  0.00000000000E+00  0.00000000000E+00  0.88939558493E+03  0.11106044151E+04  0.66514484158E+03 0.  0.
         13    1    3    3    0    0 -0.14485829211E+03 -0.29601817907E+03  0.37014290560E+03  0.49559707192E+03  0.00000000000E+00 0. -1.
          4    1    3    3  501    0  0.14485829211E+03  0.29601817907E+03  0.51925267933E+03  0.61500734315E+03  0.00000000000E+00 0. -1.
<mgrwt>
<rscale>  0 0.66514484E+03</rscale>
<asrwt>0</asrwt>
<pdfrwt beam="1">0</pdfrwt>
<pdfrwt beam="2">  1        2 0.40219872E+00 0.66514484E+03</pdfrwt>
<totfact> 0.39031640E+00</totfact>
</mgrwt>
</event>
<event>
 5    1  0.2361924E-004  0.6411256E+03  0.7818608E-02  0.9823575E-01
         13   -1    0    0    0    0  0.00000000000E+00  0.00000000000E+00  0.10000000000E+04  0.10000000000E+04  0.00000000000E+00 0. -1.
          2   -1    0    0  501    0 -0.00000000000E+00 -0.00000000000E+00 -0.10276051413E+03  0.10276051413E+03  0.00000000000E+00 0. -1.
    9000006    2    1    2  501    0  0.00000000000E+00  0.00000000000E+00  0.89723948587E+03  0.11027605141E+04  0.64112561679E+03 0.  0.
         13    1    3    3    0    0 -0.27353502833E+03 -0.13908038455E+03  0.28914939533E+03  0.42163033324E+03  0.00000000000E+00 0. -1.
          2    1    3    3  501    0  0.27353502833E+03  0.13908038455E+03  0.60809009054E+03  0.68113018088E+03  0.00000000000E+00 0. -1.
<mgrwt>
<rscale>  0 0.64112562E+03</rscale>
<asrwt>0</asrwt>
<pdfrwt beam="1">0</pdfrwt>
<pdfrwt beam="2">  1        2 0.37367538E+00 0.64112562E+03</pdfrwt>
<totfact> 0.49907554E+00</totfact>
</mgrwt>
</event>
<event>
 5    1  0.2361924E-004  0.6587069E+03  0.7818608E-02  0.9790577E-01
         13   -1    0    0    0    0  0.00000000000E+00  0.00000000000E+00  0.10000000000E+04  0.10000000000E+04  0.00000000000E+00 0. -1.
          2   -1    0    0  501    0 -0.00000000000E+00 -0.00000000000E+00 -0.10847371098E+03  0.10847371098E+03  0.00000000000E+00 0. -1.
    9000006    2    1    2  501    0  0.00000000000E+00  0.00000000000E+00  0.89152628902E+03  0.11084737110E+04  0.65870694842E+03 0.  0.
         13    1    3    3    0    0  0.16966022643E+03 -0.20364574576E+03  0.11678696431E+03  0.28964698726E+03  0.00000000000E+00 0. -1.
          4    1    3    3  501    0 -0.16966022643E+03  0.20364574576E+03  0.77473932472E+03  0.81882672371E+03  0.00000000000E+00 0. -1.
<mgrwt>
<rscale>  0 0.65870695E+03</rscale>
<asrwt>0</asrwt>
<pdfrwt beam="1">0</pdfrwt>
<pdfrwt beam="2">  1        2 0.39445069E+00 0.65870695E+03</pdfrwt>
<totfact> 0.41750601E+00</totfact>
</mgrwt>
</event>
<event>
 5    1  0.2361924E-004  0.6669973E+03  0.7818608E-02  0.9775398E-01
         13   -1    0    0    0    0  0.00000000000E+00  0.00000000000E+00  0.10000000000E+04  0.10000000000E+04  0.00000000000E+00 0. -1.
          2   -1    0    0  501    0 -0.00000000000E+00 -0.00000000000E+00 -0.11122134689E+03  0.11122134689E+03  0.00000000000E+00 0. -1.
    9000006    2    1    2  501    0  0.00000000000E+00  0.00000000000E+00  0.88877865311E+03  0.11112213469E+04  0.66699729203E+03 0.  0.
         13    1    3    3    0    0  0.31302442061E+03  0.48439163219E+02  0.27052738256E+03  0.41655216378E+03  0.00000000000E+00 0. -1.
          2    1    3    3  501    0 -0.31302442061E+03 -0.48439163219E+02  0.61825127054E+03  0.69466918311E+03  0.00000000000E+00 0. -1.
<mgrwt>
<rscale>  0 0.66699729E+03</rscale>
<asrwt>0</asrwt>
<pdfrwt beam="1">0</pdfrwt>
<pdfrwt beam="2">  1        2 0.40444211E+00 0.66699729E+03</pdfrwt>
<totfact> 0.38274637E+00</totfact>
</mgrwt>
</event>
<event>
 5    1  0.2361924E-004  0.6435132E+03  0.7818608E-02  0.9819028E-01
         13   -1    0    0    0    0  0.00000000000E+00  0.00000000000E+00  0.10000000000E+04  0.10000000000E+04  0.00000000000E+00 0. -1.
          2   -1    0    0  501    0 -0.00000000000E+00 -0.00000000000E+00 -0.10352730683E+03  0.10352730683E+03  0.00000000000E+00 0. -1.
    9000006    2    1    2  501    0  0.00000000000E+00  0.00000000000E+00  0.89647269317E+03  0.11035273068E+04  0.64351319127E+03 0.  0.
         13    1    3    3    0    0 -0.18719433111E+03 -0.21209700208E+03  0.71112008875E+03  0.76532257024E+03  0.00000000000E+00 0. -1.
          2    1    3    3  501    0  0.18719433111E+03  0.21209700208E+03  0.18535260442E+03  0.33820473659E+03  0.00000000000E+00 0. -1.
<mgrwt>
<rscale>  0 0.64351319E+03</rscale>
<asrwt>0</asrwt>
<pdfrwt beam="1">0</pdfrwt>
<pdfrwt beam="2">  1        2 0.37646373E+00 0.64351319E+03</pdfrwt>
<totfact> 0.48734488E+00</totfact>
</mgrwt>
</event>
<event>
 5    1  0.2361924E-004  0.6263727E+03  0.7818608E-02  0.9852153E-01
         13   -1    0    0    0    0  0.00000000000E+00  0.00000000000E+00  0.10000000000E+04  0.10000000000E+04  0.00000000000E+00 0. -1.
          2   -1    0    0  501    0 -0.00000000000E+00 -0.00000000000E+00 -0.98085677783E+02  0.98085677783E+02  0.00000000000E+00 0. -1.
    9000006    2    1    2  501    0  0.00000000000E+00  0.00000000000E+00  0.90191432222E+03  0.10980856778E+04  0.62637266155E+03 0.  0.
         13    1    3    3    0    0 -0.26822020722E+02 -0.30067603725E+03  0.59721312819E+03  0.66917039732E+03  0.00000000000E+00 0. -1.
          2    1    3    3  501    0  0.26822020722E+02  0.30067603725E+03  0.30470119403E+03  0.42891528046E+03  0.00000000000E+00 0. -1.
<mgrwt>
<rscale>  0 0.62637266E+03</rscale>
<asrwt>0</asrwt>
<pdfrwt beam="1">0</pdfrwt>
<pdfrwt beam="2">  1        2 0.35667594E+00 0.62637266E+03</pdfrwt>
<totfact> 0.57638197E+00</totfact>
</mgrwt>
</event>
<event>
 5    1  0.2361924E-004  0.6516193E+03  0.7818608E-02  0.9803745E-01
         13   -1    0    0    0    0  0.00000000000E+00  0.00000000000E+00  0.10000000000E+04  0.10000000000E+04  0.00000000000E+00 0. -1.
          2   -1    0    0  501    0 -0.00000000000E+00 -0.00000000000E+00 -0.10615192942E+03  0.10615192942E+03  0.00000000000E+00 0. -1.
    9000006    2    1    2  501    0  0.00000000000E+00  0.00000000000E+00  0.89384807058E+03  0.11061519294E+04  0.65161930425E+03 0.  0.
         13    1    3    3    0    0 -0.26943797854E+03  0.17774432063E+03  0.37173107885E+03  0.49231480049E+03  0.00000000000E+00 0. -1.
          4    1    3    3  501    0  0.26943797854E+03 -0.17774432063E+03  0.52211699173E+03  0.61383712893E+03  0.00000000000E+00 0. -1.
<mgrwt>
<rscale>  0 0.65161930E+03</rscale>
<asrwt>0</asrwt>
<pdfrwt beam="1">0</pdfrwt>
<pdfrwt beam="2">  1        2 0.38600783E+00 0.65161930E+03</pdfrwt>
<totfact> 0.44907021E+00</totfact>
</mgrwt>
</event>
<event>
 5    1  0.2361924E-004  0.6474704E+03  0.7818608E-02  0.9811537E-01
         13   -1    0    0    0    0  0.00000000000E+00  0.00000000000E+00  0.10000000000E+04  0.10000000000E+04  0.00000000000E+00 0. -1.
          2   -1    0    0  501    0 -0.00000000000E+00 -0.00000000000E+00 -0.10480449427E+03  0.10480449427E+03  0.00000000000E+00 0. -1.
    9000006    2    1    2  501    0  0.00000000000E+00  0.00000000000E+00  0.89519550573E+03  0.11048044943E+04  0.64747044494E+03 0.  0.
         13    1    3    3    0    0 -0.27856714496E+03  0.13152334013E+03  0.61743171109E+03  0.69001446441E+03  0.00000000000E+00 0. -1.
          4    1    3    3  501    0  0.27856714496E+03 -0.13152334013E+03  0.27776379465E+03  0.41479002985E+03  0.00000000000E+00 0. -1.
<mgrwt>
<rscale>  0 0.64747044E+03</rscale>
<asrwt>0</asrwt>
<pdfrwt beam="1">0</pdfrwt>
<pdfrwt beam="2">  1        2 0.38110806E+00 0.64747044E+03</pdfrwt>
<totfact> 0.46836414E+00</totfact>
</mgrwt>
</event>
<event>
 5    1  0.2361924E-004  0.6510099E+03  0.7818608E-02  0.9804886E-01
         13   -1    0    0    0    0  0.00000000000E+00  0.00000000000E+00  0.10000000000E+04  0.10000000000E+04  0.00000000000E+00 0. -1.
          2   -1    0    0  501    0 -0.00000000000E+00 -0.00000000000E+00 -0.10595348004E+03  0.10595348004E+03  0.00000000000E+00 0. -1.
    9000006    2    1    2  501    0  0.00000000000E+00  0.00000000000E+00  0.89404651996E+03  0.11059534800E+04  0.65100992324E+03 0.  0.
         13    1    3    3    0    0  0.13018937659E+03 -0.27935146166E+03  0.26911647071E+03  0.40915790071E+03  0.00000000000E+00 0. -1.
          2    1    3    3  501    0 -0.13018937659E+03  0.27935146166E+03  0.62493004925E+03  0.69679557933E+03  0.00000000000E+00 0. -1.
<mgrwt>
<rscale>  0 0.65100992E+03</rscale>
<asrwt>0</asrwt>
<pdfrwt beam="1">0</pdfrwt>
<pdfrwt beam="2">  1        2 0.38528619E+00 0.65100992E+03</pdfrwt>
<totfact> 0.45186576E+00</totfact>
</mgrwt>
</event>
<event>
 5    1  0.2361924E-004  0.6512302E+03  0.7818608E-02  0.9804474E-01
         13   -1    0    0    0    0  0.00000000000E+00  0.00000000000E+00  0.10000000000E+04  0.10000000000E+04  0.00000000000E+00 0. -1.
          2   -1    0    0  501    0 -0.00000000000E+00 -0.00000000000E+00 -0.10602519244E+03  0.10602519244E+03  0.00000000000E+00 0. -1.
    9000006    2    1    2  501    0  0.00000000000E+00  0.00000000000E+00  0.89397480756E+03  0.11060251924E+04  0.65123019720E+03 0.  0.
         13    1    3    3    0    0  0.10325650800E+03  0.30295788206E+03  0.54860299236E+03  0.63514614694E+03  0.00000000000E+00 0. -1.
          4    1    3    3  501    0 -0.10325650800E+03 -0.30295788206E+03  0.34537181520E+03  0.47087904549E+03  0.00000000000E+00 0. -1.
<mgrwt>
<rscale>  0 0.65123020E+03</rscale>
<asrwt>0</asrwt>
<pdfrwt beam="1">0</pdfrwt>
<pdfrwt beam="2">  1        2 0.38554697E+00 0.65123020E+03</pdfrwt>
<totfact> 0.45085373E+00</totfact>
</mgrwt>
</event>
<event>
 5    1  0.2361924E-004  0.6486606E+03  0.7818608E-02  0.9809296E-01
         13   -1    0    0    0    0  0.00000000000E+00  0.00000000000E+00  0.10000000000E+04  0.10000000000E+04  0.00000000000E+00 0. -1.
          2   -1    0    0  501    0 -0.00000000000E+00 -0.00000000000E+00 -0.10519014595E+03  0.10519014595E+03  0.00000000000E+00 0. -1.
    9000006    2    1    2  501    0  0.00000000000E+00  0.00000000000E+00  0.89480985405E+03  0.11051901460E+04  0.64866060756E+03 0.  0.
         13    1    3    3    0    0  0.17053352591E+03  0.27476709240E+03  0.48953772957E+03  0.58670761645E+03  0.00000000000E+00 0. -1.
          4    1    3    3  501    0 -0.17053352591E+03 -0.27476709240E+03  0.40527212447E+03  0.51848252950E+03  0.00000000000E+00 0. -1.
<mgrwt>
<rscale>  0 0.64866061E+03</rscale>
<asrwt>0</asrwt>
<pdfrwt beam="1">0</pdfrwt>
<pdfrwt beam="2">  1        2 0.38251043E+00 0.64866061E+03</pdfrwt>
<totfact> 0.46276654E+00</totfact>
</mgrwt>
</event>
<event>
 5    1  0.2361924E-004  0.6317199E+03  0.7818608E-02  0.9841698E-01
         13   -1    0    0    0    0  0.00000000000E+00  0.00000000000E+00  0.10000000000E+04  0.10000000000E+04  0.00000000000E+00 0. -1.
          2   -1    0    0  501    0 -0.00000000000E+00 -0.00000000000E+00 -0.99767503799E+02  0.99767503799E+02  0.00000000000E+00 0. -1.
    9000006    2    1    2  501    0  0.00000000000E+00  0.00000000000E+00  0.90023249620E+03  0.10997675038E+04  0.63171988666E+03 0.  0.
         13    1    3    3    0    0  0.47217887541E+02  0.28584557497E+03  0.66915485168E+03  0.72918134724E+03  0.00000000000E+00 0. -1.
          2    1    3    3  501    0 -0.47217887541E+02 -0.28584557497E+03  0.23107764452E+03  0.37058615656E+03  0.00000000000E+00 0. -1.
<mgrwt>
<rscale>  0 0.63171989E+03</rscale>
<asrwt>0</asrwt>
<pdfrwt beam="1">0</pdfrwt>
<pdfrwt beam="2">  1        2 0.36279169E+00 0.63171989E+03</pdfrwt>
<totfact> 0.54738339E+00</totfact>
</mgrwt>
</event>
<event>
 5    1  0.2361924E-004  0.6496494E+03  0.7818608E-02  0.9807437E-01
         13   -1    0    0    0    0  0.00000000000E+00  0.00000000000E+00  0.10000000000E+04  0.10000000000E+04  0.00000000000E+00 0. -1.
          2   -1    0    0  501    0 -0.00000000000E+00 -0.00000000000E+00 -0.10551110116E+03  0.10551110116E+03  0.00000000000E+00 0. -1.
    9000006    2    1    2  501    0  0.00000000000E+00  0.00000000000E+00  0.89448889884E+03  0.11055111012E+04  0.64964944749E+03 0.  0.
         13    1    3    3    0    0  0.52061345176E+01 -0.10704434871E+03 -0.74558910522E+02  0.13055507484E+03  0.00000000000E+00 0. -1.
          2    1    3    3  501    0 -0.52061345176E+01  0.10704434871E+03  0.96904780936E+03  0.97495602632E+03  0.00000000000E+00 0. -1.
<mgrwt>
<rscale>  0 0.64964945E+03</rscale>
<asrwt>0</asrwt>
<pdfrwt beam="1">0</pdfrwt>
<pdfrwt beam="2">  1        2 0.38367754E+00 0.64964945E+03</pdfrwt>
<totfact> 0.45815440E+00</totfact>
</mgrwt>
</event>
<event>
 5    1  0.2361924E-004  0.6594691E+03  0.7818608E-02  0.9789172E-01
         13   -1    0    0    0    0  0.00000000000E+00  0.00000000000E+00  0.10000000000E+04  0.10000000000E+04  0.00000000000E+00 0. -1.
          2   -1    0    0  501    0 -0.00000000000E+00 -0.00000000000E+00 -0.10872486684E+03  0.10872486684E+03  0.00000000000E+00 0. -1.
    9000006    2    1    2  501    0  0.00000000000E+00  0.00000000000E+00  0.89127513316E+03  0.11087248668E+04  0.65946907991E+03 0.  0.
         13    1    3    3    0    0  0.21129776103E+03  0.21874605012E+02  0.86962855550E+03  0.89519778077E+03  0.00000000000E+00 0. -1.
          2    1    3    3  501    0 -0.21129776103E+03 -0.21874605012E+02  0.21646577659E+02  0.21352708607E+03  0.00000000000E+00 0. -1.
<mgrwt>
<rscale>  0 0.65946908E+03</rscale>
<asrwt>0</asrwt>
<pdfrwt beam="1">0</pdfrwt>
<pdfrwt beam="2">  1        2 0.39536399E+00 0.65946908E+03</pdfrwt>
<totfact> 0.41421483E+00</totfact>
</mgrwt>
</event>
<event>
 5    1  0.2361924E-004  0.6569159E+03  0.7818608E-02  0.9793888E-01
         13   -1    0    0    0    0  0.00000000000E+00  0.00000000000E+00  0.10000000000E+04  0.10000000000E+04  0.00000000000E+00 0. -1.
          2   -1    0    0  501    0 -0.00000000000E+00 -0.00000000000E+00 -0.10788461556E+03  0.10788461556E+03  0.00000000000E+00 0. -1.
    9000006    2    1    2  501    0  0.00000000000E+00  0.00000000000E+00  0.89211538444E+03  0.11078846156E+04  0.65691587151E+03 0.  0.
         13    1    3    3    0    0 -0.24013943415E+03 -0.22394525530E+03  0.45977857732E+03  0.56499094273E+03  0.00000000000E+00 0. -1.
          2    1    3    3  501    0  0.24013943415E+03  0.22394525530E+03  0.43233680712E+03  0.54289367283E+03  0.00000000000E+00 0. -1.
<mgrwt>
<rscale>  0 0.65691587E+03</rscale>
<asrwt>0</asrwt>
<pdfrwt beam="1">0</pdfrwt>
<pdfrwt beam="2">  1        2 0.39230852E+00 0.65691587E+03</pdfrwt>
<totfact> 0.42531876E+00</totfact>
</mgrwt>
</event>
<event>
 5    1  0.2361924E-004  0.6431408E+03  0.7818608E-02  0.9819736E-01
         13   -1    0    0    0    0  0.00000000000E+00  0.00000000000E+00  0.10000000000E+04  0.10000000000E+04  0.00000000000E+00 0. -1.
          2   -1    0    0  501    0 -0.00000000000E+00 -0.00000000000E+00 -0.10340751616E+03  0.10340751616E+03  0.00000000000E+00 0. -1.
    9000006    2    1    2  501    0  0.00000000000E+00  0.00000000000E+00  0.89659248384E+03  0.11034075162E+04  0.64314078134E+03 0.  0.
         13    1    3    3    0    0  0.44791028274E+02  0.18379200279E+02 -0.97118690494E+02  0.10851760806E+03  0.00000000000E+00 0. -1.
          4    1    3    3  501    0 -0.44791028274E+02 -0.18379200279E+02  0.99371117434E+03  0.99488990809E+03  0.00000000000E+00 0. -1.
<mgrwt>
<rscale>  0 0.64314078E+03</rscale>
<asrwt>0</asrwt>
<pdfrwt beam="1">0</pdfrwt>
<pdfrwt beam="2">  1        2 0.37602812E+00 0.64314078E+03</pdfrwt>
<totfact> 0.48916062E+00</totfact>
</mgrwt>
</event>
<event>
 5    1  0.2361924E-004  0.6518760E+03  0.7818608E-02  0.9803265E-01
         13   -1    0    0    0    0  0.00000000000E+00  0.00000000000E+00  0.10000000000E+04  0.10000000000E+04  0.00000000000E+00 0. -1.
          2   -1    0    0  501    0 -0.00000000000E+00 -0.00000000000E+00 -0.10623558718E+03  0.10623558718E+03  0.00000000000E+00 0. -1.
    9000006    2    1    2  501    0  0.00000000000E+00  0.00000000000E+00  0.89376441282E+03  0.11062355872E+04  0.65187602251E+03 0.  0.
         13    1    3    3    0    0 -0.63603956830E+02 -0.24552762624E+03  0.79427621332E+03  0.83378893110E+03  0.00000000000E+00 0. -1.
          2    1    3    3  501    0  0.63603956830E+02  0.24552762624E+03  0.99488199501E+02  0.27244665608E+03  0.00000000000E+00 0. -1.
<mgrwt>
<rscale>  0 0.65187602E+03</rscale>
<asrwt>0</asrwt>
<pdfrwt beam="1">0</pdfrwt>
<pdfrwt beam="2">  1        2 0.38631204E+00 0.65187602E+03</pdfrwt>
<totfact> 0.44789644E+00</totfact>
</mgrwt>
</event>
<event>
 5    1  0.2361924E-004  0.6397126E+03  0.7818608E-02  0.9826277E-01
         13   -1    0    0    0    0  0.00000000000E+00  0.00000000000E+00  0.10000000000E+04  0.10000000000E+04  0.00000000000E+00 0. -1.
          4   -1    0    0  501    0 -0.00000000000E+00 -0.00000000000E+00 -0.10230805406E+03  0.10230805406E+03  0.00000000000E+00 0. -1.
    9000006    2    1    2  501    0  0.00000000000E+00  0.00000000000E+00  0.89769194594E+03  0.11023080541E+04  0.63971260440E+03 0.  0.
         13    1    3    3    0    0  0.26963593050E+03 -0.14694753281E+03  0.29461916971E+03  0.42555559869E+03  0.00000000000E+00 0. -1.
          4    1    3    3  501    0 -0.26963593050E+03  0.14694753281E+03  0.60307277623E+03  0.67675245537E+03  0.00000000000E+00 0. -1.
<mgrwt>
<rscale>  0 0.63971260E+03</rscale>
<asrwt>0</asrwt>
<pdfrwt beam="1">0</pdfrwt>
<pdfrwt beam="2">  1        4 0.37203007E+00 0.63971260E+03</pdfrwt>
<totfact> 0.49599610E-02</totfact>
</mgrwt>
</event>
<event>
 5    1  0.2361924E-004  0.6709137E+03  0.7818608E-02  0.9768309E-01
         13   -1    0    0    0    0  0.00000000000E+00  0.00000000000E+00  0.10000000000E+04  0.10000000000E+04  0.00000000000E+00 0. -1.
          2   -1    0    0  501    0 -0.00000000000E+00 -0.00000000000E+00 -0.11253130335E+03  0.11253130335E+03  0.00000000000E+00 0. -1.
    9000006    2    1    2  501    0  0.00000000000E+00  0.00000000000E+00  0.88746869665E+03  0.11125313034E+04  0.67091371532E+03 0.  0.
         13    1    3    3    0    0  0.64097276056E+02  0.12613557123E+03  0.94810075670E+03  0.95859985811E+03  0.00000000000E+00 0. -1.
          2    1    3    3  501    0 -0.64097276056E+02 -0.12613557123E+03 -0.60632060047E+02  0.15393144524E+03  0.00000000000E+00 0. -1.
<mgrwt>
<rscale>  0 0.67091372E+03</rscale>
<asrwt>0</asrwt>
<pdfrwt beam="1">0</pdfrwt>
<pdfrwt beam="2">  1        2 0.40920560E+00 0.67091372E+03</pdfrwt>
<totfact> 0.36710665E+00</totfact>
</mgrwt>
</event>
<event>
 5    1  0.2361924E-004  0.6260568E+03  0.7818608E-02  0.9852774E-01
         13   -1    0    0    0    0  0.00000000000E+00  0.00000000000E+00  0.10000000000E+04  0.10000000000E+04  0.00000000000E+00 0. -1.
          2   -1    0    0  501    0 -0.00000000000E+00 -0.00000000000E+00 -0.97986768684E+02  0.97986768684E+02  0.00000000000E+00 0. -1.
    9000006    2    1    2  501    0  0.00000000000E+00  0.00000000000E+00  0.90201323132E+03  0.10979867687E+04  0.62605676638E+03 0.  0.
         13    1    3    3    0    0 -0.21297870057E+03  0.21532948960E+03  0.58976920253E+03  0.66298901064E+03  0.00000000000E+00 0. -1.
          2    1    3    3  501    0  0.21297870057E+03 -0.21532948960E+03  0.31224402879E+03  0.43499775804E+03  0.00000000000E+00 0. -1.
<mgrwt>
<rscale>  0 0.62605677E+03</rscale>
<asrwt>0</asrwt>
<pdfrwt beam="1">0</pdfrwt>
<pdfrwt beam="2">  1        2 0.35631627E+00 0.62605677E+03</pdfrwt>
<totfact> 0.57813100E+00</totfact>
</mgrwt>
</event>
<event>
 5    1  0.2361924E-004  0.6076377E+03  0.7818608E-02  0.9889686E-01
         13   -1    0    0    0    0  0.00000000000E+00  0.00000000000E+00  0.10000000000E+04  0.10000000000E+04  0.00000000000E+00 0. -1.
          2   -1    0    0  501    0 -0.00000000000E+00 -0.00000000000E+00 -0.92305885677E+02  0.92305885677E+02  0.00000000000E+00 0. -1.
    9000006    2    1    2  501    0  0.00000000000E+00  0.00000000000E+00  0.90769411432E+03  0.10923058857E+04  0.60763767387E+03 0.  0.
         13    1    3    3    0    0 -0.10026469141E+03  0.55344866552E+02  0.95971163236E+03  0.96652081192E+03  0.00000000000E+00 0. -1.
          4    1    3    3  501    0  0.10026469141E+03 -0.55344866552E+02 -0.52017518034E+02  0.12578507376E+03  0.00000000000E+00 0. -1.
<mgrwt>
<rscale>  0 0.60763767E+03</rscale>
<asrwt>0</asrwt>
<pdfrwt beam="1">0</pdfrwt>
<pdfrwt beam="2">  1        2 0.33565847E+00 0.60763767E+03</pdfrwt>
<totfact> 0.68730891E+00</totfact>
</mgrwt>
</event>
<event>
 5    1  0.2361924E-004  0.6508492E+03  0.7818608E-02  0.9805187E-01
         13   -1    0    0    0    0  0.00000000000E+00  0.00000000000E+00  0.10000000000E+04  0.10000000000E+04  0.00000000000E+00 0. -1.
          2   -1    0    0  501    0 -0.00000000000E+00 -0.00000000000E+00 -0.10590117797E+03  0.10590117797E+03  0.00000000000E+00 0. -1.
    9000006    2    1    2  501    0  0.00000000000E+00  0.00000000000E+00  0.89409882203E+03  0.11059011780E+04  0.65084922361E+03 0.  0.
         13    1    3    3    0    0  0.10171454294E+03 -0.23996567480E+03  0.11594379394E+03  0.28525836829E+03  0.00000000000E+00 0. -1.
          2    1    3    3  501    0 -0.10171454294E+03  0.23996567480E+03  0.77815502809E+03  0.82064280968E+03  0.00000000000E+00 0. -1.
<mgrwt>
<rscale>  0 0.65084922E+03</rscale>
<asrwt>0</asrwt>
<pdfrwt beam="1">0</pdfrwt>
<pdfrwt beam="2">  1        2 0.38509600E+00 0.65084922E+03</pdfrwt>
<totfact> 0.45260515E+00</totfact>
</mgrwt>
</event>
<event>
 5    1  0.2361924E-004  0.6522232E+03  0.7818608E-02  0.9802617E-01
         13   -1    0    0    0    0  0.00000000000E+00  0.00000000000E+00  0.10000000000E+04  0.10000000000E+04  0.00000000000E+00 0. -1.
          2   -1    0    0  501    0 -0.00000000000E+00 -0.00000000000E+00 -0.10634876088E+03  0.10634876088E+03  0.00000000000E+00 0. -1.
    9000006    2    1    2  501    0  0.00000000000E+00  0.00000000000E+00  0.89365123912E+03  0.11063487609E+04  0.65222315469E+03 0.  0.
         13    1    3    3    0    0 -0.62272760435E+02  0.29049098277E+03  0.67494665845E+03  0.73743874289E+03  0.00000000000E+00 0. -1.
          4    1    3    3  501    0  0.62272760435E+02 -0.29049098277E+03  0.21870458067E+03  0.36891001799E+03  0.00000000000E+00 0. -1.
<mgrwt>
<rscale>  0 0.65222315E+03</rscale>
<asrwt>0</asrwt>
<pdfrwt beam="1">0</pdfrwt>
<pdfrwt beam="2">  1        2 0.38672358E+00 0.65222315E+03</pdfrwt>
<totfact> 0.44631295E+00</totfact>
</mgrwt>
</event>
<event>
 5    1  0.2361924E-004  0.6539003E+03  0.7818608E-02  0.9799488E-01
         13   -1    0    0    0    0  0.00000000000E+00  0.00000000000E+00  0.10000000000E+04  0.10000000000E+04  0.00000000000E+00 0. -1.
          2   -1    0    0  501    0 -0.00000000000E+00 -0.00000000000E+00 -0.10689639116E+03  0.10689639116E+03  0.00000000000E+00 0. -1.
    9000006    2    1    2  501    0  0.00000000000E+00  0.00000000000E+00  0.89310360884E+03  0.11068963912E+04  0.65390027119E+03 0.  0.
         13    1    3    3    0    0 -0.28212293360E+02  0.29505964988E+03  0.68012978483E+03  0.74191148711E+03  0.00000000000E+00 0. -1.
          2    1    3    3  501    0  0.28212293360E+02 -0.29505964988E+03  0.21297382400E+03  0.36498490406E+03  0.00000000000E+00 0. -1.
<mgrwt>
<rscale>  0 0.65390027E+03</rscale>
<asrwt>0</asrwt>
<pdfrwt beam="1">0</pdfrwt>
<pdfrwt beam="2">  1        2 0.38871497E+00 0.65390027E+03</pdfrwt>
<totfact> 0.43872207E+00</totfact>
</mgrwt>
</event>
<event>
 5    1  0.2361924E-004  0.6512627E+03  0.7818608E-02  0.9804413E-01
         13   -1    0    0    0    0  0.00000000000E+00  0.00000000000E+00  0.10000000000E+04  0.10000000000E+04  0.00000000000E+00 0. -1.
          2   -1    0    0  501    0 -0.00000000000E+00 -0.00000000000E+00 -0.10603578053E+03  0.10603578053E+03  0.00000000000E+00 0. -1.
    9000006    2    1    2  501    0  0.00000000000E+00  0.00000000000E+00  0.89396421947E+03  0.11060357805E+04  0.65126271359E+03 0.  0.
         13    1    3    3    0    0  0.28090714380E+03 -0.10027970917E+03  0.66887410855E+03  0.73236426496E+03  0.00000000000E+00 0. -1.
          4    1    3    3  501    0 -0.28090714380E+03  0.10027970917E+03  0.22509011092E+03  0.37367151556E+03  0.00000000000E+00 0. -1.
<mgrwt>
<rscale>  0 0.65126271E+03</rscale>
<asrwt>0</asrwt>
<pdfrwt beam="1">0</pdfrwt>
<pdfrwt beam="2">  1        2 0.38558547E+00 0.65126271E+03</pdfrwt>
<totfact> 0.45070449E+00</totfact>
</mgrwt>
</event>
<event>
 5    1  0.2361924E-004  0.6467222E+03  0.7818608E-02  0.9812949E-01
         13   -1    0    0    0    0  0.00000000000E+00  0.00000000000E+00  0.10000000000E+04  0.10000000000E+04  0.00000000000E+00 0. -1.
          2   -1    0    0  501    0 -0.00000000000E+00 -0.00000000000E+00 -0.10456239935E+03  0.10456239935E+03  0.00000000000E+00 0. -1.
    9000006    2    1    2  501    0  0.00000000000E+00  0.00000000000E+00  0.89543760065E+03  0.11045623994E+04  0.64672219492E+03 0.  0.
         13    1    3    3    0    0  0.25327185845E+03 -0.78859201064E+02  0.13187930323E+03  0.29623902258E+03  0.00000000000E+00 0. -1.
          2    1    3    3  501    0 -0.25327185845E+03  0.78859201064E+02  0.76355829742E+03  0.80832337677E+03  0.00000000000E+00 0. -1.
<mgrwt>
<rscale>  0 0.64672219E+03</rscale>
<asrwt>0</asrwt>
<pdfrwt beam="1">0</pdfrwt>
<pdfrwt beam="2">  1        2 0.38022771E+00 0.64672219E+03</pdfrwt>
<totfact> 0.47190944E+00</totfact>
</mgrwt>
</event>
<event>
 5    1  0.2361924E-004  0.5964485E+03  0.7818608E-02  0.9912802E-01
         13   -1    0    0    0    0  0.00000000000E+00  0.00000000000E+00  0.10000000000E+04  0.10000000000E+04  0.00000000000E+00 0. -1.
          2   -1    0    0  501    0 -0.00000000000E+00 -0.00000000000E+00 -0.88937711293E+02  0.88937711293E+02  0.00000000000E+00 0. -1.
    9000006    2    1    2  501    0  0.00000000000E+00  0.00000000000E+00  0.91106228871E+03  0.10889377113E+04  0.59644852684E+03 0.  0.
         13    1    3    3    0    0  0.18809454075E+03 -0.20131475810E+03  0.66393751711E+03  0.71883253594E+03  0.00000000000E+00 0. -1.
          4    1    3    3  501    0 -0.18809454075E+03  0.20131475810E+03  0.24712477159E+03  0.37010517536E+03  0.00000000000E+00 0. -1.
<mgrwt>
<rscale>  0 0.59644853E+03</rscale>
<asrwt>0</asrwt>
<pdfrwt beam="1">0</pdfrwt>
<pdfrwt beam="2">  1        2 0.32341054E+00 0.59644853E+03</pdfrwt>
<totfact> 0.76091788E+00</totfact>
</mgrwt>
</event>
<event>
 5    1  0.2361924E-004  0.6538644E+03  0.7818608E-02  0.9799555E-01
         13   -1    0    0    0    0  0.00000000000E+00  0.00000000000E+00  0.10000000000E+04  0.10000000000E+04  0.00000000000E+00 0. -1.
          2   -1    0    0  501    0 -0.00000000000E+00 -0.00000000000E+00 -0.10688465045E+03  0.10688465045E+03  0.00000000000E+00 0. -1.
    9000006    2    1    2  501    0  0.00000000000E+00  0.00000000000E+00  0.89311534955E+03  0.11068846504E+04  0.65386436040E+03 0.  0.
         13    1    3    3    0    0  0.15464104632E+03 -0.23083119415E+03  0.73823548600E+03  0.78878927869E+03  0.00000000000E+00 0. -1.
          4    1    3    3  501    0 -0.15464104632E+03  0.23083119415E+03  0.15487986356E+03  0.31809537176E+03  0.00000000000E+00 0. -1.
<mgrwt>
<rscale>  0 0.65386436E+03</rscale>
<asrwt>0</asrwt>
<pdfrwt beam="1">0</pdfrwt>
<pdfrwt beam="2">  1        2 0.38867228E+00 0.65386436E+03</pdfrwt>
<totfact> 0.43888358E+00</totfact>
</mgrwt>
</event>
<event>
 5    1  0.2361924E-004  0.6443224E+03  0.7818608E-02  0.9817491E-01
         13   -1    0    0    0    0  0.00000000000E+00  0.00000000000E+00  0.10000000000E+04  0.10000000000E+04  0.00000000000E+00 0. -1.
          2   -1    0    0  501    0 -0.00000000000E+00 -0.00000000000E+00 -0.10378784928E+03  0.10378784928E+03  0.00000000000E+00 0. -1.
    9000006    2    1    2  501    0  0.00000000000E+00  0.00000000000E+00  0.89621215072E+03  0.11037878493E+04  0.64432243257E+03 0.  0.
         13    1    3    3    0    0 -0.15968206008E+02 -0.20640769305E+03  0.25249177252E+02  0.20855848174E+03  0.00000000000E+00 0. -1.
          2    1    3    3  501    0  0.15968206008E+02  0.20640769305E+03  0.87096297347E+03  0.89522936754E+03  0.00000000000E+00 0. -1.
<mgrwt>
<rscale>  0 0.64432243E+03</rscale>
<asrwt>0</asrwt>
<pdfrwt beam="1">0</pdfrwt>
<pdfrwt beam="2">  1        2 0.37741116E+00 0.64432243E+03</pdfrwt>
<totfact> 0.48341690E+00</totfact>
</mgrwt>
</event>
<event>
 5    1  0.2361924E-004  0.6487432E+03  0.7818608E-02  0.9809140E-01
         13   -1    0    0    0    0  0.00000000000E+00  0.00000000000E+00  0.10000000000E+04  0.10000000000E+04  0.00000000000E+00 0. -1.
          2   -1    0    0  501    0 -0.00000000000E+00 -0.00000000000E+00 -0.10521694509E+03  0.10521694509E+03  0.00000000000E+00 0. -1.
    9000006    2    1    2  501    0  0.00000000000E+00  0.00000000000E+00  0.89478305491E+03  0.11052169451E+04  0.64874323147E+03 0.  0.
         13    1    3    3    0    0  0.94194564580E+02  0.20348226280E+03  0.48075954779E+02  0.22932279585E+03  0.00000000000E+00 0. -1.
          2    1    3    3  501    0 -0.94194564580E+02 -0.20348226280E+03  0.84670710013E+03  0.87589414924E+03  0.00000000000E+00 0. -1.
<mgrwt>
<rscale>  0 0.64874323E+03</rscale>
<asrwt>0</asrwt>
<pdfrwt beam="1">0</pdfrwt>
<pdfrwt beam="2">  1        2 0.38260788E+00 0.64874323E+03</pdfrwt>
<totfact> 0.46237983E+00</totfact>
</mgrwt>
</event>
<event>
 5    1  0.2361924E-004  0.6574126E+03  0.7818608E-02  0.9792969E-01
         13   -1    0    0    0    0  0.00000000000E+00  0.00000000000E+00  0.10000000000E+04  0.10000000000E+04  0.00000000000E+00 0. -1.
          2   -1    0    0  501    0 -0.00000000000E+00 -0.00000000000E+00 -0.10804783073E+03  0.10804783073E+03  0.00000000000E+00 0. -1.
    9000006    2    1    2  501    0  0.00000000000E+00  0.00000000000E+00  0.89195216927E+03  0.11080478307E+04  0.65741259717E+03 0.  0.
         13    1    3    3    0    0  0.40331563021E+02  0.11159908145E+02  0.99549200547E+03  0.99637117155E+03  0.00000000000E+00 0. -1.
          2    1    3    3  501    0 -0.40331563021E+02 -0.11159908145E+02 -0.10353983620E+03  0.11167665919E+03  0.00000000000E+00 0. -1.
<mgrwt>
<rscale>  0 0.65741260E+03</rscale>
<asrwt>0</asrwt>
<pdfrwt beam="1">0</pdfrwt>
<pdfrwt beam="2">  1        2 0.39290203E+00 0.65741260E+03</pdfrwt>
<totfact> 0.42314101E+00</totfact>
</mgrwt>
</event>
<event>
 5    1  0.2361924E-004  0.6580480E+03  0.7818608E-02  0.9791794E-01
         13   -1    0    0    0    0  0.00000000000E+00  0.00000000000E+00  0.10000000000E+04  0.10000000000E+04  0.00000000000E+00 0. -1.
          2   -1    0    0  501    0 -0.00000000000E+00 -0.00000000000E+00 -0.10825679791E+03  0.10825679791E+03  0.00000000000E+00 0. -1.
    9000006    2    1    2  501    0  0.00000000000E+00  0.00000000000E+00  0.89174320209E+03  0.11082567979E+04  0.65804801620E+03 0.  0.
         13    1    3    3    0    0 -0.28079615189E+03 -0.41894453127E+02  0.16579874790E+03  0.32877172769E+03  0.00000000000E+00 0. -1.
          4    1    3    3  501    0  0.28079615189E+03  0.41894453127E+02  0.72594445420E+03  0.77948507022E+03  0.00000000000E+00 0. -1.
<mgrwt>
<rscale>  0 0.65804802E+03</rscale>
<asrwt>0</asrwt>
<pdfrwt beam="1">0</pdfrwt>
<pdfrwt beam="2">  1        2 0.39366191E+00 0.65804802E+03</pdfrwt>
<totfact> 0.42036747E+00</totfact>
</mgrwt>
</event>
<event>
 5    1  0.2361924E-004  0.5346000E+03  0.7818608E-02  0.1005123E+00
         13   -1    0    0    0    0  0.00000000000E+00  0.00000000000E+00  0.10000000000E+04  0.10000000000E+04  0.00000000000E+00 0. -1.
          2   -1    0    0  501    0 -0.00000000000E+00 -0.00000000000E+00 -0.71449298819E+02  0.71449298819E+02  0.00000000000E+00 0. -1.
    9000006    2    1    2  501    0  0.00000000000E+00  0.00000000000E+00  0.92855070118E+03  0.10714492988E+04  0.53460003299E+03 0.  0.
         13    1    3    3    0    0  0.11872626722E+03 -0.13131625558E+03  0.86566465740E+03  0.88358088740E+03  0.00000000000E+00 0. -1.
          4    1    3    3  501    0 -0.11872626722E+03  0.13131625558E+03  0.62886043784E+02  0.18786841142E+03  0.00000000000E+00 0. -1.
<mgrwt>
<rscale>  0 0.53460003E+03</rscale>
<asrwt>0</asrwt>
<pdfrwt beam="1">0</pdfrwt>
<pdfrwt beam="2">  1        2 0.25981618E+00 0.53460003E+03</pdfrwt>
<totfact> 0.12853187E+01</totfact>
</mgrwt>
</event>
<event>
 5    1  0.2361924E-004  0.6480988E+03  0.7818608E-02  0.9810353E-01
         13   -1    0    0    0    0  0.00000000000E+00  0.00000000000E+00  0.10000000000E+04  0.10000000000E+04  0.00000000000E+00 0. -1.
          2   -1    0    0  501    0 -0.00000000000E+00 -0.00000000000E+00 -0.10500800713E+03  0.10500800713E+03  0.00000000000E+00 0. -1.
    9000006    2    1    2  501    0  0.00000000000E+00  0.00000000000E+00  0.89499199287E+03  0.11050080071E+04  0.64809877990E+03 0.  0.
         13    1    3    3    0    0  0.27752440070E+03 -0.77690533270E+02  0.19487748176E+03  0.34789775055E+03  0.00000000000E+00 0. -1.
          4    1    3    3  501    0 -0.27752440070E+03  0.77690533270E+02  0.70011451111E+03  0.75711025658E+03  0.00000000000E+00 0. -1.
<mgrwt>
<rscale>  0 0.64809878E+03</rscale>
<asrwt>0</asrwt>
<pdfrwt beam="1">0</pdfrwt>
<pdfrwt beam="2">  1        2 0.38184810E+00 0.64809878E+03</pdfrwt>
<totfact> 0.46540260E+00</totfact>
</mgrwt>
</event>
<event>
 5    1  0.2361924E-004  0.6534607E+03  0.7818608E-02  0.9800307E-01
         13   -1    0    0    0    0  0.00000000000E+00  0.00000000000E+00  0.10000000000E+04  0.10000000000E+04  0.00000000000E+00 0. -1.
          2   -1    0    0  501    0 -0.00000000000E+00 -0.00000000000E+00 -0.10675270743E+03  0.10675270743E+03  0.00000000000E+00 0. -1.
    9000006    2    1    2  501    0  0.00000000000E+00  0.00000000000E+00  0.89324729257E+03  0.11067527074E+04  0.65346065659E+03 0.  0.
         13    1    3    3    0    0  0.94969567542E+01 -0.31534530604E+03  0.30271220197E+03  0.43722709368E+03  0.00000000000E+00 0. -1.
          4    1    3    3  501    0 -0.94969567542E+01  0.31534530604E+03  0.59053509060E+03  0.66952561375E+03  0.00000000000E+00 0. -1.
<mgrwt>
<rscale>  0 0.65346066E+03</rscale>
<asrwt>0</asrwt>
<pdfrwt beam="1">0</pdfrwt>
<pdfrwt beam="2">  1        2 0.38819248E+00 0.65346066E+03</pdfrwt>
<totfact> 0.44070233E+00</totfact>
</mgrwt>
</event>
<event>
 5    1  0.2361924E-004  0.6626967E+03  0.7818608E-02  0.9783242E-01
         13   -1    0    0    0    0  0.00000000000E+00  0.00000000000E+00  0.10000000000E+04  0.10000000000E+04  0.00000000000E+00 0. -1.
          2   -1    0    0  501    0 -0.00000000000E+00 -0.00000000000E+00 -0.10979171629E+03  0.10979171629E+03  0.00000000000E+00 0. -1.
    9000006    2    1    2  501    0  0.00000000000E+00  0.00000000000E+00  0.89020828371E+03  0.11097917163E+04  0.66269666149E+03 0.  0.
         13    1    3    3    0    0 -0.29448408310E+02  0.23605001960E+03  0.83138438359E+03  0.86474667608E+03  0.00000000000E+00 0. -1.
          2    1    3    3  501    0  0.29448408310E+02 -0.23605001960E+03  0.58823900120E+02  0.24504504021E+03  0.00000000000E+00 0. -1.
<mgrwt>
<rscale>  0 0.66269666E+03</rscale>
<asrwt>0</asrwt>
<pdfrwt beam="1">0</pdfrwt>
<pdfrwt beam="2">  1        2 0.39924345E+00 0.66269666E+03</pdfrwt>
<totfact> 0.40049343E+00</totfact>
</mgrwt>
</event>
<event>
 5    1  0.2361924E-004  0.6436140E+03  0.7818608E-02  0.9818836E-01
         13   -1    0    0    0    0  0.00000000000E+00  0.00000000000E+00  0.10000000000E+04  0.10000000000E+04  0.00000000000E+00 0. -1.
          2   -1    0    0  501    0 -0.00000000000E+00 -0.00000000000E+00 -0.10355973960E+03  0.10355973960E+03  0.00000000000E+00 0. -1.
    9000006    2    1    2  501    0  0.00000000000E+00  0.00000000000E+00  0.89644026040E+03  0.11035597396E+04  0.64361398244E+03 0.  0.
         13    1    3    3    0    0  0.25521531799E+03 -0.18871638351E+03  0.53912798123E+03  0.62562585632E+03  0.00000000000E+00 0. -1.
          4    1    3    3  501    0 -0.25521531799E+03  0.18871638351E+03  0.35731227917E+03  0.47793388328E+03  0.00000000000E+00 0. -1.
<mgrwt>
<rscale>  0 0.64361398E+03</rscale>
<asrwt>0</asrwt>
<pdfrwt beam="1">0</pdfrwt>
<pdfrwt beam="2">  1        2 0.37658167E+00 0.64361398E+03</pdfrwt>
<totfact> 0.48685434E+00</totfact>
</mgrwt>
</event>
<event>
 5    1  0.2361924E-004  0.6365533E+03  0.7818608E-02  0.9832343E-01
         13   -1    0    0    0    0  0.00000000000E+00  0.00000000000E+00  0.10000000000E+04  0.10000000000E+04  0.00000000000E+00 0. -1.
          2   -1    0    0  501    0 -0.00000000000E+00 -0.00000000000E+00 -0.10130001686E+03  0.10130001686E+03  0.00000000000E+00 0. -1.
    9000006    2    1    2  501    0  0.00000000000E+00  0.00000000000E+00  0.89869998314E+03  0.11013000169E+04  0.63655327148E+03 0.  0.
         13    1    3    3    0    0  0.28389583135E+03  0.13541894985E+03  0.53348478112E+03  0.61930698908E+03  0.00000000000E+00 0. -1.
          4    1    3    3  501    0 -0.28389583135E+03 -0.13541894985E+03  0.36521520203E+03  0.48199302778E+03  0.00000000000E+00 0. -1.
<mgrwt>
<rscale>  0 0.63655327E+03</rscale>
<asrwt>0</asrwt>
<pdfrwt beam="1">0</pdfrwt>
<pdfrwt beam="2">  1        2 0.36836447E+00 0.63655327E+03</pdfrwt>
<totfact> 0.52213680E+00</totfact>
</mgrwt>
</event>
<event>
 5    1  0.2361924E-004  0.6568655E+03  0.7818608E-02  0.9793981E-01
         13   -1    0    0    0    0  0.00000000000E+00  0.00000000000E+00  0.10000000000E+04  0.10000000000E+04  0.00000000000E+00 0. -1.
          2   -1    0    0  501    0 -0.00000000000E+00 -0.00000000000E+00 -0.10786805909E+03  0.10786805909E+03  0.00000000000E+00 0. -1.
    9000006    2    1    2  501    0  0.00000000000E+00  0.00000000000E+00  0.89213194091E+03  0.11078680591E+04  0.65686546289E+03 0.  0.
         13    1    3    3    0    0 -0.17123663540E+03 -0.24166497269E+02  0.91699260126E+03  0.93315670477E+03  0.00000000000E+00 0. -1.
          4    1    3    3  501    0  0.17123663540E+03  0.24166497269E+02 -0.24860660347E+02  0.17471135431E+03  0.00000000000E+00 0. -1.
<mgrwt>
<rscale>  0 0.65686546E+03</rscale>
<asrwt>0</asrwt>
<pdfrwt beam="1">0</pdfrwt>
<pdfrwt beam="2">  1        2 0.39224831E+00 0.65686546E+03</pdfrwt>
<totfact> 0.42554024E+00</totfact>
</mgrwt>
</event>
<event>
 5    1  0.2361924E-004  0.6536024E+03  0.7818608E-02  0.9800043E-01
         13   -1    0    0    0    0  0.00000000000E+00  0.00000000000E+00  0.10000000000E+04  0.10000000000E+04  0.00000000000E+00 0. -1.
          2   -1    0    0  501    0 -0.00000000000E+00 -0.00000000000E+00 -0.10679901911E+03  0.10679901911E+03  0.00000000000E+00 0. -1.
    9000006    2    1    2  501    0  0.00000000000E+00  0.00000000000E+00  0.89320098089E+03  0.11067990191E+04  0.65360238406E+03 0.  0.
         13    1    3    3    0    0 -0.65281848450E+02 -0.10372806691E+03 -0.66407264119E+02  0.13939568261E+03  0.00000000000E+00 0. -1.
          4    1    3    3  501    0  0.65281848450E+02  0.10372806691E+03  0.95960824501E+03  0.96740333651E+03  0.00000000000E+00 0. -1.
<mgrwt>
<rscale>  0 0.65360238E+03</rscale>
<asrwt>0</asrwt>
<pdfrwt beam="1">0</pdfrwt>
<pdfrwt beam="2">  1        2 0.38836089E+00 0.65360238E+03</pdfrwt>
<totfact> 0.44006318E+00</totfact>
</mgrwt>
</event>
<event>
 5    1  0.2361924E-004  0.6656460E+03  0.7818608E-02  0.9777855E-01
         13   -1    0    0    0    0  0.00000000000E+00  0.00000000000E+00  0.10000000000E+04  0.10000000000E+04  0.00000000000E+00 0. -1.
          2   -1    0    0  501    0 -0.00000000000E+00 -0.00000000000E+00 -0.11077116096E+03  0.11077116096E+03  0.00000000000E+00 0. -1.
    9000006    2    1    2  501    0  0.00000000000E+00  0.00000000000E+00  0.88922883904E+03  0.11107711610E+04  0.66564603496E+03 0.  0.
         13    1    3    3    0    0 -0.13272928778E+03  0.21222626097E+03  0.81064509254E+03  0.84841176073E+03  0.00000000000E+00 0. -1.
          2    1    3    3  501    0  0.13272928778E+03 -0.21222626097E+03  0.78583746497E+02  0.26235940024E+03  0.00000000000E+00 0. -1.
<mgrwt>
<rscale>  0 0.66564603E+03</rscale>
<asrwt>0</asrwt>
<pdfrwt beam="1">0</pdfrwt>
<pdfrwt beam="2">  1        2 0.40280507E+00 0.66564603E+03</pdfrwt>
<totfact> 0.38825724E+00</totfact>
</mgrwt>
</event>
<event>
 5    1  0.2361924E-004  0.6497580E+03  0.7818608E-02  0.9807233E-01
         13   -1    0    0    0    0  0.00000000000E+00  0.00000000000E+00  0.10000000000E+04  0.10000000000E+04  0.00000000000E+00 0. -1.
          2   -1    0    0  501    0 -0.00000000000E+00 -0.00000000000E+00 -0.10554635182E+03  0.10554635182E+03  0.00000000000E+00 0. -1.
    9000006    2    1    2  501    0  0.00000000000E+00  0.00000000000E+00  0.89445364818E+03  0.11055463518E+04  0.64975796055E+03 0.  0.
         13    1    3    3    0    0  0.29998232761E+03 -0.93794050221E+02  0.30733676806E+03  0.43959368710E+03  0.00000000000E+00 0. -1.
          2    1    3    3  501    0 -0.29998232761E+03  0.93794050221E+02  0.58711688012E+03  0.66595266473E+03  0.00000000000E+00 0. -1.
<mgrwt>
<rscale>  0 0.64975796E+03</rscale>
<asrwt>0</asrwt>
<pdfrwt beam="1">0</pdfrwt>
<pdfrwt beam="2">  1        2 0.38380573E+00 0.64975796E+03</pdfrwt>
<totfact> 0.45765040E+00</totfact>
</mgrwt>
</event>
<event>
 5    1  0.2361924E-004  0.6475476E+03  0.7818608E-02  0.9811392E-01
         13   -1    0    0    0    0  0.00000000000E+00  0.00000000000E+00  0.10000000000E+04  0.10000000000E+04  0.00000000000E+00 0. -1.
          2   -1    0    0  501    0 -0.00000000000E+00 -0.00000000000E+00 -0.10482948306E+03  0.10482948306E+03  0.00000000000E+00 0. -1.
    9000006    2    1    2  501    0  0.00000000000E+00  0.00000000000E+00  0.89517051694E+03  0.11048294831E+04  0.64754762931E+03 0.  0.
         13    1    3    3    0    0 -0.15078229391E+03  0.27832510422E+03  0.56367186175E+03  0.64647206554E+03  0.00000000000E+00 0. -1.
          2    1    3    3  501    0  0.15078229391E+03 -0.27832510422E+03  0.33149865520E+03  0.45835741752E+03  0.00000000000E+00 0. -1.
<mgrwt>
<rscale>  0 0.64754763E+03</rscale>
<asrwt>0</asrwt>
<pdfrwt beam="1">0</pdfrwt>
<pdfrwt beam="2">  1        2 0.38119892E+00 0.64754763E+03</pdfrwt>
<totfact> 0.46799958E+00</totfact>
</mgrwt>
</event>
<event>
 5    1  0.2361924E-004  0.6937527E+03  0.7818608E-02  0.9727976E-01
         13   -1    0    0    0    0  0.00000000000E+00  0.00000000000E+00  0.10000000000E+04  0.10000000000E+04  0.00000000000E+00 0. -1.
          2   -1    0    0  501    0 -0.00000000000E+00 -0.00000000000E+00 -0.12032320618E+03  0.12032320618E+03  0.00000000000E+00 0. -1.
    9000006    2    1    2  501    0  0.00000000000E+00  0.00000000000E+00  0.87967679382E+03  0.11203232062E+04  0.69375271150E+03 0.  0.
         13    1    3    3    0    0  0.19584669822E+02 -0.22805302288E+03  0.86073374984E+03  0.89064826315E+03  0.00000000000E+00 0. -1.
          4    1    3    3  501    0 -0.19584669822E+02  0.22805302288E+03  0.18943043979E+02  0.22967494302E+03  0.00000000000E+00 0. -1.
<mgrwt>
<rscale>  0 0.69375271E+03</rscale>
<asrwt>0</asrwt>
<pdfrwt beam="1">0</pdfrwt>
<pdfrwt beam="2">  1        2 0.43753985E+00 0.69375271E+03</pdfrwt>
<totfact> 0.28526921E+00</totfact>
</mgrwt>
</event>
<event>
 5    1  0.2361924E-004  0.6446018E+03  0.7818608E-02  0.9816962E-01
         13   -1    0    0    0    0  0.00000000000E+00  0.00000000000E+00  0.10000000000E+04  0.10000000000E+04  0.00000000000E+00 0. -1.
          2   -1    0    0  501    0 -0.00000000000E+00 -0.00000000000E+00 -0.10387785863E+03  0.10387785863E+03  0.00000000000E+00 0. -1.
    9000006    2    1    2  501    0  0.00000000000E+00  0.00000000000E+00  0.89612214137E+03  0.11038778586E+04  0.64460176429E+03 0.  0.
         13    1    3    3    0    0 -0.19361210993E+03  0.22287111339E+03  0.22662087696E+03  0.37217496446E+03  0.00000000000E+00 0. -1.
          2    1    3    3  501    0  0.19361210993E+03 -0.22287111339E+03  0.66950126441E+03  0.73170289417E+03  0.00000000000E+00 0. -1.
<mgrwt>
<rscale>  0 0.64460176E+03</rscale>
<asrwt>0</asrwt>
<pdfrwt beam="1">0</pdfrwt>
<pdfrwt beam="2">  1        2 0.37773846E+00 0.64460176E+03</pdfrwt>
<totfact> 0.48206663E+00</totfact>
</mgrwt>
</event>
<event>
 5    1  0.2361924E-004  0.6403627E+03  0.7818608E-02  0.9825033E-01
         13   -1    0    0    0    0  0.00000000000E+00  0.00000000000E+00  0.10000000000E+04  0.10000000000E+04  0.00000000000E+00 0. -1.
          2   -1    0    0  501    0 -0.00000000000E+00 -0.00000000000E+00 -0.10251610625E+03  0.10251610625E+03  0.00000000000E+00 0. -1.
    9000006    2    1    2  501    0  0.00000000000E+00  0.00000000000E+00  0.89748389375E+03  0.11025161062E+04  0.64036272923E+03 0.  0.
         13    1    3    3    0    0  0.10421566509E+03 -0.30649439740E+02  0.96730359601E+03  0.97338406596E+03  0.00000000000E+00 0. -1.
          4    1    3    3  501    0 -0.10421566509E+03  0.30649439740E+02 -0.69819702259E+02  0.12913204029E+03  0.00000000000E+00 0. -1.
<mgrwt>
<rscale>  0 0.64036273E+03</rscale>
<asrwt>0</asrwt>
<pdfrwt beam="1">0</pdfrwt>
<pdfrwt beam="2">  1        2 0.37278663E+00 0.64036273E+03</pdfrwt>
<totfact> 0.50286857E+00</totfact>
</mgrwt>
</event>
<event>
 5    1  0.2361924E-004  0.6421945E+03  0.7818608E-02  0.9821537E-01
         13   -1    0    0    0    0  0.00000000000E+00  0.00000000000E+00  0.10000000000E+04  0.10000000000E+04  0.00000000000E+00 0. -1.
          2   -1    0    0  501    0 -0.00000000000E+00 -0.00000000000E+00 -0.10310345124E+03  0.10310345124E+03  0.00000000000E+00 0. -1.
    9000006    2    1    2  501    0  0.00000000000E+00  0.00000000000E+00  0.89689654876E+03  0.11031034512E+04  0.64219452269E+03 0.  0.
         13    1    3    3    0    0 -0.30609445624E+03 -0.89290585923E+02  0.38333766036E+03  0.49861246146E+03  0.00000000000E+00 0. -1.
          2    1    3    3  501    0  0.30609445624E+03  0.89290585923E+02  0.51355888840E+03  0.60449098978E+03  0.00000000000E+00 0. -1.
<mgrwt>
<rscale>  0 0.64219452E+03</rscale>
<asrwt>0</asrwt>
<pdfrwt beam="1">0</pdfrwt>
<pdfrwt beam="2">  1        2 0.37492243E+00 0.64219452E+03</pdfrwt>
<totfact> 0.49379750E+00</totfact>
</mgrwt>
</event>
<event>
 5    1  0.2361924E-004  0.6511172E+03  0.7818608E-02  0.9804685E-01
         13   -1    0    0    0    0  0.00000000000E+00  0.00000000000E+00  0.10000000000E+04  0.10000000000E+04  0.00000000000E+00 0. -1.
          2   -1    0    0  501    0 -0.00000000000E+00 -0.00000000000E+00 -0.10598841687E+03  0.10598841687E+03  0.00000000000E+00 0. -1.
    9000006    2    1    2  501    0  0.00000000000E+00  0.00000000000E+00  0.89401158313E+03  0.11059884169E+04  0.65111724557E+03 0.  0.
         13    1    3    3    0    0  0.30619770327E+03  0.88884019356E+02  0.55879147811E+03  0.64335473760E+03  0.00000000000E+00 0. -1.
          2    1    3    3  501    0 -0.30619770327E+03 -0.88884019356E+02  0.33522010502E+03  0.46263367927E+03  0.00000000000E+00 0. -1.
<mgrwt>
<rscale>  0 0.65111725E+03</rscale>
<asrwt>0</asrwt>
<pdfrwt beam="1">0</pdfrwt>
<pdfrwt beam="2">  1        2 0.38541324E+00 0.65111725E+03</pdfrwt>
<totfact> 0.45137246E+00</totfact>
</mgrwt>
</event>
<event>
 5    1  0.2361924E-004  0.6378759E+03  0.7818608E-02  0.9829799E-01
         13   -1    0    0    0    0  0.00000000000E+00  0.00000000000E+00  0.10000000000E+04  0.10000000000E+04  0.00000000000E+00 0. -1.
          2   -1    0    0  501    0 -0.00000000000E+00 -0.00000000000E+00 -0.10172140343E+03  0.10172140343E+03  0.00000000000E+00 0. -1.
    9000006    2    1    2  501    0  0.00000000000E+00  0.00000000000E+00  0.89827859657E+03  0.11017214034E+04  0.63787586076E+03 0.  0.
         13    1    3    3    0    0  0.22805491459E+03  0.11699158471E+03  0.12131616724E+03  0.28357307241E+03  0.00000000000E+00 0. -1.
          2    1    3    3  501    0 -0.22805491459E+03 -0.11699158471E+03  0.77696242933E+03  0.81814833102E+03  0.00000000000E+00 0. -1.
<mgrwt>
<rscale>  0 0.63787586E+03</rscale>
<asrwt>0</asrwt>
<pdfrwt beam="1">0</pdfrwt>
<pdfrwt beam="2">  1        2 0.36989679E+00 0.63787586E+03</pdfrwt>
<totfact> 0.51538489E+00</totfact>
</mgrwt>
</event>
<event>
 5    1  0.2361924E-004  0.5925716E+03  0.7818608E-02  0.9920939E-01
         13   -1    0    0    0    0  0.00000000000E+00  0.00000000000E+00  0.10000000000E+04  0.10000000000E+04  0.00000000000E+00 0. -1.
          2   -1    0    0  501    0 -0.00000000000E+00 -0.00000000000E+00 -0.87785278719E+02  0.87785278719E+02  0.00000000000E+00 0. -1.
    9000006    2    1    2  501    0  0.00000000000E+00  0.00000000000E+00  0.91221472128E+03  0.10877852787E+04  0.59257161160E+03 0.  0.
         13    1    3    3    0    0 -0.13970189729E+03  0.23806355700E+03  0.65377087008E+03  0.70965289251E+03  0.00000000000E+00 0. -1.
          4    1    3    3  501    0  0.13970189729E+03 -0.23806355700E+03  0.25844385120E+03  0.37813238621E+03  0.00000000000E+00 0. -1.
<mgrwt>
<rscale>  0 0.59257161E+03</rscale>
<asrwt>0</asrwt>
<pdfrwt beam="1">0</pdfrwt>
<pdfrwt beam="2">  1        2 0.31921987E+00 0.59257161E+03</pdfrwt>
<totfact> 0.78780009E+00</totfact>
</mgrwt>
</event>
<event>
 5    1  0.2361924E-004  0.6403545E+03  0.7818608E-02  0.9825049E-01
         13   -1    0    0    0    0  0.00000000000E+00  0.00000000000E+00  0.10000000000E+04  0.10000000000E+04  0.00000000000E+00 0. -1.
          2   -1    0    0  501    0 -0.00000000000E+00 -0.00000000000E+00 -0.10251345774E+03  0.10251345774E+03  0.00000000000E+00 0. -1.
    9000006    2    1    2  501    0  0.00000000000E+00  0.00000000000E+00  0.89748654226E+03  0.11025134577E+04  0.64035445729E+03 0.  0.
         13    1    3    3    0    0  0.28822259947E+03  0.13491350150E+03  0.50936012437E+03  0.60060107895E+03  0.00000000000E+00 0. -1.
          4    1    3    3  501    0 -0.28822259947E+03 -0.13491350150E+03  0.38812641788E+03  0.50191237880E+03  0.00000000000E+00 0. -1.
<mgrwt>
<rscale>  0 0.64035446E+03</rscale>
<asrwt>0</asrwt>
<pdfrwt beam="1">0</pdfrwt>
<pdfrwt beam="2">  1        2 0.37277700E+00 0.64035446E+03</pdfrwt>
<totfact> 0.50290982E+00</totfact>
</mgrwt>
</event>
<event>
 5    1  0.2361924E-004  0.6604939E+03  0.7818608E-02  0.9787285E-01
         13   -1    0    0    0    0  0.00000000000E+00  0.00000000000E+00  0.10000000000E+04  0.10000000000E+04  0.00000000000E+00 0. -1.
          2   -1    0    0  501    0 -0.00000000000E+00 -0.00000000000E+00 -0.10906304597E+03  0.10906304597E+03  0.00000000000E+00 0. -1.
    9000006    2    1    2  501    0  0.00000000000E+00  0.00000000000E+00  0.89093695403E+03  0.11090630460E+04  0.66049389390E+03 0.  0.
         13    1    3    3    0    0  0.22354523563E+02  0.32696607535E+03  0.37712705020E+03  0.49963121515E+03  0.00000000000E+00 0. -1.
          4    1    3    3  501    0 -0.22354523563E+02 -0.32696607535E+03  0.51380990382E+03  0.60943183082E+03  0.00000000000E+00 0. -1.
<mgrwt>
<rscale>  0 0.66049389E+03</rscale>
<asrwt>0</asrwt>
<pdfrwt beam="1">0</pdfrwt>
<pdfrwt beam="2">  1        2 0.39659373E+00 0.66049389E+03</pdfrwt>
<totfact> 0.40982021E+00</totfact>
</mgrwt>
</event>
<event>
 5    1  0.2361924E-004  0.6184167E+03  0.7818608E-02  0.9867917E-01
         13   -1    0    0    0    0  0.00000000000E+00  0.00000000000E+00  0.10000000000E+04  0.10000000000E+04  0.00000000000E+00 0. -1.
          2   -1    0    0  501    0 -0.00000000000E+00 -0.00000000000E+00 -0.95609816997E+02  0.95609816997E+02  0.00000000000E+00 0. -1.
    9000006    2    1    2  501    0  0.00000000000E+00  0.00000000000E+00  0.90439018300E+03  0.10956098170E+04  0.61841674297E+03 0.  0.
         13    1    3    3    0    0  0.11850188653E+03  0.85935019648E+02 -0.30335442785E+02  0.14949168472E+03  0.00000000000E+00 0. -1.
          2    1    3    3  501    0 -0.11850188653E+03 -0.85935019648E+02  0.93472562579E+03  0.94611813227E+03  0.00000000000E+00 0. -1.
<mgrwt>
<rscale>  0 0.61841674E+03</rscale>
<asrwt>0</asrwt>
<pdfrwt beam="1">0</pdfrwt>
<pdfrwt beam="2">  1        2 0.34767279E+00 0.61841674E+03</pdfrwt>
<totfact> 0.62167520E+00</totfact>
</mgrwt>
</event>
<event>
 5    1  0.2361924E-004  0.6396662E+03  0.7818608E-02  0.9826365E-01
         13   -1    0    0    0    0  0.00000000000E+00  0.00000000000E+00  0.10000000000E+04  0.10000000000E+04  0.00000000000E+00 0. -1.
          2   -1    0    0  501    0 -0.00000000000E+00 -0.00000000000E+00 -0.10229322201E+03  0.10229322201E+03  0.00000000000E+00 0. -1.
    9000006    2    1    2  501    0  0.00000000000E+00  0.00000000000E+00  0.89770677799E+03  0.11022932220E+04  0.63966623175E+03 0.  0.
         13    1    3    3    0    0  0.18036052048E+03 -0.24436950098E+03  0.62157978329E+03  0.69181485771E+03  0.00000000000E+00 0. -1.
          2    1    3    3  501    0 -0.18036052048E+03  0.24436950098E+03  0.27612699470E+03  0.41047836430E+03  0.00000000000E+00 0. -1.
<mgrwt>
<rscale>  0 0.63966623E+03</rscale>
<asrwt>0</asrwt>
<pdfrwt beam="1">0</pdfrwt>
<pdfrwt beam="2">  1        2 0.37197614E+00 0.63966623E+03</pdfrwt>
<totfact> 0.50635055E+00</totfact>
</mgrwt>
</event>
<event>
 5    1  0.2361924E-004  0.6506373E+03  0.7818608E-02  0.9805584E-01
         13   -1    0    0    0    0  0.00000000000E+00  0.00000000000E+00  0.10000000000E+04  0.10000000000E+04  0.00000000000E+00 0. -1.
          2   -1    0    0  501    0 -0.00000000000E+00 -0.00000000000E+00 -0.10583221042E+03  0.10583221042E+03  0.00000000000E+00 0. -1.
    9000006    2    1    2  501    0  0.00000000000E+00  0.00000000000E+00  0.89416778958E+03  0.11058322104E+04  0.65063725815E+03 0.  0.
         13    1    3    3    0    0 -0.10802505770E+03  0.70647090506E+02 -0.60448817225E+02  0.14252888827E+03  0.00000000000E+00 0. -1.
          4    1    3    3  501    0  0.10802505770E+03 -0.70647090506E+02  0.95461660680E+03  0.96330332215E+03  0.00000000000E+00 0. -1.
<mgrwt>
<rscale>  0 0.65063726E+03</rscale>
<asrwt>0</asrwt>
<pdfrwt beam="1">0</pdfrwt>
<pdfrwt beam="2">  1        2 0.38484521E+00 0.65063726E+03</pdfrwt>
<totfact> 0.45358183E+00</totfact>
</mgrwt>
</event>
<event>
 5    1  0.2361924E-004  0.6311556E+03  0.7818608E-02  0.9842796E-01
         13   -1    0    0    0    0  0.00000000000E+00  0.00000000000E+00  0.10000000000E+04  0.10000000000E+04  0.00000000000E+00 0. -1.
          2   -1    0    0  501    0 -0.00000000000E+00 -0.00000000000E+00 -0.99589362931E+02  0.99589362931E+02  0.00000000000E+00 0. -1.
    9000006    2    1    2  501    0  0.00000000000E+00  0.00000000000E+00  0.90041063707E+03  0.10995893629E+04  0.63115564778E+03 0.  0.
         13    1    3    3    0    0  0.88059632091E+02  0.17644187774E+03  0.20965905650E+02  0.19830734788E+03  0.00000000000E+00 0. -1.
          4    1    3    3  501    0 -0.88059632091E+02 -0.17644187774E+03  0.87944473142E+03  0.90128201505E+03  0.00000000000E+00 0. -1.
<mgrwt>
<rscale>  0 0.63115565E+03</rscale>
<asrwt>0</asrwt>
<pdfrwt beam="1">0</pdfrwt>
<pdfrwt beam="2">  1        2 0.36214390E+00 0.63115565E+03</pdfrwt>
<totfact> 0.55038985E+00</totfact>
</mgrwt>
</event>
<event>
 5    1  0.2361924E-004  0.6476317E+03  0.7818608E-02  0.9811233E-01
         13   -1    0    0    0    0  0.00000000000E+00  0.00000000000E+00  0.10000000000E+04  0.10000000000E+04  0.00000000000E+00 0. -1.
          2   -1    0    0  501    0 -0.00000000000E+00 -0.00000000000E+00 -0.10485671064E+03  0.10485671064E+03  0.00000000000E+00 0. -1.
    9000006    2    1    2  501    0  0.00000000000E+00  0.00000000000E+00  0.89514328936E+03  0.11048567106E+04  0.64763171831E+03 0.  0.
         13    1    3    3    0    0 -0.25896616595E+03 -0.70749830725E+02  0.75648259514E+03  0.80270475917E+03  0.00000000000E+00 0. -1.
          4    1    3    3  501    0  0.25896616595E+03  0.70749830725E+02  0.13866069422E+03  0.30215195147E+03  0.00000000000E+00 0. -1.
<mgrwt>
<rscale>  0 0.64763172E+03</rscale>
<asrwt>0</asrwt>
<pdfrwt beam="1">0</pdfrwt>
<pdfrwt beam="2">  1        2 0.38129793E+00 0.64763172E+03</pdfrwt>
<totfact> 0.46760265E+00</totfact>
</mgrwt>
</event>
<event>
 5    1  0.2361924E-004  0.6457923E+03  0.7818608E-02  0.9814707E-01
         13   -1    0    0    0    0  0.00000000000E+00  0.00000000000E+00  0.10000000000E+04  0.10000000000E+04  0.00000000000E+00 0. -1.
          4   -1    0    0  501    0 -0.00000000000E+00 -0.00000000000E+00 -0.10426193949E+03  0.10426193949E+03  0.00000000000E+00 0. -1.
    9000006    2    1    2  501    0  0.00000000000E+00  0.00000000000E+00  0.89573806051E+03  0.11042619395E+04  0.64579234894E+03 0.  0.
         13    1    3    3    0    0 -0.31049945961E+03 -0.81978258468E+01  0.29699881294E+03  0.42975040856E+03  0.00000000000E+00 0. -1.
          4    1    3    3  501    0  0.31049945961E+03  0.81978258468E+01  0.59873924757E+03  0.67451153092E+03  0.00000000000E+00 0. -1.
<mgrwt>
<rscale>  0 0.64579235E+03</rscale>
<asrwt>0</asrwt>
<pdfrwt beam="1">0</pdfrwt>
<pdfrwt beam="2">  1        4 0.37913512E+00 0.64579235E+03</pdfrwt>
<totfact> 0.44464685E-02</totfact>
</mgrwt>
</event>
<event>
 5    1  0.2361924E-004  0.6498017E+03  0.7818608E-02  0.9807151E-01
         13   -1    0    0    0    0  0.00000000000E+00  0.00000000000E+00  0.10000000000E+04  0.10000000000E+04  0.00000000000E+00 0. -1.
          2   -1    0    0  501    0 -0.00000000000E+00 -0.00000000000E+00 -0.10556057160E+03  0.10556057160E+03  0.00000000000E+00 0. -1.
    9000006    2    1    2  501    0  0.00000000000E+00  0.00000000000E+00  0.89443942840E+03  0.11055605716E+04  0.64980172853E+03 0.  0.
         13    1    3    3    0    0 -0.18989376186E+03 -0.26039284351E+03  0.51729717176E+03  0.60947554311E+03  0.00000000000E+00 0. -1.
          2    1    3    3  501    0  0.18989376186E+03  0.26039284351E+03  0.37714225664E+03  0.49608502849E+03  0.00000000000E+00 0. -1.
<mgrwt>
<rscale>  0 0.64980173E+03</rscale>
<asrwt>0</asrwt>
<pdfrwt beam="1">0</pdfrwt>
<pdfrwt beam="2">  1        2 0.38385743E+00 0.64980173E+03</pdfrwt>
<totfact> 0.45744723E+00</totfact>
</mgrwt>
</event>
<event>
 5    1  0.2361924E-004  0.6507417E+03  0.7818608E-02  0.9805388E-01
         13   -1    0    0    0    0  0.00000000000E+00  0.00000000000E+00  0.10000000000E+04  0.10000000000E+04  0.00000000000E+00 0. -1.
          2   -1    0    0  501    0 -0.00000000000E+00 -0.00000000000E+00 -0.10586618701E+03  0.10586618701E+03  0.00000000000E+00 0. -1.
    9000006    2    1    2  501    0  0.00000000000E+00  0.00000000000E+00  0.89413381299E+03  0.11058661870E+04  0.65074169072E+03 0.  0.
         13    1    3    3    0    0 -0.11215072687E+03 -0.12490865831E+03 -0.26592282478E+02  0.16996207796E+03  0.00000000000E+00 0. -1.
          2    1    3    3  501    0  0.11215072687E+03  0.12490865831E+03  0.92072609547E+03  0.93590410905E+03  0.00000000000E+00 0. -1.
<mgrwt>
<rscale>  0 0.65074169E+03</rscale>
<asrwt>0</asrwt>
<pdfrwt beam="1">0</pdfrwt>
<pdfrwt beam="2">  1        2 0.38496876E+00 0.65074169E+03</pdfrwt>
<totfact> 0.45310044E+00</totfact>
</mgrwt>
</event>
<event>
 5    1  0.2361924E-004  0.6503028E+03  0.7818608E-02  0.9806211E-01
         13   -1    0    0    0    0  0.00000000000E+00  0.00000000000E+00  0.10000000000E+04  0.10000000000E+04  0.00000000000E+00 0. -1.
          2   -1    0    0  501    0 -0.00000000000E+00 -0.00000000000E+00 -0.10572343890E+03  0.10572343890E+03  0.00000000000E+00 0. -1.
    9000006    2    1    2  501    0  0.00000000000E+00  0.00000000000E+00  0.89427656110E+03  0.11057234389E+04  0.65030281838E+03 0.  0.
         13    1    3    3    0    0 -0.13951807318E+03  0.13065784097E+03  0.89437979413E+03  0.91457748731E+03  0.00000000000E+00 0. -1.
          2    1    3    3  501    0  0.13951807318E+03 -0.13065784097E+03 -0.10323302469E+00  0.19114595159E+03  0.00000000000E+00 0. -1.
<mgrwt>
<rscale>  0 0.65030282E+03</rscale>
<asrwt>0</asrwt>
<pdfrwt beam="1">0</pdfrwt>
<pdfrwt beam="2">  1        2 0.38444968E+00 0.65030282E+03</pdfrwt>
<totfact> 0.45512607E+00</totfact>
</mgrwt>
</event>
<event>
 5    1  0.2361924E-004  0.6518946E+03  0.7818608E-02  0.9803231E-01
         13   -1    0    0    0    0  0.00000000000E+00  0.00000000000E+00  0.10000000000E+04  0.10000000000E+04  0.00000000000E+00 0. -1.
          2   -1    0    0  501    0 -0.00000000000E+00 -0.00000000000E+00 -0.10624164299E+03  0.10624164299E+03  0.00000000000E+00 0. -1.
    9000006    2    1    2  501    0  0.00000000000E+00  0.00000000000E+00  0.89375835701E+03  0.11062416430E+04  0.65189460188E+03 0.  0.
         13    1    3    3    0    0 -0.17012490304E+03 -0.10817479643E+03  0.12253037006E+02  0.20197625141E+03  0.00000000000E+00 0. -1.
          4    1    3    3  501    0  0.17012490304E+03  0.10817479643E+03  0.88150532000E+03  0.90426539158E+03  0.00000000000E+00 0. -1.
<mgrwt>
<rscale>  0 0.65189460E+03</rscale>
<asrwt>0</asrwt>
<pdfrwt beam="1">0</pdfrwt>
<pdfrwt beam="2">  1        2 0.38633406E+00 0.65189460E+03</pdfrwt>
<totfact> 0.44781158E+00</totfact>
</mgrwt>
</event>
<event>
 5    1  0.2361924E-004  0.6445538E+03  0.7818608E-02  0.9817053E-01
         13   -1    0    0    0    0  0.00000000000E+00  0.00000000000E+00  0.10000000000E+04  0.10000000000E+04  0.00000000000E+00 0. -1.
          2   -1    0    0  501    0 -0.00000000000E+00 -0.00000000000E+00 -0.10386238619E+03  0.10386238619E+03  0.00000000000E+00 0. -1.
    9000006    2    1    2  501    0  0.00000000000E+00  0.00000000000E+00  0.89613761381E+03  0.11038623862E+04  0.64455375631E+03 0.  0.
         13    1    3    3    0    0 -0.22542164135E+03 -0.19806603987E+03  0.24675776362E+03  0.38850285256E+03  0.00000000000E+00 0. -1.
          2    1    3    3  501    0  0.22542164135E+03  0.19806603987E+03  0.64937985018E+03  0.71535953363E+03  0.00000000000E+00 0. -1.
<mgrwt>
<rscale>  0 0.64455376E+03</rscale>
<asrwt>0</asrwt>
<pdfrwt beam="1">0</pdfrwt>
<pdfrwt beam="2">  1        2 0.37768220E+00 0.64455376E+03</pdfrwt>
<totfact> 0.48229849E+00</totfact>
</mgrwt>
</event>
<event>
 5    1  0.2361924E-004  0.6476203E+03  0.7818608E-02  0.9811255E-01
         13   -1    0    0    0    0  0.00000000000E+00  0.00000000000E+00  0.10000000000E+04  0.10000000000E+04  0.00000000000E+00 0. -1.
          2   -1    0    0  501    0 -0.00000000000E+00 -0.00000000000E+00 -0.10485301525E+03  0.10485301525E+03  0.00000000000E+00 0. -1.
    9000006    2    1    2  501    0  0.00000000000E+00  0.00000000000E+00  0.89514698475E+03  0.11048530152E+04  0.64762030619E+03 0.  0.
         13    1    3    3    0    0  0.26899078982E+03 -0.63844571692E+02  0.73518251706E+03  0.78544605654E+03  0.00000000000E+00 0. -1.
          2    1    3    3  501    0 -0.26899078982E+03  0.63844571692E+02  0.15996446769E+03  0.31940695870E+03  0.00000000000E+00 0. -1.
<mgrwt>
<rscale>  0 0.64762031E+03</rscale>
<asrwt>0</asrwt>
<pdfrwt beam="1">0</pdfrwt>
<pdfrwt beam="2">  1        2 0.38128450E+00 0.64762031E+03</pdfrwt>
<totfact> 0.46765651E+00</totfact>
</mgrwt>
</event>
<event>
 5    1  0.2361924E-004  0.6493810E+03  0.7818608E-02  0.9807941E-01
         13   -1    0    0    0    0  0.00000000000E+00  0.00000000000E+00  0.10000000000E+04  0.10000000000E+04  0.00000000000E+00 0. -1.
          2   -1    0    0  501    0 -0.00000000000E+00 -0.00000000000E+00 -0.10542391743E+03  0.10542391743E+03  0.00000000000E+00 0. -1.
    9000006    2    1    2  501    0  0.00000000000E+00  0.00000000000E+00  0.89457608257E+03  0.11054239174E+04  0.64938098965E+03 0.  0.
         13    1    3    3    0    0  0.42959393339E+02  0.31810263099E+03  0.36408319132E+03  0.48537754740E+03  0.00000000000E+00 0. -1.
          2    1    3    3  501    0 -0.42959393339E+02 -0.31810263099E+03  0.53049289125E+03  0.62004637003E+03  0.00000000000E+00 0. -1.
<mgrwt>
<rscale>  0 0.64938099E+03</rscale>
<asrwt>0</asrwt>
<pdfrwt beam="1">0</pdfrwt>
<pdfrwt beam="2">  1        2 0.38336051E+00 0.64938099E+03</pdfrwt>
<totfact> 0.45940309E+00</totfact>
</mgrwt>
</event>
<event>
 5    1  0.2361924E-004  0.6452563E+03  0.7818608E-02  0.9815721E-01
         13   -1    0    0    0    0  0.00000000000E+00  0.00000000000E+00  0.10000000000E+04  0.10000000000E+04  0.00000000000E+00 0. -1.
          2   -1    0    0  501    0 -0.00000000000E+00 -0.00000000000E+00 -0.10408892888E+03  0.10408892888E+03  0.00000000000E+00 0. -1.
    9000006    2    1    2  501    0  0.00000000000E+00  0.00000000000E+00  0.89591107112E+03  0.11040889289E+04  0.64525631769E+03 0.  0.
         13    1    3    3    0    0  0.82858088115E+02 -0.13598522577E+03  0.92807134823E+03  0.94163361867E+03  0.00000000000E+00 0. -1.
          4    1    3    3  501    0 -0.82858088115E+02  0.13598522577E+03 -0.32160277111E+02  0.16245531021E+03  0.00000000000E+00 0. -1.
<mgrwt>
<rscale>  0 0.64525632E+03</rscale>
<asrwt>0</asrwt>
<pdfrwt beam="1">0</pdfrwt>
<pdfrwt beam="2">  1        2 0.37850599E+00 0.64525632E+03</pdfrwt>
<totfact> 0.47891375E+00</totfact>
</mgrwt>
</event>
<event>
 5    1  0.2361924E-004  0.6395913E+03  0.7818608E-02  0.9826509E-01
         13   -1    0    0    0    0  0.00000000000E+00  0.00000000000E+00  0.10000000000E+04  0.10000000000E+04  0.00000000000E+00 0. -1.
          2   -1    0    0  501    0 -0.00000000000E+00 -0.00000000000E+00 -0.10226926832E+03  0.10226926832E+03  0.00000000000E+00 0. -1.
    9000006    2    1    2  501    0  0.00000000000E+00  0.00000000000E+00  0.89773073168E+03  0.11022692683E+04  0.63959133303E+03 0.  0.
         13    1    3    3    0    0  0.19770260124E+03  0.92931787866E+02  0.85136834724E+03  0.87894863241E+03  0.00000000000E+00 0. -1.
          2    1    3    3  501    0 -0.19770260124E+03 -0.92931787866E+02  0.46362384438E+02  0.22332063591E+03  0.00000000000E+00 0. -1.
<mgrwt>
<rscale>  0 0.63959133E+03</rscale>
<asrwt>0</asrwt>
<pdfrwt beam="1">0</pdfrwt>
<pdfrwt beam="2">  1        2 0.37188903E+00 0.63959133E+03</pdfrwt>
<totfact> 0.50672607E+00</totfact>
</mgrwt>
</event>
<event>
 5    1  0.2361924E-004  0.5557666E+03  0.7818608E-02  0.1000168E+00
         13   -1    0    0    0    0  0.00000000000E+00  0.00000000000E+00  0.10000000000E+04  0.10000000000E+04  0.00000000000E+00 0. -1.
          2   -1    0    0  501    0 -0.00000000000E+00 -0.00000000000E+00 -0.77219124406E+02  0.77219124406E+02  0.00000000000E+00 0. -1.
    9000006    2    1    2  501    0  0.00000000000E+00  0.00000000000E+00  0.92278087559E+03  0.10772191244E+04  0.55576658556E+03 0.  0.
         13    1    3    3    0    0 -0.16461972002E+03 -0.15177475342E+03  0.78037318573E+03  0.81186054036E+03  0.00000000000E+00 0. -1.
          4    1    3    3  501    0  0.16461972002E+03  0.15177475342E+03  0.14240768987E+03  0.26535858405E+03  0.00000000000E+00 0. -1.
<mgrwt>
<rscale>  0 0.55576659E+03</rscale>
<asrwt>0</asrwt>
<pdfrwt beam="1">0</pdfrwt>
<pdfrwt beam="2">  1        2 0.28079741E+00 0.55576659E+03</pdfrwt>
<totfact> 0.10813463E+01</totfact>
</mgrwt>
</event>
<event>
 5    1  0.2361924E-004  0.6516845E+03  0.7818608E-02  0.9803623E-01
         13   -1    0    0    0    0  0.00000000000E+00  0.00000000000E+00  0.10000000000E+04  0.10000000000E+04  0.00000000000E+00 0. -1.
          4   -1    0    0  501    0 -0.00000000000E+00 -0.00000000000E+00 -0.10617318142E+03  0.10617318142E+03  0.00000000000E+00 0. -1.
    9000006    2    1    2  501    0  0.00000000000E+00  0.00000000000E+00  0.89382681858E+03  0.11061731814E+04  0.65168452925E+03 0.  0.
         13    1    3    3    0    0  0.21953435583E+03  0.14375811083E+03  0.77478727286E+03  0.81802019902E+03  0.00000000000E+00 0. -1.
          4    1    3    3  501    0 -0.21953435583E+03 -0.14375811083E+03  0.11903954573E+03  0.28815298240E+03  0.00000000000E+00 0. -1.
<mgrwt>
<rscale>  0 0.65168453E+03</rscale>
<asrwt>0</asrwt>
<pdfrwt beam="1">0</pdfrwt>
<pdfrwt beam="2">  1        4 0.38608511E+00 0.65168453E+03</pdfrwt>
<totfact> 0.39913160E-02</totfact>
</mgrwt>
</event>
<event>
 5    1  0.2361924E-004  0.6576322E+03  0.7818608E-02  0.9792562E-01
         13   -1    0    0    0    0  0.00000000000E+00  0.00000000000E+00  0.10000000000E+04  0.10000000000E+04  0.00000000000E+00 0. -1.
          2   -1    0    0  501    0 -0.00000000000E+00 -0.00000000000E+00 -0.10812002438E+03  0.10812002438E+03  0.00000000000E+00 0. -1.
    9000006    2    1    2  501    0  0.00000000000E+00  0.00000000000E+00  0.89187997562E+03  0.11081200244E+04  0.65763219014E+03 0.  0.
         13    1    3    3    0    0 -0.43075887752E+02 -0.29088333901E+03  0.69387992357E+03  0.75361661165E+03  0.00000000000E+00 0. -1.
          4    1    3    3  501    0  0.43075887752E+02  0.29088333901E+03  0.19800005205E+03  0.35450341272E+03  0.00000000000E+00 0. -1.
<mgrwt>
<rscale>  0 0.65763219E+03</rscale>
<asrwt>0</asrwt>
<pdfrwt beam="1">0</pdfrwt>
<pdfrwt beam="2">  1        2 0.39316455E+00 0.65763219E+03</pdfrwt>
<totfact> 0.42218095E+00</totfact>
</mgrwt>
</event>
<event>
 5    1  0.2361924E-004  0.6220803E+03  0.7818608E-02  0.9860626E-01
         13   -1    0    0    0    0  0.00000000000E+00  0.00000000000E+00  0.10000000000E+04  0.10000000000E+04  0.00000000000E+00 0. -1.
          2   -1    0    0  501    0 -0.00000000000E+00 -0.00000000000E+00 -0.96745980988E+02  0.96745980988E+02  0.00000000000E+00 0. -1.
    9000006    2    1    2  501    0  0.00000000000E+00  0.00000000000E+00  0.90325401901E+03  0.10967459810E+04  0.62208031953E+03 0.  0.
         13    1    3    3    0    0  0.27938821843E+03  0.10306323588E+03  0.60996800729E+03  0.67877888675E+03  0.00000000000E+00 0. -1.
          4    1    3    3  501    0 -0.27938821843E+03 -0.10306323588E+03  0.29328601172E+03  0.41796709423E+03  0.00000000000E+00 0. -1.
<mgrwt>
<rscale>  0 0.62208032E+03</rscale>
<asrwt>0</asrwt>
<pdfrwt beam="1">0</pdfrwt>
<pdfrwt beam="2">  1        2 0.35180431E+00 0.62208032E+03</pdfrwt>
<totfact> 0.60049448E+00</totfact>
</mgrwt>
</event>
<event>
 5    1  0.2361924E-004  0.6714104E+03  0.7818608E-02  0.9767413E-01
         13   -1    0    0    0    0  0.00000000000E+00  0.00000000000E+00  0.10000000000E+04  0.10000000000E+04  0.00000000000E+00 0. -1.
          2   -1    0    0  501    0 -0.00000000000E+00 -0.00000000000E+00 -0.11269796807E+03  0.11269796807E+03  0.00000000000E+00 0. -1.
    9000006    2    1    2  501    0  0.00000000000E+00  0.00000000000E+00  0.88730203193E+03  0.11126979681E+04  0.67141036056E+03 0.  0.
         13    1    3    3    0    0 -0.42920150768E+02 -0.23898327959E+03  0.59457982877E+02  0.24998079725E+03  0.00000000000E+00 0. -1.
          4    1    3    3  501    0  0.42920150768E+02  0.23898327959E+03  0.82784404906E+03  0.86271717082E+03  0.00000000000E+00 0. -1.
<mgrwt>
<rscale>  0 0.67141036E+03</rscale>
<asrwt>0</asrwt>
<pdfrwt beam="1">0</pdfrwt>
<pdfrwt beam="2">  1        2 0.40981166E+00 0.67141036E+03</pdfrwt>
<totfact> 0.36515834E+00</totfact>
</mgrwt>
</event>
<event>
 5    1  0.2361924E-004  0.6536619E+03  0.7818608E-02  0.9799932E-01
         13   -1    0    0    0    0  0.00000000000E+00  0.00000000000E+00  0.10000000000E+04  0.10000000000E+04  0.00000000000E+00 0. -1.
          2   -1    0    0  501    0 -0.00000000000E+00 -0.00000000000E+00 -0.10681847989E+03  0.10681847989E+03  0.00000000000E+00 0. -1.
    9000006    2    1    2  501    0  0.00000000000E+00  0.00000000000E+00  0.89318152011E+03  0.11068184799E+04  0.65366193062E+03 0.  0.
         13    1    3    3    0    0 -0.21531621504E+03 -0.13021667639E+03  0.93429585490E+02  0.26841487052E+03  0.00000000000E+00 0. -1.
          2    1    3    3  501    0  0.21531621504E+03  0.13021667639E+03  0.79975193462E+03  0.83840360937E+03  0.00000000000E+00 0. -1.
<mgrwt>
<rscale>  0 0.65366193E+03</rscale>
<asrwt>0</asrwt>
<pdfrwt beam="1">0</pdfrwt>
<pdfrwt beam="2">  1        2 0.38843166E+00 0.65366193E+03</pdfrwt>
<totfact> 0.43979485E+00</totfact>
</mgrwt>
</event>
<event>
 5    1  0.2361924E-004  0.6378761E+03  0.7818608E-02  0.9829799E-01
         13   -1    0    0    0    0  0.00000000000E+00  0.00000000000E+00  0.10000000000E+04  0.10000000000E+04  0.00000000000E+00 0. -1.
          2   -1    0    0  501    0 -0.00000000000E+00 -0.00000000000E+00 -0.10172149112E+03  0.10172149112E+03  0.00000000000E+00 0. -1.
    9000006    2    1    2  501    0  0.00000000000E+00  0.00000000000E+00  0.89827850888E+03  0.11017214911E+04  0.63787613568E+03 0.  0.
         13    1    3    3    0    0  0.33593492797E+02 -0.30283019194E+03  0.28631870138E+03  0.41810650159E+03  0.00000000000E+00 0. -1.
          2    1    3    3  501    0 -0.33593492797E+02  0.30283019194E+03  0.61195980750E+03  0.68361498953E+03  0.00000000000E+00 0. -1.
<mgrwt>
<rscale>  0 0.63787614E+03</rscale>
<asrwt>0</asrwt>
<pdfrwt beam="1">0</pdfrwt>
<pdfrwt beam="2">  1        2 0.36989711E+00 0.63787614E+03</pdfrwt>
<totfact> 0.51538349E+00</totfact>
</mgrwt>
</event>
<event>
 5    1  0.2361924E-004  0.6630791E+03  0.7818608E-02  0.9782542E-01
         13   -1    0    0    0    0  0.00000000000E+00  0.00000000000E+00  0.10000000000E+04  0.10000000000E+04  0.00000000000E+00 0. -1.
          2   -1    0    0  501    0 -0.00000000000E+00 -0.00000000000E+00 -0.10991846050E+03  0.10991846050E+03  0.00000000000E+00 0. -1.
    9000006    2    1    2  501    0  0.00000000000E+00  0.00000000000E+00  0.89008153950E+03  0.11099184605E+04  0.66307906165E+03 0.  0.
         13    1    3    3    0    0 -0.16128164577E+03 -0.17191999898E+03  0.54805647468E+02  0.24201635132E+03  0.00000000000E+00 0. -1.
          2    1    3    3  501    0  0.16128164577E+03  0.17191999898E+03  0.83527589203E+03  0.86790210918E+03  0.00000000000E+00 0. -1.
<mgrwt>
<rscale>  0 0.66307906E+03</rscale>
<asrwt>0</asrwt>
<pdfrwt beam="1">0</pdfrwt>
<pdfrwt beam="2">  1        2 0.39970434E+00 0.66307906E+03</pdfrwt>
<totfact> 0.39889077E+00</totfact>
</mgrwt>
</event>
<event>
 5    1  0.2361924E-004  0.6587156E+03  0.7818608E-02  0.9790561E-01
         13   -1    0    0    0    0  0.00000000000E+00  0.00000000000E+00  0.10000000000E+04  0.10000000000E+04  0.00000000000E+00 0. -1.
          2   -1    0    0  501    0 -0.00000000000E+00 -0.00000000000E+00 -0.10847654431E+03  0.10847654431E+03  0.00000000000E+00 0. -1.
    9000006    2    1    2  501    0  0.00000000000E+00  0.00000000000E+00  0.89152345569E+03  0.11084765443E+04  0.65871555109E+03 0.  0.
         13    1    3    3    0    0 -0.25371735236E+03 -0.17407246441E+03  0.64346443064E+03  0.71324623466E+03  0.00000000000E+00 0. -1.
          4    1    3    3  501    0  0.25371735236E+03  0.17407246441E+03  0.24805902504E+03  0.39523030965E+03  0.00000000000E+00 0. -1.
<mgrwt>
<rscale>  0 0.65871555E+03</rscale>
<asrwt>0</asrwt>
<pdfrwt beam="1">0</pdfrwt>
<pdfrwt beam="2">  1        2 0.39446099E+00 0.65871555E+03</pdfrwt>
<totfact> 0.41746875E+00</totfact>
</mgrwt>
</event>
<event>
 5    1  0.2361924E-004  0.6571065E+03  0.7818608E-02  0.9793535E-01
         13   -1    0    0    0    0  0.00000000000E+00  0.00000000000E+00  0.10000000000E+04  0.10000000000E+04  0.00000000000E+00 0. -1.
          2   -1    0    0  501    0 -0.00000000000E+00 -0.00000000000E+00 -0.10794723656E+03  0.10794723656E+03  0.00000000000E+00 0. -1.
    9000006    2    1    2  501    0  0.00000000000E+00  0.00000000000E+00  0.89205276344E+03  0.11079472366E+04  0.65710649535E+03 0.  0.
         13    1    3    3    0    0 -0.17555040996E+03 -0.20535520367E+03  0.76127987123E+03  0.80779684850E+03  0.00000000000E+00 0. -1.
          4    1    3    3  501    0  0.17555040996E+03  0.20535520367E+03  0.13077289221E+03  0.30015038805E+03  0.00000000000E+00 0. -1.
<mgrwt>
<rscale>  0 0.65710650E+03</rscale>
<asrwt>0</asrwt>
<pdfrwt beam="1">0</pdfrwt>
<pdfrwt beam="2">  1        2 0.39253623E+00 0.65710650E+03</pdfrwt>
<totfact> 0.42448203E+00</totfact>
</mgrwt>
</event>
<event>
 5    1  0.2361924E-004  0.6478502E+03  0.7818608E-02  0.9810821E-01
         13   -1    0    0    0    0  0.00000000000E+00  0.00000000000E+00  0.10000000000E+04  0.10000000000E+04  0.00000000000E+00 0. -1.
          2   -1    0    0  501    0 -0.00000000000E+00 -0.00000000000E+00 -0.10492747996E+03  0.10492747996E+03  0.00000000000E+00 0. -1.
    9000006    2    1    2  501    0  0.00000000000E+00  0.00000000000E+00  0.89507252004E+03  0.11049274800E+04  0.64785022948E+03 0.  0.
         13    1    3    3    0    0  0.18452157214E+03  0.43092325000E+02  0.89561458596E+03  0.91544013766E+03  0.00000000000E+00 0. -1.
          2    1    3    3  501    0 -0.18452157214E+03 -0.43092325000E+02 -0.54206591638E+00  0.18948734230E+03  0.00000000000E+00 0. -1.
<mgrwt>
<rscale>  0 0.64785023E+03</rscale>
<asrwt>0</asrwt>
<pdfrwt beam="1">0</pdfrwt>
<pdfrwt beam="2">  1        2 0.38155528E+00 0.64785023E+03</pdfrwt>
<totfact> 0.46657240E+00</totfact>
</mgrwt>
</event>
<event>
 5    1  0.2361924E-004  0.6484417E+03  0.7818608E-02  0.9809708E-01
         13   -1    0    0    0    0  0.00000000000E+00  0.00000000000E+00  0.10000000000E+04  0.10000000000E+04  0.00000000000E+00 0. -1.
          2   -1    0    0  501    0 -0.00000000000E+00 -0.00000000000E+00 -0.10511915968E+03  0.10511915968E+03  0.00000000000E+00 0. -1.
    9000006    2    1    2  501    0  0.00000000000E+00  0.00000000000E+00  0.89488084032E+03  0.11051191597E+04  0.64844170034E+03 0.  0.
         13    1    3    3    0    0 -0.23791373886E+03  0.15753626414E+03  0.70980122230E+03  0.76500875605E+03  0.00000000000E+00 0. -1.
          4    1    3    3  501    0  0.23791373886E+03 -0.15753626414E+03  0.18507961802E+03  0.34011040364E+03  0.00000000000E+00 0. -1.
<mgrwt>
<rscale>  0 0.64844170E+03</rscale>
<asrwt>0</asrwt>
<pdfrwt beam="1">0</pdfrwt>
<pdfrwt beam="2">  1        2 0.38225230E+00 0.64844170E+03</pdfrwt>
<totfact> 0.46379229E+00</totfact>
</mgrwt>
</event>
<event>
 5    1  0.2361924E-004  0.6495441E+03  0.7818608E-02  0.9807635E-01
         13   -1    0    0    0    0  0.00000000000E+00  0.00000000000E+00  0.10000000000E+04  0.10000000000E+04  0.00000000000E+00 0. -1.
          2   -1    0    0  501    0 -0.00000000000E+00 -0.00000000000E+00 -0.10547687008E+03  0.10547687008E+03  0.00000000000E+00 0. -1.
    9000006    2    1    2  501    0  0.00000000000E+00  0.00000000000E+00  0.89452312992E+03  0.11054768701E+04  0.64954405571E+03 0.  0.
         13    1    3    3    0    0 -0.14717223941E+03 -0.20097523614E+03  0.80192526786E+03  0.83972307866E+03  0.00000000000E+00 0. -1.
          2    1    3    3  501    0  0.14717223941E+03  0.20097523614E+03  0.92597862061E+02  0.26575379142E+03  0.00000000000E+00 0. -1.
<mgrwt>
<rscale>  0 0.64954406E+03</rscale>
<asrwt>0</asrwt>
<pdfrwt beam="1">0</pdfrwt>
<pdfrwt beam="2">  1        2 0.38355306E+00 0.64954406E+03</pdfrwt>
<totfact> 0.45864430E+00</totfact>
</mgrwt>
</event>
<event>
 5    1  0.2361924E-004  0.6214252E+03  0.7818608E-02  0.9861926E-01
         13   -1    0    0    0    0  0.00000000000E+00  0.00000000000E+00  0.10000000000E+04  0.10000000000E+04  0.00000000000E+00 0. -1.
          2   -1    0    0  501    0 -0.00000000000E+00 -0.00000000000E+00 -0.96542307816E+02  0.96542307816E+02  0.00000000000E+00 0. -1.
    9000006    2    1    2  501    0  0.00000000000E+00  0.00000000000E+00  0.90345769218E+03  0.10965423078E+04  0.62142516143E+03 0.  0.
         13    1    3    3    0    0  0.19441285807E+03 -0.22708749020E+02  0.87753401373E+03  0.89909843283E+03  0.00000000000E+00 0. -1.
          4    1    3    3  501    0 -0.19441285807E+03  0.22708749020E+02  0.25923678456E+02  0.19744387499E+03  0.00000000000E+00 0. -1.
<mgrwt>
<rscale>  0 0.62142516E+03</rscale>
<asrwt>0</asrwt>
<pdfrwt beam="1">0</pdfrwt>
<pdfrwt beam="2">  1        2 0.35106368E+00 0.62142516E+03</pdfrwt>
<totfact> 0.60424129E+00</totfact>
</mgrwt>
</event>
<event>
 5    1  0.2361924E-004  0.6446491E+03  0.7818608E-02  0.9816872E-01
         13   -1    0    0    0    0  0.00000000000E+00  0.00000000000E+00  0.10000000000E+04  0.10000000000E+04  0.00000000000E+00 0. -1.
          2   -1    0    0  501    0 -0.00000000000E+00 -0.00000000000E+00 -0.10389312757E+03  0.10389312757E+03  0.00000000000E+00 0. -1.
    9000006    2    1    2  501    0  0.00000000000E+00  0.00000000000E+00  0.89610687243E+03  0.11038931276E+04  0.64464913734E+03 0.  0.
         13    1    3    3    0    0  0.12487165728E+03 -0.21835825601E+03  0.79317562490E+03  0.83210626166E+03  0.00000000000E+00 0. -1.
          4    1    3    3  501    0 -0.12487165728E+03  0.21835825601E+03  0.10293124753E+03  0.27178686591E+03  0.00000000000E+00 0. -1.
<mgrwt>
<rscale>  0 0.64464914E+03</rscale>
<asrwt>0</asrwt>
<pdfrwt beam="1">0</pdfrwt>
<pdfrwt beam="2">  1        2 0.37779399E+00 0.64464914E+03</pdfrwt>
<totfact> 0.48183792E+00</totfact>
</mgrwt>
</event>
<event>
 5    1  0.2361924E-004  0.6543052E+03  0.7818608E-02  0.9798734E-01
         13   -1    0    0    0    0  0.00000000000E+00  0.00000000000E+00  0.10000000000E+04  0.10000000000E+04  0.00000000000E+00 0. -1.
          2   -1    0    0  501    0 -0.00000000000E+00 -0.00000000000E+00 -0.10702883265E+03  0.10702883265E+03  0.00000000000E+00 0. -1.
    9000006    2    1    2  501    0  0.00000000000E+00  0.00000000000E+00  0.89297116735E+03  0.11070288326E+04  0.65430522740E+03 0.  0.
         13    1    3    3    0    0 -0.12719636979E+03 -0.28779076335E+03  0.59806448124E+03  0.67578366633E+03  0.00000000000E+00 0. -1.
          4    1    3    3  501    0  0.12719636979E+03  0.28779076335E+03  0.29490668611E+03  0.43124516632E+03  0.00000000000E+00 0. -1.
<mgrwt>
<rscale>  0 0.65430523E+03</rscale>
<asrwt>0</asrwt>
<pdfrwt beam="1">0</pdfrwt>
<pdfrwt beam="2">  1        2 0.38919658E+00 0.65430523E+03</pdfrwt>
<totfact> 0.43690389E+00</totfact>
</mgrwt>
</event>
<event>
 5    1  0.2361924E-004  0.6310165E+03  0.7818608E-02  0.9843067E-01
         13   -1    0    0    0    0  0.00000000000E+00  0.00000000000E+00  0.10000000000E+04  0.10000000000E+04  0.00000000000E+00 0. -1.
          2   -1    0    0  501    0 -0.00000000000E+00 -0.00000000000E+00 -0.99545442942E+02  0.99545442942E+02  0.00000000000E+00 0. -1.
    9000006    2    1    2  501    0  0.00000000000E+00  0.00000000000E+00  0.90045455706E+03  0.10995454429E+04  0.63101645919E+03 0.  0.
         13    1    3    3    0    0  0.37968617203E+02 -0.31222010613E+03  0.40675438141E+03  0.51417131129E+03  0.00000000000E+00 0. -1.
          2    1    3    3  501    0 -0.37968617203E+02  0.31222010613E+03  0.49370017565E+03  0.58537413165E+03  0.00000000000E+00 0. -1.
<mgrwt>
<rscale>  0 0.63101646E+03</rscale>
<asrwt>0</asrwt>
<pdfrwt beam="1">0</pdfrwt>
<pdfrwt beam="2">  1        2 0.36198419E+00 0.63101646E+03</pdfrwt>
<totfact> 0.55113342E+00</totfact>
</mgrwt>
</event>
<event>
 5    1  0.2361924E-004  0.6528415E+03  0.7818608E-02  0.9801462E-01
         13   -1    0    0    0    0  0.00000000000E+00  0.00000000000E+00  0.10000000000E+04  0.10000000000E+04  0.00000000000E+00 0. -1.
          2   -1    0    0  501    0 -0.00000000000E+00 -0.00000000000E+00 -0.10655049129E+03  0.10655049129E+03  0.00000000000E+00 0. -1.
    9000006    2    1    2  501    0  0.00000000000E+00  0.00000000000E+00  0.89344950871E+03  0.11065504913E+04  0.65284145484E+03 0.  0.
         13    1    3    3    0    0 -0.23249948178E+03 -0.22911497914E+03  0.44824890968E+03  0.55450587708E+03  0.00000000000E+00 0. -1.
          4    1    3    3  501    0  0.23249948178E+03  0.22911497914E+03  0.44520059903E+03  0.55204461420E+03  0.00000000000E+00 0. -1.
<mgrwt>
<rscale>  0 0.65284145E+03</rscale>
<asrwt>0</asrwt>
<pdfrwt beam="1">0</pdfrwt>
<pdfrwt beam="2">  1        2 0.38745715E+00 0.65284145E+03</pdfrwt>
<totfact> 0.44350298E+00</totfact>
</mgrwt>
</event>
<event>
 5    1  0.2361924E-004  0.6472682E+03  0.7818608E-02  0.9811919E-01
         13   -1    0    0    0    0  0.00000000000E+00  0.00000000000E+00  0.10000000000E+04  0.10000000000E+04  0.00000000000E+00 0. -1.
          2   -1    0    0  501    0 -0.00000000000E+00 -0.00000000000E+00 -0.10473903241E+03  0.10473903241E+03  0.00000000000E+00 0. -1.
    9000006    2    1    2  501    0  0.00000000000E+00  0.00000000000E+00  0.89526096759E+03  0.11047390324E+04  0.64726820533E+03 0.  0.
         13    1    3    3    0    0  0.20921504118E+03 -0.13778055821E+03  0.79735052489E+03  0.83577645050E+03  0.00000000000E+00 0. -1.
          4    1    3    3  501    0 -0.20921504118E+03  0.13778055821E+03  0.97910442707E+02  0.26896258191E+03  0.00000000000E+00 0. -1.
<mgrwt>
<rscale>  0 0.64726821E+03</rscale>
<asrwt>0</asrwt>
<pdfrwt beam="1">0</pdfrwt>
<pdfrwt beam="2">  1        2 0.38087001E+00 0.64726821E+03</pdfrwt>
<totfact> 0.46932038E+00</totfact>
</mgrwt>
</event>
<event>
 5    1  0.2361924E-004  0.6356185E+03  0.7818608E-02  0.9834146E-01
         13   -1    0    0    0    0  0.00000000000E+00  0.00000000000E+00  0.10000000000E+04  0.10000000000E+04  0.00000000000E+00 0. -1.
          2   -1    0    0  501    0 -0.00000000000E+00 -0.00000000000E+00 -0.10100273499E+03  0.10100273499E+03  0.00000000000E+00 0. -1.
    9000006    2    1    2  501    0  0.00000000000E+00  0.00000000000E+00  0.89899726501E+03  0.11010027350E+04  0.63561854909E+03 0.  0.
         13    1    3    3    0    0  0.31279725135E+03 -0.44657050355E+02  0.39034129920E+03  0.50219787182E+03  0.00000000000E+00 0. -1.
          2    1    3    3  501    0 -0.31279725135E+03  0.44657050355E+02  0.50865596581E+03  0.59880486317E+03  0.00000000000E+00 0. -1.
<mgrwt>
<rscale>  0 0.63561855E+03</rscale>
<asrwt>0</asrwt>
<pdfrwt beam="1">0</pdfrwt>
<pdfrwt beam="2">  1        2 0.36728345E+00 0.63561855E+03</pdfrwt>
<totfact> 0.52694890E+00</totfact>
</mgrwt>
</event>
<event>
 5    1  0.2361924E-004  0.7330730E+03  0.7818608E-02  0.9662287E-01
         13   -1    0    0    0    0  0.00000000000E+00  0.00000000000E+00  0.10000000000E+04  0.10000000000E+04  0.00000000000E+00 0. -1.
          2   -1    0    0  501    0 -0.00000000000E+00 -0.00000000000E+00 -0.13434899711E+03  0.13434899711E+03  0.00000000000E+00 0. -1.
    9000006    2    1    2  501    0  0.00000000000E+00  0.00000000000E+00  0.86565100289E+03  0.11343489971E+04  0.73307297621E+03 0.  0.
         13    1    3    3    0    0  0.50330820647E+02 -0.35246209189E+03  0.29804908720E+03  0.46432313759E+03  0.00000000000E+00 0. -1.
          4    1    3    3  501    0 -0.50330820647E+02  0.35246209189E+03  0.56760191569E+03  0.67002585952E+03  0.00000000000E+00 0. -1.
<mgrwt>
<rscale>  0 0.73307298E+03</rscale>
<asrwt>0</asrwt>
<pdfrwt beam="1">0</pdfrwt>
<pdfrwt beam="2">  1        2 0.48854284E+00 0.73307298E+03</pdfrwt>
<totfact> 0.17744010E+00</totfact>
</mgrwt>
</event>
<event>
 5    1  0.2361924E-004  0.6481225E+03  0.7818608E-02  0.9810308E-01
         13   -1    0    0    0    0  0.00000000000E+00  0.00000000000E+00  0.10000000000E+04  0.10000000000E+04  0.00000000000E+00 0. -1.
          2   -1    0    0  501    0 -0.00000000000E+00 -0.00000000000E+00 -0.10501570868E+03  0.10501570868E+03  0.00000000000E+00 0. -1.
    9000006    2    1    2  501    0  0.00000000000E+00  0.00000000000E+00  0.89498429132E+03  0.11050157087E+04  0.64812254607E+03 0.  0.
         13    1    3    3    0    0 -0.26739428237E+03  0.81822630304E+02  0.72671394445E+03  0.77865769253E+03  0.00000000000E+00 0. -1.
          4    1    3    3  501    0  0.26739428237E+03 -0.81822630304E+02  0.16827034687E+03  0.32635801615E+03  0.00000000000E+00 0. -1.
<mgrwt>
<rscale>  0 0.64812255E+03</rscale>
<asrwt>0</asrwt>
<pdfrwt beam="1">0</pdfrwt>
<pdfrwt beam="2">  1        2 0.38187611E+00 0.64812255E+03</pdfrwt>
<totfact> 0.46529086E+00</totfact>
</mgrwt>
</event>
<event>
 5    1  0.2361924E-004  0.6529627E+03  0.7818608E-02  0.9801236E-01
         13   -1    0    0    0    0  0.00000000000E+00  0.00000000000E+00  0.10000000000E+04  0.10000000000E+04  0.00000000000E+00 0. -1.
          2   -1    0    0  501    0 -0.00000000000E+00 -0.00000000000E+00 -0.10659005964E+03  0.10659005964E+03  0.00000000000E+00 0. -1.
    9000006    2    1    2  501    0  0.00000000000E+00  0.00000000000E+00  0.89340994036E+03  0.11065900596E+04  0.65296266246E+03 0.  0.
         13    1    3    3    0    0  0.71805486296E+01 -0.32321458607E+03  0.52382562627E+03  0.61555870205E+03  0.00000000000E+00 0. -1.
          4    1    3    3  501    0 -0.71805486296E+01  0.32321458607E+03  0.36958431408E+03  0.49103135760E+03  0.00000000000E+00 0. -1.
<mgrwt>
<rscale>  0 0.65296266E+03</rscale>
<asrwt>0</asrwt>
<pdfrwt beam="1">0</pdfrwt>
<pdfrwt beam="2">  1        2 0.38760103E+00 0.65296266E+03</pdfrwt>
<totfact> 0.44295370E+00</totfact>
</mgrwt>
</event>
<event>
 5    1  0.2361924E-004  0.6496328E+03  0.7818608E-02  0.9807468E-01
         13   -1    0    0    0    0  0.00000000000E+00  0.00000000000E+00  0.10000000000E+04  0.10000000000E+04  0.00000000000E+00 0. -1.
          2   -1    0    0  501    0 -0.00000000000E+00 -0.00000000000E+00 -0.10550569579E+03  0.10550569579E+03  0.00000000000E+00 0. -1.
    9000006    2    1    2  501    0  0.00000000000E+00  0.00000000000E+00  0.89449430421E+03  0.11055056958E+04  0.64963280642E+03 0.  0.
         13    1    3    3    0    0  0.21611767338E+03  0.23017873232E+03  0.57703306892E+03  0.65776611359E+03  0.00000000000E+00 0. -1.
          4    1    3    3  501    0 -0.21611767338E+03 -0.23017873232E+03  0.31746123529E+03  0.44773958221E+03  0.00000000000E+00 0. -1.
<mgrwt>
<rscale>  0 0.64963281E+03</rscale>
<asrwt>0</asrwt>
<pdfrwt beam="1">0</pdfrwt>
<pdfrwt beam="2">  1        2 0.38365788E+00 0.64963281E+03</pdfrwt>
<totfact> 0.45823173E+00</totfact>
</mgrwt>
</event>
<event>
 5    1  0.2361924E-004  0.5682707E+03  0.7818608E-02  0.9973513E-01
         13   -1    0    0    0    0  0.00000000000E+00  0.00000000000E+00  0.10000000000E+04  0.10000000000E+04  0.00000000000E+00 0. -1.
          2   -1    0    0  501    0 -0.00000000000E+00 -0.00000000000E+00 -0.80732901180E+02  0.80732901180E+02  0.00000000000E+00 0. -1.
    9000006    2    1    2  501    0  0.00000000000E+00  0.00000000000E+00  0.91926709882E+03  0.10807329012E+04  0.56827071429E+03 0.  0.
         13    1    3    3    0    0  0.24248783799E+03  0.13361295816E+03  0.58111219452E+03  0.64369570201E+03  0.00000000000E+00 0. -1.
          4    1    3    3  501    0 -0.24248783799E+03 -0.13361295816E+03  0.33815490430E+03  0.43703719917E+03  0.00000000000E+00 0. -1.
<mgrwt>
<rscale>  0 0.56827071E+03</rscale>
<asrwt>0</asrwt>
<pdfrwt beam="1">0</pdfrwt>
<pdfrwt beam="2">  1        2 0.29357481E+00 0.56827071E+03</pdfrwt>
<totfact> 0.97344060E+00</totfact>
</mgrwt>
</event>
<event>
 5    1  0.2361924E-004  0.6544015E+03  0.7818608E-02  0.9798555E-01
         13   -1    0    0    0    0  0.00000000000E+00  0.00000000000E+00  0.10000000000E+04  0.10000000000E+04  0.00000000000E+00 0. -1.
          2   -1    0    0  501    0 -0.00000000000E+00 -0.00000000000E+00 -0.10706032985E+03  0.10706032985E+03  0.00000000000E+00 0. -1.
    9000006    2    1    2  501    0  0.00000000000E+00  0.00000000000E+00  0.89293967015E+03  0.11070603299E+04  0.65440149710E+03 0.  0.
         13    1    3    3    0    0  0.46349042134E+02  0.26091075402E+03  0.12177669894E+03  0.29163713700E+03  0.00000000000E+00 0. -1.
          2    1    3    3  501    0 -0.46349042134E+02 -0.26091075402E+03  0.77116297121E+03  0.81542319285E+03  0.00000000000E+00 0. -1.
<mgrwt>
<rscale>  0 0.65440150E+03</rscale>
<asrwt>0</asrwt>
<pdfrwt beam="1">0</pdfrwt>
<pdfrwt beam="2">  1        2 0.38931111E+00 0.65440150E+03</pdfrwt>
<totfact> 0.43647249E+00</totfact>
</mgrwt>
</event>
<event>
 5    1  0.2361924E-004  0.7402627E+03  0.7818608E-02  0.9650752E-01
         13   -1    0    0    0    0  0.00000000000E+00  0.00000000000E+00  0.10000000000E+04  0.10000000000E+04  0.00000000000E+00 0. -1.
          2   -1    0    0  501    0 -0.00000000000E+00 -0.00000000000E+00 -0.13699722863E+03  0.13699722863E+03  0.00000000000E+00 0. -1.
    9000006    2    1    2  501    0  0.00000000000E+00  0.00000000000E+00  0.86300277137E+03  0.11369972286E+04  0.74026273345E+03 0.  0.
         13    1    3    3    0    0 -0.70077973065E+02  0.36143691839E+03  0.37302148181E+03  0.52411124218E+03  0.00000000000E+00 0. -1.
          2    1    3    3  501    0  0.70077973065E+02 -0.36143691839E+03  0.48998128955E+03  0.61288598646E+03  0.00000000000E+00 0. -1.
<mgrwt>
<rscale>  0 0.74026273E+03</rscale>
<asrwt>0</asrwt>
<pdfrwt beam="1">0</pdfrwt>
<pdfrwt beam="2">  1        2 0.49817279E+00 0.74026273E+03</pdfrwt>
<totfact> 0.16165574E+00</totfact>
</mgrwt>
</event>
<event>
 5    1  0.2361924E-004  0.6450516E+03  0.7818608E-02  0.9816109E-01
         13   -1    0    0    0    0  0.00000000000E+00  0.00000000000E+00  0.10000000000E+04  0.10000000000E+04  0.00000000000E+00 0. -1.
          2   -1    0    0  501    0 -0.00000000000E+00 -0.00000000000E+00 -0.10402290181E+03  0.10402290181E+03  0.00000000000E+00 0. -1.
    9000006    2    1    2  501    0  0.00000000000E+00  0.00000000000E+00  0.89597709819E+03  0.11040229018E+04  0.64505163144E+03 0.  0.
         13    1    3    3    0    0 -0.21176601325E+03 -0.17362114013E+02  0.32695158877E+02  0.21497734947E+03  0.00000000000E+00 0. -1.
          2    1    3    3  501    0  0.21176601325E+03  0.17362114013E+02  0.86328193932E+03  0.88904555233E+03  0.00000000000E+00 0. -1.
<mgrwt>
<rscale>  0 0.64505163E+03</rscale>
<asrwt>0</asrwt>
<pdfrwt beam="1">0</pdfrwt>
<pdfrwt beam="2">  1        2 0.37826590E+00 0.64505163E+03</pdfrwt>
<totfact> 0.47989801E+00</totfact>
</mgrwt>
</event>
<event>
 5    1  0.2361924E-004  0.6552090E+03  0.7818608E-02  0.9797054E-01
         13   -1    0    0    0    0  0.00000000000E+00  0.00000000000E+00  0.10000000000E+04  0.10000000000E+04  0.00000000000E+00 0. -1.
          2   -1    0    0  501    0 -0.00000000000E+00 -0.00000000000E+00 -0.10732470783E+03  0.10732470783E+03  0.00000000000E+00 0. -1.
    9000006    2    1    2  501    0  0.00000000000E+00  0.00000000000E+00  0.89267529217E+03  0.11073247078E+04  0.65520899820E+03 0.  0.
         13    1    3    3    0    0  0.28153919381E+03 -0.62802540221E+02  0.18388566457E+03  0.34208539043E+03  0.00000000000E+00 0. -1.
          4    1    3    3  501    0 -0.28153919381E+03  0.62802540221E+02  0.70878962760E+03  0.76523931741E+03  0.00000000000E+00 0. -1.
<mgrwt>
<rscale>  0 0.65520900E+03</rscale>
<asrwt>0</asrwt>
<pdfrwt beam="1">0</pdfrwt>
<pdfrwt beam="2">  1        2 0.39027249E+00 0.65520900E+03</pdfrwt>
<totfact> 0.43286664E+00</totfact>
</mgrwt>
</event>
<event>
 5    1  0.2361924E-004  0.5833397E+03  0.7818608E-02  0.9940587E-01
         13   -1    0    0    0    0  0.00000000000E+00  0.00000000000E+00  0.10000000000E+04  0.10000000000E+04  0.00000000000E+00 0. -1.
          2   -1    0    0  501    0 -0.00000000000E+00 -0.00000000000E+00 -0.85071315974E+02  0.85071315974E+02  0.00000000000E+00 0. -1.
    9000006    2    1    2  501    0  0.00000000000E+00  0.00000000000E+00  0.91492868403E+03  0.10850713160E+04  0.58333974997E+03 0.  0.
         13    1    3    3    0    0 -0.67569169177E+02 -0.26602584424E+03  0.27392616892E+03  0.38777685393E+03  0.00000000000E+00 0. -1.
          4    1    3    3  501    0  0.67569169177E+02  0.26602584424E+03  0.64100251510E+03  0.69729446204E+03  0.00000000000E+00 0. -1.
<mgrwt>
<rscale>  0 0.58333975E+03</rscale>
<asrwt>0</asrwt>
<pdfrwt beam="1">0</pdfrwt>
<pdfrwt beam="2">  1        2 0.30935089E+00 0.58333975E+03</pdfrwt>
<totfact> 0.85476319E+00</totfact>
</mgrwt>
</event>
<event>
 5    1  0.2361924E-004  0.6477147E+03  0.7818608E-02  0.9811077E-01
         13   -1    0    0    0    0  0.00000000000E+00  0.00000000000E+00  0.10000000000E+04  0.10000000000E+04  0.00000000000E+00 0. -1.
          2   -1    0    0  501    0 -0.00000000000E+00 -0.00000000000E+00 -0.10488356957E+03  0.10488356957E+03  0.00000000000E+00 0. -1.
    9000006    2    1    2  501    0  0.00000000000E+00  0.00000000000E+00  0.89511643043E+03  0.11048835696E+04  0.64771465807E+03 0.  0.
         13    1    3    3    0    0  0.30763888473E+03 -0.76934116393E+02  0.55971532500E+03  0.64330536039E+03  0.00000000000E+00 0. -1.
          2    1    3    3  501    0 -0.30763888473E+03  0.76934116393E+02  0.33540110543E+03  0.46157820918E+03  0.00000000000E+00 0. -1.
<mgrwt>
<rscale>  0 0.64771466E+03</rscale>
<asrwt>0</asrwt>
<pdfrwt beam="1">0</pdfrwt>
<pdfrwt beam="2">  1        2 0.38139560E+00 0.64771466E+03</pdfrwt>
<totfact> 0.46721140E+00</totfact>
</mgrwt>
</event>
<event>
 5    1  0.2361924E-004  0.6424558E+03  0.7818608E-02  0.9821039E-01
         13   -1    0    0    0    0  0.00000000000E+00  0.00000000000E+00  0.10000000000E+04  0.10000000000E+04  0.00000000000E+00 0. -1.
          4   -1    0    0  501    0 -0.00000000000E+00 -0.00000000000E+00 -0.10318736686E+03  0.10318736686E+03  0.00000000000E+00 0. -1.
    9000006    2    1    2  501    0  0.00000000000E+00  0.00000000000E+00  0.89681263314E+03  0.11031873669E+04  0.64245580973E+03 0.  0.
         13    1    3    3    0    0 -0.16659225980E+03  0.93060502013E+02  0.46851620074E+01  0.19088003773E+03  0.00000000000E+00 0. -1.
          4    1    3    3  501    0  0.16659225980E+03 -0.93060502013E+02  0.89212747113E+03  0.91230732914E+03  0.00000000000E+00 0. -1.
<mgrwt>
<rscale>  0 0.64245581E+03</rscale>
<asrwt>0</asrwt>
<pdfrwt beam="1">0</pdfrwt>
<pdfrwt beam="2">  1        4 0.37522758E+00 0.64245581E+03</pdfrwt>
<totfact> 0.47225943E-02</totfact>
</mgrwt>
</event>
<event>
 5    1  0.2361924E-004  0.5979972E+03  0.7818608E-02  0.9909570E-01
         13   -1    0    0    0    0  0.00000000000E+00  0.00000000000E+00  0.10000000000E+04  0.10000000000E+04  0.00000000000E+00 0. -1.
          2   -1    0    0  501    0 -0.00000000000E+00 -0.00000000000E+00 -0.89400152942E+02  0.89400152942E+02  0.00000000000E+00 0. -1.
    9000006    2    1    2  501    0  0.00000000000E+00  0.00000000000E+00  0.91059984706E+03  0.10894001529E+04  0.59799716702E+03 0.  0.
         13    1    3    3    0    0 -0.90066241832E+02  0.49187980284E+02  0.96691205346E+03  0.97234268880E+03  0.00000000000E+00 0. -1.
          2    1    3    3  501    0  0.90066241832E+02 -0.49187980284E+02 -0.56312206406E+02  0.11705746415E+03  0.00000000000E+00 0. -1.
<mgrwt>
<rscale>  0 0.59799717E+03</rscale>
<asrwt>0</asrwt>
<pdfrwt beam="1">0</pdfrwt>
<pdfrwt beam="2">  1        2 0.32509215E+00 0.59799717E+03</pdfrwt>
<totfact> 0.75038552E+00</totfact>
</mgrwt>
</event>
<event>
 5    1  0.2361924E-004  0.6596915E+03  0.7818608E-02  0.9788762E-01
         13   -1    0    0    0    0  0.00000000000E+00  0.00000000000E+00  0.10000000000E+04  0.10000000000E+04  0.00000000000E+00 0. -1.
          2   -1    0    0  501    0 -0.00000000000E+00 -0.00000000000E+00 -0.10879821247E+03  0.10879821247E+03  0.00000000000E+00 0. -1.
    9000006    2    1    2  501    0  0.00000000000E+00  0.00000000000E+00  0.89120178753E+03  0.11087982125E+04  0.65969148082E+03 0.  0.
         13    1    3    3    0    0 -0.30884332667E+03  0.99939825272E+02  0.54398117717E+03  0.63347272255E+03  0.00000000000E+00 0. -1.
          4    1    3    3  501    0  0.30884332667E+03 -0.99939825272E+02  0.34722061036E+03  0.47532548992E+03  0.00000000000E+00 0. -1.
<mgrwt>
<rscale>  0 0.65969148E+03</rscale>
<asrwt>0</asrwt>
<pdfrwt beam="1">0</pdfrwt>
<pdfrwt beam="2">  1        2 0.39563070E+00 0.65969148E+03</pdfrwt>
<totfact> 0.41325812E+00</totfact>
</mgrwt>
</event>
<event>
 5    1  0.2361924E-004  0.6582105E+03  0.7818608E-02  0.9791494E-01
         13   -1    0    0    0    0  0.00000000000E+00  0.00000000000E+00  0.10000000000E+04  0.10000000000E+04  0.00000000000E+00 0. -1.
          2   -1    0    0  501    0 -0.00000000000E+00 -0.00000000000E+00 -0.10831027568E+03  0.10831027568E+03  0.00000000000E+00 0. -1.
    9000006    2    1    2  501    0  0.00000000000E+00  0.00000000000E+00  0.89168972432E+03  0.11083102757E+04  0.65821053068E+03 0.  0.
         13    1    3    3    0    0 -0.47165724258E+02 -0.30746655313E+03  0.62680683232E+03  0.69974787737E+03  0.00000000000E+00 0. -1.
          4    1    3    3  501    0  0.47165724258E+02  0.30746655313E+03  0.26488289200E+03  0.40856239831E+03  0.00000000000E+00 0. -1.
<mgrwt>
<rscale>  0 0.65821053E+03</rscale>
<asrwt>0</asrwt>
<pdfrwt beam="1">0</pdfrwt>
<pdfrwt beam="2">  1        2 0.39385638E+00 0.65821053E+03</pdfrwt>
<totfact> 0.41966033E+00</totfact>
</mgrwt>
</event>
<event>
 5    1  0.2361924E-004  0.6477466E+03  0.7818608E-02  0.9811017E-01
         13   -1    0    0    0    0  0.00000000000E+00  0.00000000000E+00  0.10000000000E+04  0.10000000000E+04  0.00000000000E+00 0. -1.
          4   -1    0    0  501    0 -0.00000000000E+00 -0.00000000000E+00 -0.10489390413E+03  0.10489390413E+03  0.00000000000E+00 0. -1.
    9000006    2    1    2  501    0  0.00000000000E+00  0.00000000000E+00  0.89510609587E+03  0.11048939041E+04  0.64774656811E+03 0.  0.
         13    1    3    3    0    0  0.25395469795E+03  0.79973001715E+02  0.76210207336E+03  0.80727209776E+03  0.00000000000E+00 0. -1.
          4    1    3    3  501    0 -0.25395469795E+03 -0.79973001715E+02  0.13300402252E+03  0.29762180636E+03  0.00000000000E+00 0. -1.
<mgrwt>
<rscale>  0 0.64774657E+03</rscale>
<asrwt>0</asrwt>
<pdfrwt beam="1">0</pdfrwt>
<pdfrwt beam="2">  1        4 0.38143318E+00 0.64774657E+03</pdfrwt>
<totfact> 0.42910052E-02</totfact>
</mgrwt>
</event>
<event>
 5    1  0.2361924E-004  0.6438269E+03  0.7818608E-02  0.9818432E-01
         13   -1    0    0    0    0  0.00000000000E+00  0.00000000000E+00  0.10000000000E+04  0.10000000000E+04  0.00000000000E+00 0. -1.
          2   -1    0    0  501    0 -0.00000000000E+00 -0.00000000000E+00 -0.10362825749E+03  0.10362825749E+03  0.00000000000E+00 0. -1.
    9000006    2    1    2  501    0  0.00000000000E+00  0.00000000000E+00  0.89637174251E+03  0.11036282575E+04  0.64382686333E+03 0.  0.
         13    1    3    3    0    0 -0.20796561016E+03 -0.23970583788E+03  0.35556243651E+03  0.47658496617E+03  0.00000000000E+00 0. -1.
          2    1    3    3  501    0  0.20796561016E+03  0.23970583788E+03  0.54080930600E+03  0.62704329131E+03  0.00000000000E+00 0. -1.
<mgrwt>
<rscale>  0 0.64382686E+03</rscale>
<asrwt>0</asrwt>
<pdfrwt beam="1">0</pdfrwt>
<pdfrwt beam="2">  1        2 0.37683082E+00 0.64382686E+03</pdfrwt>
<totfact> 0.48581949E+00</totfact>
</mgrwt>
</event>
<event>
 5    1  0.2361924E-004  0.6422516E+03  0.7818608E-02  0.9821428E-01
         13   -1    0    0    0    0  0.00000000000E+00  0.00000000000E+00  0.10000000000E+04  0.10000000000E+04  0.00000000000E+00 0. -1.
          2   -1    0    0  501    0 -0.00000000000E+00 -0.00000000000E+00 -0.10312177091E+03  0.10312177091E+03  0.00000000000E+00 0. -1.
    9000006    2    1    2  501    0  0.00000000000E+00  0.00000000000E+00  0.89687822909E+03  0.11031217709E+04  0.64225157349E+03 0.  0.
         13    1    3    3    0    0 -0.29256075869E+01  0.10042653580E+02  0.99970731429E+03  0.99976203584E+03  0.00000000000E+00 0. -1.
          2    1    3    3  501    0  0.29256075869E+01 -0.10042653580E+02 -0.10282908520E+03  0.10335973507E+03  0.00000000000E+00 0. -1.
<mgrwt>
<rscale>  0 0.64225157E+03</rscale>
<asrwt>0</asrwt>
<pdfrwt beam="1">0</pdfrwt>
<pdfrwt beam="2">  1        2 0.37498905E+00 0.64225157E+03</pdfrwt>
<totfact> 0.49351699E+00</totfact>
</mgrwt>
</event>
<event>
 5    1  0.2361924E-004  0.6379843E+03  0.7818608E-02  0.9829591E-01
         13   -1    0    0    0    0  0.00000000000E+00  0.00000000000E+00  0.10000000000E+04  0.10000000000E+04  0.00000000000E+00 0. -1.
          2   -1    0    0  501    0 -0.00000000000E+00 -0.00000000000E+00 -0.10175598680E+03  0.10175598680E+03  0.00000000000E+00 0. -1.
    9000006    2    1    2  501    0  0.00000000000E+00  0.00000000000E+00  0.89824401320E+03  0.11017559868E+04  0.63798428443E+03 0.  0.
         13    1    3    3    0    0 -0.20664164284E+03 -0.13840552938E+03  0.10417122079E+03  0.26964514155E+03  0.00000000000E+00 0. -1.
          4    1    3    3  501    0  0.20664164284E+03  0.13840552938E+03  0.79407279241E+03  0.83211084524E+03  0.00000000000E+00 0. -1.
<mgrwt>
<rscale>  0 0.63798428E+03</rscale>
<asrwt>0</asrwt>
<pdfrwt beam="1">0</pdfrwt>
<pdfrwt beam="2">  1        2 0.37002255E+00 0.63798428E+03</pdfrwt>
<totfact> 0.51483433E+00</totfact>
</mgrwt>
</event>
<event>
 5    1  0.2361924E-004  0.6492756E+03  0.7818608E-02  0.9808139E-01
         13   -1    0    0    0    0  0.00000000000E+00  0.00000000000E+00  0.10000000000E+04  0.10000000000E+04  0.00000000000E+00 0. -1.
          2   -1    0    0  501    0 -0.00000000000E+00 -0.00000000000E+00 -0.10538970785E+03  0.10538970785E+03  0.00000000000E+00 0. -1.
    9000006    2    1    2  501    0  0.00000000000E+00  0.00000000000E+00  0.89461029215E+03  0.11053897078E+04  0.64927562051E+03 0.  0.
         13    1    3    3    0    0  0.16450988043E+02  0.20523166244E+03  0.87462520347E+03  0.89853209004E+03  0.00000000000E+00 0. -1.
          2    1    3    3  501    0 -0.16450988043E+02 -0.20523166244E+03  0.19985088679E+02  0.20685761781E+03  0.00000000000E+00 0. -1.
<mgrwt>
<rscale>  0 0.64927562E+03</rscale>
<asrwt>0</asrwt>
<pdfrwt beam="1">0</pdfrwt>
<pdfrwt beam="2">  1        2 0.38323611E+00 0.64927562E+03</pdfrwt>
<totfact> 0.45989390E+00</totfact>
</mgrwt>
</event>
<event>
 5    1  0.2361924E-004  0.6465704E+03  0.7818608E-02  0.9813236E-01
         13   -1    0    0    0    0  0.00000000000E+00  0.00000000000E+00  0.10000000000E+04  0.10000000000E+04  0.00000000000E+00 0. -1.
          2   -1    0    0  501    0 -0.00000000000E+00 -0.00000000000E+00 -0.10451332497E+03  0.10451332497E+03  0.00000000000E+00 0. -1.
    9000006    2    1    2  501    0  0.00000000000E+00  0.00000000000E+00  0.89548667503E+03  0.11045133250E+04  0.64657041370E+03 0.  0.
         13    1    3    3    0    0  0.22593072641E+03  0.12026870496E+03  0.78511616252E+03  0.82578244301E+03  0.00000000000E+00 0. -1.
          2    1    3    3  501    0 -0.22593072641E+03 -0.12026870496E+03  0.11037051251E+03  0.27873088196E+03  0.00000000000E+00 0. -1.
<mgrwt>
<rscale>  0 0.64657041E+03</rscale>
<asrwt>0</asrwt>
<pdfrwt beam="1">0</pdfrwt>
<pdfrwt beam="2">  1        2 0.38004926E+00 0.64657041E+03</pdfrwt>
<totfact> 0.47263107E+00</totfact>
</mgrwt>
</event>
<event>
 5    1  0.2361924E-004  0.6699580E+03  0.7818608E-02  0.9770034E-01
         13   -1    0    0    0    0  0.00000000000E+00  0.00000000000E+00  0.10000000000E+04  0.10000000000E+04  0.00000000000E+00 0. -1.
          2   -1    0    0  501    0 -0.00000000000E+00 -0.00000000000E+00 -0.11221093723E+03  0.11221093723E+03  0.00000000000E+00 0. -1.
    9000006    2    1    2  501    0  0.00000000000E+00  0.00000000000E+00  0.88778906277E+03  0.11122109372E+04  0.66995802028E+03 0.  0.
         13    1    3    3    0    0  0.31906368807E+03 -0.81998043733E+02  0.34310976152E+03  0.47565704522E+03  0.00000000000E+00 0. -1.
          4    1    3    3  501    0 -0.31906368807E+03  0.81998043733E+02  0.54467930125E+03  0.63655389201E+03  0.00000000000E+00 0. -1.
<mgrwt>
<rscale>  0 0.66995802E+03</rscale>
<asrwt>0</asrwt>
<pdfrwt beam="1">0</pdfrwt>
<pdfrwt beam="2">  1        2 0.40804063E+00 0.66995802E+03</pdfrwt>
<totfact> 0.37087781E+00</totfact>
</mgrwt>
</event>
<event>
 5    1  0.2361924E-004  0.6038411E+03  0.7818608E-02  0.9897469E-01
         13   -1    0    0    0    0  0.00000000000E+00  0.00000000000E+00  0.10000000000E+04  0.10000000000E+04  0.00000000000E+00 0. -1.
          2   -1    0    0  501    0 -0.00000000000E+00 -0.00000000000E+00 -0.91156005143E+02  0.91156005143E+02  0.00000000000E+00 0. -1.
    9000006    2    1    2  501    0  0.00000000000E+00  0.00000000000E+00  0.90884399486E+03  0.10911560051E+04  0.60384105572E+03 0.  0.
         13    1    3    3    0    0  0.71577860125E+02 -0.71694670219E+02 -0.59524972035E+02  0.11750207698E+03  0.00000000000E+00 0. -1.
          2    1    3    3  501    0 -0.71577860125E+02  0.71694670219E+02  0.96836896689E+03  0.97365392817E+03  0.00000000000E+00 0. -1.
<mgrwt>
<rscale>  0 0.60384106E+03</rscale>
<asrwt>0</asrwt>
<pdfrwt beam="1">0</pdfrwt>
<pdfrwt beam="2">  1        2 0.33147708E+00 0.60384106E+03</pdfrwt>
<totfact> 0.71164441E+00</totfact>
</mgrwt>
</event>
<event>
 5    1  0.2361924E-004  0.6591290E+03  0.7818608E-02  0.9789798E-01
         13   -1    0    0    0    0  0.00000000000E+00  0.00000000000E+00  0.10000000000E+04  0.10000000000E+04  0.00000000000E+00 0. -1.
          2   -1    0    0  501    0 -0.00000000000E+00 -0.00000000000E+00 -0.10861276072E+03  0.10861276072E+03  0.00000000000E+00 0. -1.
    9000006    2    1    2  501    0  0.00000000000E+00  0.00000000000E+00  0.89138723928E+03  0.11086127607E+04  0.65912900322E+03 0.  0.
         13    1    3    3    0    0 -0.13359538096E+03 -0.44850249323E+02  0.94676796886E+03  0.95719844209E+03  0.00000000000E+00 0. -1.
          4    1    3    3  501    0  0.13359538096E+03  0.44850249323E+02 -0.55380729580E+02  0.15141431863E+03  0.00000000000E+00 0. -1.
<mgrwt>
<rscale>  0 0.65912900E+03</rscale>
<asrwt>0</asrwt>
<pdfrwt beam="1">0</pdfrwt>
<pdfrwt beam="2">  1        2 0.39495633E+00 0.65912900E+03</pdfrwt>
<totfact> 0.41568098E+00</totfact>
</mgrwt>
</event>
<event>
 5    1  0.2361924E-004  0.6459521E+03  0.7818608E-02  0.9814405E-01
         13   -1    0    0    0    0  0.00000000000E+00  0.00000000000E+00  0.10000000000E+04  0.10000000000E+04  0.00000000000E+00 0. -1.
          2   -1    0    0  501    0 -0.00000000000E+00 -0.00000000000E+00 -0.10431353703E+03  0.10431353703E+03  0.00000000000E+00 0. -1.
    9000006    2    1    2  501    0  0.00000000000E+00  0.00000000000E+00  0.89568646297E+03  0.11043135370E+04  0.64595212527E+03 0.  0.
         13    1    3    3    0    0  0.16740056116E+03  0.26474229392E+03  0.31320707948E+03  0.44295609794E+03  0.00000000000E+00 0. -1.
          4    1    3    3  501    0 -0.16740056116E+03 -0.26474229392E+03  0.58247938348E+03  0.66135743909E+03  0.00000000000E+00 0. -1.
<mgrwt>
<rscale>  0 0.64595213E+03</rscale>
<asrwt>0</asrwt>
<pdfrwt beam="1">0</pdfrwt>
<pdfrwt beam="2">  1        2 0.37932275E+00 0.64595213E+03</pdfrwt>
<totfact> 0.47557928E+00</totfact>
</mgrwt>
</event>
<event>
 5    1  0.2361924E-004  0.6120579E+03  0.7818608E-02  0.9880701E-01
         13   -1    0    0    0    0  0.00000000000E+00  0.00000000000E+00  0.10000000000E+04  0.10000000000E+04  0.00000000000E+00 0. -1.
          2   -1    0    0  501    0 -0.00000000000E+00 -0.00000000000E+00 -0.93653710387E+02  0.93653710387E+02  0.00000000000E+00 0. -1.
    9000006    2    1    2  501    0  0.00000000000E+00  0.00000000000E+00  0.90634628961E+03  0.10936537104E+04  0.61205787435E+03 0.  0.
         13    1    3    3    0    0  0.25126105172E+02  0.30353242388E+03  0.39985269710E+03  0.50263847136E+03  0.00000000000E+00 0. -1.
          4    1    3    3  501    0 -0.25126105172E+02 -0.30353242388E+03  0.50649359251E+03  0.59101523903E+03  0.00000000000E+00 0. -1.
<mgrwt>
<rscale>  0 0.61205787E+03</rscale>
<asrwt>0</asrwt>
<pdfrwt beam="1">0</pdfrwt>
<pdfrwt beam="2">  1        2 0.34055967E+00 0.61205787E+03</pdfrwt>
<totfact> 0.65978446E+00</totfact>
</mgrwt>
</event>
<event>
 5    1  0.2361924E-004  0.6559647E+03  0.7818608E-02  0.9795651E-01
         13   -1    0    0    0    0  0.00000000000E+00  0.00000000000E+00  0.10000000000E+04  0.10000000000E+04  0.00000000000E+00 0. -1.
          2   -1    0    0  501    0 -0.00000000000E+00 -0.00000000000E+00 -0.10757241331E+03  0.10757241331E+03  0.00000000000E+00 0. -1.
    9000006    2    1    2  501    0  0.00000000000E+00  0.00000000000E+00  0.89242758669E+03  0.11075724133E+04  0.65596467377E+03 0.  0.
         13    1    3    3    0    0  0.11357245051E+03  0.29586003941E+03  0.30353564101E+03  0.43882314182E+03  0.00000000000E+00 0. -1.
          4    1    3    3  501    0 -0.11357245051E+03 -0.29586003941E+03  0.58889194568E+03  0.66874927149E+03  0.00000000000E+00 0. -1.
<mgrwt>
<rscale>  0 0.65596467E+03</rscale>
<asrwt>0</asrwt>
<pdfrwt beam="1">0</pdfrwt>
<pdfrwt beam="2">  1        2 0.39117324E+00 0.65596467E+03</pdfrwt>
<totfact> 0.42951264E+00</totfact>
</mgrwt>
</event>
<event>
 5    1  0.2361924E-004  0.6474142E+03  0.7818608E-02  0.9811643E-01
         13   -1    0    0    0    0  0.00000000000E+00  0.00000000000E+00  0.10000000000E+04  0.10000000000E+04  0.00000000000E+00 0. -1.
          2   -1    0    0  501    0 -0.00000000000E+00 -0.00000000000E+00 -0.10478628583E+03  0.10478628583E+03  0.00000000000E+00 0. -1.
    9000006    2    1    2  501    0  0.00000000000E+00  0.00000000000E+00  0.89521371417E+03  0.11047862858E+04  0.64741419766E+03 0.  0.
         13    1    3    3    0    0  0.23049142265E+03  0.10119662293E+03  0.10031301424E+03  0.27097924871E+03  0.00000000000E+00 0. -1.
          4    1    3    3  501    0 -0.23049142265E+03 -0.10119662293E+03  0.79490069993E+03  0.83380703712E+03  0.00000000000E+00 0. -1.
<mgrwt>
<rscale>  0 0.64741420E+03</rscale>
<asrwt>0</asrwt>
<pdfrwt beam="1">0</pdfrwt>
<pdfrwt beam="2">  1        2 0.38104184E+00 0.64741420E+03</pdfrwt>
<totfact> 0.46862994E+00</totfact>
</mgrwt>
</event>
<event>
 5    1  0.2361924E-004  0.6565884E+03  0.7818608E-02  0.9794495E-01
         13   -1    0    0    0    0  0.00000000000E+00  0.00000000000E+00  0.10000000000E+04  0.10000000000E+04  0.00000000000E+00 0. -1.
          2   -1    0    0  501    0 -0.00000000000E+00 -0.00000000000E+00 -0.10777707307E+03  0.10777707307E+03  0.00000000000E+00 0. -1.
    9000006    2    1    2  501    0  0.00000000000E+00  0.00000000000E+00  0.89222292693E+03  0.11077770731E+04  0.65658837355E+03 0.  0.
         13    1    3    3    0    0 -0.14615284467E+03  0.65732965555E+02  0.92952534269E+03  0.94323848493E+03  0.00000000000E+00 0. -1.
          4    1    3    3  501    0  0.14615284467E+03 -0.65732965555E+02 -0.37302415756E+02  0.16453858814E+03  0.00000000000E+00 0. -1.
<mgrwt>
<rscale>  0 0.65658837E+03</rscale>
<asrwt>0</asrwt>
<pdfrwt beam="1">0</pdfrwt>
<pdfrwt beam="2">  1        2 0.39191746E+00 0.65658837E+03</pdfrwt>
<totfact> 0.42675921E+00</totfact>
</mgrwt>
</event>
<event>
 5    1  0.2361924E-004  0.6521250E+03  0.7818608E-02  0.9802800E-01
         13   -1    0    0    0    0  0.00000000000E+00  0.00000000000E+00  0.10000000000E+04  0.10000000000E+04  0.00000000000E+00 0. -1.
          2   -1    0    0  501    0 -0.00000000000E+00 -0.00000000000E+00 -0.10631675628E+03  0.10631675628E+03  0.00000000000E+00 0. -1.
    9000006    2    1    2  501    0  0.00000000000E+00  0.00000000000E+00  0.89368324372E+03  0.11063167563E+04  0.65212500729E+03 0.  0.
         13    1    3    3    0    0 -0.56442479211E+01 -0.60345814880E+02 -0.96676338039E+02  0.11410429109E+03  0.00000000000E+00 0. -1.
          4    1    3    3  501    0  0.56442479211E+01  0.60345814880E+02  0.99035958176E+03  0.99221246519E+03  0.00000000000E+00 0. -1.
<mgrwt>
<rscale>  0 0.65212501E+03</rscale>
<asrwt>0</asrwt>
<pdfrwt beam="1">0</pdfrwt>
<pdfrwt beam="2">  1        2 0.38660720E+00 0.65212501E+03</pdfrwt>
<totfact> 0.44676023E+00</totfact>
</mgrwt>
</event>
<event>
 5    1  0.2361924E-004  0.6451479E+03  0.7818608E-02  0.9815927E-01
         13   -1    0    0    0    0  0.00000000000E+00  0.00000000000E+00  0.10000000000E+04  0.10000000000E+04  0.00000000000E+00 0. -1.
          2   -1    0    0  501    0 -0.00000000000E+00 -0.00000000000E+00 -0.10405394702E+03  0.10405394702E+03  0.00000000000E+00 0. -1.
    9000006    2    1    2  501    0  0.00000000000E+00  0.00000000000E+00  0.89594605298E+03  0.11040539470E+04  0.64514788077E+03 0.  0.
         13    1    3    3    0    0  0.93133656851E+02 -0.29212159784E+03  0.61948991030E+03  0.69121389955E+03  0.00000000000E+00 0. -1.
          2    1    3    3  501    0 -0.93133656851E+02  0.29212159784E+03  0.27645614268E+03  0.41284004747E+03  0.00000000000E+00 0. -1.
<mgrwt>
<rscale>  0 0.64514788E+03</rscale>
<asrwt>0</asrwt>
<pdfrwt beam="1">0</pdfrwt>
<pdfrwt beam="2">  1        2 0.37837879E+00 0.64514788E+03</pdfrwt>
<totfact> 0.47943499E+00</totfact>
</mgrwt>
</event>
<event>
 5    1  0.2361924E-004  0.6571636E+03  0.7818608E-02  0.9793429E-01
         13   -1    0    0    0    0  0.00000000000E+00  0.00000000000E+00  0.10000000000E+04  0.10000000000E+04  0.00000000000E+00 0. -1.
          2   -1    0    0  501    0 -0.00000000000E+00 -0.00000000000E+00 -0.10796598572E+03  0.10796598572E+03  0.00000000000E+00 0. -1.
    9000006    2    1    2  501    0  0.00000000000E+00  0.00000000000E+00  0.89203401428E+03  0.11079659857E+04  0.65716355869E+03 0.  0.
         13    1    3    3    0    0 -0.31844599426E+03 -0.32215297482E+02  0.57128342304E+03  0.65483618264E+03  0.00000000000E+00 0. -1.
          2    1    3    3  501    0  0.31844599426E+03  0.32215297482E+02  0.32075059124E+03  0.45312980308E+03  0.00000000000E+00 0. -1.
<mgrwt>
<rscale>  0 0.65716356E+03</rscale>
<asrwt>0</asrwt>
<pdfrwt beam="1">0</pdfrwt>
<pdfrwt beam="2">  1        2 0.39260441E+00 0.65716356E+03</pdfrwt>
<totfact> 0.42423179E+00</totfact>
</mgrwt>
</event>
<event>
 5    1  0.2361924E-004  0.6465512E+03  0.7818608E-02  0.9813272E-01
         13   -1    0    0    0    0  0.00000000000E+00  0.00000000000E+00  0.10000000000E+04  0.10000000000E+04  0.00000000000E+00 0. -1.
          2   -1    0    0  501    0 -0.00000000000E+00 -0.00000000000E+00 -0.10450710591E+03  0.10450710591E+03  0.00000000000E+00 0. -1.
    9000006    2    1    2  501    0  0.00000000000E+00  0.00000000000E+00  0.89549289409E+03  0.11045071059E+04  0.64655117635E+03 0.  0.
         13    1    3    3    0    0  0.10305740476E+03  0.14114820795E+03 -0.16848219104E+02  0.17557764029E+03  0.00000000000E+00 0. -1.
          2    1    3    3  501    0 -0.10305740476E+03 -0.14114820795E+03  0.91234111319E+03  0.92892946562E+03  0.00000000000E+00 0. -1.
<mgrwt>
<rscale>  0 0.64655118E+03</rscale>
<asrwt>0</asrwt>
<pdfrwt beam="1">0</pdfrwt>
<pdfrwt beam="2">  1        2 0.38002664E+00 0.64655118E+03</pdfrwt>
<totfact> 0.47272259E+00</totfact>
</mgrwt>
</event>
<event>
 5    1  0.2361924E-004  0.6491608E+03  0.7818608E-02  0.9808355E-01
         13   -1    0    0    0    0  0.00000000000E+00  0.00000000000E+00  0.10000000000E+04  0.10000000000E+04  0.00000000000E+00 0. -1.
          2   -1    0    0  501    0 -0.00000000000E+00 -0.00000000000E+00 -0.10535243308E+03  0.10535243308E+03  0.00000000000E+00 0. -1.
    9000006    2    1    2  501    0  0.00000000000E+00  0.00000000000E+00  0.89464756692E+03  0.11053524331E+04  0.64916079080E+03 0.  0.
         13    1    3    3    0    0  0.90589411152E+02 -0.27587981846E+03  0.69428761173E+03  0.75256322223E+03  0.00000000000E+00 0. -1.
          2    1    3    3  501    0 -0.90589411152E+02  0.27587981846E+03  0.20035995519E+03  0.35278921085E+03  0.00000000000E+00 0. -1.
<mgrwt>
<rscale>  0 0.64916079E+03</rscale>
<asrwt>0</asrwt>
<pdfrwt beam="1">0</pdfrwt>
<pdfrwt beam="2">  1        2 0.38310056E+00 0.64916079E+03</pdfrwt>
<totfact> 0.46042922E+00</totfact>
</mgrwt>
</event>
<event>
 5    1  0.2361924E-004  0.6542433E+03  0.7818608E-02  0.9798849E-01
         13   -1    0    0    0    0  0.00000000000E+00  0.00000000000E+00  0.10000000000E+04  0.10000000000E+04  0.00000000000E+00 0. -1.
          2   -1    0    0  501    0 -0.00000000000E+00 -0.00000000000E+00 -0.10700858231E+03  0.10700858231E+03  0.00000000000E+00 0. -1.
    9000006    2    1    2  501    0  0.00000000000E+00  0.00000000000E+00  0.89299141769E+03  0.11070085823E+04  0.65424332571E+03 0.  0.
         13    1    3    3    0    0 -0.25415052068E+03 -0.20080562682E+03  0.52390918537E+03  0.61595147653E+03  0.00000000000E+00 0. -1.
          4    1    3    3  501    0  0.25415052068E+03  0.20080562682E+03  0.36908223232E+03  0.49105710578E+03  0.00000000000E+00 0. -1.
<mgrwt>
<rscale>  0 0.65424333E+03</rscale>
<asrwt>0</asrwt>
<pdfrwt beam="1">0</pdfrwt>
<pdfrwt beam="2">  1        2 0.38912294E+00 0.65424333E+03</pdfrwt>
<totfact> 0.43718145E+00</totfact>
</mgrwt>
</event>
<event>
 5    1  0.2361924E-004  0.6615625E+03  0.7818608E-02  0.9785322E-01
         13   -1    0    0    0    0  0.00000000000E+00  0.00000000000E+00  0.10000000000E+04  0.10000000000E+04  0.00000000000E+00 0. -1.
          2   -1    0    0  501    0 -0.00000000000E+00 -0.00000000000E+00 -0.10941625007E+03  0.10941625007E+03  0.00000000000E+00 0. -1.
    9000006    2    1    2  501    0  0.00000000000E+00  0.00000000000E+00  0.89058374993E+03  0.11094162501E+04  0.66156254449E+03 0.  0.
         13    1    3    3    0    0  0.33998073975E+02  0.29589766461E+03  0.68659377391E+03  0.74841319292E+03  0.00000000000E+00 0. -1.
          4    1    3    3  501    0 -0.33998073975E+02 -0.29589766461E+03  0.20398997602E+03  0.36100305715E+03  0.00000000000E+00 0. -1.
<mgrwt>
<rscale>  0 0.66156254E+03</rscale>
<asrwt>0</asrwt>
<pdfrwt beam="1">0</pdfrwt>
<pdfrwt beam="2">  1        2 0.39787811E+00 0.66156254E+03</pdfrwt>
<totfact> 0.40527518E+00</totfact>
</mgrwt>
</event>
<event>
 5    1  0.2361924E-004  0.7935892E+03  0.7818608E-02  0.9569343E-01
         13   -1    0    0    0    0  0.00000000000E+00  0.00000000000E+00  0.10000000000E+04  0.10000000000E+04  0.00000000000E+00 0. -1.
          2   -1    0    0  501    0 -0.00000000000E+00 -0.00000000000E+00 -0.15744595904E+03  0.15744595904E+03  0.00000000000E+00 0. -1.
    9000006    2    1    2  501    0  0.00000000000E+00  0.00000000000E+00  0.84255404096E+03  0.11574459590E+04  0.79358921121E+03 0.  0.
         13    1    3    3    0    0 -0.29905326099E+03  0.19191963137E+03  0.67881587126E+03  0.76619644015E+03  0.00000000000E+00 0. -1.
          2    1    3    3  501    0  0.29905326099E+03 -0.19191963137E+03  0.16373816970E+03  0.39124951889E+03  0.00000000000E+00 0. -1.
<mgrwt>
<rscale>  0 0.79358921E+03</rscale>
<asrwt>0</asrwt>
<pdfrwt beam="1">0</pdfrwt>
<pdfrwt beam="2">  1        2 0.57253197E+00 0.79358921E+03</pdfrwt>
<totfact> 0.75019401E-01</totfact>
</mgrwt>
</event>
<event>
 5    1  0.2361924E-004  0.6624131E+03  0.7818608E-02  0.9783762E-01
         13   -1    0    0    0    0  0.00000000000E+00  0.00000000000E+00  0.10000000000E+04  0.10000000000E+04  0.00000000000E+00 0. -1.
          2   -1    0    0  501    0 -0.00000000000E+00 -0.00000000000E+00 -0.10969778255E+03  0.10969778255E+03  0.00000000000E+00 0. -1.
    9000006    2    1    2  501    0  0.00000000000E+00  0.00000000000E+00  0.89030221745E+03  0.11096977825E+04  0.66241311143E+03 0.  0.
         13    1    3    3    0    0  0.49445611320E+02  0.30281343072E+03  0.23620326683E+03  0.38721160309E+03  0.00000000000E+00 0. -1.
          2    1    3    3  501    0 -0.49445611320E+02 -0.30281343072E+03  0.65409895062E+03  0.72248617946E+03  0.00000000000E+00 0. -1.
<mgrwt>
<rscale>  0 0.66241311E+03</rscale>
<asrwt>0</asrwt>
<pdfrwt beam="1">0</pdfrwt>
<pdfrwt beam="2">  1        2 0.39890187E+00 0.66241311E+03</pdfrwt>
<totfact> 0.40168495E+00</totfact>
</mgrwt>
</event>
<event>
 5    1  0.2361924E-004  0.6461542E+03  0.7818608E-02  0.9814022E-01
         13   -1    0    0    0    0  0.00000000000E+00  0.00000000000E+00  0.10000000000E+04  0.10000000000E+04  0.00000000000E+00 0. -1.
          2   -1    0    0  501    0 -0.00000000000E+00 -0.00000000000E+00 -0.10437880932E+03  0.10437880932E+03  0.00000000000E+00 0. -1.
    9000006    2    1    2  501    0  0.00000000000E+00  0.00000000000E+00  0.89562119068E+03  0.11043788093E+04  0.64615419001E+03 0.  0.
         13    1    3    3    0    0  0.22440554149E+03 -0.39017692115E+01  0.84500384083E+03  0.87430232864E+03  0.00000000000E+00 0. -1.
          4    1    3    3  501    0 -0.22440554149E+03  0.39017692115E+01  0.50617349850E+02  0.23007648067E+03  0.00000000000E+00 0. -1.
<mgrwt>
<rscale>  0 0.64615419E+03</rscale>
<asrwt>0</asrwt>
<pdfrwt beam="1">0</pdfrwt>
<pdfrwt beam="2">  1        2 0.37956011E+00 0.64615419E+03</pdfrwt>
<totfact> 0.47461424E+00</totfact>
</mgrwt>
</event>
<event>
 5    1  0.2361924E-004  0.6561960E+03  0.7818608E-02  0.9795222E-01
         13   -1    0    0    0    0  0.00000000000E+00  0.00000000000E+00  0.10000000000E+04  0.10000000000E+04  0.00000000000E+00 0. -1.
          2   -1    0    0  501    0 -0.00000000000E+00 -0.00000000000E+00 -0.10764829679E+03  0.10764829679E+03  0.00000000000E+00 0. -1.
    9000006    2    1    2  501    0  0.00000000000E+00  0.00000000000E+00  0.89235170321E+03  0.11076482968E+04  0.65619599752E+03 0.  0.
         13    1    3    3    0    0  0.20585059138E+02 -0.16287165180E+03 -0.33334532692E+02  0.16751749368E+03  0.00000000000E+00 0. -1.
          4    1    3    3  501    0 -0.20585059138E+02  0.16287165180E+03  0.92568623590E+03  0.94013080311E+03  0.00000000000E+00 0. -1.
<mgrwt>
<rscale>  0 0.65619600E+03</rscale>
<asrwt>0</asrwt>
<pdfrwt beam="1">0</pdfrwt>
<pdfrwt beam="2">  1        2 0.39144918E+00 0.65619600E+03</pdfrwt>
<totfact> 0.42848986E+00</totfact>
</mgrwt>
</event>
<event>
 5    1  0.2361924E-004  0.6484243E+03  0.7818608E-02  0.9809740E-01
         13   -1    0    0    0    0  0.00000000000E+00  0.00000000000E+00  0.10000000000E+04  0.10000000000E+04  0.00000000000E+00 0. -1.
          2   -1    0    0  501    0 -0.00000000000E+00 -0.00000000000E+00 -0.10511352826E+03  0.10511352826E+03  0.00000000000E+00 0. -1.
    9000006    2    1    2  501    0  0.00000000000E+00  0.00000000000E+00  0.89488647174E+03  0.11051135283E+04  0.64842433101E+03 0.  0.
         13    1    3    3    0    0 -0.86189828169E+02  0.18920342619E+03  0.87142480297E+03  0.89588381512E+03  0.00000000000E+00 0. -1.
          2    1    3    3  501    0  0.86189828169E+02 -0.18920342619E+03  0.23461668765E+02  0.20922971314E+03  0.00000000000E+00 0. -1.
<mgrwt>
<rscale>  0 0.64842433E+03</rscale>
<asrwt>0</asrwt>
<pdfrwt beam="1">0</pdfrwt>
<pdfrwt beam="2">  1        2 0.38223182E+00 0.64842433E+03</pdfrwt>
<totfact> 0.46387376E+00</totfact>
</mgrwt>
</event>
<event>
 5    1  0.2361924E-004  0.6264385E+03  0.7818608E-02  0.9852023E-01
         13   -1    0    0    0    0  0.00000000000E+00  0.00000000000E+00  0.10000000000E+04  0.10000000000E+04  0.00000000000E+00 0. -1.
          4   -1    0    0  501    0 -0.00000000000E+00 -0.00000000000E+00 -0.98106308475E+02  0.98106308475E+02  0.00000000000E+00 0. -1.
    9000006    2    1    2  501    0  0.00000000000E+00  0.00000000000E+00  0.90189369152E+03  0.10981063085E+04  0.62643853162E+03 0.  0.
         13    1    3    3    0    0 -0.24029414508E+03 -0.19474418373E+03  0.36436292033E+03  0.47794027970E+03  0.00000000000E+00 0. -1.
          2    1    3    3  501    0  0.24029414508E+03  0.19474418373E+03  0.53753077120E+03  0.62016602877E+03  0.00000000000E+00 0. -1.
<mgrwt>
<rscale>  0 0.62643853E+03</rscale>
<asrwt>0</asrwt>
<pdfrwt beam="1">0</pdfrwt>
<pdfrwt beam="2">  1        4 0.35675096E+00 0.62643853E+03</pdfrwt>
<totfact> 0.62515149E-02</totfact>
</mgrwt>
</event>
<event>
 5    1  0.2361924E-004  0.6529686E+03  0.7818608E-02  0.9801225E-01
         13   -1    0    0    0    0  0.00000000000E+00  0.00000000000E+00  0.10000000000E+04  0.10000000000E+04  0.00000000000E+00 0. -1.
          2   -1    0    0  501    0 -0.00000000000E+00 -0.00000000000E+00 -0.10659201435E+03  0.10659201435E+03  0.00000000000E+00 0. -1.
    9000006    2    1    2  501    0  0.00000000000E+00  0.00000000000E+00  0.89340798565E+03  0.11065920143E+04  0.65296864963E+03 0.  0.
         13    1    3    3    0    0 -0.16592897096E+03  0.17668660481E+03  0.81738240894E+03  0.85256353556E+03  0.00000000000E+00 0. -1.
          4    1    3    3  501    0  0.16592897096E+03 -0.17668660481E+03  0.76025576715E+02  0.25402847879E+03  0.00000000000E+00 0. -1.
<mgrwt>
<rscale>  0 0.65296865E+03</rscale>
<asrwt>0</asrwt>
<pdfrwt beam="1">0</pdfrwt>
<pdfrwt beam="2">  1        2 0.38760814E+00 0.65296865E+03</pdfrwt>
<totfact> 0.44292658E+00</totfact>
</mgrwt>
</event>
<event>
 5    1  0.2361924E-004  0.4938907E+03  0.7818608E-02  0.1015386E+00
         13   -1    0    0    0    0  0.00000000000E+00  0.00000000000E+00  0.10000000000E+04  0.10000000000E+04  0.00000000000E+00 0. -1.
          2   -1    0    0  501    0 -0.00000000000E+00 -0.00000000000E+00 -0.60982004489E+02  0.60982004489E+02  0.00000000000E+00 0. -1.
    9000006    2    1    2  501    0  0.00000000000E+00  0.00000000000E+00  0.93901799551E+03  0.10609820045E+04  0.49389069434E+03 0.  0.
         13    1    3    3    0    0 -0.12874216714E+03 -0.20816282990E+03  0.39905238228E+03  0.46813364882E+03  0.00000000000E+00 0. -1.
          4    1    3    3  501    0  0.12874216714E+03  0.20816282990E+03  0.53996561323E+03  0.59284835567E+03  0.00000000000E+00 0. -1.
<mgrwt>
<rscale>  0 0.49389069E+03</rscale>
<asrwt>0</asrwt>
<pdfrwt beam="1">0</pdfrwt>
<pdfrwt beam="2">  1        2 0.22175321E+00 0.49389069E+03</pdfrwt>
<totfact> 0.17645972E+01</totfact>
</mgrwt>
</event>
<event>
 5    1  0.2361924E-004  0.6514682E+03  0.7818608E-02  0.9804028E-01
         13   -1    0    0    0    0  0.00000000000E+00  0.00000000000E+00  0.10000000000E+04  0.10000000000E+04  0.00000000000E+00 0. -1.
          2   -1    0    0  501    0 -0.00000000000E+00 -0.00000000000E+00 -0.10610269617E+03  0.10610269617E+03  0.00000000000E+00 0. -1.
    9000006    2    1    2  501    0  0.00000000000E+00  0.00000000000E+00  0.89389730383E+03  0.11061026962E+04  0.65146817626E+03 0.  0.
         13    1    3    3    0    0  0.89192547588E+02  0.22796786923E+03  0.81180337731E+03  0.84790882963E+03  0.00000000000E+00 0. -1.
          2    1    3    3  501    0 -0.89192547588E+02 -0.22796786923E+03  0.82093926516E+02  0.25819386654E+03  0.00000000000E+00 0. -1.
<mgrwt>
<rscale>  0 0.65146818E+03</rscale>
<asrwt>0</asrwt>
<pdfrwt beam="1">0</pdfrwt>
<pdfrwt beam="2">  1        2 0.38582880E+00 0.65146818E+03</pdfrwt>
<totfact> 0.44976229E+00</totfact>
</mgrwt>
</event>
<event>
 5    1  0.2361924E-004  0.6318115E+03  0.7818608E-02  0.9841520E-01
         13   -1    0    0    0    0  0.00000000000E+00  0.00000000000E+00  0.10000000000E+04  0.10000000000E+04  0.00000000000E+00 0. -1.
          2   -1    0    0  501    0 -0.00000000000E+00 -0.00000000000E+00 -0.99796448193E+02  0.99796448193E+02  0.00000000000E+00 0. -1.
    9000006    2    1    2  501    0  0.00000000000E+00  0.00000000000E+00  0.90020355181E+03  0.10997964482E+04  0.63181151681E+03 0.  0.
         13    1    3    3    0    0  0.67532036890E+02 -0.22827680862E+03  0.81158837595E+03  0.84578163218E+03  0.00000000000E+00 0. -1.
          2    1    3    3  501    0 -0.67532036890E+02  0.22827680862E+03  0.88615175858E+02  0.25401481601E+03  0.00000000000E+00 0. -1.
<mgrwt>
<rscale>  0 0.63181152E+03</rscale>
<asrwt>0</asrwt>
<pdfrwt beam="1">0</pdfrwt>
<pdfrwt beam="2">  1        2 0.36289694E+00 0.63181152E+03</pdfrwt>
<totfact> 0.54689633E+00</totfact>
</mgrwt>
</event>
<event>
 5    1  0.2361924E-004  0.6474636E+03  0.7818608E-02  0.9811550E-01
         13   -1    0    0    0    0  0.00000000000E+00  0.00000000000E+00  0.10000000000E+04  0.10000000000E+04  0.00000000000E+00 0. -1.
          2   -1    0    0  501    0 -0.00000000000E+00 -0.00000000000E+00 -0.10480229317E+03  0.10480229317E+03  0.00000000000E+00 0. -1.
    9000006    2    1    2  501    0  0.00000000000E+00  0.00000000000E+00  0.89519770683E+03  0.11048022932E+04  0.64746364584E+03 0.  0.
         13    1    3    3    0    0 -0.31403986700E+03 -0.21914987837E+02  0.31876076935E+03  0.44800639821E+03  0.00000000000E+00 0. -1.
          2    1    3    3  501    0  0.31403986700E+03  0.21914987837E+02  0.57643693748E+03  0.65679589496E+03  0.00000000000E+00 0. -1.
<mgrwt>
<rscale>  0 0.64746365E+03</rscale>
<asrwt>0</asrwt>
<pdfrwt beam="1">0</pdfrwt>
<pdfrwt beam="2">  1        2 0.38110005E+00 0.64746365E+03</pdfrwt>
<totfact> 0.46839626E+00</totfact>
</mgrwt>
</event>
<event>
 5    1  0.2361924E-004  0.6443976E+03  0.7818608E-02  0.9817349E-01
         13   -1    0    0    0    0  0.00000000000E+00  0.00000000000E+00  0.10000000000E+04  0.10000000000E+04  0.00000000000E+00 0. -1.
          2   -1    0    0  501    0 -0.00000000000E+00 -0.00000000000E+00 -0.10381206359E+03  0.10381206359E+03  0.00000000000E+00 0. -1.
    9000006    2    1    2  501    0  0.00000000000E+00  0.00000000000E+00  0.89618793641E+03  0.11038120636E+04  0.64439759027E+03 0.  0.
         13    1    3    3    0    0 -0.14238652770E+03  0.54190120014E+02  0.93440372445E+03  0.94674221024E+03  0.00000000000E+00 0. -1.
          4    1    3    3  501    0  0.14238652770E+03 -0.54190120014E+02 -0.38215788035E+02  0.15706985335E+03  0.00000000000E+00 0. -1.
<mgrwt>
<rscale>  0 0.64439759E+03</rscale>
<asrwt>0</asrwt>
<pdfrwt beam="1">0</pdfrwt>
<pdfrwt beam="2">  1        2 0.37749921E+00 0.64439759E+03</pdfrwt>
<totfact> 0.48305331E+00</totfact>
</mgrwt>
</event>
<event>
 5    1  0.2361924E-004  0.6474564E+03  0.7818608E-02  0.9811564E-01
         13   -1    0    0    0    0  0.00000000000E+00  0.00000000000E+00  0.10000000000E+04  0.10000000000E+04  0.00000000000E+00 0. -1.
          2   -1    0    0  501    0 -0.00000000000E+00 -0.00000000000E+00 -0.10479995817E+03  0.10479995817E+03  0.00000000000E+00 0. -1.
    9000006    2    1    2  501    0  0.00000000000E+00  0.00000000000E+00  0.89520004183E+03  0.11047999582E+04  0.64745643302E+03 0.  0.
         13    1    3    3    0    0  0.11932590062E+03  0.25875533469E+03  0.70977616458E+03  0.76483671303E+03  0.00000000000E+00 0. -1.
          4    1    3    3  501    0 -0.11932590062E+03 -0.25875533469E+03  0.18542387725E+03  0.33996324514E+03  0.00000000000E+00 0. -1.
<mgrwt>
<rscale>  0 0.64745643E+03</rscale>
<asrwt>0</asrwt>
<pdfrwt beam="1">0</pdfrwt>
<pdfrwt beam="2">  1        2 0.38109156E+00 0.64745643E+03</pdfrwt>
<totfact> 0.46843034E+00</totfact>
</mgrwt>
</event>
<event>
 5    1  0.2361924E-004  0.6492125E+03  0.7818608E-02  0.9808258E-01
         13   -1    0    0    0    0  0.00000000000E+00  0.00000000000E+00  0.10000000000E+04  0.10000000000E+04  0.00000000000E+00 0. -1.
          2   -1    0    0  501    0 -0.00000000000E+00 -0.00000000000E+00 -0.10536923190E+03  0.10536923190E+03  0.00000000000E+00 0. -1.
    9000006    2    1    2  501    0  0.00000000000E+00  0.00000000000E+00  0.89463076810E+03  0.11053692319E+04  0.64921254424E+03 0.  0.
         13    1    3    3    0    0 -0.25919202365E+03  0.97925898168E+02  0.73525256936E+03  0.78572662384E+03  0.00000000000E+00 0. -1.
          2    1    3    3  501    0  0.25919202365E+03 -0.97925898168E+02  0.15937819874E+03  0.31964260806E+03  0.00000000000E+00 0. -1.
<mgrwt>
<rscale>  0 0.64921254E+03</rscale>
<asrwt>0</asrwt>
<pdfrwt beam="1">0</pdfrwt>
<pdfrwt beam="2">  1        2 0.38316165E+00 0.64921254E+03</pdfrwt>
<totfact> 0.46018789E+00</totfact>
</mgrwt>
</event>
<event>
 5    1  0.2361924E-004  0.6526269E+03  0.7818608E-02  0.9801862E-01
         13   -1    0    0    0    0  0.00000000000E+00  0.00000000000E+00  0.10000000000E+04  0.10000000000E+04  0.00000000000E+00 0. -1.
          2   -1    0    0  501    0 -0.00000000000E+00 -0.00000000000E+00 -0.10648048357E+03  0.10648048357E+03  0.00000000000E+00 0. -1.
    9000006    2    1    2  501    0  0.00000000000E+00  0.00000000000E+00  0.89351951643E+03  0.11064804836E+04  0.65262694878E+03 0.  0.
         13    1    3    3    0    0  0.18686531704E+03  0.22760283114E+03  0.68507888947E+03  0.74569080741E+03  0.00000000000E+00 0. -1.
          4    1    3    3  501    0 -0.18686531704E+03 -0.22760283114E+03  0.20844062696E+03  0.36078967616E+03  0.00000000000E+00 0. -1.
<mgrwt>
<rscale>  0 0.65262695E+03</rscale>
<asrwt>0</asrwt>
<pdfrwt beam="1">0</pdfrwt>
<pdfrwt beam="2">  1        2 0.38720257E+00 0.65262695E+03</pdfrwt>
<totfact> 0.44447632E+00</totfact>
</mgrwt>
</event>
<event>
 5    1  0.2361924E-004  0.6480485E+03  0.7818608E-02  0.9810448E-01
         13   -1    0    0    0    0  0.00000000000E+00  0.00000000000E+00  0.10000000000E+04  0.10000000000E+04  0.00000000000E+00 0. -1.
          2   -1    0    0  501    0 -0.00000000000E+00 -0.00000000000E+00 -0.10499169880E+03  0.10499169880E+03  0.00000000000E+00 0. -1.
    9000006    2    1    2  501    0  0.00000000000E+00  0.00000000000E+00  0.89500830120E+03  0.11049916988E+04  0.64804845128E+03 0.  0.
         13    1    3    3    0    0 -0.50081941135E+02 -0.26110716106E+03  0.13168384367E+03  0.29669139703E+03  0.00000000000E+00 0. -1.
          2    1    3    3  501    0  0.50081941135E+02  0.26110716106E+03  0.76332445752E+03  0.80830030177E+03  0.00000000000E+00 0. -1.
<mgrwt>
<rscale>  0 0.64804845E+03</rscale>
<asrwt>0</asrwt>
<pdfrwt beam="1">0</pdfrwt>
<pdfrwt beam="2">  1        2 0.38178880E+00 0.64804845E+03</pdfrwt>
<totfact> 0.46563929E+00</totfact>
</mgrwt>
</event>
<event>
 5    1  0.2361924E-004  0.6507619E+03  0.7818608E-02  0.9805351E-01
         13   -1    0    0    0    0  0.00000000000E+00  0.00000000000E+00  0.10000000000E+04  0.10000000000E+04  0.00000000000E+00 0. -1.
          2   -1    0    0  501    0 -0.00000000000E+00 -0.00000000000E+00 -0.10587275943E+03  0.10587275943E+03  0.00000000000E+00 0. -1.
    9000006    2    1    2  501    0  0.00000000000E+00  0.00000000000E+00  0.89412724057E+03  0.11058727594E+04  0.65076189019E+03 0.  0.
         13    1    3    3    0    0 -0.18164362909E+03  0.26525478695E+03  0.53234072005E+03  0.62188515999E+03  0.00000000000E+00 0. -1.
          4    1    3    3  501    0  0.18164362909E+03 -0.26525478695E+03  0.36178652052E+03  0.48398759944E+03  0.00000000000E+00 0. -1.
<mgrwt>
<rscale>  0 0.65076189E+03</rscale>
<asrwt>0</asrwt>
<pdfrwt beam="1">0</pdfrwt>
<pdfrwt beam="2">  1        2 0.38499266E+00 0.65076189E+03</pdfrwt>
<totfact> 0.45300737E+00</totfact>
</mgrwt>
</event>
<event>
 5    1  0.2361924E-004  0.6465181E+03  0.7818608E-02  0.9813335E-01
         13   -1    0    0    0    0  0.00000000000E+00  0.00000000000E+00  0.10000000000E+04  0.10000000000E+04  0.00000000000E+00 0. -1.
          2   -1    0    0  501    0 -0.00000000000E+00 -0.00000000000E+00 -0.10449639848E+03  0.10449639848E+03  0.00000000000E+00 0. -1.
    9000006    2    1    2  501    0  0.00000000000E+00  0.00000000000E+00  0.89550360152E+03  0.11044963985E+04  0.64651805381E+03 0.  0.
         13    1    3    3    0    0 -0.31894316238E+03 -0.29876445124E+02  0.37369695681E+03  0.49220601208E+03  0.00000000000E+00 0. -1.
          2    1    3    3  501    0  0.31894316238E+03  0.29876445124E+02  0.52180664472E+03  0.61229038640E+03  0.00000000000E+00 0. -1.
<mgrwt>
<rscale>  0 0.64651805E+03</rscale>
<asrwt>0</asrwt>
<pdfrwt beam="1">0</pdfrwt>
<pdfrwt beam="2">  1        2 0.37998770E+00 0.64651805E+03</pdfrwt>
<totfact> 0.47288020E+00</totfact>
</mgrwt>
</event>
<event>
 5    1  0.2361924E-004  0.6473570E+03  0.7818608E-02  0.9811751E-01
         13   -1    0    0    0    0  0.00000000000E+00  0.00000000000E+00  0.10000000000E+04  0.10000000000E+04  0.00000000000E+00 0. -1.
          2   -1    0    0  501    0 -0.00000000000E+00 -0.00000000000E+00 -0.10476776613E+03  0.10476776613E+03  0.00000000000E+00 0. -1.
    9000006    2    1    2  501    0  0.00000000000E+00  0.00000000000E+00  0.89523223387E+03  0.11047677661E+04  0.64735698384E+03 0.  0.
         13    1    3    3    0    0 -0.38751072503E+02  0.31488808020E+03  0.33818684555E+03  0.46370949006E+03  0.00000000000E+00 0. -1.
          4    1    3    3  501    0  0.38751072503E+02 -0.31488808020E+03  0.55704538832E+03  0.64105827607E+03  0.00000000000E+00 0. -1.
<mgrwt>
<rscale>  0 0.64735698E+03</rscale>
<asrwt>0</asrwt>
<pdfrwt beam="1">0</pdfrwt>
<pdfrwt beam="2">  1        2 0.38097450E+00 0.64735698E+03</pdfrwt>
<totfact> 0.46890043E+00</totfact>
</mgrwt>
</event>
<event>
 5    1  0.2361924E-004  0.6476765E+03  0.7818608E-02  0.9811149E-01
         13   -1    0    0    0    0  0.00000000000E+00  0.00000000000E+00  0.10000000000E+04  0.10000000000E+04  0.00000000000E+00 0. -1.
          2   -1    0    0  501    0 -0.00000000000E+00 -0.00000000000E+00 -0.10487119701E+03  0.10487119701E+03  0.00000000000E+00 0. -1.
    9000006    2    1    2  501    0  0.00000000000E+00  0.00000000000E+00  0.89512880299E+03  0.11048711970E+04  0.64767645321E+03 0.  0.
         13    1    3    3    0    0  0.20985980410E+03  0.23083722492E+03  0.29939410348E+03  0.43239309775E+03  0.00000000000E+00 0. -1.
          2    1    3    3  501    0 -0.20985980410E+03 -0.23083722492E+03  0.59573469951E+03  0.67247809926E+03  0.00000000000E+00 0. -1.
<mgrwt>
<rscale>  0 0.64767645E+03</rscale>
<asrwt>0</asrwt>
<pdfrwt beam="1">0</pdfrwt>
<pdfrwt beam="2">  1        2 0.38135061E+00 0.64767645E+03</pdfrwt>
<totfact> 0.46739159E+00</totfact>
</mgrwt>
</event>
<event>
 5    1  0.2361924E-004  0.6475334E+03  0.7818608E-02  0.9811419E-01
         13   -1    0    0    0    0  0.00000000000E+00  0.00000000000E+00  0.10000000000E+04  0.10000000000E+04  0.00000000000E+00 0. -1.
          2   -1    0    0  501    0 -0.00000000000E+00 -0.00000000000E+00 -0.10482487836E+03  0.10482487836E+03  0.00000000000E+00 0. -1.
    9000006    2    1    2  501    0  0.00000000000E+00  0.00000000000E+00  0.89517512164E+03  0.11048248784E+04  0.64753340719E+03 0.  0.
         13    1    3    3    0    0 -0.33007214357E+02 -0.32168559038E+03  0.42040673721E+03  0.53038940407E+03  0.00000000000E+00 0. -1.
          4    1    3    3  501    0  0.33007214357E+02  0.32168559038E+03  0.47476838443E+03  0.57443547428E+03  0.00000000000E+00 0. -1.
<mgrwt>
<rscale>  0 0.64753341E+03</rscale>
<asrwt>0</asrwt>
<pdfrwt beam="1">0</pdfrwt>
<pdfrwt beam="2">  1        2 0.38118218E+00 0.64753341E+03</pdfrwt>
<totfact> 0.46806674E+00</totfact>
</mgrwt>
</event>
<event>
 5    1  0.2361924E-004  0.6489132E+03  0.7818608E-02  0.9808821E-01
         13   -1    0    0    0    0  0.00000000000E+00  0.00000000000E+00  0.10000000000E+04  0.10000000000E+04  0.00000000000E+00 0. -1.
          2   -1    0    0  501    0 -0.00000000000E+00 -0.00000000000E+00 -0.10527208413E+03  0.10527208413E+03  0.00000000000E+00 0. -1.
    9000006    2    1    2  501    0  0.00000000000E+00  0.00000000000E+00  0.89472791587E+03  0.11052720841E+04  0.64891319645E+03 0.  0.
         13    1    3    3    0    0  0.19050217950E+03 -0.18850833223E+03  0.75885974077E+03  0.80479474270E+03  0.00000000000E+00 0. -1.
          2    1    3    3  501    0 -0.19050217950E+03  0.18850833223E+03  0.13586817509E+03  0.30047734143E+03  0.00000000000E+00 0. -1.
<mgrwt>
<rscale>  0 0.64891320E+03</rscale>
<asrwt>0</asrwt>
<pdfrwt beam="1">0</pdfrwt>
<pdfrwt beam="2">  1        2 0.38280839E+00 0.64891320E+03</pdfrwt>
<totfact> 0.46158509E+00</totfact>
</mgrwt>
</event>
<event>
 5    1  0.2361924E-004  0.6482641E+03  0.7818608E-02  0.9810042E-01
         13   -1    0    0    0    0  0.00000000000E+00  0.00000000000E+00  0.10000000000E+04  0.10000000000E+04  0.00000000000E+00 0. -1.
          2   -1    0    0  501    0 -0.00000000000E+00 -0.00000000000E+00 -0.10506157231E+03  0.10506157231E+03  0.00000000000E+00 0. -1.
    9000006    2    1    2  501    0  0.00000000000E+00  0.00000000000E+00  0.89493842769E+03  0.11050615723E+04  0.64826405828E+03 0.  0.
         13    1    3    3    0    0  0.17771438900E+03 -0.25149721889E+03  0.61986896159E+03  0.69214939479E+03  0.00000000000E+00 0. -1.
          4    1    3    3  501    0 -0.17771438900E+03  0.25149721889E+03  0.27506946610E+03  0.41291217752E+03  0.00000000000E+00 0. -1.
<mgrwt>
<rscale>  0 0.64826406E+03</rscale>
<asrwt>0</asrwt>
<pdfrwt beam="1">0</pdfrwt>
<pdfrwt beam="2">  1        2 0.38204289E+00 0.64826406E+03</pdfrwt>
<totfact> 0.46462595E+00</totfact>
</mgrwt>
</event>
<event>
 5    1  0.2361924E-004  0.6489185E+03  0.7818608E-02  0.9808811E-01
         13   -1    0    0    0    0  0.00000000000E+00  0.00000000000E+00  0.10000000000E+04  0.10000000000E+04  0.00000000000E+00 0. -1.
          2   -1    0    0  501    0 -0.00000000000E+00 -0.00000000000E+00 -0.10527382055E+03  0.10527382055E+03  0.00000000000E+00 0. -1.
    9000006    2    1    2  501    0  0.00000000000E+00  0.00000000000E+00  0.89472617945E+03  0.11052738205E+04  0.64891854820E+03 0.  0.
         13    1    3    3    0    0 -0.16932537436E+03  0.27251586070E+03  0.36500856936E+03  0.48597040285E+03  0.00000000000E+00 0. -1.
          4    1    3    3  501    0  0.16932537436E+03 -0.27251586070E+03  0.52971761009E+03  0.61930341770E+03  0.00000000000E+00 0. -1.
<mgrwt>
<rscale>  0 0.64891855E+03</rscale>
<asrwt>0</asrwt>
<pdfrwt beam="1">0</pdfrwt>
<pdfrwt beam="2">  1        2 0.38281470E+00 0.64891855E+03</pdfrwt>
<totfact> 0.46156009E+00</totfact>
</mgrwt>
</event>
<event>
 5    1  0.2361924E-004  0.6712555E+03  0.7818608E-02  0.9767692E-01
         13   -1    0    0    0    0  0.00000000000E+00  0.00000000000E+00  0.10000000000E+04  0.10000000000E+04  0.00000000000E+00 0. -1.
          2   -1    0    0  501    0 -0.00000000000E+00 -0.00000000000E+00 -0.11264597668E+03  0.11264597668E+03  0.00000000000E+00 0. -1.
    9000006    2    1    2  501    0  0.00000000000E+00  0.00000000000E+00  0.88735402332E+03  0.11126459767E+04  0.67125547055E+03 0.  0.
         13    1    3    3    0    0  0.32590016437E+03  0.26558520568E+02  0.56914567671E+03  0.65638637514E+03  0.00000000000E+00 0. -1.
          2    1    3    3  501    0 -0.32590016437E+03 -0.26558520568E+02  0.31820834661E+03  0.45625960155E+03  0.00000000000E+00 0. -1.
<mgrwt>
<rscale>  0 0.67125547E+03</rscale>
<asrwt>0</asrwt>
<pdfrwt beam="1">0</pdfrwt>
<pdfrwt beam="2">  1        2 0.40962260E+00 0.67125547E+03</pdfrwt>
<totfact> 0.36576513E+00</totfact>
</mgrwt>
</event>
<event>
 5    1  0.2361924E-004  0.5388152E+03  0.7818608E-02  0.1004116E+00
         13   -1    0    0    0    0  0.00000000000E+00  0.00000000000E+00  0.10000000000E+04  0.10000000000E+04  0.00000000000E+00 0. -1.
          2   -1    0    0  501    0 -0.00000000000E+00 -0.00000000000E+00 -0.72580459496E+02  0.72580459496E+02  0.00000000000E+00 0. -1.
    9000006    2    1    2  501    0  0.00000000000E+00  0.00000000000E+00  0.92741954050E+03  0.10725804595E+04  0.53881521692E+03 0.  0.
         13    1    3    3    0    0  0.84521806442E+02 -0.19115889272E+03  0.12533351045E+03  0.24370914401E+03  0.00000000000E+00 0. -1.
          2    1    3    3  501    0 -0.84521806442E+02  0.19115889272E+03  0.80208603005E+03  0.82887131549E+03  0.00000000000E+00 0. -1.
<mgrwt>
<rscale>  0 0.53881522E+03</rscale>
<asrwt>0</asrwt>
<pdfrwt beam="1">0</pdfrwt>
<pdfrwt beam="2">  1        2 0.26392950E+00 0.53881522E+03</pdfrwt>
<totfact> 0.12424416E+01</totfact>
</mgrwt>
</event>
<event>
 5    1  0.2361924E-004  0.6523798E+03  0.7818608E-02  0.9802324E-01
         13   -1    0    0    0    0  0.00000000000E+00  0.00000000000E+00  0.10000000000E+04  0.10000000000E+04  0.00000000000E+00 0. -1.
          2   -1    0    0  501    0 -0.00000000000E+00 -0.00000000000E+00 -0.10639984124E+03  0.10639984124E+03  0.00000000000E+00 0. -1.
    9000006    2    1    2  501    0  0.00000000000E+00  0.00000000000E+00  0.89360015876E+03  0.11063998412E+04  0.65237977049E+03 0.  0.
         13    1    3    3    0    0 -0.42847702658E+02 -0.14481200984E+03  0.93714040067E+03  0.94923051699E+03  0.00000000000E+00 0. -1.
          2    1    3    3  501    0  0.42847702658E+02  0.14481200984E+03 -0.43540241911E+02  0.15716932424E+03  0.00000000000E+00 0. -1.
<mgrwt>
<rscale>  0 0.65237977E+03</rscale>
<asrwt>0</asrwt>
<pdfrwt beam="1">0</pdfrwt>
<pdfrwt beam="2">  1        2 0.38690933E+00 0.65237977E+03</pdfrwt>
<totfact> 0.44559992E+00</totfact>
</mgrwt>
</event>
<event>
 5    1  0.2361924E-004  0.6447866E+03  0.7818608E-02  0.9816611E-01
         13   -1    0    0    0    0  0.00000000000E+00  0.00000000000E+00  0.10000000000E+04  0.10000000000E+04  0.00000000000E+00 0. -1.
          2   -1    0    0  501    0 -0.00000000000E+00 -0.00000000000E+00 -0.10393743719E+03  0.10393743719E+03  0.00000000000E+00 0. -1.
    9000006    2    1    2  501    0  0.00000000000E+00  0.00000000000E+00  0.89606256281E+03  0.11039374372E+04  0.64478659164E+03 0.  0.
         13    1    3    3    0    0 -0.22364330234E+03  0.85726760968E+02  0.78551173380E+02  0.25206287126E+03  0.00000000000E+00 0. -1.
          2    1    3    3  501    0  0.22364330234E+03 -0.85726760968E+02  0.81751138943E+03  0.85187456593E+03  0.00000000000E+00 0. -1.
<mgrwt>
<rscale>  0 0.64478659E+03</rscale>
<asrwt>0</asrwt>
<pdfrwt beam="1">0</pdfrwt>
<pdfrwt beam="2">  1        2 0.37795511E+00 0.64478659E+03</pdfrwt>
<totfact> 0.48117476E+00</totfact>
</mgrwt>
</event>
<event>
 5    1  0.2361924E-004  0.6500784E+03  0.7818608E-02  0.9806632E-01
         13   -1    0    0    0    0  0.00000000000E+00  0.00000000000E+00  0.10000000000E+04  0.10000000000E+04  0.00000000000E+00 0. -1.
          2   -1    0    0  501    0 -0.00000000000E+00 -0.00000000000E+00 -0.10565046903E+03  0.10565046903E+03  0.00000000000E+00 0. -1.
    9000006    2    1    2  501    0  0.00000000000E+00  0.00000000000E+00  0.89434953097E+03  0.11056504690E+04  0.65007836151E+03 0.  0.
         13    1    3    3    0    0 -0.27069746486E+03 -0.23873553951E+02  0.14386321172E+03  0.30747957289E+03  0.00000000000E+00 0. -1.
          2    1    3    3  501    0  0.27069746486E+03  0.23873553951E+02  0.75048631925E+03  0.79817089614E+03  0.00000000000E+00 0. -1.
<mgrwt>
<rscale>  0 0.65007836E+03</rscale>
<asrwt>0</asrwt>
<pdfrwt beam="1">0</pdfrwt>
<pdfrwt beam="2">  1        2 0.38418433E+00 0.65007836E+03</pdfrwt>
<totfact> 0.45616470E+00</totfact>
</mgrwt>
</event>
<event>
 5    1  0.2361924E-004  0.6284406E+03  0.7818608E-02  0.9848097E-01
         13   -1    0    0    0    0  0.00000000000E+00  0.00000000000E+00  0.10000000000E+04  0.10000000000E+04  0.00000000000E+00 0. -1.
          2   -1    0    0  501    0 -0.00000000000E+00 -0.00000000000E+00 -0.98734381542E+02  0.98734381542E+02  0.00000000000E+00 0. -1.
    9000006    2    1    2  501    0  0.00000000000E+00  0.00000000000E+00  0.90126561846E+03  0.10987343815E+04  0.62844055102E+03 0.  0.
         13    1    3    3    0    0  0.16548619619E+03 -0.71018606974E+02  0.90082902815E+03  0.91865241611E+03  0.00000000000E+00 0. -1.
          4    1    3    3  501    0 -0.16548619619E+03  0.71018606974E+02  0.43659031021E+00  0.18008196544E+03  0.00000000000E+00 0. -1.
<mgrwt>
<rscale>  0 0.62844055E+03</rscale>
<asrwt>0</asrwt>
<pdfrwt beam="1">0</pdfrwt>
<pdfrwt beam="2">  1        2 0.35903487E+00 0.62844055E+03</pdfrwt>
<totfact> 0.56503251E+00</totfact>
</mgrwt>
</event>
<event>
 5    1  0.2361924E-004  0.6005442E+03  0.7818608E-02  0.9904278E-01
         13   -1    0    0    0    0  0.00000000000E+00  0.00000000000E+00  0.10000000000E+04  0.10000000000E+04  0.00000000000E+00 0. -1.
          2   -1    0    0  501    0 -0.00000000000E+00 -0.00000000000E+00 -0.90163329000E+02  0.90163329000E+02  0.00000000000E+00 0. -1.
    9000006    2    1    2  501    0  0.00000000000E+00  0.00000000000E+00  0.90983667100E+03  0.10901633290E+04  0.60054418322E+03 0.  0.
         13    1    3    3    0    0  0.19173138851E+03 -0.16651330530E+03  0.74579437182E+03  0.78784316410E+03  0.00000000000E+00 0. -1.
          2    1    3    3  501    0 -0.19173138851E+03  0.16651330530E+03  0.16404229918E+03  0.30232016490E+03  0.00000000000E+00 0. -1.
<mgrwt>
<rscale>  0 0.60054418E+03</rscale>
<asrwt>0</asrwt>
<pdfrwt beam="1">0</pdfrwt>
<pdfrwt beam="2">  1        2 0.32786734E+00 0.60054418E+03</pdfrwt>
<totfact> 0.73330687E+00</totfact>
</mgrwt>
</event>
<event>
 5    1  0.2361924E-004  0.6163141E+03  0.7818608E-02  0.9872126E-01
         13   -1    0    0    0    0  0.00000000000E+00  0.00000000000E+00  0.10000000000E+04  0.10000000000E+04  0.00000000000E+00 0. -1.
          2   -1    0    0  501    0 -0.00000000000E+00 -0.00000000000E+00 -0.94960753182E+02  0.94960753182E+02  0.00000000000E+00 0. -1.
    9000006    2    1    2  501    0  0.00000000000E+00  0.00000000000E+00  0.90503924682E+03  0.10949607532E+04  0.61631405365E+03 0.  0.
         13    1    3    3    0    0 -0.12234525754E+03  0.21099448841E+03  0.78713803286E+03  0.82405905065E+03  0.00000000000E+00 0. -1.
          4    1    3    3  501    0  0.12234525754E+03 -0.21099448841E+03  0.11790121396E+03  0.27090170253E+03  0.00000000000E+00 0. -1.
<mgrwt>
<rscale>  0 0.61631405E+03</rscale>
<asrwt>0</asrwt>
<pdfrwt beam="1">0</pdfrwt>
<pdfrwt beam="2">  1        2 0.34531256E+00 0.61631405E+03</pdfrwt>
<totfact> 0.63408588E+00</totfact>
</mgrwt>
</event>
<event>
 5    1  0.2361924E-004  0.6533968E+03  0.7818608E-02  0.9800426E-01
         13   -1    0    0    0    0  0.00000000000E+00  0.00000000000E+00  0.10000000000E+04  0.10000000000E+04  0.00000000000E+00 0. -1.
          2   -1    0    0  501    0 -0.00000000000E+00 -0.00000000000E+00 -0.10673183562E+03  0.10673183562E+03  0.00000000000E+00 0. -1.
    9000006    2    1    2  501    0  0.00000000000E+00  0.00000000000E+00  0.89326816438E+03  0.11067318356E+04  0.65339677263E+03 0.  0.
         13    1    3    3    0    0  0.21483552436E+03 -0.22132904011E+03  0.26427572698E+03  0.40618038652E+03  0.00000000000E+00 0. -1.
          4    1    3    3  501    0 -0.21483552436E+03  0.22132904011E+03  0.62899243740E+03  0.70055144910E+03  0.00000000000E+00 0. -1.
<mgrwt>
<rscale>  0 0.65339677E+03</rscale>
<asrwt>0</asrwt>
<pdfrwt beam="1">0</pdfrwt>
<pdfrwt beam="2">  1        2 0.38811658E+00 0.65339677E+03</pdfrwt>
<totfact> 0.44099066E+00</totfact>
</mgrwt>
</event>
<event>
 5    1  0.2361924E-004  0.6918980E+03  0.7818608E-02  0.9731189E-01
         13   -1    0    0    0    0  0.00000000000E+00  0.00000000000E+00  0.10000000000E+04  0.10000000000E+04  0.00000000000E+00 0. -1.
          2   -1    0    0  501    0 -0.00000000000E+00 -0.00000000000E+00 -0.11968070446E+03  0.11968070446E+03  0.00000000000E+00 0. -1.
    9000006    2    1    2  501    0  0.00000000000E+00  0.00000000000E+00  0.88031929554E+03  0.11196807045E+04  0.69189798226E+03 0.  0.
         13    1    3    3    0    0 -0.28864596732E+03  0.17881004135E+02  0.13292406646E+03  0.31828451455E+03  0.00000000000E+00 0. -1.
          2    1    3    3  501    0  0.28864596732E+03 -0.17881004135E+02  0.74739522907E+03  0.80139618991E+03  0.00000000000E+00 0. -1.
<mgrwt>
<rscale>  0 0.69189798E+03</rscale>
<asrwt>0</asrwt>
<pdfrwt beam="1">0</pdfrwt>
<pdfrwt beam="2">  1        2 0.43520348E+00 0.69189798E+03</pdfrwt>
<totfact> 0.29134602E+00</totfact>
</mgrwt>
</event>
<event>
 5    1  0.2361924E-004  0.6505833E+03  0.7818608E-02  0.9805685E-01
         13   -1    0    0    0    0  0.00000000000E+00  0.00000000000E+00  0.10000000000E+04  0.10000000000E+04  0.00000000000E+00 0. -1.
          2   -1    0    0  501    0 -0.00000000000E+00 -0.00000000000E+00 -0.10581465920E+03  0.10581465920E+03  0.00000000000E+00 0. -1.
    9000006    2    1    2  501    0  0.00000000000E+00  0.00000000000E+00  0.89418534080E+03  0.11058146592E+04  0.65058330505E+03 0.  0.
         13    1    3    3    0    0 -0.28288206345E+02 -0.20382713866E+03  0.87530585098E+03  0.89916964908E+03  0.00000000000E+00 0. -1.
          2    1    3    3  501    0  0.28288206345E+02  0.20382713866E+03  0.18879489818E+02  0.20664501012E+03  0.00000000000E+00 0. -1.
<mgrwt>
<rscale>  0 0.65058331E+03</rscale>
<asrwt>0</asrwt>
<pdfrwt beam="1">0</pdfrwt>
<pdfrwt beam="2">  1        2 0.38478139E+00 0.65058331E+03</pdfrwt>
<totfact> 0.45383068E+00</totfact>
</mgrwt>
</event>
<event>
 5    1  0.2361924E-004  0.6550334E+03  0.7818608E-02  0.9797380E-01
         13   -1    0    0    0    0  0.00000000000E+00  0.00000000000E+00  0.10000000000E+04  0.10000000000E+04  0.00000000000E+00 0. -1.
          2   -1    0    0  501    0 -0.00000000000E+00 -0.00000000000E+00 -0.10726719172E+03  0.10726719172E+03  0.00000000000E+00 0. -1.
    9000006    2    1    2  501    0  0.00000000000E+00  0.00000000000E+00  0.89273280828E+03  0.11072671917E+04  0.65503340897E+03 0.  0.
         13    1    3    3    0    0 -0.13916310842E+03  0.24432142151E+03  0.16246072430E+03  0.32473499149E+03  0.00000000000E+00 0. -1.
          4    1    3    3  501    0  0.13916310842E+03 -0.24432142151E+03  0.73027208398E+03  0.78253220023E+03  0.00000000000E+00 0. -1.
<mgrwt>
<rscale>  0 0.65503341E+03</rscale>
<asrwt>0</asrwt>
<pdfrwt beam="1">0</pdfrwt>
<pdfrwt beam="2">  1        2 0.39006334E+00 0.65503341E+03</pdfrwt>
<totfact> 0.43364881E+00</totfact>
</mgrwt>
</event>
<event>
 5    1  0.2361924E-004  0.6495416E+03  0.7818608E-02  0.9807640E-01
         13   -1    0    0    0    0  0.00000000000E+00  0.00000000000E+00  0.10000000000E+04  0.10000000000E+04  0.00000000000E+00 0. -1.
          2   -1    0    0  501    0 -0.00000000000E+00 -0.00000000000E+00 -0.10547606359E+03  0.10547606359E+03  0.00000000000E+00 0. -1.
    9000006    2    1    2  501    0  0.00000000000E+00  0.00000000000E+00  0.89452393641E+03  0.11054760636E+04  0.64954157245E+03 0.  0.
         13    1    3    3    0    0  0.45065680998E+02  0.60913851731E+02 -0.90221890579E+02  0.11781936376E+03  0.00000000000E+00 0. -1.
          4    1    3    3  501    0 -0.45065680998E+02 -0.60913851731E+02  0.98474582699E+03  0.98765669983E+03  0.00000000000E+00 0. -1.
<mgrwt>
<rscale>  0 0.64954157E+03</rscale>
<asrwt>0</asrwt>
<pdfrwt beam="1">0</pdfrwt>
<pdfrwt beam="2">  1        2 0.38355013E+00 0.64954157E+03</pdfrwt>
<totfact> 0.45865585E+00</totfact>
</mgrwt>
</event>
<event>
 5    1  0.2361924E-004  0.6556650E+03  0.7818608E-02  0.9796207E-01
         13   -1    0    0    0    0  0.00000000000E+00  0.00000000000E+00  0.10000000000E+04  0.10000000000E+04  0.00000000000E+00 0. -1.
          2   -1    0    0  501    0 -0.00000000000E+00 -0.00000000000E+00 -0.10747413714E+03  0.10747413714E+03  0.00000000000E+00 0. -1.
    9000006    2    1    2  501    0  0.00000000000E+00  0.00000000000E+00  0.89252586286E+03  0.11074741371E+04  0.65566496670E+03 0.  0.
         13    1    3    3    0    0  0.23561325552E+03  0.20650862563E+03  0.60928127694E+03  0.68511538668E+03  0.00000000000E+00 0. -1.
          4    1    3    3  501    0 -0.23561325552E+03 -0.20650862563E+03  0.28324458592E+03  0.42235875046E+03  0.00000000000E+00 0. -1.
<mgrwt>
<rscale>  0 0.65566497E+03</rscale>
<asrwt>0</asrwt>
<pdfrwt beam="1">0</pdfrwt>
<pdfrwt beam="2">  1        2 0.39081587E+00 0.65566497E+03</pdfrwt>
<totfact> 0.43084051E+00</totfact>
</mgrwt>
</event>
<event>
 5    1  0.2361924E-004  0.6780695E+03  0.7818608E-02  0.9755489E-01
         13   -1    0    0    0    0  0.00000000000E+00  0.00000000000E+00  0.10000000000E+04  0.10000000000E+04  0.00000000000E+00 0. -1.
          2   -1    0    0  501    0 -0.00000000000E+00 -0.00000000000E+00 -0.11494455089E+03  0.11494455089E+03  0.00000000000E+00 0. -1.
    9000006    2    1    2  501    0  0.00000000000E+00  0.00000000000E+00  0.88505544911E+03  0.11149445509E+04  0.67806946810E+03 0.  0.
         13    1    3    3    0    0  0.85596018760E+02  0.13047639203E+03 -0.52384611218E+02  0.16460533040E+03  0.00000000000E+00 0. -1.
          2    1    3    3  501    0 -0.85596018760E+02 -0.13047639203E+03  0.93744006033E+03  0.95033922049E+03  0.00000000000E+00 0. -1.
<mgrwt>
<rscale>  0 0.67806947E+03</rscale>
<asrwt>0</asrwt>
<pdfrwt beam="1">0</pdfrwt>
<pdfrwt beam="2">  1        2 0.41798107E+00 0.67806947E+03</pdfrwt>
<totfact> 0.33978174E+00</totfact>
</mgrwt>
</event>
<event>
 5    1  0.2361924E-004  0.6459925E+03  0.7818608E-02  0.9814328E-01
         13   -1    0    0    0    0  0.00000000000E+00  0.00000000000E+00  0.10000000000E+04  0.10000000000E+04  0.00000000000E+00 0. -1.
          2   -1    0    0  501    0 -0.00000000000E+00 -0.00000000000E+00 -0.10432658780E+03  0.10432658780E+03  0.00000000000E+00 0. -1.
    9000006    2    1    2  501    0  0.00000000000E+00  0.00000000000E+00  0.89567341220E+03  0.11043265878E+04  0.64599253185E+03 0.  0.
         13    1    3    3    0    0 -0.10715769310E+03 -0.27131394779E+03  0.68491323524E+03  0.74444621650E+03  0.00000000000E+00 0. -1.
          2    1    3    3  501    0  0.10715769310E+03  0.27131394779E+03  0.21076017696E+03  0.35988037130E+03  0.00000000000E+00 0. -1.
<mgrwt>
<rscale>  0 0.64599253E+03</rscale>
<asrwt>0</asrwt>
<pdfrwt beam="1">0</pdfrwt>
<pdfrwt beam="2">  1        2 0.37937021E+00 0.64599253E+03</pdfrwt>
<totfact> 0.47538618E+00</totfact>
</mgrwt>
</event>
<event>
 5    1  0.2361924E-004  0.6782948E+03  0.7818608E-02  0.9755088E-01
         13   -1    0    0    0    0  0.00000000000E+00  0.00000000000E+00  0.10000000000E+04  0.10000000000E+04  0.00000000000E+00 0. -1.
          2   -1    0    0  501    0 -0.00000000000E+00 -0.00000000000E+00 -0.11502096563E+03  0.11502096563E+03  0.00000000000E+00 0. -1.
    9000006    2    1    2  501    0  0.00000000000E+00  0.00000000000E+00  0.88497903437E+03  0.11150209656E+04  0.67829481975E+03 0.  0.
         13    1    3    3    0    0 -0.33078391096E+03  0.47505643808E+02  0.34739851567E+03  0.48203787262E+03  0.00000000000E+00 0. -1.
          4    1    3    3  501    0  0.33078391096E+03 -0.47505643808E+02  0.53758051870E+03  0.63298309301E+03  0.00000000000E+00 0. -1.
<mgrwt>
<rscale>  0 0.67829482E+03</rscale>
<asrwt>0</asrwt>
<pdfrwt beam="1">0</pdfrwt>
<pdfrwt beam="2">  1        2 0.41825894E+00 0.67829482E+03</pdfrwt>
<totfact> 0.33894692E+00</totfact>
</mgrwt>
</event>
<event>
 5    1  0.2361924E-004  0.6502497E+03  0.7818608E-02  0.9806311E-01
         13   -1    0    0    0    0  0.00000000000E+00  0.00000000000E+00  0.10000000000E+04  0.10000000000E+04  0.00000000000E+00 0. -1.
          2   -1    0    0  501    0 -0.00000000000E+00 -0.00000000000E+00 -0.10570615373E+03  0.10570615373E+03  0.00000000000E+00 0. -1.
    9000006    2    1    2  501    0  0.00000000000E+00  0.00000000000E+00  0.89429384627E+03  0.11057061537E+04  0.65024965583E+03 0.  0.
         13    1    3    3    0    0  0.30636892911E+03  0.72700918680E+02  0.30943482293E+03  0.44147169099E+03  0.00000000000E+00 0. -1.
          2    1    3    3  501    0 -0.30636892911E+03 -0.72700918680E+02  0.58485902335E+03  0.66423446274E+03  0.00000000000E+00 0. -1.
<mgrwt>
<rscale>  0 0.65024966E+03</rscale>
<asrwt>0</asrwt>
<pdfrwt beam="1">0</pdfrwt>
<pdfrwt beam="2">  1        2 0.38438682E+00 0.65024966E+03</pdfrwt>
<totfact> 0.45537191E+00</totfact>
</mgrwt>
</event>
<event>
 5    1  0.2361924E-004  0.6505801E+03  0.7818608E-02  0.9805691E-01
         13   -1    0    0    0    0  0.00000000000E+00  0.00000000000E+00  0.10000000000E+04  0.10000000000E+04  0.00000000000E+00 0. -1.
          2   -1    0    0  501    0 -0.00000000000E+00 -0.00000000000E+00 -0.10581362830E+03  0.10581362830E+03  0.00000000000E+00 0. -1.
    9000006    2    1    2  501    0  0.00000000000E+00  0.00000000000E+00  0.89418637170E+03  0.11058136283E+04  0.65058013587E+03 0.  0.
         13    1    3    3    0    0 -0.28246023372E+03 -0.86573575040E+02  0.67849981874E+03  0.74002754783E+03  0.00000000000E+00 0. -1.
          4    1    3    3  501    0  0.28246023372E+03  0.86573575040E+02  0.21568655297E+03  0.36578608046E+03  0.00000000000E+00 0. -1.
<mgrwt>
<rscale>  0 0.65058014E+03</rscale>
<asrwt>0</asrwt>
<pdfrwt beam="1">0</pdfrwt>
<pdfrwt beam="2">  1        2 0.38477764E+00 0.65058014E+03</pdfrwt>
<totfact> 0.45384530E+00</totfact>
</mgrwt>
</event>
<event>
 5    1  0.2361924E-004  0.6624566E+03  0.7818608E-02  0.9783682E-01
         13   -1    0    0    0    0  0.00000000000E+00  0.00000000000E+00  0.10000000000E+04  0.10000000000E+04  0.00000000000E+00 0. -1.
          2   -1    0    0  501    0 -0.00000000000E+00 -0.00000000000E+00 -0.10971219207E+03  0.10971219207E+03  0.00000000000E+00 0. -1.
    9000006    2    1    2  501    0  0.00000000000E+00  0.00000000000E+00  0.89028780793E+03  0.11097121921E+04  0.66245661614E+03 0.  0.
         13    1    3    3    0    0 -0.44312734386E+02 -0.22114876013E+03  0.85148981012E+03  0.88085486278E+03  0.00000000000E+00 0. -1.
          2    1    3    3  501    0  0.44312734386E+02  0.22114876013E+03  0.38797997811E+02  0.22885732929E+03  0.00000000000E+00 0. -1.
<mgrwt>
<rscale>  0 0.66245662E+03</rscale>
<asrwt>0</asrwt>
<pdfrwt beam="1">0</pdfrwt>
<pdfrwt beam="2">  1        2 0.39895427E+00 0.66245662E+03</pdfrwt>
<totfact> 0.40150196E+00</totfact>
</mgrwt>
</event>
<event>
 5    1  0.2361924E-004  0.6468944E+03  0.7818608E-02  0.9812624E-01
         13   -1    0    0    0    0  0.00000000000E+00  0.00000000000E+00  0.10000000000E+04  0.10000000000E+04  0.00000000000E+00 0. -1.
          2   -1    0    0  501    0 -0.00000000000E+00 -0.00000000000E+00 -0.10461808466E+03  0.10461808466E+03  0.00000000000E+00 0. -1.
    9000006    2    1    2  501    0  0.00000000000E+00  0.00000000000E+00  0.89538191534E+03  0.11046180847E+04  0.64689437981E+03 0.  0.
         13    1    3    3    0    0 -0.19224615241E+03 -0.11138064158E+03  0.46306954628E+02  0.22695498338E+03  0.00000000000E+00 0. -1.
          4    1    3    3  501    0  0.19224615241E+03  0.11138064158E+03  0.84907496071E+03  0.87766310128E+03  0.00000000000E+00 0. -1.
<mgrwt>
<rscale>  0 0.64689438E+03</rscale>
<asrwt>0</asrwt>
<pdfrwt beam="1">0</pdfrwt>
<pdfrwt beam="2">  1        2 0.38043020E+00 0.64689438E+03</pdfrwt>
<totfact> 0.47109181E+00</totfact>
</mgrwt>
</event>
<event>
 5    1  0.2361924E-004  0.4771099E+03  0.7818608E-02  0.1019932E+00
         13   -1    0    0    0    0  0.00000000000E+00  0.00000000000E+00  0.10000000000E+04  0.10000000000E+04  0.00000000000E+00 0. -1.
          2   -1    0    0  501    0 -0.00000000000E+00 -0.00000000000E+00 -0.56908472274E+02  0.56908472274E+02  0.00000000000E+00 0. -1.
    9000006    2    1    2  501    0  0.00000000000E+00  0.00000000000E+00  0.94309152773E+03  0.10569084723E+04  0.47710993398E+03 0.  0.
         13    1    3    3    0    0 -0.71599207101E+02  0.18943774349E+03  0.19225652528E+03  0.27924125167E+03  0.00000000000E+00 0. -1.
          2    1    3    3  501    0  0.71599207101E+02 -0.18943774349E+03  0.75083500244E+03  0.77766722061E+03  0.00000000000E+00 0. -1.
<mgrwt>
<rscale>  0 0.47710993E+03</rscale>
<asrwt>0</asrwt>
<pdfrwt beam="1">0</pdfrwt>
<pdfrwt beam="2">  1        2 0.20694034E+00 0.47710993E+03</pdfrwt>
<totfact> 0.20013134E+01</totfact>
</mgrwt>
</event>
<event>
 5    1  0.2361924E-004  0.6584879E+03  0.7818608E-02  0.9790981E-01
         13   -1    0    0    0    0  0.00000000000E+00  0.00000000000E+00  0.10000000000E+04  0.10000000000E+04  0.00000000000E+00 0. -1.
          2   -1    0    0  501    0 -0.00000000000E+00 -0.00000000000E+00 -0.10840157085E+03  0.10840157085E+03  0.00000000000E+00 0. -1.
    9000006    2    1    2  501    0  0.00000000000E+00  0.00000000000E+00  0.89159842915E+03  0.11084015708E+04  0.65848787642E+03 0.  0.
         13    1    3    3    0    0 -0.91907225409E+02 -0.29880670572E+03  0.27193308765E+03  0.41434284068E+03  0.00000000000E+00 0. -1.
          2    1    3    3  501    0  0.91907225409E+02  0.29880670572E+03  0.61966534150E+03  0.69405873017E+03  0.00000000000E+00 0. -1.
<mgrwt>
<rscale>  0 0.65848788E+03</rscale>
<asrwt>0</asrwt>
<pdfrwt beam="1">0</pdfrwt>
<pdfrwt beam="2">  1        2 0.39418836E+00 0.65848788E+03</pdfrwt>
<totfact> 0.41845569E+00</totfact>
</mgrwt>
</event>
<event>
 5    1  0.2361924E-004  0.6117137E+03  0.7818608E-02  0.9881397E-01
         13   -1    0    0    0    0  0.00000000000E+00  0.00000000000E+00  0.10000000000E+04  0.10000000000E+04  0.00000000000E+00 0. -1.
          2   -1    0    0  501    0 -0.00000000000E+00 -0.00000000000E+00 -0.93548425137E+02  0.93548425137E+02  0.00000000000E+00 0. -1.
    9000006    2    1    2  501    0  0.00000000000E+00  0.00000000000E+00  0.90645157486E+03  0.10935484251E+04  0.61171374069E+03 0.  0.
         13    1    3    3    0    0 -0.22169544529E+02 -0.24703604232E+02  0.99677067561E+03  0.99732318559E+03  0.00000000000E+00 0. -1.
          2    1    3    3  501    0  0.22169544529E+02  0.24703604232E+02 -0.90319100743E+02  0.96225239546E+02  0.00000000000E+00 0. -1.
<mgrwt>
<rscale>  0 0.61171374E+03</rscale>
<asrwt>0</asrwt>
<pdfrwt beam="1">0</pdfrwt>
<pdfrwt beam="2">  1        2 0.34017681E+00 0.61171374E+03</pdfrwt>
<totfact> 0.66189650E+00</totfact>
</mgrwt>
</event>
<event>
 5    1  0.2361924E-004  0.6474680E+03  0.7818608E-02  0.9811542E-01
         13   -1    0    0    0    0  0.00000000000E+00  0.00000000000E+00  0.10000000000E+04  0.10000000000E+04  0.00000000000E+00 0. -1.
          2   -1    0    0  501    0 -0.00000000000E+00 -0.00000000000E+00 -0.10480369421E+03  0.10480369421E+03  0.00000000000E+00 0. -1.
    9000006    2    1    2  501    0  0.00000000000E+00  0.00000000000E+00  0.89519630579E+03  0.11048036942E+04  0.64746797360E+03 0.  0.
         13    1    3    3    0    0  0.24358375444E+03 -0.67201493502E+02  0.79291535501E+03  0.83220420953E+03  0.00000000000E+00 0. -1.
          2    1    3    3  501    0 -0.24358375444E+03  0.67201493502E+02  0.10228095078E+03  0.27259948468E+03  0.00000000000E+00 0. -1.
<mgrwt>
<rscale>  0 0.64746797E+03</rscale>
<asrwt>0</asrwt>
<pdfrwt beam="1">0</pdfrwt>
<pdfrwt beam="2">  1        2 0.38110515E+00 0.64746797E+03</pdfrwt>
<totfact> 0.46837582E+00</totfact>
</mgrwt>
</event>
<event>
 5    1  0.2361924E-004  0.6442486E+03  0.7818608E-02  0.9817632E-01
         13   -1    0    0    0    0  0.00000000000E+00  0.00000000000E+00  0.10000000000E+04  0.10000000000E+04  0.00000000000E+00 0. -1.
          2   -1    0    0  501    0 -0.00000000000E+00 -0.00000000000E+00 -0.10376405186E+03  0.10376405186E+03  0.00000000000E+00 0. -1.
    9000006    2    1    2  501    0  0.00000000000E+00  0.00000000000E+00  0.89623594814E+03  0.11037640519E+04  0.64424856030E+03 0.  0.
         13    1    3    3    0    0 -0.19517103692E+03 -0.15153809589E+03  0.94055362308E+02  0.26438974892E+03  0.00000000000E+00 0. -1.
          4    1    3    3  501    0  0.19517103692E+03  0.15153809589E+03  0.80218058583E+03  0.83937430294E+03  0.00000000000E+00 0. -1.
<mgrwt>
<rscale>  0 0.64424856E+03</rscale>
<asrwt>0</asrwt>
<pdfrwt beam="1">0</pdfrwt>
<pdfrwt beam="2">  1        2 0.37732462E+00 0.64424856E+03</pdfrwt>
<totfact> 0.48377447E+00</totfact>
</mgrwt>
</event>
<event>
 5    1  0.2361924E-004  0.6291254E+03  0.7818608E-02  0.9846757E-01
         13   -1    0    0    0    0  0.00000000000E+00  0.00000000000E+00  0.10000000000E+04  0.10000000000E+04  0.00000000000E+00 0. -1.
          2   -1    0    0  501    0 -0.00000000000E+00 -0.00000000000E+00 -0.98949694947E+02  0.98949694947E+02  0.00000000000E+00 0. -1.
    9000006    2    1    2  501    0  0.00000000000E+00  0.00000000000E+00  0.90105030505E+03  0.10989496949E+04  0.62912540863E+03 0.  0.
         13    1    3    3    0    0 -0.30123399983E+03 -0.70580818183E+02  0.35130934470E+03  0.46812587006E+03  0.00000000000E+00 0. -1.
          4    1    3    3  501    0  0.30123399983E+03  0.70580818183E+02  0.54974096035E+03  0.63082382488E+03  0.00000000000E+00 0. -1.
<mgrwt>
<rscale>  0 0.62912541E+03</rscale>
<asrwt>0</asrwt>
<pdfrwt beam="1">0</pdfrwt>
<pdfrwt beam="2">  1        2 0.35981783E+00 0.62912541E+03</pdfrwt>
<totfact> 0.56131148E+00</totfact>
</mgrwt>
</event>
<event>
 5    1  0.2361924E-004  0.6503281E+03  0.7818608E-02  0.9806164E-01
         13   -1    0    0    0    0  0.00000000000E+00  0.00000000000E+00  0.10000000000E+04  0.10000000000E+04  0.00000000000E+00 0. -1.
          2   -1    0    0  501    0 -0.00000000000E+00 -0.00000000000E+00 -0.10573166912E+03  0.10573166912E+03  0.00000000000E+00 0. -1.
    9000006    2    1    2  501    0  0.00000000000E+00  0.00000000000E+00  0.89426833088E+03  0.11057316691E+04  0.65032812987E+03 0.  0.
         13    1    3    3    0    0 -0.33764981095E+02 -0.31992736813E+03  0.52757090502E+03  0.61791961827E+03  0.00000000000E+00 0. -1.
          2    1    3    3  501    0  0.33764981095E+02  0.31992736813E+03  0.36669742586E+03  0.48781205085E+03  0.00000000000E+00 0. -1.
<mgrwt>
<rscale>  0 0.65032813E+03</rscale>
<asrwt>0</asrwt>
<pdfrwt beam="1">0</pdfrwt>
<pdfrwt beam="2">  1        2 0.38447961E+00 0.65032813E+03</pdfrwt>
<totfact> 0.45500906E+00</totfact>
</mgrwt>
</event>
<event>
 5    1  0.2361924E-004  0.6620925E+03  0.7818608E-02  0.9784349E-01
         13   -1    0    0    0    0  0.00000000000E+00  0.00000000000E+00  0.10000000000E+04  0.10000000000E+04  0.00000000000E+00 0. -1.
          2   -1    0    0  501    0 -0.00000000000E+00 -0.00000000000E+00 -0.10959160847E+03  0.10959160847E+03  0.00000000000E+00 0. -1.
    9000006    2    1    2  501    0  0.00000000000E+00  0.00000000000E+00  0.89040839153E+03  0.11095916085E+04  0.66209246625E+03 0.  0.
         13    1    3    3    0    0  0.95772835140E+01 -0.31833113889E+03  0.59663950067E+03  0.67631733092E+03  0.00000000000E+00 0. -1.
          4    1    3    3  501    0 -0.95772835140E+01  0.31833113889E+03  0.29376889086E+03  0.43327427755E+03  0.00000000000E+00 0. -1.
<mgrwt>
<rscale>  0 0.66209247E+03</rscale>
<asrwt>0</asrwt>
<pdfrwt beam="1">0</pdfrwt>
<pdfrwt beam="2">  1        2 0.39851578E+00 0.66209247E+03</pdfrwt>
<totfact> 0.40303556E+00</totfact>
</mgrwt>
</event>
<event>
 5    1  0.2361924E-004  0.6466987E+03  0.7818608E-02  0.9812994E-01
         13   -1    0    0    0    0  0.00000000000E+00  0.00000000000E+00  0.10000000000E+04  0.10000000000E+04  0.00000000000E+00 0. -1.
          2   -1    0    0  501    0 -0.00000000000E+00 -0.00000000000E+00 -0.10455481801E+03  0.10455481801E+03  0.00000000000E+00 0. -1.
    9000006    2    1    2  501    0  0.00000000000E+00  0.00000000000E+00  0.89544518199E+03  0.11045548180E+04  0.64669874908E+03 0.  0.
         13    1    3    3    0    0 -0.71307303610E+02 -0.29429814908E+03  0.64140204301E+03  0.70929028816E+03  0.00000000000E+00 0. -1.
          2    1    3    3  501    0  0.71307303610E+02  0.29429814908E+03  0.25404313898E+03  0.39526452986E+03  0.00000000000E+00 0. -1.
<mgrwt>
<rscale>  0 0.64669875E+03</rscale>
<asrwt>0</asrwt>
<pdfrwt beam="1">0</pdfrwt>
<pdfrwt beam="2">  1        2 0.38020014E+00 0.64669875E+03</pdfrwt>
<totfact> 0.47202086E+00</totfact>
</mgrwt>
</event>
<event>
 5    1  0.2361924E-004  0.6478314E+03  0.7818608E-02  0.9810857E-01
         13   -1    0    0    0    0  0.00000000000E+00  0.00000000000E+00  0.10000000000E+04  0.10000000000E+04  0.00000000000E+00 0. -1.
          2   -1    0    0  501    0 -0.00000000000E+00 -0.00000000000E+00 -0.10492137951E+03  0.10492137951E+03  0.00000000000E+00 0. -1.
    9000006    2    1    2  501    0  0.00000000000E+00  0.00000000000E+00  0.89507862049E+03  0.11049213795E+04  0.64783139631E+03 0.  0.
         13    1    3    3    0    0  0.27817532797E+02 -0.11897076324E+03  0.95919170287E+03  0.96694187027E+03  0.00000000000E+00 0. -1.
          2    1    3    3  501    0 -0.27817532797E+02  0.11897076324E+03 -0.64113082380E+02  0.13797950924E+03  0.00000000000E+00 0. -1.
<mgrwt>
<rscale>  0 0.64783140E+03</rscale>
<asrwt>0</asrwt>
<pdfrwt beam="1">0</pdfrwt>
<pdfrwt beam="2">  1        2 0.38153309E+00 0.64783140E+03</pdfrwt>
<totfact> 0.46666113E+00</totfact>
</mgrwt>
</event>
<event>
 5    1  0.2361924E-004  0.6531280E+03  0.7818608E-02  0.9800927E-01
         13   -1    0    0    0    0  0.00000000000E+00  0.00000000000E+00  0.10000000000E+04  0.10000000000E+04  0.00000000000E+00 0. -1.
          2   -1    0    0  501    0 -0.00000000000E+00 -0.00000000000E+00 -0.10664404931E+03  0.10664404931E+03  0.00000000000E+00 0. -1.
    9000006    2    1    2  501    0  0.00000000000E+00  0.00000000000E+00  0.89335595069E+03  0.11066440493E+04  0.65312800983E+03 0.  0.
         13    1    3    3    0    0 -0.87969493067E+02  0.26229341081E+03  0.15267779352E+03  0.31598571755E+03  0.00000000000E+00 0. -1.
          2    1    3    3  501    0  0.87969493067E+02 -0.26229341081E+03  0.74067815717E+03  0.79065833175E+03  0.00000000000E+00 0. -1.
<mgrwt>
<rscale>  0 0.65312801E+03</rscale>
<asrwt>0</asrwt>
<pdfrwt beam="1">0</pdfrwt>
<pdfrwt beam="2">  1        2 0.38779736E+00 0.65312801E+03</pdfrwt>
<totfact> 0.44220522E+00</totfact>
</mgrwt>
</event>
<event>
 5    1  0.2361924E-004  0.6411667E+03  0.7818608E-02  0.9823497E-01
         13   -1    0    0    0    0  0.00000000000E+00  0.00000000000E+00  0.10000000000E+04  0.10000000000E+04  0.00000000000E+00 0. -1.
          2   -1    0    0  501    0 -0.00000000000E+00 -0.00000000000E+00 -0.10277367424E+03  0.10277367424E+03  0.00000000000E+00 0. -1.
    9000006    2    1    2  501    0  0.00000000000E+00  0.00000000000E+00  0.89722632576E+03  0.11027736742E+04  0.64116666863E+03 0.  0.
         13    1    3    3    0    0 -0.18559257403E+03  0.24058731022E+03  0.62440853726E+03  0.69441549433E+03  0.00000000000E+00 0. -1.
          2    1    3    3  501    0  0.18559257403E+03 -0.24058731022E+03  0.27281778850E+03  0.40835817991E+03  0.00000000000E+00 0. -1.
<mgrwt>
<rscale>  0 0.64116667E+03</rscale>
<asrwt>0</asrwt>
<pdfrwt beam="1">0</pdfrwt>
<pdfrwt beam="2">  1        2 0.37372324E+00 0.64116667E+03</pdfrwt>
<totfact> 0.49887205E+00</totfact>
</mgrwt>
</event>
<event>
 5    1  0.2361924E-004  0.6479130E+03  0.7818608E-02  0.9810703E-01
         13   -1    0    0    0    0  0.00000000000E+00  0.00000000000E+00  0.10000000000E+04  0.10000000000E+04  0.00000000000E+00 0. -1.
          2   -1    0    0  501    0 -0.00000000000E+00 -0.00000000000E+00 -0.10494781815E+03  0.10494781815E+03  0.00000000000E+00 0. -1.
    9000006    2    1    2  501    0  0.00000000000E+00  0.00000000000E+00  0.89505218185E+03  0.11049478181E+04  0.64791301314E+03 0.  0.
         13    1    3    3    0    0  0.91769713723E+02  0.48981954661E+02 -0.75691042974E+02  0.12864698296E+03  0.00000000000E+00 0. -1.
          2    1    3    3  501    0 -0.91769713723E+02 -0.48981954661E+02  0.97074322483E+03  0.97630083518E+03  0.00000000000E+00 0. -1.
<mgrwt>
<rscale>  0 0.64791301E+03</rscale>
<asrwt>0</asrwt>
<pdfrwt beam="1">0</pdfrwt>
<pdfrwt beam="2">  1        2 0.38162923E+00 0.64791301E+03</pdfrwt>
<totfact> 0.46627670E+00</totfact>
</mgrwt>
</event>
<event>
 5    1  0.2361924E-004  0.6469271E+03  0.7818608E-02  0.9812562E-01
         13   -1    0    0    0    0  0.00000000000E+00  0.00000000000E+00  0.10000000000E+04  0.10000000000E+04  0.00000000000E+00 0. -1.
          2   -1    0    0  501    0 -0.00000000000E+00 -0.00000000000E+00 -0.10462867824E+03  0.10462867824E+03  0.00000000000E+00 0. -1.
    9000006    2    1    2  501    0  0.00000000000E+00  0.00000000000E+00  0.89537132176E+03  0.11046286782E+04  0.64692713111E+03 0.  0.
         13    1    3    3    0    0 -0.13851097914E+03 -0.26667818982E+03  0.65205954206E+03  0.71797227987E+03  0.00000000000E+00 0. -1.
          4    1    3    3  501    0  0.13851097914E+03  0.26667818982E+03  0.24331177969E+03  0.38665639837E+03  0.00000000000E+00 0. -1.
<mgrwt>
<rscale>  0 0.64692713E+03</rscale>
<asrwt>0</asrwt>
<pdfrwt beam="1">0</pdfrwt>
<pdfrwt beam="2">  1        2 0.38046872E+00 0.64692713E+03</pdfrwt>
<totfact> 0.47093642E+00</totfact>
</mgrwt>
</event>
<event>
 5    1  0.2361924E-004  0.6538699E+03  0.7818608E-02  0.9799545E-01
         13   -1    0    0    0    0  0.00000000000E+00  0.00000000000E+00  0.10000000000E+04  0.10000000000E+04  0.00000000000E+00 0. -1.
          2   -1    0    0  501    0 -0.00000000000E+00 -0.00000000000E+00 -0.10688646086E+03  0.10688646086E+03  0.00000000000E+00 0. -1.
    9000006    2    1    2  501    0  0.00000000000E+00  0.00000000000E+00  0.89311353914E+03  0.11068864609E+04  0.65386989796E+03 0.  0.
         13    1    3    3    0    0  0.24855990822E+03  0.14256516129E+03  0.18008025208E+03  0.33843130821E+03  0.00000000000E+00 0. -1.
          4    1    3    3  501    0 -0.24855990822E+03 -0.14256516129E+03  0.71303328705E+03  0.76845515265E+03  0.00000000000E+00 0. -1.
<mgrwt>
<rscale>  0 0.65386990E+03</rscale>
<asrwt>0</asrwt>
<pdfrwt beam="1">0</pdfrwt>
<pdfrwt beam="2">  1        2 0.38867886E+00 0.65386990E+03</pdfrwt>
<totfact> 0.43885867E+00</totfact>
</mgrwt>
</event>
<event>
 5    1  0.2361924E-004  0.6360881E+03  0.7818608E-02  0.9833240E-01
         13   -1    0    0    0    0  0.00000000000E+00  0.00000000000E+00  0.10000000000E+04  0.10000000000E+04  0.00000000000E+00 0. -1.
          2   -1    0    0  501    0 -0.00000000000E+00 -0.00000000000E+00 -0.10115203167E+03  0.10115203167E+03  0.00000000000E+00 0. -1.
    9000006    2    1    2  501    0  0.00000000000E+00  0.00000000000E+00  0.89884796833E+03  0.11011520317E+04  0.63608814379E+03 0.  0.
         13    1    3    3    0    0 -0.12673705680E+03  0.28051268181E+03  0.58794028726E+03  0.66364405189E+03  0.00000000000E+00 0. -1.
          4    1    3    3  501    0  0.12673705680E+03 -0.28051268181E+03  0.31090768107E+03  0.43750797978E+03  0.00000000000E+00 0. -1.
<mgrwt>
<rscale>  0 0.63608814E+03</rscale>
<asrwt>0</asrwt>
<pdfrwt beam="1">0</pdfrwt>
<pdfrwt beam="2">  1        2 0.36782635E+00 0.63608814E+03</pdfrwt>
<totfact> 0.52452717E+00</totfact>
</mgrwt>
</event>
<event>
 5    1  0.2361924E-004  0.6308111E+03  0.7818608E-02  0.9843467E-01
         13   -1    0    0    0    0  0.00000000000E+00  0.00000000000E+00  0.10000000000E+04  0.10000000000E+04  0.00000000000E+00 0. -1.
          2   -1    0    0  501    0 -0.00000000000E+00 -0.00000000000E+00 -0.99480651105E+02  0.99480651105E+02  0.00000000000E+00 0. -1.
    9000006    2    1    2  501    0  0.00000000000E+00  0.00000000000E+00  0.90051934889E+03  0.10994806511E+04  0.63081106872E+03 0.  0.
         13    1    3    3    0    0  0.90477719781E+01 -0.16857461406E+03  0.91462579930E+03  0.93007505903E+03  0.00000000000E+00 0. -1.
          2    1    3    3  501    0 -0.90477719781E+01  0.16857461406E+03 -0.14106450410E+02  0.16940559207E+03  0.00000000000E+00 0. -1.
<mgrwt>
<rscale>  0 0.63081107E+03</rscale>
<asrwt>0</asrwt>
<pdfrwt beam="1">0</pdfrwt>
<pdfrwt beam="2">  1        2 0.36174859E+00 0.63081107E+03</pdfrwt>
<totfact> 0.55223204E+00</totfact>
</mgrwt>
</event>
<event>
 5    1  0.2361924E-004  0.6442757E+03  0.7818608E-02  0.9817580E-01
         13   -1    0    0    0    0  0.00000000000E+00  0.00000000000E+00  0.10000000000E+04  0.10000000000E+04  0.00000000000E+00 0. -1.
          2   -1    0    0  501    0 -0.00000000000E+00 -0.00000000000E+00 -0.10377279200E+03  0.10377279200E+03  0.00000000000E+00 0. -1.
    9000006    2    1    2  501    0  0.00000000000E+00  0.00000000000E+00  0.89622720800E+03  0.11037727920E+04  0.64427569253E+03 0.  0.
         13    1    3    3    0    0 -0.26612311802E+03  0.11243391762E+03  0.69226642546E+03  0.75013045772E+03  0.00000000000E+00 0. -1.
          2    1    3    3  501    0  0.26612311802E+03 -0.11243391762E+03  0.20396078254E+03  0.35364233428E+03  0.00000000000E+00 0. -1.
<mgrwt>
<rscale>  0 0.64427569E+03</rscale>
<asrwt>0</asrwt>
<pdfrwt beam="1">0</pdfrwt>
<pdfrwt beam="2">  1        2 0.37735640E+00 0.64427569E+03</pdfrwt>
<totfact> 0.48364312E+00</totfact>
</mgrwt>
</event>
<event>
 5    1  0.2361924E-004  0.6523577E+03  0.7818608E-02  0.9802365E-01
         13   -1    0    0    0    0  0.00000000000E+00  0.00000000000E+00  0.10000000000E+04  0.10000000000E+04  0.00000000000E+00 0. -1.
          2   -1    0    0  501    0 -0.00000000000E+00 -0.00000000000E+00 -0.10639263554E+03  0.10639263554E+03  0.00000000000E+00 0. -1.
    9000006    2    1    2  501    0  0.00000000000E+00  0.00000000000E+00  0.89360736446E+03  0.11063926355E+04  0.65235767962E+03 0.  0.
         13    1    3    3    0    0 -0.25073922511E+03  0.20331533132E+03  0.52608744515E+03  0.61723195227E+03  0.00000000000E+00 0. -1.
          4    1    3    3  501    0  0.25073922511E+03 -0.20331533132E+03  0.36751991931E+03  0.48916068327E+03  0.00000000000E+00 0. -1.
<mgrwt>
<rscale>  0 0.65235768E+03</rscale>
<asrwt>0</asrwt>
<pdfrwt beam="1">0</pdfrwt>
<pdfrwt beam="2">  1        2 0.38688313E+00 0.65235768E+03</pdfrwt>
<totfact> 0.44570044E+00</totfact>
</mgrwt>
</event>
<event>
 5    1  0.2361924E-004  0.6527842E+03  0.7818608E-02  0.9801569E-01
         13   -1    0    0    0    0  0.00000000000E+00  0.00000000000E+00  0.10000000000E+04  0.10000000000E+04  0.00000000000E+00 0. -1.
          2   -1    0    0  501    0 -0.00000000000E+00 -0.00000000000E+00 -0.10653180225E+03  0.10653180225E+03  0.00000000000E+00 0. -1.
    9000006    2    1    2  501    0  0.00000000000E+00  0.00000000000E+00  0.89346819775E+03  0.11065318023E+04  0.65278419788E+03 0.  0.
         13    1    3    3    0    0  0.29377640173E+03  0.14149504089E+03  0.42238238209E+03  0.53360312735E+03  0.00000000000E+00 0. -1.
          2    1    3    3  501    0 -0.29377640173E+03 -0.14149504089E+03  0.47108581566E+03  0.57292867490E+03  0.00000000000E+00 0. -1.
<mgrwt>
<rscale>  0 0.65278420E+03</rscale>
<asrwt>0</asrwt>
<pdfrwt beam="1">0</pdfrwt>
<pdfrwt beam="2">  1        2 0.38738919E+00 0.65278420E+03</pdfrwt>
<totfact> 0.44376263E+00</totfact>
</mgrwt>
</event>
<event>
 5    1  0.2361924E-004  0.6341408E+03  0.7818608E-02  0.9837001E-01
         13   -1    0    0    0    0  0.00000000000E+00  0.00000000000E+00  0.10000000000E+04  0.10000000000E+04  0.00000000000E+00 0. -1.
          2   -1    0    0  501    0 -0.00000000000E+00 -0.00000000000E+00 -0.10053364038E+03  0.10053364038E+03  0.00000000000E+00 0. -1.
    9000006    2    1    2  501    0  0.00000000000E+00  0.00000000000E+00  0.89946635962E+03  0.11005336404E+04  0.63414080574E+03 0.  0.
         13    1    3    3    0    0  0.15189143510E+03 -0.48810576142E+02 -0.25799334393E+02  0.16161400328E+03  0.00000000000E+00 0. -1.
          2    1    3    3  501    0 -0.15189143510E+03  0.48810576142E+02  0.92526569402E+03  0.93891963710E+03  0.00000000000E+00 0. -1.
<mgrwt>
<rscale>  0 0.63414081E+03</rscale>
<asrwt>0</asrwt>
<pdfrwt beam="1">0</pdfrwt>
<pdfrwt beam="2">  1        2 0.36557765E+00 0.63414081E+03</pdfrwt>
<totfact> 0.53462504E+00</totfact>
</mgrwt>
</event>
<event>
 5    1  0.2361924E-004  0.6376653E+03  0.7818608E-02  0.9830204E-01
         13   -1    0    0    0    0  0.00000000000E+00  0.00000000000E+00  0.10000000000E+04  0.10000000000E+04  0.00000000000E+00 0. -1.
          2   -1    0    0  501    0 -0.00000000000E+00 -0.00000000000E+00 -0.10165424545E+03  0.10165424545E+03  0.00000000000E+00 0. -1.
    9000006    2    1    2  501    0  0.00000000000E+00  0.00000000000E+00  0.89834575455E+03  0.11016542455E+04  0.63766525842E+03 0.  0.
         13    1    3    3    0    0 -0.18127967834E+03  0.15275076694E+03  0.80820818753E+02  0.25045383472E+03  0.00000000000E+00 0. -1.
          4    1    3    3  501    0  0.18127967834E+03 -0.15275076694E+03  0.81752493580E+03  0.85120041073E+03  0.00000000000E+00 0. -1.
<mgrwt>
<rscale>  0 0.63766526E+03</rscale>
<asrwt>0</asrwt>
<pdfrwt beam="1">0</pdfrwt>
<pdfrwt beam="2">  1        2 0.36965258E+00 0.63766526E+03</pdfrwt>
<totfact> 0.51645558E+00</totfact>
</mgrwt>
</event>
<event>
 5    1  0.2361924E-004  0.6422549E+03  0.7818608E-02  0.9821422E-01
         13   -1    0    0    0    0  0.00000000000E+00  0.00000000000E+00  0.10000000000E+04  0.10000000000E+04  0.00000000000E+00 0. -1.
          2   -1    0    0  501    0 -0.00000000000E+00 -0.00000000000E+00 -0.10312282916E+03  0.10312282916E+03  0.00000000000E+00 0. -1.
    9000006    2    1    2  501    0  0.00000000000E+00  0.00000000000E+00  0.89687717084E+03  0.11031228292E+04  0.64225486891E+03 0.  0.
         13    1    3    3    0    0 -0.11211991716E+02 -0.31742773095E+03  0.52967032900E+03  0.61760564323E+03  0.00000000000E+00 0. -1.
          4    1    3    3  501    0  0.11211991716E+02  0.31742773095E+03  0.36720684184E+03  0.48551718593E+03  0.00000000000E+00 0. -1.
<mgrwt>
<rscale>  0 0.64225487E+03</rscale>
<asrwt>0</asrwt>
<pdfrwt beam="1">0</pdfrwt>
<pdfrwt beam="2">  1        2 0.37499290E+00 0.64225487E+03</pdfrwt>
<totfact> 0.49350079E+00</totfact>
</mgrwt>
</event>
<event>
 5    1  0.2361924E-004  0.6367816E+03  0.7818608E-02  0.9831904E-01
         13   -1    0    0    0    0  0.00000000000E+00  0.00000000000E+00  0.10000000000E+04  0.10000000000E+04  0.00000000000E+00 0. -1.
          2   -1    0    0  501    0 -0.00000000000E+00 -0.00000000000E+00 -0.10137268763E+03  0.10137268763E+03  0.00000000000E+00 0. -1.
    9000006    2    1    2  501    0  0.00000000000E+00  0.00000000000E+00  0.89862731237E+03  0.11013726876E+04  0.63678155635E+03 0.  0.
         13    1    3    3    0    0 -0.13218170777E+03 -0.28951217549E+03  0.43351990834E+03  0.53779997634E+03  0.00000000000E+00 0. -1.
          4    1    3    3  501    0  0.13218170777E+03  0.28951217549E+03  0.46510740403E+03  0.56357271129E+03  0.00000000000E+00 0. -1.
<mgrwt>
<rscale>  0 0.63678156E+03</rscale>
<asrwt>0</asrwt>
<pdfrwt beam="1">0</pdfrwt>
<pdfrwt beam="2">  1        2 0.36862873E+00 0.63678156E+03</pdfrwt>
<totfact> 0.52096663E+00</totfact>
</mgrwt>
</event>
<event>
 5    1  0.2361924E-004  0.6550145E+03  0.7818608E-02  0.9797415E-01
         13   -1    0    0    0    0  0.00000000000E+00  0.00000000000E+00  0.10000000000E+04  0.10000000000E+04  0.00000000000E+00 0. -1.
          2   -1    0    0  501    0 -0.00000000000E+00 -0.00000000000E+00 -0.10726098462E+03  0.10726098462E+03  0.00000000000E+00 0. -1.
    9000006    2    1    2  501    0  0.00000000000E+00  0.00000000000E+00  0.89273901538E+03  0.11072609846E+04  0.65501445668E+03 0.  0.
         13    1    3    3    0    0 -0.17521116638E+03  0.34390604646E+02 -0.17745074929E+02  0.17943398284E+03  0.00000000000E+00 0. -1.
          4    1    3    3  501    0  0.17521116638E+03 -0.34390604646E+02  0.91048409031E+03  0.92782700178E+03  0.00000000000E+00 0. -1.
<mgrwt>
<rscale>  0 0.65501446E+03</rscale>
<asrwt>0</asrwt>
<pdfrwt beam="1">0</pdfrwt>
<pdfrwt beam="2">  1        2 0.39004077E+00 0.65501446E+03</pdfrwt>
<totfact> 0.43373329E+00</totfact>
</mgrwt>
</event>
<event>
 5    1  0.2361924E-004  0.6392731E+03  0.7818608E-02  0.9827118E-01
         13   -1    0    0    0    0  0.00000000000E+00  0.00000000000E+00  0.10000000000E+04  0.10000000000E+04  0.00000000000E+00 0. -1.
          2   -1    0    0  501    0 -0.00000000000E+00 -0.00000000000E+00 -0.10216751002E+03  0.10216751002E+03  0.00000000000E+00 0. -1.
    9000006    2    1    2  501    0  0.00000000000E+00  0.00000000000E+00  0.89783248998E+03  0.11021675100E+04  0.63927305597E+03 0.  0.
         13    1    3    3    0    0 -0.11520368627E+03 -0.24669514746E+03  0.73760372046E+03  0.78625036314E+03  0.00000000000E+00 0. -1.
          4    1    3    3  501    0  0.11520368627E+03  0.24669514746E+03  0.16022876952E+03  0.31591714688E+03  0.00000000000E+00 0. -1.
<mgrwt>
<rscale>  0 0.63927306E+03</rscale>
<asrwt>0</asrwt>
<pdfrwt beam="1">0</pdfrwt>
<pdfrwt beam="2">  1        2 0.37151900E+00 0.63927306E+03</pdfrwt>
<totfact> 0.50832418E+00</totfact>
</mgrwt>
</event>
<event>
 5    1  0.2361924E-004  0.6877610E+03  0.7818608E-02  0.9738395E-01
         13   -1    0    0    0    0  0.00000000000E+00  0.00000000000E+00  0.10000000000E+04  0.10000000000E+04  0.00000000000E+00 0. -1.
          2   -1    0    0  501    0 -0.00000000000E+00 -0.00000000000E+00 -0.11825378756E+03  0.11825378756E+03  0.00000000000E+00 0. -1.
    9000006    2    1    2  501    0  0.00000000000E+00  0.00000000000E+00  0.88174621244E+03  0.11182537876E+04  0.68776096882E+03 0.  0.
         13    1    3    3    0    0 -0.33473243652E+03 -0.72310696893E+02  0.38999549461E+03  0.51900975594E+03  0.00000000000E+00 0. -1.
          4    1    3    3  501    0  0.33473243652E+03  0.72310696893E+02  0.49175071783E+03  0.59924403162E+03  0.00000000000E+00 0. -1.
<mgrwt>
<rscale>  0 0.68776097E+03</rscale>
<asrwt>0</asrwt>
<pdfrwt beam="1">0</pdfrwt>
<pdfrwt beam="2">  1        2 0.43001468E+00 0.68776097E+03</pdfrwt>
<totfact> 0.30525120E+00</totfact>
</mgrwt>
</event>
<event>
 5    1  0.2361924E-004  0.6501192E+03  0.7818608E-02  0.9806556E-01
         13   -1    0    0    0    0  0.00000000000E+00  0.00000000000E+00  0.10000000000E+04  0.10000000000E+04  0.00000000000E+00 0. -1.
          2   -1    0    0  501    0 -0.00000000000E+00 -0.00000000000E+00 -0.10566374594E+03  0.10566374594E+03  0.00000000000E+00 0. -1.
    9000006    2    1    2  501    0  0.00000000000E+00  0.00000000000E+00  0.89433625406E+03  0.11056637459E+04  0.65011920736E+03 0.  0.
         13    1    3    3    0    0 -0.27225289677E+03  0.32557564710E+02  0.15023914225E+03  0.31265545682E+03  0.00000000000E+00 0. -1.
          2    1    3    3  501    0  0.27225289677E+03 -0.32557564710E+02  0.74409711180E+03  0.79300828912E+03  0.00000000000E+00 0. -1.
<mgrwt>
<rscale>  0 0.65011921E+03</rscale>
<asrwt>0</asrwt>
<pdfrwt beam="1">0</pdfrwt>
<pdfrwt beam="2">  1        2 0.38423261E+00 0.65011921E+03</pdfrwt>
<totfact> 0.45597556E+00</totfact>
</mgrwt>
</event>
<event>
 5    1  0.2361924E-004  0.6578985E+03  0.7818608E-02  0.9792070E-01
         13   -1    0    0    0    0  0.00000000000E+00  0.00000000000E+00  0.10000000000E+04  0.10000000000E+04  0.00000000000E+00 0. -1.
          2   -1    0    0  501    0 -0.00000000000E+00 -0.00000000000E+00 -0.10820760531E+03  0.10820760531E+03  0.00000000000E+00 0. -1.
    9000006    2    1    2  501    0  0.00000000000E+00  0.00000000000E+00  0.89179239469E+03  0.11082076053E+04  0.65789848854E+03 0.  0.
         13    1    3    3    0    0 -0.38061739857E+02 -0.32624487794E+03  0.41561378662E+03  0.52973506213E+03  0.00000000000E+00 0. -1.
          2    1    3    3  501    0  0.38061739857E+02  0.32624487794E+03  0.47617860808E+03  0.57847254318E+03  0.00000000000E+00 0. -1.
<mgrwt>
<rscale>  0 0.65789849E+03</rscale>
<asrwt>0</asrwt>
<pdfrwt beam="1">0</pdfrwt>
<pdfrwt beam="2">  1        2 0.39348303E+00 0.65789849E+03</pdfrwt>
<totfact> 0.42101891E+00</totfact>
</mgrwt>
</event>
<event>
 5    1  0.2361924E-004  0.6400278E+03  0.7818608E-02  0.9825673E-01
         13   -1    0    0    0    0  0.00000000000E+00  0.00000000000E+00  0.10000000000E+04  0.10000000000E+04  0.00000000000E+00 0. -1.
          2   -1    0    0  501    0 -0.00000000000E+00 -0.00000000000E+00 -0.10240890628E+03  0.10240890628E+03  0.00000000000E+00 0. -1.
    9000006    2    1    2  501    0  0.00000000000E+00  0.00000000000E+00  0.89759109372E+03  0.11024089063E+04  0.64002783153E+03 0.  0.
         13    1    3    3    0    0 -0.72610076439E+02  0.17615248205E+03  0.89165664493E+03  0.91178588088E+03  0.00000000000E+00 0. -1.
          2    1    3    3  501    0  0.72610076439E+02 -0.17615248205E+03  0.59344487902E+01  0.19062302540E+03  0.00000000000E+00 0. -1.
<mgrwt>
<rscale>  0 0.64002783E+03</rscale>
<asrwt>0</asrwt>
<pdfrwt beam="1">0</pdfrwt>
<pdfrwt beam="2">  1        2 0.37239681E+00 0.64002783E+03</pdfrwt>
<totfact> 0.50454054E+00</totfact>
</mgrwt>
</event>
<event>
 5    1  0.2361924E-004  0.6562802E+03  0.7818608E-02  0.9795066E-01
         13   -1    0    0    0    0  0.00000000000E+00  0.00000000000E+00  0.10000000000E+04  0.10000000000E+04  0.00000000000E+00 0. -1.
          2   -1    0    0  501    0 -0.00000000000E+00 -0.00000000000E+00 -0.10767590971E+03  0.10767590971E+03  0.00000000000E+00 0. -1.
    9000006    2    1    2  501    0  0.00000000000E+00  0.00000000000E+00  0.89232409029E+03  0.11076759097E+04  0.65628015272E+03 0.  0.
         13    1    3    3    0    0  0.29007086284E+03 -0.14435134340E+03  0.35850159918E+03  0.48322025250E+03  0.00000000000E+00 0. -1.
          2    1    3    3  501    0 -0.29007086284E+03  0.14435134340E+03  0.53382249111E+03  0.62445565721E+03  0.00000000000E+00 0. -1.
<mgrwt>
<rscale>  0 0.65628015E+03</rscale>
<asrwt>0</asrwt>
<pdfrwt beam="1">0</pdfrwt>
<pdfrwt beam="2">  1        2 0.39154959E+00 0.65628015E+03</pdfrwt>
<totfact> 0.42811823E+00</totfact>
</mgrwt>
</event>
<event>
 5    1  0.2361924E-004  0.5593021E+03  0.7818608E-02  0.9993635E-01
         13   -1    0    0    0    0  0.00000000000E+00  0.00000000000E+00  0.10000000000E+04  0.10000000000E+04  0.00000000000E+00 0. -1.
          4   -1    0    0  501    0 -0.00000000000E+00 -0.00000000000E+00 -0.78204714074E+02  0.78204714074E+02  0.00000000000E+00 0. -1.
    9000006    2    1    2  501    0  0.00000000000E+00  0.00000000000E+00  0.92179528593E+03  0.10782047141E+04  0.55930211540E+03 0.  0.
         13    1    3    3    0    0  0.11552777841E+03 -0.20515635852E+03  0.17000955785E+03  0.29041186061E+03  0.00000000000E+00 0. -1.
          2    1    3    3  501    0 -0.11552777841E+03  0.20515635852E+03  0.75178572808E+03  0.78779285346E+03  0.00000000000E+00 0. -1.
<mgrwt>
<rscale>  0 0.55930212E+03</rscale>
<asrwt>0</asrwt>
<pdfrwt beam="1">0</pdfrwt>
<pdfrwt beam="2">  1        4 0.28438138E+00 0.55930212E+03</pdfrwt>
<totfact> 0.17772809E-01</totfact>
</mgrwt>
</event>
<event>
 5    1  0.2361924E-004  0.6495750E+03  0.7818608E-02  0.9807577E-01
         13   -1    0    0    0    0  0.00000000000E+00  0.00000000000E+00  0.10000000000E+04  0.10000000000E+04  0.00000000000E+00 0. -1.
          2   -1    0    0  501    0 -0.00000000000E+00 -0.00000000000E+00 -0.10548692514E+03  0.10548692514E+03  0.00000000000E+00 0. -1.
    9000006    2    1    2  501    0  0.00000000000E+00  0.00000000000E+00  0.89451307486E+03  0.11054869251E+04  0.64957501535E+03 0.  0.
         13    1    3    3    0    0  0.29655556512E+03  0.12233047519E+03  0.36086333941E+03  0.48283775546E+03  0.00000000000E+00 0. -1.
          4    1    3    3  501    0 -0.29655556512E+03 -0.12233047519E+03  0.53364973545E+03  0.62264916969E+03  0.00000000000E+00 0. -1.
<mgrwt>
<rscale>  0 0.64957502E+03</rscale>
<asrwt>0</asrwt>
<pdfrwt beam="1">0</pdfrwt>
<pdfrwt beam="2">  1        2 0.38358963E+00 0.64957502E+03</pdfrwt>
<totfact> 0.45850035E+00</totfact>
</mgrwt>
</event>
<event>
 5    1  0.2361924E-004  0.6513700E+03  0.7818608E-02  0.9804212E-01
         13   -1    0    0    0    0  0.00000000000E+00  0.00000000000E+00  0.10000000000E+04  0.10000000000E+04  0.00000000000E+00 0. -1.
          2   -1    0    0  501    0 -0.00000000000E+00 -0.00000000000E+00 -0.10607072253E+03  0.10607072253E+03  0.00000000000E+00 0. -1.
    9000006    2    1    2  501    0  0.00000000000E+00  0.00000000000E+00  0.89392927747E+03  0.11060707225E+04  0.65137001014E+03 0.  0.
         13    1    3    3    0    0 -0.32156347524E+03 -0.47758791389E+02  0.41357041985E+03  0.52604606542E+03  0.00000000000E+00 0. -1.
          4    1    3    3  501    0  0.32156347524E+03  0.47758791389E+02  0.48035885762E+03  0.58002465711E+03  0.00000000000E+00 0. -1.
<mgrwt>
<rscale>  0 0.65137001E+03</rscale>
<asrwt>0</asrwt>
<pdfrwt beam="1">0</pdfrwt>
<pdfrwt beam="2">  1        2 0.38571253E+00 0.65137001E+03</pdfrwt>
<totfact> 0.45021227E+00</totfact>
</mgrwt>
</event>
<event>
 5    1  0.2361924E-004  0.6588248E+03  0.7818608E-02  0.9790360E-01
         13   -1    0    0    0    0  0.00000000000E+00  0.00000000000E+00  0.10000000000E+04  0.10000000000E+04  0.00000000000E+00 0. -1.
          2   -1    0    0  501    0 -0.00000000000E+00 -0.00000000000E+00 -0.10851251444E+03  0.10851251444E+03  0.00000000000E+00 0. -1.
    9000006    2    1    2  501    0  0.00000000000E+00  0.00000000000E+00  0.89148748556E+03  0.11085125144E+04  0.65882475496E+03 0.  0.
         13    1    3    3    0    0  0.22123550219E+03 -0.15385920307E+03  0.76451997389E+03  0.81062234874E+03  0.00000000000E+00 0. -1.
          2    1    3    3  501    0 -0.22123550219E+03  0.15385920307E+03  0.12696751168E+03  0.29789016570E+03  0.00000000000E+00 0. -1.
<mgrwt>
<rscale>  0 0.65882475E+03</rscale>
<asrwt>0</asrwt>
<pdfrwt beam="1">0</pdfrwt>
<pdfrwt beam="2">  1        2 0.39459179E+00 0.65882475E+03</pdfrwt>
<totfact> 0.41699599E+00</totfact>
</mgrwt>
</event>
<event>
 5    1  0.2361924E-004  0.6545288E+03  0.7818608E-02  0.9798318E-01
         13   -1    0    0    0    0  0.00000000000E+00  0.00000000000E+00  0.10000000000E+04  0.10000000000E+04  0.00000000000E+00 0. -1.
          2   -1    0    0  501    0 -0.00000000000E+00 -0.00000000000E+00 -0.10710199859E+03  0.10710199859E+03  0.00000000000E+00 0. -1.
    9000006    2    1    2  501    0  0.00000000000E+00  0.00000000000E+00  0.89289800141E+03  0.11071019986E+04  0.65452883385E+03 0.  0.
         13    1    3    3    0    0 -0.31578274184E+03 -0.83710632562E+02  0.41365981602E+03  0.52710592240E+03  0.00000000000E+00 0. -1.
          4    1    3    3  501    0  0.31578274184E+03  0.83710632562E+02  0.47923818540E+03  0.57999607618E+03  0.00000000000E+00 0. -1.
<mgrwt>
<rscale>  0 0.65452883E+03</rscale>
<asrwt>0</asrwt>
<pdfrwt beam="1">0</pdfrwt>
<pdfrwt beam="2">  1        2 0.38946263E+00 0.65452883E+03</pdfrwt>
<totfact> 0.43590238E+00</totfact>
</mgrwt>
</event>
<event>
 5    1  0.2361924E-004  0.6496059E+03  0.7818608E-02  0.9807519E-01
         13   -1    0    0    0    0  0.00000000000E+00  0.00000000000E+00  0.10000000000E+04  0.10000000000E+04  0.00000000000E+00 0. -1.
          2   -1    0    0  501    0 -0.00000000000E+00 -0.00000000000E+00 -0.10549696479E+03  0.10549696479E+03  0.00000000000E+00 0. -1.
    9000006    2    1    2  501    0  0.00000000000E+00  0.00000000000E+00  0.89450303521E+03  0.11054969648E+04  0.64960592606E+03 0.  0.
         13    1    3    3    0    0  0.29131582381E+03 -0.30840062784E+02  0.20850856391E+03  0.35957174514E+03  0.00000000000E+00 0. -1.
          2    1    3    3  501    0 -0.29131582381E+03  0.30840062784E+02  0.68599447129E+03  0.74592521966E+03  0.00000000000E+00 0. -1.
<mgrwt>
<rscale>  0 0.64960593E+03</rscale>
<asrwt>0</asrwt>
<pdfrwt beam="1">0</pdfrwt>
<pdfrwt beam="2">  1        2 0.38362614E+00 0.64960593E+03</pdfrwt>
<totfact> 0.45835666E+00</totfact>
</mgrwt>
</event>
<event>
 5    1  0.2361924E-004  0.6514788E+03  0.7818608E-02  0.9804008E-01
         13   -1    0    0    0    0  0.00000000000E+00  0.00000000000E+00  0.10000000000E+04  0.10000000000E+04  0.00000000000E+00 0. -1.
          2   -1    0    0  501    0 -0.00000000000E+00 -0.00000000000E+00 -0.10610615059E+03  0.10610615059E+03  0.00000000000E+00 0. -1.
    9000006    2    1    2  501    0  0.00000000000E+00  0.00000000000E+00  0.89389384941E+03  0.11061061506E+04  0.65147878120E+03 0.  0.
         13    1    3    3    0    0  0.10226891713E+03  0.18362878728E+03  0.86945884295E+03  0.89450385271E+03  0.00000000000E+00 0. -1.
          4    1    3    3  501    0 -0.10226891713E+03 -0.18362878728E+03  0.24435006464E+02  0.21160229788E+03  0.00000000000E+00 0. -1.
<mgrwt>
<rscale>  0 0.65147878E+03</rscale>
<asrwt>0</asrwt>
<pdfrwt beam="1">0</pdfrwt>
<pdfrwt beam="2">  1        2 0.38584136E+00 0.65147878E+03</pdfrwt>
<totfact> 0.44971370E+00</totfact>
</mgrwt>
</event>
<event>
 5    1  0.2361924E-004  0.6445244E+03  0.7818608E-02  0.9817108E-01
         13   -1    0    0    0    0  0.00000000000E+00  0.00000000000E+00  0.10000000000E+04  0.10000000000E+04  0.00000000000E+00 0. -1.
          2   -1    0    0  501    0 -0.00000000000E+00 -0.00000000000E+00 -0.10385292269E+03  0.10385292269E+03  0.00000000000E+00 0. -1.
    9000006    2    1    2  501    0  0.00000000000E+00  0.00000000000E+00  0.89614707731E+03  0.11038529227E+04  0.64452439114E+03 0.  0.
         13    1    3    3    0    0 -0.64580394028E+02  0.10863382509E+02  0.98848386416E+03  0.99065079118E+03  0.00000000000E+00 0. -1.
          2    1    3    3  501    0  0.64580394028E+02 -0.10863382509E+02 -0.92336786851E+02  0.11320213151E+03  0.00000000000E+00 0. -1.
<mgrwt>
<rscale>  0 0.64452439E+03</rscale>
<asrwt>0</asrwt>
<pdfrwt beam="1">0</pdfrwt>
<pdfrwt beam="2">  1        2 0.37764779E+00 0.64452439E+03</pdfrwt>
<totfact> 0.48244036E+00</totfact>
</mgrwt>
</event>
<event>
 5    1  0.2361924E-004  0.6507349E+03  0.7818608E-02  0.9805401E-01
         13   -1    0    0    0    0  0.00000000000E+00  0.00000000000E+00  0.10000000000E+04  0.10000000000E+04  0.00000000000E+00 0. -1.
          2   -1    0    0  501    0 -0.00000000000E+00 -0.00000000000E+00 -0.10586399303E+03  0.10586399303E+03  0.00000000000E+00 0. -1.
    9000006    2    1    2  501    0  0.00000000000E+00  0.00000000000E+00  0.89413600697E+03  0.11058639930E+04  0.65073494768E+03 0.  0.
         13    1    3    3    0    0 -0.22531743341E+02 -0.18577909841E+03 -0.52504878093E+01  0.18721410333E+03  0.00000000000E+00 0. -1.
          4    1    3    3  501    0  0.22531743341E+02  0.18577909841E+03  0.89938649478E+03  0.91864988970E+03  0.00000000000E+00 0. -1.
<mgrwt>
<rscale>  0 0.65073495E+03</rscale>
<asrwt>0</asrwt>
<pdfrwt beam="1">0</pdfrwt>
<pdfrwt beam="2">  1        2 0.38496079E+00 0.65073495E+03</pdfrwt>
<totfact> 0.45313151E+00</totfact>
</mgrwt>
</event>
<event>
 5    1  0.2361924E-004  0.6517379E+03  0.7818608E-02  0.9803524E-01
         13   -1    0    0    0    0  0.00000000000E+00  0.00000000000E+00  0.10000000000E+04  0.10000000000E+04  0.00000000000E+00 0. -1.
          2   -1    0    0  501    0 -0.00000000000E+00 -0.00000000000E+00 -0.10619056668E+03  0.10619056668E+03  0.00000000000E+00 0. -1.
    9000006    2    1    2  501    0  0.00000000000E+00  0.00000000000E+00  0.89380943332E+03  0.11061905667E+04  0.65173788190E+03 0.  0.
         13    1    3    3    0    0 -0.91543848341E+02  0.24118776573E+03  0.78482711040E+03  0.82613885499E+03  0.00000000000E+00 0. -1.
          4    1    3    3  501    0  0.91543848341E+02 -0.24118776573E+03  0.10898232292E+03  0.28005171168E+03  0.00000000000E+00 0. -1.
<mgrwt>
<rscale>  0 0.65173788E+03</rscale>
<asrwt>0</asrwt>
<pdfrwt beam="1">0</pdfrwt>
<pdfrwt beam="2">  1        2 0.38614833E+00 0.65173788E+03</pdfrwt>
<totfact> 0.44852776E+00</totfact>
</mgrwt>
</event>
<event>
 5    1  0.2361924E-004  0.6421064E+03  0.7818608E-02  0.9821705E-01
         13   -1    0    0    0    0  0.00000000000E+00  0.00000000000E+00  0.10000000000E+04  0.10000000000E+04  0.00000000000E+00 0. -1.
          2   -1    0    0  501    0 -0.00000000000E+00 -0.00000000000E+00 -0.10307514134E+03  0.10307514134E+03  0.00000000000E+00 0. -1.
    9000006    2    1    2  501    0  0.00000000000E+00  0.00000000000E+00  0.89692485866E+03  0.11030751413E+04  0.64210635051E+03 0.  0.
         13    1    3    3    0    0  0.14662976909E+03 -0.28466754319E+03  0.40857004523E+03  0.51910055018E+03  0.00000000000E+00 0. -1.
          2    1    3    3  501    0 -0.14662976909E+03  0.28466754319E+03  0.48835481343E+03  0.58397459117E+03  0.00000000000E+00 0. -1.
<mgrwt>
<rscale>  0 0.64210635E+03</rscale>
<asrwt>0</asrwt>
<pdfrwt beam="1">0</pdfrwt>
<pdfrwt beam="2">  1        2 0.37481949E+00 0.64210635E+03</pdfrwt>
<totfact> 0.49423127E+00</totfact>
</mgrwt>
</event>
<event>
 5    1  0.2361924E-004  0.6504438E+03  0.7818608E-02  0.9805947E-01
         13   -1    0    0    0    0  0.00000000000E+00  0.00000000000E+00  0.10000000000E+04  0.10000000000E+04  0.00000000000E+00 0. -1.
          2   -1    0    0  501    0 -0.00000000000E+00 -0.00000000000E+00 -0.10576927787E+03  0.10576927787E+03  0.00000000000E+00 0. -1.
    9000006    2    1    2  501    0  0.00000000000E+00  0.00000000000E+00  0.89423072213E+03  0.11057692779E+04  0.65044378041E+03 0.  0.
         13    1    3    3    0    0  0.12789145941E+03 -0.53933956877E+02 -0.52888436724E+02  0.14853378011E+03  0.00000000000E+00 0. -1.
          2    1    3    3  501    0 -0.12789145941E+03  0.53933956877E+02  0.94711915886E+03  0.95723549776E+03  0.00000000000E+00 0. -1.
<mgrwt>
<rscale>  0 0.65044378E+03</rscale>
<asrwt>0</asrwt>
<pdfrwt beam="1">0</pdfrwt>
<pdfrwt beam="2">  1        2 0.38461637E+00 0.65044378E+03</pdfrwt>
<totfact> 0.45447471E+00</totfact>
</mgrwt>
</event>
<event>
 5    1  0.2361924E-004  0.6567336E+03  0.7818608E-02  0.9794225E-01
         13   -1    0    0    0    0  0.00000000000E+00  0.00000000000E+00  0.10000000000E+04  0.10000000000E+04  0.00000000000E+00 0. -1.
          2   -1    0    0  501    0 -0.00000000000E+00 -0.00000000000E+00 -0.10782475889E+03  0.10782475889E+03  0.00000000000E+00 0. -1.
    9000006    2    1    2  501    0  0.00000000000E+00  0.00000000000E+00  0.89217524111E+03  0.11078247589E+04  0.65673361080E+03 0.  0.
         13    1    3    3    0    0  0.99089355971E+02 -0.10318209192E+03 -0.52494762412E+02  0.15238420076E+03  0.00000000000E+00 0. -1.
          4    1    3    3  501    0 -0.99089355971E+02  0.10318209192E+03  0.94467000352E+03  0.95544055813E+03  0.00000000000E+00 0. -1.
<mgrwt>
<rscale>  0 0.65673361E+03</rscale>
<asrwt>0</asrwt>
<pdfrwt beam="1">0</pdfrwt>
<pdfrwt beam="2">  1        2 0.39209086E+00 0.65673361E+03</pdfrwt>
<totfact> 0.42611995E+00</totfact>
</mgrwt>
</event>
<event>
 5    1  0.2361924E-004  0.6420197E+03  0.7818608E-02  0.9821870E-01
         13   -1    0    0    0    0  0.00000000000E+00  0.00000000000E+00  0.10000000000E+04  0.10000000000E+04  0.00000000000E+00 0. -1.
          2   -1    0    0  501    0 -0.00000000000E+00 -0.00000000000E+00 -0.10304731200E+03  0.10304731200E+03  0.00000000000E+00 0. -1.
    9000006    2    1    2  501    0  0.00000000000E+00  0.00000000000E+00  0.89695268800E+03  0.11030473120E+04  0.64201966324E+03 0.  0.
         13    1    3    3    0    0  0.27172279242E+03  0.90087585186E+02  0.19891968503E+03  0.34859444920E+03  0.00000000000E+00 0. -1.
          4    1    3    3  501    0 -0.27172279242E+03 -0.90087585186E+02  0.69803300298E+03  0.75445286279E+03  0.00000000000E+00 0. -1.
<mgrwt>
<rscale>  0 0.64201966E+03</rscale>
<asrwt>0</asrwt>
<pdfrwt beam="1">0</pdfrwt>
<pdfrwt beam="2">  1        2 0.37471829E+00 0.64201966E+03</pdfrwt>
<totfact> 0.49465801E+00</totfact>
</mgrwt>
</event>
<event>
 5    1  0.2361924E-004  0.6496734E+03  0.7818608E-02  0.9807392E-01
         13   -1    0    0    0    0  0.00000000000E+00  0.00000000000E+00  0.10000000000E+04  0.10000000000E+04  0.00000000000E+00 0. -1.
          2   -1    0    0  501    0 -0.00000000000E+00 -0.00000000000E+00 -0.10551888545E+03  0.10551888545E+03  0.00000000000E+00 0. -1.
    9000006    2    1    2  501    0  0.00000000000E+00  0.00000000000E+00  0.89448111455E+03  0.11055188854E+04  0.64967341165E+03 0.  0.
         13    1    3    3    0    0 -0.93927686539E+02  0.30032429799E+03  0.58445113134E+03  0.66377723612E+03  0.00000000000E+00 0. -1.
          2    1    3    3  501    0  0.93927686539E+02 -0.30032429799E+03  0.31002998321E+03  0.44174164933E+03  0.00000000000E+00 0. -1.
<mgrwt>
<rscale>  0 0.64967341E+03</rscale>
<asrwt>0</asrwt>
<pdfrwt beam="1">0</pdfrwt>
<pdfrwt beam="2">  1        2 0.38370585E+00 0.64967341E+03</pdfrwt>
<totfact> 0.45804306E+00</totfact>
</mgrwt>
</event>
<event>
 5    1  0.2361924E-004  0.6514342E+03  0.7818608E-02  0.9804092E-01
         13   -1    0    0    0    0  0.00000000000E+00  0.00000000000E+00  0.10000000000E+04  0.10000000000E+04  0.00000000000E+00 0. -1.
          2   -1    0    0  501    0 -0.00000000000E+00 -0.00000000000E+00 -0.10609164185E+03  0.10609164185E+03  0.00000000000E+00 0. -1.
    9000006    2    1    2  501    0  0.00000000000E+00  0.00000000000E+00  0.89390835815E+03  0.11060916418E+04  0.65143423874E+03 0.  0.
         13    1    3    3    0    0  0.25116635373E+03  0.63237026932E+01  0.94997972024E+02  0.26860592166E+03  0.00000000000E+00 0. -1.
          4    1    3    3  501    0 -0.25116635373E+03 -0.63237026932E+01  0.79891038613E+03  0.83748572019E+03  0.00000000000E+00 0. -1.
<mgrwt>
<rscale>  0 0.65143424E+03</rscale>
<asrwt>0</asrwt>
<pdfrwt beam="1">0</pdfrwt>
<pdfrwt beam="2">  1        2 0.38578860E+00 0.65143424E+03</pdfrwt>
<totfact> 0.44991782E+00</totfact>
</mgrwt>
</event>
<event>
 5    1  0.2361924E-004  0.6411210E+03  0.7818608E-02  0.9823584E-01
         13   -1    0    0    0    0  0.00000000000E+00  0.00000000000E+00  0.10000000000E+04  0.10000000000E+04  0.00000000000E+00 0. -1.
          2   -1    0    0  501    0 -0.00000000000E+00 -0.00000000000E+00 -0.10275904894E+03  0.10275904894E+03  0.00000000000E+00 0. -1.
    9000006    2    1    2  501    0  0.00000000000E+00  0.00000000000E+00  0.89724095106E+03  0.11027590489E+04  0.64112104609E+03 0.  0.
         13    1    3    3    0    0  0.35767126758E+02 -0.55365326497E+02 -0.90977130355E+02  0.11234520454E+03  0.00000000000E+00 0. -1.
          2    1    3    3  501    0 -0.35767126758E+02  0.55365326497E+02  0.98821808142E+03  0.99041384440E+03  0.00000000000E+00 0. -1.
<mgrwt>
<rscale>  0 0.64112105E+03</rscale>
<asrwt>0</asrwt>
<pdfrwt beam="1">0</pdfrwt>
<pdfrwt beam="2">  1        2 0.37367006E+00 0.64112105E+03</pdfrwt>
<totfact> 0.49909820E+00</totfact>
</mgrwt>
</event>
<event>
 5    1  0.2361924E-004  0.6515126E+03  0.7818608E-02  0.9803945E-01
         13   -1    0    0    0    0  0.00000000000E+00  0.00000000000E+00  0.10000000000E+04  0.10000000000E+04  0.00000000000E+00 0. -1.
          2   -1    0    0  501    0 -0.00000000000E+00 -0.00000000000E+00 -0.10611716689E+03  0.10611716689E+03  0.00000000000E+00 0. -1.
    9000006    2    1    2  501    0  0.00000000000E+00  0.00000000000E+00  0.89388283311E+03  0.11061171669E+04  0.65151259968E+03 0.  0.
         13    1    3    3    0    0 -0.19882096555E+03 -0.53446151585E+02  0.18340261187E+02  0.20669453946E+03  0.00000000000E+00 0. -1.
          2    1    3    3  501    0  0.19882096555E+03  0.53446151585E+02  0.87554257193E+03  0.89942262742E+03  0.00000000000E+00 0. -1.
<mgrwt>
<rscale>  0 0.65151260E+03</rscale>
<asrwt>0</asrwt>
<pdfrwt beam="1">0</pdfrwt>
<pdfrwt beam="2">  1        2 0.38588142E+00 0.65151260E+03</pdfrwt>
<totfact> 0.44955878E+00</totfact>
</mgrwt>
</event>
<event>
 5    1  0.2361924E-004  0.6522706E+03  0.7818608E-02  0.9802528E-01
         13   -1    0    0    0    0  0.00000000000E+00  0.00000000000E+00  0.10000000000E+04  0.10000000000E+04  0.00000000000E+00 0. -1.
          2   -1    0    0  501    0 -0.00000000000E+00 -0.00000000000E+00 -0.10636422932E+03  0.10636422932E+03  0.00000000000E+00 0. -1.
    9000006    2    1    2  501    0  0.00000000000E+00  0.00000000000E+00  0.89363577068E+03  0.11063642293E+04  0.65227058594E+03 0.  0.
         13    1    3    3    0    0  0.33784833269E+02  0.20927059215E+02 -0.10224188753E+03  0.10969393936E+03  0.00000000000E+00 0. -1.
          2    1    3    3  501    0 -0.33784833269E+02 -0.20927059215E+02  0.99587765821E+03  0.99667028996E+03  0.00000000000E+00 0. -1.
<mgrwt>
<rscale>  0 0.65227059E+03</rscale>
<asrwt>0</asrwt>
<pdfrwt beam="1">0</pdfrwt>
<pdfrwt beam="2">  1        2 0.38677983E+00 0.65227059E+03</pdfrwt>
<totfact> 0.44609692E+00</totfact>
</mgrwt>
</event>
<event>
 5    1  0.2361924E-004  0.6507220E+03  0.7818608E-02  0.9805425E-01
         13   -1    0    0    0    0  0.00000000000E+00  0.00000000000E+00  0.10000000000E+04  0.10000000000E+04  0.00000000000E+00 0. -1.
          2   -1    0    0  501    0 -0.00000000000E+00 -0.00000000000E+00 -0.10585979534E+03  0.10585979534E+03  0.00000000000E+00 0. -1.
    9000006    2    1    2  501    0  0.00000000000E+00  0.00000000000E+00  0.89414020466E+03  0.11058597953E+04  0.65072204617E+03 0.  0.
         13    1    3    3    0    0 -0.32250865035E+03  0.27018532606E+02  0.39024783069E+03  0.50698639036E+03  0.00000000000E+00 0. -1.
          4    1    3    3  501    0  0.32250865035E+03 -0.27018532606E+02  0.50389237396E+03  0.59887340498E+03  0.00000000000E+00 0. -1.
<mgrwt>
<rscale>  0 0.65072205E+03</rscale>
<asrwt>0</asrwt>
<pdfrwt beam="1">0</pdfrwt>
<pdfrwt beam="2">  1        2 0.38494552E+00 0.65072205E+03</pdfrwt>
<totfact> 0.45319096E+00</totfact>
</mgrwt>
</event>
<event>
 5    1  0.2361924E-004  0.6466469E+03  0.7818608E-02  0.9813091E-01
         13   -1    0    0    0    0  0.00000000000E+00  0.00000000000E+00  0.10000000000E+04  0.10000000000E+04  0.00000000000E+00 0. -1.
          2   -1    0    0  501    0 -0.00000000000E+00 -0.00000000000E+00 -0.10453805929E+03  0.10453805929E+03  0.00000000000E+00 0. -1.
    9000006    2    1    2  501    0  0.00000000000E+00  0.00000000000E+00  0.89546194071E+03  0.11045380593E+04  0.64664691846E+03 0.  0.
         13    1    3    3    0    0  0.27546475614E+03 -0.15072372788E+03  0.57937207969E+03  0.65899201872E+03  0.00000000000E+00 0. -1.
          2    1    3    3  501    0 -0.27546475614E+03  0.15072372788E+03  0.31608986102E+03  0.44554604056E+03  0.00000000000E+00 0. -1.
<mgrwt>
<rscale>  0 0.64664692E+03</rscale>
<asrwt>0</asrwt>
<pdfrwt beam="1">0</pdfrwt>
<pdfrwt beam="2">  1        2 0.38013920E+00 0.64664692E+03</pdfrwt>
<totfact> 0.47226723E+00</totfact>
</mgrwt>
</event>
<event>
 5    1  0.2361924E-004  0.6624242E+03  0.7818608E-02  0.9783741E-01
         13   -1    0    0    0    0  0.00000000000E+00  0.00000000000E+00  0.10000000000E+04  0.10000000000E+04  0.00000000000E+00 0. -1.
          2   -1    0    0  501    0 -0.00000000000E+00 -0.00000000000E+00 -0.10970147173E+03  0.10970147173E+03  0.00000000000E+00 0. -1.
    9000006    2    1    2  501    0  0.00000000000E+00  0.00000000000E+00  0.89029852827E+03  0.11097014717E+04  0.66242424994E+03 0.  0.
         13    1    3    3    0    0  0.21874158101E+03  0.19122319384E+03  0.17875736106E+03  0.34112810388E+03  0.00000000000E+00 0. -1.
          4    1    3    3  501    0 -0.21874158101E+03 -0.19122319384E+03  0.71154116722E+03  0.76857336785E+03  0.00000000000E+00 0. -1.
<mgrwt>
<rscale>  0 0.66242425E+03</rscale>
<asrwt>0</asrwt>
<pdfrwt beam="1">0</pdfrwt>
<pdfrwt beam="2">  1        2 0.39891528E+00 0.66242425E+03</pdfrwt>
<totfact> 0.40163809E+00</totfact>
</mgrwt>
</event>
<event>
 5    1  0.2361924E-004  0.6534251E+03  0.7818608E-02  0.9800373E-01
         13   -1    0    0    0    0  0.00000000000E+00  0.00000000000E+00  0.10000000000E+04  0.10000000000E+04  0.00000000000E+00 0. -1.
          2   -1    0    0  501    0 -0.00000000000E+00 -0.00000000000E+00 -0.10674108404E+03  0.10674108404E+03  0.00000000000E+00 0. -1.
    9000006    2    1    2  501    0  0.00000000000E+00  0.00000000000E+00  0.89325891596E+03  0.11067410840E+04  0.65342508076E+03 0.  0.
         13    1    3    3    0    0  0.26386151815E+03 -0.13926027603E+03  0.22113264992E+03  0.37137040014E+03  0.00000000000E+00 0. -1.
          2    1    3    3  501    0 -0.26386151815E+03  0.13926027603E+03  0.67212626604E+03  0.73537068390E+03  0.00000000000E+00 0. -1.
<mgrwt>
<rscale>  0 0.65342508E+03</rscale>
<asrwt>0</asrwt>
<pdfrwt beam="1">0</pdfrwt>
<pdfrwt beam="2">  1        2 0.38815022E+00 0.65342508E+03</pdfrwt>
<totfact> 0.44086287E+00</totfact>
</mgrwt>
</event>
<event>
 5    1  0.2361924E-004  0.6561400E+03  0.7818608E-02  0.9795326E-01
         13   -1    0    0    0    0  0.00000000000E+00  0.00000000000E+00  0.10000000000E+04  0.10000000000E+04  0.00000000000E+00 0. -1.
          2   -1    0    0  501    0 -0.00000000000E+00 -0.00000000000E+00 -0.10762990958E+03  0.10762990958E+03  0.00000000000E+00 0. -1.
    9000006    2    1    2  501    0  0.00000000000E+00  0.00000000000E+00  0.89237009042E+03  0.11076299096E+04  0.65613995332E+03 0.  0.
         13    1    3    3    0    0  0.10708636284E+03 -0.20632086634E+03  0.55383055891E+02  0.23896249051E+03  0.00000000000E+00 0. -1.
          4    1    3    3  501    0 -0.10708636284E+03  0.20632086634E+03  0.83698703452E+03  0.86866741907E+03  0.00000000000E+00 0. -1.
<mgrwt>
<rscale>  0 0.65613995E+03</rscale>
<asrwt>0</asrwt>
<pdfrwt beam="1">0</pdfrwt>
<pdfrwt beam="2">  1        2 0.39138231E+00 0.65613995E+03</pdfrwt>
<totfact> 0.42873748E+00</totfact>
</mgrwt>
</event>
<event>
 5    1  0.2361924E-004  0.6513998E+03  0.7818608E-02  0.9804156E-01
         13   -1    0    0    0    0  0.00000000000E+00  0.00000000000E+00  0.10000000000E+04  0.10000000000E+04  0.00000000000E+00 0. -1.
          2   -1    0    0  501    0 -0.00000000000E+00 -0.00000000000E+00 -0.10608041265E+03  0.10608041265E+03  0.00000000000E+00 0. -1.
    9000006    2    1    2  501    0  0.00000000000E+00  0.00000000000E+00  0.89391958735E+03  0.11060804127E+04  0.65139976252E+03 0.  0.
         13    1    3    3    0    0  0.70604786994E+02 -0.29057607245E+03  0.22778599639E+03  0.37590683683E+03  0.00000000000E+00 0. -1.
          4    1    3    3  501    0 -0.70604786994E+02  0.29057607245E+03  0.66613359096E+03  0.73017357582E+03  0.00000000000E+00 0. -1.
<mgrwt>
<rscale>  0 0.65139976E+03</rscale>
<asrwt>0</asrwt>
<pdfrwt beam="1">0</pdfrwt>
<pdfrwt beam="2">  1        2 0.38574777E+00 0.65139976E+03</pdfrwt>
<totfact> 0.45007585E+00</totfact>
</mgrwt>
</event>
<event>
 5    1  0.2361924E-004  0.6495048E+03  0.7818608E-02  0.9807709E-01
         13   -1    0    0    0    0  0.00000000000E+00  0.00000000000E+00  0.10000000000E+04  0.10000000000E+04  0.00000000000E+00 0. -1.
          2   -1    0    0  501    0 -0.00000000000E+00 -0.00000000000E+00 -0.10546412461E+03  0.10546412461E+03  0.00000000000E+00 0. -1.
    9000006    2    1    2  501    0  0.00000000000E+00  0.00000000000E+00  0.89453587539E+03  0.11054641246E+04  0.64950481018E+03 0.  0.
         13    1    3    3    0    0  0.14279243418E+03  0.25640503125E+03  0.68390805829E+03  0.74422002896E+03  0.00000000000E+00 0. -1.
          4    1    3    3  501    0 -0.14279243418E+03 -0.25640503125E+03  0.21062781709E+03  0.36124409565E+03  0.00000000000E+00 0. -1.
<mgrwt>
<rscale>  0 0.64950481E+03</rscale>
<asrwt>0</asrwt>
<pdfrwt beam="1">0</pdfrwt>
<pdfrwt beam="2">  1        2 0.38350672E+00 0.64950481E+03</pdfrwt>
<totfact> 0.45882684E+00</totfact>
</mgrwt>
</event>
<event>
 5    1  0.2361924E-004  0.6520614E+03  0.7818608E-02  0.9802919E-01
         13   -1    0    0    0    0  0.00000000000E+00  0.00000000000E+00  0.10000000000E+04  0.10000000000E+04  0.00000000000E+00 0. -1.
          2   -1    0    0  501    0 -0.00000000000E+00 -0.00000000000E+00 -0.10629602366E+03  0.10629602366E+03  0.00000000000E+00 0. -1.
    9000006    2    1    2  501    0  0.00000000000E+00  0.00000000000E+00  0.89370397634E+03  0.11062960237E+04  0.65206141938E+03 0.  0.
         13    1    3    3    0    0 -0.21635830374E+03 -0.21918129031E+03  0.26534870530E+03  0.40652341756E+03  0.00000000000E+00 0. -1.
          2    1    3    3  501    0  0.21635830374E+03  0.21918129031E+03  0.62835527104E+03  0.69977260611E+03  0.00000000000E+00 0. -1.
<mgrwt>
<rscale>  0 0.65206142E+03</rscale>
<asrwt>0</asrwt>
<pdfrwt beam="1">0</pdfrwt>
<pdfrwt beam="2">  1        2 0.38653181E+00 0.65206142E+03</pdfrwt>
<totfact> 0.44705020E+00</totfact>
</mgrwt>
</event>
<event>
 5    1  0.2361924E-004  0.6498340E+03  0.7818608E-02  0.9807091E-01
         13   -1    0    0    0    0  0.00000000000E+00  0.00000000000E+00  0.10000000000E+04  0.10000000000E+04  0.00000000000E+00 0. -1.
          2   -1    0    0  501    0 -0.00000000000E+00 -0.00000000000E+00 -0.10557106522E+03  0.10557106522E+03  0.00000000000E+00 0. -1.
    9000006    2    1    2  501    0  0.00000000000E+00  0.00000000000E+00  0.89442893478E+03  0.11055710652E+04  0.64983402565E+03 0.  0.
         13    1    3    3    0    0 -0.27793898161E+03 -0.87887251056E+02  0.20304897207E+03  0.35525080078E+03  0.00000000000E+00 0. -1.
          2    1    3    3  501    0  0.27793898161E+03  0.87887251056E+02  0.69137996270E+03  0.75032026444E+03  0.00000000000E+00 0. -1.
<mgrwt>
<rscale>  0 0.64983403E+03</rscale>
<asrwt>0</asrwt>
<pdfrwt beam="1">0</pdfrwt>
<pdfrwt beam="2">  1        2 0.38389559E+00 0.64983403E+03</pdfrwt>
<totfact> 0.45729735E+00</totfact>
</mgrwt>
</event>
<event>
 5    1  0.2361924E-004  0.6641057E+03  0.7818608E-02  0.9780665E-01
         13   -1    0    0    0    0  0.00000000000E+00  0.00000000000E+00  0.10000000000E+04  0.10000000000E+04  0.00000000000E+00 0. -1.
          2   -1    0    0  501    0 -0.00000000000E+00 -0.00000000000E+00 -0.11025908692E+03  0.11025908692E+03  0.00000000000E+00 0. -1.
    9000006    2    1    2  501    0  0.00000000000E+00  0.00000000000E+00  0.88974091308E+03  0.11102590869E+04  0.66410567508E+03 0.  0.
         13    1    3    3    0    0 -0.28330674172E+03 -0.10010544763E+03  0.68115403703E+03  0.74448279544E+03  0.00000000000E+00 0. -1.
          2    1    3    3  501    0  0.28330674172E+03  0.10010544763E+03  0.20858687605E+03  0.36577629148E+03  0.00000000000E+00 0. -1.
<mgrwt>
<rscale>  0 0.66410568E+03</rscale>
<asrwt>0</asrwt>
<pdfrwt beam="1">0</pdfrwt>
<pdfrwt beam="2">  1        2 0.40094298E+00 0.66410568E+03</pdfrwt>
<totfact> 0.39461207E+00</totfact>
</mgrwt>
</event>
<event>
 5    1  0.2361924E-004  0.6460719E+03  0.7818608E-02  0.9814178E-01
         13   -1    0    0    0    0  0.00000000000E+00  0.00000000000E+00  0.10000000000E+04  0.10000000000E+04  0.00000000000E+00 0. -1.
          2   -1    0    0  501    0 -0.00000000000E+00 -0.00000000000E+00 -0.10435224045E+03  0.10435224045E+03  0.00000000000E+00 0. -1.
    9000006    2    1    2  501    0  0.00000000000E+00  0.00000000000E+00  0.89564775955E+03  0.11043522404E+04  0.64607194785E+03 0.  0.
         13    1    3    3    0    0  0.27323750356E+03  0.57888884110E+02  0.17039333689E+03  0.32717540481E+03  0.00000000000E+00 0. -1.
          4    1    3    3  501    0 -0.27323750356E+03 -0.57888884110E+02  0.72525442267E+03  0.77717683564E+03  0.00000000000E+00 0. -1.
<mgrwt>
<rscale>  0 0.64607195E+03</rscale>
<asrwt>0</asrwt>
<pdfrwt beam="1">0</pdfrwt>
<pdfrwt beam="2">  1        2 0.37946349E+00 0.64607195E+03</pdfrwt>
<totfact> 0.47500684E+00</totfact>
</mgrwt>
</event>
<event>
 5    1  0.2361924E-004  0.6756196E+03  0.7818608E-02  0.9759859E-01
         13   -1    0    0    0    0  0.00000000000E+00  0.00000000000E+00  0.10000000000E+04  0.10000000000E+04  0.00000000000E+00 0. -1.
          2   -1    0    0  501    0 -0.00000000000E+00 -0.00000000000E+00 -0.11411544933E+03  0.11411544933E+03  0.00000000000E+00 0. -1.
    9000006    2    1    2  501    0  0.00000000000E+00  0.00000000000E+00  0.88588455067E+03  0.11141154493E+04  0.67561956553E+03 0.  0.
         13    1    3    3    0    0 -0.35844209661E+02  0.31106013343E+03  0.23388459830E+03  0.39082632881E+03  0.00000000000E+00 0. -1.
          2    1    3    3  501    0  0.35844209661E+02 -0.31106013343E+03  0.65199995237E+03  0.72328912052E+03  0.00000000000E+00 0. -1.
<mgrwt>
<rscale>  0 0.67561957E+03</rscale>
<asrwt>0</asrwt>
<pdfrwt beam="1">0</pdfrwt>
<pdfrwt beam="2">  1        2 0.41496615E+00 0.67561957E+03</pdfrwt>
<totfact> 0.34895778E+00</totfact>
</mgrwt>
</event>
<event>
 5    1  0.2361924E-004  0.6407801E+03  0.7818608E-02  0.9824235E-01
         13   -1    0    0    0    0  0.00000000000E+00  0.00000000000E+00  0.10000000000E+04  0.10000000000E+04  0.00000000000E+00 0. -1.
          2   -1    0    0  501    0 -0.00000000000E+00 -0.00000000000E+00 -0.10264977309E+03  0.10264977309E+03  0.00000000000E+00 0. -1.
    9000006    2    1    2  501    0  0.00000000000E+00  0.00000000000E+00  0.89735022691E+03  0.11026497731E+04  0.64078006550E+03 0.  0.
         13    1    3    3    0    0  0.26145508391E+03 -0.57391273222E+02  0.14571168238E+03  0.30476944323E+03  0.00000000000E+00 0. -1.
          4    1    3    3  501    0 -0.26145508391E+03  0.57391273222E+02  0.75163854453E+03  0.79788032986E+03  0.00000000000E+00 0. -1.
<mgrwt>
<rscale>  0 0.64078007E+03</rscale>
<asrwt>0</asrwt>
<pdfrwt beam="1">0</pdfrwt>
<pdfrwt beam="2">  1        2 0.37327269E+00 0.64078007E+03</pdfrwt>
<totfact> 0.50079091E+00</totfact>
</mgrwt>
</event>
<event>
 5    1  0.2361924E-004  0.6610931E+03  0.7818608E-02  0.9786184E-01
         13   -1    0    0    0    0  0.00000000000E+00  0.00000000000E+00  0.10000000000E+04  0.10000000000E+04  0.00000000000E+00 0. -1.
          2   -1    0    0  501    0 -0.00000000000E+00 -0.00000000000E+00 -0.10926101329E+03  0.10926101329E+03  0.00000000000E+00 0. -1.
    9000006    2    1    2  501    0  0.00000000000E+00  0.00000000000E+00  0.89073898671E+03  0.11092610133E+04  0.66109307451E+03 0.  0.
         13    1    3    3    0    0  0.13433077034E+03 -0.29661988353E+03  0.54077367713E+03  0.63124027203E+03  0.00000000000E+00 0. -1.
          2    1    3    3  501    0 -0.13433077034E+03  0.29661988353E+03  0.34996530958E+03  0.47802074126E+03  0.00000000000E+00 0. -1.
<mgrwt>
<rscale>  0 0.66109307E+03</rscale>
<asrwt>0</asrwt>
<pdfrwt beam="1">0</pdfrwt>
<pdfrwt beam="2">  1        2 0.39731361E+00 0.66109307E+03</pdfrwt>
<totfact> 0.40726715E+00</totfact>
</mgrwt>
</event>
<event>
 5    1  0.2361924E-004  0.5434711E+03  0.7818608E-02  0.1003017E+00
         13   -1    0    0    0    0  0.00000000000E+00  0.00000000000E+00  0.10000000000E+04  0.10000000000E+04  0.00000000000E+00 0. -1.
          2   -1    0    0  501    0 -0.00000000000E+00 -0.00000000000E+00 -0.73840207194E+02  0.73840207194E+02  0.00000000000E+00 0. -1.
    9000006    2    1    2  501    0  0.00000000000E+00  0.00000000000E+00  0.92615979281E+03  0.10738402072E+04  0.54347109286E+03 0.  0.
         13    1    3    3    0    0  0.14763780249E+03 -0.12063842154E+03  0.84565697776E+03  0.86688307949E+03  0.00000000000E+00 0. -1.
          2    1    3    3  501    0 -0.14763780249E+03  0.12063842154E+03  0.80502815049E+02  0.20695712770E+03  0.00000000000E+00 0. -1.
<mgrwt>
<rscale>  0 0.54347109E+03</rscale>
<asrwt>0</asrwt>
<pdfrwt beam="1">0</pdfrwt>
<pdfrwt beam="2">  1        2 0.26851041E+00 0.54347109E+03</pdfrwt>
<totfact> 0.11964183E+01</totfact>
</mgrwt>
</event>
<event>
 5    1  0.2361924E-004  0.6545827E+03  0.7818608E-02  0.9798218E-01
         13   -1    0    0    0    0  0.00000000000E+00  0.00000000000E+00  0.10000000000E+04  0.10000000000E+04  0.00000000000E+00 0. -1.
          2   -1    0    0  501    0 -0.00000000000E+00 -0.00000000000E+00 -0.10711962018E+03  0.10711962018E+03  0.00000000000E+00 0. -1.
    9000006    2    1    2  501    0  0.00000000000E+00  0.00000000000E+00  0.89288037982E+03  0.11071196202E+04  0.65458267676E+03 0.  0.
         13    1    3    3    0    0 -0.29348459700E+02 -0.25240263489E+03  0.79532811226E+03  0.83493426588E+03  0.00000000000E+00 0. -1.
          2    1    3    3  501    0  0.29348459700E+02  0.25240263489E+03  0.97552267560E+02  0.27218535430E+03  0.00000000000E+00 0. -1.
<mgrwt>
<rscale>  0 0.65458268E+03</rscale>
<asrwt>0</asrwt>
<pdfrwt beam="1">0</pdfrwt>
<pdfrwt beam="2">  1        2 0.38952671E+00 0.65458268E+03</pdfrwt>
<totfact> 0.43566148E+00</totfact>
</mgrwt>
</event>
<event>
 5    1  0.2361924E-004  0.6328077E+03  0.7818608E-02  0.9839585E-01
         13   -1    0    0    0    0  0.00000000000E+00  0.00000000000E+00  0.10000000000E+04  0.10000000000E+04  0.00000000000E+00 0. -1.
          2   -1    0    0  501    0 -0.00000000000E+00 -0.00000000000E+00 -0.10011139985E+03  0.10011139985E+03  0.00000000000E+00 0. -1.
    9000006    2    1    2  501    0  0.00000000000E+00  0.00000000000E+00  0.89988860015E+03  0.11001113999E+04  0.63280771124E+03 0.  0.
         13    1    3    3    0    0 -0.23523827527E+03 -0.51966098765E+02  0.80653595496E+03  0.84174685519E+03  0.00000000000E+00 0. -1.
          4    1    3    3  501    0  0.23523827527E+03  0.51966098765E+02  0.93352645186E+02  0.25836454466E+03  0.00000000000E+00 0. -1.
<mgrwt>
<rscale>  0 0.63280771E+03</rscale>
<asrwt>0</asrwt>
<pdfrwt beam="1">0</pdfrwt>
<pdfrwt beam="2">  1        2 0.36404222E+00 0.63280771E+03</pdfrwt>
<totfact> 0.54162227E+00</totfact>
</mgrwt>
</event>
<event>
 5    1  0.2361924E-004  0.6370814E+03  0.7818608E-02  0.9831327E-01
         13   -1    0    0    0    0  0.00000000000E+00  0.00000000000E+00  0.10000000000E+04  0.10000000000E+04  0.00000000000E+00 0. -1.
          2   -1    0    0  501    0 -0.00000000000E+00 -0.00000000000E+00 -0.10146817892E+03  0.10146817892E+03  0.00000000000E+00 0. -1.
    9000006    2    1    2  501    0  0.00000000000E+00  0.00000000000E+00  0.89853182108E+03  0.11014681789E+04  0.63708140428E+03 0.  0.
         13    1    3    3    0    0 -0.24091822107E+03 -0.20818649228E+03  0.43332840533E+03  0.53773293713E+03  0.00000000000E+00 0. -1.
          4    1    3    3  501    0  0.24091822107E+03  0.20818649228E+03  0.46520341575E+03  0.56373524179E+03  0.00000000000E+00 0. -1.
<mgrwt>
<rscale>  0 0.63708140E+03</rscale>
<asrwt>0</asrwt>
<pdfrwt beam="1">0</pdfrwt>
<pdfrwt beam="2">  1        2 0.36897597E+00 0.63708140E+03</pdfrwt>
<totfact> 0.51943266E+00</totfact>
</mgrwt>
</event>
<event>
 5    1  0.2361924E-004  0.4685324E+03  0.7818608E-02  0.1022335E+00
         13   -1    0    0    0    0  0.00000000000E+00  0.00000000000E+00  0.10000000000E+04  0.10000000000E+04  0.00000000000E+00 0. -1.
          2   -1    0    0  501    0 -0.00000000000E+00 -0.00000000000E+00 -0.54880660805E+02  0.54880660805E+02  0.00000000000E+00 0. -1.
    9000006    2    1    2  501    0  0.00000000000E+00  0.00000000000E+00  0.94511933920E+03  0.10548806608E+04  0.46853243561E+03 0.  0.
         13    1    3    3    0    0 -0.59665862311E+02  0.84192223740E+01 -0.37134419172E+02  0.70780389360E+02  0.00000000000E+00 0. -1.
          4    1    3    3  501    0  0.59665862311E+02 -0.84192223740E+01  0.98225375837E+03  0.98410027144E+03  0.00000000000E+00 0. -1.
<mgrwt>
<rscale>  0 0.46853244E+03</rscale>
<asrwt>0</asrwt>
<pdfrwt beam="1">0</pdfrwt>
<pdfrwt beam="2">  1        2 0.19956646E+00 0.46853244E+03</pdfrwt>
<totfact> 0.21324417E+01</totfact>
</mgrwt>
</event>
<event>
 5    1  0.2361924E-004  0.6572195E+03  0.7818608E-02  0.9793326E-01
         13   -1    0    0    0    0  0.00000000000E+00  0.00000000000E+00  0.10000000000E+04  0.10000000000E+04  0.00000000000E+00 0. -1.
          2   -1    0    0  501    0 -0.00000000000E+00 -0.00000000000E+00 -0.10798436406E+03  0.10798436406E+03  0.00000000000E+00 0. -1.
    9000006    2    1    2  501    0  0.00000000000E+00  0.00000000000E+00  0.89201563594E+03  0.11079843641E+04  0.65721948863E+03 0.  0.
         13    1    3    3    0    0 -0.29998894500E+03 -0.50784273335E+02  0.23671609281E+03  0.38549567849E+03  0.00000000000E+00 0. -1.
          2    1    3    3  501    0  0.29998894500E+03  0.50784273335E+02  0.65529954313E+03  0.72248868557E+03  0.00000000000E+00 0. -1.
<mgrwt>
<rscale>  0 0.65721949E+03</rscale>
<asrwt>0</asrwt>
<pdfrwt beam="1">0</pdfrwt>
<pdfrwt beam="2">  1        2 0.39267124E+00 0.65721949E+03</pdfrwt>
<totfact> 0.42398663E+00</totfact>
</mgrwt>
</event>
<event>
 5    1  0.2361924E-004  0.6518826E+03  0.7818608E-02  0.9803253E-01
         13   -1    0    0    0    0  0.00000000000E+00  0.00000000000E+00  0.10000000000E+04  0.10000000000E+04  0.00000000000E+00 0. -1.
          2   -1    0    0  501    0 -0.00000000000E+00 -0.00000000000E+00 -0.10623771526E+03  0.10623771526E+03  0.00000000000E+00 0. -1.
    9000006    2    1    2  501    0  0.00000000000E+00  0.00000000000E+00  0.89376228474E+03  0.11062377153E+04  0.65188255157E+03 0.  0.
         13    1    3    3    0    0  0.11538918776E+03 -0.23891309211E+03  0.76816198080E+03  0.81269118303E+03  0.00000000000E+00 0. -1.
          2    1    3    3  501    0 -0.11538918776E+03  0.23891309211E+03  0.12560030394E+03  0.29354653223E+03  0.00000000000E+00 0. -1.
<mgrwt>
<rscale>  0 0.65188255E+03</rscale>
<asrwt>0</asrwt>
<pdfrwt beam="1">0</pdfrwt>
<pdfrwt beam="2">  1        2 0.38631978E+00 0.65188255E+03</pdfrwt>
<totfact> 0.44786661E+00</totfact>
</mgrwt>
</event>
<event>
 5    1  0.2361924E-004  0.6396143E+03  0.7818608E-02  0.9826465E-01
         13   -1    0    0    0    0  0.00000000000E+00  0.00000000000E+00  0.10000000000E+04  0.10000000000E+04  0.00000000000E+00 0. -1.
          2   -1    0    0  501    0 -0.00000000000E+00 -0.00000000000E+00 -0.10227662906E+03  0.10227662906E+03  0.00000000000E+00 0. -1.
    9000006    2    1    2  501    0  0.00000000000E+00  0.00000000000E+00  0.89772337094E+03  0.11022766291E+04  0.63961434963E+03 0.  0.
         13    1    3    3    0    0 -0.22368679096E+03  0.22759137737E+03  0.41258889968E+03  0.52159679413E+03  0.00000000000E+00 0. -1.
          2    1    3    3  501    0  0.22368679096E+03 -0.22759137737E+03  0.48513447125E+03  0.58067983494E+03  0.00000000000E+00 0. -1.
<mgrwt>
<rscale>  0 0.63961435E+03</rscale>
<asrwt>0</asrwt>
<pdfrwt beam="1">0</pdfrwt>
<pdfrwt beam="2">  1        2 0.37191580E+00 0.63961435E+03</pdfrwt>
<totfact> 0.50661065E+00</totfact>
</mgrwt>
</event>
<event>
 5    1  0.2361924E-004  0.6544044E+03  0.7818608E-02  0.9798550E-01
         13   -1    0    0    0    0  0.00000000000E+00  0.00000000000E+00  0.10000000000E+04  0.10000000000E+04  0.00000000000E+00 0. -1.
          2   -1    0    0  501    0 -0.00000000000E+00 -0.00000000000E+00 -0.10706127189E+03  0.10706127189E+03  0.00000000000E+00 0. -1.
    9000006    2    1    2  501    0  0.00000000000E+00  0.00000000000E+00  0.89293872811E+03  0.11070612719E+04  0.65440437618E+03 0.  0.
         13    1    3    3    0    0 -0.18187751908E+03  0.25711585580E+03  0.29636157822E+03  0.43245598654E+03  0.00000000000E+00 0. -1.
          4    1    3    3  501    0  0.18187751908E+03 -0.25711585580E+03  0.59657714989E+03  0.67460528535E+03  0.00000000000E+00 0. -1.
<mgrwt>
<rscale>  0 0.65440438E+03</rscale>
<asrwt>0</asrwt>
<pdfrwt beam="1">0</pdfrwt>
<pdfrwt beam="2">  1        2 0.38931454E+00 0.65440438E+03</pdfrwt>
<totfact> 0.43645960E+00</totfact>
</mgrwt>
</event>
<event>
 5    1  0.2361924E-004  0.6482064E+03  0.7818608E-02  0.9810151E-01
         13   -1    0    0    0    0  0.00000000000E+00  0.00000000000E+00  0.10000000000E+04  0.10000000000E+04  0.00000000000E+00 0. -1.
          2   -1    0    0  501    0 -0.00000000000E+00 -0.00000000000E+00 -0.10504287221E+03  0.10504287221E+03  0.00000000000E+00 0. -1.
    9000006    2    1    2  501    0  0.00000000000E+00  0.00000000000E+00  0.89495712779E+03  0.11050428722E+04  0.64820636286E+03 0.  0.
         13    1    3    3    0    0  0.26241581471E+03 -0.13358935632E+03  0.67831411624E+03  0.73947157905E+03  0.00000000000E+00 0. -1.
          4    1    3    3  501    0 -0.26241581471E+03  0.13358935632E+03  0.21664301154E+03  0.36557129316E+03  0.00000000000E+00 0. -1.
<mgrwt>
<rscale>  0 0.64820636E+03</rscale>
<asrwt>0</asrwt>
<pdfrwt beam="1">0</pdfrwt>
<pdfrwt beam="2">  1        2 0.38197489E+00 0.64820636E+03</pdfrwt>
<totfact> 0.46489695E+00</totfact>
</mgrwt>
</event>
<event>
 5    1  0.2361924E-004  0.6493611E+03  0.7818608E-02  0.9807979E-01
         13   -1    0    0    0    0  0.00000000000E+00  0.00000000000E+00  0.10000000000E+04  0.10000000000E+04  0.00000000000E+00 0. -1.
          2   -1    0    0  501    0 -0.00000000000E+00 -0.00000000000E+00 -0.10541747064E+03  0.10541747064E+03  0.00000000000E+00 0. -1.
    9000006    2    1    2  501    0  0.00000000000E+00  0.00000000000E+00  0.89458252936E+03  0.11054174706E+04  0.64936113417E+03 0.  0.
         13    1    3    3    0    0  0.16025071680E+03  0.59399447874E+02 -0.22649190913E+02  0.17239945618E+03  0.00000000000E+00 0. -1.
          2    1    3    3  501    0 -0.16025071680E+03 -0.59399447874E+02  0.91723172027E+03  0.93301801446E+03  0.00000000000E+00 0. -1.
<mgrwt>
<rscale>  0 0.64936113E+03</rscale>
<asrwt>0</asrwt>
<pdfrwt beam="1">0</pdfrwt>
<pdfrwt beam="2">  1        2 0.38333707E+00 0.64936113E+03</pdfrwt>
<totfact> 0.45949554E+00</totfact>
</mgrwt>
</event>
<event>
 5    1  0.2361924E-004  0.6528534E+03  0.7818608E-02  0.9801440E-01
         13   -1    0    0    0    0  0.00000000000E+00  0.00000000000E+00  0.10000000000E+04  0.10000000000E+04  0.00000000000E+00 0. -1.
          2   -1    0    0  501    0 -0.00000000000E+00 -0.00000000000E+00 -0.10655438654E+03  0.10655438654E+03  0.00000000000E+00 0. -1.
    9000006    2    1    2  501    0  0.00000000000E+00  0.00000000000E+00  0.89344561346E+03  0.11065543865E+04  0.65285338796E+03 0.  0.
         13    1    3    3    0    0  0.85251942404E+02 -0.14292606104E+02 -0.86802413427E+02  0.12250237242E+03  0.00000000000E+00 0. -1.
          4    1    3    3  501    0 -0.85251942404E+02  0.14292606104E+02  0.98024802689E+03  0.98405201412E+03  0.00000000000E+00 0. -1.
<mgrwt>
<rscale>  0 0.65285339E+03</rscale>
<asrwt>0</asrwt>
<pdfrwt beam="1">0</pdfrwt>
<pdfrwt beam="2">  1        2 0.38747131E+00 0.65285339E+03</pdfrwt>
<totfact> 0.44344888E+00</totfact>
</mgrwt>
</event>
<event>
 5    1  0.2361924E-004  0.6469837E+03  0.7818608E-02  0.9812456E-01
         13   -1    0    0    0    0  0.00000000000E+00  0.00000000000E+00  0.10000000000E+04  0.10000000000E+04  0.00000000000E+00 0. -1.
          2   -1    0    0  501    0 -0.00000000000E+00 -0.00000000000E+00 -0.10464696242E+03  0.10464696242E+03  0.00000000000E+00 0. -1.
    9000006    2    1    2  501    0  0.00000000000E+00  0.00000000000E+00  0.89535303758E+03  0.11046469624E+04  0.64698365488E+03 0.  0.
         13    1    3    3    0    0  0.27621058316E+02 -0.28844722366E+03  0.69322031558E+03  0.75134488062E+03  0.00000000000E+00 0. -1.
          2    1    3    3  501    0 -0.27621058316E+02  0.28844722366E+03  0.20213272200E+03  0.35330208180E+03  0.00000000000E+00 0. -1.
<mgrwt>
<rscale>  0 0.64698365E+03</rscale>
<asrwt>0</asrwt>
<pdfrwt beam="1">0</pdfrwt>
<pdfrwt beam="2">  1        2 0.38053521E+00 0.64698365E+03</pdfrwt>
<totfact> 0.47066831E+00</totfact>
</mgrwt>
</event>
<event>
 5    1  0.2361924E-004  0.6521849E+03  0.7818608E-02  0.9802688E-01
         13   -1    0    0    0    0  0.00000000000E+00  0.00000000000E+00  0.10000000000E+04  0.10000000000E+04  0.00000000000E+00 0. -1.
          2   -1    0    0  501    0 -0.00000000000E+00 -0.00000000000E+00 -0.10633628424E+03  0.10633628424E+03  0.00000000000E+00 0. -1.
    9000006    2    1    2  501    0  0.00000000000E+00  0.00000000000E+00  0.89366371576E+03  0.11063362842E+04  0.65218489475E+03 0.  0.
         13    1    3    3    0    0 -0.17252209530E+03  0.79696505157E+02 -0.26886891988E+01  0.19005955738E+03  0.00000000000E+00 0. -1.
          2    1    3    3  501    0  0.17252209530E+03 -0.79696505157E+02  0.89635240496E+03  0.91627672686E+03  0.00000000000E+00 0. -1.
<mgrwt>
<rscale>  0 0.65218489E+03</rscale>
<asrwt>0</asrwt>
<pdfrwt beam="1">0</pdfrwt>
<pdfrwt beam="2">  1        2 0.38667821E+00 0.65218489E+03</pdfrwt>
<totfact> 0.44648727E+00</totfact>
</mgrwt>
</event>
<event>
 5    1  0.2361924E-004  0.6485188E+03  0.7818608E-02  0.9809563E-01
         13   -1    0    0    0    0  0.00000000000E+00  0.00000000000E+00  0.10000000000E+04  0.10000000000E+04  0.00000000000E+00 0. -1.
          2   -1    0    0  501    0 -0.00000000000E+00 -0.00000000000E+00 -0.10514415202E+03  0.10514415202E+03  0.00000000000E+00 0. -1.
    9000006    2    1    2  501    0  0.00000000000E+00  0.00000000000E+00  0.89485584798E+03  0.11051441520E+04  0.64851878005E+03 0.  0.
         13    1    3    3    0    0 -0.10135929674E+03 -0.27088545377E+03  0.69724947354E+03  0.75485724773E+03  0.00000000000E+00 0. -1.
          4    1    3    3  501    0  0.10135929674E+03  0.27088545377E+03  0.19760637444E+03  0.35028690429E+03  0.00000000000E+00 0. -1.
<mgrwt>
<rscale>  0 0.64851878E+03</rscale>
<asrwt>0</asrwt>
<pdfrwt beam="1">0</pdfrwt>
<pdfrwt beam="2">  1        2 0.38234318E+00 0.64851878E+03</pdfrwt>
<totfact> 0.46343092E+00</totfact>
</mgrwt>
</event>
<event>
 5    1  0.2361924E-004  0.6432872E+03  0.7818608E-02  0.9819457E-01
         13   -1    0    0    0    0  0.00000000000E+00  0.00000000000E+00  0.10000000000E+04  0.10000000000E+04  0.00000000000E+00 0. -1.
          2   -1    0    0  501    0 -0.00000000000E+00 -0.00000000000E+00 -0.10345459771E+03  0.10345459771E+03  0.00000000000E+00 0. -1.
    9000006    2    1    2  501    0  0.00000000000E+00  0.00000000000E+00  0.89654540229E+03  0.11034545977E+04  0.64328717602E+03 0.  0.
         13    1    3    3    0    0 -0.11166283375E+03  0.17476809298E+03  0.86998807111E+03  0.89436665783E+03  0.00000000000E+00 0. -1.
          2    1    3    3  501    0  0.11166283375E+03 -0.17476809298E+03  0.26557331183E+02  0.20908793988E+03  0.00000000000E+00 0. -1.
<mgrwt>
<rscale>  0 0.64328718E+03</rscale>
<asrwt>0</asrwt>
<pdfrwt beam="1">0</pdfrwt>
<pdfrwt beam="2">  1        2 0.37619933E+00 0.64328718E+03</pdfrwt>
<totfact> 0.48844624E+00</totfact>
</mgrwt>
</event>
<event>
 5    1  0.2361924E-004  0.6540451E+03  0.7818608E-02  0.9799218E-01
         13   -1    0    0    0    0  0.00000000000E+00  0.00000000000E+00  0.10000000000E+04  0.10000000000E+04  0.00000000000E+00 0. -1.
          2   -1    0    0  501    0 -0.00000000000E+00 -0.00000000000E+00 -0.10694375042E+03  0.10694375042E+03  0.00000000000E+00 0. -1.
    9000006    2    1    2  501    0  0.00000000000E+00  0.00000000000E+00  0.89305624958E+03  0.11069437504E+04  0.65404510676E+03 0.  0.
         13    1    3    3    0    0 -0.30106534612E+03  0.11552580439E+03  0.53856416589E+03  0.62772439405E+03  0.00000000000E+00 0. -1.
          2    1    3    3  501    0  0.30106534612E+03 -0.11552580439E+03  0.35449208370E+03  0.47921935637E+03  0.00000000000E+00 0. -1.
<mgrwt>
<rscale>  0 0.65404511E+03</rscale>
<asrwt>0</asrwt>
<pdfrwt beam="1">0</pdfrwt>
<pdfrwt beam="2">  1        2 0.38888719E+00 0.65404511E+03</pdfrwt>
<totfact> 0.43807113E+00</totfact>
</mgrwt>
</event>
<event>
 5    1  0.2361924E-004  0.6649995E+03  0.7818608E-02  0.9779034E-01
         13   -1    0    0    0    0  0.00000000000E+00  0.00000000000E+00  0.10000000000E+04  0.10000000000E+04  0.00000000000E+00 0. -1.
          2   -1    0    0  501    0 -0.00000000000E+00 -0.00000000000E+00 -0.11055609477E+03  0.11055609477E+03  0.00000000000E+00 0. -1.
    9000006    2    1    2  501    0  0.00000000000E+00  0.00000000000E+00  0.88944390523E+03  0.11105560948E+04  0.66499953313E+03 0.  0.
         13    1    3    3    0    0  0.14272886944E+03  0.24132752473E+01 -0.56778399890E+02  0.15362662778E+03  0.00000000000E+00 0. -1.
          4    1    3    3  501    0 -0.14272886944E+03 -0.24132752473E+01  0.94622230512E+03  0.95692946699E+03  0.00000000000E+00 0. -1.
<mgrwt>
<rscale>  0 0.66499953E+03</rscale>
<asrwt>0</asrwt>
<pdfrwt beam="1">0</pdfrwt>
<pdfrwt beam="2">  1        2 0.40202301E+00 0.66499953E+03</pdfrwt>
<totfact> 0.39091494E+00</totfact>
</mgrwt>
</event>
<event>
 5    1  0.2361924E-004  0.6433754E+03  0.7818608E-02  0.9819290E-01
         13   -1    0    0    0    0  0.00000000000E+00  0.00000000000E+00  0.10000000000E+04  0.10000000000E+04  0.00000000000E+00 0. -1.
          2   -1    0    0  501    0 -0.00000000000E+00 -0.00000000000E+00 -0.10348297501E+03  0.10348297501E+03  0.00000000000E+00 0. -1.
    9000006    2    1    2  501    0  0.00000000000E+00  0.00000000000E+00  0.89651702499E+03  0.11034829750E+04  0.64337539590E+03 0.  0.
         13    1    3    3    0    0 -0.16676703994E+02 -0.11637538488E+03  0.96183426266E+03  0.96899251364E+03  0.00000000000E+00 0. -1.
          2    1    3    3  501    0  0.16676703994E+02  0.11637538488E+03 -0.65317237676E+02  0.13449046137E+03  0.00000000000E+00 0. -1.
<mgrwt>
<rscale>  0 0.64337540E+03</rscale>
<asrwt>0</asrwt>
<pdfrwt beam="1">0</pdfrwt>
<pdfrwt beam="2">  1        2 0.37630252E+00 0.64337540E+03</pdfrwt>
<totfact> 0.48801613E+00</totfact>
</mgrwt>
</event>
<event>
 5    1  0.2361924E-004  0.6486622E+03  0.7818608E-02  0.9809293E-01
         13   -1    0    0    0    0  0.00000000000E+00  0.00000000000E+00  0.10000000000E+04  0.10000000000E+04  0.00000000000E+00 0. -1.
          2   -1    0    0  501    0 -0.00000000000E+00 -0.00000000000E+00 -0.10519064991E+03  0.10519064991E+03  0.00000000000E+00 0. -1.
    9000006    2    1    2  501    0  0.00000000000E+00  0.00000000000E+00  0.89480935009E+03  0.11051906499E+04  0.64866216140E+03 0.  0.
         13    1    3    3    0    0 -0.54818859838E+02  0.11319684837E+03  0.95675831561E+03  0.96498969340E+03  0.00000000000E+00 0. -1.
          2    1    3    3  501    0  0.54818859838E+02 -0.11319684837E+03 -0.61948965522E+02  0.14020095651E+03  0.00000000000E+00 0. -1.
<mgrwt>
<rscale>  0 0.64866216E+03</rscale>
<asrwt>0</asrwt>
<pdfrwt beam="1">0</pdfrwt>
<pdfrwt beam="2">  1        2 0.38251226E+00 0.64866216E+03</pdfrwt>
<totfact> 0.46275927E+00</totfact>
</mgrwt>
</event>
<event>
 5    1  0.2361924E-004  0.6578965E+03  0.7818608E-02  0.9792074E-01
         13   -1    0    0    0    0  0.00000000000E+00  0.00000000000E+00  0.10000000000E+04  0.10000000000E+04  0.00000000000E+00 0. -1.
          2   -1    0    0  501    0 -0.00000000000E+00 -0.00000000000E+00 -0.10820695151E+03  0.10820695151E+03  0.00000000000E+00 0. -1.
    9000006    2    1    2  501    0  0.00000000000E+00  0.00000000000E+00  0.89179304849E+03  0.11082069515E+04  0.65789650102E+03 0.  0.
         13    1    3    3    0    0 -0.48134289738E+02  0.39611468491E+02 -0.98166371165E+02  0.11628677789E+03  0.00000000000E+00 0. -1.
          2    1    3    3  501    0  0.48134289738E+02 -0.39611468491E+02  0.98995941965E+03  0.99192017362E+03  0.00000000000E+00 0. -1.
<mgrwt>
<rscale>  0 0.65789650E+03</rscale>
<asrwt>0</asrwt>
<pdfrwt beam="1">0</pdfrwt>
<pdfrwt beam="2">  1        2 0.39348065E+00 0.65789650E+03</pdfrwt>
<totfact> 0.42102757E+00</totfact>
</mgrwt>
</event>
<event>
 5    1  0.2361924E-004  0.6327783E+03  0.7818608E-02  0.9839642E-01
         13   -1    0    0    0    0  0.00000000000E+00  0.00000000000E+00  0.10000000000E+04  0.10000000000E+04  0.00000000000E+00 0. -1.
          2   -1    0    0  501    0 -0.00000000000E+00 -0.00000000000E+00 -0.10010207867E+03  0.10010207867E+03  0.00000000000E+00 0. -1.
    9000006    2    1    2  501    0  0.00000000000E+00  0.00000000000E+00  0.89989792133E+03  0.11001020787E+04  0.63277825081E+03 0.  0.
         13    1    3    3    0    0 -0.30271967468E+03  0.88445847096E+02  0.40596012627E+03  0.51406759616E+03  0.00000000000E+00 0. -1.
          2    1    3    3  501    0  0.30271967468E+03 -0.88445847096E+02  0.49393779506E+03  0.58603448251E+03  0.00000000000E+00 0. -1.
<mgrwt>
<rscale>  0 0.63277825E+03</rscale>
<asrwt>0</asrwt>
<pdfrwt beam="1">0</pdfrwt>
<pdfrwt beam="2">  1        2 0.36400833E+00 0.63277825E+03</pdfrwt>
<totfact> 0.54177768E+00</totfact>
</mgrwt>
</event>
<event>
 5    1  0.2361924E-004  0.6342246E+03  0.7818608E-02  0.9836839E-01
         13   -1    0    0    0    0  0.00000000000E+00  0.00000000000E+00  0.10000000000E+04  0.10000000000E+04  0.00000000000E+00 0. -1.
          2   -1    0    0  501    0 -0.00000000000E+00 -0.00000000000E+00 -0.10056022440E+03  0.10056022440E+03  0.00000000000E+00 0. -1.
    9000006    2    1    2  501    0  0.00000000000E+00  0.00000000000E+00  0.89943977560E+03  0.11005602244E+04  0.63422464285E+03 0.  0.
         13    1    3    3    0    0  0.20974698447E+03  0.22093583741E+03  0.60252135059E+03  0.67515807013E+03  0.00000000000E+00 0. -1.
          2    1    3    3  501    0 -0.20974698447E+03 -0.22093583741E+03  0.29691842501E+03  0.42540215427E+03  0.00000000000E+00 0. -1.
<mgrwt>
<rscale>  0 0.63422464E+03</rscale>
<asrwt>0</asrwt>
<pdfrwt beam="1">0</pdfrwt>
<pdfrwt beam="2">  1        2 0.36567431E+00 0.63422464E+03</pdfrwt>
<totfact> 0.53418729E+00</totfact>
</mgrwt>
</event>
<event>
 5    1  0.2361924E-004  0.6578690E+03  0.7818608E-02  0.9792125E-01
         13   -1    0    0    0    0  0.00000000000E+00  0.00000000000E+00  0.10000000000E+04  0.10000000000E+04  0.00000000000E+00 0. -1.
          2   -1    0    0  501    0 -0.00000000000E+00 -0.00000000000E+00 -0.10819791490E+03  0.10819791490E+03  0.00000000000E+00 0. -1.
    9000006    2    1    2  501    0  0.00000000000E+00  0.00000000000E+00  0.89180208510E+03  0.11081979149E+04  0.65786902923E+03 0.  0.
         13    1    3    3    0    0 -0.18737140456E+03 -0.70584489953E+02  0.62825031106E+01  0.20032394593E+03  0.00000000000E+00 0. -1.
          2    1    3    3  501    0  0.18737140456E+03  0.70584489953E+02  0.88551958198E+03  0.90787396898E+03  0.00000000000E+00 0. -1.
<mgrwt>
<rscale>  0 0.65786903E+03</rscale>
<asrwt>0</asrwt>
<pdfrwt beam="1">0</pdfrwt>
<pdfrwt beam="2">  1        2 0.39344779E+00 0.65786903E+03</pdfrwt>
<totfact> 0.42114734E+00</totfact>
</mgrwt>
</event>
<event>
 5    1  0.2361924E-004  0.6592551E+03  0.7818608E-02  0.9789566E-01
         13   -1    0    0    0    0  0.00000000000E+00  0.00000000000E+00  0.10000000000E+04  0.10000000000E+04  0.00000000000E+00 0. -1.
          2   -1    0    0  501    0 -0.00000000000E+00 -0.00000000000E+00 -0.10865432643E+03  0.10865432643E+03  0.00000000000E+00 0. -1.
    9000006    2    1    2  501    0  0.00000000000E+00  0.00000000000E+00  0.89134567357E+03  0.11086543264E+04  0.65925511428E+03 0.  0.
         13    1    3    3    0    0  0.31555015719E+03  0.66806797648E+02  0.33137720605E+03  0.46243475497E+03  0.00000000000E+00 0. -1.
          2    1    3    3  501    0 -0.31555015719E+03 -0.66806797648E+02  0.55996846752E+03  0.64621957146E+03  0.00000000000E+00 0. -1.
<mgrwt>
<rscale>  0 0.65925511E+03</rscale>
<asrwt>0</asrwt>
<pdfrwt beam="1">0</pdfrwt>
<pdfrwt beam="2">  1        2 0.39510747E+00 0.65925511E+03</pdfrwt>
<totfact> 0.41513683E+00</totfact>
</mgrwt>
</event>
<event>
 5    1  0.2361924E-004  0.6481982E+03  0.7818608E-02  0.9810166E-01
         13   -1    0    0    0    0  0.00000000000E+00  0.00000000000E+00  0.10000000000E+04  0.10000000000E+04  0.00000000000E+00 0. -1.
          2   -1    0    0  501    0 -0.00000000000E+00 -0.00000000000E+00 -0.10504021841E+03  0.10504021841E+03  0.00000000000E+00 0. -1.
    9000006    2    1    2  501    0  0.00000000000E+00  0.00000000000E+00  0.89495978159E+03  0.11050402184E+04  0.64819817465E+03 0.  0.
         13    1    3    3    0    0  0.75882419231E+01  0.31079557820E+03  0.29133823090E+03  0.42606271560E+03  0.00000000000E+00 0. -1.
          4    1    3    3  501    0 -0.75882419231E+01 -0.31079557820E+03  0.60362155070E+03  0.67897750280E+03  0.00000000000E+00 0. -1.
<mgrwt>
<rscale>  0 0.64819817E+03</rscale>
<asrwt>0</asrwt>
<pdfrwt beam="1">0</pdfrwt>
<pdfrwt beam="2">  1        2 0.38196524E+00 0.64819817E+03</pdfrwt>
<totfact> 0.46493542E+00</totfact>
</mgrwt>
</event>
<event>
 5    1  0.2361924E-004  0.6408774E+03  0.7818608E-02  0.9824049E-01
         13   -1    0    0    0    0  0.00000000000E+00  0.00000000000E+00  0.10000000000E+04  0.10000000000E+04  0.00000000000E+00 0. -1.
          2   -1    0    0  501    0 -0.00000000000E+00 -0.00000000000E+00 -0.10268095003E+03  0.10268095003E+03  0.00000000000E+00 0. -1.
    9000006    2    1    2  501    0  0.00000000000E+00  0.00000000000E+00  0.89731904997E+03  0.11026809500E+04  0.64087736746E+03 0.  0.
         13    1    3    3    0    0  0.21541168162E+03  0.19243431310E+03  0.68736666094E+03  0.74559109706E+03  0.00000000000E+00 0. -1.
          2    1    3    3  501    0 -0.21541168162E+03 -0.19243431310E+03  0.20995238903E+03  0.35708985298E+03  0.00000000000E+00 0. -1.
<mgrwt>
<rscale>  0 0.64087737E+03</rscale>
<asrwt>0</asrwt>
<pdfrwt beam="1">0</pdfrwt>
<pdfrwt beam="2">  1        2 0.37338606E+00 0.64087737E+03</pdfrwt>
<totfact> 0.50030744E+00</totfact>
</mgrwt>
</event>
<event>
 5    1  0.2361924E-004  0.6383294E+03  0.7818608E-02  0.9828928E-01
         13   -1    0    0    0    0  0.00000000000E+00  0.00000000000E+00  0.10000000000E+04  0.10000000000E+04  0.00000000000E+00 0. -1.
          2   -1    0    0  501    0 -0.00000000000E+00 -0.00000000000E+00 -0.10186610920E+03  0.10186610920E+03  0.00000000000E+00 0. -1.
    9000006    2    1    2  501    0  0.00000000000E+00  0.00000000000E+00  0.89813389080E+03  0.11018661092E+04  0.63832941089E+03 0.  0.
         13    1    3    3    0    0  0.23145273763E+03 -0.13979545846E+03  0.74176869632E+03  0.78951500227E+03  0.00000000000E+00 0. -1.
          4    1    3    3  501    0 -0.23145273763E+03  0.13979545846E+03  0.15636519447E+03  0.31235110693E+03  0.00000000000E+00 0. -1.
<mgrwt>
<rscale>  0 0.63832941E+03</rscale>
<asrwt>0</asrwt>
<pdfrwt beam="1">0</pdfrwt>
<pdfrwt beam="2">  1        2 0.37042300E+00 0.63832941E+03</pdfrwt>
<totfact> 0.51308479E+00</totfact>
</mgrwt>
</event>
<event>
 5    1  0.2361924E-004  0.6588109E+03  0.7818608E-02  0.9790385E-01
         13   -1    0    0    0    0  0.00000000000E+00  0.00000000000E+00  0.10000000000E+04  0.10000000000E+04  0.00000000000E+00 0. -1.
          2   -1    0    0  501    0 -0.00000000000E+00 -0.00000000000E+00 -0.10850795558E+03  0.10850795558E+03  0.00000000000E+00 0. -1.
    9000006    2    1    2  501    0  0.00000000000E+00  0.00000000000E+00  0.89149204442E+03  0.11085079556E+04  0.65881091544E+03 0.  0.
         13    1    3    3    0    0  0.50463330550E+02  0.29451141303E+03  0.21245134743E+03  0.36663209783E+03  0.00000000000E+00 0. -1.
          4    1    3    3  501    0 -0.50463330550E+02 -0.29451141303E+03  0.67904069700E+03  0.74187585775E+03  0.00000000000E+00 0. -1.
<mgrwt>
<rscale>  0 0.65881092E+03</rscale>
<asrwt>0</asrwt>
<pdfrwt beam="1">0</pdfrwt>
<pdfrwt beam="2">  1        2 0.39457522E+00 0.65881092E+03</pdfrwt>
<totfact> 0.41705588E+00</totfact>
</mgrwt>
</event>
<event>
 5    1  0.2361924E-004  0.6574247E+03  0.7818608E-02  0.9792946E-01
         13   -1    0    0    0    0  0.00000000000E+00  0.00000000000E+00  0.10000000000E+04  0.10000000000E+04  0.00000000000E+00 0. -1.
          2   -1    0    0  501    0 -0.00000000000E+00 -0.00000000000E+00 -0.10805179861E+03  0.10805179861E+03  0.00000000000E+00 0. -1.
    9000006    2    1    2  501    0  0.00000000000E+00  0.00000000000E+00  0.89194820139E+03  0.11080517986E+04  0.65742466827E+03 0.  0.
         13    1    3    3    0    0 -0.12992975213E+03 -0.28644880553E+03  0.60690645973E+03  0.68357158333E+03  0.00000000000E+00 0. -1.
          4    1    3    3  501    0  0.12992975213E+03  0.28644880553E+03  0.28504174166E+03  0.42448021528E+03  0.00000000000E+00 0. -1.
<mgrwt>
<rscale>  0 0.65742467E+03</rscale>
<asrwt>0</asrwt>
<pdfrwt beam="1">0</pdfrwt>
<pdfrwt beam="2">  1        2 0.39291646E+00 0.65742467E+03</pdfrwt>
<totfact> 0.42308819E+00</totfact>
</mgrwt>
</event>
<event>
 5    1  0.2361924E-004  0.6589395E+03  0.7818608E-02  0.9790148E-01
         13   -1    0    0    0    0  0.00000000000E+00  0.00000000000E+00  0.10000000000E+04  0.10000000000E+04  0.00000000000E+00 0. -1.
          2   -1    0    0  501    0 -0.00000000000E+00 -0.00000000000E+00 -0.10855032908E+03  0.10855032908E+03  0.00000000000E+00 0. -1.
    9000006    2    1    2  501    0  0.00000000000E+00  0.00000000000E+00  0.89144967092E+03  0.11085503291E+04  0.65893953920E+03 0.  0.
         13    1    3    3    0    0  0.32376311844E+03  0.46546474329E+02  0.37925282217E+03  0.50082115996E+03  0.00000000000E+00 0. -1.
          2    1    3    3  501    0 -0.32376311844E+03 -0.46546474329E+02  0.51219684874E+03  0.60772916912E+03  0.00000000000E+00 0. -1.
<mgrwt>
<rscale>  0 0.65893954E+03</rscale>
<asrwt>0</asrwt>
<pdfrwt beam="1">0</pdfrwt>
<pdfrwt beam="2">  1        2 0.39472930E+00 0.65893954E+03</pdfrwt>
<totfact> 0.41649950E+00</totfact>
</mgrwt>
</event>
<event>
 5    1  0.2361924E-004  0.6512352E+03  0.7818608E-02  0.9804464E-01
         13   -1    0    0    0    0  0.00000000000E+00  0.00000000000E+00  0.10000000000E+04  0.10000000000E+04  0.00000000000E+00 0. -1.
          2   -1    0    0  501    0 -0.00000000000E+00 -0.00000000000E+00 -0.10602680917E+03  0.10602680917E+03  0.00000000000E+00 0. -1.
    9000006    2    1    2  501    0  0.00000000000E+00  0.00000000000E+00  0.89397319083E+03  0.11060268092E+04  0.65123516234E+03 0.  0.
         13    1    3    3    0    0  0.17748831463E+03  0.25458128007E+03  0.27960554962E+03  0.41772358489E+03  0.00000000000E+00 0. -1.
          2    1    3    3  501    0 -0.17748831463E+03 -0.25458128007E+03  0.61436764121E+03  0.68830322428E+03  0.00000000000E+00 0. -1.
<mgrwt>
<rscale>  0 0.65123516E+03</rscale>
<asrwt>0</asrwt>
<pdfrwt beam="1">0</pdfrwt>
<pdfrwt beam="2">  1        2 0.38555285E+00 0.65123516E+03</pdfrwt>
<totfact> 0.45083094E+00</totfact>
</mgrwt>
</event>
<event>
 5    1  0.2361924E-004  0.6550814E+03  0.7818608E-02  0.9797291E-01
         13   -1    0    0    0    0  0.00000000000E+00  0.00000000000E+00  0.10000000000E+04  0.10000000000E+04  0.00000000000E+00 0. -1.
          2   -1    0    0  501    0 -0.00000000000E+00 -0.00000000000E+00 -0.10728290097E+03  0.10728290097E+03  0.00000000000E+00 0. -1.
    9000006    2    1    2  501    0  0.00000000000E+00  0.00000000000E+00  0.89271709903E+03  0.11072829010E+04  0.65508137195E+03 0.  0.
         13    1    3    3    0    0  0.19092200331E+03  0.24901173585E+03  0.28757083881E+03  0.42562312351E+03  0.00000000000E+00 0. -1.
          2    1    3    3  501    0 -0.19092200331E+03 -0.24901173585E+03  0.60514626023E+03  0.68165977746E+03  0.00000000000E+00 0. -1.
<mgrwt>
<rscale>  0 0.65508137E+03</rscale>
<asrwt>0</asrwt>
<pdfrwt beam="1">0</pdfrwt>
<pdfrwt beam="2">  1        2 0.39012046E+00 0.65508137E+03</pdfrwt>
<totfact> 0.43343505E+00</totfact>
</mgrwt>
</event>
<event>
 5    1  0.2361924E-004  0.6458060E+03  0.7818608E-02  0.9814681E-01
         13   -1    0    0    0    0  0.00000000000E+00  0.00000000000E+00  0.10000000000E+04  0.10000000000E+04  0.00000000000E+00 0. -1.
          2   -1    0    0  501    0 -0.00000000000E+00 -0.00000000000E+00 -0.10426634229E+03  0.10426634229E+03  0.00000000000E+00 0. -1.
    9000006    2    1    2  501    0  0.00000000000E+00  0.00000000000E+00  0.89573365771E+03  0.11042663423E+04  0.64580598414E+03 0.  0.
         13    1    3    3    0    0  0.84563637943E+02 -0.29958693006E+03  0.59459020479E+03  0.67114890237E+03  0.00000000000E+00 0. -1.
          2    1    3    3  501    0 -0.84563637943E+02  0.29958693006E+03  0.30114345292E+03  0.43311743992E+03  0.00000000000E+00 0. -1.
<mgrwt>
<rscale>  0 0.64580598E+03</rscale>
<asrwt>0</asrwt>
<pdfrwt beam="1">0</pdfrwt>
<pdfrwt beam="2">  1        2 0.37915114E+00 0.64580598E+03</pdfrwt>
<totfact> 0.47627816E+00</totfact>
</mgrwt>
</event>
<event>
 5    1  0.2361924E-004  0.6586684E+03  0.7818608E-02  0.9790648E-01
         13   -1    0    0    0    0  0.00000000000E+00  0.00000000000E+00  0.10000000000E+04  0.10000000000E+04  0.00000000000E+00 0. -1.
          2   -1    0    0  501    0 -0.00000000000E+00 -0.00000000000E+00 -0.10846101631E+03  0.10846101631E+03  0.00000000000E+00 0. -1.
    9000006    2    1    2  501    0  0.00000000000E+00  0.00000000000E+00  0.89153898369E+03  0.11084610163E+04  0.65866840309E+03 0.  0.
         13    1    3    3    0    0  0.64959581350E+02 -0.24734076178E+03  0.96540852062E+02  0.27334471965E+03  0.00000000000E+00 0. -1.
          4    1    3    3  501    0 -0.64959581350E+02  0.24734076178E+03  0.79499813163E+03  0.83511629666E+03  0.00000000000E+00 0. -1.
<mgrwt>
<rscale>  0 0.65866840E+03</rscale>
<asrwt>0</asrwt>
<pdfrwt beam="1">0</pdfrwt>
<pdfrwt beam="2">  1        2 0.39440453E+00 0.65866840E+03</pdfrwt>
<totfact> 0.41767298E+00</totfact>
</mgrwt>
</event>
<event>
 5    1  0.2361924E-004  0.6583574E+03  0.7818608E-02  0.9791222E-01
         13   -1    0    0    0    0  0.00000000000E+00  0.00000000000E+00  0.10000000000E+04  0.10000000000E+04  0.00000000000E+00 0. -1.
          2   -1    0    0  501    0 -0.00000000000E+00 -0.00000000000E+00 -0.10835863188E+03  0.10835863188E+03  0.00000000000E+00 0. -1.
    9000006    2    1    2  501    0  0.00000000000E+00  0.00000000000E+00  0.89164136812E+03  0.11083586319E+04  0.65835744662E+03 0.  0.
         13    1    3    3    0    0 -0.23768316530E+03  0.22417984440E+03  0.37829612138E+03  0.49985782494E+03  0.00000000000E+00 0. -1.
          4    1    3    3  501    0  0.23768316530E+03 -0.22417984440E+03  0.51334524674E+03  0.60850080694E+03  0.00000000000E+00 0. -1.
<mgrwt>
<rscale>  0 0.65835745E+03</rscale>
<asrwt>0</asrwt>
<pdfrwt beam="1">0</pdfrwt>
<pdfrwt beam="2">  1        2 0.39403222E+00 0.65835745E+03</pdfrwt>
<totfact> 0.41902187E+00</totfact>
</mgrwt>
</event>
<event>
 5    1  0.2361924E-004  0.6559929E+03  0.7818608E-02  0.9795598E-01
         13   -1    0    0    0    0  0.00000000000E+00  0.00000000000E+00  0.10000000000E+04  0.10000000000E+04  0.00000000000E+00 0. -1.
          2   -1    0    0  501    0 -0.00000000000E+00 -0.00000000000E+00 -0.10758166860E+03  0.10758166860E+03  0.00000000000E+00 0. -1.
    9000006    2    1    2  501    0  0.00000000000E+00  0.00000000000E+00  0.89241833140E+03  0.11075816686E+04  0.65599289202E+03 0.  0.
         13    1    3    3    0    0 -0.10645895464E+03  0.17609009559E+03  0.87746507491E+03  0.90126920977E+03  0.00000000000E+00 0. -1.
          2    1    3    3  501    0  0.10645895464E+03 -0.17609009559E+03  0.14953256493E+02  0.20631245883E+03  0.00000000000E+00 0. -1.
<mgrwt>
<rscale>  0 0.65599289E+03</rscale>
<asrwt>0</asrwt>
<pdfrwt beam="1">0</pdfrwt>
<pdfrwt beam="2">  1        2 0.39120689E+00 0.65599289E+03</pdfrwt>
<totfact> 0.42938777E+00</totfact>
</mgrwt>
</event>
<event>
 5    1  0.2361924E-004  0.6469605E+03  0.7818608E-02  0.9812499E-01
         13   -1    0    0    0    0  0.00000000000E+00  0.00000000000E+00  0.10000000000E+04  0.10000000000E+04  0.00000000000E+00 0. -1.
          2   -1    0    0  501    0 -0.00000000000E+00 -0.00000000000E+00 -0.10463945799E+03  0.10463945799E+03  0.00000000000E+00 0. -1.
    9000006    2    1    2  501    0  0.00000000000E+00  0.00000000000E+00  0.89536054201E+03  0.11046394580E+04  0.64696045626E+03 0.  0.
         13    1    3    3    0    0  0.72023405615E+02 -0.15036281134E+03  0.92098984374E+03  0.93595867338E+03  0.00000000000E+00 0. -1.
          2    1    3    3  501    0 -0.72023405615E+02  0.15036281134E+03 -0.25629301735E+02  0.16868078461E+03  0.00000000000E+00 0. -1.
<mgrwt>
<rscale>  0 0.64696046E+03</rscale>
<asrwt>0</asrwt>
<pdfrwt beam="1">0</pdfrwt>
<pdfrwt beam="2">  1        2 0.38050792E+00 0.64696046E+03</pdfrwt>
<totfact> 0.47077833E+00</totfact>
</mgrwt>
</event>
<event>
 5    1  0.2361924E-004  0.5491630E+03  0.7818608E-02  0.1001688E+00
         13   -1    0    0    0    0  0.00000000000E+00  0.00000000000E+00  0.10000000000E+04  0.10000000000E+04  0.00000000000E+00 0. -1.
          2   -1    0    0  501    0 -0.00000000000E+00 -0.00000000000E+00 -0.75395000039E+02  0.75395000039E+02  0.00000000000E+00 0. -1.
    9000006    2    1    2  501    0  0.00000000000E+00  0.00000000000E+00  0.92460499996E+03  0.10753950000E+04  0.54916299962E+03 0.  0.
         13    1    3    3    0    0 -0.31570613345E+02  0.11762157249E+03 -0.19614327476E+02  0.12335420457E+03  0.00000000000E+00 0. -1.
          4    1    3    3  501    0  0.31570613345E+02 -0.11762157249E+03  0.94421932744E+03  0.95204079547E+03  0.00000000000E+00 0. -1.
<mgrwt>
<rscale>  0 0.54916300E+03</rscale>
<asrwt>0</asrwt>
<pdfrwt beam="1">0</pdfrwt>
<pdfrwt beam="2">  1        2 0.27416421E+00 0.54916300E+03</pdfrwt>
<totfact> 0.11420051E+01</totfact>
</mgrwt>
</event>
<event>
 5    1  0.2361924E-004  0.6221922E+03  0.7818608E-02  0.9860405E-01
         13   -1    0    0    0    0  0.00000000000E+00  0.00000000000E+00  0.10000000000E+04  0.10000000000E+04  0.00000000000E+00 0. -1.
          2   -1    0    0  501    0 -0.00000000000E+00 -0.00000000000E+00 -0.96780789029E+02  0.96780789029E+02  0.00000000000E+00 0. -1.
    9000006    2    1    2  501    0  0.00000000000E+00  0.00000000000E+00  0.90321921097E+03  0.10967807890E+04  0.62219221798E+03 0.  0.
         13    1    3    3    0    0  0.28679355555E+03 -0.10280826370E+03  0.56254792611E+03  0.63975014791E+03  0.00000000000E+00 0. -1.
          2    1    3    3  501    0 -0.28679355555E+03  0.10280826370E+03  0.34067128486E+03  0.45703064112E+03  0.00000000000E+00 0. -1.
<mgrwt>
<rscale>  0 0.62219222E+03</rscale>
<asrwt>0</asrwt>
<pdfrwt beam="1">0</pdfrwt>
<pdfrwt beam="2">  1        2 0.35193088E+00 0.62219222E+03</pdfrwt>
<totfact> 0.59985631E+00</totfact>
</mgrwt>
</event>
<event>
 5    1  0.2361924E-004  0.6527332E+03  0.7818608E-02  0.9801664E-01
         13   -1    0    0    0    0  0.00000000000E+00  0.00000000000E+00  0.10000000000E+04  0.10000000000E+04  0.00000000000E+00 0. -1.
          2   -1    0    0  501    0 -0.00000000000E+00 -0.00000000000E+00 -0.10651514368E+03  0.10651514368E+03  0.00000000000E+00 0. -1.
    9000006    2    1    2  501    0  0.00000000000E+00  0.00000000000E+00  0.89348485632E+03  0.11065151437E+04  0.65273315737E+03 0.  0.
         13    1    3    3    0    0 -0.57145321007E+02  0.19574740652E+03  0.87871162520E+03  0.90206250068E+03  0.00000000000E+00 0. -1.
          4    1    3    3  501    0  0.57145321007E+02 -0.19574740652E+03  0.14773231119E+02  0.20445264300E+03  0.00000000000E+00 0. -1.
<mgrwt>
<rscale>  0 0.65273316E+03</rscale>
<asrwt>0</asrwt>
<pdfrwt beam="1">0</pdfrwt>
<pdfrwt beam="2">  1        2 0.38732861E+00 0.65273316E+03</pdfrwt>
<totfact> 0.44399419E+00</totfact>
</mgrwt>
</event>
<event>
 5    1  0.2361924E-004  0.6507664E+03  0.7818608E-02  0.9805342E-01
         13   -1    0    0    0    0  0.00000000000E+00  0.00000000000E+00  0.10000000000E+04  0.10000000000E+04  0.00000000000E+00 0. -1.
          2   -1    0    0  501    0 -0.00000000000E+00 -0.00000000000E+00 -0.10587421565E+03  0.10587421565E+03  0.00000000000E+00 0. -1.
    9000006    2    1    2  501    0  0.00000000000E+00  0.00000000000E+00  0.89412578435E+03  0.11058742157E+04  0.65076636561E+03 0.  0.
         13    1    3    3    0    0  0.15169201313E+03  0.57855703026E+02  0.92625446283E+03  0.94037496731E+03  0.00000000000E+00 0. -1.
          2    1    3    3  501    0 -0.15169201313E+03 -0.57855703026E+02 -0.32128678487E+02  0.16549924834E+03  0.00000000000E+00 0. -1.
<mgrwt>
<rscale>  0 0.65076637E+03</rscale>
<asrwt>0</asrwt>
<pdfrwt beam="1">0</pdfrwt>
<pdfrwt beam="2">  1        2 0.38499796E+00 0.65076637E+03</pdfrwt>
<totfact> 0.45298675E+00</totfact>
</mgrwt>
</event>
<event>
 5    1  0.2361924E-004  0.6582657E+03  0.7818608E-02  0.9791392E-01
         13   -1    0    0    0    0  0.00000000000E+00  0.00000000000E+00  0.10000000000E+04  0.10000000000E+04  0.00000000000E+00 0. -1.
          2   -1    0    0  501    0 -0.00000000000E+00 -0.00000000000E+00 -0.10832844761E+03  0.10832844761E+03  0.00000000000E+00 0. -1.
    9000006    2    1    2  501    0  0.00000000000E+00  0.00000000000E+00  0.89167155239E+03  0.11083284476E+04  0.65826574455E+03 0.  0.
         13    1    3    3    0    0 -0.18296179340E+03  0.26552752597E+03  0.55686571338E+03  0.64348994369E+03  0.00000000000E+00 0. -1.
          4    1    3    3  501    0  0.18296179340E+03 -0.26552752597E+03  0.33480583901E+03  0.46483850392E+03  0.00000000000E+00 0. -1.
<mgrwt>
<rscale>  0 0.65826574E+03</rscale>
<asrwt>0</asrwt>
<pdfrwt beam="1">0</pdfrwt>
<pdfrwt beam="2">  1        2 0.39392246E+00 0.65826574E+03</pdfrwt>
<totfact> 0.41942029E+00</totfact>
</mgrwt>
</event>
<event>
 5    1  0.2361924E-004  0.6494503E+03  0.7818608E-02  0.9807811E-01
         13   -1    0    0    0    0  0.00000000000E+00  0.00000000000E+00  0.10000000000E+04  0.10000000000E+04  0.00000000000E+00 0. -1.
          2   -1    0    0  501    0 -0.00000000000E+00 -0.00000000000E+00 -0.10544642610E+03  0.10544642610E+03  0.00000000000E+00 0. -1.
    9000006    2    1    2  501    0  0.00000000000E+00  0.00000000000E+00  0.89455357390E+03  0.11054464261E+04  0.64945030941E+03 0.  0.
         13    1    3    3    0    0  0.21846778780E+03  0.21512709338E+03  0.26523213162E+03  0.40540834261E+03  0.00000000000E+00 0. -1.
          2    1    3    3  501    0 -0.21846778780E+03 -0.21512709338E+03  0.62932144228E+03  0.70003808348E+03  0.00000000000E+00 0. -1.
<mgrwt>
<rscale>  0 0.64945031E+03</rscale>
<asrwt>0</asrwt>
<pdfrwt beam="1">0</pdfrwt>
<pdfrwt beam="2">  1        2 0.38344236E+00 0.64945031E+03</pdfrwt>
<totfact> 0.45908041E+00</totfact>
</mgrwt>
</event>
<event>
 5    1  0.2361924E-004  0.6244199E+03  0.7818608E-02  0.9855999E-01
         13   -1    0    0    0    0  0.00000000000E+00  0.00000000000E+00  0.10000000000E+04  0.10000000000E+04  0.00000000000E+00 0. -1.
          2   -1    0    0  501    0 -0.00000000000E+00 -0.00000000000E+00 -0.97475055770E+02  0.97475055770E+02  0.00000000000E+00 0. -1.
    9000006    2    1    2  501    0  0.00000000000E+00  0.00000000000E+00  0.90252494423E+03  0.10974750558E+04  0.62441990926E+03 0.  0.
         13    1    3    3    0    0  0.76112241978E+01  0.30836697338E+03  0.36647922994E+03  0.47901476698E+03  0.00000000000E+00 0. -1.
          4    1    3    3  501    0 -0.76112241978E+01 -0.30836697338E+03  0.53604571429E+03  0.61846028879E+03  0.00000000000E+00 0. -1.
<mgrwt>
<rscale>  0 0.62441991E+03</rscale>
<asrwt>0</asrwt>
<pdfrwt beam="1">0</pdfrwt>
<pdfrwt beam="2">  1        2 0.35445550E+00 0.62441991E+03</pdfrwt>
<totfact> 0.58725856E+00</totfact>
</mgrwt>
</event>
<event>
 5    1  0.2361924E-004  0.6363067E+03  0.7818608E-02  0.9832819E-01
         13   -1    0    0    0    0  0.00000000000E+00  0.00000000000E+00  0.10000000000E+04  0.10000000000E+04  0.00000000000E+00 0. -1.
          2   -1    0    0  501    0 -0.00000000000E+00 -0.00000000000E+00 -0.10122154396E+03  0.10122154396E+03  0.00000000000E+00 0. -1.
    9000006    2    1    2  501    0  0.00000000000E+00  0.00000000000E+00  0.89877845604E+03  0.11012215440E+04  0.63630666807E+03 0.  0.
         13    1    3    3    0    0 -0.21858718286E+03  0.73482360038E+01  0.49511920055E+02  0.22424491814E+03  0.00000000000E+00 0. -1.
          4    1    3    3  501    0  0.21858718286E+03 -0.73482360038E+01  0.84926653599E+03  0.87697662582E+03  0.00000000000E+00 0. -1.
<mgrwt>
<rscale>  0 0.63630667E+03</rscale>
<asrwt>0</asrwt>
<pdfrwt beam="1">0</pdfrwt>
<pdfrwt beam="2">  1        2 0.36807912E+00 0.63630667E+03</pdfrwt>
<totfact> 0.52340311E+00</totfact>
</mgrwt>
</event>
<event>
 5    1  0.2361924E-004  0.6542807E+03  0.7818608E-02  0.9798780E-01
         13   -1    0    0    0    0  0.00000000000E+00  0.00000000000E+00  0.10000000000E+04  0.10000000000E+04  0.00000000000E+00 0. -1.
          2   -1    0    0  501    0 -0.00000000000E+00 -0.00000000000E+00 -0.10702081574E+03  0.10702081574E+03  0.00000000000E+00 0. -1.
    9000006    2    1    2  501    0  0.00000000000E+00  0.00000000000E+00  0.89297918426E+03  0.11070208157E+04  0.65428072183E+03 0.  0.
         13    1    3    3    0    0  0.21848837477E+03 -0.17427629948E+03  0.73418064386E+03  0.78557661389E+03  0.00000000000E+00 0. -1.
          2    1    3    3  501    0 -0.21848837477E+03  0.17427629948E+03  0.15879854040E+03  0.32144420185E+03  0.00000000000E+00 0. -1.
<mgrwt>
<rscale>  0 0.65428072E+03</rscale>
<asrwt>0</asrwt>
<pdfrwt beam="1">0</pdfrwt>
<pdfrwt beam="2">  1        2 0.38916742E+00 0.65428072E+03</pdfrwt>
<totfact> 0.43701375E+00</totfact>
</mgrwt>
</event>
<event>
 5    1  0.2361924E-004  0.6573907E+03  0.7818608E-02  0.9793009E-01
         13   -1    0    0    0    0  0.00000000000E+00  0.00000000000E+00  0.10000000000E+04  0.10000000000E+04  0.00000000000E+00 0. -1.
          2   -1    0    0  501    0 -0.00000000000E+00 -0.00000000000E+00 -0.10804063030E+03  0.10804063030E+03  0.00000000000E+00 0. -1.
    9000006    2    1    2  501    0  0.00000000000E+00  0.00000000000E+00  0.89195936970E+03  0.11080406303E+04  0.65739069144E+03 0.  0.
         13    1    3    3    0    0  0.45115915160E+01  0.47729239011E+02 -0.10211589191E+03  0.11280997339E+03  0.00000000000E+00 0. -1.
          4    1    3    3  501    0 -0.45115915160E+01 -0.47729239011E+02  0.99407526161E+03  0.99523065691E+03  0.00000000000E+00 0. -1.
<mgrwt>
<rscale>  0 0.65739069E+03</rscale>
<asrwt>0</asrwt>
<pdfrwt beam="1">0</pdfrwt>
<pdfrwt beam="2">  1        2 0.39287585E+00 0.65739069E+03</pdfrwt>
<totfact> 0.42323687E+00</totfact>
</mgrwt>
</event>
<event>
 5    1  0.2361924E-004  0.6527505E+03  0.7818608E-02  0.9801632E-01
         13   -1    0    0    0    0  0.00000000000E+00  0.00000000000E+00  0.10000000000E+04  0.10000000000E+04  0.00000000000E+00 0. -1.
          2   -1    0    0  501    0 -0.00000000000E+00 -0.00000000000E+00 -0.10652081286E+03  0.10652081286E+03  0.00000000000E+00 0. -1.
    9000006    2    1    2  501    0  0.00000000000E+00  0.00000000000E+00  0.89347918714E+03  0.11065208129E+04  0.65275052772E+03 0.  0.
         13    1    3    3    0    0 -0.13564141070E+03 -0.24498478828E+03  0.16255427879E+03  0.32379010538E+03  0.00000000000E+00 0. -1.
          2    1    3    3  501    0  0.13564141070E+03  0.24498478828E+03  0.73092490835E+03  0.78273070748E+03  0.00000000000E+00 0. -1.
<mgrwt>
<rscale>  0 0.65275053E+03</rscale>
<asrwt>0</asrwt>
<pdfrwt beam="1">0</pdfrwt>
<pdfrwt beam="2">  1        2 0.38734923E+00 0.65275053E+03</pdfrwt>
<totfact> 0.44391537E+00</totfact>
</mgrwt>
</event>
<event>
 5    1  0.2361924E-004  0.6472511E+03  0.7818608E-02  0.9811951E-01
         13   -1    0    0    0    0  0.00000000000E+00  0.00000000000E+00  0.10000000000E+04  0.10000000000E+04  0.00000000000E+00 0. -1.
          2   -1    0    0  501    0 -0.00000000000E+00 -0.00000000000E+00 -0.10473349678E+03  0.10473349678E+03  0.00000000000E+00 0. -1.
    9000006    2    1    2  501    0  0.00000000000E+00  0.00000000000E+00  0.89526650322E+03  0.11047334968E+04  0.64725110053E+03 0.  0.
         13    1    3    3    0    0  0.13411354206E+03  0.28650096698E+03  0.33106624064E+03  0.45790184749E+03  0.00000000000E+00 0. -1.
          2    1    3    3  501    0 -0.13411354206E+03 -0.28650096698E+03  0.56420026258E+03  0.64683164930E+03  0.00000000000E+00 0. -1.
<mgrwt>
<rscale>  0 0.64725110E+03</rscale>
<asrwt>0</asrwt>
<pdfrwt beam="1">0</pdfrwt>
<pdfrwt beam="2">  1        2 0.38084988E+00 0.64725110E+03</pdfrwt>
<totfact> 0.46940133E+00</totfact>
</mgrwt>
</event>
<event>
 5    1  0.2361924E-004  0.6478733E+03  0.7818608E-02  0.9810778E-01
         13   -1    0    0    0    0  0.00000000000E+00  0.00000000000E+00  0.10000000000E+04  0.10000000000E+04  0.00000000000E+00 0. -1.
          2   -1    0    0  501    0 -0.00000000000E+00 -0.00000000000E+00 -0.10493496099E+03  0.10493496099E+03  0.00000000000E+00 0. -1.
    9000006    2    1    2  501    0  0.00000000000E+00  0.00000000000E+00  0.89506503901E+03  0.11049349610E+04  0.64787332401E+03 0.  0.
         13    1    3    3    0    0 -0.10763976420E+03  0.28799632142E+03  0.62151455487E+03  0.69340359236E+03  0.00000000000E+00 0. -1.
          2    1    3    3  501    0  0.10763976420E+03 -0.28799632142E+03  0.27355048414E+03  0.41153136863E+03  0.00000000000E+00 0. -1.
<mgrwt>
<rscale>  0 0.64787332E+03</rscale>
<asrwt>0</asrwt>
<pdfrwt beam="1">0</pdfrwt>
<pdfrwt beam="2">  1        2 0.38158248E+00 0.64787332E+03</pdfrwt>
<totfact> 0.46646361E+00</totfact>
</mgrwt>
</event>
<event>
 5    1  0.2361924E-004  0.6472969E+03  0.7818608E-02  0.9811865E-01
         13   -1    0    0    0    0  0.00000000000E+00  0.00000000000E+00  0.10000000000E+04  0.10000000000E+04  0.00000000000E+00 0. -1.
          2   -1    0    0  501    0 -0.00000000000E+00 -0.00000000000E+00 -0.10474830872E+03  0.10474830872E+03  0.00000000000E+00 0. -1.
    9000006    2    1    2  501    0  0.00000000000E+00  0.00000000000E+00  0.89525169128E+03  0.11047483087E+04  0.64729686767E+03 0.  0.
         13    1    3    3    0    0 -0.12501113737E+03 -0.21028071197E+03  0.85970136558E+02  0.25930026354E+03  0.00000000000E+00 0. -1.
          4    1    3    3  501    0  0.12501113737E+03  0.21028071197E+03  0.80928155472E+03  0.84544804518E+03  0.00000000000E+00 0. -1.
<mgrwt>
<rscale>  0 0.64729687E+03</rscale>
<asrwt>0</asrwt>
<pdfrwt beam="1">0</pdfrwt>
<pdfrwt beam="2">  1        2 0.38090374E+00 0.64729687E+03</pdfrwt>
<totfact> 0.46918477E+00</totfact>
</mgrwt>
</event>
<event>
 5    1  0.2361924E-004  0.5368067E+03  0.7818608E-02  0.1004595E+00
         13   -1    0    0    0    0  0.00000000000E+00  0.00000000000E+00  0.10000000000E+04  0.10000000000E+04  0.00000000000E+00 0. -1.
          2   -1    0    0  501    0 -0.00000000000E+00 -0.00000000000E+00 -0.72040351400E+02  0.72040351400E+02  0.00000000000E+00 0. -1.
    9000006    2    1    2  501    0  0.00000000000E+00  0.00000000000E+00  0.92795964860E+03  0.10720403514E+04  0.53680667433E+03 0.  0.
         13    1    3    3    0    0  0.85892964927E+02 -0.19691386565E+03  0.78530132529E+03  0.81415652267E+03  0.00000000000E+00 0. -1.
          4    1    3    3  501    0 -0.85892964927E+02  0.19691386565E+03  0.14265832331E+03  0.25788382873E+03  0.00000000000E+00 0. -1.
<mgrwt>
<rscale>  0 0.53680667E+03</rscale>
<asrwt>0</asrwt>
<pdfrwt beam="1">0</pdfrwt>
<pdfrwt beam="2">  1        2 0.26196547E+00 0.53680667E+03</pdfrwt>
<totfact> 0.12627277E+01</totfact>
</mgrwt>
</event>
<event>
 5    1  0.2361924E-004  0.6540233E+03  0.7818608E-02  0.9799259E-01
         13   -1    0    0    0    0  0.00000000000E+00  0.00000000000E+00  0.10000000000E+04  0.10000000000E+04  0.00000000000E+00 0. -1.
          2   -1    0    0  501    0 -0.00000000000E+00 -0.00000000000E+00 -0.10693660303E+03  0.10693660303E+03  0.00000000000E+00 0. -1.
    9000006    2    1    2  501    0  0.00000000000E+00  0.00000000000E+00  0.89306339697E+03  0.11069366030E+04  0.65402325045E+03 0.  0.
         13    1    3    3    0    0 -0.29179281008E+03  0.14579224698E+03  0.48579558025E+03  0.58514593828E+03  0.00000000000E+00 0. -1.
          2    1    3    3  501    0  0.29179281008E+03 -0.14579224698E+03  0.40726781671E+03  0.52179066475E+03  0.00000000000E+00 0. -1.
<mgrwt>
<rscale>  0 0.65402325E+03</rscale>
<asrwt>0</asrwt>
<pdfrwt beam="1">0</pdfrwt>
<pdfrwt beam="2">  1        2 0.38886119E+00 0.65402325E+03</pdfrwt>
<totfact> 0.43816931E+00</totfact>
</mgrwt>
</event>
<event>
 5    1  0.2361924E-004  0.6426277E+03  0.7818608E-02  0.9820712E-01
         13   -1    0    0    0    0  0.00000000000E+00  0.00000000000E+00  0.10000000000E+04  0.10000000000E+04  0.00000000000E+00 0. -1.
          2   -1    0    0  501    0 -0.00000000000E+00 -0.00000000000E+00 -0.10324260438E+03  0.10324260438E+03  0.00000000000E+00 0. -1.
    9000006    2    1    2  501    0  0.00000000000E+00  0.00000000000E+00  0.89675739562E+03  0.11032426044E+04  0.64262774414E+03 0.  0.
         13    1    3    3    0    0 -0.31437005206E+03 -0.45215272900E+02  0.53194939173E+03  0.61955072908E+03  0.00000000000E+00 0. -1.
          4    1    3    3  501    0  0.31437005206E+03  0.45215272900E+02  0.36480800389E+03  0.48369187531E+03  0.00000000000E+00 0. -1.
<mgrwt>
<rscale>  0 0.64262774E+03</rscale>
<asrwt>0</asrwt>
<pdfrwt beam="1">0</pdfrwt>
<pdfrwt beam="2">  1        2 0.37542844E+00 0.64262774E+03</pdfrwt>
<totfact> 0.49167042E+00</totfact>
</mgrwt>
</event>
<event>
 5    1  0.2361924E-004  0.6586082E+03  0.7818608E-02  0.9790759E-01
         13   -1    0    0    0    0  0.00000000000E+00  0.00000000000E+00  0.10000000000E+04  0.10000000000E+04  0.00000000000E+00 0. -1.
          2   -1    0    0  501    0 -0.00000000000E+00 -0.00000000000E+00 -0.10844119114E+03  0.10844119114E+03  0.00000000000E+00 0. -1.
    9000006    2    1    2  501    0  0.00000000000E+00  0.00000000000E+00  0.89155880886E+03  0.11084411911E+04  0.65860820261E+03 0.  0.
         13    1    3    3    0    0 -0.77783639298E+02 -0.18793101369E+03  0.99075374425E+01  0.20363329725E+03  0.00000000000E+00 0. -1.
          2    1    3    3  501    0  0.77783639298E+02  0.18793101369E+03  0.88165127142E+03  0.90480789389E+03  0.00000000000E+00 0. -1.
<mgrwt>
<rscale>  0 0.65860820E+03</rscale>
<asrwt>0</asrwt>
<pdfrwt beam="1">0</pdfrwt>
<pdfrwt beam="2">  1        2 0.39433244E+00 0.65860820E+03</pdfrwt>
<totfact> 0.41793387E+00</totfact>
</mgrwt>
</event>
<event>
 5    1  0.2361924E-004  0.6599878E+03  0.7818608E-02  0.9788216E-01
         13   -1    0    0    0    0  0.00000000000E+00  0.00000000000E+00  0.10000000000E+04  0.10000000000E+04  0.00000000000E+00 0. -1.
          2   -1    0    0  501    0 -0.00000000000E+00 -0.00000000000E+00 -0.10889598529E+03  0.10889598529E+03  0.00000000000E+00 0. -1.
    9000006    2    1    2  501    0  0.00000000000E+00  0.00000000000E+00  0.89110401471E+03  0.11088959853E+04  0.65998783409E+03 0.  0.
         13    1    3    3    0    0  0.55115566331E+02  0.11883244673E+03 -0.63342081750E+02  0.14550290502E+03  0.00000000000E+00 0. -1.
          2    1    3    3  501    0 -0.55115566331E+02 -0.11883244673E+03  0.95444609646E+03  0.96339308027E+03  0.00000000000E+00 0. -1.
<mgrwt>
<rscale>  0 0.65998783E+03</rscale>
<asrwt>0</asrwt>
<pdfrwt beam="1">0</pdfrwt>
<pdfrwt beam="2">  1        2 0.39598624E+00 0.65998783E+03</pdfrwt>
<totfact> 0.41198588E+00</totfact>
</mgrwt>
</event>
<event>
 5    1  0.2361924E-004  0.6489705E+03  0.7818608E-02  0.9808713E-01
         13   -1    0    0    0    0  0.00000000000E+00  0.00000000000E+00  0.10000000000E+04  0.10000000000E+04  0.00000000000E+00 0. -1.
          2   -1    0    0  501    0 -0.00000000000E+00 -0.00000000000E+00 -0.10529066265E+03  0.10529066265E+03  0.00000000000E+00 0. -1.
    9000006    2    1    2  501    0  0.00000000000E+00  0.00000000000E+00  0.89470933735E+03  0.11052906627E+04  0.64897045435E+03 0.  0.
         13    1    3    3    0    0  0.10156626409E+03  0.29821813576E+02 -0.75057389414E+02  0.12976385580E+03  0.00000000000E+00 0. -1.
          4    1    3    3  501    0 -0.10156626409E+03 -0.29821813576E+02  0.96976672676E+03  0.97552680686E+03  0.00000000000E+00 0. -1.
<mgrwt>
<rscale>  0 0.64897045E+03</rscale>
<asrwt>0</asrwt>
<pdfrwt beam="1">0</pdfrwt>
<pdfrwt beam="2">  1        2 0.38287594E+00 0.64897045E+03</pdfrwt>
<totfact> 0.46131760E+00</totfact>
</mgrwt>
</event>
<event>
 5    1  0.2361924E-004  0.6519893E+03  0.7818608E-02  0.9803054E-01
         13   -1    0    0    0    0  0.00000000000E+00  0.00000000000E+00  0.10000000000E+04  0.10000000000E+04  0.00000000000E+00 0. -1.
          2   -1    0    0  501    0 -0.00000000000E+00 -0.00000000000E+00 -0.10627251641E+03  0.10627251641E+03  0.00000000000E+00 0. -1.
    9000006    2    1    2  501    0  0.00000000000E+00  0.00000000000E+00  0.89372748359E+03  0.11062725164E+04  0.65198931407E+03 0.  0.
         13    1    3    3    0    0 -0.18402769213E+03 -0.26815182230E+03  0.40888784311E+03  0.52245656232E+03  0.00000000000E+00 0. -1.
          4    1    3    3  501    0  0.18402769213E+03  0.26815182230E+03  0.48483964048E+03  0.58381595409E+03  0.00000000000E+00 0. -1.
<mgrwt>
<rscale>  0 0.65198931E+03</rscale>
<asrwt>0</asrwt>
<pdfrwt beam="1">0</pdfrwt>
<pdfrwt beam="2">  1        2 0.38644633E+00 0.65198931E+03</pdfrwt>
<totfact> 0.44737918E+00</totfact>
</mgrwt>
</event>
<event>
 5    1  0.2361924E-004  0.6395692E+03  0.7818608E-02  0.9826551E-01
         13   -1    0    0    0    0  0.00000000000E+00  0.00000000000E+00  0.10000000000E+04  0.10000000000E+04  0.00000000000E+00 0. -1.
          2   -1    0    0  501    0 -0.00000000000E+00 -0.00000000000E+00 -0.10226220442E+03  0.10226220442E+03  0.00000000000E+00 0. -1.
    9000006    2    1    2  501    0  0.00000000000E+00  0.00000000000E+00  0.89773779558E+03  0.11022622044E+04  0.63956924385E+03 0.  0.
         13    1    3    3    0    0 -0.17129316229E+03  0.11829492572E+03  0.86723368933E+03  0.89186843693E+03  0.00000000000E+00 0. -1.
          4    1    3    3  501    0  0.17129316229E+03 -0.11829492572E+03  0.30504106256E+02  0.21039376748E+03  0.00000000000E+00 0. -1.
<mgrwt>
<rscale>  0 0.63956924E+03</rscale>
<asrwt>0</asrwt>
<pdfrwt beam="1">0</pdfrwt>
<pdfrwt beam="2">  1        2 0.37186335E+00 0.63956924E+03</pdfrwt>
<totfact> 0.50683686E+00</totfact>
</mgrwt>
</event>
<event>
 5    1  0.2361924E-004  0.6468873E+03  0.7818608E-02  0.9812638E-01
         13   -1    0    0    0    0  0.00000000000E+00  0.00000000000E+00  0.10000000000E+04  0.10000000000E+04  0.00000000000E+00 0. -1.
          2   -1    0    0  501    0 -0.00000000000E+00 -0.00000000000E+00 -0.10461578488E+03  0.10461578488E+03  0.00000000000E+00 0. -1.
    9000006    2    1    2  501    0  0.00000000000E+00  0.00000000000E+00  0.89538421512E+03  0.11046157849E+04  0.64688726956E+03 0.  0.
         13    1    3    3    0    0  0.21271847260E+03  0.15616233576E+03  0.76706077195E+03  0.81118311839E+03  0.00000000000E+00 0. -1.
          2    1    3    3  501    0 -0.21271847260E+03 -0.15616233576E+03  0.12832344316E+03  0.29343266649E+03  0.00000000000E+00 0. -1.
<mgrwt>
<rscale>  0 0.64688727E+03</rscale>
<asrwt>0</asrwt>
<pdfrwt beam="1">0</pdfrwt>
<pdfrwt beam="2">  1        2 0.38042184E+00 0.64688727E+03</pdfrwt>
<totfact> 0.47112556E+00</totfact>
</mgrwt>
</event>
<event>
 5    1  0.2361924E-004  0.5969243E+03  0.7818608E-02  0.9911808E-01
         13   -1    0    0    0    0  0.00000000000E+00  0.00000000000E+00  0.10000000000E+04  0.10000000000E+04  0.00000000000E+00 0. -1.
          2   -1    0    0  501    0 -0.00000000000E+00 -0.00000000000E+00 -0.89079658938E+02  0.89079658938E+02  0.00000000000E+00 0. -1.
    9000006    2    1    2  501    0  0.00000000000E+00  0.00000000000E+00  0.91092034106E+03  0.10890796589E+04  0.59692431325E+03 0.  0.
         13    1    3    3    0    0 -0.25373263580E+03  0.48453821503E+02  0.18269115706E+03  0.31639229155E+03  0.00000000000E+00 0. -1.
          2    1    3    3  501    0  0.25373263580E+03 -0.48453821503E+02  0.72822918400E+03  0.77268736738E+03  0.00000000000E+00 0. -1.
<mgrwt>
<rscale>  0 0.59692431E+03</rscale>
<asrwt>0</asrwt>
<pdfrwt beam="1">0</pdfrwt>
<pdfrwt beam="2">  1        2 0.32392672E+00 0.59692431E+03</pdfrwt>
<totfact> 0.75767004E+00</totfact>
</mgrwt>
</event>
<event>
 5    1  0.2361924E-004  0.6504412E+03  0.7818608E-02  0.9805952E-01
         13   -1    0    0    0    0  0.00000000000E+00  0.00000000000E+00  0.10000000000E+04  0.10000000000E+04  0.00000000000E+00 0. -1.
          2   -1    0    0  501    0 -0.00000000000E+00 -0.00000000000E+00 -0.10576843898E+03  0.10576843898E+03  0.00000000000E+00 0. -1.
    9000006    2    1    2  501    0  0.00000000000E+00  0.00000000000E+00  0.89423156102E+03  0.11057684390E+04  0.65044120097E+03 0.  0.
         13    1    3    3    0    0 -0.31765501553E+03  0.64248849755E+02  0.40100095370E+03  0.51559129982E+03  0.00000000000E+00 0. -1.
          4    1    3    3  501    0  0.31765501553E+03 -0.64248849755E+02  0.49323060732E+03  0.59017713915E+03  0.00000000000E+00 0. -1.
<mgrwt>
<rscale>  0 0.65044120E+03</rscale>
<asrwt>0</asrwt>
<pdfrwt beam="1">0</pdfrwt>
<pdfrwt beam="2">  1        2 0.38461332E+00 0.65044120E+03</pdfrwt>
<totfact> 0.45448662E+00</totfact>
</mgrwt>
</event>
<event>
 5    1  0.2361924E-004  0.6361891E+03  0.7818608E-02  0.9833045E-01
         13   -1    0    0    0    0  0.00000000000E+00  0.00000000000E+00  0.10000000000E+04  0.10000000000E+04  0.00000000000E+00 0. -1.
          2   -1    0    0  501    0 -0.00000000000E+00 -0.00000000000E+00 -0.10118412975E+03  0.10118412975E+03  0.00000000000E+00 0. -1.
    9000006    2    1    2  501    0  0.00000000000E+00  0.00000000000E+00  0.89881587025E+03  0.11011841298E+04  0.63618905916E+03 0.  0.
         13    1    3    3    0    0  0.24039352879E+03  0.93170320345E+02  0.12690890927E+03  0.28735975454E+03  0.00000000000E+00 0. -1.
          2    1    3    3  501    0 -0.24039352879E+03 -0.93170320345E+02  0.77190696098E+03  0.81382437521E+03  0.00000000000E+00 0. -1.
<mgrwt>
<rscale>  0 0.63618906E+03</rscale>
<asrwt>0</asrwt>
<pdfrwt beam="1">0</pdfrwt>
<pdfrwt beam="2">  1        2 0.36794307E+00 0.63618906E+03</pdfrwt>
<totfact> 0.52400784E+00</totfact>
</mgrwt>
</event>
<event>
 5    1  0.2361924E-004  0.6412317E+03  0.7818608E-02  0.9823373E-01
         13   -1    0    0    0    0  0.00000000000E+00  0.00000000000E+00  0.10000000000E+04  0.10000000000E+04  0.00000000000E+00 0. -1.
          2   -1    0    0  501    0 -0.00000000000E+00 -0.00000000000E+00 -0.10279453714E+03  0.10279453714E+03  0.00000000000E+00 0. -1.
    9000006    2    1    2  501    0  0.00000000000E+00  0.00000000000E+00  0.89720546286E+03  0.11027945371E+04  0.64123174324E+03 0.  0.
         13    1    3    3    0    0  0.15998993497E+02 -0.98908167384E+02 -0.75178580195E+02  0.12526217421E+03  0.00000000000E+00 0. -1.
          4    1    3    3  501    0 -0.15998993497E+02  0.98908167384E+02  0.97238404306E+03  0.97753236292E+03  0.00000000000E+00 0. -1.
<mgrwt>
<rscale>  0 0.64123174E+03</rscale>
<asrwt>0</asrwt>
<pdfrwt beam="1">0</pdfrwt>
<pdfrwt beam="2">  1        2 0.37379911E+00 0.64123174E+03</pdfrwt>
<totfact> 0.49854961E+00</totfact>
</mgrwt>
</event>
<event>
 5    1  0.2361924E-004  0.6302198E+03  0.7818608E-02  0.9844620E-01
         13   -1    0    0    0    0  0.00000000000E+00  0.00000000000E+00  0.10000000000E+04  0.10000000000E+04  0.00000000000E+00 0. -1.
          2   -1    0    0  501    0 -0.00000000000E+00 -0.00000000000E+00 -0.99294250801E+02  0.99294250801E+02  0.00000000000E+00 0. -1.
    9000006    2    1    2  501    0  0.00000000000E+00  0.00000000000E+00  0.90070574920E+03  0.10992942508E+04  0.63021980547E+03 0.  0.
         13    1    3    3    0    0 -0.29975668745E+03  0.80380746202E+02  0.35514660987E+03  0.47163995858E+03  0.00000000000E+00 0. -1.
          4    1    3    3  501    0  0.29975668745E+03 -0.80380746202E+02  0.54555913933E+03  0.62765429222E+03  0.00000000000E+00 0. -1.
<mgrwt>
<rscale>  0 0.63021981E+03</rscale>
<asrwt>0</asrwt>
<pdfrwt beam="1">0</pdfrwt>
<pdfrwt beam="2">  1        2 0.36107076E+00 0.63021981E+03</pdfrwt>
<totfact> 0.55540396E+00</totfact>
</mgrwt>
</event>
<event>
 5    1  0.2361924E-004  0.6506092E+03  0.7818608E-02  0.9805637E-01
         13   -1    0    0    0    0  0.00000000000E+00  0.00000000000E+00  0.10000000000E+04  0.10000000000E+04  0.00000000000E+00 0. -1.
          2   -1    0    0  501    0 -0.00000000000E+00 -0.00000000000E+00 -0.10582307678E+03  0.10582307678E+03  0.00000000000E+00 0. -1.
    9000006    2    1    2  501    0  0.00000000000E+00  0.00000000000E+00  0.89417692322E+03  0.11058230768E+04  0.65060918156E+03 0.  0.
         13    1    3    3    0    0 -0.23121567888E+03  0.37702957951E+02  0.83070617742E+03  0.86310773163E+03  0.00000000000E+00 0. -1.
          2    1    3    3  501    0  0.23121567888E+03 -0.37702957951E+02  0.63470745798E+02  0.24271534515E+03  0.00000000000E+00 0. -1.
<mgrwt>
<rscale>  0 0.65060918E+03</rscale>
<asrwt>0</asrwt>
<pdfrwt beam="1">0</pdfrwt>
<pdfrwt beam="2">  1        2 0.38481200E+00 0.65060918E+03</pdfrwt>
<totfact> 0.45371132E+00</totfact>
</mgrwt>
</event>
<event>
 5    1  0.2361924E-004  0.5075437E+03  0.7818608E-02  0.1011828E+00
         13   -1    0    0    0    0  0.00000000000E+00  0.00000000000E+00  0.10000000000E+04  0.10000000000E+04  0.00000000000E+00 0. -1.
          2   -1    0    0  501    0 -0.00000000000E+00 -0.00000000000E+00 -0.64400163064E+02  0.64400163064E+02  0.00000000000E+00 0. -1.
    9000006    2    1    2  501    0  0.00000000000E+00  0.00000000000E+00  0.93559983694E+03  0.10644001631E+04  0.50754374418E+03 0.  0.
         13    1    3    3    0    0  0.52319912113E+02 -0.19401485920E+03  0.79283273730E+03  0.81790151493E+03  0.00000000000E+00 0. -1.
          4    1    3    3  501    0 -0.52319912113E+02  0.19401485920E+03  0.14276709964E+03  0.24649864814E+03  0.00000000000E+00 0. -1.
<mgrwt>
<rscale>  0 0.50754374E+03</rscale>
<asrwt>0</asrwt>
<pdfrwt beam="1">0</pdfrwt>
<pdfrwt beam="2">  1        2 0.23418290E+00 0.50754374E+03</pdfrwt>
<totfact> 0.15898472E+01</totfact>
</mgrwt>
</event>
<event>
 5    1  0.2361924E-004  0.6531466E+03  0.7818608E-02  0.9800893E-01
         13   -1    0    0    0    0  0.00000000000E+00  0.00000000000E+00  0.10000000000E+04  0.10000000000E+04  0.00000000000E+00 0. -1.
          2   -1    0    0  501    0 -0.00000000000E+00 -0.00000000000E+00 -0.10665012860E+03  0.10665012860E+03  0.00000000000E+00 0. -1.
    9000006    2    1    2  501    0  0.00000000000E+00  0.00000000000E+00  0.89334987140E+03  0.11066501286E+04  0.65314662548E+03 0.  0.
         13    1    3    3    0    0  0.31975007798E+03  0.66384637485E+02  0.44965626189E+03  0.55573175752E+03  0.00000000000E+00 0. -1.
          4    1    3    3  501    0 -0.31975007798E+03 -0.66384637485E+02  0.44369360952E+03  0.55091837107E+03  0.00000000000E+00 0. -1.
<mgrwt>
<rscale>  0 0.65314663E+03</rscale>
<asrwt>0</asrwt>
<pdfrwt beam="1">0</pdfrwt>
<pdfrwt beam="2">  1        2 0.38781947E+00 0.65314663E+03</pdfrwt>
<totfact> 0.44212102E+00</totfact>
</mgrwt>
</event>
<event>
 5    1  0.2361924E-004  0.5318643E+03  0.7818608E-02  0.1005781E+00
         13   -1    0    0    0    0  0.00000000000E+00  0.00000000000E+00  0.10000000000E+04  0.10000000000E+04  0.00000000000E+00 0. -1.
          2   -1    0    0  501    0 -0.00000000000E+00 -0.00000000000E+00 -0.70719921645E+02  0.70719921645E+02  0.00000000000E+00 0. -1.
    9000006    2    1    2  501    0  0.00000000000E+00  0.00000000000E+00  0.92928007835E+03  0.10707199216E+04  0.53186434979E+03 0.  0.
         13    1    3    3    0    0  0.47032529349E+02  0.25432736213E+03  0.58915358206E+03  0.64342552732E+03  0.00000000000E+00 0. -1.
          4    1    3    3  501    0 -0.47032529349E+02 -0.25432736213E+03  0.34012649629E+03  0.42729439433E+03  0.00000000000E+00 0. -1.
<mgrwt>
<rscale>  0 0.53186435E+03</rscale>
<asrwt>0</asrwt>
<pdfrwt beam="1">0</pdfrwt>
<pdfrwt beam="2">  1        2 0.25716389E+00 0.53186435E+03</pdfrwt>
<totfact> 0.13137737E+01</totfact>
</mgrwt>
</event>
<event>
 5    1  0.2361924E-004  0.6596021E+03  0.7818608E-02  0.9788926E-01
         13   -1    0    0    0    0  0.00000000000E+00  0.00000000000E+00  0.10000000000E+04  0.10000000000E+04  0.00000000000E+00 0. -1.
          2   -1    0    0  501    0 -0.00000000000E+00 -0.00000000000E+00 -0.10876874687E+03  0.10876874687E+03  0.00000000000E+00 0. -1.
    9000006    2    1    2  501    0  0.00000000000E+00  0.00000000000E+00  0.89123125313E+03  0.11087687469E+04  0.65960214333E+03 0.  0.
         13    1    3    3    0    0 -0.19594583194E+03 -0.12569144206E+03  0.83831330447E+03  0.87003580622E+03  0.00000000000E+00 0. -1.
          4    1    3    3  501    0  0.19594583194E+03  0.12569144206E+03  0.52917948658E+02  0.23873294065E+03  0.00000000000E+00 0. -1.
<mgrwt>
<rscale>  0 0.65960214E+03</rscale>
<asrwt>0</asrwt>
<pdfrwt beam="1">0</pdfrwt>
<pdfrwt beam="2">  1        2 0.39552355E+00 0.65960214E+03</pdfrwt>
<totfact> 0.41364223E+00</totfact>
</mgrwt>
</event>
<event>
 5    1  0.2361924E-004  0.6480585E+03  0.7818608E-02  0.9810429E-01
         13   -1    0    0    0    0  0.00000000000E+00  0.00000000000E+00  0.10000000000E+04  0.10000000000E+04  0.00000000000E+00 0. -1.
          2   -1    0    0  501    0 -0.00000000000E+00 -0.00000000000E+00 -0.10499494568E+03  0.10499494568E+03  0.00000000000E+00 0. -1.
    9000006    2    1    2  501    0  0.00000000000E+00  0.00000000000E+00  0.89500505432E+03  0.11049949457E+04  0.64805847168E+03 0.  0.
         13    1    3    3    0    0  0.25638884816E+02 -0.10566855322E+03 -0.72958513689E+02  0.13094327120E+03  0.00000000000E+00 0. -1.
          2    1    3    3  501    0 -0.25638884816E+02  0.10566855322E+03  0.96796356801E+03  0.97405167448E+03  0.00000000000E+00 0. -1.
<mgrwt>
<rscale>  0 0.64805847E+03</rscale>
<asrwt>0</asrwt>
<pdfrwt beam="1">0</pdfrwt>
<pdfrwt beam="2">  1        2 0.38180061E+00 0.64805847E+03</pdfrwt>
<totfact> 0.46559216E+00</totfact>
</mgrwt>
</event>
<event>
 5    1  0.2361924E-004  0.6284899E+03  0.7818608E-02  0.9848000E-01
         13   -1    0    0    0    0  0.00000000000E+00  0.00000000000E+00  0.10000000000E+04  0.10000000000E+04  0.00000000000E+00 0. -1.
          2   -1    0    0  501    0 -0.00000000000E+00 -0.00000000000E+00 -0.98749900091E+02  0.98749900091E+02  0.00000000000E+00 0. -1.
    9000006    2    1    2  501    0  0.00000000000E+00  0.00000000000E+00  0.90125009991E+03  0.10987499001E+04  0.62848993656E+03 0.  0.
         13    1    3    3    0    0  0.20964296155E+03  0.72364766124E+02  0.61418968666E+02  0.23012848675E+03  0.00000000000E+00 0. -1.
          4    1    3    3  501    0 -0.20964296155E+03 -0.72364766124E+02  0.83983113124E+03  0.86862141334E+03  0.00000000000E+00 0. -1.
<mgrwt>
<rscale>  0 0.62848994E+03</rscale>
<asrwt>0</asrwt>
<pdfrwt beam="1">0</pdfrwt>
<pdfrwt beam="2">  1        2 0.35909130E+00 0.62848994E+03</pdfrwt>
<totfact> 0.56476356E+00</totfact>
</mgrwt>
</event>
<event>
 5    1  0.2361924E-004  0.6535198E+03  0.7818608E-02  0.9800197E-01
         13   -1    0    0    0    0  0.00000000000E+00  0.00000000000E+00  0.10000000000E+04  0.10000000000E+04  0.00000000000E+00 0. -1.
          2   -1    0    0  501    0 -0.00000000000E+00 -0.00000000000E+00 -0.10677204185E+03  0.10677204185E+03  0.00000000000E+00 0. -1.
    9000006    2    1    2  501    0  0.00000000000E+00  0.00000000000E+00  0.89322795815E+03  0.11067720418E+04  0.65351982938E+03 0.  0.
         13    1    3    3    0    0  0.10517255255E+03 -0.13194186043E+03  0.92051339637E+03  0.93584979203E+03  0.00000000000E+00 0. -1.
          2    1    3    3  501    0 -0.10517255255E+03  0.13194186043E+03 -0.27285438216E+02  0.17092224982E+03  0.00000000000E+00 0. -1.
<mgrwt>
<rscale>  0 0.65351983E+03</rscale>
<asrwt>0</asrwt>
<pdfrwt beam="1">0</pdfrwt>
<pdfrwt beam="2">  1        2 0.38826279E+00 0.65351983E+03</pdfrwt>
<totfact> 0.44043539E+00</totfact>
</mgrwt>
</event>
<event>
 5    1  0.2361924E-004  0.6536043E+03  0.7818608E-02  0.9800039E-01
         13   -1    0    0    0    0  0.00000000000E+00  0.00000000000E+00  0.10000000000E+04  0.10000000000E+04  0.00000000000E+00 0. -1.
          2   -1    0    0  501    0 -0.00000000000E+00 -0.00000000000E+00 -0.10679965008E+03  0.10679965008E+03  0.00000000000E+00 0. -1.
    9000006    2    1    2  501    0  0.00000000000E+00  0.00000000000E+00  0.89320034992E+03  0.11067996501E+04  0.65360431481E+03 0.  0.
         13    1    3    3    0    0 -0.65882785291E+02 -0.11300850465E+03  0.95373300254E+03  0.96266198827E+03  0.00000000000E+00 0. -1.
          4    1    3    3  501    0  0.65882785291E+02  0.11300850465E+03 -0.60532652626E+02  0.14413766182E+03  0.00000000000E+00 0. -1.
<mgrwt>
<rscale>  0 0.65360431E+03</rscale>
<asrwt>0</asrwt>
<pdfrwt beam="1">0</pdfrwt>
<pdfrwt beam="2">  1        2 0.38836318E+00 0.65360431E+03</pdfrwt>
<totfact> 0.44005447E+00</totfact>
</mgrwt>
</event>
<event>
 5    1  0.2361924E-004  0.6459841E+03  0.7818608E-02  0.9814344E-01
         13   -1    0    0    0    0  0.00000000000E+00  0.00000000000E+00  0.10000000000E+04  0.10000000000E+04  0.00000000000E+00 0. -1.
          2   -1    0    0  501    0 -0.00000000000E+00 -0.00000000000E+00 -0.10432384897E+03  0.10432384897E+03  0.00000000000E+00 0. -1.
    9000006    2    1    2  501    0  0.00000000000E+00  0.00000000000E+00  0.89567615103E+03  0.11043238490E+04  0.64598405234E+03 0.  0.
         13    1    3    3    0    0 -0.12954869393E+03 -0.28850119168E+03  0.33563238455E+03  0.46115604654E+03  0.00000000000E+00 0. -1.
          2    1    3    3  501    0  0.12954869393E+03  0.28850119168E+03  0.56004376648E+03  0.64316780243E+03  0.00000000000E+00 0. -1.
<mgrwt>
<rscale>  0 0.64598405E+03</rscale>
<asrwt>0</asrwt>
<pdfrwt beam="1">0</pdfrwt>
<pdfrwt beam="2">  1        2 0.37936025E+00 0.64598405E+03</pdfrwt>
<totfact> 0.47542670E+00</totfact>
</mgrwt>
</event>
<event>
 5    1  0.2361924E-004  0.6494052E+03  0.7818608E-02  0.9807896E-01
         13   -1    0    0    0    0  0.00000000000E+00  0.00000000000E+00  0.10000000000E+04  0.10000000000E+04  0.00000000000E+00 0. -1.
          2   -1    0    0  501    0 -0.00000000000E+00 -0.00000000000E+00 -0.10543178222E+03  0.10543178222E+03  0.00000000000E+00 0. -1.
    9000006    2    1    2  501    0  0.00000000000E+00  0.00000000000E+00  0.89456821778E+03  0.11054317822E+04  0.64940521163E+03 0.  0.
         13    1    3    3    0    0 -0.28607356118E+03  0.58907596463E+02  0.68875732157E+03  0.74812755286E+03  0.00000000000E+00 0. -1.
          4    1    3    3  501    0  0.28607356118E+03 -0.58907596463E+02  0.20581089621E+03  0.35730422937E+03  0.00000000000E+00 0. -1.
<mgrwt>
<rscale>  0 0.64940521E+03</rscale>
<asrwt>0</asrwt>
<pdfrwt beam="1">0</pdfrwt>
<pdfrwt beam="2">  1        2 0.38338911E+00 0.64940521E+03</pdfrwt>
<totfact> 0.45929032E+00</totfact>
</mgrwt>
</event>
<event>
 5    1  0.2361924E-004  0.6572538E+03  0.7818608E-02  0.9793262E-01
         13   -1    0    0    0    0  0.00000000000E+00  0.00000000000E+00  0.10000000000E+04  0.10000000000E+04  0.00000000000E+00 0. -1.
          2   -1    0    0  501    0 -0.00000000000E+00 -0.00000000000E+00 -0.10799563255E+03  0.10799563255E+03  0.00000000000E+00 0. -1.
    9000006    2    1    2  501    0  0.00000000000E+00  0.00000000000E+00  0.89200436745E+03  0.11079956325E+04  0.65725377914E+03 0.  0.
         13    1    3    3    0    0 -0.14061401509E+03 -0.29627434511E+03  0.41044652764E+03  0.52537333475E+03  0.00000000000E+00 0. -1.
          2    1    3    3  501    0  0.14061401509E+03  0.29627434511E+03  0.48155783981E+03  0.58262229780E+03  0.00000000000E+00 0. -1.
<mgrwt>
<rscale>  0 0.65725378E+03</rscale>
<asrwt>0</asrwt>
<pdfrwt beam="1">0</pdfrwt>
<pdfrwt beam="2">  1        2 0.39271222E+00 0.65725378E+03</pdfrwt>
<totfact> 0.42383638E+00</totfact>
</mgrwt>
</event>
<event>
 5    1  0.2361924E-004  0.6455469E+03  0.7818608E-02  0.9815171E-01
         13   -1    0    0    0    0  0.00000000000E+00  0.00000000000E+00  0.10000000000E+04  0.10000000000E+04  0.00000000000E+00 0. -1.
          2   -1    0    0  501    0 -0.00000000000E+00 -0.00000000000E+00 -0.10418270810E+03  0.10418270810E+03  0.00000000000E+00 0. -1.
    9000006    2    1    2  501    0  0.00000000000E+00  0.00000000000E+00  0.89581729190E+03  0.11041827081E+04  0.64554692502E+03 0.  0.
         13    1    3    3    0    0  0.13997234560E+03  0.27181591785E+03  0.62489429347E+03  0.69567882585E+03  0.00000000000E+00 0. -1.
          4    1    3    3  501    0 -0.13997234560E+03 -0.27181591785E+03  0.27092299843E+03  0.40850388224E+03  0.00000000000E+00 0. -1.
<mgrwt>
<rscale>  0 0.64554693E+03</rscale>
<asrwt>0</asrwt>
<pdfrwt beam="1">0</pdfrwt>
<pdfrwt beam="2">  1        2 0.37884701E+00 0.64554693E+03</pdfrwt>
<totfact> 0.47751895E+00</totfact>
</mgrwt>
</event>
<event>
 5    1  0.2361924E-004  0.6470474E+03  0.7818608E-02  0.9812335E-01
         13   -1    0    0    0    0  0.00000000000E+00  0.00000000000E+00  0.10000000000E+04  0.10000000000E+04  0.00000000000E+00 0. -1.
          2   -1    0    0  501    0 -0.00000000000E+00 -0.00000000000E+00 -0.10466758299E+03  0.10466758299E+03  0.00000000000E+00 0. -1.
    9000006    2    1    2  501    0  0.00000000000E+00  0.00000000000E+00  0.89533241701E+03  0.11046675830E+04  0.64704739546E+03 0.  0.
         13    1    3    3    0    0  0.28183035335E+03  0.29558182261E+02  0.18117455290E+03  0.33634246361E+03  0.00000000000E+00 0. -1.
          2    1    3    3  501    0 -0.28183035335E+03 -0.29558182261E+02  0.71415786411E+03  0.76832511939E+03  0.00000000000E+00 0. -1.
<mgrwt>
<rscale>  0 0.64704740E+03</rscale>
<asrwt>0</asrwt>
<pdfrwt beam="1">0</pdfrwt>
<pdfrwt beam="2">  1        2 0.38061020E+00 0.64704740E+03</pdfrwt>
<totfact> 0.47036612E+00</totfact>
</mgrwt>
</event>
<event>
 5    1  0.2361924E-004  0.6117238E+03  0.7818608E-02  0.9881377E-01
         13   -1    0    0    0    0  0.00000000000E+00  0.00000000000E+00  0.10000000000E+04  0.10000000000E+04  0.00000000000E+00 0. -1.
          2   -1    0    0  501    0 -0.00000000000E+00 -0.00000000000E+00 -0.93551510130E+02  0.93551510130E+02  0.00000000000E+00 0. -1.
    9000006    2    1    2  501    0  0.00000000000E+00  0.00000000000E+00  0.90644848987E+03  0.10935515101E+04  0.61172382700E+03 0.  0.
         13    1    3    3    0    0  0.38301046713E+01  0.12571245992E+03 -0.45186241144E+02  0.13364164272E+03  0.00000000000E+00 0. -1.
          2    1    3    3  501    0 -0.38301046713E+01 -0.12571245992E+03  0.95163473101E+03  0.95990986741E+03  0.00000000000E+00 0. -1.
<mgrwt>
<rscale>  0 0.61172383E+03</rscale>
<asrwt>0</asrwt>
<pdfrwt beam="1">0</pdfrwt>
<pdfrwt beam="2">  1        2 0.34018803E+00 0.61172383E+03</pdfrwt>
<totfact> 0.66183452E+00</totfact>
</mgrwt>
</event>
<event>
 5    1  0.2361924E-004  0.6454730E+03  0.7818608E-02  0.9815311E-01
         13   -1    0    0    0    0  0.00000000000E+00  0.00000000000E+00  0.10000000000E+04  0.10000000000E+04  0.00000000000E+00 0. -1.
          2   -1    0    0  501    0 -0.00000000000E+00 -0.00000000000E+00 -0.10415884560E+03  0.10415884560E+03  0.00000000000E+00 0. -1.
    9000006    2    1    2  501    0  0.00000000000E+00  0.00000000000E+00  0.89584115440E+03  0.11041588456E+04  0.64547299123E+03 0.  0.
         13    1    3    3    0    0 -0.31952139341E+03 -0.35256270538E+02  0.49696259080E+03  0.59186885550E+03  0.00000000000E+00 0. -1.
          4    1    3    3  501    0  0.31952139341E+03  0.35256270538E+02  0.39887856360E+03  0.51228999010E+03  0.00000000000E+00 0. -1.
<mgrwt>
<rscale>  0 0.64547299E+03</rscale>
<asrwt>0</asrwt>
<pdfrwt beam="1">0</pdfrwt>
<pdfrwt beam="2">  1        2 0.37876024E+00 0.64547299E+03</pdfrwt>
<totfact> 0.47787351E+00</totfact>
</mgrwt>
</event>
<event>
 5    1  0.2361924E-004  0.6470039E+03  0.7818608E-02  0.9812417E-01
         13   -1    0    0    0    0  0.00000000000E+00  0.00000000000E+00  0.10000000000E+04  0.10000000000E+04  0.00000000000E+00 0. -1.
          2   -1    0    0  501    0 -0.00000000000E+00 -0.00000000000E+00 -0.10465350339E+03  0.10465350339E+03  0.00000000000E+00 0. -1.
    9000006    2    1    2  501    0  0.00000000000E+00  0.00000000000E+00  0.89534649661E+03  0.11046535034E+04  0.64700387445E+03 0.  0.
         13    1    3    3    0    0 -0.23289101161E+03 -0.36709469314E+01  0.83097626258E+03  0.86300246124E+03  0.00000000000E+00 0. -1.
          4    1    3    3  501    0  0.23289101161E+03  0.36709469314E+01  0.64370234035E+02  0.24165104215E+03  0.00000000000E+00 0. -1.
<mgrwt>
<rscale>  0 0.64700387E+03</rscale>
<asrwt>0</asrwt>
<pdfrwt beam="1">0</pdfrwt>
<pdfrwt beam="2">  1        2 0.38055900E+00 0.64700387E+03</pdfrwt>
<totfact> 0.47057243E+00</totfact>
</mgrwt>
</event>
<event>
 5    1  0.2361924E-004  0.5527448E+03  0.7818608E-02  0.1000861E+00
         13   -1    0    0    0    0  0.00000000000E+00  0.00000000000E+00  0.10000000000E+04  0.10000000000E+04  0.00000000000E+00 0. -1.
          2   -1    0    0  501    0 -0.00000000000E+00 -0.00000000000E+00 -0.76381713439E+02  0.76381713439E+02  0.00000000000E+00 0. -1.
    9000006    2    1    2  501    0  0.00000000000E+00  0.00000000000E+00  0.92361828656E+03  0.10763817134E+04  0.55274483603E+03 0.  0.
         13    1    3    3    0    0  0.12304275008E+03 -0.24078100247E+03  0.57310948691E+03  0.63369511083E+03  0.00000000000E+00 0. -1.
          4    1    3    3  501    0 -0.12304275008E+03  0.24078100247E+03  0.35050879965E+03  0.44268660261E+03  0.00000000000E+00 0. -1.
<mgrwt>
<rscale>  0 0.55274484E+03</rscale>
<asrwt>0</asrwt>
<pdfrwt beam="1">0</pdfrwt>
<pdfrwt beam="2">  1        2 0.27775227E+00 0.55274484E+03</pdfrwt>
<totfact> 0.11087797E+01</totfact>
</mgrwt>
</event>
<event>
 5    1  0.2361924E-004  0.6458092E+03  0.7818608E-02  0.9814675E-01
         13   -1    0    0    0    0  0.00000000000E+00  0.00000000000E+00  0.10000000000E+04  0.10000000000E+04  0.00000000000E+00 0. -1.
          2   -1    0    0  501    0 -0.00000000000E+00 -0.00000000000E+00 -0.10426738762E+03  0.10426738762E+03  0.00000000000E+00 0. -1.
    9000006    2    1    2  501    0  0.00000000000E+00  0.00000000000E+00  0.89573261238E+03  0.11042673876E+04  0.64580922144E+03 0.  0.
         13    1    3    3    0    0 -0.29151137489E+03 -0.11114822625E+03  0.59025647824E+03  0.66763427113E+03  0.00000000000E+00 0. -1.
          4    1    3    3  501    0  0.29151137489E+03  0.11114822625E+03  0.30547613414E+03  0.43663311649E+03  0.00000000000E+00 0. -1.
<mgrwt>
<rscale>  0 0.64580922E+03</rscale>
<asrwt>0</asrwt>
<pdfrwt beam="1">0</pdfrwt>
<pdfrwt beam="2">  1        2 0.37915494E+00 0.64580922E+03</pdfrwt>
<totfact> 0.47626267E+00</totfact>
</mgrwt>
</event>
<event>
 5    1  0.2361924E-004  0.6455000E+03  0.7818608E-02  0.9815260E-01
         13   -1    0    0    0    0  0.00000000000E+00  0.00000000000E+00  0.10000000000E+04  0.10000000000E+04  0.00000000000E+00 0. -1.
          2   -1    0    0  501    0 -0.00000000000E+00 -0.00000000000E+00 -0.10416755652E+03  0.10416755652E+03  0.00000000000E+00 0. -1.
    9000006    2    1    2  501    0  0.00000000000E+00  0.00000000000E+00  0.89583244348E+03  0.11041675565E+04  0.64549998147E+03 0.  0.
         13    1    3    3    0    0 -0.50573455865E+02  0.24960991911E+03  0.10878999348E+03  0.27694412585E+03  0.00000000000E+00 0. -1.
          2    1    3    3  501    0  0.50573455865E+02 -0.24960991911E+03  0.78704245000E+03  0.82722343067E+03  0.00000000000E+00 0. -1.
<mgrwt>
<rscale>  0 0.64549998E+03</rscale>
<asrwt>0</asrwt>
<pdfrwt beam="1">0</pdfrwt>
<pdfrwt beam="2">  1        2 0.37879191E+00 0.64549998E+03</pdfrwt>
<totfact> 0.47774405E+00</totfact>
</mgrwt>
</event>
<event>
 5    1  0.2361924E-004  0.6521025E+03  0.7818608E-02  0.9802842E-01
         13   -1    0    0    0    0  0.00000000000E+00  0.00000000000E+00  0.10000000000E+04  0.10000000000E+04  0.00000000000E+00 0. -1.
          2   -1    0    0  501    0 -0.00000000000E+00 -0.00000000000E+00 -0.10630941693E+03  0.10630941693E+03  0.00000000000E+00 0. -1.
    9000006    2    1    2  501    0  0.00000000000E+00  0.00000000000E+00  0.89369058307E+03  0.11063094169E+04  0.65210249786E+03 0.  0.
         13    1    3    3    0    0 -0.15039483283E+03  0.22925525446E+03  0.14750159895E+03  0.31134112985E+03  0.00000000000E+00 0. -1.
          4    1    3    3  501    0  0.15039483283E+03 -0.22925525446E+03  0.74618898412E+03  0.79496828708E+03  0.00000000000E+00 0. -1.
<mgrwt>
<rscale>  0 0.65210250E+03</rscale>
<asrwt>0</asrwt>
<pdfrwt beam="1">0</pdfrwt>
<pdfrwt beam="2">  1        2 0.38658051E+00 0.65210250E+03</pdfrwt>
<totfact> 0.44686286E+00</totfact>
</mgrwt>
</event>
<event>
 5    1  0.2361924E-004  0.6216611E+03  0.7818608E-02  0.9861458E-01
         13   -1    0    0    0    0  0.00000000000E+00  0.00000000000E+00  0.10000000000E+04  0.10000000000E+04  0.00000000000E+00 0. -1.
          2   -1    0    0  501    0 -0.00000000000E+00 -0.00000000000E+00 -0.96615622471E+02  0.96615622471E+02  0.00000000000E+00 0. -1.
    9000006    2    1    2  501    0  0.00000000000E+00  0.00000000000E+00  0.90338437753E+03  0.10966156225E+04  0.62166107316E+03 0.  0.
         13    1    3    3    0    0 -0.77775076457E+02  0.32869181436E+01 -0.79142169932E+02  0.11101013202E+03  0.00000000000E+00 0. -1.
          4    1    3    3  501    0  0.77775076457E+02 -0.32869181436E+01  0.98252654746E+03  0.98560549045E+03  0.00000000000E+00 0. -1.
<mgrwt>
<rscale>  0 0.62166107E+03</rscale>
<asrwt>0</asrwt>
<pdfrwt beam="1">0</pdfrwt>
<pdfrwt beam="2">  1        2 0.35133028E+00 0.62166107E+03</pdfrwt>
<totfact> 0.60289008E+00</totfact>
</mgrwt>
</event>
<event>
 5    1  0.2361924E-004  0.6351752E+03  0.7818608E-02  0.9835002E-01
         13   -1    0    0    0    0  0.00000000000E+00  0.00000000000E+00  0.10000000000E+04  0.10000000000E+04  0.00000000000E+00 0. -1.
          2   -1    0    0  501    0 -0.00000000000E+00 -0.00000000000E+00 -0.10086187474E+03  0.10086187474E+03  0.00000000000E+00 0. -1.
    9000006    2    1    2  501    0  0.00000000000E+00  0.00000000000E+00  0.89913812526E+03  0.11008618747E+04  0.63517517187E+03 0.  0.
         13    1    3    3    0    0  0.19985150001E+03  0.14278293320E+03  0.10062920065E+03  0.26543139244E+03  0.00000000000E+00 0. -1.
          4    1    3    3  501    0 -0.19985150001E+03 -0.14278293320E+03  0.79850892461E+03  0.83543048230E+03  0.00000000000E+00 0. -1.
<mgrwt>
<rscale>  0 0.63517517E+03</rscale>
<asrwt>0</asrwt>
<pdfrwt beam="1">0</pdfrwt>
<pdfrwt beam="2">  1        2 0.36677123E+00 0.63517517E+03</pdfrwt>
<totfact> 0.52924319E+00</totfact>
</mgrwt>
</event>
<event>
 5    1  0.2361924E-004  0.6429424E+03  0.7818608E-02  0.9820113E-01
         13   -1    0    0    0    0  0.00000000000E+00  0.00000000000E+00  0.10000000000E+04  0.10000000000E+04  0.00000000000E+00 0. -1.
          2   -1    0    0  501    0 -0.00000000000E+00 -0.00000000000E+00 -0.10334373547E+03  0.10334373547E+03  0.00000000000E+00 0. -1.
    9000006    2    1    2  501    0  0.00000000000E+00  0.00000000000E+00  0.89665626453E+03  0.11033437355E+04  0.64294240945E+03 0.  0.
         13    1    3    3    0    0  0.20190690593E+02  0.31931242077E+03  0.50193070763E+03  0.59523316550E+03  0.00000000000E+00 0. -1.
          4    1    3    3  501    0 -0.20190690593E+02 -0.31931242077E+03  0.39472555690E+03  0.50811056997E+03  0.00000000000E+00 0. -1.
<mgrwt>
<rscale>  0 0.64294241E+03</rscale>
<asrwt>0</asrwt>
<pdfrwt beam="1">0</pdfrwt>
<pdfrwt beam="2">  1        2 0.37579619E+00 0.64294241E+03</pdfrwt>
<totfact> 0.49012990E+00</totfact>
</mgrwt>
</event>
<event>
 5    1  0.2361924E-004  0.6596043E+03  0.7818608E-02  0.9788922E-01
         13   -1    0    0    0    0  0.00000000000E+00  0.00000000000E+00  0.10000000000E+04  0.10000000000E+04  0.00000000000E+00 0. -1.
          2   -1    0    0  501    0 -0.00000000000E+00 -0.00000000000E+00 -0.10876946987E+03  0.10876946987E+03  0.00000000000E+00 0. -1.
    9000006    2    1    2  501    0  0.00000000000E+00  0.00000000000E+00  0.89123053013E+03  0.11087694699E+04  0.65960433556E+03 0.  0.
         13    1    3    3    0    0  0.69094123503E+02  0.31159065487E+03  0.30591598171E+03  0.44209424557E+03  0.00000000000E+00 0. -1.
          4    1    3    3  501    0 -0.69094123503E+02 -0.31159065487E+03  0.58531454842E+03  0.66667522430E+03  0.00000000000E+00 0. -1.
<mgrwt>
<rscale>  0 0.65960434E+03</rscale>
<asrwt>0</asrwt>
<pdfrwt beam="1">0</pdfrwt>
<pdfrwt beam="2">  1        2 0.39552618E+00 0.65960434E+03</pdfrwt>
<totfact> 0.41363280E+00</totfact>
</mgrwt>
</event>
<event>
 5    1  0.2361924E-004  0.6580550E+03  0.7818608E-02  0.9791781E-01
         13   -1    0    0    0    0  0.00000000000E+00  0.00000000000E+00  0.10000000000E+04  0.10000000000E+04  0.00000000000E+00 0. -1.
          2   -1    0    0  501    0 -0.00000000000E+00 -0.00000000000E+00 -0.10825910348E+03  0.10825910348E+03  0.00000000000E+00 0. -1.
    9000006    2    1    2  501    0  0.00000000000E+00  0.00000000000E+00  0.89174089652E+03  0.11082591035E+04  0.65805502346E+03 0.  0.
         13    1    3    3    0    0 -0.34085257303E+02  0.30282270457E+03  0.23690285747E+03  0.38598751151E+03  0.00000000000E+00 0. -1.
          4    1    3    3  501    0  0.34085257303E+02 -0.30282270457E+03  0.65483803906E+03  0.72227159197E+03  0.00000000000E+00 0. -1.
<mgrwt>
<rscale>  0 0.65805502E+03</rscale>
<asrwt>0</asrwt>
<pdfrwt beam="1">0</pdfrwt>
<pdfrwt beam="2">  1        2 0.39367030E+00 0.65805502E+03</pdfrwt>
<totfact> 0.42033697E+00</totfact>
</mgrwt>
</event>
<event>
 5    1  0.2361924E-004  0.6336288E+03  0.7818608E-02  0.9837993E-01
         13   -1    0    0    0    0  0.00000000000E+00  0.00000000000E+00  0.10000000000E+04  0.10000000000E+04  0.00000000000E+00 0. -1.
          2   -1    0    0  501    0 -0.00000000000E+00 -0.00000000000E+00 -0.10037136369E+03  0.10037136369E+03  0.00000000000E+00 0. -1.
    9000006    2    1    2  501    0  0.00000000000E+00  0.00000000000E+00  0.89962863631E+03  0.11003713637E+04  0.63362879887E+03 0.  0.
         13    1    3    3    0    0 -0.57497091567E+02  0.13769988262E+03  0.93514923740E+03  0.94698007868E+03  0.00000000000E+00 0. -1.
          4    1    3    3  501    0  0.57497091567E+02 -0.13769988262E+03 -0.35520601089E+02  0.15339128500E+03  0.00000000000E+00 0. -1.
<mgrwt>
<rscale>  0 0.63362880E+03</rscale>
<asrwt>0</asrwt>
<pdfrwt beam="1">0</pdfrwt>
<pdfrwt beam="2">  1        2 0.36498755E+00 0.63362880E+03</pdfrwt>
<totfact> 0.53730433E+00</totfact>
</mgrwt>
</event>
<event>
 5    1  0.2361924E-004  0.6510368E+03  0.7818608E-02  0.9804836E-01
         13   -1    0    0    0    0  0.00000000000E+00  0.00000000000E+00  0.10000000000E+04  0.10000000000E+04  0.00000000000E+00 0. -1.
          2   -1    0    0  501    0 -0.00000000000E+00 -0.00000000000E+00 -0.10596222293E+03  0.10596222293E+03  0.00000000000E+00 0. -1.
    9000006    2    1    2  501    0  0.00000000000E+00  0.00000000000E+00  0.89403777707E+03  0.11059622229E+04  0.65103678214E+03 0.  0.
         13    1    3    3    0    0 -0.10168029857E+03 -0.20488825496E+03  0.53563115706E+02  0.23491932126E+03  0.00000000000E+00 0. -1.
          4    1    3    3  501    0  0.10168029857E+03  0.20488825496E+03  0.84047466137E+03  0.87104290166E+03  0.00000000000E+00 0. -1.
<mgrwt>
<rscale>  0 0.65103678E+03</rscale>
<asrwt>0</asrwt>
<pdfrwt beam="1">0</pdfrwt>
<pdfrwt beam="2">  1        2 0.38531799E+00 0.65103678E+03</pdfrwt>
<totfact> 0.45174226E+00</totfact>
</mgrwt>
</event>
<event>
 5    1  0.2361924E-004  0.6486406E+03  0.7818608E-02  0.9809333E-01
         13   -1    0    0    0    0  0.00000000000E+00  0.00000000000E+00  0.10000000000E+04  0.10000000000E+04  0.00000000000E+00 0. -1.
          2   -1    0    0  501    0 -0.00000000000E+00 -0.00000000000E+00 -0.10518365213E+03  0.10518365213E+03  0.00000000000E+00 0. -1.
    9000006    2    1    2  501    0  0.00000000000E+00  0.00000000000E+00  0.89481634787E+03  0.11051836521E+04  0.64864058501E+03 0.  0.
         13    1    3    3    0    0  0.23608337439E+03 -0.15290918664E+03  0.72249922868E+03  0.77532039472E+03  0.00000000000E+00 0. -1.
          2    1    3    3  501    0 -0.23608337439E+03  0.15290918664E+03  0.17231711919E+03  0.32986325741E+03  0.00000000000E+00 0. -1.
<mgrwt>
<rscale>  0 0.64864059E+03</rscale>
<asrwt>0</asrwt>
<pdfrwt beam="1">0</pdfrwt>
<pdfrwt beam="2">  1        2 0.38248681E+00 0.64864059E+03</pdfrwt>
<totfact> 0.46286029E+00</totfact>
</mgrwt>
</event>
<event>
 5    1  0.2361924E-004  0.6531628E+03  0.7818608E-02  0.9800862E-01
         13   -1    0    0    0    0  0.00000000000E+00  0.00000000000E+00  0.10000000000E+04  0.10000000000E+04  0.00000000000E+00 0. -1.
          2   -1    0    0  501    0 -0.00000000000E+00 -0.00000000000E+00 -0.10665540542E+03  0.10665540542E+03  0.00000000000E+00 0. -1.
    9000006    2    1    2  501    0  0.00000000000E+00  0.00000000000E+00  0.89334459458E+03  0.11066554054E+04  0.65316278346E+03 0.  0.
         13    1    3    3    0    0  0.26217734688E+03  0.17537171523E+03  0.30327377038E+03  0.43756962819E+03  0.00000000000E+00 0. -1.
          2    1    3    3  501    0 -0.26217734688E+03 -0.17537171523E+03  0.59007082420E+03  0.66908577723E+03  0.00000000000E+00 0. -1.
<mgrwt>
<rscale>  0 0.65316278E+03</rscale>
<asrwt>0</asrwt>
<pdfrwt beam="1">0</pdfrwt>
<pdfrwt beam="2">  1        2 0.38783866E+00 0.65316278E+03</pdfrwt>
<totfact> 0.44204794E+00</totfact>
</mgrwt>
</event>
<event>
 5    1  0.2361924E-004  0.6539272E+03  0.7818608E-02  0.9799438E-01
         13   -1    0    0    0    0  0.00000000000E+00  0.00000000000E+00  0.10000000000E+04  0.10000000000E+04  0.00000000000E+00 0. -1.
          2   -1    0    0  501    0 -0.00000000000E+00 -0.00000000000E+00 -0.10690520074E+03  0.10690520074E+03  0.00000000000E+00 0. -1.
    9000006    2    1    2  501    0  0.00000000000E+00  0.00000000000E+00  0.89309479926E+03  0.11069052007E+04  0.65392721533E+03 0.  0.
         13    1    3    3    0    0 -0.21083366915E+03 -0.22973133899E+03  0.61306918373E+03  0.68780894746E+03  0.00000000000E+00 0. -1.
          2    1    3    3  501    0  0.21083366915E+03  0.22973133899E+03  0.28002561553E+03  0.41909625328E+03  0.00000000000E+00 0. -1.
<mgrwt>
<rscale>  0 0.65392722E+03</rscale>
<asrwt>0</asrwt>
<pdfrwt beam="1">0</pdfrwt>
<pdfrwt beam="2">  1        2 0.38874700E+00 0.65392722E+03</pdfrwt>
<totfact> 0.43860092E+00</totfact>
</mgrwt>
</event>
<event>
 5    1  0.2361924E-004  0.6515125E+03  0.7818608E-02  0.9803945E-01
         13   -1    0    0    0    0  0.00000000000E+00  0.00000000000E+00  0.10000000000E+04  0.10000000000E+04  0.00000000000E+00 0. -1.
          2   -1    0    0  501    0 -0.00000000000E+00 -0.00000000000E+00 -0.10611714746E+03  0.10611714746E+03  0.00000000000E+00 0. -1.
    9000006    2    1    2  501    0  0.00000000000E+00  0.00000000000E+00  0.89388285254E+03  0.11061171475E+04  0.65151254005E+03 0.  0.
         13    1    3    3    0    0 -0.29560382934E+03  0.13651770469E+03  0.46378614671E+03  0.56667124287E+03  0.00000000000E+00 0. -1.
          4    1    3    3  501    0  0.29560382934E+03 -0.13651770469E+03  0.43009670583E+03  0.53944590459E+03  0.00000000000E+00 0. -1.
<mgrwt>
<rscale>  0 0.65151254E+03</rscale>
<asrwt>0</asrwt>
<pdfrwt beam="1">0</pdfrwt>
<pdfrwt beam="2">  1        2 0.38588135E+00 0.65151254E+03</pdfrwt>
<totfact> 0.44955905E+00</totfact>
</mgrwt>
</event>
<event>
 5    1  0.2361924E-004  0.6810853E+03  0.7818608E-02  0.9750137E-01
         13   -1    0    0    0    0  0.00000000000E+00  0.00000000000E+00  0.10000000000E+04  0.10000000000E+04  0.00000000000E+00 0. -1.
          2   -1    0    0  501    0 -0.00000000000E+00 -0.00000000000E+00 -0.11596928075E+03  0.11596928075E+03  0.00000000000E+00 0. -1.
    9000006    2    1    2  501    0  0.00000000000E+00  0.00000000000E+00  0.88403071925E+03  0.11159692808E+04  0.68108525385E+03 0.  0.
         13    1    3    3    0    0  0.31642496255E+03  0.36557716592E+02  0.24465706132E+03  0.40164449607E+03  0.00000000000E+00 0. -1.
          4    1    3    3  501    0 -0.31642496255E+03 -0.36557716592E+02  0.63937365793E+03  0.71432478469E+03  0.00000000000E+00 0. -1.
<mgrwt>
<rscale>  0 0.68108525E+03</rscale>
<asrwt>0</asrwt>
<pdfrwt beam="1">0</pdfrwt>
<pdfrwt beam="2">  1        2 0.42170736E+00 0.68108525E+03</pdfrwt>
<totfact> 0.32873709E+00</totfact>
</mgrwt>
</event>
<event>
 5    1  0.2361924E-004  0.6510197E+03  0.7818608E-02  0.9804868E-01
         13   -1    0    0    0    0  0.00000000000E+00  0.00000000000E+00  0.10000000000E+04  0.10000000000E+04  0.00000000000E+00 0. -1.
          2   -1    0    0  501    0 -0.00000000000E+00 -0.00000000000E+00 -0.10595665641E+03  0.10595665641E+03  0.00000000000E+00 0. -1.
    9000006    2    1    2  501    0  0.00000000000E+00  0.00000000000E+00  0.89404334359E+03  0.11059566564E+04  0.65101968146E+03 0.  0.
         13    1    3    3    0    0 -0.22016258010E+03  0.22797274257E+03  0.32087999528E+03  0.45100676758E+03  0.00000000000E+00 0. -1.
          4    1    3    3  501    0  0.22016258010E+03 -0.22797274257E+03  0.57316334831E+03  0.65494988883E+03  0.00000000000E+00 0. -1.
<mgrwt>
<rscale>  0 0.65101968E+03</rscale>
<asrwt>0</asrwt>
<pdfrwt beam="1">0</pdfrwt>
<pdfrwt beam="2">  1        2 0.38529774E+00 0.65101968E+03</pdfrwt>
<totfact> 0.45182089E+00</totfact>
</mgrwt>
</event>
<event>
 5    1  0.2361924E-004  0.6585813E+03  0.7818608E-02  0.9790809E-01
         13   -1    0    0    0    0  0.00000000000E+00  0.00000000000E+00  0.10000000000E+04  0.10000000000E+04  0.00000000000E+00 0. -1.
          2   -1    0    0  501    0 -0.00000000000E+00 -0.00000000000E+00 -0.10843231707E+03  0.10843231707E+03  0.00000000000E+00 0. -1.
    9000006    2    1    2  501    0  0.00000000000E+00  0.00000000000E+00  0.89156768293E+03  0.11084323171E+04  0.65858125411E+03 0.  0.
         13    1    3    3    0    0  0.18281378122E+03 -0.11856331785E+03  0.30254635050E+02  0.21998518560E+03  0.00000000000E+00 0. -1.
          2    1    3    3  501    0 -0.18281378122E+03  0.11856331785E+03  0.86131304788E+03  0.88844713146E+03  0.00000000000E+00 0. -1.
<mgrwt>
<rscale>  0 0.65858125E+03</rscale>
<asrwt>0</asrwt>
<pdfrwt beam="1">0</pdfrwt>
<pdfrwt beam="2">  1        2 0.39430017E+00 0.65858125E+03</pdfrwt>
<totfact> 0.41805069E+00</totfact>
</mgrwt>
</event>
<event>
 5    1  0.2361924E-004  0.6571032E+03  0.7818608E-02  0.9793541E-01
         13   -1    0    0    0    0  0.00000000000E+00  0.00000000000E+00  0.10000000000E+04  0.10000000000E+04  0.00000000000E+00 0. -1.
          2   -1    0    0  501    0 -0.00000000000E+00 -0.00000000000E+00 -0.10794616353E+03  0.10794616353E+03  0.00000000000E+00 0. -1.
    9000006    2    1    2  501    0  0.00000000000E+00  0.00000000000E+00  0.89205383647E+03  0.11079461635E+04  0.65710322942E+03 0.  0.
         13    1    3    3    0    0  0.14526092267E+03 -0.22008785211E+03  0.11558972716E+03  0.28792426665E+03  0.00000000000E+00 0. -1.
          2    1    3    3  501    0 -0.14526092267E+03  0.22008785211E+03  0.77646410932E+03  0.82002189688E+03  0.00000000000E+00 0. -1.
<mgrwt>
<rscale>  0 0.65710323E+03</rscale>
<asrwt>0</asrwt>
<pdfrwt beam="1">0</pdfrwt>
<pdfrwt beam="2">  1        2 0.39253233E+00 0.65710323E+03</pdfrwt>
<totfact> 0.42449635E+00</totfact>
</mgrwt>
</event>
<event>
 5    1  0.2361924E-004  0.6453267E+03  0.7818608E-02  0.9815588E-01
         13   -1    0    0    0    0  0.00000000000E+00  0.00000000000E+00  0.10000000000E+04  0.10000000000E+04  0.00000000000E+00 0. -1.
          2   -1    0    0  501    0 -0.00000000000E+00 -0.00000000000E+00 -0.10411163285E+03  0.10411163285E+03  0.00000000000E+00 0. -1.
    9000006    2    1    2  501    0  0.00000000000E+00  0.00000000000E+00  0.89588836715E+03  0.11041116328E+04  0.64532668578E+03 0.  0.
         13    1    3    3    0    0 -0.31951145615E+03  0.43974784515E+02  0.43168755505E+03  0.53886500858E+03  0.00000000000E+00 0. -1.
          2    1    3    3  501    0  0.31951145615E+03 -0.43974784515E+02  0.46420081210E+03  0.56524662426E+03  0.00000000000E+00 0. -1.
<mgrwt>
<rscale>  0 0.64532669E+03</rscale>
<asrwt>0</asrwt>
<pdfrwt beam="1">0</pdfrwt>
<pdfrwt beam="2">  1        2 0.37858855E+00 0.64532669E+03</pdfrwt>
<totfact> 0.47857572E+00</totfact>
</mgrwt>
</event>
<event>
 5    1  0.2361924E-004  0.6641036E+03  0.7818608E-02  0.9780669E-01
         13   -1    0    0    0    0  0.00000000000E+00  0.00000000000E+00  0.10000000000E+04  0.10000000000E+04  0.00000000000E+00 0. -1.
          2   -1    0    0  501    0 -0.00000000000E+00 -0.00000000000E+00 -0.11025838366E+03  0.11025838366E+03  0.00000000000E+00 0. -1.
    9000006    2    1    2  501    0  0.00000000000E+00  0.00000000000E+00  0.88974161634E+03  0.11102583837E+04  0.66410355718E+03 0.  0.
         13    1    3    3    0    0  0.13765917417E+03 -0.73241012269E+02 -0.45242237302E+02  0.16236118424E+03  0.00000000000E+00 0. -1.
          2    1    3    3  501    0 -0.13765917417E+03  0.73241012269E+02  0.93498385364E+03  0.94789719942E+03  0.00000000000E+00 0. -1.
<mgrwt>
<rscale>  0 0.66410356E+03</rscale>
<asrwt>0</asrwt>
<pdfrwt beam="1">0</pdfrwt>
<pdfrwt beam="2">  1        2 0.40094042E+00 0.66410356E+03</pdfrwt>
<totfact> 0.39462086E+00</totfact>
</mgrwt>
</event>
<event>
 5    1  0.2361924E-004  0.6446412E+03  0.7818608E-02  0.9816887E-01
         13   -1    0    0    0    0  0.00000000000E+00  0.00000000000E+00  0.10000000000E+04  0.10000000000E+04  0.00000000000E+00 0. -1.
          2   -1    0    0  501    0 -0.00000000000E+00 -0.00000000000E+00 -0.10389055888E+03  0.10389055888E+03  0.00000000000E+00 0. -1.
    9000006    2    1    2  501    0  0.00000000000E+00  0.00000000000E+00  0.89610944112E+03  0.11038905589E+04  0.64464116803E+03 0.  0.
         13    1    3    3    0    0 -0.20494056086E+03 -0.23060284993E+03  0.60789019388E+03  0.68169553006E+03  0.00000000000E+00 0. -1.
          4    1    3    3  501    0  0.20494056086E+03  0.23060284993E+03  0.28821924724E+03  0.42219502882E+03  0.00000000000E+00 0. -1.
<mgrwt>
<rscale>  0 0.64464117E+03</rscale>
<asrwt>0</asrwt>
<pdfrwt beam="1">0</pdfrwt>
<pdfrwt beam="2">  1        2 0.37778465E+00 0.64464117E+03</pdfrwt>
<totfact> 0.48187639E+00</totfact>
</mgrwt>
</event>
<event>
 5    1  0.2361924E-004  0.6397537E+03  0.7818608E-02  0.9826198E-01
         13   -1    0    0    0    0  0.00000000000E+00  0.00000000000E+00  0.10000000000E+04  0.10000000000E+04  0.00000000000E+00 0. -1.
          2   -1    0    0  501    0 -0.00000000000E+00 -0.00000000000E+00 -0.10232121116E+03  0.10232121116E+03  0.00000000000E+00 0. -1.
    9000006    2    1    2  501    0  0.00000000000E+00  0.00000000000E+00  0.89767878884E+03  0.11023212112E+04  0.63975373749E+03 0.  0.
         13    1    3    3    0    0  0.98653454288E+02 -0.28488323064E+03  0.63305365004E+03  0.70117607131E+03  0.00000000000E+00 0. -1.
          4    1    3    3  501    0 -0.98653454288E+02  0.28488323064E+03  0.26462513880E+03  0.40114513985E+03  0.00000000000E+00 0. -1.
<mgrwt>
<rscale>  0 0.63975374E+03</rscale>
<asrwt>0</asrwt>
<pdfrwt beam="1">0</pdfrwt>
<pdfrwt beam="2">  1        2 0.37207792E+00 0.63975374E+03</pdfrwt>
<totfact> 0.50591208E+00</totfact>
</mgrwt>
</event>
<event>
 5    1  0.2361924E-004  0.6189283E+03  0.7818608E-02  0.9866896E-01
         13   -1    0    0    0    0  0.00000000000E+00  0.00000000000E+00  0.10000000000E+04  0.10000000000E+04  0.00000000000E+00 0. -1.
          2   -1    0    0  501    0 -0.00000000000E+00 -0.00000000000E+00 -0.95768052316E+02  0.95768052316E+02  0.00000000000E+00 0. -1.
    9000006    2    1    2  501    0  0.00000000000E+00  0.00000000000E+00  0.90423194768E+03  0.10957680523E+04  0.61892827473E+03 0.  0.
         13    1    3    3    0    0 -0.19306492396E+03 -0.19631432244E+03  0.70220845337E+03  0.75426128765E+03  0.00000000000E+00 0. -1.
          4    1    3    3  501    0  0.19306492396E+03  0.19631432244E+03  0.20202349431E+03  0.34150676467E+03  0.00000000000E+00 0. -1.
<mgrwt>
<rscale>  0 0.61892827E+03</rscale>
<asrwt>0</asrwt>
<pdfrwt beam="1">0</pdfrwt>
<pdfrwt beam="2">  1        2 0.34824820E+00 0.61892827E+03</pdfrwt>
<totfact> 0.61868417E+00</totfact>
</mgrwt>
</event>
<event>
 5    1  0.2361924E-004  0.6491762E+03  0.7818608E-02  0.9808326E-01
         13   -1    0    0    0    0  0.00000000000E+00  0.00000000000E+00  0.10000000000E+04  0.10000000000E+04  0.00000000000E+00 0. -1.
          2   -1    0    0  501    0 -0.00000000000E+00 -0.00000000000E+00 -0.10535742619E+03  0.10535742619E+03  0.00000000000E+00 0. -1.
    9000006    2    1    2  501    0  0.00000000000E+00  0.00000000000E+00  0.89464257381E+03  0.11053574262E+04  0.64917617391E+03 0.  0.
         13    1    3    3    0    0  0.26716301927E+03  0.56672104891E+02  0.74599790608E+03  0.79441845536E+03  0.00000000000E+00 0. -1.
          4    1    3    3  501    0 -0.26716301927E+03 -0.56672104891E+02  0.14864466773E+03  0.31093897083E+03  0.00000000000E+00 0. -1.
<mgrwt>
<rscale>  0 0.64917617E+03</rscale>
<asrwt>0</asrwt>
<pdfrwt beam="1">0</pdfrwt>
<pdfrwt beam="2">  1        2 0.38311872E+00 0.64917617E+03</pdfrwt>
<totfact> 0.46035748E+00</totfact>
</mgrwt>
</event>
<event>
 5    1  0.2361924E-004  0.6411189E+03  0.7818608E-02  0.9823588E-01
         13   -1    0    0    0    0  0.00000000000E+00  0.00000000000E+00  0.10000000000E+04  0.10000000000E+04  0.00000000000E+00 0. -1.
          4   -1    0    0  501    0 -0.00000000000E+00 -0.00000000000E+00 -0.10275837643E+03  0.10275837643E+03  0.00000000000E+00 0. -1.
    9000006    2    1    2  501    0  0.00000000000E+00  0.00000000000E+00  0.89724162357E+03  0.11027583764E+04  0.64111894820E+03 0.  0.
         13    1    3    3    0    0  0.23528104526E+03  0.64205980416E+02  0.90788668913E+02  0.26023481816E+03  0.00000000000E+00 0. -1.
          2    1    3    3  501    0 -0.23528104526E+03 -0.64205980416E+02  0.80645295465E+03  0.84252355827E+03  0.00000000000E+00 0. -1.
<mgrwt>
<rscale>  0 0.64111895E+03</rscale>
<asrwt>0</asrwt>
<pdfrwt beam="1">0</pdfrwt>
<pdfrwt beam="2">  1        4 0.37366761E+00 0.64111895E+03</pdfrwt>
<totfact> 0.48370759E-02</totfact>
</mgrwt>
</event>
<event>
 5    1  0.2361924E-004  0.6348476E+03  0.7818608E-02  0.9835634E-01
         13   -1    0    0    0    0  0.00000000000E+00  0.00000000000E+00  0.10000000000E+04  0.10000000000E+04  0.00000000000E+00 0. -1.
          2   -1    0    0  501    0 -0.00000000000E+00 -0.00000000000E+00 -0.10075786930E+03  0.10075786930E+03  0.00000000000E+00 0. -1.
    9000006    2    1    2  501    0  0.00000000000E+00  0.00000000000E+00  0.89924213070E+03  0.11007578693E+04  0.63484760154E+03 0.  0.
         13    1    3    3    0    0 -0.30669826189E+03  0.45922610943E+01  0.30798251750E+03  0.43467015517E+03  0.00000000000E+00 0. -1.
          2    1    3    3  501    0  0.30669826189E+03 -0.45922610943E+01  0.59125961320E+03  0.66608771413E+03  0.00000000000E+00 0. -1.
<mgrwt>
<rscale>  0 0.63484760E+03</rscale>
<asrwt>0</asrwt>
<pdfrwt beam="1">0</pdfrwt>
<pdfrwt beam="2">  1        2 0.36639302E+00 0.63484760E+03</pdfrwt>
<totfact> 0.53094308E+00</totfact>
</mgrwt>
</event>
<event>
 5    1  0.2361924E-004  0.6330323E+03  0.7818608E-02  0.9839149E-01
         13   -1    0    0    0    0  0.00000000000E+00  0.00000000000E+00  0.10000000000E+04  0.10000000000E+04  0.00000000000E+00 0. -1.
          2   -1    0    0  501    0 -0.00000000000E+00 -0.00000000000E+00 -0.10018247305E+03  0.10018247305E+03  0.00000000000E+00 0. -1.
    9000006    2    1    2  501    0  0.00000000000E+00  0.00000000000E+00  0.89981752695E+03  0.11001824730E+04  0.63303229949E+03 0.  0.
         13    1    3    3    0    0 -0.23847193244E+03  0.15807797504E+03  0.68517544174E+03  0.74251120848E+03  0.00000000000E+00 0. -1.
          2    1    3    3  501    0  0.23847193244E+03 -0.15807797504E+03  0.21464208521E+03  0.35767126457E+03  0.00000000000E+00 0. -1.
<mgrwt>
<rscale>  0 0.63303230E+03</rscale>
<asrwt>0</asrwt>
<pdfrwt beam="1">0</pdfrwt>
<pdfrwt beam="2">  1        2 0.36430067E+00 0.63303230E+03</pdfrwt>
<totfact> 0.54043860E+00</totfact>
</mgrwt>
</event>
<event>
 5    1  0.2361924E-004  0.6514024E+03  0.7818608E-02  0.9804151E-01
         13   -1    0    0    0    0  0.00000000000E+00  0.00000000000E+00  0.10000000000E+04  0.10000000000E+04  0.00000000000E+00 0. -1.
          2   -1    0    0  501    0 -0.00000000000E+00 -0.00000000000E+00 -0.10608126540E+03  0.10608126540E+03  0.00000000000E+00 0. -1.
    9000006    2    1    2  501    0  0.00000000000E+00  0.00000000000E+00  0.89391873460E+03  0.11060812654E+04  0.65140238070E+03 0.  0.
         13    1    3    3    0    0  0.23517660073E+03  0.15566543829E+03  0.72359011637E+03  0.77660956646E+03  0.00000000000E+00 0. -1.
          2    1    3    3  501    0 -0.23517660073E+03 -0.15566543829E+03  0.17032861824E+03  0.32947169894E+03  0.00000000000E+00 0. -1.
<mgrwt>
<rscale>  0 0.65140238E+03</rscale>
<asrwt>0</asrwt>
<pdfrwt beam="1">0</pdfrwt>
<pdfrwt beam="2">  1        2 0.38575087E+00 0.65140238E+03</pdfrwt>
<totfact> 0.45006385E+00</totfact>
</mgrwt>
</event>
<event>
 5    1  0.2361924E-004  0.6481458E+03  0.7818608E-02  0.9810265E-01
         13   -1    0    0    0    0  0.00000000000E+00  0.00000000000E+00  0.10000000000E+04  0.10000000000E+04  0.00000000000E+00 0. -1.
          2   -1    0    0  501    0 -0.00000000000E+00 -0.00000000000E+00 -0.10502325936E+03  0.10502325936E+03  0.00000000000E+00 0. -1.
    9000006    2    1    2  501    0  0.00000000000E+00  0.00000000000E+00  0.89497674064E+03  0.11050232594E+04  0.64814584580E+03 0.  0.
         13    1    3    3    0    0  0.21874704073E+03  0.29970206500E+02  0.85192974123E+03  0.88007543148E+03  0.00000000000E+00 0. -1.
          2    1    3    3  501    0 -0.21874704073E+03 -0.29970206500E+02  0.43046999417E+02  0.22494782788E+03  0.00000000000E+00 0. -1.
<mgrwt>
<rscale>  0 0.64814585E+03</rscale>
<asrwt>0</asrwt>
<pdfrwt beam="1">0</pdfrwt>
<pdfrwt beam="2">  1        2 0.38190357E+00 0.64814585E+03</pdfrwt>
<totfact> 0.46518134E+00</totfact>
</mgrwt>
</event>
<event>
 5    1  0.2361924E-004  0.6445847E+03  0.7818608E-02  0.9816994E-01
         13   -1    0    0    0    0  0.00000000000E+00  0.00000000000E+00  0.10000000000E+04  0.10000000000E+04  0.00000000000E+00 0. -1.
          2   -1    0    0  501    0 -0.00000000000E+00 -0.00000000000E+00 -0.10387234837E+03  0.10387234837E+03  0.00000000000E+00 0. -1.
    9000006    2    1    2  501    0  0.00000000000E+00  0.00000000000E+00  0.89612765163E+03  0.11038723484E+04  0.64458466744E+03 0.  0.
         13    1    3    3    0    0  0.18575059874E+03 -0.12960021213E+03  0.55401135501E+02  0.23317115116E+03  0.00000000000E+00 0. -1.
          4    1    3    3  501    0 -0.18575059874E+03  0.12960021213E+03  0.84072651613E+03  0.87070119722E+03  0.00000000000E+00 0. -1.
<mgrwt>
<rscale>  0 0.64458467E+03</rscale>
<asrwt>0</asrwt>
<pdfrwt beam="1">0</pdfrwt>
<pdfrwt beam="2">  1        2 0.37771843E+00 0.64458467E+03</pdfrwt>
<totfact> 0.48214919E+00</totfact>
</mgrwt>
</event>
<event>
 5    1  0.2361924E-004  0.6644933E+03  0.7818608E-02  0.9779957E-01
         13   -1    0    0    0    0  0.00000000000E+00  0.00000000000E+00  0.10000000000E+04  0.10000000000E+04  0.00000000000E+00 0. -1.
          2   -1    0    0  501    0 -0.00000000000E+00 -0.00000000000E+00 -0.11038782892E+03  0.11038782892E+03  0.00000000000E+00 0. -1.
    9000006    2    1    2  501    0  0.00000000000E+00  0.00000000000E+00  0.88961217108E+03  0.11103878289E+04  0.66449327738E+03 0.  0.
         13    1    3    3    0    0  0.21837407390E+03  0.22034448231E+03  0.64357362823E+03  0.71444099966E+03  0.00000000000E+00 0. -1.
          4    1    3    3  501    0 -0.21837407390E+03 -0.22034448231E+03  0.24603854285E+03  0.39594682926E+03  0.00000000000E+00 0. -1.
<mgrwt>
<rscale>  0 0.66449328E+03</rscale>
<asrwt>0</asrwt>
<pdfrwt beam="1">0</pdfrwt>
<pdfrwt beam="2">  1        2 0.40141113E+00 0.66449328E+03</pdfrwt>
<totfact> 0.39300567E+00</totfact>
</mgrwt>
</event>
<event>
 5    1  0.2361924E-004  0.6366043E+03  0.7818608E-02  0.9832245E-01
         13   -1    0    0    0    0  0.00000000000E+00  0.00000000000E+00  0.10000000000E+04  0.10000000000E+04  0.00000000000E+00 0. -1.
          2   -1    0    0  501    0 -0.00000000000E+00 -0.00000000000E+00 -0.10131624497E+03  0.10131624497E+03  0.00000000000E+00 0. -1.
    9000006    2    1    2  501    0  0.00000000000E+00  0.00000000000E+00  0.89868375503E+03  0.11013162450E+04  0.63660425689E+03 0.  0.
         13    1    3    3    0    0 -0.30682124516E+03 -0.79072381591E+01  0.59526126297E+03  0.66972962611E+03  0.00000000000E+00 0. -1.
          4    1    3    3  501    0  0.30682124516E+03  0.79072381591E+01  0.30342249206E+03  0.43158661887E+03  0.00000000000E+00 0. -1.
<mgrwt>
<rscale>  0 0.63660426E+03</rscale>
<asrwt>0</asrwt>
<pdfrwt beam="1">0</pdfrwt>
<pdfrwt beam="2">  1        2 0.36842349E+00 0.63660426E+03</pdfrwt>
<totfact> 0.52187528E+00</totfact>
</mgrwt>
</event>
<event>
 5    1  0.2361924E-004  0.6489364E+03  0.7818608E-02  0.9808777E-01
         13   -1    0    0    0    0  0.00000000000E+00  0.00000000000E+00  0.10000000000E+04  0.10000000000E+04  0.00000000000E+00 0. -1.
          2   -1    0    0  501    0 -0.00000000000E+00 -0.00000000000E+00 -0.10527960655E+03  0.10527960655E+03  0.00000000000E+00 0. -1.
    9000006    2    1    2  501    0  0.00000000000E+00  0.00000000000E+00  0.89472039345E+03  0.11052796066E+04  0.64893638072E+03 0.  0.
         13    1    3    3    0    0 -0.29246385845E+03 -0.12005263210E+03  0.32299193929E+03  0.45196408687E+03  0.00000000000E+00 0. -1.
          4    1    3    3  501    0  0.29246385845E+03  0.12005263210E+03  0.57172845416E+03  0.65331551969E+03  0.00000000000E+00 0. -1.
<mgrwt>
<rscale>  0 0.64893638E+03</rscale>
<asrwt>0</asrwt>
<pdfrwt beam="1">0</pdfrwt>
<pdfrwt beam="2">  1        2 0.38283574E+00 0.64893638E+03</pdfrwt>
<totfact> 0.46147677E+00</totfact>
</mgrwt>
</event>
<event>
 5    1  0.2361924E-004  0.6448903E+03  0.7818608E-02  0.9816415E-01
         13   -1    0    0    0    0  0.00000000000E+00  0.00000000000E+00  0.10000000000E+04  0.10000000000E+04  0.00000000000E+00 0. -1.
          2   -1    0    0  501    0 -0.00000000000E+00 -0.00000000000E+00 -0.10397087359E+03  0.10397087359E+03  0.00000000000E+00 0. -1.
    9000006    2    1    2  501    0  0.00000000000E+00  0.00000000000E+00  0.89602912641E+03  0.11039708736E+04  0.64489029639E+03 0.  0.
         13    1    3    3    0    0  0.26991544942E+03 -0.49033150724E+02  0.73808640151E+03  0.78741992342E+03  0.00000000000E+00 0. -1.
          2    1    3    3  501    0 -0.26991544942E+03  0.49033150724E+02  0.15794272489E+03  0.31655095017E+03  0.00000000000E+00 0. -1.
<mgrwt>
<rscale>  0 0.64489030E+03</rscale>
<asrwt>0</asrwt>
<pdfrwt beam="1">0</pdfrwt>
<pdfrwt beam="2">  1        2 0.37807670E+00 0.64489030E+03</pdfrwt>
<totfact> 0.48067489E+00</totfact>
</mgrwt>
</event>
<event>
 5    1  0.2361924E-004  0.6557697E+03  0.7818608E-02  0.9796013E-01
         13   -1    0    0    0    0  0.00000000000E+00  0.00000000000E+00  0.10000000000E+04  0.10000000000E+04  0.00000000000E+00 0. -1.
          2   -1    0    0  501    0 -0.00000000000E+00 -0.00000000000E+00 -0.10750847065E+03  0.10750847065E+03  0.00000000000E+00 0. -1.
    9000006    2    1    2  501    0  0.00000000000E+00  0.00000000000E+00  0.89249152935E+03  0.11075084706E+04  0.65576968715E+03 0.  0.
         13    1    3    3    0    0  0.31452622155E+03 -0.38745826727E+02  0.58835663513E+03  0.66827502814E+03  0.00000000000E+00 0. -1.
          4    1    3    3  501    0 -0.31452622155E+03  0.38745826727E+02  0.30413489422E+03  0.43923344251E+03  0.00000000000E+00 0. -1.
<mgrwt>
<rscale>  0 0.65576969E+03</rscale>
<asrwt>0</asrwt>
<pdfrwt beam="1">0</pdfrwt>
<pdfrwt beam="2">  1        2 0.39094072E+00 0.65576969E+03</pdfrwt>
<totfact> 0.43037618E+00</totfact>
</mgrwt>
</event>
<event>
 5    1  0.2361924E-004  0.6503863E+03  0.7818608E-02  0.9806055E-01
         13   -1    0    0    0    0  0.00000000000E+00  0.00000000000E+00  0.10000000000E+04  0.10000000000E+04  0.00000000000E+00 0. -1.
          2   -1    0    0  501    0 -0.00000000000E+00 -0.00000000000E+00 -0.10575059502E+03  0.10575059502E+03  0.00000000000E+00 0. -1.
    9000006    2    1    2  501    0  0.00000000000E+00  0.00000000000E+00  0.89424940498E+03  0.11057505950E+04  0.65038633141E+03 0.  0.
         13    1    3    3    0    0 -0.38617138358E+02  0.91346842099E+02  0.97366206227E+03  0.97869982141E+03  0.00000000000E+00 0. -1.
          2    1    3    3  501    0  0.38617138358E+02 -0.91346842099E+02 -0.79412657290E+02  0.12705077361E+03  0.00000000000E+00 0. -1.
<mgrwt>
<rscale>  0 0.65038633E+03</rscale>
<asrwt>0</asrwt>
<pdfrwt beam="1">0</pdfrwt>
<pdfrwt beam="2">  1        2 0.38454843E+00 0.65038633E+03</pdfrwt>
<totfact> 0.45474009E+00</totfact>
</mgrwt>
</event>
<event>
 5    1  0.2361924E-004  0.7011358E+03  0.7818608E-02  0.9715292E-01
         13   -1    0    0    0    0  0.00000000000E+00  0.00000000000E+00  0.10000000000E+04  0.10000000000E+04  0.00000000000E+00 0. -1.
          2   -1    0    0  501    0 -0.00000000000E+00 -0.00000000000E+00 -0.12289785311E+03  0.12289785311E+03  0.00000000000E+00 0. -1.
    9000006    2    1    2  501    0  0.00000000000E+00  0.00000000000E+00  0.87710214689E+03  0.11228978531E+04  0.70113580171E+03 0.  0.
         13    1    3    3    0    0  0.10338845303E+03  0.33352278888E+03  0.48846240929E+03  0.60043496585E+03  0.00000000000E+00 0. -1.
          4    1    3    3  501    0 -0.10338845303E+03 -0.33352278888E+03  0.38863973760E+03  0.52246288726E+03  0.00000000000E+00 0. -1.
<mgrwt>
<rscale>  0 0.70113580E+03</rscale>
<asrwt>0</asrwt>
<pdfrwt beam="1">0</pdfrwt>
<pdfrwt beam="2">  1        2 0.44690223E+00 0.70113580E+03</pdfrwt>
<totfact> 0.26201924E+00</totfact>
</mgrwt>
</event>
<event>
 5    1  0.2361924E-004  0.6575201E+03  0.7818608E-02  0.9792770E-01
         13   -1    0    0    0    0  0.00000000000E+00  0.00000000000E+00  0.10000000000E+04  0.10000000000E+04  0.00000000000E+00 0. -1.
          2   -1    0    0  501    0 -0.00000000000E+00 -0.00000000000E+00 -0.10808316828E+03  0.10808316828E+03  0.00000000000E+00 0. -1.
    9000006    2    1    2  501    0  0.00000000000E+00  0.00000000000E+00  0.89191683172E+03  0.11080831683E+04  0.65752009332E+03 0.  0.
         13    1    3    3    0    0 -0.66033346649E+02  0.29399937076E+03  0.66753550146E+03  0.73239311751E+03  0.00000000000E+00 0. -1.
          2    1    3    3  501    0  0.66033346649E+02 -0.29399937076E+03  0.22438133026E+03  0.37569005077E+03  0.00000000000E+00 0. -1.
<mgrwt>
<rscale>  0 0.65752009E+03</rscale>
<asrwt>0</asrwt>
<pdfrwt beam="1">0</pdfrwt>
<pdfrwt beam="2">  1        2 0.39303053E+00 0.65752009E+03</pdfrwt>
<totfact> 0.42267083E+00</totfact>
</mgrwt>
</event>
<event>
 5    1  0.2361924E-004  0.6520530E+03  0.7818608E-02  0.9802935E-01
         13   -1    0    0    0    0  0.00000000000E+00  0.00000000000E+00  0.10000000000E+04  0.10000000000E+04  0.00000000000E+00 0. -1.
          2   -1    0    0  501    0 -0.00000000000E+00 -0.00000000000E+00 -0.10629326936E+03  0.10629326936E+03  0.00000000000E+00 0. -1.
    9000006    2    1    2  501    0  0.00000000000E+00  0.00000000000E+00  0.89370673064E+03  0.11062932694E+04  0.65205297134E+03 0.  0.
         13    1    3    3    0    0  0.25065596816E+03 -0.15027412738E+03  0.20167673618E+03  0.35508341788E+03  0.00000000000E+00 0. -1.
          4    1    3    3  501    0 -0.25065596816E+03  0.15027412738E+03  0.69202999446E+03  0.75120985148E+03  0.00000000000E+00 0. -1.
<mgrwt>
<rscale>  0 0.65205297E+03</rscale>
<asrwt>0</asrwt>
<pdfrwt beam="1">0</pdfrwt>
<pdfrwt beam="2">  1        2 0.38652179E+00 0.65205297E+03</pdfrwt>
<totfact> 0.44708873E+00</totfact>
</mgrwt>
</event>
<event>
 5    1  0.2361924E-004  0.6568237E+03  0.7818608E-02  0.9794059E-01
         13   -1    0    0    0    0  0.00000000000E+00  0.00000000000E+00  0.10000000000E+04  0.10000000000E+04  0.00000000000E+00 0. -1.
          2   -1    0    0  501    0 -0.00000000000E+00 -0.00000000000E+00 -0.10785433132E+03  0.10785433132E+03  0.00000000000E+00 0. -1.
    9000006    2    1    2  501    0  0.00000000000E+00  0.00000000000E+00  0.89214566868E+03  0.11078543313E+04  0.65682366375E+03 0.  0.
         13    1    3    3    0    0  0.24391939684E+03  0.21136221202E+03  0.34370241264E+03  0.47148913591E+03  0.00000000000E+00 0. -1.
          4    1    3    3  501    0 -0.24391939684E+03 -0.21136221202E+03  0.54844325604E+03  0.63636519541E+03  0.00000000000E+00 0. -1.
<mgrwt>
<rscale>  0 0.65682366E+03</rscale>
<asrwt>0</asrwt>
<pdfrwt beam="1">0</pdfrwt>
<pdfrwt beam="2">  1        2 0.39219840E+00 0.65682366E+03</pdfrwt>
<totfact> 0.42572395E+00</totfact>
</mgrwt>
</event>
<event>
 5    1  0.2361924E-004  0.6500839E+03  0.7818608E-02  0.9806622E-01
         13   -1    0    0    0    0  0.00000000000E+00  0.00000000000E+00  0.10000000000E+04  0.10000000000E+04  0.00000000000E+00 0. -1.
          2   -1    0    0  501    0 -0.00000000000E+00 -0.00000000000E+00 -0.10565228344E+03  0.10565228344E+03  0.00000000000E+00 0. -1.
    9000006    2    1    2  501    0  0.00000000000E+00  0.00000000000E+00  0.89434771656E+03  0.11056522834E+04  0.65008394364E+03 0.  0.
         13    1    3    3    0    0  0.27730979150E+03 -0.43757692972E+02  0.72579541424E+03  0.77819948566E+03  0.00000000000E+00 0. -1.
          4    1    3    3  501    0 -0.27730979150E+03  0.43757692972E+02  0.16855230232E+03  0.32745279778E+03  0.00000000000E+00 0. -1.
<mgrwt>
<rscale>  0 0.65008394E+03</rscale>
<asrwt>0</asrwt>
<pdfrwt beam="1">0</pdfrwt>
<pdfrwt beam="2">  1        2 0.38419093E+00 0.65008394E+03</pdfrwt>
<totfact> 0.45613885E+00</totfact>
</mgrwt>
</event>
<event>
 5    1  0.2361924E-004  0.6274392E+03  0.7818608E-02  0.9850059E-01
         13   -1    0    0    0    0  0.00000000000E+00  0.00000000000E+00  0.10000000000E+04  0.10000000000E+04  0.00000000000E+00 0. -1.
          2   -1    0    0  501    0 -0.00000000000E+00 -0.00000000000E+00 -0.98419984063E+02  0.98419984063E+02  0.00000000000E+00 0. -1.
    9000006    2    1    2  501    0  0.00000000000E+00  0.00000000000E+00  0.90158001594E+03  0.10984199841E+04  0.62743918929E+03 0.  0.
         13    1    3    3    0    0  0.33226749405E+01 -0.25517674374E+03  0.13135810105E+03  0.28702118637E+03  0.00000000000E+00 0. -1.
          2    1    3    3  501    0 -0.33226749405E+01  0.25517674374E+03  0.77022191489E+03  0.81139879769E+03  0.00000000000E+00 0. -1.
<mgrwt>
<rscale>  0 0.62743919E+03</rscale>
<asrwt>0</asrwt>
<pdfrwt beam="1">0</pdfrwt>
<pdfrwt beam="2">  1        2 0.35789161E+00 0.62743919E+03</pdfrwt>
<totfact> 0.57050690E+00</totfact>
</mgrwt>
</event>
<event>
 5    1  0.2361924E-004  0.6482443E+03  0.7818608E-02  0.9810079E-01
         13   -1    0    0    0    0  0.00000000000E+00  0.00000000000E+00  0.10000000000E+04  0.10000000000E+04  0.00000000000E+00 0. -1.
          2   -1    0    0  501    0 -0.00000000000E+00 -0.00000000000E+00 -0.10505517906E+03  0.10505517906E+03  0.00000000000E+00 0. -1.
    9000006    2    1    2  501    0  0.00000000000E+00  0.00000000000E+00  0.89494482094E+03  0.11050551791E+04  0.64824433376E+03 0.  0.
         13    1    3    3    0    0  0.20298436369E+02  0.27188272645E+03  0.74626965645E+03  0.79451283413E+03  0.00000000000E+00 0. -1.
          2    1    3    3  501    0 -0.20298436369E+02 -0.27188272645E+03  0.14867516449E+03  0.31054234493E+03  0.00000000000E+00 0. -1.
<mgrwt>
<rscale>  0 0.64824433E+03</rscale>
<asrwt>0</asrwt>
<pdfrwt beam="1">0</pdfrwt>
<pdfrwt beam="2">  1        2 0.38201964E+00 0.64824433E+03</pdfrwt>
<totfact> 0.46471858E+00</totfact>
</mgrwt>
</event>
<event>
 5    1  0.2361924E-004  0.6497399E+03  0.7818608E-02  0.9807267E-01
         13   -1    0    0    0    0  0.00000000000E+00  0.00000000000E+00  0.10000000000E+04  0.10000000000E+04  0.00000000000E+00 0. -1.
          2   -1    0    0  501    0 -0.00000000000E+00 -0.00000000000E+00 -0.10554047219E+03  0.10554047219E+03  0.00000000000E+00 0. -1.
    9000006    2    1    2  501    0  0.00000000000E+00  0.00000000000E+00  0.89445952781E+03  0.11055404722E+04  0.64973986239E+03 0.  0.
         13    1    3    3    0    0  0.24390245450E+03  0.76104118303E+02  0.78863741475E+03  0.82899289266E+03  0.00000000000E+00 0. -1.
          4    1    3    3  501    0 -0.24390245450E+03 -0.76104118303E+02  0.10582211306E+03  0.27654757954E+03  0.00000000000E+00 0. -1.
<mgrwt>
<rscale>  0 0.64973986E+03</rscale>
<asrwt>0</asrwt>
<pdfrwt beam="1">0</pdfrwt>
<pdfrwt beam="2">  1        2 0.38378434E+00 0.64973986E+03</pdfrwt>
<totfact> 0.45773443E+00</totfact>
</mgrwt>
</event>
<event>
 5    1  0.2361924E-004  0.6458602E+03  0.7818608E-02  0.9814578E-01
         13   -1    0    0    0    0  0.00000000000E+00  0.00000000000E+00  0.10000000000E+04  0.10000000000E+04  0.00000000000E+00 0. -1.
          2   -1    0    0  501    0 -0.00000000000E+00 -0.00000000000E+00 -0.10428384703E+03  0.10428384703E+03  0.00000000000E+00 0. -1.
    9000006    2    1    2  501    0  0.00000000000E+00  0.00000000000E+00  0.89571615297E+03  0.11042838470E+04  0.64586019239E+03 0.  0.
         13    1    3    3    0    0  0.20895450523E+03 -0.10200015002E+01  0.86882997904E+03  0.89360425141E+03  0.00000000000E+00 0. -1.
          2    1    3    3  501    0 -0.20895450523E+03  0.10200015002E+01  0.26886173935E+02  0.21067959562E+03  0.00000000000E+00 0. -1.
<mgrwt>
<rscale>  0 0.64586019E+03</rscale>
<asrwt>0</asrwt>
<pdfrwt beam="1">0</pdfrwt>
<pdfrwt beam="2">  1        2 0.37921479E+00 0.64586019E+03</pdfrwt>
<totfact> 0.47601883E+00</totfact>
</mgrwt>
</event>
<event>
 5    1  0.2361924E-004  0.6009314E+03  0.7818608E-02  0.9903476E-01
         13   -1    0    0    0    0  0.00000000000E+00  0.00000000000E+00  0.10000000000E+04  0.10000000000E+04  0.00000000000E+00 0. -1.
          2   -1    0    0  501    0 -0.00000000000E+00 -0.00000000000E+00 -0.90279628159E+02  0.90279628159E+02  0.00000000000E+00 0. -1.
    9000006    2    1    2  501    0  0.00000000000E+00  0.00000000000E+00  0.90972037184E+03  0.10902796282E+04  0.60093137099E+03 0.  0.
         13    1    3    3    0    0  0.80692657519E+02 -0.11898787382E+03  0.93354482356E+03  0.94455034630E+03  0.00000000000E+00 0. -1.
          4    1    3    3  501    0 -0.80692657519E+02  0.11898787382E+03 -0.23824451718E+02  0.14572928186E+03  0.00000000000E+00 0. -1.
<mgrwt>
<rscale>  0 0.60093137E+03</rscale>
<asrwt>0</asrwt>
<pdfrwt beam="1">0</pdfrwt>
<pdfrwt beam="2">  1        2 0.32829025E+00 0.60093137E+03</pdfrwt>
<totfact> 0.73073697E+00</totfact>
</mgrwt>
</event>
<event>
 5    1  0.2361924E-004  0.6373990E+03  0.7818608E-02  0.9830716E-01
         13   -1    0    0    0    0  0.00000000000E+00  0.00000000000E+00  0.10000000000E+04  0.10000000000E+04  0.00000000000E+00 0. -1.
          2   -1    0    0  501    0 -0.00000000000E+00 -0.00000000000E+00 -0.10156937772E+03  0.10156937772E+03  0.00000000000E+00 0. -1.
    9000006    2    1    2  501    0  0.00000000000E+00  0.00000000000E+00  0.89843062228E+03  0.11015693777E+04  0.63739902014E+03 0.  0.
         13    1    3    3    0    0 -0.15993892163E+03 -0.97967454925E+02  0.89451873979E+03  0.91397038065E+03  0.00000000000E+00 0. -1.
          2    1    3    3  501    0  0.15993892163E+03  0.97967454925E+02  0.39118824933E+01  0.18759899707E+03  0.00000000000E+00 0. -1.
<mgrwt>
<rscale>  0 0.63739902E+03</rscale>
<asrwt>0</asrwt>
<pdfrwt beam="1">0</pdfrwt>
<pdfrwt beam="2">  1        2 0.36934397E+00 0.63739902E+03</pdfrwt>
<totfact> 0.51781152E+00</totfact>
</mgrwt>
</event>
<event>
 5    1  0.2361924E-004  0.6447044E+03  0.7818608E-02  0.9816767E-01
         13   -1    0    0    0    0  0.00000000000E+00  0.00000000000E+00  0.10000000000E+04  0.10000000000E+04  0.00000000000E+00 0. -1.
          2   -1    0    0  501    0 -0.00000000000E+00 -0.00000000000E+00 -0.10391094069E+03  0.10391094069E+03  0.00000000000E+00 0. -1.
    9000006    2    1    2  501    0  0.00000000000E+00  0.00000000000E+00  0.89608905931E+03  0.11039109407E+04  0.64470439951E+03 0.  0.
         13    1    3    3    0    0  0.29330212476E+03 -0.13112301234E+03  0.49307311624E+03  0.58850699122E+03  0.00000000000E+00 0. -1.
          4    1    3    3  501    0 -0.29330212476E+03  0.13112301234E+03  0.40301594308E+03  0.51540394947E+03  0.00000000000E+00 0. -1.
<mgrwt>
<rscale>  0 0.64470440E+03</rscale>
<asrwt>0</asrwt>
<pdfrwt beam="1">0</pdfrwt>
<pdfrwt beam="2">  1        2 0.37785876E+00 0.64470440E+03</pdfrwt>
<totfact> 0.48157122E+00</totfact>
</mgrwt>
</event>
<event>
 5    1  0.2361924E-004  0.5985022E+03  0.7818608E-02  0.9908518E-01
         13   -1    0    0    0    0  0.00000000000E+00  0.00000000000E+00  0.10000000000E+04  0.10000000000E+04  0.00000000000E+00 0. -1.
          2   -1    0    0  501    0 -0.00000000000E+00 -0.00000000000E+00 -0.89551227105E+02  0.89551227105E+02  0.00000000000E+00 0. -1.
    9000006    2    1    2  501    0  0.00000000000E+00  0.00000000000E+00  0.91044877290E+03  0.10895512271E+04  0.59850222090E+03 0.  0.
         13    1    3    3    0    0 -0.12937119463E+03  0.23191263867E+03  0.70636154199E+03  0.75463037706E+03  0.00000000000E+00 0. -1.
          4    1    3    3  501    0  0.12937119463E+03 -0.23191263867E+03  0.20408723090E+03  0.33492085005E+03  0.00000000000E+00 0. -1.
<mgrwt>
<rscale>  0 0.59850222E+03</rscale>
<asrwt>0</asrwt>
<pdfrwt beam="1">0</pdfrwt>
<pdfrwt beam="2">  1        2 0.32564151E+00 0.59850222E+03</pdfrwt>
<totfact> 0.74697495E+00</totfact>
</mgrwt>
</event>
<event>
 5    1  0.2361924E-004  0.6598798E+03  0.7818608E-02  0.9788415E-01
         13   -1    0    0    0    0  0.00000000000E+00  0.00000000000E+00  0.10000000000E+04  0.10000000000E+04  0.00000000000E+00 0. -1.
          2   -1    0    0  501    0 -0.00000000000E+00 -0.00000000000E+00 -0.10886034914E+03  0.10886034914E+03  0.00000000000E+00 0. -1.
    9000006    2    1    2  501    0  0.00000000000E+00  0.00000000000E+00  0.89113965086E+03  0.11088603491E+04  0.65987983494E+03 0.  0.
         13    1    3    3    0    0  0.12831296393E+03 -0.24593000319E+03  0.14537274221E+03  0.31317569727E+03  0.00000000000E+00 0. -1.
          2    1    3    3  501    0 -0.12831296393E+03  0.24593000319E+03  0.74576690865E+03  0.79568465187E+03  0.00000000000E+00 0. -1.
<mgrwt>
<rscale>  0 0.65987983E+03</rscale>
<asrwt>0</asrwt>
<pdfrwt beam="1">0</pdfrwt>
<pdfrwt beam="2">  1        2 0.39585665E+00 0.65987983E+03</pdfrwt>
<totfact> 0.41244918E+00</totfact>
</mgrwt>
</event>
<event>
 5    1  0.2361924E-004  0.6470819E+03  0.7818608E-02  0.9812270E-01
         13   -1    0    0    0    0  0.00000000000E+00  0.00000000000E+00  0.10000000000E+04  0.10000000000E+04  0.00000000000E+00 0. -1.
          2   -1    0    0  501    0 -0.00000000000E+00 -0.00000000000E+00 -0.10467874491E+03  0.10467874491E+03  0.00000000000E+00 0. -1.
    9000006    2    1    2  501    0  0.00000000000E+00  0.00000000000E+00  0.89532125509E+03  0.11046787449E+04  0.64708189561E+03 0.  0.
         13    1    3    3    0    0 -0.18107133125E+03  0.15133179596E+03  0.69798685719E+02  0.24608940651E+03  0.00000000000E+00 0. -1.
          4    1    3    3  501    0  0.18107133125E+03 -0.15133179596E+03  0.82552256937E+03  0.85858933840E+03  0.00000000000E+00 0. -1.
<mgrwt>
<rscale>  0 0.64708190E+03</rscale>
<asrwt>0</asrwt>
<pdfrwt beam="1">0</pdfrwt>
<pdfrwt beam="2">  1        2 0.38065078E+00 0.64708190E+03</pdfrwt>
<totfact> 0.47020261E+00</totfact>
</mgrwt>
</event>
<event>
 5    1  0.2361924E-004  0.6569359E+03  0.7818608E-02  0.9793851E-01
         13   -1    0    0    0    0  0.00000000000E+00  0.00000000000E+00  0.10000000000E+04  0.10000000000E+04  0.00000000000E+00 0. -1.
          2   -1    0    0  501    0 -0.00000000000E+00 -0.00000000000E+00 -0.10789118794E+03  0.10789118794E+03  0.00000000000E+00 0. -1.
    9000006    2    1    2  501    0  0.00000000000E+00  0.00000000000E+00  0.89210881206E+03  0.11078911879E+04  0.65693588100E+03 0.  0.
         13    1    3    3    0    0  0.11268954168E+03 -0.11651219993E+03 -0.35743458412E+02  0.16598680778E+03  0.00000000000E+00 0. -1.
          4    1    3    3  501    0 -0.11268954168E+03  0.11651219993E+03  0.92785227048E+03  0.94190438016E+03  0.00000000000E+00 0. -1.
<mgrwt>
<rscale>  0 0.65693588E+03</rscale>
<asrwt>0</asrwt>
<pdfrwt beam="1">0</pdfrwt>
<pdfrwt beam="2">  1        2 0.39233242E+00 0.65693588E+03</pdfrwt>
<totfact> 0.42523087E+00</totfact>
</mgrwt>
</event>
<event>
 5    1  0.2361924E-004  0.6166800E+03  0.7818608E-02  0.9871392E-01
         13   -1    0    0    0    0  0.00000000000E+00  0.00000000000E+00  0.10000000000E+04  0.10000000000E+04  0.00000000000E+00 0. -1.
          2   -1    0    0  501    0 -0.00000000000E+00 -0.00000000000E+00 -0.95073565392E+02  0.95073565392E+02  0.00000000000E+00 0. -1.
    9000006    2    1    2  501    0  0.00000000000E+00  0.00000000000E+00  0.90492643461E+03  0.10950735654E+04  0.61668003176E+03 0.  0.
         13    1    3    3    0    0 -0.32543712386E+02 -0.17421026095E+03  0.44047817955E+01  0.17727862347E+03  0.00000000000E+00 0. -1.
          4    1    3    3  501    0  0.32543712386E+02  0.17421026095E+03  0.90052165281E+03  0.91779494192E+03  0.00000000000E+00 0. -1.
<mgrwt>
<rscale>  0 0.61668003E+03</rscale>
<asrwt>0</asrwt>
<pdfrwt beam="1">0</pdfrwt>
<pdfrwt beam="2">  1        2 0.34572279E+00 0.61668003E+03</pdfrwt>
<totfact> 0.63191232E+00</totfact>
</mgrwt>
</event>
<event>
 5    1  0.2361924E-004  0.6197536E+03  0.7818608E-02  0.9865250E-01
         13   -1    0    0    0    0  0.00000000000E+00  0.00000000000E+00  0.10000000000E+04  0.10000000000E+04  0.00000000000E+00 0. -1.
          2   -1    0    0  501    0 -0.00000000000E+00 -0.00000000000E+00 -0.96023634110E+02  0.96023634110E+02  0.00000000000E+00 0. -1.
    9000006    2    1    2  501    0  0.00000000000E+00  0.00000000000E+00  0.90397636589E+03  0.10960236341E+04  0.61975360946E+03 0.  0.
         13    1    3    3    0    0 -0.26145593620E+03 -0.11909838791E+03  0.24666129481E+03  0.37866268226E+03  0.00000000000E+00 0. -1.
          2    1    3    3  501    0  0.26145593620E+03  0.11909838791E+03  0.65731507108E+03  0.71736095185E+03  0.00000000000E+00 0. -1.
<mgrwt>
<rscale>  0 0.61975361E+03</rscale>
<asrwt>0</asrwt>
<pdfrwt beam="1">0</pdfrwt>
<pdfrwt beam="2">  1        2 0.34917759E+00 0.61975361E+03</pdfrwt>
<totfact> 0.61388139E+00</totfact>
</mgrwt>
</event>
<event>
 5    1  0.2361924E-004  0.6859731E+03  0.7818608E-02  0.9741525E-01
         13   -1    0    0    0    0  0.00000000000E+00  0.00000000000E+00  0.10000000000E+04  0.10000000000E+04  0.00000000000E+00 0. -1.
          2   -1    0    0  501    0 -0.00000000000E+00 -0.00000000000E+00 -0.11763978584E+03  0.11763978584E+03  0.00000000000E+00 0. -1.
    9000006    2    1    2  501    0  0.00000000000E+00  0.00000000000E+00  0.88236021416E+03  0.11176397858E+04  0.68597313603E+03 0.  0.
         13    1    3    3    0    0 -0.66045966986E+01  0.44219986514E+02  0.99523170264E+03  0.99623549919E+03  0.00000000000E+00 0. -1.
          4    1    3    3  501    0  0.66045966986E+01 -0.44219986514E+02 -0.11287148848E+03  0.12140428665E+03  0.00000000000E+00 0. -1.
<mgrwt>
<rscale>  0 0.68597314E+03</rscale>
<asrwt>0</asrwt>
<pdfrwt beam="1">0</pdfrwt>
<pdfrwt beam="2">  1        2 0.42778194E+00 0.68597314E+03</pdfrwt>
<totfact> 0.31141291E+00</totfact>
</mgrwt>
</event>
<event>
 5    1  0.2361924E-004  0.6490996E+03  0.7818608E-02  0.9808470E-01
         13   -1    0    0    0    0  0.00000000000E+00  0.00000000000E+00  0.10000000000E+04  0.10000000000E+04  0.00000000000E+00 0. -1.
          2   -1    0    0  501    0 -0.00000000000E+00 -0.00000000000E+00 -0.10533257843E+03  0.10533257843E+03  0.00000000000E+00 0. -1.
    9000006    2    1    2  501    0  0.00000000000E+00  0.00000000000E+00  0.89466742157E+03  0.11053325784E+04  0.64909961771E+03 0.  0.
         13    1    3    3    0    0 -0.10193893837E+02 -0.14651330451E+03  0.94017430260E+03  0.95157647256E+03  0.00000000000E+00 0. -1.
          2    1    3    3  501    0  0.10193893837E+02  0.14651330451E+03 -0.45506881023E+02  0.15375610586E+03  0.00000000000E+00 0. -1.
<mgrwt>
<rscale>  0 0.64909962E+03</rscale>
<asrwt>0</asrwt>
<pdfrwt beam="1">0</pdfrwt>
<pdfrwt beam="2">  1        2 0.38302837E+00 0.64909962E+03</pdfrwt>
<totfact> 0.46071460E+00</totfact>
</mgrwt>
</event>
<event>
 5    1  0.2361924E-004  0.6484281E+03  0.7818608E-02  0.9809733E-01
         13   -1    0    0    0    0  0.00000000000E+00  0.00000000000E+00  0.10000000000E+04  0.10000000000E+04  0.00000000000E+00 0. -1.
          2   -1    0    0  501    0 -0.00000000000E+00 -0.00000000000E+00 -0.10511475368E+03  0.10511475368E+03  0.00000000000E+00 0. -1.
    9000006    2    1    2  501    0  0.00000000000E+00  0.00000000000E+00  0.89488524632E+03  0.11051147537E+04  0.64842811068E+03 0.  0.
         13    1    3    3    0    0 -0.56582614840E+02  0.17437844502E+03  0.90318007308E+03  0.92159843685E+03  0.00000000000E+00 0. -1.
          4    1    3    3  501    0  0.56582614840E+02 -0.17437844502E+03 -0.82948267633E+01  0.18351631683E+03  0.00000000000E+00 0. -1.
<mgrwt>
<rscale>  0 0.64842811E+03</rscale>
<asrwt>0</asrwt>
<pdfrwt beam="1">0</pdfrwt>
<pdfrwt beam="2">  1        2 0.38223627E+00 0.64842811E+03</pdfrwt>
<totfact> 0.46385603E+00</totfact>
</mgrwt>
</event>
<event>
 5    1  0.2361924E-004  0.6558398E+03  0.7818608E-02  0.9795883E-01
         13   -1    0    0    0    0  0.00000000000E+00  0.00000000000E+00  0.10000000000E+04  0.10000000000E+04  0.00000000000E+00 0. -1.
          2   -1    0    0  501    0 -0.00000000000E+00 -0.00000000000E+00 -0.10753145708E+03  0.10753145708E+03  0.00000000000E+00 0. -1.
    9000006    2    1    2  501    0  0.00000000000E+00  0.00000000000E+00  0.89246854292E+03  0.11075314571E+04  0.65583978862E+03 0.  0.
         13    1    3    3    0    0  0.23429820273E+03  0.72117635137E+02  0.78438186131E+02  0.25738910261E+03  0.00000000000E+00 0. -1.
          4    1    3    3  501    0 -0.23429820273E+03 -0.72117635137E+02  0.81403035679E+03  0.85014235447E+03  0.00000000000E+00 0. -1.
<mgrwt>
<rscale>  0 0.65583979E+03</rscale>
<asrwt>0</asrwt>
<pdfrwt beam="1">0</pdfrwt>
<pdfrwt beam="2">  1        2 0.39102430E+00 0.65583979E+03</pdfrwt>
<totfact> 0.43006557E+00</totfact>
</mgrwt>
</event>
<event>
 5    1  0.2361924E-004  0.6188805E+03  0.7818608E-02  0.9866991E-01
         13   -1    0    0    0    0  0.00000000000E+00  0.00000000000E+00  0.10000000000E+04  0.10000000000E+04  0.00000000000E+00 0. -1.
          2   -1    0    0  501    0 -0.00000000000E+00 -0.00000000000E+00 -0.95753266798E+02  0.95753266798E+02  0.00000000000E+00 0. -1.
    9000006    2    1    2  501    0  0.00000000000E+00  0.00000000000E+00  0.90424673320E+03  0.10957532668E+04  0.61888049508E+03 0.  0.
         13    1    3    3    0    0  0.14975617382E+03 -0.73504472048E+02 -0.93172721677E+01  0.16708270577E+03  0.00000000000E+00 0. -1.
          2    1    3    3  501    0 -0.14975617382E+03  0.73504472048E+02  0.91356400537E+03  0.92867056103E+03  0.00000000000E+00 0. -1.
<mgrwt>
<rscale>  0 0.61888050E+03</rscale>
<asrwt>0</asrwt>
<pdfrwt beam="1">0</pdfrwt>
<pdfrwt beam="2">  1        2 0.34819443E+00 0.61888050E+03</pdfrwt>
<totfact> 0.61896308E+00</totfact>
</mgrwt>
</event>
<event>
 5    1  0.2361924E-004  0.6470367E+03  0.7818608E-02  0.9812356E-01
         13   -1    0    0    0    0  0.00000000000E+00  0.00000000000E+00  0.10000000000E+04  0.10000000000E+04  0.00000000000E+00 0. -1.
          2   -1    0    0  501    0 -0.00000000000E+00 -0.00000000000E+00 -0.10466412189E+03  0.10466412189E+03  0.00000000000E+00 0. -1.
    9000006    2    1    2  501    0  0.00000000000E+00  0.00000000000E+00  0.89533587811E+03  0.11046641219E+04  0.64703669723E+03 0.  0.
         13    1    3    3    0    0 -0.11445801898E+02  0.25397422163E+03  0.78925017086E+03  0.82918619370E+03  0.00000000000E+00 0. -1.
          2    1    3    3  501    0  0.11445801898E+02 -0.25397422163E+03  0.10608570725E+03  0.27547792819E+03  0.00000000000E+00 0. -1.
<mgrwt>
<rscale>  0 0.64703670E+03</rscale>
<asrwt>0</asrwt>
<pdfrwt beam="1">0</pdfrwt>
<pdfrwt beam="2">  1        2 0.38059761E+00 0.64703670E+03</pdfrwt>
<totfact> 0.47041683E+00</totfact>
</mgrwt>
</event>
<event>
 5    1  0.2361924E-004  0.6474411E+03  0.7818608E-02  0.9811593E-01
         13   -1    0    0    0    0  0.00000000000E+00  0.00000000000E+00  0.10000000000E+04  0.10000000000E+04  0.00000000000E+00 0. -1.
          2   -1    0    0  501    0 -0.00000000000E+00 -0.00000000000E+00 -0.10479501062E+03  0.10479501062E+03  0.00000000000E+00 0. -1.
    9000006    2    1    2  501    0  0.00000000000E+00  0.00000000000E+00  0.89520498938E+03  0.11047950106E+04  0.64744114983E+03 0.  0.
         13    1    3    3    0    0 -0.24122500882E+03 -0.16447555785E+03  0.20899097884E+03  0.35905284186E+03  0.00000000000E+00 0. -1.
          4    1    3    3  501    0  0.24122500882E+03  0.16447555785E+03  0.68621401054E+03  0.74574216876E+03  0.00000000000E+00 0. -1.
<mgrwt>
<rscale>  0 0.64744115E+03</rscale>
<asrwt>0</asrwt>
<pdfrwt beam="1">0</pdfrwt>
<pdfrwt beam="2">  1        2 0.38107357E+00 0.64744115E+03</pdfrwt>
<totfact> 0.46850256E+00</totfact>
</mgrwt>
</event>
<event>
 5    1  0.2361924E-004  0.6334292E+03  0.7818608E-02  0.9838380E-01
         13   -1    0    0    0    0  0.00000000000E+00  0.00000000000E+00  0.10000000000E+04  0.10000000000E+04  0.00000000000E+00 0. -1.
          2   -1    0    0  501    0 -0.00000000000E+00 -0.00000000000E+00 -0.10030812350E+03  0.10030812350E+03  0.00000000000E+00 0. -1.
    9000006    2    1    2  501    0  0.00000000000E+00  0.00000000000E+00  0.89969187650E+03  0.11003081235E+04  0.63342915467E+03 0.  0.
         13    1    3    3    0    0 -0.12946862726E+03 -0.27727219782E+03  0.59167101975E+03  0.66612055421E+03  0.00000000000E+00 0. -1.
          2    1    3    3  501    0  0.12946862726E+03  0.27727219782E+03  0.30802085675E+03  0.43418756928E+03  0.00000000000E+00 0. -1.
<mgrwt>
<rscale>  0 0.63342915E+03</rscale>
<asrwt>0</asrwt>
<pdfrwt beam="1">0</pdfrwt>
<pdfrwt beam="2">  1        2 0.36475758E+00 0.63342915E+03</pdfrwt>
<totfact> 0.53835181E+00</totfact>
</mgrwt>
</event>
<event>
 5    1  0.2361924E-004  0.6475656E+03  0.7818608E-02  0.9811358E-01
         13   -1    0    0    0    0  0.00000000000E+00  0.00000000000E+00  0.10000000000E+04  0.10000000000E+04  0.00000000000E+00 0. -1.
          2   -1    0    0  501    0 -0.00000000000E+00 -0.00000000000E+00 -0.10483529855E+03  0.10483529855E+03  0.00000000000E+00 0. -1.
    9000006    2    1    2  501    0  0.00000000000E+00  0.00000000000E+00  0.89516470145E+03  0.11048352986E+04  0.64756559066E+03 0.  0.
         13    1    3    3    0    0 -0.27697280037E+03 -0.83185122105E+01  0.73333943031E+03  0.78394505537E+03  0.00000000000E+00 0. -1.
          2    1    3    3  501    0  0.27697280037E+03  0.83185122105E+01  0.16182527114E+03  0.32089024318E+03  0.00000000000E+00 0. -1.
<mgrwt>
<rscale>  0 0.64756559E+03</rscale>
<asrwt>0</asrwt>
<pdfrwt beam="1">0</pdfrwt>
<pdfrwt beam="2">  1        2 0.38122007E+00 0.64756559E+03</pdfrwt>
<totfact> 0.46791477E+00</totfact>
</mgrwt>
</event>
<event>
 5    1  0.2361924E-004  0.6179984E+03  0.7818608E-02  0.9868753E-01
         13   -1    0    0    0    0  0.00000000000E+00  0.00000000000E+00  0.10000000000E+04  0.10000000000E+04  0.00000000000E+00 0. -1.
          2   -1    0    0  501    0 -0.00000000000E+00 -0.00000000000E+00 -0.95480515987E+02  0.95480515987E+02  0.00000000000E+00 0. -1.
    9000006    2    1    2  501    0  0.00000000000E+00  0.00000000000E+00  0.90451948401E+03  0.10954805160E+04  0.61799843361E+03 0.  0.
         13    1    3    3    0    0  0.29519877326E+03  0.90657754047E+02  0.47162700749E+03  0.56373147712E+03  0.00000000000E+00 0. -1.
          2    1    3    3  501    0 -0.29519877326E+03 -0.90657754047E+02  0.43289247652E+03  0.53174903886E+03  0.00000000000E+00 0. -1.
<mgrwt>
<rscale>  0 0.61799843E+03</rscale>
<asrwt>0</asrwt>
<pdfrwt beam="1">0</pdfrwt>
<pdfrwt beam="2">  1        2 0.34720261E+00 0.61799843E+03</pdfrwt>
<totfact> 0.62412931E+00</totfact>
</mgrwt>
</event>
<event>
 5    1  0.2361924E-004  0.6483494E+03  0.7818608E-02  0.9809881E-01
         13   -1    0    0    0    0  0.00000000000E+00  0.00000000000E+00  0.10000000000E+04  0.10000000000E+04  0.00000000000E+00 0. -1.
          2   -1    0    0  501    0 -0.00000000000E+00 -0.00000000000E+00 -0.10508923353E+03  0.10508923353E+03  0.00000000000E+00 0. -1.
    9000006    2    1    2  501    0  0.00000000000E+00  0.00000000000E+00  0.89491076647E+03  0.11050892335E+04  0.64834939200E+03 0.  0.
         13    1    3    3    0    0 -0.11381486585E+03  0.26788625518E+03  0.20417395609E+03  0.35553322453E+03  0.00000000000E+00 0. -1.
          2    1    3    3  501    0  0.11381486585E+03 -0.26788625518E+03  0.69073681039E+03  0.74955600900E+03  0.00000000000E+00 0. -1.
<mgrwt>
<rscale>  0 0.64834939E+03</rscale>
<asrwt>0</asrwt>
<pdfrwt beam="1">0</pdfrwt>
<pdfrwt beam="2">  1        2 0.38214347E+00 0.64834939E+03</pdfrwt>
<totfact> 0.46422535E+00</totfact>
</mgrwt>
</event>
<event>
 5    1  0.2361924E-004  0.6441980E+03  0.7818608E-02  0.9817728E-01
         13   -1    0    0    0    0  0.00000000000E+00  0.00000000000E+00  0.10000000000E+04  0.10000000000E+04  0.00000000000E+00 0. -1.
          2   -1    0    0  501    0 -0.00000000000E+00 -0.00000000000E+00 -0.10374776473E+03  0.10374776473E+03  0.00000000000E+00 0. -1.
    9000006    2    1    2  501    0  0.00000000000E+00  0.00000000000E+00  0.89625223527E+03  0.11037477647E+04  0.64419799667E+03 0.  0.
         13    1    3    3    0    0  0.14745142214E+03 -0.14383188510E+03  0.23853231735E+02  0.20736082014E+03  0.00000000000E+00 0. -1.
          2    1    3    3  501    0 -0.14745142214E+03  0.14383188510E+03  0.87239900354E+03  0.89638694459E+03  0.00000000000E+00 0. -1.
<mgrwt>
<rscale>  0 0.64419800E+03</rscale>
<asrwt>0</asrwt>
<pdfrwt beam="1">0</pdfrwt>
<pdfrwt beam="2">  1        2 0.37726539E+00 0.64419800E+03</pdfrwt>
<totfact> 0.48401934E+00</totfact>
</mgrwt>
</event>
<event>
 5    1  0.2361924E-004  0.6528361E+03  0.7818608E-02  0.9801472E-01
         13   -1    0    0    0    0  0.00000000000E+00  0.00000000000E+00  0.10000000000E+04  0.10000000000E+04  0.00000000000E+00 0. -1.
          2   -1    0    0  501    0 -0.00000000000E+00 -0.00000000000E+00 -0.10654875766E+03  0.10654875766E+03  0.00000000000E+00 0. -1.
    9000006    2    1    2  501    0  0.00000000000E+00  0.00000000000E+00  0.89345124234E+03  0.11065487577E+04  0.65283614380E+03 0.  0.
         13    1    3    3    0    0  0.18485596581E+03 -0.26103048888E+03  0.33635458946E+03  0.46415843639E+03  0.00000000000E+00 0. -1.
          2    1    3    3  501    0 -0.18485596581E+03  0.26103048888E+03  0.55709665287E+03  0.64239032127E+03  0.00000000000E+00 0. -1.
<mgrwt>
<rscale>  0 0.65283614E+03</rscale>
<asrwt>0</asrwt>
<pdfrwt beam="1">0</pdfrwt>
<pdfrwt beam="2">  1        2 0.38745084E+00 0.65283614E+03</pdfrwt>
<totfact> 0.44352706E+00</totfact>
</mgrwt>
</event>
<event>
 5    1  0.2361924E-004  0.6394644E+03  0.7818608E-02  0.9826752E-01
         13   -1    0    0    0    0  0.00000000000E+00  0.00000000000E+00  0.10000000000E+04  0.10000000000E+04  0.00000000000E+00 0. -1.
          2   -1    0    0  501    0 -0.00000000000E+00 -0.00000000000E+00 -0.10222869047E+03  0.10222869047E+03  0.00000000000E+00 0. -1.
    9000006    2    1    2  501    0  0.00000000000E+00  0.00000000000E+00  0.89777130953E+03  0.11022286905E+04  0.63946443362E+03 0.  0.
         13    1    3    3    0    0  0.77783844819E+02 -0.30848448490E+03  0.50381888825E+03  0.59585776499E+03  0.00000000000E+00 0. -1.
          4    1    3    3  501    0 -0.77783844819E+02  0.30848448490E+03  0.39395242128E+03  0.50637092548E+03  0.00000000000E+00 0. -1.
<mgrwt>
<rscale>  0 0.63946443E+03</rscale>
<asrwt>0</asrwt>
<pdfrwt beam="1">0</pdfrwt>
<pdfrwt beam="2">  1        2 0.37174148E+00 0.63946443E+03</pdfrwt>
<totfact> 0.50736279E+00</totfact>
</mgrwt>
</event>
<event>
 5    1  0.2361924E-004  0.6586179E+03  0.7818608E-02  0.9790741E-01
         13   -1    0    0    0    0  0.00000000000E+00  0.00000000000E+00  0.10000000000E+04  0.10000000000E+04  0.00000000000E+00 0. -1.
          2   -1    0    0  501    0 -0.00000000000E+00 -0.00000000000E+00 -0.10844437129E+03  0.10844437129E+03  0.00000000000E+00 0. -1.
    9000006    2    1    2  501    0  0.00000000000E+00  0.00000000000E+00  0.89155562871E+03  0.11084443713E+04  0.65861785975E+03 0.  0.
         13    1    3    3    0    0 -0.10874040549E+03  0.29458846316E+03  0.27885200234E+03  0.41995866180E+03  0.00000000000E+00 0. -1.
          4    1    3    3  501    0  0.10874040549E+03 -0.29458846316E+03  0.61270362637E+03  0.68848570950E+03  0.00000000000E+00 0. -1.
<mgrwt>
<rscale>  0 0.65861786E+03</rscale>
<asrwt>0</asrwt>
<pdfrwt beam="1">0</pdfrwt>
<pdfrwt beam="2">  1        2 0.39434400E+00 0.65861786E+03</pdfrwt>
<totfact> 0.41789201E+00</totfact>
</mgrwt>
</event>
<event>
 5    1  0.2361924E-004  0.6517797E+03  0.7818608E-02  0.9803445E-01
         13   -1    0    0    0    0  0.00000000000E+00  0.00000000000E+00  0.10000000000E+04  0.10000000000E+04  0.00000000000E+00 0. -1.
          2   -1    0    0  501    0 -0.00000000000E+00 -0.00000000000E+00 -0.10620420052E+03  0.10620420052E+03  0.00000000000E+00 0. -1.
    9000006    2    1    2  501    0  0.00000000000E+00  0.00000000000E+00  0.89379579948E+03  0.11062042005E+04  0.65177971898E+03 0.  0.
         13    1    3    3    0    0  0.34891826070E+02  0.32182554399E+03  0.38305317894E+03  0.50151655823E+03  0.00000000000E+00 0. -1.
          4    1    3    3  501    0 -0.34891826070E+02 -0.32182554399E+03  0.51074262055E+03  0.60468764228E+03  0.00000000000E+00 0. -1.
<mgrwt>
<rscale>  0 0.65177972E+03</rscale>
<asrwt>0</asrwt>
<pdfrwt beam="1">0</pdfrwt>
<pdfrwt beam="2">  1        2 0.38619791E+00 0.65177972E+03</pdfrwt>
<totfact> 0.44833649E+00</totfact>
</mgrwt>
</event>
<event>
 5    1  0.2361924E-004  0.6587847E+03  0.7818608E-02  0.9790434E-01
         13   -1    0    0    0    0  0.00000000000E+00  0.00000000000E+00  0.10000000000E+04  0.10000000000E+04  0.00000000000E+00 0. -1.
          2   -1    0    0  501    0 -0.00000000000E+00 -0.00000000000E+00 -0.10849931325E+03  0.10849931325E+03  0.00000000000E+00 0. -1.
    9000006    2    1    2  501    0  0.00000000000E+00  0.00000000000E+00  0.89150068675E+03  0.11084993133E+04  0.65878467880E+03 0.  0.
         13    1    3    3    0    0 -0.14947996747E+03  0.18000892724E+03  0.55638980359E+02  0.24050607206E+03  0.00000000000E+00 0. -1.
          4    1    3    3  501    0  0.14947996747E+03 -0.18000892724E+03  0.83586170639E+03  0.86799324120E+03  0.00000000000E+00 0. -1.
<mgrwt>
<rscale>  0 0.65878468E+03</rscale>
<asrwt>0</asrwt>
<pdfrwt beam="1">0</pdfrwt>
<pdfrwt beam="2">  1        2 0.39454379E+00 0.65878468E+03</pdfrwt>
<totfact> 0.41716943E+00</totfact>
</mgrwt>
</event>
<event>
 5    1  0.2361924E-004  0.6454338E+03  0.7818608E-02  0.9815385E-01
         13   -1    0    0    0    0  0.00000000000E+00  0.00000000000E+00  0.10000000000E+04  0.10000000000E+04  0.00000000000E+00 0. -1.
          2   -1    0    0  501    0 -0.00000000000E+00 -0.00000000000E+00 -0.10414620993E+03  0.10414620993E+03  0.00000000000E+00 0. -1.
    9000006    2    1    2  501    0  0.00000000000E+00  0.00000000000E+00  0.89585379007E+03  0.11041462099E+04  0.64543383838E+03 0.  0.
         13    1    3    3    0    0  0.43389732169E+02 -0.79809419873E+02  0.97767640943E+03  0.98188765850E+03  0.00000000000E+00 0. -1.
          2    1    3    3  501    0 -0.43389732169E+02  0.79809419873E+02 -0.81822619365E+02  0.12225855143E+03  0.00000000000E+00 0. -1.
<mgrwt>
<rscale>  0 0.64543384E+03</rscale>
<asrwt>0</asrwt>
<pdfrwt beam="1">0</pdfrwt>
<pdfrwt beam="2">  1        2 0.37871429E+00 0.64543384E+03</pdfrwt>
<totfact> 0.47806135E+00</totfact>
</mgrwt>
</event>
<event>
 5    1  0.2361924E-004  0.6448479E+03  0.7818608E-02  0.9816495E-01
         13   -1    0    0    0    0  0.00000000000E+00  0.00000000000E+00  0.10000000000E+04  0.10000000000E+04  0.00000000000E+00 0. -1.
          2   -1    0    0  501    0 -0.00000000000E+00 -0.00000000000E+00 -0.10395718918E+03  0.10395718918E+03  0.00000000000E+00 0. -1.
    9000006    2    1    2  501    0  0.00000000000E+00  0.00000000000E+00  0.89604281082E+03  0.11039571892E+04  0.64484785547E+03 0.  0.
         13    1    3    3    0    0 -0.11307354405E+03 -0.11529439351E+03 -0.29732781592E+02  0.16420250254E+03  0.00000000000E+00 0. -1.
          2    1    3    3  501    0  0.11307354405E+03  0.11529439351E+03  0.92577559242E+03  0.93975468663E+03  0.00000000000E+00 0. -1.
<mgrwt>
<rscale>  0 0.64484786E+03</rscale>
<asrwt>0</asrwt>
<pdfrwt beam="1">0</pdfrwt>
<pdfrwt beam="2">  1        2 0.37802694E+00 0.64484786E+03</pdfrwt>
<totfact> 0.48087941E+00</totfact>
</mgrwt>
</event>
<event>
 5    1  0.2361924E-004  0.4771370E+03  0.7818608E-02  0.1019925E+00
         13   -1    0    0    0    0  0.00000000000E+00  0.00000000000E+00  0.10000000000E+04  0.10000000000E+04  0.00000000000E+00 0. -1.
          4   -1    0    0  501    0 -0.00000000000E+00 -0.00000000000E+00 -0.56914938581E+02  0.56914938581E+02  0.00000000000E+00 0. -1.
    9000006    2    1    2  501    0  0.00000000000E+00  0.00000000000E+00  0.94308506142E+03  0.10569149386E+04  0.47713703935E+03 0.  0.
         13    1    3    3    0    0  0.49789936860E+02  0.34343184715E+02 -0.39648231642E+02  0.72322018924E+02  0.00000000000E+00 0. -1.
          4    1    3    3  501    0 -0.49789936860E+02 -0.34343184715E+02  0.98273329306E+03  0.98459291966E+03  0.00000000000E+00 0. -1.
<mgrwt>
<rscale>  0 0.47713704E+03</rscale>
<asrwt>0</asrwt>
<pdfrwt beam="1">0</pdfrwt>
<pdfrwt beam="2">  1        4 0.20696385E+00 0.47713704E+03</pdfrwt>
<totfact> 0.53475330E-01</totfact>
</mgrwt>
</event>
<event>
 5    1  0.2361924E-004  0.6424734E+03  0.7818608E-02  0.9821006E-01
         13   -1    0    0    0    0  0.00000000000E+00  0.00000000000E+00  0.10000000000E+04  0.10000000000E+04  0.00000000000E+00 0. -1.
          2   -1    0    0  501    0 -0.00000000000E+00 -0.00000000000E+00 -0.10319302719E+03  0.10319302719E+03  0.00000000000E+00 0. -1.
    9000006    2    1    2  501    0  0.00000000000E+00  0.00000000000E+00  0.89680697281E+03  0.11031930272E+04  0.64247343039E+03 0.  0.
         13    1    3    3    0    0 -0.25612279471E+03 -0.15638897310E+03  0.64520948217E+03  0.71158391829E+03  0.00000000000E+00 0. -1.
          2    1    3    3  501    0  0.25612279471E+03  0.15638897310E+03  0.25159749064E+03  0.39160910890E+03  0.00000000000E+00 0. -1.
<mgrwt>
<rscale>  0 0.64247343E+03</rscale>
<asrwt>0</asrwt>
<pdfrwt beam="1">0</pdfrwt>
<pdfrwt beam="2">  1        2 0.37524816E+00 0.64247343E+03</pdfrwt>
<totfact> 0.49242729E+00</totfact>
</mgrwt>
</event>
<event>
 5    1  0.2361924E-004  0.6476036E+03  0.7818608E-02  0.9811286E-01
         13   -1    0    0    0    0  0.00000000000E+00  0.00000000000E+00  0.10000000000E+04  0.10000000000E+04  0.00000000000E+00 0. -1.
          2   -1    0    0  501    0 -0.00000000000E+00 -0.00000000000E+00 -0.10484760367E+03  0.10484760367E+03  0.00000000000E+00 0. -1.
    9000006    2    1    2  501    0  0.00000000000E+00  0.00000000000E+00  0.89515239633E+03  0.11048476037E+04  0.64760359379E+03 0.  0.
         13    1    3    3    0    0 -0.21331039057E+03 -0.24005252983E+03  0.37679928431E+03  0.49508003440E+03  0.00000000000E+00 0. -1.
          2    1    3    3  501    0  0.21331039057E+03  0.24005252983E+03  0.51835311201E+03  0.60976756927E+03  0.00000000000E+00 0. -1.
<mgrwt>
<rscale>  0 0.64760359E+03</rscale>
<asrwt>0</asrwt>
<pdfrwt beam="1">0</pdfrwt>
<pdfrwt beam="2">  1        2 0.38126482E+00 0.64760359E+03</pdfrwt>
<totfact> 0.46773538E+00</totfact>
</mgrwt>
</event>
<event>
 5    1  0.2361924E-004  0.6553872E+03  0.7818608E-02  0.9796723E-01
         13   -1    0    0    0    0  0.00000000000E+00  0.00000000000E+00  0.10000000000E+04  0.10000000000E+04  0.00000000000E+00 0. -1.
          2   -1    0    0  501    0 -0.00000000000E+00 -0.00000000000E+00 -0.10738308974E+03  0.10738308974E+03  0.00000000000E+00 0. -1.
    9000006    2    1    2  501    0  0.00000000000E+00  0.00000000000E+00  0.89261691026E+03  0.11073830897E+04  0.65538718249E+03 0.  0.
         13    1    3    3    0    0 -0.17250469653E+03  0.13438392298E+03  0.85869056944E+03  0.88609615908E+03  0.00000000000E+00 0. -1.
          4    1    3    3  501    0  0.17250469653E+03 -0.13438392298E+03  0.33926340816E+02  0.22128693066E+03  0.00000000000E+00 0. -1.
<mgrwt>
<rscale>  0 0.65538718E+03</rscale>
<asrwt>0</asrwt>
<pdfrwt beam="1">0</pdfrwt>
<pdfrwt beam="2">  1        2 0.39048479E+00 0.65538718E+03</pdfrwt>
<totfact> 0.43207401E+00</totfact>
</mgrwt>
</event>
<event>
 5    1  0.2361924E-004  0.6129650E+03  0.7818608E-02  0.9878867E-01
         13   -1    0    0    0    0  0.00000000000E+00  0.00000000000E+00  0.10000000000E+04  0.10000000000E+04  0.00000000000E+00 0. -1.
          2   -1    0    0  501    0 -0.00000000000E+00 -0.00000000000E+00 -0.93931523054E+02  0.93931523054E+02  0.00000000000E+00 0. -1.
    9000006    2    1    2  501    0  0.00000000000E+00  0.00000000000E+00  0.90606847695E+03  0.10939315231E+04  0.61296500081E+03 0.  0.
         13    1    3    3    0    0  0.14318255646E+03  0.25160942567E+03  0.63259380665E+03  0.69568920630E+03  0.00000000000E+00 0. -1.
          4    1    3    3  501    0 -0.14318255646E+03 -0.25160942567E+03  0.27347467030E+03  0.39824231675E+03  0.00000000000E+00 0. -1.
<mgrwt>
<rscale>  0 0.61296500E+03</rscale>
<asrwt>0</asrwt>
<pdfrwt beam="1">0</pdfrwt>
<pdfrwt beam="2">  1        2 0.34156990E+00 0.61296500E+03</pdfrwt>
<totfact> 0.65424184E+00</totfact>
</mgrwt>
</event>
<event>
 5    1  0.2361924E-004  0.6364872E+03  0.7818608E-02  0.9832471E-01
         13   -1    0    0    0    0  0.00000000000E+00  0.00000000000E+00  0.10000000000E+04  0.10000000000E+04  0.00000000000E+00 0. -1.
          2   -1    0    0  501    0 -0.00000000000E+00 -0.00000000000E+00 -0.10127897889E+03  0.10127897889E+03  0.00000000000E+00 0. -1.
    9000006    2    1    2  501    0  0.00000000000E+00  0.00000000000E+00  0.89872102111E+03  0.11012789789E+04  0.63648716841E+03 0.  0.
         13    1    3    3    0    0 -0.19101207626E+03 -0.14846590765E+03  0.91608523867E+02  0.25868873315E+03  0.00000000000E+00 0. -1.
          4    1    3    3  501    0  0.19101207626E+03  0.14846590765E+03  0.80711249724E+03  0.84259024574E+03  0.00000000000E+00 0. -1.
<mgrwt>
<rscale>  0 0.63648717E+03</rscale>
<asrwt>0</asrwt>
<pdfrwt beam="1">0</pdfrwt>
<pdfrwt beam="2">  1        2 0.36828797E+00 0.63648717E+03</pdfrwt>
<totfact> 0.52247601E+00</totfact>
</mgrwt>
</event>
<event>
 5    1  0.2361924E-004  0.6582511E+03  0.7818608E-02  0.9791419E-01
         13   -1    0    0    0    0  0.00000000000E+00  0.00000000000E+00  0.10000000000E+04  0.10000000000E+04  0.00000000000E+00 0. -1.
          2   -1    0    0  501    0 -0.00000000000E+00 -0.00000000000E+00 -0.10832363726E+03  0.10832363726E+03  0.00000000000E+00 0. -1.
    9000006    2    1    2  501    0  0.00000000000E+00  0.00000000000E+00  0.89167636274E+03  0.11083236373E+04  0.65825112915E+03 0.  0.
         13    1    3    3    0    0  0.45359522203E+01  0.18182921127E+03 -0.16013831161E+02  0.18258937461E+03  0.00000000000E+00 0. -1.
          2    1    3    3  501    0 -0.45359522203E+01 -0.18182921127E+03  0.90769019390E+03  0.92573426265E+03  0.00000000000E+00 0. -1.
<mgrwt>
<rscale>  0 0.65825113E+03</rscale>
<asrwt>0</asrwt>
<pdfrwt beam="1">0</pdfrwt>
<pdfrwt beam="2">  1        2 0.39390497E+00 0.65825113E+03</pdfrwt>
<totfact> 0.41948382E+00</totfact>
</mgrwt>
</event>
<event>
 5    1  0.2361924E-004  0.6499405E+03  0.7818608E-02  0.9806891E-01
         13   -1    0    0    0    0  0.00000000000E+00  0.00000000000E+00  0.10000000000E+04  0.10000000000E+04  0.00000000000E+00 0. -1.
          2   -1    0    0  501    0 -0.00000000000E+00 -0.00000000000E+00 -0.10560566723E+03  0.10560566723E+03  0.00000000000E+00 0. -1.
    9000006    2    1    2  501    0  0.00000000000E+00  0.00000000000E+00  0.89439433277E+03  0.11056056672E+04  0.64994051184E+03 0.  0.
         13    1    3    3    0    0 -0.36219776323E+02  0.12446701661E+01 -0.10215729766E+03  0.10839527142E+03  0.00000000000E+00 0. -1.
          2    1    3    3  501    0  0.36219776323E+02 -0.12446701661E+01  0.99655163043E+03  0.99721039581E+03  0.00000000000E+00 0. -1.
<mgrwt>
<rscale>  0 0.64994051E+03</rscale>
<asrwt>0</asrwt>
<pdfrwt beam="1">0</pdfrwt>
<pdfrwt beam="2">  1        2 0.38402142E+00 0.64994051E+03</pdfrwt>
<totfact> 0.45680346E+00</totfact>
</mgrwt>
</event>
<event>
 5    1  0.2361924E-004  0.6523091E+03  0.7818608E-02  0.9802456E-01
         13   -1    0    0    0    0  0.00000000000E+00  0.00000000000E+00  0.10000000000E+04  0.10000000000E+04  0.00000000000E+00 0. -1.
          2   -1    0    0  501    0 -0.00000000000E+00 -0.00000000000E+00 -0.10637680121E+03  0.10637680121E+03  0.00000000000E+00 0. -1.
    9000006    2    1    2  501    0  0.00000000000E+00  0.00000000000E+00  0.89362319879E+03  0.11063768012E+04  0.65230913289E+03 0.  0.
         13    1    3    3    0    0 -0.11901670369E+03 -0.29954991399E+03  0.36231835054E+03  0.48494300064E+03  0.00000000000E+00 0. -1.
          2    1    3    3  501    0  0.11901670369E+03  0.29954991399E+03  0.53130484824E+03  0.62143380057E+03  0.00000000000E+00 0. -1.
<mgrwt>
<rscale>  0 0.65230913E+03</rscale>
<asrwt>0</asrwt>
<pdfrwt beam="1">0</pdfrwt>
<pdfrwt beam="2">  1        2 0.38682555E+00 0.65230913E+03</pdfrwt>
<totfact> 0.44592141E+00</totfact>
</mgrwt>
</event>
<event>
 5    1  0.2361924E-004  0.6344706E+03  0.7818608E-02  0.9836363E-01
         13   -1    0    0    0    0  0.00000000000E+00  0.00000000000E+00  0.10000000000E+04  0.10000000000E+04  0.00000000000E+00 0. -1.
          2   -1    0    0  501    0 -0.00000000000E+00 -0.00000000000E+00 -0.10063822305E+03  0.10063822305E+03  0.00000000000E+00 0. -1.
    9000006    2    1    2  501    0  0.00000000000E+00  0.00000000000E+00  0.89936177695E+03  0.11006382230E+04  0.63447056054E+03 0.  0.
         13    1    3    3    0    0  0.31067864984E+03  0.44912933555E+02  0.37018860461E+03  0.48536377909E+03  0.00000000000E+00 0. -1.
          2    1    3    3  501    0 -0.31067864984E+03 -0.44912933555E+02  0.52917317234E+03  0.61527444396E+03  0.00000000000E+00 0. -1.
<mgrwt>
<rscale>  0 0.63447056E+03</rscale>
<asrwt>0</asrwt>
<pdfrwt beam="1">0</pdfrwt>
<pdfrwt beam="2">  1        2 0.36595795E+00 0.63447056E+03</pdfrwt>
<totfact> 0.53290482E+00</totfact>
</mgrwt>
</event>
<event>
 5    1  0.2361924E-004  0.6685496E+03  0.7818608E-02  0.9772582E-01
         13   -1    0    0    0    0  0.00000000000E+00  0.00000000000E+00  0.10000000000E+04  0.10000000000E+04  0.00000000000E+00 0. -1.
          2   -1    0    0  501    0 -0.00000000000E+00 -0.00000000000E+00 -0.11173963847E+03  0.11173963847E+03  0.00000000000E+00 0. -1.
    9000006    2    1    2  501    0  0.00000000000E+00  0.00000000000E+00  0.88826036153E+03  0.11117396385E+04  0.66854958971E+03 0.  0.
         13    1    3    3    0    0  0.62987107701E+02  0.25036035786E+03  0.79724747762E+03  0.83800431090E+03  0.00000000000E+00 0. -1.
          4    1    3    3  501    0 -0.62987107701E+02 -0.25036035786E+03  0.91012883909E+02  0.27373532757E+03  0.00000000000E+00 0. -1.
<mgrwt>
<rscale>  0 0.66854959E+03</rscale>
<asrwt>0</asrwt>
<pdfrwt beam="1">0</pdfrwt>
<pdfrwt beam="2">  1        2 0.40632681E+00 0.66854959E+03</pdfrwt>
<totfact> 0.37648860E+00</totfact>
</mgrwt>
</event>
<event>
 5    1  0.2361924E-004  0.6510579E+03  0.7818608E-02  0.9804796E-01
         13   -1    0    0    0    0  0.00000000000E+00  0.00000000000E+00  0.10000000000E+04  0.10000000000E+04  0.00000000000E+00 0. -1.
          2   -1    0    0  501    0 -0.00000000000E+00 -0.00000000000E+00 -0.10596908588E+03  0.10596908588E+03  0.00000000000E+00 0. -1.
    9000006    2    1    2  501    0  0.00000000000E+00  0.00000000000E+00  0.89403091412E+03  0.11059690859E+04  0.65105786496E+03 0.  0.
         13    1    3    3    0    0 -0.90802630691E+02 -0.58681514803E+02 -0.74580500288E+02  0.13134263947E+03  0.00000000000E+00 0. -1.
          2    1    3    3  501    0  0.90802630691E+02  0.58681514803E+02  0.96861141441E+03  0.97462644641E+03  0.00000000000E+00 0. -1.
<mgrwt>
<rscale>  0 0.65105786E+03</rscale>
<asrwt>0</asrwt>
<pdfrwt beam="1">0</pdfrwt>
<pdfrwt beam="2">  1        2 0.38534294E+00 0.65105786E+03</pdfrwt>
<totfact> 0.45164535E+00</totfact>
</mgrwt>
</event>
<event>
 5    1  0.2361924E-004  0.6232687E+03  0.7818608E-02  0.9858273E-01
         13   -1    0    0    0    0  0.00000000000E+00  0.00000000000E+00  0.10000000000E+04  0.10000000000E+04  0.00000000000E+00 0. -1.
          2   -1    0    0  501    0 -0.00000000000E+00 -0.00000000000E+00 -0.97115963168E+02  0.97115963168E+02  0.00000000000E+00 0. -1.
    9000006    2    1    2  501    0  0.00000000000E+00  0.00000000000E+00  0.90288403683E+03  0.10971159632E+04  0.62326868417E+03 0.  0.
         13    1    3    3    0    0 -0.18302393118E+03  0.15362071924E+02  0.89460239060E+03  0.91326184083E+03  0.00000000000E+00 0. -1.
          4    1    3    3  501    0  0.18302393118E+03 -0.15362071924E+02  0.82816462311E+01  0.18385412234E+03  0.00000000000E+00 0. -1.
<mgrwt>
<rscale>  0 0.62326868E+03</rscale>
<asrwt>0</asrwt>
<pdfrwt beam="1">0</pdfrwt>
<pdfrwt beam="2">  1        2 0.35314970E+00 0.62326868E+03</pdfrwt>
<totfact> 0.59374343E+00</totfact>
</mgrwt>
</event>
<event>
 5    1  0.2361924E-004  0.6194610E+03  0.7818608E-02  0.9865833E-01
         13   -1    0    0    0    0  0.00000000000E+00  0.00000000000E+00  0.10000000000E+04  0.10000000000E+04  0.00000000000E+00 0. -1.
          2   -1    0    0  501    0 -0.00000000000E+00 -0.00000000000E+00 -0.95932990413E+02  0.95932990413E+02  0.00000000000E+00 0. -1.
    9000006    2    1    2  501    0  0.00000000000E+00  0.00000000000E+00  0.90406700959E+03  0.10959329904E+04  0.61946102513E+03 0.  0.
         13    1    3    3    0    0 -0.16468432241E+03 -0.12165767897E+03  0.86319555831E+03  0.88714603577E+03  0.00000000000E+00 0. -1.
          4    1    3    3  501    0  0.16468432241E+03  0.12165767897E+03  0.40871451277E+02  0.20878695464E+03  0.00000000000E+00 0. -1.
<mgrwt>
<rscale>  0 0.61946103E+03</rscale>
<asrwt>0</asrwt>
<pdfrwt beam="1">0</pdfrwt>
<pdfrwt beam="2">  1        2 0.34884797E+00 0.61946103E+03</pdfrwt>
<totfact> 0.61558074E+00</totfact>
</mgrwt>
</event>
<event>
 5    1  0.2361924E-004  0.6386299E+03  0.7818608E-02  0.9828351E-01
         13   -1    0    0    0    0  0.00000000000E+00  0.00000000000E+00  0.10000000000E+04  0.10000000000E+04  0.00000000000E+00 0. -1.
          2   -1    0    0  501    0 -0.00000000000E+00 -0.00000000000E+00 -0.10196203007E+03  0.10196203007E+03  0.00000000000E+00 0. -1.
    9000006    2    1    2  501    0  0.00000000000E+00  0.00000000000E+00  0.89803796993E+03  0.11019620301E+04  0.63862987737E+03 0.  0.
         13    1    3    3    0    0  0.15067886616E+03  0.23446474872E+03  0.18012615763E+03  0.33184826618E+03  0.00000000000E+00 0. -1.
          2    1    3    3  501    0 -0.15067886616E+03 -0.23446474872E+03  0.71791181230E+03  0.77011376389E+03  0.00000000000E+00 0. -1.
<mgrwt>
<rscale>  0 0.63862988E+03</rscale>
<asrwt>0</asrwt>
<pdfrwt beam="1">0</pdfrwt>
<pdfrwt beam="2">  1        2 0.37077180E+00 0.63862988E+03</pdfrwt>
<totfact> 0.51156531E+00</totfact>
</mgrwt>
</event>
<event>
 5    1  0.2361924E-004  0.6475689E+03  0.7818608E-02  0.9811352E-01
         13   -1    0    0    0    0  0.00000000000E+00  0.00000000000E+00  0.10000000000E+04  0.10000000000E+04  0.00000000000E+00 0. -1.
          2   -1    0    0  501    0 -0.00000000000E+00 -0.00000000000E+00 -0.10483636556E+03  0.10483636556E+03  0.00000000000E+00 0. -1.
    9000006    2    1    2  501    0  0.00000000000E+00  0.00000000000E+00  0.89516363444E+03  0.11048363656E+04  0.64756888609E+03 0.  0.
         13    1    3    3    0    0 -0.57890624662E+02  0.23418570875E+03  0.79112770311E+02  0.25387615294E+03  0.00000000000E+00 0. -1.
          2    1    3    3  501    0  0.57890624662E+02 -0.23418570875E+03  0.81605086413E+03  0.85096021262E+03  0.00000000000E+00 0. -1.
<mgrwt>
<rscale>  0 0.64756889E+03</rscale>
<asrwt>0</asrwt>
<pdfrwt beam="1">0</pdfrwt>
<pdfrwt beam="2">  1        2 0.38122395E+00 0.64756889E+03</pdfrwt>
<totfact> 0.46789922E+00</totfact>
</mgrwt>
</event>
<event>
 5    1  0.2361924E-004  0.6524736E+03  0.7818608E-02  0.9802149E-01
         13   -1    0    0    0    0  0.00000000000E+00  0.00000000000E+00  0.10000000000E+04  0.10000000000E+04  0.00000000000E+00 0. -1.
          2   -1    0    0  501    0 -0.00000000000E+00 -0.00000000000E+00 -0.10643046373E+03  0.10643046373E+03  0.00000000000E+00 0. -1.
    9000006    2    1    2  501    0  0.00000000000E+00  0.00000000000E+00  0.89356953627E+03  0.11064304637E+04  0.65247364307E+03 0.  0.
         13    1    3    3    0    0  0.26207355930E+03 -0.93291355272E+02  0.73578229288E+03  0.78661388875E+03  0.00000000000E+00 0. -1.
          4    1    3    3  501    0 -0.26207355930E+03  0.93291355272E+02  0.15778724339E+03  0.31981657498E+03  0.00000000000E+00 0. -1.
<mgrwt>
<rscale>  0 0.65247364E+03</rscale>
<asrwt>0</asrwt>
<pdfrwt beam="1">0</pdfrwt>
<pdfrwt beam="2">  1        2 0.38702068E+00 0.65247364E+03</pdfrwt>
<totfact> 0.44517295E+00</totfact>
</mgrwt>
</event>
<event>
 5    1  0.2361924E-004  0.6644431E+03  0.7818608E-02  0.9780049E-01
         13   -1    0    0    0    0  0.00000000000E+00  0.00000000000E+00  0.10000000000E+04  0.10000000000E+04  0.00000000000E+00 0. -1.
          2   -1    0    0  501    0 -0.00000000000E+00 -0.00000000000E+00 -0.11037117038E+03  0.11037117038E+03  0.00000000000E+00 0. -1.
    9000006    2    1    2  501    0  0.00000000000E+00  0.00000000000E+00  0.88962882962E+03  0.11103711704E+04  0.66444313642E+03 0.  0.
         13    1    3    3    0    0  0.30248490759E+03  0.47617430087E+02  0.22946131321E+03  0.38264478727E+03  0.00000000000E+00 0. -1.
          2    1    3    3  501    0 -0.30248490759E+03 -0.47617430087E+02  0.66016751640E+03  0.72772638311E+03  0.00000000000E+00 0. -1.
<mgrwt>
<rscale>  0 0.66444314E+03</rscale>
<asrwt>0</asrwt>
<pdfrwt beam="1">0</pdfrwt>
<pdfrwt beam="2">  1        2 0.40135056E+00 0.66444314E+03</pdfrwt>
<totfact> 0.39321320E+00</totfact>
</mgrwt>
</event>
<event>
 5    1  0.2361924E-004  0.6440856E+03  0.7818608E-02  0.9817941E-01
         13   -1    0    0    0    0  0.00000000000E+00  0.00000000000E+00  0.10000000000E+04  0.10000000000E+04  0.00000000000E+00 0. -1.
          2   -1    0    0  501    0 -0.00000000000E+00 -0.00000000000E+00 -0.10371158103E+03  0.10371158103E+03  0.00000000000E+00 0. -1.
    9000006    2    1    2  501    0  0.00000000000E+00  0.00000000000E+00  0.89628841897E+03  0.11037115810E+04  0.64408564968E+03 0.  0.
         13    1    3    3    0    0 -0.15790469916E+03  0.12064163421E+03  0.88241260881E+03  0.90451108899E+03  0.00000000000E+00 0. -1.
          2    1    3    3  501    0  0.15790469916E+03 -0.12064163421E+03  0.13875810161E+02  0.19920049204E+03  0.00000000000E+00 0. -1.
<mgrwt>
<rscale>  0 0.64408565E+03</rscale>
<asrwt>0</asrwt>
<pdfrwt beam="1">0</pdfrwt>
<pdfrwt beam="2">  1        2 0.37713382E+00 0.64408565E+03</pdfrwt>
<totfact> 0.48456373E+00</totfact>
</mgrwt>
</event>
<event>
 5    1  0.2361924E-004  0.6595922E+03  0.7818608E-02  0.9788945E-01
         13   -1    0    0    0    0  0.00000000000E+00  0.00000000000E+00  0.10000000000E+04  0.10000000000E+04  0.00000000000E+00 0. -1.
          2   -1    0    0  501    0 -0.00000000000E+00 -0.00000000000E+00 -0.10876548179E+03  0.10876548179E+03  0.00000000000E+00 0. -1.
    9000006    2    1    2  501    0  0.00000000000E+00  0.00000000000E+00  0.89123451821E+03  0.11087654818E+04  0.65959224309E+03 0.  0.
         13    1    3    3    0    0  0.13602652951E+03  0.18434515119E+02  0.94969576985E+03  0.95956505947E+03  0.00000000000E+00 0. -1.
          4    1    3    3  501    0 -0.13602652951E+03 -0.18434515119E+02 -0.58461251637E+02  0.14920042232E+03  0.00000000000E+00 0. -1.
<mgrwt>
<rscale>  0 0.65959224E+03</rscale>
<asrwt>0</asrwt>
<pdfrwt beam="1">0</pdfrwt>
<pdfrwt beam="2">  1        2 0.39551168E+00 0.65959224E+03</pdfrwt>
<totfact> 0.41368481E+00</totfact>
</mgrwt>
</event>
<event>
 5    1  0.2361924E-004  0.6740876E+03  0.7818608E-02  0.9762602E-01
         13   -1    0    0    0    0  0.00000000000E+00  0.00000000000E+00  0.10000000000E+04  0.10000000000E+04  0.00000000000E+00 0. -1.
          2   -1    0    0  501    0 -0.00000000000E+00 -0.00000000000E+00 -0.11359852075E+03  0.11359852075E+03  0.00000000000E+00 0. -1.
    9000006    2    1    2  501    0  0.00000000000E+00  0.00000000000E+00  0.88640147925E+03  0.11135985207E+04  0.67408759297E+03 0.  0.
         13    1    3    3    0    0  0.24981797479E+03  0.13444774755E+03  0.74381775996E+03  0.79608421500E+03  0.00000000000E+00 0. -1.
          2    1    3    3  501    0 -0.24981797479E+03 -0.13444774755E+03  0.14258371929E+03  0.31751430575E+03  0.00000000000E+00 0. -1.
<mgrwt>
<rscale>  0 0.67408759E+03</rscale>
<asrwt>0</asrwt>
<pdfrwt beam="1">0</pdfrwt>
<pdfrwt beam="2">  1        2 0.41308640E+00 0.67408759E+03</pdfrwt>
<totfact> 0.35478981E+00</totfact>
</mgrwt>
</event>
<event>
 5    1  0.2361924E-004  0.6579270E+03  0.7818608E-02  0.9792017E-01
         13   -1    0    0    0    0  0.00000000000E+00  0.00000000000E+00  0.10000000000E+04  0.10000000000E+04  0.00000000000E+00 0. -1.
          2   -1    0    0  501    0 -0.00000000000E+00 -0.00000000000E+00 -0.10821697834E+03  0.10821697834E+03  0.00000000000E+00 0. -1.
    9000006    2    1    2  501    0  0.00000000000E+00  0.00000000000E+00  0.89178302166E+03  0.11082169783E+04  0.65792698180E+03 0.  0.
         13    1    3    3    0    0 -0.27607077150E+03 -0.18632064563E+02  0.14620543082E+03  0.31295087907E+03  0.00000000000E+00 0. -1.
          4    1    3    3  501    0  0.27607077150E+03  0.18632064563E+02  0.74557759083E+03  0.79526609928E+03  0.00000000000E+00 0. -1.
<mgrwt>
<rscale>  0 0.65792698E+03</rscale>
<asrwt>0</asrwt>
<pdfrwt beam="1">0</pdfrwt>
<pdfrwt beam="2">  1        2 0.39351711E+00 0.65792698E+03</pdfrwt>
<totfact> 0.42089471E+00</totfact>
</mgrwt>
</event>
<event>
 5    1  0.2361924E-004  0.6495885E+03  0.7818608E-02  0.9807552E-01
         13   -1    0    0    0    0  0.00000000000E+00  0.00000000000E+00  0.10000000000E+04  0.10000000000E+04  0.00000000000E+00 0. -1.
          2   -1    0    0  501    0 -0.00000000000E+00 -0.00000000000E+00 -0.10549129862E+03  0.10549129862E+03  0.00000000000E+00 0. -1.
    9000006    2    1    2  501    0  0.00000000000E+00  0.00000000000E+00  0.89450870138E+03  0.11054912986E+04  0.64958848088E+03 0.  0.
         13    1    3    3    0    0 -0.22913755896E+03  0.31043329770E+02  0.59088638595E+02  0.23866121692E+03  0.00000000000E+00 0. -1.
          2    1    3    3  501    0  0.22913755896E+03 -0.31043329770E+02  0.83542006278E+03  0.86683008171E+03  0.00000000000E+00 0. -1.
<mgrwt>
<rscale>  0 0.64958848E+03</rscale>
<asrwt>0</asrwt>
<pdfrwt beam="1">0</pdfrwt>
<pdfrwt beam="2">  1        2 0.38360553E+00 0.64958848E+03</pdfrwt>
<totfact> 0.45843775E+00</totfact>
</mgrwt>
</event>
<event>
 5    1  0.2361924E-004  0.6619819E+03  0.7818608E-02  0.9784552E-01
         13   -1    0    0    0    0  0.00000000000E+00  0.00000000000E+00  0.10000000000E+04  0.10000000000E+04  0.00000000000E+00 0. -1.
          2   -1    0    0  501    0 -0.00000000000E+00 -0.00000000000E+00 -0.10955500975E+03  0.10955500975E+03  0.00000000000E+00 0. -1.
    9000006    2    1    2  501    0  0.00000000000E+00  0.00000000000E+00  0.89044499025E+03  0.11095550097E+04  0.66198190232E+03 0.  0.
         13    1    3    3    0    0 -0.12953082129E+03  0.28212647885E+03  0.63765743134E+03  0.70921124038E+03  0.00000000000E+00 0. -1.
          4    1    3    3  501    0  0.12953082129E+03 -0.28212647885E+03  0.25278755891E+03  0.40034376937E+03  0.00000000000E+00 0. -1.
<mgrwt>
<rscale>  0 0.66198190E+03</rscale>
<asrwt>0</asrwt>
<pdfrwt beam="1">0</pdfrwt>
<pdfrwt beam="2">  1        2 0.39838269E+00 0.66198190E+03</pdfrwt>
<totfact> 0.40350206E+00</totfact>
</mgrwt>
</event>
<event>
 5    1  0.2361924E-004  0.6480730E+03  0.7818608E-02  0.9810402E-01
         13   -1    0    0    0    0  0.00000000000E+00  0.00000000000E+00  0.10000000000E+04  0.10000000000E+04  0.00000000000E+00 0. -1.
          2   -1    0    0  501    0 -0.00000000000E+00 -0.00000000000E+00 -0.10499964231E+03  0.10499964231E+03  0.00000000000E+00 0. -1.
    9000006    2    1    2  501    0  0.00000000000E+00  0.00000000000E+00  0.89500035769E+03  0.11049996423E+04  0.64807296598E+03 0.  0.
         13    1    3    3    0    0  0.16090344765E+03  0.12203975319E+03  0.15424391909E+02  0.20253773153E+03  0.00000000000E+00 0. -1.
          2    1    3    3  501    0 -0.16090344765E+03 -0.12203975319E+03  0.87957596578E+03  0.90246191078E+03  0.00000000000E+00 0. -1.
<mgrwt>
<rscale>  0 0.64807297E+03</rscale>
<asrwt>0</asrwt>
<pdfrwt beam="1">0</pdfrwt>
<pdfrwt beam="2">  1        2 0.38181769E+00 0.64807297E+03</pdfrwt>
<totfact> 0.46552399E+00</totfact>
</mgrwt>
</event>
<event>
 5    1  0.2361924E-004  0.6502338E+03  0.7818608E-02  0.9806341E-01
         13   -1    0    0    0    0  0.00000000000E+00  0.00000000000E+00  0.10000000000E+04  0.10000000000E+04  0.00000000000E+00 0. -1.
          2   -1    0    0  501    0 -0.00000000000E+00 -0.00000000000E+00 -0.10570099619E+03  0.10570099619E+03  0.00000000000E+00 0. -1.
    9000006    2    1    2  501    0  0.00000000000E+00  0.00000000000E+00  0.89429900381E+03  0.11057009962E+04  0.65023379237E+03 0.  0.
         13    1    3    3    0    0 -0.24260596282E+03 -0.19150108726E+03  0.61864119457E+03  0.69155422581E+03  0.00000000000E+00 0. -1.
          2    1    3    3  501    0  0.24260596282E+03  0.19150108726E+03  0.27565780924E+03  0.41414677038E+03  0.00000000000E+00 0. -1.
<mgrwt>
<rscale>  0 0.65023379E+03</rscale>
<asrwt>0</asrwt>
<pdfrwt beam="1">0</pdfrwt>
<pdfrwt beam="2">  1        2 0.38436807E+00 0.65023379E+03</pdfrwt>
<totfact> 0.45544528E+00</totfact>
</mgrwt>
</event>
<event>
 5    1  0.2361924E-004  0.6490428E+03  0.7818608E-02  0.9808577E-01
         13   -1    0    0    0    0  0.00000000000E+00  0.00000000000E+00  0.10000000000E+04  0.10000000000E+04  0.00000000000E+00 0. -1.
          2   -1    0    0  501    0 -0.00000000000E+00 -0.00000000000E+00 -0.10531412521E+03  0.10531412521E+03  0.00000000000E+00 0. -1.
    9000006    2    1    2  501    0  0.00000000000E+00  0.00000000000E+00  0.89468587479E+03  0.11053141252E+04  0.64904275732E+03 0.  0.
         13    1    3    3    0    0  0.14552866451E+03  0.80280658946E+02 -0.27332224025E+02  0.16843582418E+03  0.00000000000E+00 0. -1.
          4    1    3    3  501    0 -0.14552866451E+03 -0.80280658946E+02  0.92201809882E+03  0.93687830103E+03  0.00000000000E+00 0. -1.
<mgrwt>
<rscale>  0 0.64904276E+03</rscale>
<asrwt>0</asrwt>
<pdfrwt beam="1">0</pdfrwt>
<pdfrwt beam="2">  1        2 0.38296126E+00 0.64904276E+03</pdfrwt>
<totfact> 0.46097998E+00</totfact>
</mgrwt>
</event>
<event>
 5    1  0.2361924E-004  0.6496083E+03  0.7818608E-02  0.9807515E-01
         13   -1    0    0    0    0  0.00000000000E+00  0.00000000000E+00  0.10000000000E+04  0.10000000000E+04  0.00000000000E+00 0. -1.
          2   -1    0    0  501    0 -0.00000000000E+00 -0.00000000000E+00 -0.10549771975E+03  0.10549771975E+03  0.00000000000E+00 0. -1.
    9000006    2    1    2  501    0  0.00000000000E+00  0.00000000000E+00  0.89450228025E+03  0.11054977198E+04  0.64960825042E+03 0.  0.
         13    1    3    3    0    0 -0.22105507630E+03 -0.27596183521E+02  0.44998543773E+02  0.22727024672E+03  0.00000000000E+00 0. -1.
          2    1    3    3  501    0  0.22105507630E+03  0.27596183521E+02  0.84950373647E+03  0.87822747303E+03  0.00000000000E+00 0. -1.
<mgrwt>
<rscale>  0 0.64960825E+03</rscale>
<asrwt>0</asrwt>
<pdfrwt beam="1">0</pdfrwt>
<pdfrwt beam="2">  1        2 0.38362888E+00 0.64960825E+03</pdfrwt>
<totfact> 0.45834585E+00</totfact>
</mgrwt>
</event>
<event>
 5    1  0.2361924E-004  0.6599991E+03  0.7818608E-02  0.9788195E-01
         13   -1    0    0    0    0  0.00000000000E+00  0.00000000000E+00  0.10000000000E+04  0.10000000000E+04  0.00000000000E+00 0. -1.
          2   -1    0    0  501    0 -0.00000000000E+00 -0.00000000000E+00 -0.10889971177E+03  0.10889971177E+03  0.00000000000E+00 0. -1.
    9000006    2    1    2  501    0  0.00000000000E+00  0.00000000000E+00  0.89110028823E+03  0.11088997118E+04  0.65999912657E+03 0.  0.
         13    1    3    3    0    0  0.17589512645E+03  0.12971182787E+03  0.30122402455E+02  0.22061643848E+03  0.00000000000E+00 0. -1.
          2    1    3    3  501    0 -0.17589512645E+03 -0.12971182787E+03  0.86097788578E+03  0.88828327328E+03  0.00000000000E+00 0. -1.
<mgrwt>
<rscale>  0 0.65999913E+03</rscale>
<asrwt>0</asrwt>
<pdfrwt beam="1">0</pdfrwt>
<pdfrwt beam="2">  1        2 0.39599979E+00 0.65999913E+03</pdfrwt>
<totfact> 0.41193746E+00</totfact>
</mgrwt>
</event>
<event>
 5    1  0.2361924E-004  0.6187015E+03  0.7818608E-02  0.9867348E-01
         13   -1    0    0    0    0  0.00000000000E+00  0.00000000000E+00  0.10000000000E+04  0.10000000000E+04  0.00000000000E+00 0. -1.
          2   -1    0    0  501    0 -0.00000000000E+00 -0.00000000000E+00 -0.95697878762E+02  0.95697878762E+02  0.00000000000E+00 0. -1.
    9000006    2    1    2  501    0  0.00000000000E+00  0.00000000000E+00  0.90430212124E+03  0.10956978788E+04  0.61870147490E+03 0.  0.
         13    1    3    3    0    0  0.18177577207E+03  0.45477909727E+02  0.16237743959E+02  0.18808066331E+03  0.00000000000E+00 0. -1.
          4    1    3    3  501    0 -0.18177577207E+03 -0.45477909727E+02  0.88806437728E+03  0.90761721545E+03  0.00000000000E+00 0. -1.
<mgrwt>
<rscale>  0 0.61870147E+03</rscale>
<asrwt>0</asrwt>
<pdfrwt beam="1">0</pdfrwt>
<pdfrwt beam="2">  1        2 0.34799302E+00 0.61870147E+03</pdfrwt>
<totfact> 0.62000896E+00</totfact>
</mgrwt>
</event>
<event>
 5    1  0.2361924E-004  0.6514769E+03  0.7818608E-02  0.9804012E-01
         13   -1    0    0    0    0  0.00000000000E+00  0.00000000000E+00  0.10000000000E+04  0.10000000000E+04  0.00000000000E+00 0. -1.
          2   -1    0    0  501    0 -0.00000000000E+00 -0.00000000000E+00 -0.10610553331E+03  0.10610553331E+03  0.00000000000E+00 0. -1.
    9000006    2    1    2  501    0  0.00000000000E+00  0.00000000000E+00  0.89389446669E+03  0.11061055333E+04  0.65147688620E+03 0.  0.
         13    1    3    3    0    0 -0.19706269246E+03 -0.22589605837E+03  0.23056181426E+03  0.37818181360E+03  0.00000000000E+00 0. -1.
          2    1    3    3  501    0  0.19706269246E+03  0.22589605837E+03  0.66333265242E+03  0.72792371971E+03  0.00000000000E+00 0. -1.
<mgrwt>
<rscale>  0 0.65147689E+03</rscale>
<asrwt>0</asrwt>
<pdfrwt beam="1">0</pdfrwt>
<pdfrwt beam="2">  1        2 0.38583912E+00 0.65147689E+03</pdfrwt>
<totfact> 0.44972238E+00</totfact>
</mgrwt>
</event>
<event>
 5    1  0.2361924E-004  0.6541427E+03  0.7818608E-02  0.9799037E-01
         13   -1    0    0    0    0  0.00000000000E+00  0.00000000000E+00  0.10000000000E+04  0.10000000000E+04  0.00000000000E+00 0. -1.
          2   -1    0    0  501    0 -0.00000000000E+00 -0.00000000000E+00 -0.10697566040E+03  0.10697566040E+03  0.00000000000E+00 0. -1.
    9000006    2    1    2  501    0  0.00000000000E+00  0.00000000000E+00  0.89302433960E+03  0.11069756604E+04  0.65414267679E+03 0.  0.
         13    1    3    3    0    0  0.15252629097E+03  0.28892941898E+03  0.42078201377E+03  0.53273068402E+03  0.00000000000E+00 0. -1.
          2    1    3    3  501    0 -0.15252629097E+03 -0.28892941898E+03  0.47224232583E+03  0.57424497638E+03  0.00000000000E+00 0. -1.
<mgrwt>
<rscale>  0 0.65414268E+03</rscale>
<asrwt>0</asrwt>
<pdfrwt beam="1">0</pdfrwt>
<pdfrwt beam="2">  1        2 0.38900322E+00 0.65414268E+03</pdfrwt>
<totfact> 0.43763303E+00</totfact>
</mgrwt>
</event>
<event>
 5    1  0.2361924E-004  0.6335868E+03  0.7818608E-02  0.9838074E-01
         13   -1    0    0    0    0  0.00000000000E+00  0.00000000000E+00  0.10000000000E+04  0.10000000000E+04  0.00000000000E+00 0. -1.
          2   -1    0    0  501    0 -0.00000000000E+00 -0.00000000000E+00 -0.10035807091E+03  0.10035807091E+03  0.00000000000E+00 0. -1.
    9000006    2    1    2  501    0  0.00000000000E+00  0.00000000000E+00  0.89964192909E+03  0.11003580709E+04  0.63358683987E+03 0.  0.
         13    1    3    3    0    0  0.14535686880E+03 -0.13139482833E+03  0.88213624782E+03  0.90363575623E+03  0.00000000000E+00 0. -1.
          2    1    3    3  501    0 -0.14535686880E+03  0.13139482833E+03  0.17505681267E+02  0.19672231468E+03  0.00000000000E+00 0. -1.
<mgrwt>
<rscale>  0 0.63358684E+03</rscale>
<asrwt>0</asrwt>
<pdfrwt beam="1">0</pdfrwt>
<pdfrwt beam="2">  1        2 0.36493921E+00 0.63358684E+03</pdfrwt>
<totfact> 0.53752435E+00</totfact>
</mgrwt>
</event>
<event>
 5    1  0.2361924E-004  0.6524338E+03  0.7818608E-02  0.9802223E-01
         13   -1    0    0    0    0  0.00000000000E+00  0.00000000000E+00  0.10000000000E+04  0.10000000000E+04  0.00000000000E+00 0. -1.
          2   -1    0    0  501    0 -0.00000000000E+00 -0.00000000000E+00 -0.10641746700E+03  0.10641746700E+03  0.00000000000E+00 0. -1.
    9000006    2    1    2  501    0  0.00000000000E+00  0.00000000000E+00  0.89358253300E+03  0.11064174670E+04  0.65243380354E+03 0.  0.
         13    1    3    3    0    0 -0.10963826109E+03  0.44995062919E+02  0.96220216289E+03  0.96947310754E+03  0.00000000000E+00 0. -1.
          4    1    3    3  501    0  0.10963826109E+03 -0.44995062919E+02 -0.68619629891E+02  0.13694435946E+03  0.00000000000E+00 0. -1.
<mgrwt>
<rscale>  0 0.65243380E+03</rscale>
<asrwt>0</asrwt>
<pdfrwt beam="1">0</pdfrwt>
<pdfrwt beam="2">  1        2 0.38697342E+00 0.65243380E+03</pdfrwt>
<totfact> 0.44535412E+00</totfact>
</mgrwt>
</event>
<event>
 5    1  0.2361924E-004  0.6008046E+03  0.7818608E-02  0.9903738E-01
         13   -1    0    0    0    0  0.00000000000E+00  0.00000000000E+00  0.10000000000E+04  0.10000000000E+04  0.00000000000E+00 0. -1.
          2   -1    0    0  501    0 -0.00000000000E+00 -0.00000000000E+00 -0.90241531436E+02  0.90241531436E+02  0.00000000000E+00 0. -1.
    9000006    2    1    2  501    0  0.00000000000E+00  0.00000000000E+00  0.90975846856E+03  0.10902415314E+04  0.60080456535E+03 0.  0.
         13    1    3    3    0    0 -0.48028062532E+02 -0.19946050100E+03  0.85306818097E+03  0.87739187803E+03  0.00000000000E+00 0. -1.
          2    1    3    3  501    0  0.48028062532E+02  0.19946050100E+03  0.56690287597E+02  0.21284965341E+03  0.00000000000E+00 0. -1.
<mgrwt>
<rscale>  0 0.60080457E+03</rscale>
<asrwt>0</asrwt>
<pdfrwt beam="1">0</pdfrwt>
<pdfrwt beam="2">  1        2 0.32815172E+00 0.60080457E+03</pdfrwt>
<totfact> 0.73157786E+00</totfact>
</mgrwt>
</event>
<event>
 5    1  0.2361924E-004  0.6387789E+03  0.7818608E-02  0.9828066E-01
         13   -1    0    0    0    0  0.00000000000E+00  0.00000000000E+00  0.10000000000E+04  0.10000000000E+04  0.00000000000E+00 0. -1.
          2   -1    0    0  501    0 -0.00000000000E+00 -0.00000000000E+00 -0.10200960643E+03  0.10200960643E+03  0.00000000000E+00 0. -1.
    9000006    2    1    2  501    0  0.00000000000E+00  0.00000000000E+00  0.89799039357E+03  0.11020096064E+04  0.63877885509E+03 0.  0.
         13    1    3    3    0    0  0.10021017147E+03  0.17899001490E+03  0.87133047396E+03  0.89515155072E+03  0.00000000000E+00 0. -1.
          2    1    3    3  501    0 -0.10021017147E+03 -0.17899001490E+03  0.26659919609E+02  0.20685805571E+03  0.00000000000E+00 0. -1.
<mgrwt>
<rscale>  0 0.63877886E+03</rscale>
<asrwt>0</asrwt>
<pdfrwt beam="1">0</pdfrwt>
<pdfrwt beam="2">  1        2 0.37094481E+00 0.63877886E+03</pdfrwt>
<totfact> 0.51081319E+00</totfact>
</mgrwt>
</event>
<event>
 5    1  0.2361924E-004  0.6307772E+03  0.7818608E-02  0.9843533E-01
         13   -1    0    0    0    0  0.00000000000E+00  0.00000000000E+00  0.10000000000E+04  0.10000000000E+04  0.00000000000E+00 0. -1.
          2   -1    0    0  501    0 -0.00000000000E+00 -0.00000000000E+00 -0.99469973684E+02  0.99469973684E+02  0.00000000000E+00 0. -1.
    9000006    2    1    2  501    0  0.00000000000E+00  0.00000000000E+00  0.90053002632E+03  0.10994699737E+04  0.63077721482E+03 0.  0.
         13    1    3    3    0    0 -0.96287926595E+02 -0.22628290696E+03  0.10606576547E+03  0.26781573030E+03  0.00000000000E+00 0. -1.
          4    1    3    3  501    0  0.96287926595E+02  0.22628290696E+03  0.79446426084E+03  0.83165424339E+03  0.00000000000E+00 0. -1.
<mgrwt>
<rscale>  0 0.63077721E+03</rscale>
<asrwt>0</asrwt>
<pdfrwt beam="1">0</pdfrwt>
<pdfrwt beam="2">  1        2 0.36170976E+00 0.63077721E+03</pdfrwt>
<totfact> 0.55241329E+00</totfact>
</mgrwt>
</event>
<event>
 5    1  0.2361924E-004  0.6903554E+03  0.7818608E-02  0.9733869E-01
         13   -1    0    0    0    0  0.00000000000E+00  0.00000000000E+00  0.10000000000E+04  0.10000000000E+04  0.00000000000E+00 0. -1.
          2   -1    0    0  501    0 -0.00000000000E+00 -0.00000000000E+00 -0.11914765766E+03  0.11914765766E+03  0.00000000000E+00 0. -1.
    9000006    2    1    2  501    0  0.00000000000E+00  0.00000000000E+00  0.88085234234E+03  0.11191476577E+04  0.69035543791E+03 0.  0.
         13    1    3    3    0    0  0.26992911635E+03  0.19972355414E+03  0.57007945603E+03  0.66162059530E+03  0.00000000000E+00 0. -1.
          4    1    3    3  501    0 -0.26992911635E+03 -0.19972355414E+03  0.31077288630E+03  0.45752706236E+03  0.00000000000E+00 0. -1.
<mgrwt>
<rscale>  0 0.69035544E+03</rscale>
<asrwt>0</asrwt>
<pdfrwt beam="1">0</pdfrwt>
<pdfrwt beam="2">  1        2 0.43326512E+00 0.69035544E+03</pdfrwt>
<totfact> 0.29647374E+00</totfact>
</mgrwt>
</event>
<event>
 5    1  0.2361924E-004  0.6438218E+03  0.7818608E-02  0.9818442E-01
         13   -1    0    0    0    0  0.00000000000E+00  0.00000000000E+00  0.10000000000E+04  0.10000000000E+04  0.00000000000E+00 0. -1.
          2   -1    0    0  501    0 -0.00000000000E+00 -0.00000000000E+00 -0.10362662906E+03  0.10362662906E+03  0.00000000000E+00 0. -1.
    9000006    2    1    2  501    0  0.00000000000E+00  0.00000000000E+00  0.89637337094E+03  0.11036266291E+04  0.64382180472E+03 0.  0.
         13    1    3    3    0    0  0.31783130989E+03 -0.31173079298E+02  0.51756603534E+03  0.60816371427E+03  0.00000000000E+00 0. -1.
          4    1    3    3  501    0 -0.31783130989E+03  0.31173079298E+02  0.37880733560E+03  0.49546291479E+03  0.00000000000E+00 0. -1.
<mgrwt>
<rscale>  0 0.64382180E+03</rscale>
<asrwt>0</asrwt>
<pdfrwt beam="1">0</pdfrwt>
<pdfrwt beam="2">  1        2 0.37682490E+00 0.64382180E+03</pdfrwt>
<totfact> 0.48584406E+00</totfact>
</mgrwt>
</event>
<event>
 5    1  0.2361924E-004  0.6392372E+03  0.7818608E-02  0.9827187E-01
         13   -1    0    0    0    0  0.00000000000E+00  0.00000000000E+00  0.10000000000E+04  0.10000000000E+04  0.00000000000E+00 0. -1.
          2   -1    0    0  501    0 -0.00000000000E+00 -0.00000000000E+00 -0.10215606183E+03  0.10215606183E+03  0.00000000000E+00 0. -1.
    9000006    2    1    2  501    0  0.00000000000E+00  0.00000000000E+00  0.89784393817E+03  0.11021560618E+04  0.63923723868E+03 0.  0.
         13    1    3    3    0    0 -0.14161035645E+03  0.25331741631E+03  0.67981230187E+03  0.73916708006E+03  0.00000000000E+00 0. -1.
          2    1    3    3  501    0  0.14161035645E+03 -0.25331741631E+03  0.21803163630E+03  0.36298898177E+03  0.00000000000E+00 0. -1.
<mgrwt>
<rscale>  0 0.63923724E+03</rscale>
<asrwt>0</asrwt>
<pdfrwt beam="1">0</pdfrwt>
<pdfrwt beam="2">  1        2 0.37147737E+00 0.63923724E+03</pdfrwt>
<totfact> 0.50850426E+00</totfact>
</mgrwt>
</event>
<event>
 5    1  0.2361924E-004  0.6409392E+03  0.7818608E-02  0.9823931E-01
         13   -1    0    0    0    0  0.00000000000E+00  0.00000000000E+00  0.10000000000E+04  0.10000000000E+04  0.00000000000E+00 0. -1.
          2   -1    0    0  501    0 -0.00000000000E+00 -0.00000000000E+00 -0.10270077094E+03  0.10270077094E+03  0.00000000000E+00 0. -1.
    9000006    2    1    2  501    0  0.00000000000E+00  0.00000000000E+00  0.89729922906E+03  0.11027007709E+04  0.64093922003E+03 0.  0.
         13    1    3    3    0    0 -0.15983837362E+03 -0.25243678636E+03  0.64801449949E+03  0.71357930767E+03  0.00000000000E+00 0. -1.
          4    1    3    3  501    0  0.15983837362E+03  0.25243678636E+03  0.24928472957E+03  0.38912146327E+03  0.00000000000E+00 0. -1.
<mgrwt>
<rscale>  0 0.64093922E+03</rscale>
<asrwt>0</asrwt>
<pdfrwt beam="1">0</pdfrwt>
<pdfrwt beam="2">  1        2 0.37345814E+00 0.64093922E+03</pdfrwt>
<totfact> 0.50000029E+00</totfact>
</mgrwt>
</event>
<event>
 5    1  0.2361924E-004  0.6605594E+03  0.7818608E-02  0.9787164E-01
         13   -1    0    0    0    0  0.00000000000E+00  0.00000000000E+00  0.10000000000E+04  0.10000000000E+04  0.00000000000E+00 0. -1.
          2   -1    0    0  501    0 -0.00000000000E+00 -0.00000000000E+00 -0.10908469629E+03  0.10908469629E+03  0.00000000000E+00 0. -1.
    9000006    2    1    2  501    0  0.00000000000E+00  0.00000000000E+00  0.89091530371E+03  0.11090846963E+04  0.66055944860E+03 0.  0.
         13    1    3    3    0    0  0.20814646054E+03  0.22643452714E+03  0.24336788887E+03  0.39220590695E+03  0.00000000000E+00 0. -1.
          2    1    3    3  501    0 -0.20814646054E+03 -0.22643452714E+03  0.64754741485E+03  0.71687878933E+03  0.00000000000E+00 0. -1.
<mgrwt>
<rscale>  0 0.66055945E+03</rscale>
<asrwt>0</asrwt>
<pdfrwt beam="1">0</pdfrwt>
<pdfrwt beam="2">  1        2 0.39667246E+00 0.66055945E+03</pdfrwt>
<totfact> 0.40954030E+00</totfact>
</mgrwt>
</event>
<event>
 5    1  0.2361924E-004  0.6584645E+03  0.7818608E-02  0.9791025E-01
         13   -1    0    0    0    0  0.00000000000E+00  0.00000000000E+00  0.10000000000E+04  0.10000000000E+04  0.00000000000E+00 0. -1.
          2   -1    0    0  501    0 -0.00000000000E+00 -0.00000000000E+00 -0.10839386766E+03  0.10839386766E+03  0.00000000000E+00 0. -1.
    9000006    2    1    2  501    0  0.00000000000E+00  0.00000000000E+00  0.89160613234E+03  0.11083938677E+04  0.65846447939E+03 0.  0.
         13    1    3    3    0    0  0.23085004078E+03  0.23191623708E+03  0.50689054857E+03  0.60333648206E+03  0.00000000000E+00 0. -1.
          2    1    3    3  501    0 -0.23085004078E+03 -0.23191623708E+03  0.38471558377E+03  0.50505738560E+03  0.00000000000E+00 0. -1.
<mgrwt>
<rscale>  0 0.65846448E+03</rscale>
<asrwt>0</asrwt>
<pdfrwt beam="1">0</pdfrwt>
<pdfrwt beam="2">  1        2 0.39416035E+00 0.65846448E+03</pdfrwt>
<totfact> 0.41855721E+00</totfact>
</mgrwt>
</event>
<event>
 5    1  0.2361924E-004  0.6445523E+03  0.7818608E-02  0.9817055E-01
         13   -1    0    0    0    0  0.00000000000E+00  0.00000000000E+00  0.10000000000E+04  0.10000000000E+04  0.00000000000E+00 0. -1.
          2   -1    0    0  501    0 -0.00000000000E+00 -0.00000000000E+00 -0.10386192345E+03  0.10386192345E+03  0.00000000000E+00 0. -1.
    9000006    2    1    2  501    0  0.00000000000E+00  0.00000000000E+00  0.89613807655E+03  0.11038619234E+04  0.64455232044E+03 0.  0.
         13    1    3    3    0    0  0.22637031298E+03  0.63642034822E+02  0.70642775205E+02  0.24552846858E+03  0.00000000000E+00 0. -1.
          2    1    3    3  501    0 -0.22637031298E+03 -0.63642034822E+02  0.82549530135E+03  0.85833345487E+03  0.00000000000E+00 0. -1.
<mgrwt>
<rscale>  0 0.64455232E+03</rscale>
<asrwt>0</asrwt>
<pdfrwt beam="1">0</pdfrwt>
<pdfrwt beam="2">  1        2 0.37768052E+00 0.64455232E+03</pdfrwt>
<totfact> 0.48230543E+00</totfact>
</mgrwt>
</event>
<event>
 5    1  0.2361924E-004  0.6483038E+03  0.7818608E-02  0.9809967E-01
         13   -1    0    0    0    0  0.00000000000E+00  0.00000000000E+00  0.10000000000E+04  0.10000000000E+04  0.00000000000E+00 0. -1.
          2   -1    0    0  501    0 -0.00000000000E+00 -0.00000000000E+00 -0.10507445104E+03  0.10507445104E+03  0.00000000000E+00 0. -1.
    9000006    2    1    2  501    0  0.00000000000E+00  0.00000000000E+00  0.89492554896E+03  0.11050744510E+04  0.64830379003E+03 0.  0.
         13    1    3    3    0    0  0.71424955169E+02  0.13759632304E+03 -0.37784576025E+02  0.15956799967E+03  0.00000000000E+00 0. -1.
          2    1    3    3  501    0 -0.71424955169E+02 -0.13759632304E+03  0.93271012498E+03  0.94550645137E+03  0.00000000000E+00 0. -1.
<mgrwt>
<rscale>  0 0.64830379E+03</rscale>
<asrwt>0</asrwt>
<pdfrwt beam="1">0</pdfrwt>
<pdfrwt beam="2">  1        2 0.38208972E+00 0.64830379E+03</pdfrwt>
<totfact> 0.46443939E+00</totfact>
</mgrwt>
</event>
<event>
 5    1  0.2361924E-004  0.6482741E+03  0.7818608E-02  0.9810023E-01
         13   -1    0    0    0    0  0.00000000000E+00  0.00000000000E+00  0.10000000000E+04  0.10000000000E+04  0.00000000000E+00 0. -1.
          2   -1    0    0  501    0 -0.00000000000E+00 -0.00000000000E+00 -0.10506481328E+03  0.10506481328E+03  0.00000000000E+00 0. -1.
    9000006    2    1    2  501    0  0.00000000000E+00  0.00000000000E+00  0.89493518672E+03  0.11050648133E+04  0.64827405712E+03 0.  0.
         13    1    3    3    0    0 -0.19246040483E+03  0.91027089466E+02  0.86410090694E+03  0.88994231039E+03  0.00000000000E+00 0. -1.
          4    1    3    3  501    0  0.19246040483E+03 -0.91027089466E+02  0.30834279776E+02  0.21512250290E+03  0.00000000000E+00 0. -1.
<mgrwt>
<rscale>  0 0.64827406E+03</rscale>
<asrwt>0</asrwt>
<pdfrwt beam="1">0</pdfrwt>
<pdfrwt beam="2">  1        2 0.38205467E+00 0.64827406E+03</pdfrwt>
<totfact> 0.46457900E+00</totfact>
</mgrwt>
</event>
<event>
 5    1  0.2361924E-004  0.6501114E+03  0.7818608E-02  0.9806570E-01
         13   -1    0    0    0    0  0.00000000000E+00  0.00000000000E+00  0.10000000000E+04  0.10000000000E+04  0.00000000000E+00 0. -1.
          2   -1    0    0  501    0 -0.00000000000E+00 -0.00000000000E+00 -0.10566120100E+03  0.10566120100E+03  0.00000000000E+00 0. -1.
    9000006    2    1    2  501    0  0.00000000000E+00  0.00000000000E+00  0.89433879900E+03  0.11056612010E+04  0.65011137816E+03 0.  0.
         13    1    3    3    0    0 -0.53873760548E+02  0.13001304733E+02  0.99190575727E+03  0.99345279068E+03  0.00000000000E+00 0. -1.
          2    1    3    3  501    0  0.53873760548E+02 -0.13001304733E+02 -0.97566958275E+02  0.11220841032E+03  0.00000000000E+00 0. -1.
<mgrwt>
<rscale>  0 0.65011138E+03</rscale>
<asrwt>0</asrwt>
<pdfrwt beam="1">0</pdfrwt>
<pdfrwt beam="2">  1        2 0.38422336E+00 0.65011138E+03</pdfrwt>
<totfact> 0.45601181E+00</totfact>
</mgrwt>
</event>
<event>
 5    1  0.2361924E-004  0.6470657E+03  0.7818608E-02  0.9812301E-01
         13   -1    0    0    0    0  0.00000000000E+00  0.00000000000E+00  0.10000000000E+04  0.10000000000E+04  0.00000000000E+00 0. -1.
          2   -1    0    0  501    0 -0.00000000000E+00 -0.00000000000E+00 -0.10467349814E+03  0.10467349814E+03  0.00000000000E+00 0. -1.
    9000006    2    1    2  501    0  0.00000000000E+00  0.00000000000E+00  0.89532650186E+03  0.11046734981E+04  0.64706567871E+03 0.  0.
         13    1    3    3    0    0  0.13327357497E+00 -0.24817199171E+03  0.93303572278E+02  0.26513187630E+03  0.00000000000E+00 0. -1.
          2    1    3    3  501    0 -0.13327357497E+00  0.24817199171E+03  0.80202292958E+03  0.83954162184E+03  0.00000000000E+00 0. -1.
<mgrwt>
<rscale>  0 0.64706568E+03</rscale>
<asrwt>0</asrwt>
<pdfrwt beam="1">0</pdfrwt>
<pdfrwt beam="2">  1        2 0.38063170E+00 0.64706568E+03</pdfrwt>
<totfact> 0.47027946E+00</totfact>
</mgrwt>
</event>
<event>
 5    1  0.2361924E-004  0.6550310E+03  0.7818608E-02  0.9797384E-01
         13   -1    0    0    0    0  0.00000000000E+00  0.00000000000E+00  0.10000000000E+04  0.10000000000E+04  0.00000000000E+00 0. -1.
          2   -1    0    0  501    0 -0.00000000000E+00 -0.00000000000E+00 -0.10726638651E+03  0.10726638651E+03  0.00000000000E+00 0. -1.
    9000006    2    1    2  501    0  0.00000000000E+00  0.00000000000E+00  0.89273361349E+03  0.11072663865E+04  0.65503095045E+03 0.  0.
         13    1    3    3    0    0  0.24483490702E+03  0.12794549768E+03  0.14897014605E+03  0.31385711157E+03  0.00000000000E+00 0. -1.
          4    1    3    3  501    0 -0.24483490702E+03 -0.12794549768E+03  0.74376346743E+03  0.79340927494E+03  0.00000000000E+00 0. -1.
<mgrwt>
<rscale>  0 0.65503095E+03</rscale>
<asrwt>0</asrwt>
<pdfrwt beam="1">0</pdfrwt>
<pdfrwt beam="2">  1        2 0.39006041E+00 0.65503095E+03</pdfrwt>
<totfact> 0.43365976E+00</totfact>
</mgrwt>
</event>
<event>
 5    1  0.2361924E-004  0.6398955E+03  0.7818608E-02  0.9825926E-01
         13   -1    0    0    0    0  0.00000000000E+00  0.00000000000E+00  0.10000000000E+04  0.10000000000E+04  0.00000000000E+00 0. -1.
          2   -1    0    0  501    0 -0.00000000000E+00 -0.00000000000E+00 -0.10236656508E+03  0.10236656508E+03  0.00000000000E+00 0. -1.
    9000006    2    1    2  501    0  0.00000000000E+00  0.00000000000E+00  0.89763343492E+03  0.11023665651E+04  0.63989550735E+03 0.  0.
         13    1    3    3    0    0 -0.20558455829E+03  0.15748243340E+03  0.77249195614E+03  0.81474508267E+03  0.00000000000E+00 0. -1.
          2    1    3    3  501    0  0.20558455829E+03 -0.15748243340E+03  0.12514147878E+03  0.28762148241E+03  0.00000000000E+00 0. -1.
<mgrwt>
<rscale>  0 0.63989551E+03</rscale>
<asrwt>0</asrwt>
<pdfrwt beam="1">0</pdfrwt>
<pdfrwt beam="2">  1        2 0.37224284E+00 0.63989551E+03</pdfrwt>
<totfact> 0.50520233E+00</totfact>
</mgrwt>
</event>
<event>
 5    1  0.2361924E-004  0.6586797E+03  0.7818608E-02  0.9790627E-01
         13   -1    0    0    0    0  0.00000000000E+00  0.00000000000E+00  0.10000000000E+04  0.10000000000E+04  0.00000000000E+00 0. -1.
          2   -1    0    0  501    0 -0.00000000000E+00 -0.00000000000E+00 -0.10846473078E+03  0.10846473078E+03  0.00000000000E+00 0. -1.
    9000006    2    1    2  501    0  0.00000000000E+00  0.00000000000E+00  0.89153526922E+03  0.11084647308E+04  0.65867968172E+03 0.  0.
         13    1    3    3    0    0 -0.15989678322E+03  0.21257834227E+03  0.11898008558E+03  0.29139799870E+03  0.00000000000E+00 0. -1.
          2    1    3    3  501    0  0.15989678322E+03 -0.21257834227E+03  0.77255518365E+03  0.81706673207E+03  0.00000000000E+00 0. -1.
<mgrwt>
<rscale>  0 0.65867968E+03</rscale>
<asrwt>0</asrwt>
<pdfrwt beam="1">0</pdfrwt>
<pdfrwt beam="2">  1        2 0.39441803E+00 0.65867968E+03</pdfrwt>
<totfact> 0.41762412E+00</totfact>
</mgrwt>
</event>
<event>
 5    1  0.2361924E-004  0.6405878E+03  0.7818608E-02  0.9824603E-01
         13   -1    0    0    0    0  0.00000000000E+00  0.00000000000E+00  0.10000000000E+04  0.10000000000E+04  0.00000000000E+00 0. -1.
          2   -1    0    0  501    0 -0.00000000000E+00 -0.00000000000E+00 -0.10258818904E+03  0.10258818904E+03  0.00000000000E+00 0. -1.
    9000006    2    1    2  501    0  0.00000000000E+00  0.00000000000E+00  0.89741181096E+03  0.11025881890E+04  0.64058782080E+03 0.  0.
         13    1    3    3    0    0 -0.51881229062E+02  0.30789504901E+03  0.57159095348E+03  0.65131193850E+03  0.00000000000E+00 0. -1.
          2    1    3    3  501    0  0.51881229062E+02 -0.30789504901E+03  0.32582085748E+03  0.45127625054E+03  0.00000000000E+00 0. -1.
<mgrwt>
<rscale>  0 0.64058782E+03</rscale>
<asrwt>0</asrwt>
<pdfrwt beam="1">0</pdfrwt>
<pdfrwt beam="2">  1        2 0.37304875E+00 0.64058782E+03</pdfrwt>
<totfact> 0.50174717E+00</totfact>
</mgrwt>
</event>
<event>
 5    1  0.2361924E-004  0.6283000E+03  0.7818608E-02  0.9848372E-01
         13   -1    0    0    0    0  0.00000000000E+00  0.00000000000E+00  0.10000000000E+04  0.10000000000E+04  0.00000000000E+00 0. -1.
          2   -1    0    0  501    0 -0.00000000000E+00 -0.00000000000E+00 -0.98690213309E+02  0.98690213309E+02  0.00000000000E+00 0. -1.
    9000006    2    1    2  501    0  0.00000000000E+00  0.00000000000E+00  0.90130978669E+03  0.10986902133E+04  0.62829997074E+03 0.  0.
         13    1    3    3    0    0  0.20653058070E+03  0.23669670206E+03  0.44512406393E+03  0.54480789442E+03  0.00000000000E+00 0. -1.
          4    1    3    3  501    0 -0.20653058070E+03 -0.23669670206E+03  0.45618572276E+03  0.55388231889E+03  0.00000000000E+00 0. -1.
<mgrwt>
<rscale>  0 0.62829997E+03</rscale>
<asrwt>0</asrwt>
<pdfrwt beam="1">0</pdfrwt>
<pdfrwt beam="2">  1        2 0.35887426E+00 0.62829997E+03</pdfrwt>
<totfact> 0.56579863E+00</totfact>
</mgrwt>
</event>
<event>
 5    1  0.2361924E-004  0.6542473E+03  0.7818608E-02  0.9798842E-01
         13   -1    0    0    0    0  0.00000000000E+00  0.00000000000E+00  0.10000000000E+04  0.10000000000E+04  0.00000000000E+00 0. -1.
          2   -1    0    0  501    0 -0.00000000000E+00 -0.00000000000E+00 -0.10700989307E+03  0.10700989307E+03  0.00000000000E+00 0. -1.
    9000006    2    1    2  501    0  0.00000000000E+00  0.00000000000E+00  0.89299010693E+03  0.11070098931E+04  0.65424733265E+03 0.  0.
         13    1    3    3    0    0  0.20799414585E+03 -0.90778688540E+02  0.47850713440E+02  0.23193107980E+03  0.00000000000E+00 0. -1.
          2    1    3    3  501    0 -0.20799414585E+03  0.90778688540E+02  0.84513939349E+03  0.87507881327E+03  0.00000000000E+00 0. -1.
<mgrwt>
<rscale>  0 0.65424733E+03</rscale>
<asrwt>0</asrwt>
<pdfrwt beam="1">0</pdfrwt>
<pdfrwt beam="2">  1        2 0.38912770E+00 0.65424733E+03</pdfrwt>
<totfact> 0.43716348E+00</totfact>
</mgrwt>
</event>
<event>
 5    1  0.2361924E-004  0.6463607E+03  0.7818608E-02  0.9813632E-01
         13   -1    0    0    0    0  0.00000000000E+00  0.00000000000E+00  0.10000000000E+04  0.10000000000E+04  0.00000000000E+00 0. -1.
          2   -1    0    0  501    0 -0.00000000000E+00 -0.00000000000E+00 -0.10444555128E+03  0.10444555128E+03  0.00000000000E+00 0. -1.
    9000006    2    1    2  501    0  0.00000000000E+00  0.00000000000E+00  0.89555444872E+03  0.11044455513E+04  0.64636073917E+03 0.  0.
         13    1    3    3    0    0  0.26825177921E+03 -0.10493509232E+03  0.69817908508E+03  0.75526447388E+03  0.00000000000E+00 0. -1.
          2    1    3    3  501    0 -0.26825177921E+03  0.10493509232E+03  0.19737536363E+03  0.34918107741E+03  0.00000000000E+00 0. -1.
<mgrwt>
<rscale>  0 0.64636074E+03</rscale>
<asrwt>0</asrwt>
<pdfrwt beam="1">0</pdfrwt>
<pdfrwt beam="2">  1        2 0.37980281E+00 0.64636074E+03</pdfrwt>
<totfact> 0.47362931E+00</totfact>
</mgrwt>
</event>
<event>
 5    1  0.2361924E-004  0.6564993E+03  0.7818608E-02  0.9794659E-01
         13   -1    0    0    0    0  0.00000000000E+00  0.00000000000E+00  0.10000000000E+04  0.10000000000E+04  0.00000000000E+00 0. -1.
          2   -1    0    0  501    0 -0.00000000000E+00 -0.00000000000E+00 -0.10774784685E+03  0.10774784685E+03  0.00000000000E+00 0. -1.
    9000006    2    1    2  501    0  0.00000000000E+00  0.00000000000E+00  0.89225215315E+03  0.11077478468E+04  0.65649934302E+03 0.  0.
         13    1    3    3    0    0 -0.28125132891E+03 -0.57502877878E+02  0.17752918875E+03  0.33752852300E+03  0.00000000000E+00 0. -1.
          4    1    3    3  501    0  0.28125132891E+03  0.57502877878E+02  0.71472296441E+03  0.77021932385E+03  0.00000000000E+00 0. -1.
<mgrwt>
<rscale>  0 0.65649934E+03</rscale>
<asrwt>0</asrwt>
<pdfrwt beam="1">0</pdfrwt>
<pdfrwt beam="2">  1        2 0.39181118E+00 0.65649934E+03</pdfrwt>
<totfact> 0.42715143E+00</totfact>
</mgrwt>
</event>
<event>
 5    1  0.2361924E-004  0.6488746E+03  0.7818608E-02  0.9808893E-01
         13   -1    0    0    0    0  0.00000000000E+00  0.00000000000E+00  0.10000000000E+04  0.10000000000E+04  0.00000000000E+00 0. -1.
          2   -1    0    0  501    0 -0.00000000000E+00 -0.00000000000E+00 -0.10525957272E+03  0.10525957272E+03  0.00000000000E+00 0. -1.
    9000006    2    1    2  501    0  0.00000000000E+00  0.00000000000E+00  0.89474042728E+03  0.11052595727E+04  0.64887463419E+03 0.  0.
         13    1    3    3    0    0 -0.12574263153E+03 -0.59169480550E+02 -0.51996623731E+02  0.14837751073E+03  0.00000000000E+00 0. -1.
          4    1    3    3  501    0  0.12574263153E+03  0.59169480550E+02  0.94673705101E+03  0.95688206199E+03  0.00000000000E+00 0. -1.
<mgrwt>
<rscale>  0 0.64887463E+03</rscale>
<asrwt>0</asrwt>
<pdfrwt beam="1">0</pdfrwt>
<pdfrwt beam="2">  1        2 0.38276289E+00 0.64887463E+03</pdfrwt>
<totfact> 0.46176532E+00</totfact>
</mgrwt>
</event>
<event>
 5    1  0.2361924E-004  0.6473462E+03  0.7818608E-02  0.9811772E-01
         13   -1    0    0    0    0  0.00000000000E+00  0.00000000000E+00  0.10000000000E+04  0.10000000000E+04  0.00000000000E+00 0. -1.
          2   -1    0    0  501    0 -0.00000000000E+00 -0.00000000000E+00 -0.10476426235E+03  0.10476426235E+03  0.00000000000E+00 0. -1.
    9000006    2    1    2  501    0  0.00000000000E+00  0.00000000000E+00  0.89523573765E+03  0.11047642623E+04  0.64734615887E+03 0.  0.
         13    1    3    3    0    0 -0.85118023163E+02 -0.26929455330E+03  0.17778191556E+03  0.33372300461E+03  0.00000000000E+00 0. -1.
          2    1    3    3  501    0  0.85118023163E+02  0.26929455330E+03  0.71745382209E+03  0.77104125774E+03  0.00000000000E+00 0. -1.
<mgrwt>
<rscale>  0 0.64734616E+03</rscale>
<asrwt>0</asrwt>
<pdfrwt beam="1">0</pdfrwt>
<pdfrwt beam="2">  1        2 0.38096176E+00 0.64734616E+03</pdfrwt>
<totfact> 0.46895162E+00</totfact>
</mgrwt>
</event>
<event>
 5    1  0.2361924E-004  0.6574045E+03  0.7818608E-02  0.9792984E-01
         13   -1    0    0    0    0  0.00000000000E+00  0.00000000000E+00  0.10000000000E+04  0.10000000000E+04  0.00000000000E+00 0. -1.
          2   -1    0    0  501    0 -0.00000000000E+00 -0.00000000000E+00 -0.10804516869E+03  0.10804516869E+03  0.00000000000E+00 0. -1.
    9000006    2    1    2  501    0  0.00000000000E+00  0.00000000000E+00  0.89195483131E+03  0.11080451687E+04  0.65740449857E+03 0.  0.
         13    1    3    3    0    0 -0.17248713504E+03  0.27570051576E+03  0.36545106118E+03  0.48920043363E+03  0.00000000000E+00 0. -1.
          4    1    3    3  501    0  0.17248713504E+03 -0.27570051576E+03  0.52650377014E+03  0.61884473506E+03  0.00000000000E+00 0. -1.
<mgrwt>
<rscale>  0 0.65740450E+03</rscale>
<asrwt>0</asrwt>
<pdfrwt beam="1">0</pdfrwt>
<pdfrwt beam="2">  1        2 0.39289235E+00 0.65740450E+03</pdfrwt>
<totfact> 0.42317645E+00</totfact>
</mgrwt>
</event>
<event>
 5    1  0.2361924E-004  0.6528236E+03  0.7818608E-02  0.9801495E-01
         13   -1    0    0    0    0  0.00000000000E+00  0.00000000000E+00  0.10000000000E+04  0.10000000000E+04  0.00000000000E+00 0. -1.
          2   -1    0    0  501    0 -0.00000000000E+00 -0.00000000000E+00 -0.10654466591E+03  0.10654466591E+03  0.00000000000E+00 0. -1.
    9000006    2    1    2  501    0  0.00000000000E+00  0.00000000000E+00  0.89345533409E+03  0.11065446659E+04  0.65282360836E+03 0.  0.
         13    1    3    3    0    0  0.23349604980E+03  0.14725738023E+03  0.74196922143E+03  0.79165868078E+03  0.00000000000E+00 0. -1.
          2    1    3    3  501    0 -0.23349604980E+03 -0.14725738023E+03  0.15148611266E+03  0.31488598513E+03  0.00000000000E+00 0. -1.
<mgrwt>
<rscale>  0 0.65282361E+03</rscale>
<asrwt>0</asrwt>
<pdfrwt beam="1">0</pdfrwt>
<pdfrwt beam="2">  1        2 0.38743597E+00 0.65282361E+03</pdfrwt>
<totfact> 0.44358390E+00</totfact>
</mgrwt>
</event>
<event>
 5    1  0.2361924E-004  0.6374411E+03  0.7818608E-02  0.9830635E-01
         13   -1    0    0    0    0  0.00000000000E+00  0.00000000000E+00  0.10000000000E+04  0.10000000000E+04  0.00000000000E+00 0. -1.
          2   -1    0    0  501    0 -0.00000000000E+00 -0.00000000000E+00 -0.10158278096E+03  0.10158278096E+03  0.00000000000E+00 0. -1.
    9000006    2    1    2  501    0  0.00000000000E+00  0.00000000000E+00  0.89841721904E+03  0.11015827810E+04  0.63744107480E+03 0.  0.
         13    1    3    3    0    0 -0.30043030017E+03  0.77164160838E+02  0.32256927972E+03  0.44750822696E+03  0.00000000000E+00 0. -1.
          4    1    3    3  501    0  0.30043030017E+03 -0.77164160838E+02  0.57584793932E+03  0.65407455401E+03  0.00000000000E+00 0. -1.
<mgrwt>
<rscale>  0 0.63744107E+03</rscale>
<asrwt>0</asrwt>
<pdfrwt beam="1">0</pdfrwt>
<pdfrwt beam="2">  1        2 0.36939271E+00 0.63744107E+03</pdfrwt>
<totfact> 0.51759716E+00</totfact>
</mgrwt>
</event>
<event>
 5    1  0.2361924E-004  0.6717500E+03  0.7818608E-02  0.9766802E-01
         13   -1    0    0    0    0  0.00000000000E+00  0.00000000000E+00  0.10000000000E+04  0.10000000000E+04  0.00000000000E+00 0. -1.
          2   -1    0    0  501    0 -0.00000000000E+00 -0.00000000000E+00 -0.11281202913E+03  0.11281202913E+03  0.00000000000E+00 0. -1.
    9000006    2    1    2  501    0  0.00000000000E+00  0.00000000000E+00  0.88718797087E+03  0.11128120291E+04  0.67175004020E+03 0.  0.
         13    1    3    3    0    0 -0.79394232641E+02 -0.37822750253E+02  0.98058876066E+03  0.98452441419E+03  0.00000000000E+00 0. -1.
          2    1    3    3  501    0  0.79394232641E+02  0.37822750253E+02 -0.93400789784E+02  0.12828761493E+03  0.00000000000E+00 0. -1.
<mgrwt>
<rscale>  0 0.67175004E+03</rscale>
<asrwt>0</asrwt>
<pdfrwt beam="1">0</pdfrwt>
<pdfrwt beam="2">  1        2 0.41022643E+00 0.67175004E+03</pdfrwt>
<totfact> 0.36383029E+00</totfact>
</mgrwt>
</event>
<event>
 5    1  0.2361924E-004  0.6527450E+03  0.7818608E-02  0.9801642E-01
         13   -1    0    0    0    0  0.00000000000E+00  0.00000000000E+00  0.10000000000E+04  0.10000000000E+04  0.00000000000E+00 0. -1.
          2   -1    0    0  501    0 -0.00000000000E+00 -0.00000000000E+00 -0.10651900654E+03  0.10651900654E+03  0.00000000000E+00 0. -1.
    9000006    2    1    2  501    0  0.00000000000E+00  0.00000000000E+00  0.89348099346E+03  0.11065190065E+04  0.65274499322E+03 0.  0.
         13    1    3    3    0    0 -0.10095303230E+03  0.17776780204E+03  0.87801625757E+03  0.90150177744E+03  0.00000000000E+00 0. -1.
          4    1    3    3  501    0  0.10095303230E+03 -0.17776780204E+03  0.15464735883E+02  0.20501722910E+03  0.00000000000E+00 0. -1.
<mgrwt>
<rscale>  0 0.65274499E+03</rscale>
<asrwt>0</asrwt>
<pdfrwt beam="1">0</pdfrwt>
<pdfrwt beam="2">  1        2 0.38734266E+00 0.65274499E+03</pdfrwt>
<totfact> 0.44394048E+00</totfact>
</mgrwt>
</event>
<event>
 5    1  0.2361924E-004  0.6274605E+03  0.7818608E-02  0.9850017E-01
         13   -1    0    0    0    0  0.00000000000E+00  0.00000000000E+00  0.10000000000E+04  0.10000000000E+04  0.00000000000E+00 0. -1.
          2   -1    0    0  501    0 -0.00000000000E+00 -0.00000000000E+00 -0.98426654968E+02  0.98426654968E+02  0.00000000000E+00 0. -1.
    9000006    2    1    2  501    0  0.00000000000E+00  0.00000000000E+00  0.90157334503E+03  0.10984266550E+04  0.62746045283E+03 0.  0.
         13    1    3    3    0    0 -0.67950482029E-01 -0.25613184551E+03  0.13362938989E+03  0.28889503413E+03  0.00000000000E+00 0. -1.
          4    1    3    3  501    0  0.67950482029E-01  0.25613184551E+03  0.76794395514E+03  0.80953162084E+03  0.00000000000E+00 0. -1.
<mgrwt>
<rscale>  0 0.62746045E+03</rscale>
<asrwt>0</asrwt>
<pdfrwt beam="1">0</pdfrwt>
<pdfrwt beam="2">  1        2 0.35791586E+00 0.62746045E+03</pdfrwt>
<totfact> 0.57039023E+00</totfact>
</mgrwt>
</event>
<event>
 5    1  0.2361924E-004  0.6438476E+03  0.7818608E-02  0.9818393E-01
         13   -1    0    0    0    0  0.00000000000E+00  0.00000000000E+00  0.10000000000E+04  0.10000000000E+04  0.00000000000E+00 0. -1.
          2   -1    0    0  501    0 -0.00000000000E+00 -0.00000000000E+00 -0.10363492374E+03  0.10363492374E+03  0.00000000000E+00 0. -1.
    9000006    2    1    2  501    0  0.00000000000E+00  0.00000000000E+00  0.89636507626E+03  0.11036349237E+04  0.64384757123E+03 0.  0.
         13    1    3    3    0    0 -0.23695559545E+03 -0.83820811762E+02  0.10338758554E+03  0.27177725354E+03  0.00000000000E+00 0. -1.
          2    1    3    3  501    0  0.23695559545E+03  0.83820811762E+02  0.79297749071E+03  0.83185767020E+03  0.00000000000E+00 0. -1.
<mgrwt>
<rscale>  0 0.64384757E+03</rscale>
<asrwt>0</asrwt>
<pdfrwt beam="1">0</pdfrwt>
<pdfrwt beam="2">  1        2 0.37685506E+00 0.64384757E+03</pdfrwt>
<totfact> 0.48571892E+00</totfact>
</mgrwt>
</event>
<event>
 5    1  0.2361924E-004  0.6484655E+03  0.7818608E-02  0.9809663E-01
         13   -1    0    0    0    0  0.00000000000E+00  0.00000000000E+00  0.10000000000E+04  0.10000000000E+04  0.00000000000E+00 0. -1.
          2   -1    0    0  501    0 -0.00000000000E+00 -0.00000000000E+00 -0.10512687558E+03  0.10512687558E+03  0.00000000000E+00 0. -1.
    9000006    2    1    2  501    0  0.00000000000E+00  0.00000000000E+00  0.89487312442E+03  0.11051268756E+04  0.64846549816E+03 0.  0.
         13    1    3    3    0    0  0.16990840836E+01 -0.29690479251E+03  0.22541978135E+03  0.37278602512E+03  0.00000000000E+00 0. -1.
          2    1    3    3  501    0 -0.16990840836E+01  0.29690479251E+03  0.66945334307E+03  0.73234085046E+03  0.00000000000E+00 0. -1.
<mgrwt>
<rscale>  0 0.64846550E+03</rscale>
<asrwt>0</asrwt>
<pdfrwt beam="1">0</pdfrwt>
<pdfrwt beam="2">  1        2 0.38228035E+00 0.64846550E+03</pdfrwt>
<totfact> 0.46368070E+00</totfact>
</mgrwt>
</event>
<event>
 5    1  0.2361924E-004  0.6623742E+03  0.7818608E-02  0.9783833E-01
         13   -1    0    0    0    0  0.00000000000E+00  0.00000000000E+00  0.10000000000E+04  0.10000000000E+04  0.00000000000E+00 0. -1.
          2   -1    0    0  501    0 -0.00000000000E+00 -0.00000000000E+00 -0.10968491065E+03  0.10968491065E+03  0.00000000000E+00 0. -1.
    9000006    2    1    2  501    0  0.00000000000E+00  0.00000000000E+00  0.89031508935E+03  0.11096849106E+04  0.66237424663E+03 0.  0.
         13    1    3    3    0    0  0.23220102250E+03 -0.23569644701E+03  0.46970993817E+03  0.57454116998E+03  0.00000000000E+00 0. -1.
          2    1    3    3  501    0 -0.23220102250E+03  0.23569644701E+03  0.42060515118E+03  0.53514374067E+03  0.00000000000E+00 0. -1.
<mgrwt>
<rscale>  0 0.66237425E+03</rscale>
<asrwt>0</asrwt>
<pdfrwt beam="1">0</pdfrwt>
<pdfrwt beam="2">  1        2 0.39885506E+00 0.66237425E+03</pdfrwt>
<totfact> 0.40184847E+00</totfact>
</mgrwt>
</event>
<event>
 5    1  0.2361924E-004  0.5209932E+03  0.7818608E-02  0.1008440E+00
         13   -1    0    0    0    0  0.00000000000E+00  0.00000000000E+00  0.10000000000E+04  0.10000000000E+04  0.00000000000E+00 0. -1.
          2   -1    0    0  501    0 -0.00000000000E+00 -0.00000000000E+00 -0.67858468488E+02  0.67858468488E+02  0.00000000000E+00 0. -1.
    9000006    2    1    2  501    0  0.00000000000E+00  0.00000000000E+00  0.93214153151E+03  0.10678584685E+04  0.52099316114E+03 0.  0.
         13    1    3    3    0    0 -0.24661454866E+03 -0.58544610057E+02  0.58925957730E+03  0.64146165623E+03  0.00000000000E+00 0. -1.
          4    1    3    3  501    0  0.24661454866E+03  0.58544610057E+02  0.34288195421E+03  0.42639681225E+03  0.00000000000E+00 0. -1.
<mgrwt>
<rscale>  0 0.52099316E+03</rscale>
<asrwt>0</asrwt>
<pdfrwt beam="1">0</pdfrwt>
<pdfrwt beam="2">  1        2 0.24675859E+00 0.52099316E+03</pdfrwt>
<totfact> 0.14319017E+01</totfact>
</mgrwt>
</event>
<event>
 5    1  0.2361924E-004  0.6452399E+03  0.7818608E-02  0.9815752E-01
         13   -1    0    0    0    0  0.00000000000E+00  0.00000000000E+00  0.10000000000E+04  0.10000000000E+04  0.00000000000E+00 0. -1.
          2   -1    0    0  501    0 -0.00000000000E+00 -0.00000000000E+00 -0.10408362522E+03  0.10408362522E+03  0.00000000000E+00 0. -1.
    9000006    2    1    2  501    0  0.00000000000E+00  0.00000000000E+00  0.89591637478E+03  0.11040836252E+04  0.64523987855E+03 0.  0.
         13    1    3    3    0    0  0.11011974493E+03 -0.19107332645E+03  0.45032742939E+02  0.22508514442E+03  0.00000000000E+00 0. -1.
          4    1    3    3  501    0 -0.11011974493E+03  0.19107332645E+03  0.85088363184E+03  0.87899848080E+03  0.00000000000E+00 0. -1.
<mgrwt>
<rscale>  0 0.64523988E+03</rscale>
<asrwt>0</asrwt>
<pdfrwt beam="1">0</pdfrwt>
<pdfrwt beam="2">  1        2 0.37848671E+00 0.64523988E+03</pdfrwt>
<totfact> 0.47899274E+00</totfact>
</mgrwt>
</event>
<event>
 5    1  0.2361924E-004  0.6480193E+03  0.7818608E-02  0.9810503E-01
         13   -1    0    0    0    0  0.00000000000E+00  0.00000000000E+00  0.10000000000E+04  0.10000000000E+04  0.00000000000E+00 0. -1.
          2   -1    0    0  501    0 -0.00000000000E+00 -0.00000000000E+00 -0.10498226095E+03  0.10498226095E+03  0.00000000000E+00 0. -1.
    9000006    2    1    2  501    0  0.00000000000E+00  0.00000000000E+00  0.89501773905E+03  0.11049822610E+04  0.64801932365E+03 0.  0.
         13    1    3    3    0    0 -0.19222836183E+03  0.18168886892E+03  0.12841137711E+03  0.29402732858E+03  0.00000000000E+00 0. -1.
          4    1    3    3  501    0  0.19222836183E+03 -0.18168886892E+03  0.76660636194E+03  0.81095493238E+03  0.00000000000E+00 0. -1.
<mgrwt>
<rscale>  0 0.64801932E+03</rscale>
<asrwt>0</asrwt>
<pdfrwt beam="1">0</pdfrwt>
<pdfrwt beam="2">  1        2 0.38175448E+00 0.64801932E+03</pdfrwt>
<totfact> 0.46577632E+00</totfact>
</mgrwt>
</event>
<event>
 5    1  0.2361924E-004  0.6477608E+03  0.7818608E-02  0.9810990E-01
         13   -1    0    0    0    0  0.00000000000E+00  0.00000000000E+00  0.10000000000E+04  0.10000000000E+04  0.00000000000E+00 0. -1.
          2   -1    0    0  501    0 -0.00000000000E+00 -0.00000000000E+00 -0.10489851957E+03  0.10489851957E+03  0.00000000000E+00 0. -1.
    9000006    2    1    2  501    0  0.00000000000E+00  0.00000000000E+00  0.89510148043E+03  0.11048985196E+04  0.64776081873E+03 0.  0.
         13    1    3    3    0    0  0.62037499981E+02  0.29780930911E+03  0.25792037617E+03  0.39882572189E+03  0.00000000000E+00 0. -1.
          4    1    3    3  501    0 -0.62037499981E+02 -0.29780930911E+03  0.63718110426E+03  0.70607279768E+03  0.00000000000E+00 0. -1.
<mgrwt>
<rscale>  0 0.64776082E+03</rscale>
<asrwt>0</asrwt>
<pdfrwt beam="1">0</pdfrwt>
<pdfrwt beam="2">  1        2 0.38144997E+00 0.64776082E+03</pdfrwt>
<totfact> 0.46699375E+00</totfact>
</mgrwt>
</event>
<event>
 5    1  0.2361924E-004  0.6377160E+03  0.7818608E-02  0.9830106E-01
         13   -1    0    0    0    0  0.00000000000E+00  0.00000000000E+00  0.10000000000E+04  0.10000000000E+04  0.00000000000E+00 0. -1.
          2   -1    0    0  501    0 -0.00000000000E+00 -0.00000000000E+00 -0.10167042941E+03  0.10167042941E+03  0.00000000000E+00 0. -1.
    9000006    2    1    2  501    0  0.00000000000E+00  0.00000000000E+00  0.89832957059E+03  0.11016704294E+04  0.63771601644E+03 0.  0.
         13    1    3    3    0    0  0.21998906368E+03  0.23056897928E+03  0.46754382247E+03  0.56582194044E+03  0.00000000000E+00 0. -1.
          2    1    3    3  501    0 -0.21998906368E+03 -0.23056897928E+03  0.43078574812E+03  0.53584848897E+03  0.00000000000E+00 0. -1.
<mgrwt>
<rscale>  0 0.63771602E+03</rscale>
<asrwt>0</asrwt>
<pdfrwt beam="1">0</pdfrwt>
<pdfrwt beam="2">  1        2 0.36971143E+00 0.63771602E+03</pdfrwt>
<totfact> 0.51619737E+00</totfact>
</mgrwt>
</event>
<event>
 5    1  0.2361924E-004  0.6514758E+03  0.7818608E-02  0.9804014E-01
         13   -1    0    0    0    0  0.00000000000E+00  0.00000000000E+00  0.10000000000E+04  0.10000000000E+04  0.00000000000E+00 0. -1.
          2   -1    0    0  501    0 -0.00000000000E+00 -0.00000000000E+00 -0.10610519564E+03  0.10610519564E+03  0.00000000000E+00 0. -1.
    9000006    2    1    2  501    0  0.00000000000E+00  0.00000000000E+00  0.89389480436E+03  0.11061051956E+04  0.65147584956E+03 0.  0.
         13    1    3    3    0    0 -0.14463868075E+03  0.18721076202E+03  0.66777974334E+02  0.24582008714E+03  0.00000000000E+00 0. -1.
          2    1    3    3  501    0  0.14463868075E+03 -0.18721076202E+03  0.82711683003E+03  0.86028510850E+03  0.00000000000E+00 0. -1.
<mgrwt>
<rscale>  0 0.65147585E+03</rscale>
<asrwt>0</asrwt>
<pdfrwt beam="1">0</pdfrwt>
<pdfrwt beam="2">  1        2 0.38583789E+00 0.65147585E+03</pdfrwt>
<totfact> 0.44972713E+00</totfact>
</mgrwt>
</event>
<event>
 5    1  0.2361924E-004  0.6530714E+03  0.7818608E-02  0.9801033E-01
         13   -1    0    0    0    0  0.00000000000E+00  0.00000000000E+00  0.10000000000E+04  0.10000000000E+04  0.00000000000E+00 0. -1.
          2   -1    0    0  501    0 -0.00000000000E+00 -0.00000000000E+00 -0.10662555639E+03  0.10662555639E+03  0.00000000000E+00 0. -1.
    9000006    2    1    2  501    0  0.00000000000E+00  0.00000000000E+00  0.89337444361E+03  0.11066255564E+04  0.65307137860E+03 0.  0.
         13    1    3    3    0    0 -0.94192122368E+02 -0.31246315333E+03  0.46526325756E+03  0.56830913853E+03  0.00000000000E+00 0. -1.
          4    1    3    3  501    0  0.94192122368E+02  0.31246315333E+03  0.42811118606E+03  0.53831641785E+03  0.00000000000E+00 0. -1.
<mgrwt>
<rscale>  0 0.65307138E+03</rscale>
<asrwt>0</asrwt>
<pdfrwt beam="1">0</pdfrwt>
<pdfrwt beam="2">  1        2 0.38773011E+00 0.65307138E+03</pdfrwt>
<totfact> 0.44246147E+00</totfact>
</mgrwt>
</event>
<event>
 5    1  0.2361924E-004  0.6202781E+03  0.7818608E-02  0.9864206E-01
         13   -1    0    0    0    0  0.00000000000E+00  0.00000000000E+00  0.10000000000E+04  0.10000000000E+04  0.00000000000E+00 0. -1.
          2   -1    0    0  501    0 -0.00000000000E+00 -0.00000000000E+00 -0.96186227016E+02  0.96186227016E+02  0.00000000000E+00 0. -1.
    9000006    2    1    2  501    0  0.00000000000E+00  0.00000000000E+00  0.90381377298E+03  0.10961862270E+04  0.62027808930E+03 0.  0.
         13    1    3    3    0    0 -0.15043972711E+02 -0.18422215124E+03  0.89202693408E+03  0.91097539662E+03  0.00000000000E+00 0. -1.
          2    1    3    3  501    0  0.15043972711E+02  0.18422215124E+03  0.11786838901E+02  0.18521083039E+03  0.00000000000E+00 0. -1.
<mgrwt>
<rscale>  0 0.62027809E+03</rscale>
<asrwt>0</asrwt>
<pdfrwt beam="1">0</pdfrwt>
<pdfrwt beam="2">  1        2 0.34976884E+00 0.62027809E+03</pdfrwt>
<totfact> 0.61084413E+00</totfact>
</mgrwt>
</event>
<event>
 5    1  0.2361924E-004  0.6405011E+03  0.7818608E-02  0.9824768E-01
         13   -1    0    0    0    0  0.00000000000E+00  0.00000000000E+00  0.10000000000E+04  0.10000000000E+04  0.00000000000E+00 0. -1.
          2   -1    0    0  501    0 -0.00000000000E+00 -0.00000000000E+00 -0.10256040393E+03  0.10256040393E+03  0.00000000000E+00 0. -1.
    9000006    2    1    2  501    0  0.00000000000E+00  0.00000000000E+00  0.89743959607E+03  0.11025604039E+04  0.64050106615E+03 0.  0.
         13    1    3    3    0    0 -0.51420277981E+02  0.27954274431E+03  0.70271985991E+03  0.75802598398E+03  0.00000000000E+00 0. -1.
          4    1    3    3  501    0  0.51420277981E+02 -0.27954274431E+03  0.19471973616E+03  0.34453441995E+03  0.00000000000E+00 0. -1.
<mgrwt>
<rscale>  0 0.64050107E+03</rscale>
<asrwt>0</asrwt>
<pdfrwt beam="1">0</pdfrwt>
<pdfrwt beam="2">  1        2 0.37294771E+00 0.64050107E+03</pdfrwt>
<totfact> 0.50217916E+00</totfact>
</mgrwt>
</event>
<event>
 5    1  0.2361924E-004  0.6702403E+03  0.7818608E-02  0.9769524E-01
         13   -1    0    0    0    0  0.00000000000E+00  0.00000000000E+00  0.10000000000E+04  0.10000000000E+04  0.00000000000E+00 0. -1.
          2   -1    0    0  501    0 -0.00000000000E+00 -0.00000000000E+00 -0.11230550679E+03  0.11230550679E+03  0.00000000000E+00 0. -1.
    9000006    2    1    2  501    0  0.00000000000E+00  0.00000000000E+00  0.88769449321E+03  0.11123055068E+04  0.67024027570E+03 0.  0.
         13    1    3    3    0    0 -0.27294870193E+03 -0.18703438798E+03  0.53201750813E+03  0.62651854332E+03  0.00000000000E+00 0. -1.
          4    1    3    3  501    0  0.27294870193E+03  0.18703438798E+03  0.35567698508E+03  0.48578696348E+03  0.00000000000E+00 0. -1.
<mgrwt>
<rscale>  0 0.67024028E+03</rscale>
<asrwt>0</asrwt>
<pdfrwt beam="1">0</pdfrwt>
<pdfrwt beam="2">  1        2 0.40838452E+00 0.67024028E+03</pdfrwt>
<totfact> 0.36976101E+00</totfact>
</mgrwt>
</event>
<event>
 5    1  0.2361924E-004  0.6372509E+03  0.7818608E-02  0.9831001E-01
         13   -1    0    0    0    0  0.00000000000E+00  0.00000000000E+00  0.10000000000E+04  0.10000000000E+04  0.00000000000E+00 0. -1.
          2   -1    0    0  501    0 -0.00000000000E+00 -0.00000000000E+00 -0.10152216643E+03  0.10152216643E+03  0.00000000000E+00 0. -1.
    9000006    2    1    2  501    0  0.00000000000E+00  0.00000000000E+00  0.89847783357E+03  0.11015221664E+04  0.63725086560E+03 0.  0.
         13    1    3    3    0    0 -0.25205143684E+03  0.59422275083E+02  0.77012302712E+03  0.81249640645E+03  0.00000000000E+00 0. -1.
          4    1    3    3  501    0  0.25205143684E+03 -0.59422275083E+02  0.12835480645E+03  0.28902575998E+03  0.00000000000E+00 0. -1.
<mgrwt>
<rscale>  0 0.63725087E+03</rscale>
<asrwt>0</asrwt>
<pdfrwt beam="1">0</pdfrwt>
<pdfrwt beam="2">  1        2 0.36917229E+00 0.63725087E+03</pdfrwt>
<totfact> 0.51856724E+00</totfact>
</mgrwt>
</event>
<event>
 5    1  0.2361924E-004  0.6548704E+03  0.7818608E-02  0.9797683E-01
         13   -1    0    0    0    0  0.00000000000E+00  0.00000000000E+00  0.10000000000E+04  0.10000000000E+04  0.00000000000E+00 0. -1.
          2   -1    0    0  501    0 -0.00000000000E+00 -0.00000000000E+00 -0.10721380520E+03  0.10721380520E+03  0.00000000000E+00 0. -1.
    9000006    2    1    2  501    0  0.00000000000E+00  0.00000000000E+00  0.89278619480E+03  0.11072138052E+04  0.65487038474E+03 0.  0.
         13    1    3    3    0    0  0.18940117320E+03  0.87348988257E+02  0.19632926187E+02  0.20949487333E+03  0.00000000000E+00 0. -1.
          4    1    3    3  501    0 -0.18940117320E+03 -0.87348988257E+02  0.87315326861E+03  0.89771893187E+03  0.00000000000E+00 0. -1.
<mgrwt>
<rscale>  0 0.65487038E+03</rscale>
<asrwt>0</asrwt>
<pdfrwt beam="1">0</pdfrwt>
<pdfrwt beam="2">  1        2 0.38986920E+00 0.65487038E+03</pdfrwt>
<totfact> 0.43437595E+00</totfact>
</mgrwt>
</event>
<event>
 5    1  0.2361924E-004  0.6502041E+03  0.7818608E-02  0.9806396E-01
         13   -1    0    0    0    0  0.00000000000E+00  0.00000000000E+00  0.10000000000E+04  0.10000000000E+04  0.00000000000E+00 0. -1.
          2   -1    0    0  501    0 -0.00000000000E+00 -0.00000000000E+00 -0.10569133722E+03  0.10569133722E+03  0.00000000000E+00 0. -1.
    9000006    2    1    2  501    0  0.00000000000E+00  0.00000000000E+00  0.89430866278E+03  0.11056913372E+04  0.65020408248E+03 0.  0.
         13    1    3    3    0    0 -0.11653947850E+03  0.13085937091E+03  0.91281920101E+03  0.92948615844E+03  0.00000000000E+00 0. -1.
          4    1    3    3  501    0  0.11653947850E+03 -0.13085937091E+03 -0.18510538227E+02  0.17620517878E+03  0.00000000000E+00 0. -1.
<mgrwt>
<rscale>  0 0.65020408E+03</rscale>
<asrwt>0</asrwt>
<pdfrwt beam="1">0</pdfrwt>
<pdfrwt beam="2">  1        2 0.38433295E+00 0.65020408E+03</pdfrwt>
<totfact> 0.45558273E+00</totfact>
</mgrwt>
</event>
<event>
 5    1  0.2361924E-004  0.6545751E+03  0.7818608E-02  0.9798232E-01
         13   -1    0    0    0    0  0.00000000000E+00  0.00000000000E+00  0.10000000000E+04  0.10000000000E+04  0.00000000000E+00 0. -1.
          2   -1    0    0  501    0 -0.00000000000E+00 -0.00000000000E+00 -0.10711713289E+03  0.10711713289E+03  0.00000000000E+00 0. -1.
    9000006    2    1    2  501    0  0.00000000000E+00  0.00000000000E+00  0.89288286711E+03  0.11071171329E+04  0.65457507709E+03 0.  0.
         13    1    3    3    0    0 -0.14018411784E+03 -0.12105414101E+03  0.90282912058E+03  0.92163230896E+03  0.00000000000E+00 0. -1.
          2    1    3    3  501    0  0.14018411784E+03  0.12105414101E+03 -0.99462534670E+01  0.18548482393E+03  0.00000000000E+00 0. -1.
<mgrwt>
<rscale>  0 0.65457508E+03</rscale>
<asrwt>0</asrwt>
<pdfrwt beam="1">0</pdfrwt>
<pdfrwt beam="2">  1        2 0.38951767E+00 0.65457508E+03</pdfrwt>
<totfact> 0.43569548E+00</totfact>
</mgrwt>
</event>
<event>
 5    1  0.2361924E-004  0.6692694E+03  0.7818608E-02  0.9771278E-01
         13   -1    0    0    0    0  0.00000000000E+00  0.00000000000E+00  0.10000000000E+04  0.10000000000E+04  0.00000000000E+00 0. -1.
          2   -1    0    0  501    0 -0.00000000000E+00 -0.00000000000E+00 -0.11198039877E+03  0.11198039877E+03  0.00000000000E+00 0. -1.
    9000006    2    1    2  501    0  0.00000000000E+00  0.00000000000E+00  0.88801960123E+03  0.11119803988E+04  0.66926944878E+03 0.  0.
         13    1    3    3    0    0  0.20995486544E+03  0.21155714966E+03  0.69676800511E+03  0.75784109550E+03  0.00000000000E+00 0. -1.
          2    1    3    3  501    0 -0.20995486544E+03 -0.21155714966E+03  0.19125159613E+03  0.35413930326E+03  0.00000000000E+00 0. -1.
<mgrwt>
<rscale>  0 0.66926945E+03</rscale>
<asrwt>0</asrwt>
<pdfrwt beam="1">0</pdfrwt>
<pdfrwt beam="2">  1        2 0.40720231E+00 0.66926945E+03</pdfrwt>
<totfact> 0.37361295E+00</totfact>
</mgrwt>
</event>
<event>
 5    1  0.2361924E-004  0.6514723E+03  0.7818608E-02  0.9804020E-01
         13   -1    0    0    0    0  0.00000000000E+00  0.00000000000E+00  0.10000000000E+04  0.10000000000E+04  0.00000000000E+00 0. -1.
          2   -1    0    0  501    0 -0.00000000000E+00 -0.00000000000E+00 -0.10610404761E+03  0.10610404761E+03  0.00000000000E+00 0. -1.
    9000006    2    1    2  501    0  0.00000000000E+00  0.00000000000E+00  0.89389595239E+03  0.11061040476E+04  0.65147232516E+03 0.  0.
         13    1    3    3    0    0 -0.18432074334E+03 -0.35572033212E+02  0.89892306768E+03  0.91831486299E+03  0.00000000000E+00 0. -1.
          4    1    3    3  501    0  0.18432074334E+03  0.35572033212E+02 -0.50271152976E+01  0.18778918462E+03  0.00000000000E+00 0. -1.
<mgrwt>
<rscale>  0 0.65147233E+03</rscale>
<asrwt>0</asrwt>
<pdfrwt beam="1">0</pdfrwt>
<pdfrwt beam="2">  1        2 0.38583371E+00 0.65147233E+03</pdfrwt>
<totfact> 0.44974328E+00</totfact>
</mgrwt>
</event>
<event>
 5    1  0.2361924E-004  0.5720623E+03  0.7818608E-02  0.9965125E-01
         13   -1    0    0    0    0  0.00000000000E+00  0.00000000000E+00  0.10000000000E+04  0.10000000000E+04  0.00000000000E+00 0. -1.
          2   -1    0    0  501    0 -0.00000000000E+00 -0.00000000000E+00 -0.81813807055E+02  0.81813807055E+02  0.00000000000E+00 0. -1.
    9000006    2    1    2  501    0  0.00000000000E+00  0.00000000000E+00  0.91818619295E+03  0.10818138071E+04  0.57206225904E+03 0.  0.
         13    1    3    3    0    0 -0.16846714348E+03 -0.17420054965E+03  0.74642977453E+03  0.78478303896E+03  0.00000000000E+00 0. -1.
          2    1    3    3  501    0  0.16846714348E+03  0.17420054965E+03  0.17175641841E+03  0.29703076810E+03  0.00000000000E+00 0. -1.
<mgrwt>
<rscale>  0 0.57206226E+03</rscale>
<asrwt>0</asrwt>
<pdfrwt beam="1">0</pdfrwt>
<pdfrwt beam="2">  1        2 0.29750538E+00 0.57206226E+03</pdfrwt>
<totfact> 0.94244421E+00</totfact>
</mgrwt>
</event>
<event>
 5    1  0.2361924E-004  0.6500478E+03  0.7818608E-02  0.9806690E-01
         13   -1    0    0    0    0  0.00000000000E+00  0.00000000000E+00  0.10000000000E+04  0.10000000000E+04  0.00000000000E+00 0. -1.
          2   -1    0    0  501    0 -0.00000000000E+00 -0.00000000000E+00 -0.10564053048E+03  0.10564053048E+03  0.00000000000E+00 0. -1.
    9000006    2    1    2  501    0  0.00000000000E+00  0.00000000000E+00  0.89435946952E+03  0.11056405305E+04  0.65004778435E+03 0.  0.
         13    1    3    3    0    0  0.15601910759E+03  0.27709755718E+03  0.56147340673E+03  0.64527312403E+03  0.00000000000E+00 0. -1.
          2    1    3    3  501    0 -0.15601910759E+03 -0.27709755718E+03  0.33288606279E+03  0.46036740646E+03  0.00000000000E+00 0. -1.
<mgrwt>
<rscale>  0 0.65004778E+03</rscale>
<asrwt>0</asrwt>
<pdfrwt beam="1">0</pdfrwt>
<pdfrwt beam="2">  1        2 0.38414819E+00 0.65004778E+03</pdfrwt>
<totfact> 0.45630633E+00</totfact>
</mgrwt>
</event>
<event>
 5    1  0.2361924E-004  0.6426348E+03  0.7818608E-02  0.9820698E-01
         13   -1    0    0    0    0  0.00000000000E+00  0.00000000000E+00  0.10000000000E+04  0.10000000000E+04  0.00000000000E+00 0. -1.
          2   -1    0    0  501    0 -0.00000000000E+00 -0.00000000000E+00 -0.10324488146E+03  0.10324488146E+03  0.00000000000E+00 0. -1.
    9000006    2    1    2  501    0  0.00000000000E+00  0.00000000000E+00  0.89675511854E+03  0.11032448815E+04  0.64263483085E+03 0.  0.
         13    1    3    3    0    0  0.27576715510E+03 -0.66443765455E+02  0.70750245921E+03  0.76224800923E+03  0.00000000000E+00 0. -1.
          2    1    3    3  501    0 -0.27576715510E+03  0.66443765455E+02  0.18925265934E+03  0.34099687222E+03  0.00000000000E+00 0. -1.
<mgrwt>
<rscale>  0 0.64263483E+03</rscale>
<asrwt>0</asrwt>
<pdfrwt beam="1">0</pdfrwt>
<pdfrwt beam="2">  1        2 0.37543672E+00 0.64263483E+03</pdfrwt>
<totfact> 0.49163568E+00</totfact>
</mgrwt>
</event>
<event>
 5    1  0.2361924E-004  0.6523495E+03  0.7818608E-02  0.9802381E-01
         13   -1    0    0    0    0  0.00000000000E+00  0.00000000000E+00  0.10000000000E+04  0.10000000000E+04  0.00000000000E+00 0. -1.
          2   -1    0    0  501    0 -0.00000000000E+00 -0.00000000000E+00 -0.10638996063E+03  0.10638996063E+03  0.00000000000E+00 0. -1.
    9000006    2    1    2  501    0  0.00000000000E+00  0.00000000000E+00  0.89361003937E+03  0.11063899606E+04  0.65234947883E+03 0.  0.
         13    1    3    3    0    0 -0.30037424486E+03  0.12389081469E+03  0.49526278298E+03  0.59233339020E+03  0.00000000000E+00 0. -1.
          4    1    3    3  501    0  0.30037424486E+03 -0.12389081469E+03  0.39834725638E+03  0.51405657043E+03  0.00000000000E+00 0. -1.
<mgrwt>
<rscale>  0 0.65234948E+03</rscale>
<asrwt>0</asrwt>
<pdfrwt beam="1">0</pdfrwt>
<pdfrwt beam="2">  1        2 0.38687340E+00 0.65234948E+03</pdfrwt>
<totfact> 0.44573776E+00</totfact>
</mgrwt>
</event>
<event>
 5    1  0.2361924E-004  0.6473400E+03  0.7818608E-02  0.9811783E-01
         13   -1    0    0    0    0  0.00000000000E+00  0.00000000000E+00  0.10000000000E+04  0.10000000000E+04  0.00000000000E+00 0. -1.
          2   -1    0    0  501    0 -0.00000000000E+00 -0.00000000000E+00 -0.10476225487E+03  0.10476225487E+03  0.00000000000E+00 0. -1.
    9000006    2    1    2  501    0  0.00000000000E+00  0.00000000000E+00  0.89523774513E+03  0.11047622549E+04  0.64733995666E+03 0.  0.
         13    1    3    3    0    0 -0.70735753704E+02  0.11029706706E+03  0.95271236229E+03  0.96168073450E+03  0.00000000000E+00 0. -1.
          2    1    3    3  501    0  0.70735753704E+02 -0.11029706706E+03 -0.57474617157E+02  0.14308152037E+03  0.00000000000E+00 0. -1.
<mgrwt>
<rscale>  0 0.64733996E+03</rscale>
<asrwt>0</asrwt>
<pdfrwt beam="1">0</pdfrwt>
<pdfrwt beam="2">  1        2 0.38095446E+00 0.64733996E+03</pdfrwt>
<totfact> 0.46898095E+00</totfact>
</mgrwt>
</event>
<event>
 5    1  0.2361924E-004  0.6581649E+03  0.7818608E-02  0.9791578E-01
         13   -1    0    0    0    0  0.00000000000E+00  0.00000000000E+00  0.10000000000E+04  0.10000000000E+04  0.00000000000E+00 0. -1.
          2   -1    0    0  501    0 -0.00000000000E+00 -0.00000000000E+00 -0.10829524878E+03  0.10829524878E+03  0.00000000000E+00 0. -1.
    9000006    2    1    2  501    0  0.00000000000E+00  0.00000000000E+00  0.89170475122E+03  0.11082952488E+04  0.65816486927E+03 0.  0.
         13    1    3    3    0    0  0.17739001164E+03  0.12189291275E+03  0.86504347146E+03  0.89141758223E+03  0.00000000000E+00 0. -1.
          4    1    3    3  501    0 -0.17739001164E+03 -0.12189291275E+03  0.26661279761E+02  0.21687766655E+03  0.00000000000E+00 0. -1.
<mgrwt>
<rscale>  0 0.65816487E+03</rscale>
<asrwt>0</asrwt>
<pdfrwt beam="1">0</pdfrwt>
<pdfrwt beam="2">  1        2 0.39380174E+00 0.65816487E+03</pdfrwt>
<totfact> 0.41985892E+00</totfact>
</mgrwt>
</event>
<event>
 5    1  0.2361924E-004  0.6489118E+03  0.7818608E-02  0.9808823E-01
         13   -1    0    0    0    0  0.00000000000E+00  0.00000000000E+00  0.10000000000E+04  0.10000000000E+04  0.00000000000E+00 0. -1.
          2   -1    0    0  501    0 -0.00000000000E+00 -0.00000000000E+00 -0.10527163201E+03  0.10527163201E+03  0.00000000000E+00 0. -1.
    9000006    2    1    2  501    0  0.00000000000E+00  0.00000000000E+00  0.89472836799E+03  0.11052716320E+04  0.64891180297E+03 0.  0.
         13    1    3    3    0    0 -0.54907311693E+02 -0.28905307974E+03  0.68031475948E+03  0.74121162144E+03  0.00000000000E+00 0. -1.
          4    1    3    3  501    0  0.54907311693E+02  0.28905307974E+03  0.21441360851E+03  0.36406001057E+03  0.00000000000E+00 0. -1.
<mgrwt>
<rscale>  0 0.64891180E+03</rscale>
<asrwt>0</asrwt>
<pdfrwt beam="1">0</pdfrwt>
<pdfrwt beam="2">  1        2 0.38280674E+00 0.64891180E+03</pdfrwt>
<totfact> 0.46159161E+00</totfact>
</mgrwt>
</event>
<event>
 5    1  0.2361924E-004  0.6518539E+03  0.7818608E-02  0.9803307E-01
         13   -1    0    0    0    0  0.00000000000E+00  0.00000000000E+00  0.10000000000E+04  0.10000000000E+04  0.00000000000E+00 0. -1.
          2   -1    0    0  501    0 -0.00000000000E+00 -0.00000000000E+00 -0.10622838685E+03  0.10622838685E+03  0.00000000000E+00 0. -1.
    9000006    2    1    2  501    0  0.00000000000E+00  0.00000000000E+00  0.89377161315E+03  0.11062283868E+04  0.65185393102E+03 0.  0.
         13    1    3    3    0    0  0.17491943628E+01 -0.32566664521E+03  0.42498378237E+03  0.53541856408E+03  0.00000000000E+00 0. -1.
          2    1    3    3  501    0 -0.17491943628E+01  0.32566664521E+03  0.46878783078E+03  0.57080982277E+03  0.00000000000E+00 0. -1.
<mgrwt>
<rscale>  0 0.65185393E+03</rscale>
<asrwt>0</asrwt>
<pdfrwt beam="1">0</pdfrwt>
<pdfrwt beam="2">  1        2 0.38628586E+00 0.65185393E+03</pdfrwt>
<totfact> 0.44799735E+00</totfact>
</mgrwt>
</event>
<event>
 5    1  0.2361924E-004  0.6511256E+03  0.7818608E-02  0.9804669E-01
         13   -1    0    0    0    0  0.00000000000E+00  0.00000000000E+00  0.10000000000E+04  0.10000000000E+04  0.00000000000E+00 0. -1.
          2   -1    0    0  501    0 -0.00000000000E+00 -0.00000000000E+00 -0.10599112628E+03  0.10599112628E+03  0.00000000000E+00 0. -1.
    9000006    2    1    2  501    0  0.00000000000E+00  0.00000000000E+00  0.89400887372E+03  0.11059911263E+04  0.65112556785E+03 0.  0.
         13    1    3    3    0    0  0.21126944757E+03 -0.23070150057E+03  0.29381928560E+03  0.42917098508E+03  0.00000000000E+00 0. -1.
          2    1    3    3  501    0 -0.21126944757E+03  0.23070150057E+03  0.60018958813E+03  0.67682014120E+03  0.00000000000E+00 0. -1.
<mgrwt>
<rscale>  0 0.65112557E+03</rscale>
<asrwt>0</asrwt>
<pdfrwt beam="1">0</pdfrwt>
<pdfrwt beam="2">  1        2 0.38542309E+00 0.65112557E+03</pdfrwt>
<totfact> 0.45133423E+00</totfact>
</mgrwt>
</event>
<event>
 5    1  0.2361924E-004  0.5639442E+03  0.7818608E-02  0.9983169E-01
         13   -1    0    0    0    0  0.00000000000E+00  0.00000000000E+00  0.10000000000E+04  0.10000000000E+04  0.00000000000E+00 0. -1.
          2   -1    0    0  501    0 -0.00000000000E+00 -0.00000000000E+00 -0.79508269860E+02  0.79508269860E+02  0.00000000000E+00 0. -1.
    9000006    2    1    2  501    0  0.00000000000E+00  0.00000000000E+00  0.92049173014E+03  0.10795082699E+04  0.56394421660E+03 0.  0.
         13    1    3    3    0    0  0.11266906241E+03  0.56409385461E+02 -0.22620979635E+02  0.12801580025E+03  0.00000000000E+00 0. -1.
          4    1    3    3  501    0 -0.11266906241E+03 -0.56409385461E+02  0.94311270978E+03  0.95149246961E+03  0.00000000000E+00 0. -1.
<mgrwt>
<rscale>  0 0.56394422E+03</rscale>
<asrwt>0</asrwt>
<pdfrwt beam="1">0</pdfrwt>
<pdfrwt beam="2">  1        2 0.28912159E+00 0.56394422E+03</pdfrwt>
<totfact> 0.10097748E+01</totfact>
</mgrwt>
</event>
<event>
 5    1  0.2361924E-004  0.6518963E+03  0.7818608E-02  0.9803227E-01
         13   -1    0    0    0    0  0.00000000000E+00  0.00000000000E+00  0.10000000000E+04  0.10000000000E+04  0.00000000000E+00 0. -1.
          2   -1    0    0  501    0 -0.00000000000E+00 -0.00000000000E+00 -0.10624221099E+03  0.10624221099E+03  0.00000000000E+00 0. -1.
    9000006    2    1    2  501    0  0.00000000000E+00  0.00000000000E+00  0.89375778901E+03  0.11062422110E+04  0.65189634450E+03 0.  0.
         13    1    3    3    0    0  0.76997993131E+02 -0.28364371582E+03  0.68602246308E+03  0.74633053557E+03  0.00000000000E+00 0. -1.
          2    1    3    3  501    0 -0.76997993131E+02  0.28364371582E+03  0.20773532593E+03  0.35991167543E+03  0.00000000000E+00 0. -1.
<mgrwt>
<rscale>  0 0.65189634E+03</rscale>
<asrwt>0</asrwt>
<pdfrwt beam="1">0</pdfrwt>
<pdfrwt beam="2">  1        2 0.38633613E+00 0.65189634E+03</pdfrwt>
<totfact> 0.44780362E+00</totfact>
</mgrwt>
</event>
<event>
 5    1  0.2361924E-004  0.6550074E+03  0.7818608E-02  0.9797428E-01
         13   -1    0    0    0    0  0.00000000000E+00  0.00000000000E+00  0.10000000000E+04  0.10000000000E+04  0.00000000000E+00 0. -1.
          2   -1    0    0  501    0 -0.00000000000E+00 -0.00000000000E+00 -0.10725865787E+03  0.10725865787E+03  0.00000000000E+00 0. -1.
    9000006    2    1    2  501    0  0.00000000000E+00  0.00000000000E+00  0.89274134213E+03  0.11072586579E+04  0.65500735224E+03 0.  0.
         13    1    3    3    0    0 -0.30083840494E+03  0.12280819733E+03  0.51551530691E+03  0.60937806892E+03  0.00000000000E+00 0. -1.
          4    1    3    3  501    0  0.30083840494E+03 -0.12280819733E+03  0.37722603522E+03  0.49788058896E+03  0.00000000000E+00 0. -1.
<mgrwt>
<rscale>  0 0.65500735E+03</rscale>
<asrwt>0</asrwt>
<pdfrwt beam="1">0</pdfrwt>
<pdfrwt beam="2">  1        2 0.39003231E+00 0.65500735E+03</pdfrwt>
<totfact> 0.43376497E+00</totfact>
</mgrwt>
</event>
<event>
 5    1  0.2361924E-004  0.6397433E+03  0.7818608E-02  0.9826218E-01
         13   -1    0    0    0    0  0.00000000000E+00  0.00000000000E+00  0.10000000000E+04  0.10000000000E+04  0.00000000000E+00 0. -1.
          2   -1    0    0  501    0 -0.00000000000E+00 -0.00000000000E+00 -0.10231785758E+03  0.10231785758E+03  0.00000000000E+00 0. -1.
    9000006    2    1    2  501    0  0.00000000000E+00  0.00000000000E+00  0.89768214242E+03  0.11023178576E+04  0.63974325343E+03 0.  0.
         13    1    3    3    0    0 -0.44336064401E+02  0.20796657101E+03  0.37097261582E+02  0.21585177340E+03  0.00000000000E+00 0. -1.
          4    1    3    3  501    0  0.44336064401E+02 -0.20796657101E+03  0.86058488084E+03  0.88646608418E+03  0.00000000000E+00 0. -1.
<mgrwt>
<rscale>  0 0.63974325E+03</rscale>
<asrwt>0</asrwt>
<pdfrwt beam="1">0</pdfrwt>
<pdfrwt beam="2">  1        2 0.37206572E+00 0.63974325E+03</pdfrwt>
<totfact> 0.50596460E+00</totfact>
</mgrwt>
</event>
<event>
 5    1  0.2361924E-004  0.6447158E+03  0.7818608E-02  0.9816746E-01
         13   -1    0    0    0    0  0.00000000000E+00  0.00000000000E+00  0.10000000000E+04  0.10000000000E+04  0.00000000000E+00 0. -1.
          2   -1    0    0  501    0 -0.00000000000E+00 -0.00000000000E+00 -0.10391460430E+03  0.10391460430E+03  0.00000000000E+00 0. -1.
    9000006    2    1    2  501    0  0.00000000000E+00  0.00000000000E+00  0.89608539570E+03  0.11039146043E+04  0.64471576465E+03 0.  0.
         13    1    3    3    0    0 -0.10059319331E+03  0.30345544260E+03  0.37722903430E+03  0.49447541951E+03  0.00000000000E+00 0. -1.
          4    1    3    3  501    0  0.10059319331E+03 -0.30345544260E+03  0.51885636140E+03  0.60943918479E+03  0.00000000000E+00 0. -1.
<mgrwt>
<rscale>  0 0.64471576E+03</rscale>
<asrwt>0</asrwt>
<pdfrwt beam="1">0</pdfrwt>
<pdfrwt beam="2">  1        2 0.37787209E+00 0.64471576E+03</pdfrwt>
<totfact> 0.48151638E+00</totfact>
</mgrwt>
</event>
<event>
 5    1  0.2361924E-004  0.6553111E+03  0.7818608E-02  0.9796864E-01
         13   -1    0    0    0    0  0.00000000000E+00  0.00000000000E+00  0.10000000000E+04  0.10000000000E+04  0.00000000000E+00 0. -1.
          2   -1    0    0  501    0 -0.00000000000E+00 -0.00000000000E+00 -0.10735816609E+03  0.10735816609E+03  0.00000000000E+00 0. -1.
    9000006    2    1    2  501    0  0.00000000000E+00  0.00000000000E+00  0.89264183391E+03  0.11073581661E+04  0.65531112028E+03 0.  0.
         13    1    3    3    0    0 -0.43476634474E+02  0.42123439735E+02  0.99046821380E+03  0.99231642356E+03  0.00000000000E+00 0. -1.
          2    1    3    3  501    0  0.43476634474E+02 -0.42123439735E+02 -0.97826379894E+02  0.11504174253E+03  0.00000000000E+00 0. -1.
<mgrwt>
<rscale>  0 0.65531112E+03</rscale>
<asrwt>0</asrwt>
<pdfrwt beam="1">0</pdfrwt>
<pdfrwt beam="2">  1        2 0.39039415E+00 0.65531112E+03</pdfrwt>
<totfact> 0.43241223E+00</totfact>
</mgrwt>
</event>
<event>
 5    1  0.2361924E-004  0.6538757E+03  0.7818608E-02  0.9799534E-01
         13   -1    0    0    0    0  0.00000000000E+00  0.00000000000E+00  0.10000000000E+04  0.10000000000E+04  0.00000000000E+00 0. -1.
          2   -1    0    0  501    0 -0.00000000000E+00 -0.00000000000E+00 -0.10688836942E+03  0.10688836942E+03  0.00000000000E+00 0. -1.
    9000006    2    1    2  501    0  0.00000000000E+00  0.00000000000E+00  0.89311163058E+03  0.11068883694E+04  0.65387573565E+03 0.  0.
         13    1    3    3    0    0 -0.96194200734E+02  0.30106672017E+03  0.30498701860E+03  0.43921700304E+03  0.00000000000E+00 0. -1.
          2    1    3    3  501    0  0.96194200734E+02 -0.30106672017E+03  0.58812461199E+03  0.66767136637E+03  0.00000000000E+00 0. -1.
<mgrwt>
<rscale>  0 0.65387574E+03</rscale>
<asrwt>0</asrwt>
<pdfrwt beam="1">0</pdfrwt>
<pdfrwt beam="2">  1        2 0.38868580E+00 0.65387574E+03</pdfrwt>
<totfact> 0.43883242E+00</totfact>
</mgrwt>
</event>
<event>
 5    1  0.2361924E-004  0.6502521E+03  0.7818608E-02  0.9806306E-01
         13   -1    0    0    0    0  0.00000000000E+00  0.00000000000E+00  0.10000000000E+04  0.10000000000E+04  0.00000000000E+00 0. -1.
          2   -1    0    0  501    0 -0.00000000000E+00 -0.00000000000E+00 -0.10570693435E+03  0.10570693435E+03  0.00000000000E+00 0. -1.
    9000006    2    1    2  501    0  0.00000000000E+00  0.00000000000E+00  0.89429306565E+03  0.11057069343E+04  0.65025205682E+03 0.  0.
         13    1    3    3    0    0 -0.71135026054E+01  0.19801855256E+03  0.88284343118E+01  0.19834286055E+03  0.00000000000E+00 0. -1.
          4    1    3    3  501    0  0.71135026054E+01 -0.19801855256E+03  0.88546463134E+03  0.90736407380E+03  0.00000000000E+00 0. -1.
<mgrwt>
<rscale>  0 0.65025206E+03</rscale>
<asrwt>0</asrwt>
<pdfrwt beam="1">0</pdfrwt>
<pdfrwt beam="2">  1        2 0.38438966E+00 0.65025206E+03</pdfrwt>
<totfact> 0.45536080E+00</totfact>
</mgrwt>
</event>
<event>
 5    1  0.2361924E-004  0.6503118E+03  0.7818608E-02  0.9806194E-01
         13   -1    0    0    0    0  0.00000000000E+00  0.00000000000E+00  0.10000000000E+04  0.10000000000E+04  0.00000000000E+00 0. -1.
          2   -1    0    0  501    0 -0.00000000000E+00 -0.00000000000E+00 -0.10572635189E+03  0.10572635189E+03  0.00000000000E+00 0. -1.
    9000006    2    1    2  501    0  0.00000000000E+00  0.00000000000E+00  0.89427364811E+03  0.11057263519E+04  0.65031177721E+03 0.  0.
         13    1    3    3    0    0  0.28582207503E+03 -0.12324631820E+03  0.28725022621E+03  0.42355236510E+03  0.00000000000E+00 0. -1.
          4    1    3    3  501    0 -0.28582207503E+03  0.12324631820E+03  0.60702342189E+03  0.68217398679E+03  0.00000000000E+00 0. -1.
<mgrwt>
<rscale>  0 0.65031178E+03</rscale>
<asrwt>0</asrwt>
<pdfrwt beam="1">0</pdfrwt>
<pdfrwt beam="2">  1        2 0.38446027E+00 0.65031178E+03</pdfrwt>
<totfact> 0.45508465E+00</totfact>
</mgrwt>
</event>
<event>
 5    1  0.2361924E-004  0.6001318E+03  0.7818608E-02  0.9905133E-01
         13   -1    0    0    0    0  0.00000000000E+00  0.00000000000E+00  0.10000000000E+04  0.10000000000E+04  0.00000000000E+00 0. -1.
          2   -1    0    0  501    0 -0.00000000000E+00 -0.00000000000E+00 -0.90039559196E+02  0.90039559196E+02  0.00000000000E+00 0. -1.
    9000006    2    1    2  501    0  0.00000000000E+00  0.00000000000E+00  0.90996044080E+03  0.10900395592E+04  0.60013184950E+03 0.  0.
         13    1    3    3    0    0 -0.73449428515E+02 -0.28948615606E+03  0.40225940602E+03  0.50100866542E+03  0.00000000000E+00 0. -1.
          4    1    3    3  501    0  0.73449428515E+02  0.28948615606E+03  0.50770103479E+03  0.58903089378E+03  0.00000000000E+00 0. -1.
<mgrwt>
<rscale>  0 0.60013185E+03</rscale>
<asrwt>0</asrwt>
<pdfrwt beam="1">0</pdfrwt>
<pdfrwt beam="2">  1        2 0.32741727E+00 0.60013185E+03</pdfrwt>
<totfact> 0.73605129E+00</totfact>
</mgrwt>
</event>
<event>
 5    1  0.2361924E-004  0.6486978E+03  0.7818608E-02  0.9809226E-01
         13   -1    0    0    0    0  0.00000000000E+00  0.00000000000E+00  0.10000000000E+04  0.10000000000E+04  0.00000000000E+00 0. -1.
          2   -1    0    0  501    0 -0.00000000000E+00 -0.00000000000E+00 -0.10520220418E+03  0.10520220418E+03  0.00000000000E+00 0. -1.
    9000006    2    1    2  501    0  0.00000000000E+00  0.00000000000E+00  0.89479779582E+03  0.11052022042E+04  0.64869778537E+03 0.  0.
         13    1    3    3    0    0  0.28350640984E+03 -0.14767189694E+03  0.35378191025E+03  0.47680657880E+03  0.00000000000E+00 0. -1.
          2    1    3    3  501    0 -0.28350640984E+03  0.14767189694E+03  0.54101588557E+03  0.62839562539E+03  0.00000000000E+00 0. -1.
<mgrwt>
<rscale>  0 0.64869779E+03</rscale>
<asrwt>0</asrwt>
<pdfrwt beam="1">0</pdfrwt>
<pdfrwt beam="2">  1        2 0.38255428E+00 0.64869779E+03</pdfrwt>
<totfact> 0.46259250E+00</totfact>
</mgrwt>
</event>
<event>
 5    1  0.2361924E-004  0.6433785E+03  0.7818608E-02  0.9819284E-01
         13   -1    0    0    0    0  0.00000000000E+00  0.00000000000E+00  0.10000000000E+04  0.10000000000E+04  0.00000000000E+00 0. -1.
          2   -1    0    0  501    0 -0.00000000000E+00 -0.00000000000E+00 -0.10348396665E+03  0.10348396665E+03  0.00000000000E+00 0. -1.
    9000006    2    1    2  501    0  0.00000000000E+00  0.00000000000E+00  0.89651603335E+03  0.11034839666E+04  0.64337847849E+03 0.  0.
         13    1    3    3    0    0 -0.13760192032E+03  0.28028005106E+03  0.31548392329E+03  0.44387081606E+03  0.00000000000E+00 0. -1.
          4    1    3    3  501    0  0.13760192032E+03 -0.28028005106E+03  0.58103211006E+03  0.65961315058E+03  0.00000000000E+00 0. -1.
<mgrwt>
<rscale>  0 0.64337848E+03</rscale>
<asrwt>0</asrwt>
<pdfrwt beam="1">0</pdfrwt>
<pdfrwt beam="2">  1        2 0.37630613E+00 0.64337848E+03</pdfrwt>
<totfact> 0.48800110E+00</totfact>
</mgrwt>
</event>
<event>
 5    1  0.2361924E-004  0.5996541E+03  0.7818608E-02  0.9906124E-01
         13   -1    0    0    0    0  0.00000000000E+00  0.00000000000E+00  0.10000000000E+04  0.10000000000E+04  0.00000000000E+00 0. -1.
          2   -1    0    0  501    0 -0.00000000000E+00 -0.00000000000E+00 -0.89896258126E+02  0.89896258126E+02  0.00000000000E+00 0. -1.
    9000006    2    1    2  501    0  0.00000000000E+00  0.00000000000E+00  0.91010374187E+03  0.10898962581E+04  0.59965409404E+03 0.  0.
         13    1    3    3    0    0 -0.21377108084E+03 -0.17586553759E+03  0.24568326117E+03  0.37011758555E+03  0.00000000000E+00 0. -1.
          4    1    3    3  501    0  0.21377108084E+03  0.17586553759E+03  0.66442048071E+03  0.71977867258E+03  0.00000000000E+00 0. -1.
<mgrwt>
<rscale>  0 0.59965409E+03</rscale>
<asrwt>0</asrwt>
<pdfrwt beam="1">0</pdfrwt>
<pdfrwt beam="2">  1        2 0.32689617E+00 0.59965409E+03</pdfrwt>
<totfact> 0.73924098E+00</totfact>
</mgrwt>
</event>
<event>
 5    1  0.2361924E-004  0.6384095E+03  0.7818608E-02  0.9828774E-01
         13   -1    0    0    0    0  0.00000000000E+00  0.00000000000E+00  0.10000000000E+04  0.10000000000E+04  0.00000000000E+00 0. -1.
          2   -1    0    0  501    0 -0.00000000000E+00 -0.00000000000E+00 -0.10189167340E+03  0.10189167340E+03  0.00000000000E+00 0. -1.
    9000006    2    1    2  501    0  0.00000000000E+00  0.00000000000E+00  0.89810832660E+03  0.11018916734E+04  0.63840950308E+03 0.  0.
         13    1    3    3    0    0  0.17760093345E+03  0.18372581107E+03  0.11887708346E+03  0.28183155640E+03  0.00000000000E+00 0. -1.
          4    1    3    3  501    0 -0.17760093345E+03 -0.18372581107E+03  0.77923124314E+03  0.82006011700E+03  0.00000000000E+00 0. -1.
<mgrwt>
<rscale>  0 0.63840950E+03</rscale>
<asrwt>0</asrwt>
<pdfrwt beam="1">0</pdfrwt>
<pdfrwt beam="2">  1        2 0.37051596E+00 0.63840950E+03</pdfrwt>
<totfact> 0.51267942E+00</totfact>
</mgrwt>
</event>
<event>
 5    1  0.2361924E-004  0.6495197E+03  0.7818608E-02  0.9807681E-01
         13   -1    0    0    0    0  0.00000000000E+00  0.00000000000E+00  0.10000000000E+04  0.10000000000E+04  0.00000000000E+00 0. -1.
          2   -1    0    0  501    0 -0.00000000000E+00 -0.00000000000E+00 -0.10546896766E+03  0.10546896766E+03  0.00000000000E+00 0. -1.
    9000006    2    1    2  501    0  0.00000000000E+00  0.00000000000E+00  0.89453103234E+03  0.11054689677E+04  0.64951972307E+03 0.  0.
         13    1    3    3    0    0 -0.93728027675E+02 -0.31034976946E+03  0.41465828501E+03  0.52634913878E+03  0.00000000000E+00 0. -1.
          2    1    3    3  501    0  0.93728027675E+02  0.31034976946E+03  0.47987274733E+03  0.57911982888E+03  0.00000000000E+00 0. -1.
<mgrwt>
<rscale>  0 0.64951972E+03</rscale>
<asrwt>0</asrwt>
<pdfrwt beam="1">0</pdfrwt>
<pdfrwt beam="2">  1        2 0.38352433E+00 0.64951972E+03</pdfrwt>
<totfact> 0.45875747E+00</totfact>
</mgrwt>
</event>
<event>
 5    1  0.2361924E-004  0.6427324E+03  0.7818608E-02  0.9820513E-01
         13   -1    0    0    0    0  0.00000000000E+00  0.00000000000E+00  0.10000000000E+04  0.10000000000E+04  0.00000000000E+00 0. -1.
          2   -1    0    0  501    0 -0.00000000000E+00 -0.00000000000E+00 -0.10327624897E+03  0.10327624897E+03  0.00000000000E+00 0. -1.
    9000006    2    1    2  501    0  0.00000000000E+00  0.00000000000E+00  0.89672375103E+03  0.11032762490E+04  0.64273244501E+03 0.  0.
         13    1    3    3    0    0 -0.24537002833E+03 -0.11047612196E+02  0.80409494980E+03  0.84077178166E+03  0.00000000000E+00 0. -1.
          4    1    3    3  501    0  0.24537002833E+03  0.11047612196E+02  0.92628801231E+02  0.26250446731E+03  0.00000000000E+00 0. -1.
<mgrwt>
<rscale>  0 0.64273245E+03</rscale>
<asrwt>0</asrwt>
<pdfrwt beam="1">0</pdfrwt>
<pdfrwt beam="2">  1        2 0.37555079E+00 0.64273245E+03</pdfrwt>
<totfact> 0.49115740E+00</totfact>
</mgrwt>
</event>
<event>
 5    1  0.2361924E-004  0.6459868E+03  0.7818608E-02  0.9814339E-01
         13   -1    0    0    0    0  0.00000000000E+00  0.00000000000E+00  0.10000000000E+04  0.10000000000E+04  0.00000000000E+00 0. -1.
          2   -1    0    0  501    0 -0.00000000000E+00 -0.00000000000E+00 -0.10432474034E+03  0.10432474034E+03  0.00000000000E+00 0. -1.
    9000006    2    1    2  501    0  0.00000000000E+00  0.00000000000E+00  0.89567525966E+03  0.11043247403E+04  0.64598681207E+03 0.  0.
         13    1    3    3    0    0  0.82544966026E+02 -0.23719540902E+03  0.79503945858E+03  0.83376439969E+03  0.00000000000E+00 0. -1.
          4    1    3    3  501    0 -0.82544966026E+02  0.23719540902E+03  0.10063580107E+03  0.27056034066E+03  0.00000000000E+00 0. -1.
<mgrwt>
<rscale>  0 0.64598681E+03</rscale>
<asrwt>0</asrwt>
<pdfrwt beam="1">0</pdfrwt>
<pdfrwt beam="2">  1        2 0.37936349E+00 0.64598681E+03</pdfrwt>
<totfact> 0.47541351E+00</totfact>
</mgrwt>
</event>
<event>
 5    1  0.2361924E-004  0.6633507E+03  0.7818608E-02  0.9782045E-01
         13   -1    0    0    0    0  0.00000000000E+00  0.00000000000E+00  0.10000000000E+04  0.10000000000E+04  0.00000000000E+00 0. -1.
          2   -1    0    0  501    0 -0.00000000000E+00 -0.00000000000E+00 -0.11000854386E+03  0.11000854386E+03  0.00000000000E+00 0. -1.
    9000006    2    1    2  501    0  0.00000000000E+00  0.00000000000E+00  0.88999145614E+03  0.11100085439E+04  0.66335071829E+03 0.  0.
         13    1    3    3    0    0 -0.75872602855E+02  0.29821311806E+03  0.23787467792E+03  0.38893711322E+03  0.00000000000E+00 0. -1.
          2    1    3    3  501    0  0.75872602855E+02 -0.29821311806E+03  0.65211677822E+03  0.72107143064E+03  0.00000000000E+00 0. -1.
<mgrwt>
<rscale>  0 0.66335072E+03</rscale>
<asrwt>0</asrwt>
<pdfrwt beam="1">0</pdfrwt>
<pdfrwt beam="2">  1        2 0.40003191E+00 0.66335072E+03</pdfrwt>
<totfact> 0.39775517E+00</totfact>
</mgrwt>
</event>
<event>
 5    1  0.2361924E-004  0.5731134E+03  0.7818608E-02  0.9962813E-01
         13   -1    0    0    0    0  0.00000000000E+00  0.00000000000E+00  0.10000000000E+04  0.10000000000E+04  0.00000000000E+00 0. -1.
          2   -1    0    0  501    0 -0.00000000000E+00 -0.00000000000E+00 -0.82114748697E+02  0.82114748697E+02  0.00000000000E+00 0. -1.
    9000006    2    1    2  501    0  0.00000000000E+00  0.00000000000E+00  0.91788525130E+03  0.10821147487E+04  0.57311342227E+03 0.  0.
         13    1    3    3    0    0 -0.57233033417E+02  0.58687087946E+02  0.97738904302E+03  0.98082064406E+03  0.00000000000E+00 0. -1.
          4    1    3    3  501    0  0.57233033417E+02 -0.58687087946E+02 -0.59503791714E+02  0.10129410464E+03  0.00000000000E+00 0. -1.
<mgrwt>
<rscale>  0 0.57311342E+03</rscale>
<asrwt>0</asrwt>
<pdfrwt beam="1">0</pdfrwt>
<pdfrwt beam="2">  1        2 0.29859972E+00 0.57311342E+03</pdfrwt>
<totfact> 0.93398832E+00</totfact>
</mgrwt>
</event>
<event>
 5    1  0.2361924E-004  0.6505812E+03  0.7818608E-02  0.9805689E-01
         13   -1    0    0    0    0  0.00000000000E+00  0.00000000000E+00  0.10000000000E+04  0.10000000000E+04  0.00000000000E+00 0. -1.
          2   -1    0    0  501    0 -0.00000000000E+00 -0.00000000000E+00 -0.10581398265E+03  0.10581398265E+03  0.00000000000E+00 0. -1.
    9000006    2    1    2  501    0  0.00000000000E+00  0.00000000000E+00  0.89418601735E+03  0.11058139826E+04  0.65058122521E+03 0.  0.
         13    1    3    3    0    0 -0.13637207964E+03 -0.29090300597E+03  0.53363058409E+03  0.62288321800E+03  0.00000000000E+00 0. -1.
          2    1    3    3  501    0  0.13637207964E+03  0.29090300597E+03  0.36055543326E+03  0.48293076464E+03  0.00000000000E+00 0. -1.
<mgrwt>
<rscale>  0 0.65058123E+03</rscale>
<asrwt>0</asrwt>
<pdfrwt beam="1">0</pdfrwt>
<pdfrwt beam="2">  1        2 0.38477893E+00 0.65058123E+03</pdfrwt>
<totfact> 0.45384028E+00</totfact>
</mgrwt>
</event>
<event>
 5    1  0.2361924E-004  0.6612246E+03  0.7818608E-02  0.9785942E-01
         13   -1    0    0    0    0  0.00000000000E+00  0.00000000000E+00  0.10000000000E+04  0.10000000000E+04  0.00000000000E+00 0. -1.
          2   -1    0    0  501    0 -0.00000000000E+00 -0.00000000000E+00 -0.10930449733E+03  0.10930449733E+03  0.00000000000E+00 0. -1.
    9000006    2    1    2  501    0  0.00000000000E+00  0.00000000000E+00  0.89069550267E+03  0.11093044973E+04  0.66122461336E+03 0.  0.
         13    1    3    3    0    0  0.23974736424E+03 -0.43184984026E+02  0.70360707824E+02  0.25356334654E+03  0.00000000000E+00 0. -1.
          4    1    3    3  501    0 -0.23974736424E+03  0.43184984026E+02  0.82033479485E+03  0.85574115078E+03  0.00000000000E+00 0. -1.
<mgrwt>
<rscale>  0 0.66122461E+03</rscale>
<asrwt>0</asrwt>
<pdfrwt beam="1">0</pdfrwt>
<pdfrwt beam="2">  1        2 0.39747174E+00 0.66122461E+03</pdfrwt>
<totfact> 0.40670829E+00</totfact>
</mgrwt>
</event>
<event>
 5    1  0.2361924E-004  0.6458981E+03  0.7818608E-02  0.9814507E-01
         13   -1    0    0    0    0  0.00000000000E+00  0.00000000000E+00  0.10000000000E+04  0.10000000000E+04  0.00000000000E+00 0. -1.
          2   -1    0    0  501    0 -0.00000000000E+00 -0.00000000000E+00 -0.10429609703E+03  0.10429609703E+03  0.00000000000E+00 0. -1.
    9000006    2    1    2  501    0  0.00000000000E+00  0.00000000000E+00  0.89570390297E+03  0.11042960970E+04  0.64589812518E+03 0.  0.
         13    1    3    3    0    0  0.11248754127E+03  0.25927983798E+03  0.71500753001E+03  0.76884019750E+03  0.00000000000E+00 0. -1.
          2    1    3    3  501    0 -0.11248754127E+03 -0.25927983798E+03  0.18069637296E+03  0.33545589953E+03  0.00000000000E+00 0. -1.
<mgrwt>
<rscale>  0 0.64589813E+03</rscale>
<asrwt>0</asrwt>
<pdfrwt beam="1">0</pdfrwt>
<pdfrwt beam="2">  1        2 0.37925933E+00 0.64589813E+03</pdfrwt>
<totfact> 0.47583743E+00</totfact>
</mgrwt>
</event>
<event>
 5    1  0.2361924E-004  0.6471692E+03  0.7818608E-02  0.9812106E-01
         13   -1    0    0    0    0  0.00000000000E+00  0.00000000000E+00  0.10000000000E+04  0.10000000000E+04  0.00000000000E+00 0. -1.
          2   -1    0    0  501    0 -0.00000000000E+00 -0.00000000000E+00 -0.10470698569E+03  0.10470698569E+03  0.00000000000E+00 0. -1.
    9000006    2    1    2  501    0  0.00000000000E+00  0.00000000000E+00  0.89529301431E+03  0.11047069857E+04  0.64716917632E+03 0.  0.
         13    1    3    3    0    0 -0.23044040922E+03  0.48755471457E+02  0.82637801335E+03  0.85929069537E+03  0.00000000000E+00 0. -1.
          4    1    3    3  501    0  0.23044040922E+03 -0.48755471457E+02  0.68915000958E+02  0.24541629032E+03  0.00000000000E+00 0. -1.
<mgrwt>
<rscale>  0 0.64716918E+03</rscale>
<asrwt>0</asrwt>
<pdfrwt beam="1">0</pdfrwt>
<pdfrwt beam="2">  1        2 0.38075348E+00 0.64716918E+03</pdfrwt>
<totfact> 0.46978916E+00</totfact>
</mgrwt>
</event>
<event>
 5    1  0.2361924E-004  0.6452239E+03  0.7818608E-02  0.9815783E-01
         13   -1    0    0    0    0  0.00000000000E+00  0.00000000000E+00  0.10000000000E+04  0.10000000000E+04  0.00000000000E+00 0. -1.
          2   -1    0    0  501    0 -0.00000000000E+00 -0.00000000000E+00 -0.10407847709E+03  0.10407847709E+03  0.00000000000E+00 0. -1.
    9000006    2    1    2  501    0  0.00000000000E+00  0.00000000000E+00  0.89592152291E+03  0.11040784771E+04  0.64522392112E+03 0.  0.
         13    1    3    3    0    0  0.20069706462E+03  0.16315877817E+03  0.77790056061E+03  0.81977398156E+03  0.00000000000E+00 0. -1.
          4    1    3    3  501    0 -0.20069706462E+03 -0.16315877817E+03  0.11802096230E+03  0.28430449554E+03  0.00000000000E+00 0. -1.
<mgrwt>
<rscale>  0 0.64522392E+03</rscale>
<asrwt>0</asrwt>
<pdfrwt beam="1">0</pdfrwt>
<pdfrwt beam="2">  1        2 0.37846799E+00 0.64522392E+03</pdfrwt>
<totfact> 0.47906943E+00</totfact>
</mgrwt>
</event>
<event>
 5    1  0.2361924E-004  0.6423397E+03  0.7818608E-02  0.9821260E-01
         13   -1    0    0    0    0  0.00000000000E+00  0.00000000000E+00  0.10000000000E+04  0.10000000000E+04  0.00000000000E+00 0. -1.
          2   -1    0    0  501    0 -0.00000000000E+00 -0.00000000000E+00 -0.10315006195E+03  0.10315006195E+03  0.00000000000E+00 0. -1.
    9000006    2    1    2  501    0  0.00000000000E+00  0.00000000000E+00  0.89684993805E+03  0.11031500620E+04  0.64233966700E+03 0.  0.
         13    1    3    3    0    0 -0.63331402049E+02 -0.28556798187E+03  0.67619904424E+03  0.73675307002E+03  0.00000000000E+00 0. -1.
          2    1    3    3  501    0  0.63331402049E+02  0.28556798187E+03  0.22065089381E+03  0.36639699193E+03  0.00000000000E+00 0. -1.
<mgrwt>
<rscale>  0 0.64233967E+03</rscale>
<asrwt>0</asrwt>
<pdfrwt beam="1">0</pdfrwt>
<pdfrwt beam="2">  1        2 0.37509193E+00 0.64233967E+03</pdfrwt>
<totfact> 0.49308408E+00</totfact>
</mgrwt>
</event>
<event>
 5    1  0.2361924E-004  0.6452417E+03  0.7818608E-02  0.9815749E-01
         13   -1    0    0    0    0  0.00000000000E+00  0.00000000000E+00  0.10000000000E+04  0.10000000000E+04  0.00000000000E+00 0. -1.
          2   -1    0    0  501    0 -0.00000000000E+00 -0.00000000000E+00 -0.10408419897E+03  0.10408419897E+03  0.00000000000E+00 0. -1.
    9000006    2    1    2  501    0  0.00000000000E+00  0.00000000000E+00  0.89591580103E+03  0.11040841990E+04  0.64524165695E+03 0.  0.
         13    1    3    3    0    0 -0.22701435246E+03  0.93202436188E+02  0.89594246838E+02  0.26124574523E+03  0.00000000000E+00 0. -1.
          2    1    3    3  501    0  0.22701435246E+03 -0.93202436188E+02  0.80632155420E+03  0.84283845374E+03  0.00000000000E+00 0. -1.
<mgrwt>
<rscale>  0 0.64524166E+03</rscale>
<asrwt>0</asrwt>
<pdfrwt beam="1">0</pdfrwt>
<pdfrwt beam="2">  1        2 0.37848879E+00 0.64524166E+03</pdfrwt>
<totfact> 0.47898419E+00</totfact>
</mgrwt>
</event>
<event>
 5    1  0.2361924E-004  0.6626600E+03  0.7818608E-02  0.9783309E-01
         13   -1    0    0    0    0  0.00000000000E+00  0.00000000000E+00  0.10000000000E+04  0.10000000000E+04  0.00000000000E+00 0. -1.
          2   -1    0    0  501    0 -0.00000000000E+00 -0.00000000000E+00 -0.10977956781E+03  0.10977956781E+03  0.00000000000E+00 0. -1.
    9000006    2    1    2  501    0  0.00000000000E+00  0.00000000000E+00  0.89022043219E+03  0.11097795678E+04  0.66265999670E+03 0.  0.
         13    1    3    3    0    0  0.28891030247E+03  0.12144355475E+03  0.26503250035E+03  0.41043869957E+03  0.00000000000E+00 0. -1.
          4    1    3    3  501    0 -0.28891030247E+03 -0.12144355475E+03  0.62518793185E+03  0.69934086824E+03  0.00000000000E+00 0. -1.
<mgrwt>
<rscale>  0 0.66266000E+03</rscale>
<asrwt>0</asrwt>
<pdfrwt beam="1">0</pdfrwt>
<pdfrwt beam="2">  1        2 0.39919927E+00 0.66266000E+03</pdfrwt>
<totfact> 0.40064735E+00</totfact>
</mgrwt>
</event>
<event>
 5    1  0.2361924E-004  0.6472778E+03  0.7818608E-02  0.9811901E-01
         13   -1    0    0    0    0  0.00000000000E+00  0.00000000000E+00  0.10000000000E+04  0.10000000000E+04  0.00000000000E+00 0. -1.
          2   -1    0    0  501    0 -0.00000000000E+00 -0.00000000000E+00 -0.10474213922E+03  0.10474213922E+03  0.00000000000E+00 0. -1.
    9000006    2    1    2  501    0  0.00000000000E+00  0.00000000000E+00  0.89525786078E+03  0.11047421392E+04  0.64727780503E+03 0.  0.
         13    1    3    3    0    0  0.31782934019E+03  0.59916267767E+02  0.42767449191E+03  0.53620044728E+03  0.00000000000E+00 0. -1.
          2    1    3    3  501    0 -0.31782934019E+03 -0.59916267767E+02  0.46758336887E+03  0.56854169194E+03  0.00000000000E+00 0. -1.
<mgrwt>
<rscale>  0 0.64727781E+03</rscale>
<asrwt>0</asrwt>
<pdfrwt beam="1">0</pdfrwt>
<pdfrwt beam="2">  1        2 0.38088131E+00 0.64727781E+03</pdfrwt>
<totfact> 0.46927496E+00</totfact>
</mgrwt>
</event>
<event>
 5    1  0.2361924E-004  0.6567674E+03  0.7818608E-02  0.9794163E-01
         13   -1    0    0    0    0  0.00000000000E+00  0.00000000000E+00  0.10000000000E+04  0.10000000000E+04  0.00000000000E+00 0. -1.
          2   -1    0    0  501    0 -0.00000000000E+00 -0.00000000000E+00 -0.10783586185E+03  0.10783586185E+03  0.00000000000E+00 0. -1.
    9000006    2    1    2  501    0  0.00000000000E+00  0.00000000000E+00  0.89216413815E+03  0.11078358618E+04  0.65676742260E+03 0.  0.
         13    1    3    3    0    0 -0.31904375423E+02 -0.27356210774E+03  0.14442403164E+03  0.31098620046E+03  0.00000000000E+00 0. -1.
          4    1    3    3  501    0  0.31904375423E+02  0.27356210774E+03  0.74774010652E+03  0.79684966139E+03  0.00000000000E+00 0. -1.
<mgrwt>
<rscale>  0 0.65676742E+03</rscale>
<asrwt>0</asrwt>
<pdfrwt beam="1">0</pdfrwt>
<pdfrwt beam="2">  1        2 0.39213123E+00 0.65676742E+03</pdfrwt>
<totfact> 0.42597124E+00</totfact>
</mgrwt>
</event>
<event>
 5    1  0.2361924E-004  0.6476238E+03  0.7818608E-02  0.9811248E-01
         13   -1    0    0    0    0  0.00000000000E+00  0.00000000000E+00  0.10000000000E+04  0.10000000000E+04  0.00000000000E+00 0. -1.
          2   -1    0    0  501    0 -0.00000000000E+00 -0.00000000000E+00 -0.10485414760E+03  0.10485414760E+03  0.00000000000E+00 0. -1.
    9000006    2    1    2  501    0  0.00000000000E+00  0.00000000000E+00  0.89514585240E+03  0.11048541476E+04  0.64762380314E+03 0.  0.
         13    1    3    3    0    0  0.24163627497E+03  0.20318337093E+03  0.32475691535E+03  0.45292231748E+03  0.00000000000E+00 0. -1.
          2    1    3    3  501    0 -0.24163627497E+03 -0.20318337093E+03  0.57038893705E+03  0.65193183011E+03  0.00000000000E+00 0. -1.
<mgrwt>
<rscale>  0 0.64762380E+03</rscale>
<asrwt>0</asrwt>
<pdfrwt beam="1">0</pdfrwt>
<pdfrwt beam="2">  1        2 0.38128861E+00 0.64762380E+03</pdfrwt>
<totfact> 0.46764000E+00</totfact>
</mgrwt>
</event>
<event>
 5    1  0.2361924E-004  0.5984667E+03  0.7818608E-02  0.9908592E-01
         13   -1    0    0    0    0  0.00000000000E+00  0.00000000000E+00  0.10000000000E+04  0.10000000000E+04  0.00000000000E+00 0. -1.
          2   -1    0    0  501    0 -0.00000000000E+00 -0.00000000000E+00 -0.89540591264E+02  0.89540591264E+02  0.00000000000E+00 0. -1.
    9000006    2    1    2  501    0  0.00000000000E+00  0.00000000000E+00  0.91045940874E+03  0.10895405913E+04  0.59846667832E+03 0.  0.
         13    1    3    3    0    0 -0.20050833670E+03  0.16774349651E+03  0.19015863407E+03  0.32326735038E+03  0.00000000000E+00 0. -1.
          2    1    3    3  501    0  0.20050833670E+03 -0.16774349651E+03  0.72030077467E+03  0.76627324089E+03  0.00000000000E+00 0. -1.
<mgrwt>
<rscale>  0 0.59846668E+03</rscale>
<asrwt>0</asrwt>
<pdfrwt beam="1">0</pdfrwt>
<pdfrwt beam="2">  1        2 0.32560284E+00 0.59846668E+03</pdfrwt>
<totfact> 0.74721458E+00</totfact>
</mgrwt>
</event>
<event>
 5    1  0.2361924E-004  0.6495031E+03  0.7818608E-02  0.9807712E-01
         13   -1    0    0    0    0  0.00000000000E+00  0.00000000000E+00  0.10000000000E+04  0.10000000000E+04  0.00000000000E+00 0. -1.
          2   -1    0    0  501    0 -0.00000000000E+00 -0.00000000000E+00 -0.10546357082E+03  0.10546357082E+03  0.00000000000E+00 0. -1.
    9000006    2    1    2  501    0  0.00000000000E+00  0.00000000000E+00  0.89453642918E+03  0.11054635708E+04  0.64950310491E+03 0.  0.
         13    1    3    3    0    0  0.93608546710E+02  0.41383187672E+02  0.97183234166E+03  0.97720685043E+03  0.00000000000E+00 0. -1.
          2    1    3    3  501    0 -0.93608546710E+02 -0.41383187672E+02 -0.77295912481E+02  0.12825672039E+03  0.00000000000E+00 0. -1.
<mgrwt>
<rscale>  0 0.64950310E+03</rscale>
<asrwt>0</asrwt>
<pdfrwt beam="1">0</pdfrwt>
<pdfrwt beam="2">  1        2 0.38350470E+00 0.64950310E+03</pdfrwt>
<totfact> 0.45883477E+00</totfact>
</mgrwt>
</event>
<event>
 5    1  0.2361924E-004  0.6464625E+03  0.7818608E-02  0.9813440E-01
         13   -1    0    0    0    0  0.00000000000E+00  0.00000000000E+00  0.10000000000E+04  0.10000000000E+04  0.00000000000E+00 0. -1.
          2   -1    0    0  501    0 -0.00000000000E+00 -0.00000000000E+00 -0.10447845395E+03  0.10447845395E+03  0.00000000000E+00 0. -1.
    9000006    2    1    2  501    0  0.00000000000E+00  0.00000000000E+00  0.89552154605E+03  0.11044784539E+04  0.64646254013E+03 0.  0.
         13    1    3    3    0    0  0.93480004112E+02 -0.29784903408E+03  0.30455361300E+03  0.43612551113E+03  0.00000000000E+00 0. -1.
          2    1    3    3  501    0 -0.93480004112E+02  0.29784903408E+03  0.59096793306E+03  0.66835294282E+03  0.00000000000E+00 0. -1.
<mgrwt>
<rscale>  0 0.64646254E+03</rscale>
<asrwt>0</asrwt>
<pdfrwt beam="1">0</pdfrwt>
<pdfrwt beam="2">  1        2 0.37992245E+00 0.64646254E+03</pdfrwt>
<totfact> 0.47314445E+00</totfact>
</mgrwt>
</event>
<event>
 5    1  0.2361924E-004  0.6442777E+03  0.7818608E-02  0.9817576E-01
         13   -1    0    0    0    0  0.00000000000E+00  0.00000000000E+00  0.10000000000E+04  0.10000000000E+04  0.00000000000E+00 0. -1.
          2   -1    0    0  501    0 -0.00000000000E+00 -0.00000000000E+00 -0.10377342715E+03  0.10377342715E+03  0.00000000000E+00 0. -1.
    9000006    2    1    2  501    0  0.00000000000E+00  0.00000000000E+00  0.89622657285E+03  0.11037734272E+04  0.64427766422E+03 0.  0.
         13    1    3    3    0    0  0.18815642422E+03 -0.70648949442E+02  0.16812129609E+02  0.20168480789E+03  0.00000000000E+00 0. -1.
          4    1    3    3  501    0 -0.18815642422E+03  0.70648949442E+02  0.87941444324E+03  0.90208861926E+03  0.00000000000E+00 0. -1.
<mgrwt>
<rscale>  0 0.64427766E+03</rscale>
<asrwt>0</asrwt>
<pdfrwt beam="1">0</pdfrwt>
<pdfrwt beam="2">  1        2 0.37735871E+00 0.64427766E+03</pdfrwt>
<totfact> 0.48363357E+00</totfact>
</mgrwt>
</event>
<event>
 5    1  0.2361924E-004  0.6406943E+03  0.7818608E-02  0.9824399E-01
         13   -1    0    0    0    0  0.00000000000E+00  0.00000000000E+00  0.10000000000E+04  0.10000000000E+04  0.00000000000E+00 0. -1.
          2   -1    0    0  501    0 -0.00000000000E+00 -0.00000000000E+00 -0.10262231144E+03  0.10262231144E+03  0.00000000000E+00 0. -1.
    9000006    2    1    2  501    0  0.00000000000E+00  0.00000000000E+00  0.89737768856E+03  0.11026223114E+04  0.64069434660E+03 0.  0.
         13    1    3    3    0    0  0.30011493239E+03  0.11112540818E+03  0.47329840788E+03  0.57133983922E+03  0.00000000000E+00 0. -1.
          2    1    3    3  501    0 -0.30011493239E+03 -0.11112540818E+03  0.42407928068E+03  0.53128247222E+03  0.00000000000E+00 0. -1.
<mgrwt>
<rscale>  0 0.64069435E+03</rscale>
<asrwt>0</asrwt>
<pdfrwt beam="1">0</pdfrwt>
<pdfrwt beam="2">  1        2 0.37317283E+00 0.64069435E+03</pdfrwt>
<totfact> 0.50121712E+00</totfact>
</mgrwt>
</event>
<event>
 5    1  0.2361924E-004  0.6612185E+03  0.7818608E-02  0.9785953E-01
         13   -1    0    0    0    0  0.00000000000E+00  0.00000000000E+00  0.10000000000E+04  0.10000000000E+04  0.00000000000E+00 0. -1.
          2   -1    0    0  501    0 -0.00000000000E+00 -0.00000000000E+00 -0.10930247998E+03  0.10930247998E+03  0.00000000000E+00 0. -1.
    9000006    2    1    2  501    0  0.00000000000E+00  0.00000000000E+00  0.89069752002E+03  0.11093024800E+04  0.66121851148E+03 0.  0.
         13    1    3    3    0    0 -0.31508255859E+03 -0.71221387535E+02  0.32727916933E+03  0.45984906159E+03  0.00000000000E+00 0. -1.
          2    1    3    3  501    0  0.31508255859E+03  0.71221387535E+02  0.56341835069E+03  0.64945341839E+03  0.00000000000E+00 0. -1.
<mgrwt>
<rscale>  0 0.66121851E+03</rscale>
<asrwt>0</asrwt>
<pdfrwt beam="1">0</pdfrwt>
<pdfrwt beam="2">  1        2 0.39746440E+00 0.66121851E+03</pdfrwt>
<totfact> 0.40673420E+00</totfact>
</mgrwt>
</event>
<event>
 5    1  0.2361924E-004  0.6467877E+03  0.7818608E-02  0.9812826E-01
         13   -1    0    0    0    0  0.00000000000E+00  0.00000000000E+00  0.10000000000E+04  0.10000000000E+04  0.00000000000E+00 0. -1.
          2   -1    0    0  501    0 -0.00000000000E+00 -0.00000000000E+00 -0.10458358924E+03  0.10458358924E+03  0.00000000000E+00 0. -1.
    9000006    2    1    2  501    0  0.00000000000E+00  0.00000000000E+00  0.89541641076E+03  0.11045835892E+04  0.64678772170E+03 0.  0.
         13    1    3    3    0    0  0.27299519410E+03 -0.17295886448E+03  0.46809080440E+03  0.56881468509E+03  0.00000000000E+00 0. -1.
          2    1    3    3  501    0 -0.27299519410E+03  0.17295886448E+03  0.42732560636E+03  0.53576890415E+03  0.00000000000E+00 0. -1.
<mgrwt>
<rscale>  0 0.64678772E+03</rscale>
<asrwt>0</asrwt>
<pdfrwt beam="1">0</pdfrwt>
<pdfrwt beam="2">  1        2 0.38030476E+00 0.64678772E+03</pdfrwt>
<totfact> 0.47159816E+00</totfact>
</mgrwt>
</event>
<event>
 5    1  0.2361924E-004  0.6480571E+03  0.7818608E-02  0.9810432E-01
         13   -1    0    0    0    0  0.00000000000E+00  0.00000000000E+00  0.10000000000E+04  0.10000000000E+04  0.00000000000E+00 0. -1.
          2   -1    0    0  501    0 -0.00000000000E+00 -0.00000000000E+00 -0.10499448832E+03  0.10499448832E+03  0.00000000000E+00 0. -1.
    9000006    2    1    2  501    0  0.00000000000E+00  0.00000000000E+00  0.89500551168E+03  0.11049944883E+04  0.64805706021E+03 0.  0.
         13    1    3    3    0    0 -0.79928219974E+01  0.32372530503E+03  0.46713201777E+03  0.56839623533E+03  0.00000000000E+00 0. -1.
          2    1    3    3  501    0  0.79928219974E+01 -0.32372530503E+03  0.42787349391E+03  0.53659825299E+03  0.00000000000E+00 0. -1.
<mgrwt>
<rscale>  0 0.64805706E+03</rscale>
<asrwt>0</asrwt>
<pdfrwt beam="1">0</pdfrwt>
<pdfrwt beam="2">  1        2 0.38179894E+00 0.64805706E+03</pdfrwt>
<totfact> 0.46559880E+00</totfact>
</mgrwt>
</event>
<event>
 5    1  0.2361924E-004  0.6569999E+03  0.7818608E-02  0.9793732E-01
         13   -1    0    0    0    0  0.00000000000E+00  0.00000000000E+00  0.10000000000E+04  0.10000000000E+04  0.00000000000E+00 0. -1.
          2   -1    0    0  501    0 -0.00000000000E+00 -0.00000000000E+00 -0.10791221728E+03  0.10791221728E+03  0.00000000000E+00 0. -1.
    9000006    2    1    2  501    0  0.00000000000E+00  0.00000000000E+00  0.89208778272E+03  0.11079122173E+04  0.65699990041E+03 0.  0.
         13    1    3    3    0    0 -0.29171903524E+03 -0.86099603843E+02  0.65530447637E+03  0.72245213963E+03  0.00000000000E+00 0. -1.
          2    1    3    3  501    0  0.29171903524E+03  0.86099603843E+02  0.23678330634E+03  0.38546007765E+03  0.00000000000E+00 0. -1.
<mgrwt>
<rscale>  0 0.65699990E+03</rscale>
<asrwt>0</asrwt>
<pdfrwt beam="1">0</pdfrwt>
<pdfrwt beam="2">  1        2 0.39240889E+00 0.65699990E+03</pdfrwt>
<totfact> 0.42494977E+00</totfact>
</mgrwt>
</event>
<event>
 5    1  0.2361924E-004  0.6665843E+03  0.7818608E-02  0.9776148E-01
         13   -1    0    0    0    0  0.00000000000E+00  0.00000000000E+00  0.10000000000E+04  0.10000000000E+04  0.00000000000E+00 0. -1.
          2   -1    0    0  501    0 -0.00000000000E+00 -0.00000000000E+00 -0.11108365649E+03  0.11108365649E+03  0.00000000000E+00 0. -1.
    9000006    2    1    2  501    0  0.00000000000E+00  0.00000000000E+00  0.88891634351E+03  0.11110836565E+04  0.66658429772E+03 0.  0.
         13    1    3    3    0    0 -0.32530046994E+03 -0.72531125143E+02  0.44709188927E+03  0.55764891940E+03  0.00000000000E+00 0. -1.
          4    1    3    3  501    0  0.32530046994E+03  0.72531125143E+02  0.44182445424E+03  0.55343473709E+03  0.00000000000E+00 0. -1.
<mgrwt>
<rscale>  0 0.66658430E+03</rscale>
<asrwt>0</asrwt>
<pdfrwt beam="1">0</pdfrwt>
<pdfrwt beam="2">  1        2 0.40394142E+00 0.66658430E+03</pdfrwt>
<totfact> 0.38442439E+00</totfact>
</mgrwt>
</event>
<event>
 5    1  0.2361924E-004  0.6385317E+03  0.7818608E-02  0.9828540E-01
         13   -1    0    0    0    0  0.00000000000E+00  0.00000000000E+00  0.10000000000E+04  0.10000000000E+04  0.00000000000E+00 0. -1.
          2   -1    0    0  501    0 -0.00000000000E+00 -0.00000000000E+00 -0.10193069539E+03  0.10193069539E+03  0.00000000000E+00 0. -1.
    9000006    2    1    2  501    0  0.00000000000E+00  0.00000000000E+00  0.89806930461E+03  0.11019306954E+04  0.63853173887E+03 0.  0.
         13    1    3    3    0    0  0.29184054073E+03 -0.11583202662E+03  0.34925940407E+03  0.46964890177E+03  0.00000000000E+00 0. -1.
          4    1    3    3  501    0 -0.29184054073E+03  0.11583202662E+03  0.54880990054E+03  0.63228179362E+03  0.00000000000E+00 0. -1.
<mgrwt>
<rscale>  0 0.63853174E+03</rscale>
<asrwt>0</asrwt>
<pdfrwt beam="1">0</pdfrwt>
<pdfrwt beam="2">  1        2 0.37065786E+00 0.63853174E+03</pdfrwt>
<totfact> 0.51206123E+00</totfact>
</mgrwt>
</event>
<event>
 5    1  0.2361924E-004  0.6396705E+03  0.7818608E-02  0.9826357E-01
         13   -1    0    0    0    0  0.00000000000E+00  0.00000000000E+00  0.10000000000E+04  0.10000000000E+04  0.00000000000E+00 0. -1.
          2   -1    0    0  501    0 -0.00000000000E+00 -0.00000000000E+00 -0.10229457729E+03  0.10229457729E+03  0.00000000000E+00 0. -1.
    9000006    2    1    2  501    0  0.00000000000E+00  0.00000000000E+00  0.89770542271E+03  0.11022945773E+04  0.63967046918E+03 0.  0.
         13    1    3    3    0    0  0.29403599991E+02 -0.27809553903E+03  0.71632925272E+03  0.76897938777E+03  0.00000000000E+00 0. -1.
          2    1    3    3  501    0 -0.29403599991E+02  0.27809553903E+03  0.18137617000E+03  0.33331518951E+03  0.00000000000E+00 0. -1.
<mgrwt>
<rscale>  0 0.63967047E+03</rscale>
<asrwt>0</asrwt>
<pdfrwt beam="1">0</pdfrwt>
<pdfrwt beam="2">  1        2 0.37198107E+00 0.63967047E+03</pdfrwt>
<totfact> 0.50632931E+00</totfact>
</mgrwt>
</event>
<event>
 5    1  0.2361924E-004  0.6501278E+03  0.7818608E-02  0.9806539E-01
         13   -1    0    0    0    0  0.00000000000E+00  0.00000000000E+00  0.10000000000E+04  0.10000000000E+04  0.00000000000E+00 0. -1.
          2   -1    0    0  501    0 -0.00000000000E+00 -0.00000000000E+00 -0.10566653546E+03  0.10566653546E+03  0.00000000000E+00 0. -1.
    9000006    2    1    2  501    0  0.00000000000E+00  0.00000000000E+00  0.89433346454E+03  0.11056665355E+04  0.65012778886E+03 0.  0.
         13    1    3    3    0    0 -0.24284352532E+03  0.20609172292E+03  0.55764307303E+03  0.64219356345E+03  0.00000000000E+00 0. -1.
          2    1    3    3  501    0  0.24284352532E+03 -0.20609172292E+03  0.33669039151E+03  0.46347297201E+03  0.00000000000E+00 0. -1.
<mgrwt>
<rscale>  0 0.65012779E+03</rscale>
<asrwt>0</asrwt>
<pdfrwt beam="1">0</pdfrwt>
<pdfrwt beam="2">  1        2 0.38424276E+00 0.65012779E+03</pdfrwt>
<totfact> 0.45593583E+00</totfact>
</mgrwt>
</event>
<event>
 5    1  0.2361924E-004  0.6623679E+03  0.7818608E-02  0.9783844E-01
         13   -1    0    0    0    0  0.00000000000E+00  0.00000000000E+00  0.10000000000E+04  0.10000000000E+04  0.00000000000E+00 0. -1.
          2   -1    0    0  501    0 -0.00000000000E+00 -0.00000000000E+00 -0.10968281617E+03  0.10968281617E+03  0.00000000000E+00 0. -1.
    9000006    2    1    2  501    0  0.00000000000E+00  0.00000000000E+00  0.89031718383E+03  0.11096828162E+04  0.66236792243E+03 0.  0.
         13    1    3    3    0    0 -0.90990149744E+02  0.26379179369E+03  0.14632281918E+03  0.31508044240E+03  0.00000000000E+00 0. -1.
          2    1    3    3  501    0  0.90990149744E+02 -0.26379179369E+03  0.74399436465E+03  0.79460237377E+03  0.00000000000E+00 0. -1.
<mgrwt>
<rscale>  0 0.66236792E+03</rscale>
<asrwt>0</asrwt>
<pdfrwt beam="1">0</pdfrwt>
<pdfrwt beam="2">  1        2 0.39884745E+00 0.66236792E+03</pdfrwt>
<totfact> 0.40187508E+00</totfact>
</mgrwt>
</event>
<event>
 5    1  0.2361924E-004  0.6519300E+03  0.7818608E-02  0.9803164E-01
         13   -1    0    0    0    0  0.00000000000E+00  0.00000000000E+00  0.10000000000E+04  0.10000000000E+04  0.00000000000E+00 0. -1.
          2   -1    0    0  501    0 -0.00000000000E+00 -0.00000000000E+00 -0.10625317517E+03  0.10625317517E+03  0.00000000000E+00 0. -1.
    9000006    2    1    2  501    0  0.00000000000E+00  0.00000000000E+00  0.89374682483E+03  0.11062531752E+04  0.65192998141E+03 0.  0.
         13    1    3    3    0    0  0.16761007704E+03 -0.91119763201E+02 -0.16232795001E+01  0.19078412986E+03  0.00000000000E+00 0. -1.
          4    1    3    3  501    0 -0.16761007704E+03  0.91119763201E+02  0.89537010433E+03  0.91546904530E+03  0.00000000000E+00 0. -1.
<mgrwt>
<rscale>  0 0.65192998E+03</rscale>
<asrwt>0</asrwt>
<pdfrwt beam="1">0</pdfrwt>
<pdfrwt beam="2">  1        2 0.38637600E+00 0.65192998E+03</pdfrwt>
<totfact> 0.44765002E+00</totfact>
</mgrwt>
</event>
<event>
 5    1  0.2361924E-004  0.6431157E+03  0.7818608E-02  0.9819783E-01
         13   -1    0    0    0    0  0.00000000000E+00  0.00000000000E+00  0.10000000000E+04  0.10000000000E+04  0.00000000000E+00 0. -1.
          2   -1    0    0  501    0 -0.00000000000E+00 -0.00000000000E+00 -0.10339945584E+03  0.10339945584E+03  0.00000000000E+00 0. -1.
    9000006    2    1    2  501    0  0.00000000000E+00  0.00000000000E+00  0.89660054416E+03  0.11033994558E+04  0.64311571538E+03 0.  0.
         13    1    3    3    0    0  0.11244377999E+03 -0.20312596289E+03  0.66595703262E+02  0.24153415525E+03  0.00000000000E+00 0. -1.
          2    1    3    3  501    0 -0.11244377999E+03  0.20312596289E+03  0.83000484090E+03  0.86186530059E+03  0.00000000000E+00 0. -1.
<mgrwt>
<rscale>  0 0.64311572E+03</rscale>
<asrwt>0</asrwt>
<pdfrwt beam="1">0</pdfrwt>
<pdfrwt beam="2">  1        2 0.37599881E+00 0.64311572E+03</pdfrwt>
<totfact> 0.48928302E+00</totfact>
</mgrwt>
</event>
<event>
 5    1  0.2361924E-004  0.6626105E+03  0.7818608E-02  0.9783400E-01
         13   -1    0    0    0    0  0.00000000000E+00  0.00000000000E+00  0.10000000000E+04  0.10000000000E+04  0.00000000000E+00 0. -1.
          2   -1    0    0  501    0 -0.00000000000E+00 -0.00000000000E+00 -0.10976315833E+03  0.10976315833E+03  0.00000000000E+00 0. -1.
    9000006    2    1    2  501    0  0.00000000000E+00  0.00000000000E+00  0.89023684167E+03  0.11097631583E+04  0.66261046876E+03 0.  0.
         13    1    3    3    0    0 -0.12832715376E+03  0.29532646058E+03  0.31455022298E+03  0.45014155494E+03  0.00000000000E+00 0. -1.
          4    1    3    3  501    0  0.12832715376E+03 -0.29532646058E+03  0.57568661870E+03  0.65962160339E+03  0.00000000000E+00 0. -1.
<mgrwt>
<rscale>  0 0.66261047E+03</rscale>
<asrwt>0</asrwt>
<pdfrwt beam="1">0</pdfrwt>
<pdfrwt beam="2">  1        2 0.39913960E+00 0.66261047E+03</pdfrwt>
<totfact> 0.40085534E+00</totfact>
</mgrwt>
</event>
<event>
 5    1  0.2361924E-004  0.6454111E+03  0.7818608E-02  0.9815428E-01
         13   -1    0    0    0    0  0.00000000000E+00  0.00000000000E+00  0.10000000000E+04  0.10000000000E+04  0.00000000000E+00 0. -1.
          2   -1    0    0  501    0 -0.00000000000E+00 -0.00000000000E+00 -0.10413885906E+03  0.10413885906E+03  0.00000000000E+00 0. -1.
    9000006    2    1    2  501    0  0.00000000000E+00  0.00000000000E+00  0.89586114094E+03  0.11041388591E+04  0.64541105990E+03 0.  0.
         13    1    3    3    0    0  0.12130114371E+03  0.29903236108E+03  0.44428597420E+03  0.54911232667E+03  0.00000000000E+00 0. -1.
          4    1    3    3  501    0 -0.12130114371E+03 -0.29903236108E+03  0.45157516674E+03  0.55502653239E+03  0.00000000000E+00 0. -1.
<mgrwt>
<rscale>  0 0.64541106E+03</rscale>
<asrwt>0</asrwt>
<pdfrwt beam="1">0</pdfrwt>
<pdfrwt beam="2">  1        2 0.37868756E+00 0.64541106E+03</pdfrwt>
<totfact> 0.47817066E+00</totfact>
</mgrwt>
</event>
<event>
 5    1  0.2361924E-004  0.6506124E+03  0.7818608E-02  0.9805631E-01
         13   -1    0    0    0    0  0.00000000000E+00  0.00000000000E+00  0.10000000000E+04  0.10000000000E+04  0.00000000000E+00 0. -1.
          2   -1    0    0  501    0 -0.00000000000E+00 -0.00000000000E+00 -0.10582413467E+03  0.10582413467E+03  0.00000000000E+00 0. -1.
    9000006    2    1    2  501    0  0.00000000000E+00  0.00000000000E+00  0.89417586533E+03  0.11058241347E+04  0.65061243353E+03 0.  0.
         13    1    3    3    0    0  0.13284021651E+03 -0.59973278888E+02  0.94139821497E+03  0.95261425376E+03  0.00000000000E+00 0. -1.
          2    1    3    3  501    0 -0.13284021651E+03  0.59973278888E+02 -0.47222349640E+02  0.15320988091E+03  0.00000000000E+00 0. -1.
<mgrwt>
<rscale>  0 0.65061243E+03</rscale>
<asrwt>0</asrwt>
<pdfrwt beam="1">0</pdfrwt>
<pdfrwt beam="2">  1        2 0.38481585E+00 0.65061243E+03</pdfrwt>
<totfact> 0.45369632E+00</totfact>
</mgrwt>
</event>
<event>
 5    1  0.2361924E-004  0.6320854E+03  0.7818608E-02  0.9840988E-01
         13   -1    0    0    0    0  0.00000000000E+00  0.00000000000E+00  0.10000000000E+04  0.10000000000E+04  0.00000000000E+00 0. -1.
          2   -1    0    0  501    0 -0.00000000000E+00 -0.00000000000E+00 -0.99882988322E+02  0.99882988322E+02  0.00000000000E+00 0. -1.
    9000006    2    1    2  501    0  0.00000000000E+00  0.00000000000E+00  0.90011701168E+03  0.10998829883E+04  0.63208540031E+03 0.  0.
         13    1    3    3    0    0  0.27257521358E+03 -0.94272179199E+02  0.22519994666E+03  0.36592281536E+03  0.00000000000E+00 0. -1.
          2    1    3    3  501    0 -0.27257521358E+03  0.94272179199E+02  0.67491706502E+03  0.73396017296E+03  0.00000000000E+00 0. -1.
<mgrwt>
<rscale>  0 0.63208540E+03</rscale>
<asrwt>0</asrwt>
<pdfrwt beam="1">0</pdfrwt>
<pdfrwt beam="2">  1        2 0.36321163E+00 0.63208540E+03</pdfrwt>
<totfact> 0.54544247E+00</totfact>
</mgrwt>
</event>
<event>
 5    1  0.2361924E-004  0.6439279E+03  0.7818608E-02  0.9818240E-01
         13   -1    0    0    0    0  0.00000000000E+00  0.00000000000E+00  0.10000000000E+04  0.10000000000E+04  0.00000000000E+00 0. -1.
          2   -1    0    0  501    0 -0.00000000000E+00 -0.00000000000E+00 -0.10366078438E+03  0.10366078438E+03  0.00000000000E+00 0. -1.
    9000006    2    1    2  501    0  0.00000000000E+00  0.00000000000E+00  0.89633921562E+03  0.11036607844E+04  0.64392789778E+03 0.  0.
         13    1    3    3    0    0 -0.96038256377E+02  0.20622539203E+03  0.83866662071E+03  0.86897293381E+03  0.00000000000E+00 0. -1.
          2    1    3    3  501    0  0.96038256377E+02 -0.20622539203E+03  0.57672594909E+02  0.23468785058E+03  0.00000000000E+00 0. -1.
<mgrwt>
<rscale>  0 0.64392790E+03</rscale>
<asrwt>0</asrwt>
<pdfrwt beam="1">0</pdfrwt>
<pdfrwt beam="2">  1        2 0.37694910E+00 0.64392790E+03</pdfrwt>
<totfact> 0.48532893E+00</totfact>
</mgrwt>
</event>
<event>
 5    1  0.2361924E-004  0.6453950E+03  0.7818608E-02  0.9815459E-01
         13   -1    0    0    0    0  0.00000000000E+00  0.00000000000E+00  0.10000000000E+04  0.10000000000E+04  0.00000000000E+00 0. -1.
          2   -1    0    0  501    0 -0.00000000000E+00 -0.00000000000E+00 -0.10413368032E+03  0.10413368032E+03  0.00000000000E+00 0. -1.
    9000006    2    1    2  501    0  0.00000000000E+00  0.00000000000E+00  0.89586631968E+03  0.11041336803E+04  0.64539501181E+03 0.  0.
         13    1    3    3    0    0  0.31407510271E+03  0.26877053950E+02  0.56606590221E+03  0.64791677847E+03  0.00000000000E+00 0. -1.
          4    1    3    3  501    0 -0.31407510271E+03 -0.26877053950E+02  0.32980041747E+03  0.45621690185E+03  0.00000000000E+00 0. -1.
<mgrwt>
<rscale>  0 0.64539501E+03</rscale>
<asrwt>0</asrwt>
<pdfrwt beam="1">0</pdfrwt>
<pdfrwt beam="2">  1        2 0.37866873E+00 0.64539501E+03</pdfrwt>
<totfact> 0.47824769E+00</totfact>
</mgrwt>
</event>
<event>
 5    1  0.2361924E-004  0.5257227E+03  0.7818608E-02  0.1007275E+00
         13   -1    0    0    0    0  0.00000000000E+00  0.00000000000E+00  0.10000000000E+04  0.10000000000E+04  0.00000000000E+00 0. -1.
          2   -1    0    0  501    0 -0.00000000000E+00 -0.00000000000E+00 -0.69096097514E+02  0.69096097514E+02  0.00000000000E+00 0. -1.
    9000006    2    1    2  501    0  0.00000000000E+00  0.00000000000E+00  0.93090390249E+03  0.10690960975E+04  0.52572273116E+03 0.  0.
         13    1    3    3    0    0 -0.82339085867E+02  0.16363842672E+03  0.82087711670E+02  0.20073776966E+03  0.00000000000E+00 0. -1.
          4    1    3    3  501    0  0.82339085867E+02 -0.16363842672E+03  0.84881619082E+03  0.86835832785E+03  0.00000000000E+00 0. -1.
<mgrwt>
<rscale>  0 0.52572273E+03</rscale>
<asrwt>0</asrwt>
<pdfrwt beam="1">0</pdfrwt>
<pdfrwt beam="2">  1        2 0.25125907E+00 0.52572273E+03</pdfrwt>
<totfact> 0.13795000E+01</totfact>
</mgrwt>
</event>
<event>
 5    1  0.2361924E-004  0.6470031E+03  0.7818608E-02  0.9812419E-01
         13   -1    0    0    0    0  0.00000000000E+00  0.00000000000E+00  0.10000000000E+04  0.10000000000E+04  0.00000000000E+00 0. -1.
          2   -1    0    0  501    0 -0.00000000000E+00 -0.00000000000E+00 -0.10465326772E+03  0.10465326772E+03  0.00000000000E+00 0. -1.
    9000006    2    1    2  501    0  0.00000000000E+00  0.00000000000E+00  0.89534673228E+03  0.11046532677E+04  0.64700314597E+03 0.  0.
         13    1    3    3    0    0  0.27210203343E+03 -0.11240725178E+03  0.21874762123E+03  0.36677708304E+03  0.00000000000E+00 0. -1.
          2    1    3    3  501    0 -0.27210203343E+03  0.11240725178E+03  0.67659911104E+03  0.73787618468E+03  0.00000000000E+00 0. -1.
<mgrwt>
<rscale>  0 0.64700315E+03</rscale>
<asrwt>0</asrwt>
<pdfrwt beam="1">0</pdfrwt>
<pdfrwt beam="2">  1        2 0.38055814E+00 0.64700315E+03</pdfrwt>
<totfact> 0.47057589E+00</totfact>
</mgrwt>
</event>
<event>
 5    1  0.2361924E-004  0.6761231E+03  0.7818608E-02  0.9758959E-01
         13   -1    0    0    0    0  0.00000000000E+00  0.00000000000E+00  0.10000000000E+04  0.10000000000E+04  0.00000000000E+00 0. -1.
          2   -1    0    0  501    0 -0.00000000000E+00 -0.00000000000E+00 -0.11428561209E+03  0.11428561209E+03  0.00000000000E+00 0. -1.
    9000006    2    1    2  501    0  0.00000000000E+00  0.00000000000E+00  0.88571438791E+03  0.11142856121E+04  0.67612310149E+03 0.  0.
         13    1    3    3    0    0  0.14949871095E+03  0.28290433857E+02 -0.54667105893E+02  0.16167469094E+03  0.00000000000E+00 0. -1.
          4    1    3    3  501    0 -0.14949871095E+03 -0.28290433857E+02  0.94038149380E+03  0.95261092116E+03  0.00000000000E+00 0. -1.
<mgrwt>
<rscale>  0 0.67612310E+03</rscale>
<asrwt>0</asrwt>
<pdfrwt beam="1">0</pdfrwt>
<pdfrwt beam="2">  1        2 0.41558492E+00 0.67612310E+03</pdfrwt>
<totfact> 0.34705674E+00</totfact>
</mgrwt>
</event>
<event>
 5    1  0.2361924E-004  0.6689331E+03  0.7818608E-02  0.9771887E-01
         13   -1    0    0    0    0  0.00000000000E+00  0.00000000000E+00  0.10000000000E+04  0.10000000000E+04  0.00000000000E+00 0. -1.
          2   -1    0    0  501    0 -0.00000000000E+00 -0.00000000000E+00 -0.11186787304E+03  0.11186787304E+03  0.00000000000E+00 0. -1.
    9000006    2    1    2  501    0  0.00000000000E+00  0.00000000000E+00  0.88813212696E+03  0.11118678730E+04  0.66893309992E+03 0.  0.
         13    1    3    3    0    0  0.20156287838E+03 -0.26686021761E+03  0.45252563840E+03  0.56269123246E+03  0.00000000000E+00 0. -1.
          2    1    3    3  501    0 -0.20156287838E+03  0.26686021761E+03  0.43560648856E+03  0.54917664058E+03  0.00000000000E+00 0. -1.
<mgrwt>
<rscale>  0 0.66893310E+03</rscale>
<asrwt>0</asrwt>
<pdfrwt beam="1">0</pdfrwt>
<pdfrwt beam="2">  1        2 0.40679312E+00 0.66893310E+03</pdfrwt>
<totfact> 0.37495451E+00</totfact>
</mgrwt>
</event>
<event>
 5    1  0.2361924E-004  0.6500025E+03  0.7818608E-02  0.9806775E-01
         13   -1    0    0    0    0  0.00000000000E+00  0.00000000000E+00  0.10000000000E+04  0.10000000000E+04  0.00000000000E+00 0. -1.
          2   -1    0    0  501    0 -0.00000000000E+00 -0.00000000000E+00 -0.10562579645E+03  0.10562579645E+03  0.00000000000E+00 0. -1.
    9000006    2    1    2  501    0  0.00000000000E+00  0.00000000000E+00  0.89437420355E+03  0.11056257964E+04  0.65000245060E+03 0.  0.
         13    1    3    3    0    0 -0.12114358991E+03 -0.24812555442E+03  0.15561452286E+03  0.31695100545E+03  0.00000000000E+00 0. -1.
          2    1    3    3  501    0  0.12114358991E+03  0.24812555442E+03  0.73875968069E+03  0.78867479100E+03  0.00000000000E+00 0. -1.
<mgrwt>
<rscale>  0 0.65000245E+03</rscale>
<asrwt>0</asrwt>
<pdfrwt beam="1">0</pdfrwt>
<pdfrwt beam="2">  1        2 0.38409462E+00 0.65000245E+03</pdfrwt>
<totfact> 0.45651637E+00</totfact>
</mgrwt>
</event>
<event>
 5    1  0.2361924E-004  0.6607996E+03  0.7818608E-02  0.9786723E-01
         13   -1    0    0    0    0  0.00000000000E+00  0.00000000000E+00  0.10000000000E+04  0.10000000000E+04  0.00000000000E+00 0. -1.
          2   -1    0    0  501    0 -0.00000000000E+00 -0.00000000000E+00 -0.10916402752E+03  0.10916402752E+03  0.00000000000E+00 0. -1.
    9000006    2    1    2  501    0  0.00000000000E+00  0.00000000000E+00  0.89083597248E+03  0.11091640275E+04  0.66079959903E+03 0.  0.
         13    1    3    3    0    0 -0.10564318531E+03  0.60452567710E+02  0.96099640426E+03  0.96867387935E+03  0.00000000000E+00 0. -1.
          4    1    3    3  501    0  0.10564318531E+03 -0.60452567710E+02 -0.70160431776E+02  0.14049014817E+03  0.00000000000E+00 0. -1.
<mgrwt>
<rscale>  0 0.66079960E+03</rscale>
<asrwt>0</asrwt>
<pdfrwt beam="1">0</pdfrwt>
<pdfrwt beam="2">  1        2 0.39696094E+00 0.66079960E+03</pdfrwt>
<totfact> 0.40851612E+00</totfact>
</mgrwt>
</event>
<event>
 5    1  0.2361924E-004  0.6525369E+03  0.7818608E-02  0.9802030E-01
         13   -1    0    0    0    0  0.00000000000E+00  0.00000000000E+00  0.10000000000E+04  0.10000000000E+04  0.00000000000E+00 0. -1.
          2   -1    0    0  501    0 -0.00000000000E+00 -0.00000000000E+00 -0.10645111401E+03  0.10645111401E+03  0.00000000000E+00 0. -1.
    9000006    2    1    2  501    0  0.00000000000E+00  0.00000000000E+00  0.89354888599E+03  0.11064511140E+04  0.65253693843E+03 0.  0.
         13    1    3    3    0    0  0.26290182239E+03 -0.12024739153E+03  0.70322351776E+03  0.76032895467E+03  0.00000000000E+00 0. -1.
          2    1    3    3  501    0 -0.26290182239E+03  0.12024739153E+03  0.19032536824E+03  0.34612215933E+03  0.00000000000E+00 0. -1.
<mgrwt>
<rscale>  0 0.65253694E+03</rscale>
<asrwt>0</asrwt>
<pdfrwt beam="1">0</pdfrwt>
<pdfrwt beam="2">  1        2 0.38709578E+00 0.65253694E+03</pdfrwt>
<totfact> 0.44488523E+00</totfact>
</mgrwt>
</event>
<event>
 5    1  0.2361924E-004  0.6421947E+03  0.7818608E-02  0.9821537E-01
         13   -1    0    0    0    0  0.00000000000E+00  0.00000000000E+00  0.10000000000E+04  0.10000000000E+04  0.00000000000E+00 0. -1.
          2   -1    0    0  501    0 -0.00000000000E+00 -0.00000000000E+00 -0.10310350473E+03  0.10310350473E+03  0.00000000000E+00 0. -1.
    9000006    2    1    2  501    0  0.00000000000E+00  0.00000000000E+00  0.89689649527E+03  0.11031035047E+04  0.64219468925E+03 0.  0.
         13    1    3    3    0    0 -0.60537397084E+02  0.31530848094E+03  0.44090397977E+03  0.54541776097E+03  0.00000000000E+00 0. -1.
          4    1    3    3  501    0  0.60537397084E+02 -0.31530848094E+03  0.45599251550E+03  0.55768574376E+03  0.00000000000E+00 0. -1.
<mgrwt>
<rscale>  0 0.64219469E+03</rscale>
<asrwt>0</asrwt>
<pdfrwt beam="1">0</pdfrwt>
<pdfrwt beam="2">  1        2 0.37492263E+00 0.64219469E+03</pdfrwt>
<totfact> 0.49379668E+00</totfact>
</mgrwt>
</event>
<event>
 5    1  0.2361924E-004  0.6366018E+03  0.7818608E-02  0.9832250E-01
         13   -1    0    0    0    0  0.00000000000E+00  0.00000000000E+00  0.10000000000E+04  0.10000000000E+04  0.00000000000E+00 0. -1.
          2   -1    0    0  501    0 -0.00000000000E+00 -0.00000000000E+00 -0.10131545776E+03  0.10131545776E+03  0.00000000000E+00 0. -1.
    9000006    2    1    2  501    0  0.00000000000E+00  0.00000000000E+00  0.89868454224E+03  0.11013154578E+04  0.63660178372E+03 0.  0.
         13    1    3    3    0    0  0.85114933192E+02  0.25286457778E+03  0.14904843827E+03  0.30561492683E+03  0.00000000000E+00 0. -1.
          2    1    3    3  501    0 -0.85114933192E+02 -0.25286457778E+03  0.74963610397E+03  0.79570053093E+03  0.00000000000E+00 0. -1.
<mgrwt>
<rscale>  0 0.63660178E+03</rscale>
<asrwt>0</asrwt>
<pdfrwt beam="1">0</pdfrwt>
<pdfrwt beam="2">  1        2 0.36842062E+00 0.63660178E+03</pdfrwt>
<totfact> 0.52188797E+00</totfact>
</mgrwt>
</event>
<event>
 5    1  0.2361924E-004  0.6473252E+03  0.7818608E-02  0.9811811E-01
         13   -1    0    0    0    0  0.00000000000E+00  0.00000000000E+00  0.10000000000E+04  0.10000000000E+04  0.00000000000E+00 0. -1.
          2   -1    0    0  501    0 -0.00000000000E+00 -0.00000000000E+00 -0.10475748156E+03  0.10475748156E+03  0.00000000000E+00 0. -1.
    9000006    2    1    2  501    0  0.00000000000E+00  0.00000000000E+00  0.89524251844E+03  0.11047574816E+04  0.64732520904E+03 0.  0.
         13    1    3    3    0    0 -0.23179346004E+03 -0.98380618354E+01  0.62460647059E+02  0.24026303920E+03  0.00000000000E+00 0. -1.
          2    1    3    3  501    0  0.23179346004E+03  0.98380618354E+01  0.83278187138E+03  0.86449444236E+03  0.00000000000E+00 0. -1.
<mgrwt>
<rscale>  0 0.64732521E+03</rscale>
<asrwt>0</asrwt>
<pdfrwt beam="1">0</pdfrwt>
<pdfrwt beam="2">  1        2 0.38093710E+00 0.64732521E+03</pdfrwt>
<totfact> 0.46905070E+00</totfact>
</mgrwt>
</event>
<event>
 5    1  0.2361924E-004  0.6448989E+03  0.7818608E-02  0.9816398E-01
         13   -1    0    0    0    0  0.00000000000E+00  0.00000000000E+00  0.10000000000E+04  0.10000000000E+04  0.00000000000E+00 0. -1.
          2   -1    0    0  501    0 -0.00000000000E+00 -0.00000000000E+00 -0.10397366226E+03  0.10397366226E+03  0.00000000000E+00 0. -1.
    9000006    2    1    2  501    0  0.00000000000E+00  0.00000000000E+00  0.89602633774E+03  0.11039736623E+04  0.64489894481E+03 0.  0.
         13    1    3    3    0    0 -0.11845311676E+03 -0.68312316860E+02  0.94790993361E+03  0.95772175278E+03  0.00000000000E+00 0. -1.
          4    1    3    3  501    0  0.11845311676E+03  0.68312316860E+02 -0.51883595866E+02  0.14625190948E+03  0.00000000000E+00 0. -1.
<mgrwt>
<rscale>  0 0.64489894E+03</rscale>
<asrwt>0</asrwt>
<pdfrwt beam="1">0</pdfrwt>
<pdfrwt beam="2">  1        2 0.37808684E+00 0.64489894E+03</pdfrwt>
<totfact> 0.48063322E+00</totfact>
</mgrwt>
</event>
<event>
 5    1  0.2361924E-004  0.6497727E+03  0.7818608E-02  0.9807206E-01
         13   -1    0    0    0    0  0.00000000000E+00  0.00000000000E+00  0.10000000000E+04  0.10000000000E+04  0.00000000000E+00 0. -1.
          2   -1    0    0  501    0 -0.00000000000E+00 -0.00000000000E+00 -0.10555114998E+03  0.10555114998E+03  0.00000000000E+00 0. -1.
    9000006    2    1    2  501    0  0.00000000000E+00  0.00000000000E+00  0.89444885002E+03  0.11055511500E+04  0.64977272944E+03 0.  0.
         13    1    3    3    0    0  0.73499334377E+02  0.79749686794E+02 -0.73842226402E+02  0.13120533182E+03  0.00000000000E+00 0. -1.
          2    1    3    3  501    0 -0.73499334377E+02 -0.79749686794E+02  0.96829107642E+03  0.97434581816E+03  0.00000000000E+00 0. -1.
<mgrwt>
<rscale>  0 0.64977273E+03</rscale>
<asrwt>0</asrwt>
<pdfrwt beam="1">0</pdfrwt>
<pdfrwt beam="2">  1        2 0.38382317E+00 0.64977273E+03</pdfrwt>
<totfact> 0.45758183E+00</totfact>
</mgrwt>
</event>
<event>
 5    1  0.2361924E-004  0.6590842E+03  0.7818608E-02  0.9789881E-01
         13   -1    0    0    0    0  0.00000000000E+00  0.00000000000E+00  0.10000000000E+04  0.10000000000E+04  0.00000000000E+00 0. -1.
          2   -1    0    0  501    0 -0.00000000000E+00 -0.00000000000E+00 -0.10859799728E+03  0.10859799728E+03  0.00000000000E+00 0. -1.
    9000006    2    1    2  501    0  0.00000000000E+00  0.00000000000E+00  0.89140200272E+03  0.11085979973E+04  0.65908420489E+03 0.  0.
         13    1    3    3    0    0  0.28767582799E+03 -0.16014966132E+03  0.46905038678E+03  0.57307378353E+03  0.00000000000E+00 0. -1.
          2    1    3    3  501    0 -0.28767582799E+03  0.16014966132E+03  0.42235161594E+03  0.53552421375E+03  0.00000000000E+00 0. -1.
<mgrwt>
<rscale>  0 0.65908420E+03</rscale>
<asrwt>0</asrwt>
<pdfrwt beam="1">0</pdfrwt>
<pdfrwt beam="2">  1        2 0.39490264E+00 0.65908420E+03</pdfrwt>
<totfact> 0.41587441E+00</totfact>
</mgrwt>
</event>
<event>
 5    1  0.2361924E-004  0.6465741E+03  0.7818608E-02  0.9813229E-01
         13   -1    0    0    0    0  0.00000000000E+00  0.00000000000E+00  0.10000000000E+04  0.10000000000E+04  0.00000000000E+00 0. -1.
          2   -1    0    0  501    0 -0.00000000000E+00 -0.00000000000E+00 -0.10451452091E+03  0.10451452091E+03  0.00000000000E+00 0. -1.
    9000006    2    1    2  501    0  0.00000000000E+00  0.00000000000E+00  0.89548547909E+03  0.11045145209E+04  0.64657411302E+03 0.  0.
         13    1    3    3    0    0  0.80782979042E+02  0.30097590477E+02 -0.84517700154E+02  0.12072694933E+03  0.00000000000E+00 0. -1.
          2    1    3    3  501    0 -0.80782979042E+02 -0.30097590477E+02  0.98000317925E+03  0.98378757158E+03  0.00000000000E+00 0. -1.
<mgrwt>
<rscale>  0 0.64657411E+03</rscale>
<asrwt>0</asrwt>
<pdfrwt beam="1">0</pdfrwt>
<pdfrwt beam="2">  1        2 0.38005360E+00 0.64657411E+03</pdfrwt>
<totfact> 0.47261347E+00</totfact>
</mgrwt>
</event>
<event>
 5    1  0.2361924E-004  0.6358698E+03  0.7818608E-02  0.9833661E-01
         13   -1    0    0    0    0  0.00000000000E+00  0.00000000000E+00  0.10000000000E+04  0.10000000000E+04  0.00000000000E+00 0. -1.
          2   -1    0    0  501    0 -0.00000000000E+00 -0.00000000000E+00 -0.10108261186E+03  0.10108261186E+03  0.00000000000E+00 0. -1.
    9000006    2    1    2  501    0  0.00000000000E+00  0.00000000000E+00  0.89891738814E+03  0.11010826119E+04  0.63586983529E+03 0.  0.
         13    1    3    3    0    0  0.46995015891E+02  0.47272285857E+02  0.98776419650E+03  0.99001076176E+03  0.00000000000E+00 0. -1.
          4    1    3    3  501    0 -0.46995015891E+02 -0.47272285857E+02 -0.88846808353E+02  0.11107185009E+03  0.00000000000E+00 0. -1.
<mgrwt>
<rscale>  0 0.63586984E+03</rscale>
<asrwt>0</asrwt>
<pdfrwt beam="1">0</pdfrwt>
<pdfrwt beam="2">  1        2 0.36757391E+00 0.63586984E+03</pdfrwt>
<totfact> 0.52565195E+00</totfact>
</mgrwt>
</event>
<event>
 5    1  0.2361924E-004  0.6426166E+03  0.7818608E-02  0.9820733E-01
         13   -1    0    0    0    0  0.00000000000E+00  0.00000000000E+00  0.10000000000E+04  0.10000000000E+04  0.00000000000E+00 0. -1.
          2   -1    0    0  501    0 -0.00000000000E+00 -0.00000000000E+00 -0.10323902735E+03  0.10323902735E+03  0.00000000000E+00 0. -1.
    9000006    2    1    2  501    0  0.00000000000E+00  0.00000000000E+00  0.89676097265E+03  0.11032390274E+04  0.64261661152E+03 0.  0.
         13    1    3    3    0    0 -0.12114628610E+03 -0.32122455497E+02  0.95630362778E+03  0.96448167597E+03  0.00000000000E+00 0. -1.
          2    1    3    3  501    0  0.12114628610E+03  0.32122455497E+02 -0.59542655129E+02  0.13875735138E+03  0.00000000000E+00 0. -1.
<mgrwt>
<rscale>  0 0.64261661E+03</rscale>
<asrwt>0</asrwt>
<pdfrwt beam="1">0</pdfrwt>
<pdfrwt beam="2">  1        2 0.37541544E+00 0.64261661E+03</pdfrwt>
<totfact> 0.49172499E+00</totfact>
</mgrwt>
</event>
<event>
 5    1  0.2361924E-004  0.6479935E+03  0.7818608E-02  0.9810552E-01
         13   -1    0    0    0    0  0.00000000000E+00  0.00000000000E+00  0.10000000000E+04  0.10000000000E+04  0.00000000000E+00 0. -1.
          2   -1    0    0  501    0 -0.00000000000E+00 -0.00000000000E+00 -0.10497388231E+03  0.10497388231E+03  0.00000000000E+00 0. -1.
    9000006    2    1    2  501    0  0.00000000000E+00  0.00000000000E+00  0.89502611769E+03  0.11049738823E+04  0.64799346390E+03 0.  0.
         13    1    3    3    0    0 -0.17308899099E+03  0.15589311321E+03  0.63510359934E+02  0.24144570273E+03  0.00000000000E+00 0. -1.
          2    1    3    3  501    0  0.17308899099E+03 -0.15589311321E+03  0.83151575775E+03  0.86352817958E+03  0.00000000000E+00 0. -1.
<mgrwt>
<rscale>  0 0.64799346E+03</rscale>
<asrwt>0</asrwt>
<pdfrwt beam="1">0</pdfrwt>
<pdfrwt beam="2">  1        2 0.38172401E+00 0.64799346E+03</pdfrwt>
<totfact> 0.46589800E+00</totfact>
</mgrwt>
</event>
<event>
 5    1  0.2361924E-004  0.6510723E+03  0.7818608E-02  0.9804769E-01
         13   -1    0    0    0    0  0.00000000000E+00  0.00000000000E+00  0.10000000000E+04  0.10000000000E+04  0.00000000000E+00 0. -1.
          2   -1    0    0  501    0 -0.00000000000E+00 -0.00000000000E+00 -0.10597379392E+03  0.10597379392E+03  0.00000000000E+00 0. -1.
    9000006    2    1    2  501    0  0.00000000000E+00  0.00000000000E+00  0.89402620608E+03  0.11059737939E+04  0.65107232753E+03 0.  0.
         13    1    3    3    0    0  0.10537081777E+03 -0.30724463007E+03  0.48389952831E+03  0.58280444872E+03  0.00000000000E+00 0. -1.
          2    1    3    3  501    0 -0.10537081777E+03  0.30724463007E+03  0.41012667777E+03  0.52316934520E+03  0.00000000000E+00 0. -1.
<mgrwt>
<rscale>  0 0.65107233E+03</rscale>
<asrwt>0</asrwt>
<pdfrwt beam="1">0</pdfrwt>
<pdfrwt beam="2">  1        2 0.38536006E+00 0.65107233E+03</pdfrwt>
<totfact> 0.45157887E+00</totfact>
</mgrwt>
</event>
<event>
 5    1  0.2361924E-004  0.6132517E+03  0.7818608E-02  0.9878288E-01
         13   -1    0    0    0    0  0.00000000000E+00  0.00000000000E+00  0.10000000000E+04  0.10000000000E+04  0.00000000000E+00 0. -1.
          2   -1    0    0  501    0 -0.00000000000E+00 -0.00000000000E+00 -0.94019420416E+02  0.94019420416E+02  0.00000000000E+00 0. -1.
    9000006    2    1    2  501    0  0.00000000000E+00  0.00000000000E+00  0.90598057958E+03  0.10940194204E+04  0.61325172781E+03 0.  0.
         13    1    3    3    0    0 -0.11474746685E+03 -0.19596085874E+03  0.85425240343E+02  0.24262133252E+03  0.00000000000E+00 0. -1.
          2    1    3    3  501    0  0.11474746685E+03  0.19596085874E+03  0.82055533924E+03  0.85139808789E+03  0.00000000000E+00 0. -1.
<mgrwt>
<rscale>  0 0.61325173E+03</rscale>
<asrwt>0</asrwt>
<pdfrwt beam="1">0</pdfrwt>
<pdfrwt beam="2">  1        2 0.34188952E+00 0.61325173E+03</pdfrwt>
<totfact> 0.65249733E+00</totfact>
</mgrwt>
</event>
<event>
 5    1  0.2361924E-004  0.6384906E+03  0.7818608E-02  0.9828619E-01
         13   -1    0    0    0    0  0.00000000000E+00  0.00000000000E+00  0.10000000000E+04  0.10000000000E+04  0.00000000000E+00 0. -1.
          4   -1    0    0  501    0 -0.00000000000E+00 -0.00000000000E+00 -0.10191757401E+03  0.10191757401E+03  0.00000000000E+00 0. -1.
    9000006    2    1    2  501    0  0.00000000000E+00  0.00000000000E+00  0.89808242599E+03  0.11019175740E+04  0.63849063897E+03 0.  0.
         13    1    3    3    0    0  0.27417075305E+02 -0.90324876734E+02  0.97536510043E+03  0.97992211859E+03  0.00000000000E+00 0. -1.
          4    1    3    3  501    0 -0.27417075305E+02  0.90324876734E+02 -0.77282674438E+02  0.12199545542E+03  0.00000000000E+00 0. -1.
<mgrwt>
<rscale>  0 0.63849064E+03</rscale>
<asrwt>0</asrwt>
<pdfrwt beam="1">0</pdfrwt>
<pdfrwt beam="2">  1        4 0.37061014E+00 0.63849064E+03</pdfrwt>
<totfact> 0.50688089E-02</totfact>
</mgrwt>
</event>
<event>
 5    1  0.2361924E-004  0.6189491E+03  0.7818608E-02  0.9866854E-01
         13   -1    0    0    0    0  0.00000000000E+00  0.00000000000E+00  0.10000000000E+04  0.10000000000E+04  0.00000000000E+00 0. -1.
          2   -1    0    0  501    0 -0.00000000000E+00 -0.00000000000E+00 -0.95774503192E+02  0.95774503192E+02  0.00000000000E+00 0. -1.
    9000006    2    1    2  501    0  0.00000000000E+00  0.00000000000E+00  0.90422549681E+03  0.10957745032E+04  0.61894911969E+03 0.  0.
         13    1    3    3    0    0 -0.14473860735E+03  0.25378171579E+03  0.63283089205E+03  0.69701460649E+03  0.00000000000E+00 0. -1.
          4    1    3    3  501    0  0.14473860735E+03 -0.25378171579E+03  0.27139460476E+03  0.39875989671E+03  0.00000000000E+00 0. -1.
<mgrwt>
<rscale>  0 0.61894912E+03</rscale>
<asrwt>0</asrwt>
<pdfrwt beam="1">0</pdfrwt>
<pdfrwt beam="2">  1        2 0.34827166E+00 0.61894912E+03</pdfrwt>
<totfact> 0.61856252E+00</totfact>
</mgrwt>
</event>
<event>
 5    1  0.2361924E-004  0.6521397E+03  0.7818608E-02  0.9802772E-01
         13   -1    0    0    0    0  0.00000000000E+00  0.00000000000E+00  0.10000000000E+04  0.10000000000E+04  0.00000000000E+00 0. -1.
          2   -1    0    0  501    0 -0.00000000000E+00 -0.00000000000E+00 -0.10632156162E+03  0.10632156162E+03  0.00000000000E+00 0. -1.
    9000006    2    1    2  501    0  0.00000000000E+00  0.00000000000E+00  0.89367843838E+03  0.11063215616E+04  0.65213974460E+03 0.  0.
         13    1    3    3    0    0 -0.31378016851E+03 -0.48169843092E+02  0.57314473053E+03  0.65518944594E+03  0.00000000000E+00 0. -1.
          4    1    3    3  501    0  0.31378016851E+03  0.48169843092E+02  0.32053370785E+03  0.45113211569E+03  0.00000000000E+00 0. -1.
<mgrwt>
<rscale>  0 0.65213974E+03</rscale>
<asrwt>0</asrwt>
<pdfrwt beam="1">0</pdfrwt>
<pdfrwt beam="2">  1        2 0.38662468E+00 0.65213974E+03</pdfrwt>
<totfact> 0.44669305E+00</totfact>
</mgrwt>
</event>
<event>
 5    1  0.2361924E-004  0.6814595E+03  0.7818608E-02  0.9749475E-01
         13   -1    0    0    0    0  0.00000000000E+00  0.00000000000E+00  0.10000000000E+04  0.10000000000E+04  0.00000000000E+00 0. -1.
          2   -1    0    0  501    0 -0.00000000000E+00 -0.00000000000E+00 -0.11609674908E+03  0.11609674908E+03  0.00000000000E+00 0. -1.
    9000006    2    1    2  501    0  0.00000000000E+00  0.00000000000E+00  0.88390325092E+03  0.11160967491E+04  0.68145946052E+03 0.  0.
         13    1    3    3    0    0 -0.77207212267E+02  0.14643110944E+03 -0.45810716330E+02  0.17176042958E+03  0.00000000000E+00 0. -1.
          2    1    3    3  501    0  0.77207212267E+02 -0.14643110944E+03  0.92971396725E+03  0.94433631950E+03  0.00000000000E+00 0. -1.
<mgrwt>
<rscale>  0 0.68145946E+03</rscale>
<asrwt>0</asrwt>
<pdfrwt beam="1">0</pdfrwt>
<pdfrwt beam="2">  1        2 0.42217089E+00 0.68145946E+03</pdfrwt>
<totfact> 0.32738573E+00</totfact>
</mgrwt>
</event>
<event>
 5    1  0.2361924E-004  0.6464386E+03  0.7818608E-02  0.9813485E-01
         13   -1    0    0    0    0  0.00000000000E+00  0.00000000000E+00  0.10000000000E+04  0.10000000000E+04  0.00000000000E+00 0. -1.
          2   -1    0    0  501    0 -0.00000000000E+00 -0.00000000000E+00 -0.10447071102E+03  0.10447071102E+03  0.00000000000E+00 0. -1.
    9000006    2    1    2  501    0  0.00000000000E+00  0.00000000000E+00  0.89552928898E+03  0.11044707110E+04  0.64643858492E+03 0.  0.
         13    1    3    3    0    0  0.19027030494E+03 -0.52043576073E+02  0.10298570270E+02  0.19752818357E+03  0.00000000000E+00 0. -1.
          2    1    3    3  501    0 -0.19027030494E+03  0.52043576073E+02  0.88523071871E+03  0.90694252745E+03  0.00000000000E+00 0. -1.
<mgrwt>
<rscale>  0 0.64643858E+03</rscale>
<asrwt>0</asrwt>
<pdfrwt beam="1">0</pdfrwt>
<pdfrwt beam="2">  1        2 0.37989430E+00 0.64643858E+03</pdfrwt>
<totfact> 0.47325851E+00</totfact>
</mgrwt>
</event>
<event>
 5    1  0.2361924E-004  0.6740740E+03  0.7818608E-02  0.9762626E-01
         13   -1    0    0    0    0  0.00000000000E+00  0.00000000000E+00  0.10000000000E+04  0.10000000000E+04  0.00000000000E+00 0. -1.
          2   -1    0    0  501    0 -0.00000000000E+00 -0.00000000000E+00 -0.11359393966E+03  0.11359393966E+03  0.00000000000E+00 0. -1.
    9000006    2    1    2  501    0  0.00000000000E+00  0.00000000000E+00  0.88640606034E+03  0.11135939397E+04  0.67407400085E+03 0.  0.
         13    1    3    3    0    0  0.28664057578E+03  0.17542262962E+03  0.40082515709E+03  0.52306474286E+03  0.00000000000E+00 0. -1.
          4    1    3    3  501    0 -0.28664057578E+03 -0.17542262962E+03  0.48558090326E+03  0.59052919680E+03  0.00000000000E+00 0. -1.
<mgrwt>
<rscale>  0 0.67407400E+03</rscale>
<asrwt>0</asrwt>
<pdfrwt beam="1">0</pdfrwt>
<pdfrwt beam="2">  1        2 0.41306974E+00 0.67407400E+03</pdfrwt>
<totfact> 0.35484188E+00</totfact>
</mgrwt>
</event>
<event>
 5    1  0.2361924E-004  0.6462162E+03  0.7818608E-02  0.9813905E-01
         13   -1    0    0    0    0  0.00000000000E+00  0.00000000000E+00  0.10000000000E+04  0.10000000000E+04  0.00000000000E+00 0. -1.
          2   -1    0    0  501    0 -0.00000000000E+00 -0.00000000000E+00 -0.10439885749E+03  0.10439885749E+03  0.00000000000E+00 0. -1.
    9000006    2    1    2  501    0  0.00000000000E+00  0.00000000000E+00  0.89560114251E+03  0.11043988575E+04  0.64621624088E+03 0.  0.
         13    1    3    3    0    0 -0.28521101981E+03  0.15070514149E+03  0.47938247826E+03  0.57781045850E+03  0.00000000000E+00 0. -1.
          4    1    3    3  501    0  0.28521101981E+03 -0.15070514149E+03  0.41621866425E+03  0.52658839900E+03  0.00000000000E+00 0. -1.
<mgrwt>
<rscale>  0 0.64621624E+03</rscale>
<asrwt>0</asrwt>
<pdfrwt beam="1">0</pdfrwt>
<pdfrwt beam="2">  1        2 0.37963301E+00 0.64621624E+03</pdfrwt>
<totfact> 0.47431819E+00</totfact>
</mgrwt>
</event>
<event>
 5    1  0.2361924E-004  0.6465318E+03  0.7818608E-02  0.9813309E-01
         13   -1    0    0    0    0  0.00000000000E+00  0.00000000000E+00  0.10000000000E+04  0.10000000000E+04  0.00000000000E+00 0. -1.
          2   -1    0    0  501    0 -0.00000000000E+00 -0.00000000000E+00 -0.10450083842E+03  0.10450083842E+03  0.00000000000E+00 0. -1.
    9000006    2    1    2  501    0  0.00000000000E+00  0.00000000000E+00  0.89549916158E+03  0.11045008384E+04  0.64653178862E+03 0.  0.
         13    1    3    3    0    0 -0.10048342509E+03  0.30713803418E+03  0.43344145403E+03  0.54064978020E+03  0.00000000000E+00 0. -1.
          4    1    3    3  501    0  0.10048342509E+03 -0.30713803418E+03  0.46205770755E+03  0.56385105822E+03  0.00000000000E+00 0. -1.
<mgrwt>
<rscale>  0 0.64653179E+03</rscale>
<asrwt>0</asrwt>
<pdfrwt beam="1">0</pdfrwt>
<pdfrwt beam="2">  1        2 0.38000385E+00 0.64653179E+03</pdfrwt>
<totfact> 0.47281484E+00</totfact>
</mgrwt>
</event>
<event>
 5    1  0.2361924E-004  0.6338831E+03  0.7818608E-02  0.9837500E-01
         13   -1    0    0    0    0  0.00000000000E+00  0.00000000000E+00  0.10000000000E+04  0.10000000000E+04  0.00000000000E+00 0. -1.
          2   -1    0    0  501    0 -0.00000000000E+00 -0.00000000000E+00 -0.10045194868E+03  0.10045194868E+03  0.00000000000E+00 0. -1.
    9000006    2    1    2  501    0  0.00000000000E+00  0.00000000000E+00  0.89954805132E+03  0.11004519487E+04  0.63388310810E+03 0.  0.
         13    1    3    3    0    0 -0.25643224515E+03 -0.10140958359E+03  0.17853593675E+03  0.32850643937E+03  0.00000000000E+00 0. -1.
          4    1    3    3  501    0  0.25643224515E+03  0.10140958359E+03  0.72101211457E+03  0.77194550931E+03  0.00000000000E+00 0. -1.
<mgrwt>
<rscale>  0 0.63388311E+03</rscale>
<asrwt>0</asrwt>
<pdfrwt beam="1">0</pdfrwt>
<pdfrwt beam="2">  1        2 0.36528058E+00 0.63388311E+03</pdfrwt>
<totfact> 0.53597228E+00</totfact>
</mgrwt>
</event>
<event>
 5    1  0.2361924E-004  0.6529902E+03  0.7818608E-02  0.9801184E-01
         13   -1    0    0    0    0  0.00000000000E+00  0.00000000000E+00  0.10000000000E+04  0.10000000000E+04  0.00000000000E+00 0. -1.
          2   -1    0    0  501    0 -0.00000000000E+00 -0.00000000000E+00 -0.10659905114E+03  0.10659905114E+03  0.00000000000E+00 0. -1.
    9000006    2    1    2  501    0  0.00000000000E+00  0.00000000000E+00  0.89340094886E+03  0.11065990511E+04  0.65299020251E+03 0.  0.
         13    1    3    3    0    0  0.13313810510E+03  0.26250459283E+02  0.94994497938E+03  0.95958861263E+03  0.00000000000E+00 0. -1.
          2    1    3    3  501    0 -0.13313810510E+03 -0.26250459283E+02 -0.56544030523E+02  0.14701043851E+03  0.00000000000E+00 0. -1.
<mgrwt>
<rscale>  0 0.65299020E+03</rscale>
<asrwt>0</asrwt>
<pdfrwt beam="1">0</pdfrwt>
<pdfrwt beam="2">  1        2 0.38763373E+00 0.65299020E+03</pdfrwt>
<totfact> 0.44282897E+00</totfact>
</mgrwt>
</event>
<event>
 5    1  0.2361924E-004  0.4816686E+03  0.7818608E-02  0.1018678E+00
         13   -1    0    0    0    0  0.00000000000E+00  0.00000000000E+00  0.10000000000E+04  0.10000000000E+04  0.00000000000E+00 0. -1.
          2   -1    0    0  501    0 -0.00000000000E+00 -0.00000000000E+00 -0.58001157096E+02  0.58001157096E+02  0.00000000000E+00 0. -1.
    9000006    2    1    2  501    0  0.00000000000E+00  0.00000000000E+00  0.94199884290E+03  0.10580011571E+04  0.48166858771E+03 0.  0.
         13    1    3    3    0    0  0.54307719110E+02 -0.98402233880E+02  0.93886016179E+03  0.94556371090E+03  0.00000000000E+00 0. -1.
          2    1    3    3  501    0 -0.54307719110E+02  0.98402233880E+02  0.31386811194E+01  0.11243744619E+03  0.00000000000E+00 0. -1.
<mgrwt>
<rscale>  0 0.48166859E+03</rscale>
<asrwt>0</asrwt>
<pdfrwt beam="1">0</pdfrwt>
<pdfrwt beam="2">  1        2 0.21091374E+00 0.48166859E+03</pdfrwt>
<totfact> 0.19344869E+01</totfact>
</mgrwt>
</event>
<event>
 5    1  0.2361924E-004  0.6420981E+03  0.7818608E-02  0.9821721E-01
         13   -1    0    0    0    0  0.00000000000E+00  0.00000000000E+00  0.10000000000E+04  0.10000000000E+04  0.00000000000E+00 0. -1.
          2   -1    0    0  501    0 -0.00000000000E+00 -0.00000000000E+00 -0.10307247747E+03  0.10307247747E+03  0.00000000000E+00 0. -1.
    9000006    2    1    2  501    0  0.00000000000E+00  0.00000000000E+00  0.89692752253E+03  0.11030724775E+04  0.64209805318E+03 0.  0.
         13    1    3    3    0    0  0.13504821645E+03 -0.28979195977E+03  0.49869862726E+03  0.59238308682E+03  0.00000000000E+00 0. -1.
          4    1    3    3  501    0 -0.13504821645E+03  0.28979195977E+03  0.39822889526E+03  0.51068939066E+03  0.00000000000E+00 0. -1.
<mgrwt>
<rscale>  0 0.64209805E+03</rscale>
<asrwt>0</asrwt>
<pdfrwt beam="1">0</pdfrwt>
<pdfrwt beam="2">  1        2 0.37480980E+00 0.64209805E+03</pdfrwt>
<totfact> 0.49427210E+00</totfact>
</mgrwt>
</event>
<event>
 5    1  0.2361924E-004  0.6420500E+03  0.7818608E-02  0.9821812E-01
         13   -1    0    0    0    0  0.00000000000E+00  0.00000000000E+00  0.10000000000E+04  0.10000000000E+04  0.00000000000E+00 0. -1.
          2   -1    0    0  501    0 -0.00000000000E+00 -0.00000000000E+00 -0.10305704907E+03  0.10305704907E+03  0.00000000000E+00 0. -1.
    9000006    2    1    2  501    0  0.00000000000E+00  0.00000000000E+00  0.89694295093E+03  0.11030570491E+04  0.64204999516E+03 0.  0.
         13    1    3    3    0    0  0.12042186127E+03 -0.67505965542E+01  0.95959448202E+03  0.96714454201E+03  0.00000000000E+00 0. -1.
          4    1    3    3  501    0 -0.12042186127E+03  0.67505965542E+01 -0.62651531091E+02  0.13591250706E+03  0.00000000000E+00 0. -1.
<mgrwt>
<rscale>  0 0.64205000E+03</rscale>
<asrwt>0</asrwt>
<pdfrwt beam="1">0</pdfrwt>
<pdfrwt beam="2">  1        2 0.37475370E+00 0.64205000E+03</pdfrwt>
<totfact> 0.49450866E+00</totfact>
</mgrwt>
</event>
<event>
 5    1  0.2361924E-004  0.6397279E+03  0.7818608E-02  0.9826247E-01
         13   -1    0    0    0    0  0.00000000000E+00  0.00000000000E+00  0.10000000000E+04  0.10000000000E+04  0.00000000000E+00 0. -1.
          2   -1    0    0  501    0 -0.00000000000E+00 -0.00000000000E+00 -0.10231295839E+03  0.10231295839E+03  0.00000000000E+00 0. -1.
    9000006    2    1    2  501    0  0.00000000000E+00  0.00000000000E+00  0.89768704161E+03  0.11023129584E+04  0.63972793713E+03 0.  0.
         13    1    3    3    0    0  0.14277448334E+03  0.28601983746E+03  0.42988492700E+03  0.53571723042E+03  0.00000000000E+00 0. -1.
          2    1    3    3  501    0 -0.14277448334E+03 -0.28601983746E+03  0.46780211462E+03  0.56659572797E+03  0.00000000000E+00 0. -1.
<mgrwt>
<rscale>  0 0.63972794E+03</rscale>
<asrwt>0</asrwt>
<pdfrwt beam="1">0</pdfrwt>
<pdfrwt beam="2">  1        2 0.37204791E+00 0.63972794E+03</pdfrwt>
<totfact> 0.50604133E+00</totfact>
</mgrwt>
</event>
<event>
 5    1  0.2361924E-004  0.6487417E+03  0.7818608E-02  0.9809143E-01
         13   -1    0    0    0    0  0.00000000000E+00  0.00000000000E+00  0.10000000000E+04  0.10000000000E+04  0.00000000000E+00 0. -1.
          2   -1    0    0  501    0 -0.00000000000E+00 -0.00000000000E+00 -0.10521643885E+03  0.10521643885E+03  0.00000000000E+00 0. -1.
    9000006    2    1    2  501    0  0.00000000000E+00  0.00000000000E+00  0.89478356115E+03  0.11052164389E+04  0.64874167078E+03 0.  0.
         13    1    3    3    0    0 -0.22918624494E+03 -0.15024831786E+03  0.15174652184E+03  0.31325372907E+03  0.00000000000E+00 0. -1.
          2    1    3    3  501    0  0.22918624494E+03  0.15024831786E+03  0.74303703931E+03  0.79196270978E+03  0.00000000000E+00 0. -1.
<mgrwt>
<rscale>  0 0.64874167E+03</rscale>
<asrwt>0</asrwt>
<pdfrwt beam="1">0</pdfrwt>
<pdfrwt beam="2">  1        2 0.38260604E+00 0.64874167E+03</pdfrwt>
<totfact> 0.46238713E+00</totfact>
</mgrwt>
</event>
<event>
 5    1  0.2361924E-004  0.6535330E+03  0.7818608E-02  0.9800172E-01
         13   -1    0    0    0    0  0.00000000000E+00  0.00000000000E+00  0.10000000000E+04  0.10000000000E+04  0.00000000000E+00 0. -1.
          2   -1    0    0  501    0 -0.00000000000E+00 -0.00000000000E+00 -0.10677635453E+03  0.10677635453E+03  0.00000000000E+00 0. -1.
    9000006    2    1    2  501    0  0.00000000000E+00  0.00000000000E+00  0.89322364547E+03  0.11067763545E+04  0.65353302758E+03 0.  0.
         13    1    3    3    0    0 -0.16219221527E+03 -0.45674292403E+02  0.92075091360E+03  0.93604203996E+03  0.00000000000E+00 0. -1.
          4    1    3    3  501    0  0.16219221527E+03  0.45674292403E+02 -0.27527268136E+02  0.17073431457E+03  0.00000000000E+00 0. -1.
<mgrwt>
<rscale>  0 0.65353303E+03</rscale>
<asrwt>0</asrwt>
<pdfrwt beam="1">0</pdfrwt>
<pdfrwt beam="2">  1        2 0.38827847E+00 0.65353303E+03</pdfrwt>
<totfact> 0.44037587E+00</totfact>
</mgrwt>
</event>
<event>
 5    1  0.2361924E-004  0.6475776E+03  0.7818608E-02  0.9811335E-01
         13   -1    0    0    0    0  0.00000000000E+00  0.00000000000E+00  0.10000000000E+04  0.10000000000E+04  0.00000000000E+00 0. -1.
          2   -1    0    0  501    0 -0.00000000000E+00 -0.00000000000E+00 -0.10483920272E+03  0.10483920272E+03  0.00000000000E+00 0. -1.
    9000006    2    1    2  501    0  0.00000000000E+00  0.00000000000E+00  0.89516079728E+03  0.11048392027E+04  0.64757764854E+03 0.  0.
         13    1    3    3    0    0 -0.13215269170E+03 -0.29216622766E+03  0.52414209274E+03  0.61445127707E+03  0.00000000000E+00 0. -1.
          4    1    3    3  501    0  0.13215269170E+03  0.29216622766E+03  0.37101870454E+03  0.49038792565E+03  0.00000000000E+00 0. -1.
<mgrwt>
<rscale>  0 0.64757765E+03</rscale>
<asrwt>0</asrwt>
<pdfrwt beam="1">0</pdfrwt>
<pdfrwt beam="2">  1        2 0.38123427E+00 0.64757765E+03</pdfrwt>
<totfact> 0.46785785E+00</totfact>
</mgrwt>
</event>
<event>
 5    1  0.2361924E-004  0.6526505E+03  0.7818608E-02  0.9801818E-01
         13   -1    0    0    0    0  0.00000000000E+00  0.00000000000E+00  0.10000000000E+04  0.10000000000E+04  0.00000000000E+00 0. -1.
          2   -1    0    0  501    0 -0.00000000000E+00 -0.00000000000E+00 -0.10648818325E+03  0.10648818325E+03  0.00000000000E+00 0. -1.
    9000006    2    1    2  501    0  0.00000000000E+00  0.00000000000E+00  0.89351181675E+03  0.11064881833E+04  0.65265054433E+03 0.  0.
         13    1    3    3    0    0 -0.50883761439E+02  0.25626224134E+01 -0.99703727690E+02  0.11196676974E+03  0.00000000000E+00 0. -1.
          4    1    3    3  501    0  0.50883761439E+02 -0.25626224134E+01  0.99321554444E+03  0.99452141351E+03  0.00000000000E+00 0. -1.
<mgrwt>
<rscale>  0 0.65265054E+03</rscale>
<asrwt>0</asrwt>
<pdfrwt beam="1">0</pdfrwt>
<pdfrwt beam="2">  1        2 0.38723057E+00 0.65265054E+03</pdfrwt>
<totfact> 0.44436918E+00</totfact>
</mgrwt>
</event>
<event>
 5    1  0.2361924E-004  0.6284669E+03  0.7818608E-02  0.9848045E-01
         13   -1    0    0    0    0  0.00000000000E+00  0.00000000000E+00  0.10000000000E+04  0.10000000000E+04  0.00000000000E+00 0. -1.
          2   -1    0    0  501    0 -0.00000000000E+00 -0.00000000000E+00 -0.98742676482E+02  0.98742676482E+02  0.00000000000E+00 0. -1.
    9000006    2    1    2  501    0  0.00000000000E+00  0.00000000000E+00  0.90125732352E+03  0.10987426765E+04  0.62846694895E+03 0.  0.
         13    1    3    3    0    0 -0.22629950940E+02 -0.77354586470E+02  0.98162224769E+03  0.98492542047E+03  0.00000000000E+00 0. -1.
          4    1    3    3  501    0  0.22629950940E+02  0.77354586470E+02 -0.80364924176E+02  0.11381725601E+03  0.00000000000E+00 0. -1.
<mgrwt>
<rscale>  0 0.62846695E+03</rscale>
<asrwt>0</asrwt>
<pdfrwt beam="1">0</pdfrwt>
<pdfrwt beam="2">  1        2 0.35906504E+00 0.62846695E+03</pdfrwt>
<totfact> 0.56488874E+00</totfact>
</mgrwt>
</event>
<event>
 5    1  0.2361924E-004  0.6836935E+03  0.7818608E-02  0.9745532E-01
         13   -1    0    0    0    0  0.00000000000E+00  0.00000000000E+00  0.10000000000E+04  0.10000000000E+04  0.00000000000E+00 0. -1.
          2   -1    0    0  501    0 -0.00000000000E+00 -0.00000000000E+00 -0.11685918741E+03  0.11685918741E+03  0.00000000000E+00 0. -1.
    9000006    2    1    2  501    0  0.00000000000E+00  0.00000000000E+00  0.88314081259E+03  0.11168591874E+04  0.68369346175E+03 0.  0.
         13    1    3    3    0    0 -0.94358241348E+02  0.30747723624E+03  0.25237639476E+03  0.40882706998E+03  0.00000000000E+00 0. -1.
          2    1    3    3  501    0  0.94358241348E+02 -0.30747723624E+03  0.63076441783E+03  0.70803211743E+03  0.00000000000E+00 0. -1.
<mgrwt>
<rscale>  0 0.68369346E+03</rscale>
<asrwt>0</asrwt>
<pdfrwt beam="1">0</pdfrwt>
<pdfrwt beam="2">  1        2 0.42494340E+00 0.68369346E+03</pdfrwt>
<totfact> 0.31940498E+00</totfact>
</mgrwt>
</event>
<event>
 5    1  0.2361924E-004  0.6387969E+03  0.7818608E-02  0.9828031E-01
         13   -1    0    0    0    0  0.00000000000E+00  0.00000000000E+00  0.10000000000E+04  0.10000000000E+04  0.00000000000E+00 0. -1.
          2   -1    0    0  501    0 -0.00000000000E+00 -0.00000000000E+00 -0.10201537148E+03  0.10201537148E+03  0.00000000000E+00 0. -1.
    9000006    2    1    2  501    0  0.00000000000E+00  0.00000000000E+00  0.89798462852E+03  0.11020153715E+04  0.63879690506E+03 0.  0.
         13    1    3    3    0    0 -0.11949398856E+02 -0.11624006221E+03 -0.63815631133E+02  0.13314268651E+03  0.00000000000E+00 0. -1.
          2    1    3    3  501    0  0.11949398856E+02  0.11624006221E+03  0.96180025966E+03  0.96887268496E+03  0.00000000000E+00 0. -1.
<mgrwt>
<rscale>  0 0.63879691E+03</rscale>
<asrwt>0</asrwt>
<pdfrwt beam="1">0</pdfrwt>
<pdfrwt beam="2">  1        2 0.37096577E+00 0.63879691E+03</pdfrwt>
<totfact> 0.51072212E+00</totfact>
</mgrwt>
</event>
<event>
 5    1  0.2361924E-004  0.6503232E+03  0.7818608E-02  0.9806173E-01
         13   -1    0    0    0    0  0.00000000000E+00  0.00000000000E+00  0.10000000000E+04  0.10000000000E+04  0.00000000000E+00 0. -1.
          2   -1    0    0  501    0 -0.00000000000E+00 -0.00000000000E+00 -0.10573006965E+03  0.10573006965E+03  0.00000000000E+00 0. -1.
    9000006    2    1    2  501    0  0.00000000000E+00  0.00000000000E+00  0.89426993035E+03  0.11057300696E+04  0.65032321086E+03 0.  0.
         13    1    3    3    0    0 -0.69947500984E+02 -0.29620603616E+03  0.64173619568E+03  0.71025066955E+03  0.00000000000E+00 0. -1.
          4    1    3    3  501    0  0.69947500984E+02  0.29620603616E+03  0.25253373467E+03  0.39547940009E+03  0.00000000000E+00 0. -1.
<mgrwt>
<rscale>  0 0.65032321E+03</rscale>
<asrwt>0</asrwt>
<pdfrwt beam="1">0</pdfrwt>
<pdfrwt beam="2">  1        2 0.38447379E+00 0.65032321E+03</pdfrwt>
<totfact> 0.45503180E+00</totfact>
</mgrwt>
</event>
<event>
 5    1  0.2361924E-004  0.6331769E+03  0.7818608E-02  0.9838869E-01
         13   -1    0    0    0    0  0.00000000000E+00  0.00000000000E+00  0.10000000000E+04  0.10000000000E+04  0.00000000000E+00 0. -1.
          2   -1    0    0  501    0 -0.00000000000E+00 -0.00000000000E+00 -0.10022823858E+03  0.10022823858E+03  0.00000000000E+00 0. -1.
    9000006    2    1    2  501    0  0.00000000000E+00  0.00000000000E+00  0.89977176142E+03  0.11002282386E+04  0.63317687443E+03 0.  0.
         13    1    3    3    0    0 -0.24319582848E+03 -0.97631524964E+01  0.80168104030E+03  0.83781383404E+03  0.00000000000E+00 0. -1.
          4    1    3    3  501    0  0.24319582848E+03  0.97631524964E+01  0.98090721126E+02  0.26241440454E+03  0.00000000000E+00 0. -1.
<mgrwt>
<rscale>  0 0.63317687E+03</rscale>
<asrwt>0</asrwt>
<pdfrwt beam="1">0</pdfrwt>
<pdfrwt beam="2">  1        2 0.36446709E+00 0.63317687E+03</pdfrwt>
<totfact> 0.53967767E+00</totfact>
</mgrwt>
</event>
<event>
 5    1  0.2361924E-004  0.6529136E+03  0.7818608E-02  0.9801327E-01
         13   -1    0    0    0    0  0.00000000000E+00  0.00000000000E+00  0.10000000000E+04  0.10000000000E+04  0.00000000000E+00 0. -1.
          2   -1    0    0  501    0 -0.00000000000E+00 -0.00000000000E+00 -0.10657403967E+03  0.10657403967E+03  0.00000000000E+00 0. -1.
    9000006    2    1    2  501    0  0.00000000000E+00  0.00000000000E+00  0.89342596033E+03  0.11065740397E+04  0.65291359205E+03 0.  0.
         13    1    3    3    0    0 -0.32239913366E+03 -0.50832396692E+02  0.43486062523E+03  0.54371766324E+03  0.00000000000E+00 0. -1.
          2    1    3    3  501    0  0.32239913366E+03  0.50832396692E+02  0.45856533509E+03  0.56285637643E+03  0.00000000000E+00 0. -1.
<mgrwt>
<rscale>  0 0.65291359E+03</rscale>
<asrwt>0</asrwt>
<pdfrwt beam="1">0</pdfrwt>
<pdfrwt beam="2">  1        2 0.38754278E+00 0.65291359E+03</pdfrwt>
<totfact> 0.44317601E+00</totfact>
</mgrwt>
</event>
<event>
 5    1  0.2361924E-004  0.6518856E+03  0.7818608E-02  0.9803247E-01
         13   -1    0    0    0    0  0.00000000000E+00  0.00000000000E+00  0.10000000000E+04  0.10000000000E+04  0.00000000000E+00 0. -1.
          2   -1    0    0  501    0 -0.00000000000E+00 -0.00000000000E+00 -0.10623870842E+03  0.10623870842E+03  0.00000000000E+00 0. -1.
    9000006    2    1    2  501    0  0.00000000000E+00  0.00000000000E+00  0.89376129158E+03  0.11062387084E+04  0.65188559862E+03 0.  0.
         13    1    3    3    0    0  0.34357219607E+02 -0.32256824223E+03  0.50075868968E+03  0.59664893759E+03  0.00000000000E+00 0. -1.
          4    1    3    3  501    0 -0.34357219607E+02  0.32256824223E+03  0.39300260190E+03  0.50958977083E+03  0.00000000000E+00 0. -1.
<mgrwt>
<rscale>  0 0.65188560E+03</rscale>
<asrwt>0</asrwt>
<pdfrwt beam="1">0</pdfrwt>
<pdfrwt beam="2">  1        2 0.38632339E+00 0.65188560E+03</pdfrwt>
<totfact> 0.44785270E+00</totfact>
</mgrwt>
</event>
<event>
 5    1  0.2361924E-004  0.6899700E+03  0.7818608E-02  0.9734540E-01
         13   -1    0    0    0    0  0.00000000000E+00  0.00000000000E+00  0.10000000000E+04  0.10000000000E+04  0.00000000000E+00 0. -1.
          2   -1    0    0  501    0 -0.00000000000E+00 -0.00000000000E+00 -0.11901464171E+03  0.11901464171E+03  0.00000000000E+00 0. -1.
    9000006    2    1    2  501    0  0.00000000000E+00  0.00000000000E+00  0.88098535829E+03  0.11190146417E+04  0.68996997533E+03 0.  0.
         13    1    3    3    0    0  0.20837876079E+03 -0.10045925391E+03  0.85557010784E+03  0.88629226505E+03  0.00000000000E+00 0. -1.
          4    1    3    3  501    0 -0.20837876079E+03  0.10045925391E+03  0.25415250441E+02  0.23272237667E+03  0.00000000000E+00 0. -1.
<mgrwt>
<rscale>  0 0.68996998E+03</rscale>
<asrwt>0</asrwt>
<pdfrwt beam="1">0</pdfrwt>
<pdfrwt beam="2">  1        2 0.43278143E+00 0.68996998E+03</pdfrwt>
<totfact> 0.29776563E+00</totfact>
</mgrwt>
</event>
<event>
 5    1  0.2361924E-004  0.5979841E+03  0.7818608E-02  0.9909597E-01
         13   -1    0    0    0    0  0.00000000000E+00  0.00000000000E+00  0.10000000000E+04  0.10000000000E+04  0.00000000000E+00 0. -1.
          2   -1    0    0  501    0 -0.00000000000E+00 -0.00000000000E+00 -0.89396255319E+02  0.89396255319E+02  0.00000000000E+00 0. -1.
    9000006    2    1    2  501    0  0.00000000000E+00  0.00000000000E+00  0.91060374468E+03  0.10893962553E+04  0.59798413129E+03 0.  0.
         13    1    3    3    0    0 -0.48426298092E+02 -0.26778487751E+03  0.68095584704E+03  0.73331760690E+03  0.00000000000E+00 0. -1.
          4    1    3    3  501    0  0.48426298092E+02  0.26778487751E+03  0.22964789765E+03  0.35607864842E+03  0.00000000000E+00 0. -1.
<mgrwt>
<rscale>  0 0.59798413E+03</rscale>
<asrwt>0</asrwt>
<pdfrwt beam="1">0</pdfrwt>
<pdfrwt beam="2">  1        2 0.32507798E+00 0.59798413E+03</pdfrwt>
<totfact> 0.75047371E+00</totfact>
</mgrwt>
</event>
<event>
 5    1  0.2361924E-004  0.6059415E+03  0.7818608E-02  0.9893155E-01
         13   -1    0    0    0    0  0.00000000000E+00  0.00000000000E+00  0.10000000000E+04  0.10000000000E+04  0.00000000000E+00 0. -1.
          2   -1    0    0  501    0 -0.00000000000E+00 -0.00000000000E+00 -0.91791284263E+02  0.91791284263E+02  0.00000000000E+00 0. -1.
    9000006    2    1    2  501    0  0.00000000000E+00  0.00000000000E+00  0.90820871574E+03  0.10917912843E+04  0.60594152940E+03 0.  0.
         13    1    3    3    0    0  0.15342352624E+03 -0.90914052179E+02  0.12800233709E+02  0.17879594311E+03  0.00000000000E+00 0. -1.
          2    1    3    3  501    0 -0.15342352624E+03  0.90914052179E+02  0.89540848203E+03  0.91299534116E+03  0.00000000000E+00 0. -1.
<mgrwt>
<rscale>  0 0.60594153E+03</rscale>
<asrwt>0</asrwt>
<pdfrwt beam="1">0</pdfrwt>
<pdfrwt beam="2">  1        2 0.33378719E+00 0.60594153E+03</pdfrwt>
<totfact> 0.69810081E+00</totfact>
</mgrwt>
</event>
<event>
 5    1  0.2361924E-004  0.6522007E+03  0.7818608E-02  0.9802658E-01
         13   -1    0    0    0    0  0.00000000000E+00  0.00000000000E+00  0.10000000000E+04  0.10000000000E+04  0.00000000000E+00 0. -1.
          2   -1    0    0  501    0 -0.00000000000E+00 -0.00000000000E+00 -0.10634144260E+03  0.10634144260E+03  0.00000000000E+00 0. -1.
    9000006    2    1    2  501    0  0.00000000000E+00  0.00000000000E+00  0.89365855740E+03  0.11063414426E+04  0.65220071328E+03 0.  0.
         13    1    3    3    0    0 -0.18959883617E+03 -0.20508511086E+03  0.16129353185E+03  0.32252631643E+03  0.00000000000E+00 0. -1.
          2    1    3    3  501    0  0.18959883617E+03  0.20508511086E+03  0.73236502555E+03  0.78381512617E+03  0.00000000000E+00 0. -1.
<mgrwt>
<rscale>  0 0.65220071E+03</rscale>
<asrwt>0</asrwt>
<pdfrwt beam="1">0</pdfrwt>
<pdfrwt beam="2">  1        2 0.38669697E+00 0.65220071E+03</pdfrwt>
<totfact> 0.44641519E+00</totfact>
</mgrwt>
</event>
<event>
 5    1  0.2361924E-004  0.6472672E+03  0.7818608E-02  0.9811921E-01
         13   -1    0    0    0    0  0.00000000000E+00  0.00000000000E+00  0.10000000000E+04  0.10000000000E+04  0.00000000000E+00 0. -1.
          2   -1    0    0  501    0 -0.00000000000E+00 -0.00000000000E+00 -0.10473871218E+03  0.10473871218E+03  0.00000000000E+00 0. -1.
    9000006    2    1    2  501    0  0.00000000000E+00  0.00000000000E+00  0.89526128782E+03  0.11047387122E+04  0.64726721586E+03 0.  0.
         13    1    3    3    0    0  0.20672267633E+03 -0.24537640578E+03  0.37532169156E+03  0.49377142240E+03  0.00000000000E+00 0. -1.
          4    1    3    3  501    0 -0.20672267633E+03  0.24537640578E+03  0.51993959626E+03  0.61096728978E+03  0.00000000000E+00 0. -1.
<mgrwt>
<rscale>  0 0.64726722E+03</rscale>
<asrwt>0</asrwt>
<pdfrwt beam="1">0</pdfrwt>
<pdfrwt beam="2">  1        2 0.38086885E+00 0.64726722E+03</pdfrwt>
<totfact> 0.46932506E+00</totfact>
</mgrwt>
</event>
<event>
 5    1  0.2361924E-004  0.5923399E+03  0.7818608E-02  0.9921427E-01
         13   -1    0    0    0    0  0.00000000000E+00  0.00000000000E+00  0.10000000000E+04  0.10000000000E+04  0.00000000000E+00 0. -1.
          2   -1    0    0  501    0 -0.00000000000E+00 -0.00000000000E+00 -0.87716625641E+02  0.87716625641E+02  0.00000000000E+00 0. -1.
    9000006    2    1    2  501    0  0.00000000000E+00  0.00000000000E+00  0.91228337436E+03  0.10877166256E+04  0.59233985394E+03 0.  0.
         13    1    3    3    0    0  0.19437587782E+03 -0.55120744073E+02  0.85380389708E+03  0.87738325319E+03  0.00000000000E+00 0. -1.
          2    1    3    3  501    0 -0.19437587782E+03  0.55120744073E+02  0.58479477277E+02  0.21033337245E+03  0.00000000000E+00 0. -1.
<mgrwt>
<rscale>  0 0.59233985E+03</rscale>
<asrwt>0</asrwt>
<pdfrwt beam="1">0</pdfrwt>
<pdfrwt beam="2">  1        2 0.31897022E+00 0.59233985E+03</pdfrwt>
<totfact> 0.78943002E+00</totfact>
</mgrwt>
</event>
<event>
 5    1  0.2361924E-004  0.6441523E+03  0.7818608E-02  0.9817814E-01
         13   -1    0    0    0    0  0.00000000000E+00  0.00000000000E+00  0.10000000000E+04  0.10000000000E+04  0.00000000000E+00 0. -1.
          2   -1    0    0  501    0 -0.00000000000E+00 -0.00000000000E+00 -0.10373303968E+03  0.10373303968E+03  0.00000000000E+00 0. -1.
    9000006    2    1    2  501    0  0.00000000000E+00  0.00000000000E+00  0.89626696032E+03  0.11037330397E+04  0.64415227913E+03 0.  0.
         13    1    3    3    0    0  0.47606973094E+02  0.11643230120E+02  0.99357321018E+03  0.99478123861E+03  0.00000000000E+00 0. -1.
          2    1    3    3  501    0 -0.47606973094E+02 -0.11643230120E+02 -0.97306249858E+02  0.10895180107E+03  0.00000000000E+00 0. -1.
<mgrwt>
<rscale>  0 0.64415228E+03</rscale>
<asrwt>0</asrwt>
<pdfrwt beam="1">0</pdfrwt>
<pdfrwt beam="2">  1        2 0.37721185E+00 0.64415228E+03</pdfrwt>
<totfact> 0.48424081E+00</totfact>
</mgrwt>
</event>
<event>
 5    1  0.2361924E-004  0.6610163E+03  0.7818608E-02  0.9786325E-01
         13   -1    0    0    0    0  0.00000000000E+00  0.00000000000E+00  0.10000000000E+04  0.10000000000E+04  0.00000000000E+00 0. -1.
          2   -1    0    0  501    0 -0.00000000000E+00 -0.00000000000E+00 -0.10923562724E+03  0.10923562724E+03  0.00000000000E+00 0. -1.
    9000006    2    1    2  501    0  0.00000000000E+00  0.00000000000E+00  0.89076437276E+03  0.11092356272E+04  0.66101626981E+03 0.  0.
         13    1    3    3    0    0 -0.14731166490E+03  0.27099528269E+03  0.64461765350E+03  0.71461254471E+03  0.00000000000E+00 0. -1.
          4    1    3    3  501    0  0.14731166490E+03 -0.27099528269E+03  0.24614671927E+03  0.39462308253E+03  0.00000000000E+00 0. -1.
<mgrwt>
<rscale>  0 0.66101627E+03</rscale>
<asrwt>0</asrwt>
<pdfrwt beam="1">0</pdfrwt>
<pdfrwt beam="2">  1        2 0.39722130E+00 0.66101627E+03</pdfrwt>
<totfact> 0.40759374E+00</totfact>
</mgrwt>
</event>
<event>
 5    1  0.2361924E-004  0.6533653E+03  0.7818608E-02  0.9800485E-01
         13   -1    0    0    0    0  0.00000000000E+00  0.00000000000E+00  0.10000000000E+04  0.10000000000E+04  0.00000000000E+00 0. -1.
          2   -1    0    0  501    0 -0.00000000000E+00 -0.00000000000E+00 -0.10672154609E+03  0.10672154609E+03  0.00000000000E+00 0. -1.
    9000006    2    1    2  501    0  0.00000000000E+00  0.00000000000E+00  0.89327845391E+03  0.11067215461E+04  0.65336527637E+03 0.  0.
         13    1    3    3    0    0  0.69887374471E+02  0.25054601438E+03  0.78142781576E+03  0.82358180023E+03  0.00000000000E+00 0. -1.
          4    1    3    3  501    0 -0.69887374471E+02 -0.25054601438E+03  0.11185063815E+03  0.28313974586E+03  0.00000000000E+00 0. -1.
<mgrwt>
<rscale>  0 0.65336528E+03</rscale>
<asrwt>0</asrwt>
<pdfrwt beam="1">0</pdfrwt>
<pdfrwt beam="2">  1        2 0.38807917E+00 0.65336528E+03</pdfrwt>
<totfact> 0.44113286E+00</totfact>
</mgrwt>
</event>
<event>
 5    1  0.2361924E-004  0.6602863E+03  0.7818608E-02  0.9787667E-01
         13   -1    0    0    0    0  0.00000000000E+00  0.00000000000E+00  0.10000000000E+04  0.10000000000E+04  0.00000000000E+00 0. -1.
          2   -1    0    0  501    0 -0.00000000000E+00 -0.00000000000E+00 -0.10899448360E+03  0.10899448360E+03  0.00000000000E+00 0. -1.
    9000006    2    1    2  501    0  0.00000000000E+00  0.00000000000E+00  0.89100551640E+03  0.11089944836E+04  0.66028625185E+03 0.  0.
         13    1    3    3    0    0 -0.88049929131E+02  0.13448392784E+03 -0.38829412771E+02  0.16536759103E+03  0.00000000000E+00 0. -1.
          4    1    3    3  501    0  0.88049929131E+02 -0.13448392784E+03  0.92983492917E+03  0.94362689257E+03  0.00000000000E+00 0. -1.
<mgrwt>
<rscale>  0 0.66028625E+03</rscale>
<asrwt>0</asrwt>
<pdfrwt beam="1">0</pdfrwt>
<pdfrwt beam="2">  1        2 0.39634441E+00 0.66028625E+03</pdfrwt>
<totfact> 0.41070777E+00</totfact>
</mgrwt>
</event>
<event>
 5    1  0.2361924E-004  0.6477239E+03  0.7818608E-02  0.9811059E-01
         13   -1    0    0    0    0  0.00000000000E+00  0.00000000000E+00  0.10000000000E+04  0.10000000000E+04  0.00000000000E+00 0. -1.
          2   -1    0    0  501    0 -0.00000000000E+00 -0.00000000000E+00 -0.10488657364E+03  0.10488657364E+03  0.00000000000E+00 0. -1.
    9000006    2    1    2  501    0  0.00000000000E+00  0.00000000000E+00  0.89511342636E+03  0.11048865736E+04  0.64772393392E+03 0.  0.
         13    1    3    3    0    0 -0.14427025608E+03  0.14934204534E+03  0.87150727710E+03  0.89590283365E+03  0.00000000000E+00 0. -1.
          2    1    3    3  501    0  0.14427025608E+03 -0.14934204534E+03  0.23606149253E+02  0.20898373999E+03  0.00000000000E+00 0. -1.
<mgrwt>
<rscale>  0 0.64772393E+03</rscale>
<asrwt>0</asrwt>
<pdfrwt beam="1">0</pdfrwt>
<pdfrwt beam="2">  1        2 0.38140653E+00 0.64772393E+03</pdfrwt>
<totfact> 0.46716766E+00</totfact>
</mgrwt>
</event>
<event>
 5    1  0.2361924E-004  0.6635187E+03  0.7818608E-02  0.9781738E-01
         13   -1    0    0    0    0  0.00000000000E+00  0.00000000000E+00  0.10000000000E+04  0.10000000000E+04  0.00000000000E+00 0. -1.
          2   -1    0    0  501    0 -0.00000000000E+00 -0.00000000000E+00 -0.11006428117E+03  0.11006428117E+03  0.00000000000E+00 0. -1.
    9000006    2    1    2  501    0  0.00000000000E+00  0.00000000000E+00  0.88993571883E+03  0.11100642812E+04  0.66351874478E+03 0.  0.
         13    1    3    3    0    0 -0.22959118618E+03 -0.13169481715E+03  0.77960323163E+03  0.82330846978E+03  0.00000000000E+00 0. -1.
          2    1    3    3  501    0  0.22959118618E+03  0.13169481715E+03  0.11033248720E+03  0.28675581139E+03  0.00000000000E+00 0. -1.
<mgrwt>
<rscale>  0 0.66351874E+03</rscale>
<asrwt>0</asrwt>
<pdfrwt beam="1">0</pdfrwt>
<pdfrwt beam="2">  1        2 0.40023459E+00 0.66351874E+03</pdfrwt>
<totfact> 0.39705400E+00</totfact>
</mgrwt>
</event>
<event>
 5    1  0.2361924E-004  0.6289380E+03  0.7818608E-02  0.9847123E-01
         13   -1    0    0    0    0  0.00000000000E+00  0.00000000000E+00  0.10000000000E+04  0.10000000000E+04  0.00000000000E+00 0. -1.
          2   -1    0    0  501    0 -0.00000000000E+00 -0.00000000000E+00 -0.98890764614E+02  0.98890764614E+02  0.00000000000E+00 0. -1.
    9000006    2    1    2  501    0  0.00000000000E+00  0.00000000000E+00  0.90110923539E+03  0.10988907646E+04  0.62893804024E+03 0.  0.
         13    1    3    3    0    0  0.31038392345E+03 -0.22057811100E+02  0.52997203795E+03  0.61456902621E+03  0.00000000000E+00 0. -1.
          2    1    3    3  501    0 -0.31038392345E+03  0.22057811100E+02  0.37113719744E+03  0.48432173841E+03  0.00000000000E+00 0. -1.
<mgrwt>
<rscale>  0 0.62893804E+03</rscale>
<asrwt>0</asrwt>
<pdfrwt beam="1">0</pdfrwt>
<pdfrwt beam="2">  1        2 0.35960354E+00 0.62893804E+03</pdfrwt>
<totfact> 0.56232765E+00</totfact>
</mgrwt>
</event>
<event>
 5    1  0.2361924E-004  0.6603196E+03  0.7818608E-02  0.9787606E-01
         13   -1    0    0    0    0  0.00000000000E+00  0.00000000000E+00  0.10000000000E+04  0.10000000000E+04  0.00000000000E+00 0. -1.
          2   -1    0    0  501    0 -0.00000000000E+00 -0.00000000000E+00 -0.10900548324E+03  0.10900548324E+03  0.00000000000E+00 0. -1.
    9000006    2    1    2  501    0  0.00000000000E+00  0.00000000000E+00  0.89099451676E+03  0.11090054832E+04  0.66031956882E+03 0.  0.
         13    1    3    3    0    0 -0.21837284902E+03 -0.14769414701E+03  0.77931296970E+03  0.82269615715E+03  0.00000000000E+00 0. -1.
          4    1    3    3  501    0  0.21837284902E+03  0.14769414701E+03  0.11168154706E+03  0.28630932609E+03  0.00000000000E+00 0. -1.
<mgrwt>
<rscale>  0 0.66031957E+03</rscale>
<asrwt>0</asrwt>
<pdfrwt beam="1">0</pdfrwt>
<pdfrwt beam="2">  1        2 0.39638441E+00 0.66031957E+03</pdfrwt>
<totfact> 0.41056526E+00</totfact>
</mgrwt>
</event>
<event>
 5    1  0.2361924E-004  0.6489657E+03  0.7818608E-02  0.9808722E-01
         13   -1    0    0    0    0  0.00000000000E+00  0.00000000000E+00  0.10000000000E+04  0.10000000000E+04  0.00000000000E+00 0. -1.
          2   -1    0    0  501    0 -0.00000000000E+00 -0.00000000000E+00 -0.10528911146E+03  0.10528911146E+03  0.00000000000E+00 0. -1.
    9000006    2    1    2  501    0  0.00000000000E+00  0.00000000000E+00  0.89471088854E+03  0.11052891115E+04  0.64896567385E+03 0.  0.
         13    1    3    3    0    0 -0.23343711204E+03  0.80364425936E+02  0.80598094146E+03  0.84294519645E+03  0.00000000000E+00 0. -1.
          2    1    3    3  501    0  0.23343711204E+03 -0.80364425936E+02  0.88729947086E+02  0.26234391501E+03  0.00000000000E+00 0. -1.
<mgrwt>
<rscale>  0 0.64896567E+03</rscale>
<asrwt>0</asrwt>
<pdfrwt beam="1">0</pdfrwt>
<pdfrwt beam="2">  1        2 0.38287030E+00 0.64896567E+03</pdfrwt>
<totfact> 0.46133993E+00</totfact>
</mgrwt>
</event>
<event>
 5    1  0.2361924E-004  0.6501183E+03  0.7818608E-02  0.9806557E-01
         13   -1    0    0    0    0  0.00000000000E+00  0.00000000000E+00  0.10000000000E+04  0.10000000000E+04  0.00000000000E+00 0. -1.
          2   -1    0    0  501    0 -0.00000000000E+00 -0.00000000000E+00 -0.10566344640E+03  0.10566344640E+03  0.00000000000E+00 0. -1.
    9000006    2    1    2  501    0  0.00000000000E+00  0.00000000000E+00  0.89433655360E+03  0.11056634464E+04  0.65011828584E+03 0.  0.
         13    1    3    3    0    0  0.56809701636E+02 -0.31530117862E+03  0.35368683362E+03  0.47721750985E+03  0.00000000000E+00 0. -1.
          4    1    3    3  501    0 -0.56809701636E+02  0.31530117862E+03  0.54064971998E+03  0.62844593654E+03  0.00000000000E+00 0. -1.
<mgrwt>
<rscale>  0 0.65011829E+03</rscale>
<asrwt>0</asrwt>
<pdfrwt beam="1">0</pdfrwt>
<pdfrwt beam="2">  1        2 0.38423152E+00 0.65011829E+03</pdfrwt>
<totfact> 0.45597983E+00</totfact>
</mgrwt>
</event>
<event>
 5    1  0.2361924E-004  0.6561725E+03  0.7818608E-02  0.9795265E-01
         13   -1    0    0    0    0  0.00000000000E+00  0.00000000000E+00  0.10000000000E+04  0.10000000000E+04  0.00000000000E+00 0. -1.
          2   -1    0    0  501    0 -0.00000000000E+00 -0.00000000000E+00 -0.10764058136E+03  0.10764058136E+03  0.00000000000E+00 0. -1.
    9000006    2    1    2  501    0  0.00000000000E+00  0.00000000000E+00  0.89235941864E+03  0.11076405814E+04  0.65617248147E+03 0.  0.
         13    1    3    3    0    0 -0.61969846241E+01  0.43725516364E+02 -0.10260035321E+03  0.11170119014E+03  0.00000000000E+00 0. -1.
          2    1    3    3  501    0  0.61969846241E+01 -0.43725516364E+02  0.99495977185E+03  0.99593939122E+03  0.00000000000E+00 0. -1.
<mgrwt>
<rscale>  0 0.65617248E+03</rscale>
<asrwt>0</asrwt>
<pdfrwt beam="1">0</pdfrwt>
<pdfrwt beam="2">  1        2 0.39142112E+00 0.65617248E+03</pdfrwt>
<totfact> 0.42859375E+00</totfact>
</mgrwt>
</event>
<event>
 5    1  0.2361924E-004  0.6504203E+03  0.7818608E-02  0.9805991E-01
         13   -1    0    0    0    0  0.00000000000E+00  0.00000000000E+00  0.10000000000E+04  0.10000000000E+04  0.00000000000E+00 0. -1.
          2   -1    0    0  501    0 -0.00000000000E+00 -0.00000000000E+00 -0.10576164739E+03  0.10576164739E+03  0.00000000000E+00 0. -1.
    9000006    2    1    2  501    0  0.00000000000E+00  0.00000000000E+00  0.89423835261E+03  0.11057616474E+04  0.65042031762E+03 0.  0.
         13    1    3    3    0    0  0.23981304369E+03  0.13183052706E+03  0.14840883802E+03  0.31131136663E+03  0.00000000000E+00 0. -1.
          4    1    3    3  501    0 -0.23981304369E+03 -0.13183052706E+03  0.74582951458E+03  0.79445028077E+03  0.00000000000E+00 0. -1.
<mgrwt>
<rscale>  0 0.65042032E+03</rscale>
<asrwt>0</asrwt>
<pdfrwt beam="1">0</pdfrwt>
<pdfrwt beam="2">  1        2 0.38458862E+00 0.65042032E+03</pdfrwt>
<totfact> 0.45458308E+00</totfact>
</mgrwt>
</event>
<event>
 5    1  0.2361924E-004  0.6632912E+03  0.7818608E-02  0.9782154E-01
         13   -1    0    0    0    0  0.00000000000E+00  0.00000000000E+00  0.10000000000E+04  0.10000000000E+04  0.00000000000E+00 0. -1.
          2   -1    0    0  501    0 -0.00000000000E+00 -0.00000000000E+00 -0.10998880358E+03  0.10998880358E+03  0.00000000000E+00 0. -1.
    9000006    2    1    2  501    0  0.00000000000E+00  0.00000000000E+00  0.89001119642E+03  0.11099888036E+04  0.66329119872E+03 0.  0.
         13    1    3    3    0    0  0.17958631247E+03 -0.13700502396E+03  0.85137364853E+03  0.88082842235E+03  0.00000000000E+00 0. -1.
          2    1    3    3  501    0 -0.17958631247E+03  0.13700502396E+03  0.38637547892E+02  0.22916038122E+03  0.00000000000E+00 0. -1.
<mgrwt>
<rscale>  0 0.66329120E+03</rscale>
<asrwt>0</asrwt>
<pdfrwt beam="1">0</pdfrwt>
<pdfrwt beam="2">  1        2 0.39996013E+00 0.66329120E+03</pdfrwt>
<totfact> 0.39800377E+00</totfact>
</mgrwt>
</event>
<event>
 5    1  0.2361924E-004  0.6435063E+03  0.7818608E-02  0.9819041E-01
         13   -1    0    0    0    0  0.00000000000E+00  0.00000000000E+00  0.10000000000E+04  0.10000000000E+04  0.00000000000E+00 0. -1.
          2   -1    0    0  501    0 -0.00000000000E+00 -0.00000000000E+00 -0.10352509258E+03  0.10352509258E+03  0.00000000000E+00 0. -1.
    9000006    2    1    2  501    0  0.00000000000E+00  0.00000000000E+00  0.89647490742E+03  0.11035250926E+04  0.64350630947E+03 0.  0.
         13    1    3    3    0    0 -0.30135078801E+03  0.49930141291E+02  0.27487697610E+03  0.41092903089E+03  0.00000000000E+00 0. -1.
          2    1    3    3  501    0  0.30135078801E+03 -0.49930141291E+02  0.62159793132E+03  0.69259606169E+03  0.00000000000E+00 0. -1.
<mgrwt>
<rscale>  0 0.64350631E+03</rscale>
<asrwt>0</asrwt>
<pdfrwt beam="1">0</pdfrwt>
<pdfrwt beam="2">  1        2 0.37645568E+00 0.64350631E+03</pdfrwt>
<totfact> 0.48737839E+00</totfact>
</mgrwt>
</event>
<event>
 5    1  0.2361924E-004  0.6537080E+03  0.7818608E-02  0.9799846E-01
         13   -1    0    0    0    0  0.00000000000E+00  0.00000000000E+00  0.10000000000E+04  0.10000000000E+04  0.00000000000E+00 0. -1.
          2   -1    0    0  501    0 -0.00000000000E+00 -0.00000000000E+00 -0.10683354007E+03  0.10683354007E+03  0.00000000000E+00 0. -1.
    9000006    2    1    2  501    0  0.00000000000E+00  0.00000000000E+00  0.89316645993E+03  0.11068335401E+04  0.65370800843E+03 0.  0.
         13    1    3    3    0    0 -0.50545644802E+02  0.97938599011E+02  0.96758957925E+03  0.97384620205E+03  0.00000000000E+00 0. -1.
          2    1    3    3  501    0  0.50545644802E+02 -0.97938599011E+02 -0.74423119316E+02  0.13298733802E+03  0.00000000000E+00 0. -1.
<mgrwt>
<rscale>  0 0.65370801E+03</rscale>
<asrwt>0</asrwt>
<pdfrwt beam="1">0</pdfrwt>
<pdfrwt beam="2">  1        2 0.38848642E+00 0.65370801E+03</pdfrwt>
<totfact> 0.43958730E+00</totfact>
</mgrwt>
</event>
<event>
 5    1  0.2361924E-004  0.6512668E+03  0.7818608E-02  0.9804405E-01
         13   -1    0    0    0    0  0.00000000000E+00  0.00000000000E+00  0.10000000000E+04  0.10000000000E+04  0.00000000000E+00 0. -1.
          2   -1    0    0  501    0 -0.00000000000E+00 -0.00000000000E+00 -0.10603712228E+03  0.10603712228E+03  0.00000000000E+00 0. -1.
    9000006    2    1    2  501    0  0.00000000000E+00  0.00000000000E+00  0.89396287772E+03  0.11060371223E+04  0.65126683405E+03 0.  0.
         13    1    3    3    0    0 -0.17853731990E+03  0.51532145319E+02  0.90111326640E+03  0.92007404891E+03  0.00000000000E+00 0. -1.
          4    1    3    3  501    0  0.17853731990E+03 -0.51532145319E+02 -0.71503886875E+01  0.18596307337E+03  0.00000000000E+00 0. -1.
<mgrwt>
<rscale>  0 0.65126683E+03</rscale>
<asrwt>0</asrwt>
<pdfrwt beam="1">0</pdfrwt>
<pdfrwt beam="2">  1        2 0.38559035E+00 0.65126683E+03</pdfrwt>
<totfact> 0.45068558E+00</totfact>
</mgrwt>
</event>
<event>
 5    1  0.2361924E-004  0.6512513E+03  0.7818608E-02  0.9804434E-01
         13   -1    0    0    0    0  0.00000000000E+00  0.00000000000E+00  0.10000000000E+04  0.10000000000E+04  0.00000000000E+00 0. -1.
          2   -1    0    0  501    0 -0.00000000000E+00 -0.00000000000E+00 -0.10603205521E+03  0.10603205521E+03  0.00000000000E+00 0. -1.
    9000006    2    1    2  501    0  0.00000000000E+00  0.00000000000E+00  0.89396794479E+03  0.11060320552E+04  0.65125127320E+03 0.  0.
         13    1    3    3    0    0 -0.42037778174E+02 -0.27210134924E+03  0.15172196225E+03  0.31436582652E+03  0.00000000000E+00 0. -1.
          2    1    3    3  501    0  0.42037778174E+02  0.27210134924E+03  0.74224598254E+03  0.79166622869E+03  0.00000000000E+00 0. -1.
<mgrwt>
<rscale>  0 0.65125127E+03</rscale>
<asrwt>0</asrwt>
<pdfrwt beam="1">0</pdfrwt>
<pdfrwt beam="2">  1        2 0.38557192E+00 0.65125127E+03</pdfrwt>
<totfact> 0.45075699E+00</totfact>
</mgrwt>
</event>
<event>
 5    1  0.2361924E-004  0.6541016E+03  0.7818608E-02  0.9799113E-01
         13   -1    0    0    0    0  0.00000000000E+00  0.00000000000E+00  0.10000000000E+04  0.10000000000E+04  0.00000000000E+00 0. -1.
          2   -1    0    0  501    0 -0.00000000000E+00 -0.00000000000E+00 -0.10696222510E+03  0.10696222510E+03  0.00000000000E+00 0. -1.
    9000006    2    1    2  501    0  0.00000000000E+00  0.00000000000E+00  0.89303777490E+03  0.11069622251E+04  0.65410159793E+03 0.  0.
         13    1    3    3    0    0  0.26080311130E+03  0.17551067619E+03  0.29383301540E+03  0.43030233703E+03  0.00000000000E+00 0. -1.
          2    1    3    3  501    0 -0.26080311130E+03 -0.17551067619E+03  0.59920475950E+03  0.67665988807E+03  0.00000000000E+00 0. -1.
<mgrwt>
<rscale>  0 0.65410160E+03</rscale>
<asrwt>0</asrwt>
<pdfrwt beam="1">0</pdfrwt>
<pdfrwt beam="2">  1        2 0.38895437E+00 0.65410160E+03</pdfrwt>
<totfact> 0.43781744E+00</totfact>
</mgrwt>
</event>
<event>
 5    1  0.2361924E-004  0.6786657E+03  0.7818608E-02  0.9754429E-01
         13   -1    0    0    0    0  0.00000000000E+00  0.00000000000E+00  0.10000000000E+04  0.10000000000E+04  0.00000000000E+00 0. -1.
          2   -1    0    0  501    0 -0.00000000000E+00 -0.00000000000E+00 -0.11514678595E+03  0.11514678595E+03  0.00000000000E+00 0. -1.
    9000006    2    1    2  501    0  0.00000000000E+00  0.00000000000E+00  0.88485321405E+03  0.11151467860E+04  0.67866570843E+03 0.  0.
         13    1    3    3    0    0  0.29436432640E+03  0.28147527575E+02  0.16893215883E+03  0.34055941369E+03  0.00000000000E+00 0. -1.
          2    1    3    3  501    0 -0.29436432640E+03 -0.28147527575E+02  0.71592105522E+03  0.77458737226E+03  0.00000000000E+00 0. -1.
<mgrwt>
<rscale>  0 0.67866571E+03</rscale>
<asrwt>0</asrwt>
<pdfrwt beam="1">0</pdfrwt>
<pdfrwt beam="2">  1        2 0.41871647E+00 0.67866571E+03</pdfrwt>
<totfact> 0.33757631E+00</totfact>
</mgrwt>
</event>
<event>
 5    1  0.2361924E-004  0.6495929E+03  0.7818608E-02  0.9807543E-01
         13   -1    0    0    0    0  0.00000000000E+00  0.00000000000E+00  0.10000000000E+04  0.10000000000E+04  0.00000000000E+00 0. -1.
          2   -1    0    0  501    0 -0.00000000000E+00 -0.00000000000E+00 -0.10549274392E+03  0.10549274392E+03  0.00000000000E+00 0. -1.
    9000006    2    1    2  501    0  0.00000000000E+00  0.00000000000E+00  0.89450725608E+03  0.11054927439E+04  0.64959293075E+03 0.  0.
         13    1    3    3    0    0  0.16521980171E+03 -0.26020151174E+03  0.27294885846E+03  0.41170801416E+03  0.00000000000E+00 0. -1.
          4    1    3    3  501    0 -0.16521980171E+03  0.26020151174E+03  0.62155839762E+03  0.69378472976E+03  0.00000000000E+00 0. -1.
<mgrwt>
<rscale>  0 0.64959293E+03</rscale>
<asrwt>0</asrwt>
<pdfrwt beam="1">0</pdfrwt>
<pdfrwt beam="2">  1        2 0.38361079E+00 0.64959293E+03</pdfrwt>
<totfact> 0.45841706E+00</totfact>
</mgrwt>
</event>
<event>
 5    1  0.2361924E-004  0.6283425E+03  0.7818608E-02  0.9848289E-01
         13   -1    0    0    0    0  0.00000000000E+00  0.00000000000E+00  0.10000000000E+04  0.10000000000E+04  0.00000000000E+00 0. -1.
          2   -1    0    0  501    0 -0.00000000000E+00 -0.00000000000E+00 -0.98703565033E+02  0.98703565033E+02  0.00000000000E+00 0. -1.
    9000006    2    1    2  501    0  0.00000000000E+00  0.00000000000E+00  0.90129643497E+03  0.10987035650E+04  0.62834247042E+03 0.  0.
         13    1    3    3    0    0  0.25920202607E+03 -0.92588588107E+02  0.71551671495E+03  0.76663061923E+03  0.00000000000E+00 0. -1.
          4    1    3    3  501    0 -0.25920202607E+03  0.92588588107E+02  0.18577972001E+03  0.33207294580E+03  0.00000000000E+00 0. -1.
<mgrwt>
<rscale>  0 0.62834247E+03</rscale>
<asrwt>0</asrwt>
<pdfrwt beam="1">0</pdfrwt>
<pdfrwt beam="2">  1        2 0.35892281E+00 0.62834247E+03</pdfrwt>
<totfact> 0.56556694E+00</totfact>
</mgrwt>
</event>
<event>
 5    1  0.2361924E-004  0.6501775E+03  0.7818608E-02  0.9806446E-01
         13   -1    0    0    0    0  0.00000000000E+00  0.00000000000E+00  0.10000000000E+04  0.10000000000E+04  0.00000000000E+00 0. -1.
          2   -1    0    0  501    0 -0.00000000000E+00 -0.00000000000E+00 -0.10568270149E+03  0.10568270149E+03  0.00000000000E+00 0. -1.
    9000006    2    1    2  501    0  0.00000000000E+00  0.00000000000E+00  0.89431729851E+03  0.11056827015E+04  0.65017751881E+03 0.  0.
         13    1    3    3    0    0 -0.10389912100E+03  0.43455927395E+02 -0.71448267290E+02  0.13337278534E+03  0.00000000000E+00 0. -1.
          4    1    3    3  501    0  0.10389912100E+03 -0.43455927395E+02  0.96576556580E+03  0.97230991615E+03  0.00000000000E+00 0. -1.
<mgrwt>
<rscale>  0 0.65017752E+03</rscale>
<asrwt>0</asrwt>
<pdfrwt beam="1">0</pdfrwt>
<pdfrwt beam="2">  1        2 0.38430154E+00 0.65017752E+03</pdfrwt>
<totfact> 0.45570565E+00</totfact>
</mgrwt>
</event>
<event>
 5    1  0.2361924E-004  0.6405775E+03  0.7818608E-02  0.9824622E-01
         13   -1    0    0    0    0  0.00000000000E+00  0.00000000000E+00  0.10000000000E+04  0.10000000000E+04  0.00000000000E+00 0. -1.
          2   -1    0    0  501    0 -0.00000000000E+00 -0.00000000000E+00 -0.10258487260E+03  0.10258487260E+03  0.00000000000E+00 0. -1.
    9000006    2    1    2  501    0  0.00000000000E+00  0.00000000000E+00  0.89741512740E+03  0.11025848726E+04  0.64057746636E+03 0.  0.
         13    1    3    3    0    0  0.25593845104E+03 -0.52279264853E+02  0.12971069257E+03  0.29165472055E+03  0.00000000000E+00 0. -1.
          2    1    3    3  501    0 -0.25593845104E+03  0.52279264853E+02  0.76770443483E+03  0.81093015205E+03  0.00000000000E+00 0. -1.
<mgrwt>
<rscale>  0 0.64057747E+03</rscale>
<asrwt>0</asrwt>
<pdfrwt beam="1">0</pdfrwt>
<pdfrwt beam="2">  1        2 0.37303669E+00 0.64057747E+03</pdfrwt>
<totfact> 0.50179871E+00</totfact>
</mgrwt>
</event>
<event>
 5    1  0.2361924E-004  0.6446915E+03  0.7818608E-02  0.9816792E-01
         13   -1    0    0    0    0  0.00000000000E+00  0.00000000000E+00  0.10000000000E+04  0.10000000000E+04  0.00000000000E+00 0. -1.
          2   -1    0    0  501    0 -0.00000000000E+00 -0.00000000000E+00 -0.10390678185E+03  0.10390678185E+03  0.00000000000E+00 0. -1.
    9000006    2    1    2  501    0  0.00000000000E+00  0.00000000000E+00  0.89609321815E+03  0.11039067819E+04  0.64469149786E+03 0.  0.
         13    1    3    3    0    0 -0.12298053647E+03  0.28164333743E+03  0.61458595112E+03  0.68714123235E+03  0.00000000000E+00 0. -1.
          4    1    3    3  501    0  0.12298053647E+03 -0.28164333743E+03  0.28150726702E+03  0.41676554951E+03  0.00000000000E+00 0. -1.
<mgrwt>
<rscale>  0 0.64469150E+03</rscale>
<asrwt>0</asrwt>
<pdfrwt beam="1">0</pdfrwt>
<pdfrwt beam="2">  1        2 0.37784364E+00 0.64469150E+03</pdfrwt>
<totfact> 0.48163347E+00</totfact>
</mgrwt>
</event>
<event>
 5    1  0.2361924E-004  0.6527420E+03  0.7818608E-02  0.9801648E-01
         13   -1    0    0    0    0  0.00000000000E+00  0.00000000000E+00  0.10000000000E+04  0.10000000000E+04  0.00000000000E+00 0. -1.
          2   -1    0    0  501    0 -0.00000000000E+00 -0.00000000000E+00 -0.10651803466E+03  0.10651803466E+03  0.00000000000E+00 0. -1.
    9000006    2    1    2  501    0  0.00000000000E+00  0.00000000000E+00  0.89348196534E+03  0.11065180347E+04  0.65274201539E+03 0.  0.
         13    1    3    3    0    0 -0.11166861193E+03  0.28737543104E+03  0.62824066783E+03  0.69981487121E+03  0.00000000000E+00 0. -1.
          2    1    3    3  501    0  0.11166861193E+03 -0.28737543104E+03  0.26524129751E+03  0.40670316345E+03  0.00000000000E+00 0. -1.
<mgrwt>
<rscale>  0 0.65274202E+03</rscale>
<asrwt>0</asrwt>
<pdfrwt beam="1">0</pdfrwt>
<pdfrwt beam="2">  1        2 0.38733912E+00 0.65274202E+03</pdfrwt>
<totfact> 0.44395400E+00</totfact>
</mgrwt>
</event>
<event>
 5    1  0.2361924E-004  0.6465897E+03  0.7818608E-02  0.9813200E-01
         13   -1    0    0    0    0  0.00000000000E+00  0.00000000000E+00  0.10000000000E+04  0.10000000000E+04  0.00000000000E+00 0. -1.
          2   -1    0    0  501    0 -0.00000000000E+00 -0.00000000000E+00 -0.10451955720E+03  0.10451955720E+03  0.00000000000E+00 0. -1.
    9000006    2    1    2  501    0  0.00000000000E+00  0.00000000000E+00  0.89548044280E+03  0.11045195572E+04  0.64658969123E+03 0.  0.
         13    1    3    3    0    0 -0.30023011010E+03  0.69444517471E+02  0.61475254910E+03  0.68766369444E+03  0.00000000000E+00 0. -1.
          2    1    3    3  501    0  0.30023011010E+03 -0.69444517471E+02  0.28072789370E+03  0.41685586276E+03  0.00000000000E+00 0. -1.
<mgrwt>
<rscale>  0 0.64658969E+03</rscale>
<asrwt>0</asrwt>
<pdfrwt beam="1">0</pdfrwt>
<pdfrwt beam="2">  1        2 0.38007192E+00 0.64658969E+03</pdfrwt>
<totfact> 0.47253937E+00</totfact>
</mgrwt>
</event>
<event>
 5    1  0.2361924E-004  0.6506516E+03  0.7818608E-02  0.9805557E-01
         13   -1    0    0    0    0  0.00000000000E+00  0.00000000000E+00  0.10000000000E+04  0.10000000000E+04  0.00000000000E+00 0. -1.
          2   -1    0    0  501    0 -0.00000000000E+00 -0.00000000000E+00 -0.10583687980E+03  0.10583687980E+03  0.00000000000E+00 0. -1.
    9000006    2    1    2  501    0  0.00000000000E+00  0.00000000000E+00  0.89416312020E+03  0.11058368798E+04  0.65065161123E+03 0.  0.
         13    1    3    3    0    0 -0.95339198344E+02 -0.36899902654E+02  0.97199081256E+03  0.97735219100E+03  0.00000000000E+00 0. -1.
          2    1    3    3  501    0  0.95339198344E+02  0.36899902654E+02 -0.77827692359E+02  0.12848468879E+03  0.00000000000E+00 0. -1.
<mgrwt>
<rscale>  0 0.65065161E+03</rscale>
<asrwt>0</asrwt>
<pdfrwt beam="1">0</pdfrwt>
<pdfrwt beam="2">  1        2 0.38486219E+00 0.65065161E+03</pdfrwt>
<totfact> 0.45351564E+00</totfact>
</mgrwt>
</event>
<event>
 5    1  0.2361924E-004  0.6425194E+03  0.7818608E-02  0.9820918E-01
         13   -1    0    0    0    0  0.00000000000E+00  0.00000000000E+00  0.10000000000E+04  0.10000000000E+04  0.00000000000E+00 0. -1.
          2   -1    0    0  501    0 -0.00000000000E+00 -0.00000000000E+00 -0.10320780521E+03  0.10320780521E+03  0.00000000000E+00 0. -1.
    9000006    2    1    2  501    0  0.00000000000E+00  0.00000000000E+00  0.89679219479E+03  0.11032078052E+04  0.64251943226E+03 0.  0.
         13    1    3    3    0    0 -0.20884676811E+03  0.21443106887E+03  0.64870603910E+03  0.71443486827E+03  0.00000000000E+00 0. -1.
          4    1    3    3  501    0  0.20884676811E+03 -0.21443106887E+03  0.24808615569E+03  0.38877293693E+03  0.00000000000E+00 0. -1.
<mgrwt>
<rscale>  0 0.64251943E+03</rscale>
<asrwt>0</asrwt>
<pdfrwt beam="1">0</pdfrwt>
<pdfrwt beam="2">  1        2 0.37530190E+00 0.64251943E+03</pdfrwt>
<totfact> 0.49220157E+00</totfact>
</mgrwt>
</event>
<event>
 5    1  0.2361924E-004  0.6570744E+03  0.7818608E-02  0.9793594E-01
         13   -1    0    0    0    0  0.00000000000E+00  0.00000000000E+00  0.10000000000E+04  0.10000000000E+04  0.00000000000E+00 0. -1.
          2   -1    0    0  501    0 -0.00000000000E+00 -0.00000000000E+00 -0.10793669397E+03  0.10793669397E+03  0.00000000000E+00 0. -1.
    9000006    2    1    2  501    0  0.00000000000E+00  0.00000000000E+00  0.89206330603E+03  0.11079366940E+04  0.65707440667E+03 0.  0.
         13    1    3    3    0    0  0.76612363005E+02 -0.17006981003E+03 -0.99929375750E+01  0.18679682345E+03  0.00000000000E+00 0. -1.
          4    1    3    3  501    0 -0.76612363005E+02  0.17006981003E+03  0.90205624360E+03  0.92113987052E+03  0.00000000000E+00 0. -1.
<mgrwt>
<rscale>  0 0.65707441E+03</rscale>
<asrwt>0</asrwt>
<pdfrwt beam="1">0</pdfrwt>
<pdfrwt beam="2">  1        2 0.39249790E+00 0.65707441E+03</pdfrwt>
<totfact> 0.42462279E+00</totfact>
</mgrwt>
</event>
<event>
 5    1  0.2361924E-004  0.6460002E+03  0.7818608E-02  0.9814314E-01
         13   -1    0    0    0    0  0.00000000000E+00  0.00000000000E+00  0.10000000000E+04  0.10000000000E+04  0.00000000000E+00 0. -1.
          2   -1    0    0  501    0 -0.00000000000E+00 -0.00000000000E+00 -0.10432905499E+03  0.10432905499E+03  0.00000000000E+00 0. -1.
    9000006    2    1    2  501    0  0.00000000000E+00  0.00000000000E+00  0.89567094501E+03  0.11043290550E+04  0.64600017026E+03 0.  0.
         13    1    3    3    0    0  0.19710231350E+03  0.20105175762E+02  0.88392401130E+03  0.90585605801E+03  0.00000000000E+00 0. -1.
          4    1    3    3  501    0 -0.19710231350E+03 -0.20105175762E+02  0.11746933702E+02  0.19847299698E+03  0.00000000000E+00 0. -1.
<mgrwt>
<rscale>  0 0.64600017E+03</rscale>
<asrwt>0</asrwt>
<pdfrwt beam="1">0</pdfrwt>
<pdfrwt beam="2">  1        2 0.37937918E+00 0.64600017E+03</pdfrwt>
<totfact> 0.47534969E+00</totfact>
</mgrwt>
</event>
<event>
 5    1  0.2361924E-004  0.6497619E+03  0.7818608E-02  0.9807226E-01
         13   -1    0    0    0    0  0.00000000000E+00  0.00000000000E+00  0.10000000000E+04  0.10000000000E+04  0.00000000000E+00 0. -1.
          4   -1    0    0  501    0 -0.00000000000E+00 -0.00000000000E+00 -0.10554763459E+03  0.10554763459E+03  0.00000000000E+00 0. -1.
    9000006    2    1    2  501    0  0.00000000000E+00  0.00000000000E+00  0.89445236541E+03  0.11055476346E+04  0.64976190898E+03 0.  0.
         13    1    3    3    0    0  0.30012022927E+03 -0.68527891911E+02  0.62387906150E+03  0.69569627522E+03  0.00000000000E+00 0. -1.
          4    1    3    3  501    0 -0.30012022927E+03  0.68527891911E+02  0.27057330391E+03  0.40985135937E+03  0.00000000000E+00 0. -1.
<mgrwt>
<rscale>  0 0.64976191E+03</rscale>
<asrwt>0</asrwt>
<pdfrwt beam="1">0</pdfrwt>
<pdfrwt beam="2">  1        4 0.38381039E+00 0.64976191E+03</pdfrwt>
<totfact> 0.41353980E-02</totfact>
</mgrwt>
</event>
<event>
 5    1  0.2361924E-004  0.6512292E+03  0.7818608E-02  0.9804475E-01
         13   -1    0    0    0    0  0.00000000000E+00  0.00000000000E+00  0.10000000000E+04  0.10000000000E+04  0.00000000000E+00 0. -1.
          2   -1    0    0  501    0 -0.00000000000E+00 -0.00000000000E+00 -0.10602485554E+03  0.10602485554E+03  0.00000000000E+00 0. -1.
    9000006    2    1    2  501    0  0.00000000000E+00  0.00000000000E+00  0.89397514446E+03  0.11060248555E+04  0.65122916255E+03 0.  0.
         13    1    3    3    0    0  0.21639027988E+03  0.22300156206E+03  0.28170946261E+03  0.41942182970E+03  0.00000000000E+00 0. -1.
          2    1    3    3  501    0 -0.21639027988E+03 -0.22300156206E+03  0.61226568186E+03  0.68660302584E+03  0.00000000000E+00 0. -1.
<mgrwt>
<rscale>  0 0.65122916E+03</rscale>
<asrwt>0</asrwt>
<pdfrwt beam="1">0</pdfrwt>
<pdfrwt beam="2">  1        2 0.38554574E+00 0.65122916E+03</pdfrwt>
<totfact> 0.45085848E+00</totfact>
</mgrwt>
</event>
<event>
 5    1  0.2361924E-004  0.6330616E+03  0.7818608E-02  0.9839092E-01
         13   -1    0    0    0    0  0.00000000000E+00  0.00000000000E+00  0.10000000000E+04  0.10000000000E+04  0.00000000000E+00 0. -1.
          2   -1    0    0  501    0 -0.00000000000E+00 -0.00000000000E+00 -0.10019175520E+03  0.10019175520E+03  0.00000000000E+00 0. -1.
    9000006    2    1    2  501    0  0.00000000000E+00  0.00000000000E+00  0.89980824480E+03  0.11001917552E+04  0.63306162481E+03 0.  0.
         13    1    3    3    0    0 -0.10148634449E+03 -0.12513971648E+03 -0.23594739630E+02  0.16283776742E+03  0.00000000000E+00 0. -1.
          2    1    3    3  501    0  0.10148634449E+03  0.12513971648E+03  0.92340298443E+03  0.93735398778E+03  0.00000000000E+00 0. -1.
<mgrwt>
<rscale>  0 0.63306162E+03</rscale>
<asrwt>0</asrwt>
<pdfrwt beam="1">0</pdfrwt>
<pdfrwt beam="2">  1        2 0.36433442E+00 0.63306162E+03</pdfrwt>
<totfact> 0.54028418E+00</totfact>
</mgrwt>
</event>
<event>
 5    1  0.2361924E-004  0.6398125E+03  0.7818608E-02  0.9826085E-01
         13   -1    0    0    0    0  0.00000000000E+00  0.00000000000E+00  0.10000000000E+04  0.10000000000E+04  0.00000000000E+00 0. -1.
          2   -1    0    0  501    0 -0.00000000000E+00 -0.00000000000E+00 -0.10233999578E+03  0.10233999578E+03  0.00000000000E+00 0. -1.
    9000006    2    1    2  501    0  0.00000000000E+00  0.00000000000E+00  0.89766000422E+03  0.11023399958E+04  0.63981245934E+03 0.  0.
         13    1    3    3    0    0  0.25133417851E+03  0.19301251178E+03  0.37338898326E+03  0.48973669641E+03  0.00000000000E+00 0. -1.
          4    1    3    3  501    0 -0.25133417851E+03 -0.19301251178E+03  0.52427102095E+03  0.61260329937E+03  0.00000000000E+00 0. -1.
<mgrwt>
<rscale>  0 0.63981246E+03</rscale>
<asrwt>0</asrwt>
<pdfrwt beam="1">0</pdfrwt>
<pdfrwt beam="2">  1        2 0.37214622E+00 0.63981246E+03</pdfrwt>
<totfact> 0.50561801E+00</totfact>
</mgrwt>
</event>
<event>
 5    1  0.2361924E-004  0.6677616E+03  0.7818608E-02  0.9774010E-01
         13   -1    0    0    0    0  0.00000000000E+00  0.00000000000E+00  0.10000000000E+04  0.10000000000E+04  0.00000000000E+00 0. -1.
          2   -1    0    0  501    0 -0.00000000000E+00 -0.00000000000E+00 -0.11147640457E+03  0.11147640457E+03  0.00000000000E+00 0. -1.
    9000006    2    1    2  501    0  0.00000000000E+00  0.00000000000E+00  0.88852359543E+03  0.11114764046E+04  0.66776164781E+03 0.  0.
         13    1    3    3    0    0 -0.15788994154E+03  0.18201648916E+03  0.82895915912E+03  0.86326851179E+03  0.00000000000E+00 0. -1.
          4    1    3    3  501    0  0.15788994154E+03 -0.18201648916E+03  0.59564436308E+02  0.24820789278E+03  0.00000000000E+00 0. -1.
<mgrwt>
<rscale>  0 0.66776165E+03</rscale>
<asrwt>0</asrwt>
<pdfrwt beam="1">0</pdfrwt>
<pdfrwt beam="2">  1        2 0.40536960E+00 0.66776165E+03</pdfrwt>
<totfact> 0.37965531E+00</totfact>
</mgrwt>
</event>
<event>
 5    1  0.2361924E-004  0.6532079E+03  0.7818608E-02  0.9800778E-01
         13   -1    0    0    0    0  0.00000000000E+00  0.00000000000E+00  0.10000000000E+04  0.10000000000E+04  0.00000000000E+00 0. -1.
          2   -1    0    0  501    0 -0.00000000000E+00 -0.00000000000E+00 -0.10667015580E+03  0.10667015580E+03  0.00000000000E+00 0. -1.
    9000006    2    1    2  501    0  0.00000000000E+00  0.00000000000E+00  0.89332984420E+03  0.11066701558E+04  0.65320794790E+03 0.  0.
         13    1    3    3    0    0 -0.16900345904E+02 -0.10327458925E+03 -0.77497125464E+02  0.13021930322E+03  0.00000000000E+00 0. -1.
          2    1    3    3  501    0  0.16900345904E+02  0.10327458925E+03  0.97082696966E+03  0.97645085258E+03  0.00000000000E+00 0. -1.
<mgrwt>
<rscale>  0 0.65320795E+03</rscale>
<asrwt>0</asrwt>
<pdfrwt beam="1">0</pdfrwt>
<pdfrwt beam="2">  1        2 0.38789229E+00 0.65320795E+03</pdfrwt>
<totfact> 0.44184371E+00</totfact>
</mgrwt>
</event>
<event>
 5    1  0.2361924E-004  0.6531322E+03  0.7818608E-02  0.9800920E-01
         13   -1    0    0    0    0  0.00000000000E+00  0.00000000000E+00  0.10000000000E+04  0.10000000000E+04  0.00000000000E+00 0. -1.
          2   -1    0    0  501    0 -0.00000000000E+00 -0.00000000000E+00 -0.10664540544E+03  0.10664540544E+03  0.00000000000E+00 0. -1.
    9000006    2    1    2  501    0  0.00000000000E+00  0.00000000000E+00  0.89335459456E+03  0.11066454054E+04  0.65313216255E+03 0.  0.
         13    1    3    3    0    0  0.19398370549E+03  0.66233012579E+02  0.15931698267E+02  0.20559744396E+03  0.00000000000E+00 0. -1.
          4    1    3    3  501    0 -0.19398370549E+03 -0.66233012579E+02  0.87742289629E+03  0.90104796148E+03  0.00000000000E+00 0. -1.
<mgrwt>
<rscale>  0 0.65313216E+03</rscale>
<asrwt>0</asrwt>
<pdfrwt beam="1">0</pdfrwt>
<pdfrwt beam="2">  1        2 0.38780229E+00 0.65313216E+03</pdfrwt>
<totfact> 0.44218644E+00</totfact>
</mgrwt>
</event>
<event>
 5    1  0.2361924E-004  0.6393796E+03  0.7818608E-02  0.9826914E-01
         13   -1    0    0    0    0  0.00000000000E+00  0.00000000000E+00  0.10000000000E+04  0.10000000000E+04  0.00000000000E+00 0. -1.
          2   -1    0    0  501    0 -0.00000000000E+00 -0.00000000000E+00 -0.10220156781E+03  0.10220156781E+03  0.00000000000E+00 0. -1.
    9000006    2    1    2  501    0  0.00000000000E+00  0.00000000000E+00  0.89779843219E+03  0.11022015678E+04  0.63937959870E+03 0.  0.
         13    1    3    3    0    0 -0.28634246141E+03 -0.14174174079E+03  0.46769179374E+03  0.56640828050E+03  0.00000000000E+00 0. -1.
          2    1    3    3  501    0  0.28634246141E+03  0.14174174079E+03  0.43010663845E+03  0.53579328731E+03  0.00000000000E+00 0. -1.
<mgrwt>
<rscale>  0 0.63937960E+03</rscale>
<asrwt>0</asrwt>
<pdfrwt beam="1">0</pdfrwt>
<pdfrwt beam="2">  1        2 0.37164285E+00 0.63937960E+03</pdfrwt>
<totfact> 0.50778879E+00</totfact>
</mgrwt>
</event>
<event>
 5    1  0.2361924E-004  0.6530205E+03  0.7818608E-02  0.9801128E-01
         13   -1    0    0    0    0  0.00000000000E+00  0.00000000000E+00  0.10000000000E+04  0.10000000000E+04  0.00000000000E+00 0. -1.
          2   -1    0    0  501    0 -0.00000000000E+00 -0.00000000000E+00 -0.10660893512E+03  0.10660893512E+03  0.00000000000E+00 0. -1.
    9000006    2    1    2  501    0  0.00000000000E+00  0.00000000000E+00  0.89339106488E+03  0.11066089351E+04  0.65302047477E+03 0.  0.
         13    1    3    3    0    0  0.11860110280E+03 -0.27051237097E+03  0.21087328897E+03  0.36291969971E+03  0.00000000000E+00 0. -1.
          2    1    3    3  501    0 -0.11860110280E+03  0.27051237097E+03  0.68251777591E+03  0.74368923541E+03  0.00000000000E+00 0. -1.
<mgrwt>
<rscale>  0 0.65302047E+03</rscale>
<asrwt>0</asrwt>
<pdfrwt beam="1">0</pdfrwt>
<pdfrwt beam="2">  1        2 0.38766967E+00 0.65302047E+03</pdfrwt>
<totfact> 0.44269190E+00</totfact>
</mgrwt>
</event>
<event>
 5    1  0.2361924E-004  0.6543627E+03  0.7818608E-02  0.9798627E-01
         13   -1    0    0    0    0  0.00000000000E+00  0.00000000000E+00  0.10000000000E+04  0.10000000000E+04  0.00000000000E+00 0. -1.
          2   -1    0    0  501    0 -0.00000000000E+00 -0.00000000000E+00 -0.10704762213E+03  0.10704762213E+03  0.00000000000E+00 0. -1.
    9000006    2    1    2  501    0  0.00000000000E+00  0.00000000000E+00  0.89295237787E+03  0.11070476221E+04  0.65436265826E+03 0.  0.
         13    1    3    3    0    0 -0.88078676590E+02 -0.26700782971E+03  0.72955042664E+03  0.78185347694E+03  0.00000000000E+00 0. -1.
          2    1    3    3  501    0  0.88078676590E+02  0.26700782971E+03  0.16340195123E+03  0.32519414519E+03  0.00000000000E+00 0. -1.
<mgrwt>
<rscale>  0 0.65436266E+03</rscale>
<asrwt>0</asrwt>
<pdfrwt beam="1">0</pdfrwt>
<pdfrwt beam="2">  1        2 0.38926490E+00 0.65436266E+03</pdfrwt>
<totfact> 0.43664650E+00</totfact>
</mgrwt>
</event>
<event>
 5    1  0.2361924E-004  0.6607245E+03  0.7818608E-02  0.9786861E-01
         13   -1    0    0    0    0  0.00000000000E+00  0.00000000000E+00  0.10000000000E+04  0.10000000000E+04  0.00000000000E+00 0. -1.
          2   -1    0    0  501    0 -0.00000000000E+00 -0.00000000000E+00 -0.10913920199E+03  0.10913920199E+03  0.00000000000E+00 0. -1.
    9000006    2    1    2  501    0  0.00000000000E+00  0.00000000000E+00  0.89086079801E+03  0.11091392020E+04  0.66072445690E+03 0.  0.
         13    1    3    3    0    0 -0.10648440440E+02  0.32419094964E+03  0.34024799777E+03  0.47008707821E+03  0.00000000000E+00 0. -1.
          2    1    3    3  501    0  0.10648440440E+02 -0.32419094964E+03  0.55061280024E+03  0.63905212378E+03  0.00000000000E+00 0. -1.
<mgrwt>
<rscale>  0 0.66072446E+03</rscale>
<asrwt>0</asrwt>
<pdfrwt beam="1">0</pdfrwt>
<pdfrwt beam="2">  1        2 0.39687066E+00 0.66072446E+03</pdfrwt>
<totfact> 0.40883638E+00</totfact>
</mgrwt>
</event>
<event>
 5    1  0.2361924E-004  0.6528988E+03  0.7818608E-02  0.9801355E-01
         13   -1    0    0    0    0  0.00000000000E+00  0.00000000000E+00  0.10000000000E+04  0.10000000000E+04  0.00000000000E+00 0. -1.
          2   -1    0    0  501    0 -0.00000000000E+00 -0.00000000000E+00 -0.10656921844E+03  0.10656921844E+03  0.00000000000E+00 0. -1.
    9000006    2    1    2  501    0  0.00000000000E+00  0.00000000000E+00  0.89343078156E+03  0.11065692184E+04  0.65289882354E+03 0.  0.
         13    1    3    3    0    0 -0.12951257236E+03 -0.28910329037E+03  0.31310099575E+03  0.44540594119E+03  0.00000000000E+00 0. -1.
          4    1    3    3  501    0  0.12951257236E+03  0.28910329037E+03  0.58032978580E+03  0.66116327726E+03  0.00000000000E+00 0. -1.
<mgrwt>
<rscale>  0 0.65289882E+03</rscale>
<asrwt>0</asrwt>
<pdfrwt beam="1">0</pdfrwt>
<pdfrwt beam="2">  1        2 0.38752525E+00 0.65289882E+03</pdfrwt>
<totfact> 0.44324294E+00</totfact>
</mgrwt>
</event>
<event>
 5    1  0.2361924E-004  0.6525138E+03  0.7818608E-02  0.9802074E-01
         13   -1    0    0    0    0  0.00000000000E+00  0.00000000000E+00  0.10000000000E+04  0.10000000000E+04  0.00000000000E+00 0. -1.
          2   -1    0    0  501    0 -0.00000000000E+00 -0.00000000000E+00 -0.10644355169E+03  0.10644355169E+03  0.00000000000E+00 0. -1.
    9000006    2    1    2  501    0  0.00000000000E+00  0.00000000000E+00  0.89355644831E+03  0.11064435517E+04  0.65251375984E+03 0.  0.
         13    1    3    3    0    0  0.31666083986E+03 -0.50761012990E+02  0.54841599399E+03  0.63530376231E+03  0.00000000000E+00 0. -1.
          2    1    3    3  501    0 -0.31666083986E+03  0.50761012990E+02  0.34514045432E+03  0.47113978939E+03  0.00000000000E+00 0. -1.
<mgrwt>
<rscale>  0 0.65251376E+03</rscale>
<asrwt>0</asrwt>
<pdfrwt beam="1">0</pdfrwt>
<pdfrwt beam="2">  1        2 0.38706828E+00 0.65251376E+03</pdfrwt>
<totfact> 0.44499058E+00</totfact>
</mgrwt>
</event>
<event>
 5    1  0.2361924E-004  0.6516015E+03  0.7818608E-02  0.9803779E-01
         13   -1    0    0    0    0  0.00000000000E+00  0.00000000000E+00  0.10000000000E+04  0.10000000000E+04  0.00000000000E+00 0. -1.
          2   -1    0    0  501    0 -0.00000000000E+00 -0.00000000000E+00 -0.10614614327E+03  0.10614614327E+03  0.00000000000E+00 0. -1.
    9000006    2    1    2  501    0  0.00000000000E+00  0.00000000000E+00  0.89385385673E+03  0.11061461433E+04  0.65160154471E+03 0.  0.
         13    1    3    3    0    0  0.19129389288E+02  0.25511752732E+03  0.10447288214E+03  0.27634302847E+03  0.00000000000E+00 0. -1.
          4    1    3    3  501    0 -0.19129389288E+02 -0.25511752732E+03  0.78938097459E+03  0.82980311480E+03  0.00000000000E+00 0. -1.
<mgrwt>
<rscale>  0 0.65160154E+03</rscale>
<asrwt>0</asrwt>
<pdfrwt beam="1">0</pdfrwt>
<pdfrwt beam="2">  1        2 0.38598679E+00 0.65160154E+03</pdfrwt>
<totfact> 0.44915150E+00</totfact>
</mgrwt>
</event>
<event>
 5    1  0.2361924E-004  0.6390173E+03  0.7818608E-02  0.9827609E-01
         13   -1    0    0    0    0  0.00000000000E+00  0.00000000000E+00  0.10000000000E+04  0.10000000000E+04  0.00000000000E+00 0. -1.
          2   -1    0    0  501    0 -0.00000000000E+00 -0.00000000000E+00 -0.10208576634E+03  0.10208576634E+03  0.00000000000E+00 0. -1.
    9000006    2    1    2  501    0  0.00000000000E+00  0.00000000000E+00  0.89791423366E+03  0.11020857663E+04  0.63901726531E+03 0.  0.
         13    1    3    3    0    0 -0.86041678562E+02 -0.29356016561E+03  0.28990458017E+03  0.42145629297E+03  0.00000000000E+00 0. -1.
          2    1    3    3  501    0  0.86041678562E+02  0.29356016561E+03  0.60800965349E+03  0.68062947337E+03  0.00000000000E+00 0. -1.
<mgrwt>
<rscale>  0 0.63901727E+03</rscale>
<asrwt>0</asrwt>
<pdfrwt beam="1">0</pdfrwt>
<pdfrwt beam="2">  1        2 0.37122175E+00 0.63901727E+03</pdfrwt>
<totfact> 0.50961130E+00</totfact>
</mgrwt>
</event>
<event>
 5    1  0.2361924E-004  0.6645059E+03  0.7818608E-02  0.9779934E-01
         13   -1    0    0    0    0  0.00000000000E+00  0.00000000000E+00  0.10000000000E+04  0.10000000000E+04  0.00000000000E+00 0. -1.
          4   -1    0    0  501    0 -0.00000000000E+00 -0.00000000000E+00 -0.11039202602E+03  0.11039202602E+03  0.00000000000E+00 0. -1.
    9000006    2    1    2  501    0  0.00000000000E+00  0.00000000000E+00  0.88960797398E+03  0.11103920260E+04  0.66450590975E+03 0.  0.
         13    1    3    3    0    0 -0.31740739732E+02  0.18034440913E+03 -0.18460421383E+02  0.18404447185E+03  0.00000000000E+00 0. -1.
          4    1    3    3  501    0  0.31740739732E+02 -0.18034440913E+03  0.90806839536E+03  0.92634755417E+03  0.00000000000E+00 0. -1.
<mgrwt>
<rscale>  0 0.66450591E+03</rscale>
<asrwt>0</asrwt>
<pdfrwt beam="1">0</pdfrwt>
<pdfrwt beam="2">  1        4 0.40142640E+00 0.66450591E+03</pdfrwt>
<totfact> 0.31324609E-02</totfact>
</mgrwt>
</event>
<event>
 5    1  0.2361924E-004  0.6821108E+03  0.7818608E-02  0.9748324E-01
         13   -1    0    0    0    0  0.00000000000E+00  0.00000000000E+00  0.10000000000E+04  0.10000000000E+04  0.00000000000E+00 0. -1.
          2   -1    0    0  501    0 -0.00000000000E+00 -0.00000000000E+00 -0.11631879169E+03  0.11631879169E+03  0.00000000000E+00 0. -1.
    9000006    2    1    2  501    0  0.00000000000E+00  0.00000000000E+00  0.88368120831E+03  0.11163187917E+04  0.68211081706E+03 0.  0.
         13    1    3    3    0    0  0.27647431446E+03 -0.12337446542E+03  0.69883598200E+03  0.76159768580E+03  0.00000000000E+00 0. -1.
          4    1    3    3  501    0 -0.27647431446E+03  0.12337446542E+03  0.18484522631E+03  0.35472110589E+03  0.00000000000E+00 0. -1.
<mgrwt>
<rscale>  0 0.68211082E+03</rscale>
<asrwt>0</asrwt>
<pdfrwt beam="1">0</pdfrwt>
<pdfrwt beam="2">  1        2 0.42297832E+00 0.68211082E+03</pdfrwt>
<totfact> 0.32504350E+00</totfact>
</mgrwt>
</event>
<event>
 5    1  0.2361924E-004  0.6502572E+03  0.7818608E-02  0.9806297E-01
         13   -1    0    0    0    0  0.00000000000E+00  0.00000000000E+00  0.10000000000E+04  0.10000000000E+04  0.00000000000E+00 0. -1.
          2   -1    0    0  501    0 -0.00000000000E+00 -0.00000000000E+00 -0.10570860152E+03  0.10570860152E+03  0.00000000000E+00 0. -1.
    9000006    2    1    2  501    0  0.00000000000E+00  0.00000000000E+00  0.89429139848E+03  0.11057086015E+04  0.65025718455E+03 0.  0.
         13    1    3    3    0    0  0.15279831468E+03  0.78313909979E+02  0.91662168668E+03  0.93256405140E+03  0.00000000000E+00 0. -1.
          4    1    3    3  501    0 -0.15279831468E+03 -0.78313909979E+02 -0.22330288197E+02  0.17314455012E+03  0.00000000000E+00 0. -1.
<mgrwt>
<rscale>  0 0.65025718E+03</rscale>
<asrwt>0</asrwt>
<pdfrwt beam="1">0</pdfrwt>
<pdfrwt beam="2">  1        2 0.38439573E+00 0.65025718E+03</pdfrwt>
<totfact> 0.45533709E+00</totfact>
</mgrwt>
</event>
<event>
 5    1  0.2361924E-004  0.6495538E+03  0.7818608E-02  0.9807617E-01
         13   -1    0    0    0    0  0.00000000000E+00  0.00000000000E+00  0.10000000000E+04  0.10000000000E+04  0.00000000000E+00 0. -1.
          2   -1    0    0  501    0 -0.00000000000E+00 -0.00000000000E+00 -0.10548002007E+03  0.10548002007E+03  0.00000000000E+00 0. -1.
    9000006    2    1    2  501    0  0.00000000000E+00  0.00000000000E+00  0.89451997993E+03  0.11054800201E+04  0.64955375474E+03 0.  0.
         13    1    3    3    0    0 -0.16423649771E+03 -0.73084753549E+02 -0.13089348474E+02  0.18023967217E+03  0.00000000000E+00 0. -1.
          2    1    3    3  501    0  0.16423649771E+03  0.73084753549E+02  0.90760932840E+03  0.92524034790E+03  0.00000000000E+00 0. -1.
<mgrwt>
<rscale>  0 0.64955375E+03</rscale>
<asrwt>0</asrwt>
<pdfrwt beam="1">0</pdfrwt>
<pdfrwt beam="2">  1        2 0.38356452E+00 0.64955375E+03</pdfrwt>
<totfact> 0.45859920E+00</totfact>
</mgrwt>
</event>
<event>
 5    1  0.2361924E-004  0.6572286E+03  0.7818608E-02  0.9793309E-01
         13   -1    0    0    0    0  0.00000000000E+00  0.00000000000E+00  0.10000000000E+04  0.10000000000E+04  0.00000000000E+00 0. -1.
          2   -1    0    0  501    0 -0.00000000000E+00 -0.00000000000E+00 -0.10798735566E+03  0.10798735566E+03  0.00000000000E+00 0. -1.
    9000006    2    1    2  501    0  0.00000000000E+00  0.00000000000E+00  0.89201264434E+03  0.11079873557E+04  0.65722859239E+03 0.  0.
         13    1    3    3    0    0  0.76546356161E+01 -0.26061454659E+03  0.78321304806E+03  0.82547029867E+03  0.00000000000E+00 0. -1.
          2    1    3    3  501    0 -0.76546356161E+01  0.26061454659E+03  0.10879959628E+03  0.28251705699E+03  0.00000000000E+00 0. -1.
<mgrwt>
<rscale>  0 0.65722859E+03</rscale>
<asrwt>0</asrwt>
<pdfrwt beam="1">0</pdfrwt>
<pdfrwt beam="2">  1        2 0.39268212E+00 0.65722859E+03</pdfrwt>
<totfact> 0.42394674E+00</totfact>
</mgrwt>
</event>
<event>
 5    1  0.2361924E-004  0.6216820E+03  0.7818608E-02  0.9861417E-01
         13   -1    0    0    0    0  0.00000000000E+00  0.00000000000E+00  0.10000000000E+04  0.10000000000E+04  0.00000000000E+00 0. -1.
          2   -1    0    0  501    0 -0.00000000000E+00 -0.00000000000E+00 -0.96622116102E+02  0.96622116102E+02  0.00000000000E+00 0. -1.
    9000006    2    1    2  501    0  0.00000000000E+00  0.00000000000E+00  0.90337788390E+03  0.10966221161E+04  0.62168196404E+03 0.  0.
         13    1    3    3    0    0  0.26283480736E+03  0.12858009557E+03  0.63675465332E+03  0.70076491455E+03  0.00000000000E+00 0. -1.
          2    1    3    3  501    0 -0.26283480736E+03 -0.12858009557E+03  0.26662323058E+03  0.39585720156E+03  0.00000000000E+00 0. -1.
<mgrwt>
<rscale>  0 0.62168196E+03</rscale>
<asrwt>0</asrwt>
<pdfrwt beam="1">0</pdfrwt>
<pdfrwt beam="2">  1        2 0.35135389E+00 0.62168196E+03</pdfrwt>
<totfact> 0.60277054E+00</totfact>
</mgrwt>
</event>
<event>
 5    1  0.2361924E-004  0.7144762E+03  0.7818608E-02  0.9692791E-01
         13   -1    0    0    0    0  0.00000000000E+00  0.00000000000E+00  0.10000000000E+04  0.10000000000E+04  0.00000000000E+00 0. -1.
          2   -1    0    0  501    0 -0.00000000000E+00 -0.00000000000E+00 -0.12761906019E+03  0.12761906019E+03  0.00000000000E+00 0. -1.
    9000006    2    1    2  501    0  0.00000000000E+00  0.00000000000E+00  0.87238093981E+03  0.11276190602E+04  0.71447620027E+03 0.  0.
         13    1    3    3    0    0 -0.15802235165E+03 -0.22739262035E+03  0.79980034165E+02  0.28822781489E+03  0.00000000000E+00 0. -1.
          4    1    3    3  501    0  0.15802235165E+03  0.22739262035E+03  0.79240090565E+03  0.83939124530E+03  0.00000000000E+00 0. -1.
<mgrwt>
<rscale>  0 0.71447620E+03</rscale>
<asrwt>0</asrwt>
<pdfrwt beam="1">0</pdfrwt>
<pdfrwt beam="2">  1        2 0.46407029E+00 0.71447620E+03</pdfrwt>
<totfact> 0.22365726E+00</totfact>
</mgrwt>
</event>
<event>
 5    1  0.2361924E-004  0.6418798E+03  0.7818608E-02  0.9822137E-01
         13   -1    0    0    0    0  0.00000000000E+00  0.00000000000E+00  0.10000000000E+04  0.10000000000E+04  0.00000000000E+00 0. -1.
          2   -1    0    0  501    0 -0.00000000000E+00 -0.00000000000E+00 -0.10300242554E+03  0.10300242554E+03  0.00000000000E+00 0. -1.
    9000006    2    1    2  501    0  0.00000000000E+00  0.00000000000E+00  0.89699757446E+03  0.11030024255E+04  0.64187981910E+03 0.  0.
         13    1    3    3    0    0 -0.68761535800E+02  0.29117976957E+03  0.64807394542E+03  0.71380224554E+03  0.00000000000E+00 0. -1.
          4    1    3    3  501    0  0.68761535800E+02 -0.29117976957E+03  0.24892362904E+03  0.38920018000E+03  0.00000000000E+00 0. -1.
<mgrwt>
<rscale>  0 0.64187982E+03</rscale>
<asrwt>0</asrwt>
<pdfrwt beam="1">0</pdfrwt>
<pdfrwt beam="2">  1        2 0.37455506E+00 0.64187982E+03</pdfrwt>
<totfact> 0.49534703E+00</totfact>
</mgrwt>
</event>
<event>
 5    1  0.2361924E-004  0.6497557E+03  0.7818608E-02  0.9807238E-01
         13   -1    0    0    0    0  0.00000000000E+00  0.00000000000E+00  0.10000000000E+04  0.10000000000E+04  0.00000000000E+00 0. -1.
          2   -1    0    0  501    0 -0.00000000000E+00 -0.00000000000E+00 -0.10554561595E+03  0.10554561595E+03  0.00000000000E+00 0. -1.
    9000006    2    1    2  501    0  0.00000000000E+00  0.00000000000E+00  0.89445438405E+03  0.11055456160E+04  0.64975569548E+03 0.  0.
         13    1    3    3    0    0  0.74337761074E+02  0.31595531014E+03  0.47078854233E+03  0.57183538918E+03  0.00000000000E+00 0. -1.
          2    1    3    3  501    0 -0.74337761074E+02 -0.31595531014E+03  0.42366584172E+03  0.53371022678E+03  0.00000000000E+00 0. -1.
<mgrwt>
<rscale>  0 0.64975570E+03</rscale>
<asrwt>0</asrwt>
<pdfrwt beam="1">0</pdfrwt>
<pdfrwt beam="2">  1        2 0.38380305E+00 0.64975570E+03</pdfrwt>
<totfact> 0.45766091E+00</totfact>
</mgrwt>
</event>
<event>
 5    1  0.2361924E-004  0.6508042E+03  0.7818608E-02  0.9805271E-01
         13   -1    0    0    0    0  0.00000000000E+00  0.00000000000E+00  0.10000000000E+04  0.10000000000E+04  0.00000000000E+00 0. -1.
          2   -1    0    0  501    0 -0.00000000000E+00 -0.00000000000E+00 -0.10588653297E+03  0.10588653297E+03  0.00000000000E+00 0. -1.
    9000006    2    1    2  501    0  0.00000000000E+00  0.00000000000E+00  0.89411346703E+03  0.11058865330E+04  0.65080421933E+03 0.  0.
         13    1    3    3    0    0  0.30651243301E+02 -0.16984349004E+03 -0.21706104197E+02  0.17394672974E+03  0.00000000000E+00 0. -1.
          2    1    3    3  501    0 -0.30651243301E+02  0.16984349004E+03  0.91581957122E+03  0.93193980324E+03  0.00000000000E+00 0. -1.
<mgrwt>
<rscale>  0 0.65080422E+03</rscale>
<asrwt>0</asrwt>
<pdfrwt beam="1">0</pdfrwt>
<pdfrwt beam="2">  1        2 0.38504275E+00 0.65080422E+03</pdfrwt>
<totfact> 0.45281239E+00</totfact>
</mgrwt>
</event>
<event>
 5    1  0.2361924E-004  0.6049629E+03  0.7818608E-02  0.9895163E-01
         13   -1    0    0    0    0  0.00000000000E+00  0.00000000000E+00  0.10000000000E+04  0.10000000000E+04  0.00000000000E+00 0. -1.
          2   -1    0    0  501    0 -0.00000000000E+00 -0.00000000000E+00 -0.91495018554E+02  0.91495018554E+02  0.00000000000E+00 0. -1.
    9000006    2    1    2  501    0  0.00000000000E+00  0.00000000000E+00  0.90850498145E+03  0.10914950186E+04  0.60496287011E+03 0.  0.
         13    1    3    3    0    0  0.37419344908E+02 -0.21128297010E+03  0.83891566333E+03  0.86592158479E+03  0.00000000000E+00 0. -1.
          2    1    3    3  501    0 -0.37419344908E+02  0.21128297010E+03  0.69589318121E+02  0.22557343377E+03  0.00000000000E+00 0. -1.
<mgrwt>
<rscale>  0 0.60496287E+03</rscale>
<asrwt>0</asrwt>
<pdfrwt beam="1">0</pdfrwt>
<pdfrwt beam="2">  1        2 0.33270986E+00 0.60496287E+03</pdfrwt>
<totfact> 0.70438632E+00</totfact>
</mgrwt>
</event>
<event>
 5    1  0.2361924E-004  0.6492264E+03  0.7818608E-02  0.9808232E-01
         13   -1    0    0    0    0  0.00000000000E+00  0.00000000000E+00  0.10000000000E+04  0.10000000000E+04  0.00000000000E+00 0. -1.
          2   -1    0    0  501    0 -0.00000000000E+00 -0.00000000000E+00 -0.10537372188E+03  0.10537372188E+03  0.00000000000E+00 0. -1.
    9000006    2    1    2  501    0  0.00000000000E+00  0.00000000000E+00  0.89462627812E+03  0.11053737219E+04  0.64922637618E+03 0.  0.
         13    1    3    3    0    0  0.10857743157E+03  0.39655066464E+01 -0.73496280388E+02  0.13117350007E+03  0.00000000000E+00 0. -1.
          4    1    3    3  501    0 -0.10857743157E+03 -0.39655066464E+01  0.96812255851E+03  0.97420022181E+03  0.00000000000E+00 0. -1.
<mgrwt>
<rscale>  0 0.64922638E+03</rscale>
<asrwt>0</asrwt>
<pdfrwt beam="1">0</pdfrwt>
<pdfrwt beam="2">  1        2 0.38317798E+00 0.64922638E+03</pdfrwt>
<totfact> 0.46012341E+00</totfact>
</mgrwt>
</event>
<event>
 5    1  0.2361924E-004  0.6508634E+03  0.7818608E-02  0.9805161E-01
         13   -1    0    0    0    0  0.00000000000E+00  0.00000000000E+00  0.10000000000E+04  0.10000000000E+04  0.00000000000E+00 0. -1.
          2   -1    0    0  501    0 -0.00000000000E+00 -0.00000000000E+00 -0.10590577699E+03  0.10590577699E+03  0.00000000000E+00 0. -1.
    9000006    2    1    2  501    0  0.00000000000E+00  0.00000000000E+00  0.89409422301E+03  0.11059057770E+04  0.65086335582E+03 0.  0.
         13    1    3    3    0    0  0.14060875725E+03  0.18485833038E+03  0.83436959350E+03  0.86609239893E+03  0.00000000000E+00 0. -1.
          4    1    3    3  501    0 -0.14060875725E+03 -0.18485833038E+03  0.59724629514E+02  0.23981337806E+03  0.00000000000E+00 0. -1.
<mgrwt>
<rscale>  0 0.65086336E+03</rscale>
<asrwt>0</asrwt>
<pdfrwt beam="1">0</pdfrwt>
<pdfrwt beam="2">  1        2 0.38511273E+00 0.65086336E+03</pdfrwt>
<totfact> 0.45254009E+00</totfact>
</mgrwt>
</event>
<event>
 5    1  0.2361924E-004  0.6448934E+03  0.7818608E-02  0.9816409E-01
         13   -1    0    0    0    0  0.00000000000E+00  0.00000000000E+00  0.10000000000E+04  0.10000000000E+04  0.00000000000E+00 0. -1.
          2   -1    0    0  501    0 -0.00000000000E+00 -0.00000000000E+00 -0.10397187872E+03  0.10397187872E+03  0.00000000000E+00 0. -1.
    9000006    2    1    2  501    0  0.00000000000E+00  0.00000000000E+00  0.89602812128E+03  0.11039718787E+04  0.64489341357E+03 0.  0.
         13    1    3    3    0    0  0.24796201255E+03 -0.19003077017E+03  0.31133215336E+03  0.44104938838E+03  0.00000000000E+00 0. -1.
          2    1    3    3  501    0 -0.24796201255E+03  0.19003077017E+03  0.58469596793E+03  0.66292249033E+03  0.00000000000E+00 0. -1.
<mgrwt>
<rscale>  0 0.64489341E+03</rscale>
<asrwt>0</asrwt>
<pdfrwt beam="1">0</pdfrwt>
<pdfrwt beam="2">  1        2 0.37808036E+00 0.64489341E+03</pdfrwt>
<totfact> 0.48065987E+00</totfact>
</mgrwt>
</event>
<event>
 5    1  0.2361924E-004  0.6468301E+03  0.7818608E-02  0.9812746E-01
         13   -1    0    0    0    0  0.00000000000E+00  0.00000000000E+00  0.10000000000E+04  0.10000000000E+04  0.00000000000E+00 0. -1.
          2   -1    0    0  501    0 -0.00000000000E+00 -0.00000000000E+00 -0.10459728179E+03  0.10459728179E+03  0.00000000000E+00 0. -1.
    9000006    2    1    2  501    0  0.00000000000E+00  0.00000000000E+00  0.89540271821E+03  0.11045972818E+04  0.64683006048E+03 0.  0.
         13    1    3    3    0    0  0.13396737270E+03 -0.28601475953E+03  0.56657532626E+03  0.64865961794E+03  0.00000000000E+00 0. -1.
          2    1    3    3  501    0 -0.13396737270E+03  0.28601475953E+03  0.32882739196E+03  0.45593766385E+03  0.00000000000E+00 0. -1.
<mgrwt>
<rscale>  0 0.64683006E+03</rscale>
<asrwt>0</asrwt>
<pdfrwt beam="1">0</pdfrwt>
<pdfrwt beam="2">  1        2 0.38035455E+00 0.64683006E+03</pdfrwt>
<totfact> 0.47139711E+00</totfact>
</mgrwt>
</event>
<event>
 5    1  0.2361924E-004  0.6424763E+03  0.7818608E-02  0.9821000E-01
         13   -1    0    0    0    0  0.00000000000E+00  0.00000000000E+00  0.10000000000E+04  0.10000000000E+04  0.00000000000E+00 0. -1.
          2   -1    0    0  501    0 -0.00000000000E+00 -0.00000000000E+00 -0.10319394521E+03  0.10319394521E+03  0.00000000000E+00 0. -1.
    9000006    2    1    2  501    0  0.00000000000E+00  0.00000000000E+00  0.89680605479E+03  0.11031939452E+04  0.64247628816E+03 0.  0.
         13    1    3    3    0    0  0.18612974522E+02  0.14803972225E+03  0.93689137972E+03  0.94869787581E+03  0.00000000000E+00 0. -1.
          2    1    3    3  501    0 -0.18612974522E+02 -0.14803972225E+03 -0.40085324929E+02  0.15449606940E+03  0.00000000000E+00 0. -1.
<mgrwt>
<rscale>  0 0.64247629E+03</rscale>
<asrwt>0</asrwt>
<pdfrwt beam="1">0</pdfrwt>
<pdfrwt beam="2">  1        2 0.37525150E+00 0.64247629E+03</pdfrwt>
<totfact> 0.49241326E+00</totfact>
</mgrwt>
</event>
<event>
 5    1  0.2361924E-004  0.6538129E+03  0.7818608E-02  0.9799651E-01
         13   -1    0    0    0    0  0.00000000000E+00  0.00000000000E+00  0.10000000000E+04  0.10000000000E+04  0.00000000000E+00 0. -1.
          2   -1    0    0  501    0 -0.00000000000E+00 -0.00000000000E+00 -0.10686783535E+03  0.10686783535E+03  0.00000000000E+00 0. -1.
    9000006    2    1    2  501    0  0.00000000000E+00  0.00000000000E+00  0.89313216465E+03  0.11068678353E+04  0.65381292537E+03 0.  0.
         13    1    3    3    0    0 -0.27377769969E+03 -0.17325456632E+03  0.37284116246E+03  0.49394524598E+03  0.00000000000E+00 0. -1.
          4    1    3    3  501    0  0.27377769969E+03  0.17325456632E+03  0.52029100219E+03  0.61292258937E+03  0.00000000000E+00 0. -1.
<mgrwt>
<rscale>  0 0.65381293E+03</rscale>
<asrwt>0</asrwt>
<pdfrwt beam="1">0</pdfrwt>
<pdfrwt beam="2">  1        2 0.38861113E+00 0.65381293E+03</pdfrwt>
<totfact> 0.43911499E+00</totfact>
</mgrwt>
</event>
<event>
 5    1  0.2361924E-004  0.6499920E+03  0.7818608E-02  0.9806794E-01
         13   -1    0    0    0    0  0.00000000000E+00  0.00000000000E+00  0.10000000000E+04  0.10000000000E+04  0.00000000000E+00 0. -1.
          2   -1    0    0  501    0 -0.00000000000E+00 -0.00000000000E+00 -0.10562241100E+03  0.10562241100E+03  0.00000000000E+00 0. -1.
    9000006    2    1    2  501    0  0.00000000000E+00  0.00000000000E+00  0.89437758900E+03  0.11056224110E+04  0.64999203379E+03 0.  0.
         13    1    3    3    0    0 -0.43943618109E+02 -0.31260529711E+03  0.57860847784E+03  0.65912129687E+03  0.00000000000E+00 0. -1.
          2    1    3    3  501    0  0.43943618109E+02  0.31260529711E+03  0.31576911116E+03  0.44650111413E+03  0.00000000000E+00 0. -1.
<mgrwt>
<rscale>  0 0.64999203E+03</rscale>
<asrwt>0</asrwt>
<pdfrwt beam="1">0</pdfrwt>
<pdfrwt beam="2">  1        2 0.38408230E+00 0.64999203E+03</pdfrwt>
<totfact> 0.45656464E+00</totfact>
</mgrwt>
</event>
<event>
 5    1  0.2361924E-004  0.6285512E+03  0.7818608E-02  0.9847880E-01
         13   -1    0    0    0    0  0.00000000000E+00  0.00000000000E+00  0.10000000000E+04  0.10000000000E+04  0.00000000000E+00 0. -1.
          2   -1    0    0  501    0 -0.00000000000E+00 -0.00000000000E+00 -0.98769166643E+02  0.98769166643E+02  0.00000000000E+00 0. -1.
    9000006    2    1    2  501    0  0.00000000000E+00  0.00000000000E+00  0.90123083336E+03  0.10987691666E+04  0.62855124419E+03 0.  0.
         13    1    3    3    0    0 -0.27192369330E+03  0.15589735049E+03  0.49058107258E+03  0.58216515495E+03  0.00000000000E+00 0. -1.
          4    1    3    3  501    0  0.27192369330E+03 -0.15589735049E+03  0.41064976078E+03  0.51660401169E+03  0.00000000000E+00 0. -1.
<mgrwt>
<rscale>  0 0.62855124E+03</rscale>
<asrwt>0</asrwt>
<pdfrwt beam="1">0</pdfrwt>
<pdfrwt beam="2">  1        2 0.35916136E+00 0.62855124E+03</pdfrwt>
<totfact> 0.56442981E+00</totfact>
</mgrwt>
</event>
<event>
 5    1  0.2361924E-004  0.6419096E+03  0.7818608E-02  0.9822080E-01
         13   -1    0    0    0    0  0.00000000000E+00  0.00000000000E+00  0.10000000000E+04  0.10000000000E+04  0.00000000000E+00 0. -1.
          2   -1    0    0  501    0 -0.00000000000E+00 -0.00000000000E+00 -0.10301198897E+03  0.10301198897E+03  0.00000000000E+00 0. -1.
    9000006    2    1    2  501    0  0.00000000000E+00  0.00000000000E+00  0.89698801103E+03  0.11030119890E+04  0.64190961659E+03 0.  0.
         13    1    3    3    0    0  0.46726955315E+02 -0.22817526859E+03  0.69040293094E+02  0.24292781565E+03  0.00000000000E+00 0. -1.
          2    1    3    3  501    0 -0.46726955315E+02  0.22817526859E+03  0.82794771794E+03  0.86008417331E+03  0.00000000000E+00 0. -1.
<mgrwt>
<rscale>  0 0.64190962E+03</rscale>
<asrwt>0</asrwt>
<pdfrwt beam="1">0</pdfrwt>
<pdfrwt beam="2">  1        2 0.37458984E+00 0.64190962E+03</pdfrwt>
<totfact> 0.49520016E+00</totfact>
</mgrwt>
</event>
<event>
 5    1  0.2361924E-004  0.6478202E+03  0.7818608E-02  0.9810878E-01
         13   -1    0    0    0    0  0.00000000000E+00  0.00000000000E+00  0.10000000000E+04  0.10000000000E+04  0.00000000000E+00 0. -1.
          2   -1    0    0  501    0 -0.00000000000E+00 -0.00000000000E+00 -0.10491775796E+03  0.10491775796E+03  0.00000000000E+00 0. -1.
    9000006    2    1    2  501    0  0.00000000000E+00  0.00000000000E+00  0.89508224204E+03  0.11049177580E+04  0.64782021568E+03 0.  0.
         13    1    3    3    0    0 -0.10346207713E+03 -0.62775570255E+02  0.95999336003E+03  0.96759104219E+03  0.00000000000E+00 0. -1.
          2    1    3    3  501    0  0.10346207713E+03  0.62775570255E+02 -0.64911117991E+02  0.13732671577E+03  0.00000000000E+00 0. -1.
<mgrwt>
<rscale>  0 0.64782022E+03</rscale>
<asrwt>0</asrwt>
<pdfrwt beam="1">0</pdfrwt>
<pdfrwt beam="2">  1        2 0.38151992E+00 0.64782022E+03</pdfrwt>
<totfact> 0.46671381E+00</totfact>
</mgrwt>
</event>
<event>
 5    1  0.2361924E-004  0.6474499E+03  0.7818608E-02  0.9811576E-01
         13   -1    0    0    0    0  0.00000000000E+00  0.00000000000E+00  0.10000000000E+04  0.10000000000E+04  0.00000000000E+00 0. -1.
          2   -1    0    0  501    0 -0.00000000000E+00 -0.00000000000E+00 -0.10479782937E+03  0.10479782937E+03  0.00000000000E+00 0. -1.
    9000006    2    1    2  501    0  0.00000000000E+00  0.00000000000E+00  0.89520217063E+03  0.11047978294E+04  0.64744985712E+03 0.  0.
         13    1    3    3    0    0 -0.85855342511E+02  0.35586749324E+02  0.97674586548E+03  0.98115750126E+03  0.00000000000E+00 0. -1.
          2    1    3    3  501    0  0.85855342511E+02 -0.35586749324E+02 -0.81543694846E+02  0.12364032811E+03  0.00000000000E+00 0. -1.
<mgrwt>
<rscale>  0 0.64744986E+03</rscale>
<asrwt>0</asrwt>
<pdfrwt beam="1">0</pdfrwt>
<pdfrwt beam="2">  1        2 0.38108382E+00 0.64744986E+03</pdfrwt>
<totfact> 0.46846142E+00</totfact>
</mgrwt>
</event>
<event>
 5    1  0.2361924E-004  0.6418721E+03  0.7818608E-02  0.9822151E-01
         13   -1    0    0    0    0  0.00000000000E+00  0.00000000000E+00  0.10000000000E+04  0.10000000000E+04  0.00000000000E+00 0. -1.
          2   -1    0    0  501    0 -0.00000000000E+00 -0.00000000000E+00 -0.10299995035E+03  0.10299995035E+03  0.00000000000E+00 0. -1.
    9000006    2    1    2  501    0  0.00000000000E+00  0.00000000000E+00  0.89700004965E+03  0.11029999504E+04  0.64187210674E+03 0.  0.
         13    1    3    3    0    0 -0.17084596028E+03 -0.83318410839E+02  0.41333142530E+01  0.19012465389E+03  0.00000000000E+00 0. -1.
          4    1    3    3  501    0  0.17084596028E+03  0.83318410839E+02  0.89286673539E+03  0.91287529647E+03  0.00000000000E+00 0. -1.
<mgrwt>
<rscale>  0 0.64187211E+03</rscale>
<asrwt>0</asrwt>
<pdfrwt beam="1">0</pdfrwt>
<pdfrwt beam="2">  1        2 0.37454606E+00 0.64187211E+03</pdfrwt>
<totfact> 0.49538505E+00</totfact>
</mgrwt>
</event>
<event>
 5    1  0.2361924E-004  0.6323257E+03  0.7818608E-02  0.9840521E-01
         13   -1    0    0    0    0  0.00000000000E+00  0.00000000000E+00  0.10000000000E+04  0.10000000000E+04  0.00000000000E+00 0. -1.
          2   -1    0    0  501    0 -0.00000000000E+00 -0.00000000000E+00 -0.99958962142E+02  0.99958962142E+02  0.00000000000E+00 0. -1.
    9000006    2    1    2  501    0  0.00000000000E+00  0.00000000000E+00  0.90004103786E+03  0.10999589621E+04  0.63232574561E+03 0.  0.
         13    1    3    3    0    0  0.28108179941E+03 -0.93098186263E+02  0.25721560175E+03  0.39221692471E+03  0.00000000000E+00 0. -1.
          4    1    3    3  501    0 -0.28108179941E+03  0.93098186263E+02  0.64282543610E+03  0.70774203743E+03  0.00000000000E+00 0. -1.
<mgrwt>
<rscale>  0 0.63232575E+03</rscale>
<asrwt>0</asrwt>
<pdfrwt beam="1">0</pdfrwt>
<pdfrwt beam="2">  1        2 0.36348790E+00 0.63232575E+03</pdfrwt>
<totfact> 0.54416905E+00</totfact>
</mgrwt>
</event>
<event>
 5    1  0.2361924E-004  0.6527568E+03  0.7818608E-02  0.9801620E-01
         13   -1    0    0    0    0  0.00000000000E+00  0.00000000000E+00  0.10000000000E+04  0.10000000000E+04  0.00000000000E+00 0. -1.
          2   -1    0    0  501    0 -0.00000000000E+00 -0.00000000000E+00 -0.10652286200E+03  0.10652286200E+03  0.00000000000E+00 0. -1.
    9000006    2    1    2  501    0  0.00000000000E+00  0.00000000000E+00  0.89347713800E+03  0.11065228620E+04  0.65275680616E+03 0.  0.
         13    1    3    3    0    0 -0.12702636545E+03 -0.28157273136E+03  0.26811121920E+03  0.40902631508E+03  0.00000000000E+00 0. -1.
          2    1    3    3  501    0  0.12702636545E+03  0.28157273136E+03  0.62536591880E+03  0.69749654692E+03  0.00000000000E+00 0. -1.
<mgrwt>
<rscale>  0 0.65275681E+03</rscale>
<asrwt>0</asrwt>
<pdfrwt beam="1">0</pdfrwt>
<pdfrwt beam="2">  1        2 0.38735668E+00 0.65275681E+03</pdfrwt>
<totfact> 0.44388689E+00</totfact>
</mgrwt>
</event>
<event>
 5    1  0.2361924E-004  0.6549732E+03  0.7818608E-02  0.9797492E-01
         13   -1    0    0    0    0  0.00000000000E+00  0.00000000000E+00  0.10000000000E+04  0.10000000000E+04  0.00000000000E+00 0. -1.
          2   -1    0    0  501    0 -0.00000000000E+00 -0.00000000000E+00 -0.10724746340E+03  0.10724746340E+03  0.00000000000E+00 0. -1.
    9000006    2    1    2  501    0  0.00000000000E+00  0.00000000000E+00  0.89275253660E+03  0.11072474634E+04  0.65497317013E+03 0.  0.
         13    1    3    3    0    0  0.12281009868E+03 -0.72910542607E+02  0.94457668286E+03  0.95531323521E+03  0.00000000000E+00 0. -1.
          2    1    3    3  501    0 -0.12281009868E+03  0.72910542607E+02 -0.51824146256E+02  0.15193422819E+03  0.00000000000E+00 0. -1.
<mgrwt>
<rscale>  0 0.65497317E+03</rscale>
<asrwt>0</asrwt>
<pdfrwt beam="1">0</pdfrwt>
<pdfrwt beam="2">  1        2 0.38999160E+00 0.65497317E+03</pdfrwt>
<totfact> 0.43391739E+00</totfact>
</mgrwt>
</event>
<event>
 5    1  0.2361924E-004  0.6510635E+03  0.7818608E-02  0.9804786E-01
         13   -1    0    0    0    0  0.00000000000E+00  0.00000000000E+00  0.10000000000E+04  0.10000000000E+04  0.00000000000E+00 0. -1.
          2   -1    0    0  501    0 -0.00000000000E+00 -0.00000000000E+00 -0.10597092775E+03  0.10597092775E+03  0.00000000000E+00 0. -1.
    9000006    2    1    2  501    0  0.00000000000E+00  0.00000000000E+00  0.89402907225E+03  0.11059709278E+04  0.65106352302E+03 0.  0.
         13    1    3    3    0    0 -0.23559482342E+02 -0.17787224704E+03  0.90841906207E+03  0.92596910197E+03  0.00000000000E+00 0. -1.
          4    1    3    3  501    0  0.23559482342E+02  0.17787224704E+03 -0.14389989822E+02  0.18000182578E+03  0.00000000000E+00 0. -1.
<mgrwt>
<rscale>  0 0.65106352E+03</rscale>
<asrwt>0</asrwt>
<pdfrwt beam="1">0</pdfrwt>
<pdfrwt beam="2">  1        2 0.38534964E+00 0.65106352E+03</pdfrwt>
<totfact> 0.45161934E+00</totfact>
</mgrwt>
</event>
<event>
 5    1  0.2361924E-004  0.6379421E+03  0.7818608E-02  0.9829672E-01
         13   -1    0    0    0    0  0.00000000000E+00  0.00000000000E+00  0.10000000000E+04  0.10000000000E+04  0.00000000000E+00 0. -1.
          2   -1    0    0  501    0 -0.00000000000E+00 -0.00000000000E+00 -0.10174252432E+03  0.10174252432E+03  0.00000000000E+00 0. -1.
    9000006    2    1    2  501    0  0.00000000000E+00  0.00000000000E+00  0.89825747568E+03  0.11017425243E+04  0.63794207988E+03 0.  0.
         13    1    3    3    0    0  0.85546537193E+01 -0.20116319667E+03  0.87638082268E+03  0.89921252224E+03  0.00000000000E+00 0. -1.
          4    1    3    3  501    0 -0.85546537193E+01  0.20116319667E+03  0.21876653003E+02  0.20253000208E+03  0.00000000000E+00 0. -1.
<mgrwt>
<rscale>  0 0.63794208E+03</rscale>
<asrwt>0</asrwt>
<pdfrwt beam="1">0</pdfrwt>
<pdfrwt beam="2">  1        2 0.36997360E+00 0.63794208E+03</pdfrwt>
<totfact> 0.51504859E+00</totfact>
</mgrwt>
</event>
<event>
 5    1  0.2361924E-004  0.6468389E+03  0.7818608E-02  0.9812729E-01
         13   -1    0    0    0    0  0.00000000000E+00  0.00000000000E+00  0.10000000000E+04  0.10000000000E+04  0.00000000000E+00 0. -1.
          2   -1    0    0  501    0 -0.00000000000E+00 -0.00000000000E+00 -0.10460013201E+03  0.10460013201E+03  0.00000000000E+00 0. -1.
    9000006    2    1    2  501    0  0.00000000000E+00  0.00000000000E+00  0.89539986799E+03  0.11046001320E+04  0.64683887332E+03 0.  0.
         13    1    3    3    0    0 -0.95988182358E+02  0.29895121771E+03  0.31526234033E+03  0.44494483361E+03  0.00000000000E+00 0. -1.
          2    1    3    3  501    0  0.95988182358E+02 -0.29895121771E+03  0.58013752765E+03  0.65965529840E+03  0.00000000000E+00 0. -1.
<mgrwt>
<rscale>  0 0.64683887E+03</rscale>
<asrwt>0</asrwt>
<pdfrwt beam="1">0</pdfrwt>
<pdfrwt beam="2">  1        2 0.38036492E+00 0.64683887E+03</pdfrwt>
<totfact> 0.47135527E+00</totfact>
</mgrwt>
</event>
<event>
 5    1  0.2361924E-004  0.5991290E+03  0.7818608E-02  0.9907215E-01
         13   -1    0    0    0    0  0.00000000000E+00  0.00000000000E+00  0.10000000000E+04  0.10000000000E+04  0.00000000000E+00 0. -1.
          2   -1    0    0  501    0 -0.00000000000E+00 -0.00000000000E+00 -0.89738898401E+02  0.89738898401E+02  0.00000000000E+00 0. -1.
    9000006    2    1    2  501    0  0.00000000000E+00  0.00000000000E+00  0.91026110160E+03  0.10897388984E+04  0.59912902918E+03 0.  0.
         13    1    3    3    0    0 -0.47865934285E+02 -0.25037741294E+03  0.74132933177E+03  0.78393186867E+03  0.00000000000E+00 0. -1.
          4    1    3    3  501    0  0.47865934285E+02  0.25037741294E+03  0.16893176983E+03  0.30580702973E+03  0.00000000000E+00 0. -1.
<mgrwt>
<rscale>  0 0.59912903E+03</rscale>
<asrwt>0</asrwt>
<pdfrwt beam="1">0</pdfrwt>
<pdfrwt beam="2">  1        2 0.32632396E+00 0.59912903E+03</pdfrwt>
<totfact> 0.74275874E+00</totfact>
</mgrwt>
</event>
<event>
 5    1  0.2361924E-004  0.6488784E+03  0.7818608E-02  0.9808886E-01
         13   -1    0    0    0    0  0.00000000000E+00  0.00000000000E+00  0.10000000000E+04  0.10000000000E+04  0.00000000000E+00 0. -1.
          2   -1    0    0  501    0 -0.00000000000E+00 -0.00000000000E+00 -0.10526079760E+03  0.10526079760E+03  0.00000000000E+00 0. -1.
    9000006    2    1    2  501    0  0.00000000000E+00  0.00000000000E+00  0.89473920240E+03  0.11052607976E+04  0.64887840956E+03 0.  0.
         13    1    3    3    0    0 -0.79638414981E+02  0.16479651335E+03  0.90366339597E+03  0.92201285304E+03  0.00000000000E+00 0. -1.
          4    1    3    3  501    0  0.79638414981E+02 -0.16479651335E+03 -0.89241935677E+01  0.18324794456E+03  0.00000000000E+00 0. -1.
<mgrwt>
<rscale>  0 0.64887841E+03</rscale>
<asrwt>0</asrwt>
<pdfrwt beam="1">0</pdfrwt>
<pdfrwt beam="2">  1        2 0.38276734E+00 0.64887841E+03</pdfrwt>
<totfact> 0.46174767E+00</totfact>
</mgrwt>
</event>
<event>
 5    1  0.2361924E-004  0.6514579E+03  0.7818608E-02  0.9804047E-01
         13   -1    0    0    0    0  0.00000000000E+00  0.00000000000E+00  0.10000000000E+04  0.10000000000E+04  0.00000000000E+00 0. -1.
          2   -1    0    0  501    0 -0.00000000000E+00 -0.00000000000E+00 -0.10609934697E+03  0.10609934697E+03  0.00000000000E+00 0. -1.
    9000006    2    1    2  501    0  0.00000000000E+00  0.00000000000E+00  0.89390065303E+03  0.11060993470E+04  0.65145789418E+03 0.  0.
         13    1    3    3    0    0 -0.15045174531E+03  0.28838771518E+03  0.41773168530E+03  0.52943645779E+03  0.00000000000E+00 0. -1.
          2    1    3    3  501    0  0.15045174531E+03 -0.28838771518E+03  0.47616896773E+03  0.57666288918E+03  0.00000000000E+00 0. -1.
<mgrwt>
<rscale>  0 0.65145789E+03</rscale>
<asrwt>0</asrwt>
<pdfrwt beam="1">0</pdfrwt>
<pdfrwt beam="2">  1        2 0.38581662E+00 0.65145789E+03</pdfrwt>
<totfact> 0.44980941E+00</totfact>
</mgrwt>
</event>
<event>
 5    1  0.2361924E-004  0.6741326E+03  0.7818608E-02  0.9762521E-01
         13   -1    0    0    0    0  0.00000000000E+00  0.00000000000E+00  0.10000000000E+04  0.10000000000E+04  0.00000000000E+00 0. -1.
          2   -1    0    0  501    0 -0.00000000000E+00 -0.00000000000E+00 -0.11361369220E+03  0.11361369220E+03  0.00000000000E+00 0. -1.
    9000006    2    1    2  501    0  0.00000000000E+00  0.00000000000E+00  0.88638630780E+03  0.11136136922E+04  0.67413260475E+03 0.  0.
         13    1    3    3    0    0 -0.35763706277E+02 -0.28636265853E+03  0.15549760179E+03  0.32781415322E+03  0.00000000000E+00 0. -1.
          2    1    3    3  501    0  0.35763706277E+02  0.28636265853E+03  0.73088870601E+03  0.78579953898E+03  0.00000000000E+00 0. -1.
<mgrwt>
<rscale>  0 0.67413260E+03</rscale>
<asrwt>0</asrwt>
<pdfrwt beam="1">0</pdfrwt>
<pdfrwt beam="2">  1        2 0.41314157E+00 0.67413260E+03</pdfrwt>
<totfact> 0.35461742E+00</totfact>
</mgrwt>
</event>
<event>
 5    1  0.2361924E-004  0.6722265E+03  0.7818608E-02  0.9765944E-01
         13   -1    0    0    0    0  0.00000000000E+00  0.00000000000E+00  0.10000000000E+04  0.10000000000E+04  0.00000000000E+00 0. -1.
          2   -1    0    0  501    0 -0.00000000000E+00 -0.00000000000E+00 -0.11297211212E+03  0.11297211212E+03  0.00000000000E+00 0. -1.
    9000006    2    1    2  501    0  0.00000000000E+00  0.00000000000E+00  0.88702788788E+03  0.11129721121E+04  0.67222648601E+03 0.  0.
         13    1    3    3    0    0 -0.14464802117E+03  0.23476304279E+03  0.76170643285E+03  0.81008235762E+03  0.00000000000E+00 0. -1.
          2    1    3    3  501    0  0.14464802117E+03 -0.23476304279E+03  0.12532145503E+03  0.30288975450E+03  0.00000000000E+00 0. -1.
<mgrwt>
<rscale>  0 0.67222649E+03</rscale>
<asrwt>0</asrwt>
<pdfrwt beam="1">0</pdfrwt>
<pdfrwt beam="2">  1        2 0.41080855E+00 0.67222649E+03</pdfrwt>
<totfact> 0.36197367E+00</totfact>
</mgrwt>
</event>
<event>
 5    1  0.2361924E-004  0.6400867E+03  0.7818608E-02  0.9825561E-01
         13   -1    0    0    0    0  0.00000000000E+00  0.00000000000E+00  0.10000000000E+04  0.10000000000E+04  0.00000000000E+00 0. -1.
          2   -1    0    0  501    0 -0.00000000000E+00 -0.00000000000E+00 -0.10242775606E+03  0.10242775606E+03  0.00000000000E+00 0. -1.
    9000006    2    1    2  501    0  0.00000000000E+00  0.00000000000E+00  0.89757224394E+03  0.11024277561E+04  0.64008673181E+03 0.  0.
         13    1    3    3    0    0 -0.20909842810E+03 -0.19108644577E+03  0.19221642319E+03  0.34232051609E+03  0.00000000000E+00 0. -1.
          4    1    3    3  501    0  0.20909842810E+03  0.19108644577E+03  0.70535582075E+03  0.76010723997E+03  0.00000000000E+00 0. -1.
<mgrwt>
<rscale>  0 0.64008673E+03</rscale>
<asrwt>0</asrwt>
<pdfrwt beam="1">0</pdfrwt>
<pdfrwt beam="2">  1        2 0.37246535E+00 0.64008673E+03</pdfrwt>
<totfact> 0.50424618E+00</totfact>
</mgrwt>
</event>
<event>
 5    1  0.2361924E-004  0.6496886E+03  0.7818608E-02  0.9807364E-01
         13   -1    0    0    0    0  0.00000000000E+00  0.00000000000E+00  0.10000000000E+04  0.10000000000E+04  0.00000000000E+00 0. -1.
          2   -1    0    0  501    0 -0.00000000000E+00 -0.00000000000E+00 -0.10552382268E+03  0.10552382268E+03  0.00000000000E+00 0. -1.
    9000006    2    1    2  501    0  0.00000000000E+00  0.00000000000E+00  0.89447617732E+03  0.11055238227E+04  0.64968861059E+03 0.  0.
         13    1    3    3    0    0  0.30256421977E+03 -0.56662135492E+01  0.64819232892E+03  0.71535341499E+03  0.00000000000E+00 0. -1.
          2    1    3    3  501    0 -0.30256421977E+03  0.56662135492E+01  0.24628384840E+03  0.39017040769E+03  0.00000000000E+00 0. -1.
<mgrwt>
<rscale>  0 0.64968861E+03</rscale>
<asrwt>0</asrwt>
<pdfrwt beam="1">0</pdfrwt>
<pdfrwt beam="2">  1        2 0.38372380E+00 0.64968861E+03</pdfrwt>
<totfact> 0.45797245E+00</totfact>
</mgrwt>
</event>
<event>
 5    1  0.2361924E-004  0.6298007E+03  0.7818608E-02  0.9845438E-01
         13   -1    0    0    0    0  0.00000000000E+00  0.00000000000E+00  0.10000000000E+04  0.10000000000E+04  0.00000000000E+00 0. -1.
          2   -1    0    0  501    0 -0.00000000000E+00 -0.00000000000E+00 -0.99162229428E+02  0.99162229428E+02  0.00000000000E+00 0. -1.
    9000006    2    1    2  501    0  0.00000000000E+00  0.00000000000E+00  0.90083777057E+03  0.10991622294E+04  0.62980069682E+03 0.  0.
         13    1    3    3    0    0  0.29877291918E+03 -0.83204519835E+02  0.35524283310E+03  0.47157790430E+03  0.00000000000E+00 0. -1.
          2    1    3    3  501    0 -0.29877291918E+03  0.83204519835E+02  0.54559493747E+03  0.62758432513E+03  0.00000000000E+00 0. -1.
<mgrwt>
<rscale>  0 0.62980070E+03</rscale>
<asrwt>0</asrwt>
<pdfrwt beam="1">0</pdfrwt>
<pdfrwt beam="2">  1        2 0.36059069E+00 0.62980070E+03</pdfrwt>
<totfact> 0.55766069E+00</totfact>
</mgrwt>
</event>
