<event>
 6    1  0.5555421E-003  0.6393856E+03  0.7818608E-02  0.9826903E-01
          1   -1    0    0  502    0  0.00000000000E+00  0.00000000000E+00  0.11080078252E+03  0.11080078252E+03  0.00000000000E+00 0.  1.
         13   -1    0    0    0    0 -0.00000000000E+00 -0.00000000000E+00 -0.10000000000E+04  0.10000000000E+04  0.00000000000E+00 0.  1.
    9000005    2    1    2  501    0  0.15177606142E+00 -0.60644647806E-01 -0.89779567318E+03  0.11022027732E+04  0.63938552983E+03 0.  0.
         13    1    3    3    0    0 -0.22779484179E+03  0.22404825225E+03 -0.43466148792E+03  0.53946150777E+03  0.00000000000E+00 0.  1.
          3    1    3    3  501    0  0.22794661786E+03 -0.22410889690E+03 -0.46313418526E+03  0.56274126543E+03  0.00000000000E+00 0.  1.
         21    1    1    2  502  501 -0.15177606142E+00  0.60644647806E-01  0.85964556986E+01  0.85980093233E+01  0.00000000000E+00 0. -1.
<mgrwt>
<rscale>  1 0.63938555E+03</rscale>
<asrwt>0</asrwt>
<pdfrwt beam="1">  1        1 0.40291279E+00 0.63938555E+03</pdfrwt>
<pdfrwt beam="2">0</pdfrwt>
<totfact> 0.13010982E+00</totfact>
</mgrwt>
</event>
<event>
 6    1  0.5555421E-003  0.6448014E+03  0.7818608E-02  0.9816583E-01
          1   -1    0    0  502    0  0.00000000000E+00  0.00000000000E+00  0.10464074134E+03  0.10464074134E+03  0.00000000000E+00 0.  1.
         13   -1    0    0    0    0 -0.00000000000E+00 -0.00000000000E+00 -0.10000000000E+04  0.10000000000E+04  0.00000000000E+00 0.  1.
    9000005    2    1    2  501    0  0.39591159611E-01 -0.17377898894E-01 -0.89605705790E+03  0.11039416038E+04  0.64480137393E+03 0.  0.
         13    1    3    3    0    0 -0.73956795009E+02 -0.28805435571E+03 -0.23488707662E+03  0.37896814923E+03  0.00000000000E+00 0.  1.
          3    1    3    3  501    0  0.73996386169E+02  0.28803697781E+03 -0.66116998128E+03  0.72497345462E+03  0.00000000000E+00 0.  1.
         21    1    1    2  502  501 -0.39591159611E-01  0.17377898894E-01  0.69779923670E+00  0.69913748721E+00  0.00000000000E+00 0. -1.
<mgrwt>
<rscale>  1 0.64480138E+03</rscale>
<asrwt>0</asrwt>
<pdfrwt beam="1">  1        1 0.38051259E+00 0.64480138E+03</pdfrwt>
<pdfrwt beam="2">0</pdfrwt>
<totfact> 0.16340094E+00</totfact>
</mgrwt>
</event>
<event>
 6    1  0.5555421E-003  0.6511578E+03  0.7818608E-02  0.9804609E-01
          1   -1    0    0  502    0  0.00000000000E+00  0.00000000000E+00  0.10600324441E+03  0.10600324441E+03  0.00000000000E+00 0.  1.
         13   -1    0    0    0    0 -0.00000000000E+00 -0.00000000000E+00 -0.10000000000E+04  0.10000000000E+04  0.00000000000E+00 0.  1.
    9000005    2    1    2  501    0 -0.38502682295E-03 -0.23319009404E-03 -0.89399834158E+03  0.11060015958E+04  0.65115781122E+03 0.  0.
         13    1    3    3    0    0 -0.16617487344E+03 -0.27788791816E+03 -0.50499743856E+03  0.59988181884E+03  0.00000000000E+00 0.  1.
          1    1    3    3  501    0  0.16617448841E+03  0.27788768497E+03 -0.38900090302E+03  0.50611977694E+03  0.00000000000E+00 0.  1.
         21    1    1    2  502  501  0.38502682294E-03  0.23319009400E-03  0.15859902224E-02  0.16486322391E-02  0.00000000000E+00 0. -1.
<mgrwt>
<rscale>  1 0.65115781E+03</rscale>
<asrwt>0</asrwt>
<pdfrwt beam="1">  1        1 0.38546716E+00 0.65115781E+03</pdfrwt>
<pdfrwt beam="2">0</pdfrwt>
<totfact> 0.15518609E+00</totfact>
</mgrwt>
</event>
<event>
 6    1  0.5555421E-003  0.6471812E+03  0.7818608E-02  0.9812083E-01
          1   -1    0    0  502    0  0.00000000000E+00  0.00000000000E+00  0.10685786819E+03  0.10685786819E+03  0.00000000000E+00 0.  1.
         13   -1    0    0    0    0 -0.00000000000E+00 -0.00000000000E+00 -0.10000000000E+04  0.10000000000E+04  0.00000000000E+00 0.  1.
    9000005    2    1    2  501    0 -0.49391630810E-01 -0.35499687525E-01 -0.89528865781E+03  0.11047104806E+04  0.64718116580E+03 0.  0.
         13    1    3    3    0    0  0.27122199577E+03  0.27590868672E+02 -0.15012343196E+03  0.31122286524E+03  0.00000000000E+00 0.  1.
          3    1    3    3  501    0 -0.27127138740E+03 -0.27626368359E+02 -0.74516522585E+03  0.79348761532E+03  0.00000000000E+00 0.  1.
         21    1    1    2  502  501  0.49391630810E-01  0.35499687525E-01  0.21465259989E+01  0.21473876280E+01  0.00000000000E+00 0. -1.
<mgrwt>
<rscale>  1 0.64718117E+03</rscale>
<asrwt>0</asrwt>
<pdfrwt beam="1">  1        1 0.38857489E+00 0.64718117E+03</pdfrwt>
<pdfrwt beam="2">0</pdfrwt>
<totfact> 0.15045772E+00</totfact>
</mgrwt>
</event>
<event>
 6    1  0.5555421E-003  0.6465433E+03  0.7818608E-02  0.9813287E-01
          1   -1    0    0  502    0  0.00000000000E+00  0.00000000000E+00  0.10950643314E+03  0.10950643314E+03  0.00000000000E+00 0.  1.
         13   -1    0    0    0    0 -0.00000000000E+00 -0.00000000000E+00 -0.10000000000E+04  0.10000000000E+04  0.00000000000E+00 0.  1.
    9000005    2    1    2  501    0  0.35367881671E+01 -0.65802007348E+01 -0.89220884530E+03  0.11018415723E+04  0.64650013055E+03 0.  0.
         13    1    3    3    0    0  0.62670013508E+02  0.31175812913E+03 -0.50889694286E+03  0.60008062802E+03  0.00000000000E+00 0.  1.
          1    1    3    3  501    0 -0.59133225341E+02 -0.31833832987E+03 -0.38331190244E+03  0.50176094423E+03  0.00000000000E+00 0.  1.
         21    1    1    2  502  501 -0.35367881671E+01  0.65802007348E+01  0.17152784376E+01  0.76648608837E+01  0.00000000000E+00 0. -1.
<mgrwt>
<rscale>  1 0.64654329E+03</rscale>
<asrwt>0</asrwt>
<pdfrwt beam="1">  1        1 0.39820605E+00 0.64654329E+03</pdfrwt>
<pdfrwt beam="2">0</pdfrwt>
<totfact> 0.13636171E+00</totfact>
</mgrwt>
</event>
<event>
 6    1  0.5555421E-003  0.6522324E+03  0.7818608E-02  0.9802599E-01
          1   -1    0    0  502    0  0.00000000000E+00  0.00000000000E+00  0.10732374567E+03  0.10732374567E+03  0.00000000000E+00 0.  1.
         13   -1    0    0    0    0 -0.00000000000E+00 -0.00000000000E+00 -0.10000000000E+04  0.10000000000E+04  0.00000000000E+00 0.  1.
    9000005    2    1    2  501    0  0.14949783702E-01 -0.27373203955E+00 -0.89362679253E+03  0.11063344653E+04  0.65223234335E+03 0.  0.
         13    1    3    3    0    0 -0.44432749755E+02  0.22359132931E+03 -0.84202635715E+03  0.87233923329E+03  0.00000000000E+00 0.  1.
          1    1    3    3  501    0  0.44447699538E+02 -0.22386506135E+03 -0.51600435375E+02  0.23399523205E+03  0.00000000000E+00 0.  1.
         21    1    1    2  502  501 -0.14949783702E-01  0.27373203955E+00  0.95053819154E+00  0.98928033392E+00  0.00000000000E+00 0.  1.
<mgrwt>
<rscale>  1 0.65223240E+03</rscale>
<asrwt>0</asrwt>
<pdfrwt beam="1">  1        1 0.39026899E+00 0.65223240E+03</pdfrwt>
<pdfrwt beam="2">0</pdfrwt>
<totfact> 0.14773929E+00</totfact>
</mgrwt>
</event>
<event>
 6    1  0.5555421E-003  0.6388789E+03  0.7818608E-02  0.9827874E-01
          1   -1    0    0  502    0  0.00000000000E+00  0.00000000000E+00  0.10204269583E+03  0.10204269583E+03  0.00000000000E+00 0.  1.
         13   -1    0    0    0    0 -0.00000000000E+00 -0.00000000000E+00 -0.10000000000E+04  0.10000000000E+04  0.00000000000E+00 0.  1.
    9000005    2    1    2  501    0 -0.18513273437E-03 -0.16750104888E-03 -0.89795841376E+03  0.11020415585E+04  0.63887892737E+03 0.  0.
         13    1    3    3    0    0  0.29437401933E+03 -0.11084925156E+03 -0.54498861975E+03  0.62925051886E+03  0.00000000000E+00 0.  1.
          1    1    3    3  501    0 -0.29437420446E+03  0.11084908406E+03 -0.35296979400E+03  0.47279103965E+03  0.00000000000E+00 0.  1.
         21    1    1    2  502  501  0.18513273437E-03  0.16750104887E-03  0.11095827528E-02  0.11373234439E-02  0.00000000000E+00 0.  1.
<mgrwt>
<rscale>  1 0.63887893E+03</rscale>
<asrwt>0</asrwt>
<pdfrwt beam="1">  1        1 0.37106513E+00 0.63887893E+03</pdfrwt>
<pdfrwt beam="2">0</pdfrwt>
<totfact> 0.18002230E+00</totfact>
</mgrwt>
</event>
<event>
 6    1  0.5555421E-003  0.6350331E+03  0.7818608E-02  0.9835276E-01
          1   -1    0    0  502    0  0.00000000000E+00  0.00000000000E+00  0.10081688255E+03  0.10081688255E+03  0.00000000000E+00 0.  1.
         13   -1    0    0    0    0 -0.00000000000E+00 -0.00000000000E+00 -0.10000000000E+04  0.10000000000E+04  0.00000000000E+00 0.  1.
    9000005    2    1    2  501    0  0.42020365164E-04  0.24368133680E-04 -0.89918324378E+03  0.11008167472E+04  0.63503307398E+03 0.  0.
         13    1    3    3    0    0 -0.49307694504E+02  0.91363747568E+02  0.70562457082E+02  0.12552945255E+03  0.00000000000E+00 0.  1.
          1    1    3    3  501    0  0.49307736524E+02 -0.91363723200E+02 -0.96974570086E+03  0.97528729466E+03  0.00000000000E+00 0.  1.
         21    1    1    2  502  501 -0.42020365163E-04 -0.24368133688E-04  0.12632026760E-03  0.13533782559E-03  0.00000000000E+00 0. -1.
<mgrwt>
<rscale>  1 0.63503307E+03</rscale>
<asrwt>0</asrwt>
<pdfrwt beam="1">  1        1 0.36660762E+00 0.63503307E+03</pdfrwt>
<pdfrwt beam="2">0</pdfrwt>
<totfact> 0.18845035E+00</totfact>
</mgrwt>
</event>
<event>
 6    1  0.5555421E-003  0.6585019E+03  0.7818608E-02  0.9790955E-01
          1   -1    0    0  502    0  0.00000000000E+00  0.00000000000E+00  0.11267023216E+03  0.11267023216E+03  0.00000000000E+00 0.  1.
         13   -1    0    0    0    0 -0.00000000000E+00 -0.00000000000E+00 -0.10000000000E+04  0.10000000000E+04  0.00000000000E+00 0.  1.
    9000005    2    1    2  501    0 -0.11438204690E+00 -0.14432411552E+00 -0.89159159168E+03  0.11084044315E+04  0.65850192372E+03 0.  0.
         13    1    3    3    0    0  0.73154036559E+02 -0.81570042343E+02  0.76821579567E+02  0.13381606764E+03  0.00000000000E+00 0.  1.
          1    1    3    3  501    0 -0.73268418606E+02  0.81425718228E+02 -0.96841317124E+03  0.97458836387E+03  0.00000000000E+00 0.  1.
         21    1    1    2  502  501  0.11438204690E+00  0.14432411552E+00  0.42618238348E+01  0.42658006402E+01  0.00000000000E+00 0. -1.
<mgrwt>
<rscale>  1 0.65850195E+03</rscale>
<asrwt>0</asrwt>
<pdfrwt beam="1">  1        1 0.40971080E+00 0.65850195E+03</pdfrwt>
<pdfrwt beam="2">0</pdfrwt>
<totfact> 0.12086538E+00</totfact>
</mgrwt>
</event>
<event>
 6    1  0.5555421E-003  0.6495153E+03  0.7818608E-02  0.9807689E-01
          1   -1    0    0  502    0  0.00000000000E+00  0.00000000000E+00  0.10568222467E+03  0.10568222467E+03  0.00000000000E+00 0.  1.
         13   -1    0    0    0    0 -0.00000000000E+00 -0.00000000000E+00 -0.10000000000E+04  0.10000000000E+04  0.00000000000E+00 0.  1.
    9000005    2    1    2  501    0 -0.23371904815E+00 -0.60665486677E+00 -0.89320872532E+03  0.11043966716E+04  0.64951501802E+03 0.  0.
         13    1    3    3    0    0  0.15600510213E+02  0.12156014582E+03  0.64708480895E+02  0.13859088163E+03  0.00000000000E+00 0.  1.
          1    1    3    3  501    0 -0.15834229261E+02 -0.12216680069E+03 -0.95791720622E+03  0.96580578999E+03  0.00000000000E+00 0.  1.
         21    1    1    2  502  501  0.23371904815E+00  0.60665486677E+00 -0.11090500094E+01  0.12855530499E+01  0.00000000000E+00 0. -1.
<mgrwt>
<rscale>  1 0.64951534E+03</rscale>
<asrwt>0</asrwt>
<pdfrwt beam="1">  1        1 0.38429981E+00 0.64951534E+03</pdfrwt>
<pdfrwt beam="2">0</pdfrwt>
<totfact> 0.15708967E+00</totfact>
</mgrwt>
</event>
<event>
 6    1  0.5555421E-003  0.6400660E+03  0.7818608E-02  0.9825600E-01
          1   -1    0    0  502    0  0.00000000000E+00  0.00000000000E+00  0.10302293228E+03  0.10302293228E+03  0.00000000000E+00 0.  1.
         13   -1    0    0    0    0 -0.00000000000E+00 -0.00000000000E+00 -0.10000000000E+04  0.10000000000E+04  0.00000000000E+00 0.  1.
    9000005    2    1    2  501    0  0.42978792249E-01 -0.82949890679E-01 -0.89757487024E+03  0.11024178738E+04  0.64006602173E+03 0.  0.
         13    1    3    3    0    0  0.27962386155E+03  0.11745862780E+03 -0.27283119352E+03  0.40794962109E+03  0.00000000000E+00 0.  1.
          3    1    3    3  501    0 -0.27958088275E+03 -0.11754157769E+03 -0.62474367671E+03  0.69446825275E+03  0.00000000000E+00 0.  1.
         21    1    1    2  502  501 -0.42978792249E-01  0.82949890679E-01  0.59780251723E+00  0.60505843565E+00  0.00000000000E+00 0.  1.
<mgrwt>
<rscale>  1 0.64006603E+03</rscale>
<asrwt>0</asrwt>
<pdfrwt beam="1">  1        1 0.37462963E+00 0.64006603E+03</pdfrwt>
<pdfrwt beam="2">0</pdfrwt>
<totfact> 0.17360321E+00</totfact>
</mgrwt>
</event>
<event>
 6    1  0.5555421E-003  0.6514601E+03  0.7818608E-02  0.9804043E-01
          1   -1    0    0  502    0  0.00000000000E+00  0.00000000000E+00  0.10610007238E+03  0.10610007238E+03  0.00000000000E+00 0.  1.
         13   -1    0    0    0    0 -0.00000000000E+00 -0.00000000000E+00 -0.10000000000E+04  0.10000000000E+04  0.00000000000E+00 0.  1.
    9000005    2    1    2  501    0  0.45482599340E-05 -0.11927974697E-05 -0.89389993446E+03  0.11061000641E+04  0.65146009772E+03 0.  0.
         13    1    3    3    0    0 -0.29842437145E+02  0.18644658189E+03 -0.89759891174E+03  0.91724408164E+03  0.00000000000E+00 0.  1.
          1    1    3    3  501    0  0.29842441693E+02 -0.18644658308E+03  0.36989772782E+01  0.18885598244E+03  0.00000000000E+00 0.  1.
         21    1    1    2  502  501 -0.45482599331E-05  0.11927974758E-05  0.68439869526E-05  0.83035890821E-05  0.00000000000E+00 0.  1.
<mgrwt>
<rscale>  1 0.65146010E+03</rscale>
<asrwt>0</asrwt>
<pdfrwt beam="1">  1        1 0.38581926E+00 0.65146010E+03</pdfrwt>
<pdfrwt beam="2">0</pdfrwt>
<totfact> 0.15462175E+00</totfact>
</mgrwt>
</event>
<event>
 6    1  0.5555421E-003  0.6445647E+03  0.7818608E-02  0.9817032E-01
          1   -1    0    0  502    0  0.00000000000E+00  0.00000000000E+00  0.10386617625E+03  0.10386617625E+03  0.00000000000E+00 0.  1.
         13   -1    0    0    0    0 -0.00000000000E+00 -0.00000000000E+00 -0.10000000000E+04  0.10000000000E+04  0.00000000000E+00 0.  1.
    9000005    2    1    2  501    0  0.32681935903E-03  0.29796443357E-04 -0.89613398862E+03  0.11038658090E+04  0.64456465827E+03 0.  0.
         13    1    3    3    0    0 -0.23840057366E+03 -0.16326885337E+03 -0.20361640767E+03  0.35348436100E+03  0.00000000000E+00 0.  1.
          3    1    3    3  501    0  0.23840090048E+03  0.16326888316E+03 -0.69251758095E+03  0.75038144799E+03  0.00000000000E+00 0.  1.
         21    1    1    2  502  501 -0.32681935904E-03 -0.29796443345E-04  0.16486642500E-03  0.36725966233E-03  0.00000000000E+00 0. -1.
<mgrwt>
<rscale>  1 0.64456466E+03</rscale>
<asrwt>0</asrwt>
<pdfrwt beam="1">  1        1 0.37769598E+00 0.64456466E+03</pdfrwt>
<pdfrwt beam="2">0</pdfrwt>
<totfact> 0.16814935E+00</totfact>
</mgrwt>
</event>
<event>
 6    1  0.5555421E-003  0.6477634E+03  0.7818608E-02  0.9810985E-01
          1   -1    0    0  502    0  0.00000000000E+00  0.00000000000E+00  0.10729191105E+03  0.10729191105E+03  0.00000000000E+00 0.  1.
         13   -1    0    0    0    0 -0.00000000000E+00 -0.00000000000E+00 -0.10000000000E+04  0.10000000000E+04  0.00000000000E+00 0.  1.
    9000005    2    1    2  501    0 -0.12711361855E+00  0.11715775361E+00 -0.89509720291E+03  0.11048965511E+04  0.64776334882E+03 0.  0.
         13    1    3    3    0    0 -0.30462298326E+03 -0.94049663123E+02 -0.34982218305E+03  0.47330334968E+03  0.00000000000E+00 0.  1.
          3    1    3    3  501    0  0.30449586964E+03  0.94166820877E+02 -0.54527501986E+03  0.63159320141E+03  0.00000000000E+00 0.  1.
         21    1    1    2  502  501  0.12711361855E+00 -0.11715775361E+00  0.23891139579E+01  0.23953599552E+01  0.00000000000E+00 0.  1.
<mgrwt>
<rscale>  1 0.64776337E+03</rscale>
<asrwt>0</asrwt>
<pdfrwt beam="1">  1        1 0.39015323E+00 0.64776337E+03</pdfrwt>
<pdfrwt beam="2">0</pdfrwt>
<totfact> 0.14803748E+00</totfact>
</mgrwt>
</event>
<event>
 6    1  0.5555421E-003  0.6365062E+03  0.7818608E-02  0.9832434E-01
          1   -1    0    0  502    0  0.00000000000E+00  0.00000000000E+00  0.10128890031E+03  0.10128890031E+03  0.00000000000E+00 0.  1.
         13   -1    0    0    0    0 -0.00000000000E+00 -0.00000000000E+00 -0.10000000000E+04  0.10000000000E+04  0.00000000000E+00 0.  1.
    9000005    2    1    2  501    0  0.21712424706E-03  0.81949067013E-03 -0.89871490514E+03  0.11012850016E+04  0.63650622459E+03 0.  0.
         13    1    3    3    0    0  0.12062900213E+03  0.11020265487E+02 -0.95855565573E+03  0.96617894178E+03  0.00000000000E+00 0.  1.
          3    1    3    3  501    0 -0.12062878500E+03 -0.11019445997E+02  0.59840750585E+02  0.13510605979E+03  0.00000000000E+00 0.  1.
         21    1    1    2  502  501 -0.21712424705E-03 -0.81949067013E-03  0.38054538264E-02  0.38987416844E-02  0.00000000000E+00 0. -1.
<mgrwt>
<rscale>  1 0.63650622E+03</rscale>
<asrwt>0</asrwt>
<pdfrwt beam="1">  1        1 0.36832405E+00 0.63650622E+03</pdfrwt>
<pdfrwt beam="2">0</pdfrwt>
<totfact> 0.18516152E+00</totfact>
</mgrwt>
</event>
<event>
 6    1  0.5555421E-003  0.5580706E+03  0.7818608E-02  0.9996430E-01
          1   -1    0    0  502    0  0.00000000000E+00  0.00000000000E+00  0.77862380765E+02  0.77862380765E+02  0.00000000000E+00 0.  1.
         13   -1    0    0    0    0 -0.00000000000E+00 -0.00000000000E+00 -0.10000000000E+04  0.10000000000E+04  0.00000000000E+00 0.  1.
    9000005    2    1    2  501    0  0.15136322855E-03  0.35944362865E-03 -0.92213926514E+03  0.10778606893E+04  0.55807064174E+03 0.  0.
         13    1    3    3    0    0 -0.15777984395E+03  0.38286851812E+02 -0.89937669318E+03  0.91391399947E+03  0.00000000000E+00 0.  1.
          3    1    3    3  501    0  0.15777999531E+03 -0.38286492368E+02 -0.22762571958E+02  0.16394668981E+03  0.00000000000E+00 0.  1.
         21    1    1    2  502  501 -0.15136322855E-03 -0.35944362865E-03  0.16459075869E-02  0.16914852449E-02  0.00000000000E+00 0. -1.
<mgrwt>
<rscale>  1 0.55807064E+03</rscale>
<asrwt>0</asrwt>
<pdfrwt beam="1">  1        1 0.28313653E+00 0.55807064E+03</pdfrwt>
<pdfrwt beam="2">0</pdfrwt>
<totfact> 0.43950198E+00</totfact>
</mgrwt>
</event>
<event>
 6    1  0.5555421E-003  0.6296511E+03  0.7818608E-02  0.9845730E-01
          1   -1    0    0  502    0  0.00000000000E+00  0.00000000000E+00  0.10163805096E+03  0.10163805096E+03  0.00000000000E+00 0.  1.
         13   -1    0    0    0    0 -0.00000000000E+00 -0.00000000000E+00 -0.10000000000E+04  0.10000000000E+04  0.00000000000E+00 0.  1.
    9000005    2    1    2  501    0  0.22894142548E+00 -0.69971187986E+00 -0.90082569981E+03  0.10990666547E+04  0.62965071907E+03 0.  0.
         13    1    3    3    0    0 -0.12344770331E+03  0.28385700940E+03 -0.54667431992E+03  0.62822523771E+03  0.00000000000E+00 0.  1.
          3    1    3    3  501    0  0.12367664473E+03 -0.28455672128E+03 -0.35415137989E+03  0.47084141699E+03  0.00000000000E+00 0.  1.
         21    1    1    2  502  501 -0.22894142548E+00  0.69971187986E+00  0.24637507699E+01  0.25713962641E+01  0.00000000000E+00 0. -1.
<mgrwt>
<rscale>  1 0.62965115E+03</rscale>
<asrwt>0</asrwt>
<pdfrwt beam="1">  1        1 0.36959369E+00 0.62965115E+03</pdfrwt>
<pdfrwt beam="2">0</pdfrwt>
<totfact> 0.18303019E+00</totfact>
</mgrwt>
</event>
<event>
 6    1  0.5555421E-003  0.6536576E+03  0.7818608E-02  0.9799940E-01
          1   -1    0    0  502    0  0.00000000000E+00  0.00000000000E+00  0.11069794455E+03  0.11069794455E+03  0.00000000000E+00 0.  1.
         13   -1    0    0    0    0 -0.00000000000E+00 -0.00000000000E+00 -0.10000000000E+04  0.10000000000E+04  0.00000000000E+00 0.  1.
    9000005    2    1    2  501    0 -0.68801146342E+00 -0.68446603286E+01 -0.88946251704E+03  0.11038169212E+04  0.65362137627E+03 0.  0.
         13    1    3    3    0    0  0.22878347645E+03 -0.18210522504E+03 -0.69957947073E+03  0.75823190908E+03  0.00000000000E+00 0.  1.
          3    1    3    3  501    0 -0.22947148791E+03  0.17526056471E+03 -0.18988304631E+03  0.34558501209E+03  0.00000000000E+00 0.  1.
         21    1    1    2  502  501  0.68801146342E+00  0.68446603286E+01  0.16046158656E+00  0.68810233765E+01  0.00000000000E+00 0.  1.
<mgrwt>
<rscale>  1 0.65365758E+03</rscale>
<asrwt>0</asrwt>
<pdfrwt beam="1">  1        1 0.40253883E+00 0.65365758E+03</pdfrwt>
<pdfrwt beam="2">0</pdfrwt>
<totfact> 0.13025300E+00</totfact>
</mgrwt>
</event>
<event>
 6    1  0.5555421E-003  0.6642962E+03  0.7818608E-02  0.9780317E-01
          1   -1    0    0  502    0  0.00000000000E+00  0.00000000000E+00  0.11032284422E+03  0.11032284422E+03  0.00000000000E+00 0.  1.
         13   -1    0    0    0    0 -0.00000000000E+00 -0.00000000000E+00 -0.10000000000E+04  0.10000000000E+04  0.00000000000E+00 0.  1.
    9000005    2    1    2  501    0  0.25161991104E-03  0.10955683352E-02 -0.88967364905E+03  0.11103191617E+04  0.66429619830E+03 0.  0.
         13    1    3    3    0    0 -0.10074635295E+03 -0.41716383105E+02 -0.96922701022E+03  0.97534152049E+03  0.00000000000E+00 0.  1.
          3    1    3    3  501    0  0.10074660457E+03  0.41717478674E+02  0.79553361171E+02  0.13497764123E+03  0.00000000000E+00 0.  1.
         21    1    1    2  502  501 -0.25161991105E-03 -0.10955683352E-02 -0.35067299756E-02  0.36824906895E-02  0.00000000000E+00 0.  1.
<mgrwt>
<rscale>  1 0.66429620E+03</rscale>
<asrwt>0</asrwt>
<pdfrwt beam="1">  1        1 0.40117482E+00 0.66429620E+03</pdfrwt>
<pdfrwt beam="2">0</pdfrwt>
<totfact> 0.13182678E+00</totfact>
</mgrwt>
</event>
<event>
 6    1  0.5555421E-003  0.6336605E+03  0.7818608E-02  0.9837932E-01
          1   -1    0    0  502    0  0.00000000000E+00  0.00000000000E+00  0.10046694858E+03  0.10046694858E+03  0.00000000000E+00 0.  1.
         13   -1    0    0    0    0 -0.00000000000E+00 -0.00000000000E+00 -0.10000000000E+04  0.10000000000E+04  0.00000000000E+00 0.  1.
    9000005    2    1    2  501    0  0.64770664888E-02  0.12596921881E-01 -0.89961794358E+03  0.11003808828E+04  0.63366051060E+03 0.  0.
         13    1    3    3    0    0  0.23160073516E+03  0.15007617913E+03 -0.17954477237E+03  0.32923864499E+03  0.00000000000E+00 0.  1.
          1    1    3    3  501    0 -0.23159425809E+03 -0.15006358221E+03 -0.72007317121E+03  0.77114223784E+03  0.00000000000E+00 0.  1.
         21    1    1    2  502  501 -0.64770664888E-02 -0.12596921881E-01  0.84892158942E-01  0.86065750917E-01  0.00000000000E+00 0.  1.
<mgrwt>
<rscale>  1 0.63366051E+03</rscale>
<asrwt>0</asrwt>
<pdfrwt beam="1">  1        1 0.36533513E+00 0.63366051E+03</pdfrwt>
<pdfrwt beam="2">0</pdfrwt>
<totfact> 0.19093429E+00</totfact>
</mgrwt>
</event>
<event>
 6    1  0.5555421E-003  0.6147437E+03  0.7818608E-02  0.9875281E-01
          1   -1    0    0  502    0  0.00000000000E+00  0.00000000000E+00  0.94477460358E+02  0.94477460358E+02  0.00000000000E+00 0.  1.
         13   -1    0    0    0    0 -0.00000000000E+00 -0.00000000000E+00 -0.10000000000E+04  0.10000000000E+04  0.00000000000E+00 0.  1.
    9000005    2    1    2  501    0  0.11468488594E-05 -0.67469212581E-05 -0.90552254662E+03  0.10944774506E+04  0.61474369245E+03 0.  0.
         13    1    3    3    0    0  0.13121864714E+03  0.16998240635E+03 -0.61218889834E+02  0.22329376234E+03  0.00000000000E+00 0.  1.
          3    1    3    3  501    0 -0.13121864600E+03 -0.16998241309E+03 -0.84430365678E+03  0.87118368825E+03  0.00000000000E+00 0.  1.
         21    1    1    2  502  501 -0.11468488672E-05  0.67469212380E-05  0.69739034017E-05  0.97709537493E-05  0.00000000000E+00 0.  1.
<mgrwt>
<rscale>  1 0.61474369E+03</rscale>
<asrwt>0</asrwt>
<pdfrwt beam="1">  1        1 0.34355513E+00 0.61474369E+03</pdfrwt>
<pdfrwt beam="2">0</pdfrwt>
<totfact> 0.23846325E+00</totfact>
</mgrwt>
</event>
<event>
 6    1  0.5555421E-003  0.6556875E+03  0.7818608E-02  0.9796165E-01
          1   -1    0    0  502    0  0.00000000000E+00  0.00000000000E+00  0.10748215199E+03  0.10748215199E+03  0.00000000000E+00 0.  1.
         13   -1    0    0    0    0 -0.00000000000E+00 -0.00000000000E+00 -0.10000000000E+04  0.10000000000E+04  0.00000000000E+00 0.  1.
    9000005    2    1    2  501    0 -0.30100467981E-04 -0.81206551954E-05 -0.89251849018E+03  0.11074815091E+04  0.65568745421E+03 0.  0.
         13    1    3    3    0    0  0.10373816109E+03  0.18934714153E+03 -0.86296791966E+03  0.88956594833E+03  0.00000000000E+00 0.  1.
          3    1    3    3  501    0 -0.10373819119E+03 -0.18934714965E+03 -0.29550570522E+02  0.21791556074E+03  0.00000000000E+00 0.  1.
         21    1    1    2  502  501  0.30100467993E-04  0.81206551866E-05  0.64217065412E-03  0.64292700381E-03  0.00000000000E+00 0. -1.
<mgrwt>
<rscale>  1 0.65568745E+03</rscale>
<asrwt>0</asrwt>
<pdfrwt beam="1">  1        1 0.39084501E+00 0.65568745E+03</pdfrwt>
<pdfrwt beam="2">0</pdfrwt>
<totfact> 0.14677835E+00</totfact>
</mgrwt>
</event>
<event>
 6    1  0.5555421E-003  0.7320818E+03  0.7818608E-02  0.9663888E-01
          1   -1    0    0  502    0  0.00000000000E+00  0.00000000000E+00  0.13866706673E+03  0.13866706673E+03  0.00000000000E+00 0.  1.
         13   -1    0    0    0    0 -0.00000000000E+00 -0.00000000000E+00 -0.10000000000E+04  0.10000000000E+04  0.00000000000E+00 0.  1.
    9000005    2    1    2  501    0  0.73626650391E-01  0.26854141985E+00 -0.86600935378E+03  0.11339823635E+04  0.73208177304E+03 0.  0.
         13    1    3    3    0    0  0.13850399098E+03 -0.13637738476E+03  0.47416026691E+02  0.20007605099E+03  0.00000000000E+00 0.  1.
          1    1    3    3  501    0 -0.13843036433E+03  0.13664592618E+03 -0.91342538047E+03  0.93390631254E+03  0.00000000000E+00 0.  1.
         21    1    1    2  502  501 -0.73626650391E-01 -0.26854141985E+00  0.46764205091E+01  0.46847032089E+01  0.00000000000E+00 0.  1.
<mgrwt>
<rscale>  1 0.73208183E+03</rscale>
<asrwt>0</asrwt>
<pdfrwt beam="1">  1        1 0.50424494E+00 0.73208183E+03</pdfrwt>
<pdfrwt beam="2">0</pdfrwt>
<totfact> 0.43335418E-01</totfact>
</mgrwt>
</event>
<event>
 6    1  0.5555421E-003  0.6375334E+03  0.7818608E-02  0.9830457E-01
          1   -1    0    0  502    0  0.00000000000E+00  0.00000000000E+00  0.10317798220E+03  0.10317798220E+03  0.00000000000E+00 0.  1.
         13   -1    0    0    0    0 -0.00000000000E+00 -0.00000000000E+00 -0.10000000000E+04  0.10000000000E+04  0.00000000000E+00 0.  1.
    9000005    2    1    2  501    0 -0.34145226707E-02 -0.23147954351E-01 -0.89838769226E+03  0.11016121329E+04  0.63753340716E+03 0.  0.
         13    1    3    3    0    0 -0.16472795234E+03  0.13753282690E+03 -0.85647737496E+03  0.88295190728E+03  0.00000000000E+00 0.  1.
          3    1    3    3  501    0  0.16472453782E+03 -0.13755597486E+03 -0.41910317300E+02  0.21866022563E+03  0.00000000000E+00 0.  1.
         21    1    1    2  502  501  0.34145226707E-02  0.23147954351E-01  0.15656744538E+01  0.15658492846E+01  0.00000000000E+00 0.  1.
<mgrwt>
<rscale>  1 0.63753341E+03</rscale>
<asrwt>0</asrwt>
<pdfrwt beam="1">  1        1 0.37519345E+00 0.63753341E+03</pdfrwt>
<pdfrwt beam="2">0</pdfrwt>
<totfact> 0.17269447E+00</totfact>
</mgrwt>
</event>
<event>
 6    1  0.5555421E-003  0.6745602E+03  0.7818608E-02  0.9761755E-01
          1   -1    0    0  502    0  0.00000000000E+00  0.00000000000E+00  0.11375816711E+03  0.11375816711E+03  0.00000000000E+00 0.  1.
         13   -1    0    0    0    0 -0.00000000000E+00 -0.00000000000E+00 -0.10000000000E+04  0.10000000000E+04  0.00000000000E+00 0.  1.
    9000005    2    1    2  501    0 -0.13046739215E-03 -0.17278513023E-03 -0.88624207282E+03  0.11137578439E+04  0.67456024438E+03 0.  0.
         13    1    3    3    0    0  0.13136384913E+03 -0.11665480309E+03  0.32246113026E+02  0.17861863214E+03  0.00000000000E+00 0.  1.
          1    1    3    3  501    0 -0.13136397959E+03  0.11665463031E+03 -0.91848818584E+03  0.93513921180E+03  0.00000000000E+00 0.  1.
         21    1    1    2  502  501  0.13046739213E-03  0.17278513024E-03  0.23992497957E-03  0.32317245777E-03  0.00000000000E+00 0.  1.
<mgrwt>
<rscale>  1 0.67456024E+03</rscale>
<asrwt>0</asrwt>
<pdfrwt beam="1">  1        1 0.41366693E+00 0.67456024E+03</pdfrwt>
<pdfrwt beam="2">0</pdfrwt>
<totfact> 0.11566774E+00</totfact>
</mgrwt>
</event>
<event>
 6    1  0.5555421E-003  0.5791550E+03  0.7818608E-02  0.9949622E-01
          1   -1    0    0  502    0  0.00000000000E+00  0.00000000000E+00  0.83857804661E+02  0.83857804661E+02  0.00000000000E+00 0.  1.
         13   -1    0    0    0    0 -0.00000000000E+00 -0.00000000000E+00 -0.10000000000E+04  0.10000000000E+04  0.00000000000E+00 0.  1.
    9000005    2    1    2  501    0  0.13905729551E-03 -0.87713638214E-03 -0.91614478746E+03  0.10838550646E+04  0.57915501338E+03 0.  0.
         13    1    3    3    0    0 -0.17460114026E+03  0.12858177360E+03 -0.81725321673E+03  0.84553039622E+03  0.00000000000E+00 0.  1.
          1    1    3    3  501    0  0.17460127931E+03 -0.12858265073E+03 -0.98891570730E+02  0.23832466840E+03  0.00000000000E+00 0.  1.
         21    1    1    2  502  501 -0.13905729550E-03  0.87713638213E-03  0.25921224991E-02  0.27400372652E-02  0.00000000000E+00 0. -1.
<mgrwt>
<rscale>  1 0.57915501E+03</rscale>
<asrwt>0</asrwt>
<pdfrwt beam="1">  1        1 0.30493811E+00 0.57915501E+03</pdfrwt>
<pdfrwt beam="2">0</pdfrwt>
<totfact> 0.35262021E+00</totfact>
</mgrwt>
</event>
<event>
 6    1  0.5555421E-003  0.6452310E+03  0.7818608E-02  0.9815769E-01
          1   -1    0    0  502    0  0.00000000000E+00  0.00000000000E+00  0.10408079384E+03  0.10408079384E+03  0.00000000000E+00 0.  1.
         13   -1    0    0    0    0 -0.00000000000E+00 -0.00000000000E+00 -0.10000000000E+04  0.10000000000E+04  0.00000000000E+00 0.  1.
    9000005    2    1    2  501    0 -0.10993920654E-04  0.19056129162E-04 -0.89591924759E+03  0.11040807469E+04  0.64523096449E+03 0.  0.
         13    1    3    3    0    0 -0.24476659351E+03  0.19201100320E+03 -0.30174126581E+03  0.43338978085E+03  0.00000000000E+00 0.  1.
          1    1    3    3  501    0  0.24476658252E+03 -0.19201098415E+03 -0.59417798178E+03  0.67069096608E+03  0.00000000000E+00 0.  1.
         21    1    1    2  502  501  0.10993920652E-04 -0.19056129166E-04  0.41428438099E-04  0.46907545591E-04  0.00000000000E+00 0.  1.
<mgrwt>
<rscale>  1 0.64523096E+03</rscale>
<asrwt>0</asrwt>
<pdfrwt beam="1">  1        1 0.37847641E+00 0.64523096E+03</pdfrwt>
<pdfrwt beam="2">0</pdfrwt>
<totfact> 0.16680222E+00</totfact>
</mgrwt>
</event>
<event>
 6    1  0.5555421E-003  0.6458167E+03  0.7818608E-02  0.9814661E-01
          1   -1    0    0  502    0  0.00000000000E+00  0.00000000000E+00  0.10546797636E+03  0.10546797636E+03  0.00000000000E+00 0.  1.
         13   -1    0    0    0    0 -0.00000000000E+00 -0.00000000000E+00 -0.10000000000E+04  0.10000000000E+04  0.00000000000E+00 0.  1.
    9000005    2    1    2  501    0  0.19402618743E+00  0.12266573789E+00 -0.89571803866E+03  0.11042599512E+04  0.64581667868E+03 0.  0.
         13    1    3    3    0    0  0.61367800699E+02  0.17999253899E+03 -0.15932588954E+01  0.19017323557E+03  0.00000000000E+00 0.  1.
          1    1    3    3  501    0 -0.61173774511E+02 -0.17986987325E+03 -0.89412477976E+03  0.91408671568E+03  0.00000000000E+00 0.  1.
         21    1    1    2  502  501 -0.19402618743E+00 -0.12266573789E+00  0.11860150225E+01  0.12080251149E+01  0.00000000000E+00 0.  1.
<mgrwt>
<rscale>  1 0.64581672E+03</rscale>
<asrwt>0</asrwt>
<pdfrwt beam="1">  1        1 0.38352072E+00 0.64581672E+03</pdfrwt>
<pdfrwt beam="2">0</pdfrwt>
<totfact> 0.15844868E+00</totfact>
</mgrwt>
</event>
<event>
 6    1  0.5555421E-003  0.6009144E+03  0.7818608E-02  0.9903511E-01
          1   -1    0    0  502    0  0.00000000000E+00  0.00000000000E+00  0.90278944633E+02  0.90278944633E+02  0.00000000000E+00 0.  1.
         13   -1    0    0    0    0 -0.00000000000E+00 -0.00000000000E+00 -0.10000000000E+04  0.10000000000E+04  0.00000000000E+00 0.  1.
    9000005    2    1    2  501    0 -0.28210758212E-03  0.53579934918E-03 -0.90972543345E+03  0.10902745249E+04  0.60091444927E+03 0.  0.
         13    1    3    3    0    0  0.55049736517E+02 -0.80192761989E+02 -0.97064220259E+03  0.97550378678E+03  0.00000000000E+00 0.  1.
          3    1    3    3  501    0 -0.55050018625E+02  0.80193297788E+02  0.60916769146E+02  0.11477073810E+03  0.00000000000E+00 0.  1.
         21    1    1    2  502  501  0.28210758211E-03 -0.53579934919E-03  0.43780789736E-02  0.44197557771E-02  0.00000000000E+00 0. -1.
<mgrwt>
<rscale>  1 0.60091445E+03</rscale>
<asrwt>0</asrwt>
<pdfrwt beam="1">  1        1 0.32828776E+00 0.60091445E+03</pdfrwt>
<pdfrwt beam="2">0</pdfrwt>
<totfact> 0.27843394E+00</totfact>
</mgrwt>
</event>
<event>
 6    1  0.5555421E-003  0.6504410E+03  0.7818608E-02  0.9805952E-01
          1   -1    0    0  502    0  0.00000000000E+00  0.00000000000E+00  0.10608922888E+03  0.10608922888E+03  0.00000000000E+00 0.  1.
         13   -1    0    0    0    0 -0.00000000000E+00 -0.00000000000E+00 -0.10000000000E+04  0.10000000000E+04  0.00000000000E+00 0.  1.
    9000005    2    1    2  501    0  0.97380975073E+00 -0.31828313806E-01 -0.89281292165E+03  0.11046213760E+04  0.65044025247E+03 0.  0.
         13    1    3    3    0    0 -0.24730435480E+03 -0.41112737783E+02 -0.79674209549E+03  0.83525305617E+03  0.00000000000E+00 0.  1.
          3    1    3    3  501    0  0.24827816455E+03  0.41080909470E+02 -0.96070826156E+02  0.26936831988E+03  0.00000000000E+00 0.  1.
         21    1    1    2  502  501 -0.97380975073E+00  0.31828313806E-01 -0.10978494736E+01  0.14678528328E+01  0.00000000000E+00 0. -1.
<mgrwt>
<rscale>  1 0.65044098E+03</rscale>
<asrwt>0</asrwt>
<pdfrwt beam="1">  1        1 0.38577983E+00 0.65044098E+03</pdfrwt>
<pdfrwt beam="2">0</pdfrwt>
<totfact> 0.15471302E+00</totfact>
</mgrwt>
</event>
<event>
 6    1  0.5555421E-003  0.6455465E+03  0.7818608E-02  0.9815172E-01
          1   -1    0    0  502    0  0.00000000000E+00  0.00000000000E+00  0.10644150937E+03  0.10644150937E+03  0.00000000000E+00 0.  1.
         13   -1    0    0    0    0 -0.00000000000E+00 -0.00000000000E+00 -0.10000000000E+04  0.10000000000E+04  0.00000000000E+00 0.  1.
    9000005    2    1    2  501    0 -0.73030974104E+00  0.11903419660E+01 -0.89557666552E+03  0.11039872689E+04  0.64554502231E+03 0.  0.
         13    1    3    3    0    0  0.12520878449E+03 -0.18098174965E+03 -0.44445731906E+02  0.22451515874E+03  0.00000000000E+00 0.  1.
          3    1    3    3  501    0 -0.12593909423E+03  0.18217209161E+03 -0.85113093362E+03  0.87947211018E+03  0.00000000000E+00 0.  1.
         21    1    1    2  502  501  0.73030974104E+00 -0.11903419660E+01  0.20181748944E+01  0.24542404565E+01  0.00000000000E+00 0.  1.
<mgrwt>
<rscale>  1 0.64554653E+03</rscale>
<asrwt>0</asrwt>
<pdfrwt beam="1">  1        1 0.38706085E+00 0.64554653E+03</pdfrwt>
<pdfrwt beam="2">0</pdfrwt>
<totfact> 0.15284532E+00</totfact>
</mgrwt>
</event>
<event>
 6    1  0.5555421E-003  0.6449594E+03  0.7818608E-02  0.9816284E-01
          3   -1    0    0  502    0  0.00000000000E+00  0.00000000000E+00  0.10399861590E+03  0.10399861590E+03  0.00000000000E+00 0.  1.
         13   -1    0    0    0    0 -0.00000000000E+00 -0.00000000000E+00 -0.10000000000E+04  0.10000000000E+04  0.00000000000E+00 0.  1.
    9000005    2    1    2  501    0  0.34444733529E-02  0.52340772237E-03 -0.89600623070E+03  0.11039926470E+04  0.64495937790E+03 0.  0.
         13    1    3    3    0    0 -0.12757223640E+03 -0.10021718785E+03 -0.92506210168E+03  0.93917945687E+03  0.00000000000E+00 0.  1.
          3    1    3    3  501    0  0.12757568088E+03  0.10021771126E+03  0.29055870978E+02  0.16481319012E+03  0.00000000000E+00 0.  1.
         21    1    1    2  502  501 -0.34444733529E-02 -0.52340772237E-03  0.48465950193E-02  0.59689057292E-02  0.00000000000E+00 0. -1.
<mgrwt>
<rscale>  1 0.64495938E+03</rscale>
<asrwt>0</asrwt>
<pdfrwt beam="1">  1        3 0.37817758E+00 0.64495938E+03</pdfrwt>
<pdfrwt beam="2">0</pdfrwt>
<totfact> 0.77235719E-02</totfact>
</mgrwt>
</event>
<event>
 6    1  0.5555421E-003  0.6372663E+03  0.7818608E-02  0.9830971E-01
          1   -1    0    0  502    0  0.00000000000E+00  0.00000000000E+00  0.10643540080E+03  0.10643540080E+03  0.00000000000E+00 0.  1.
         13   -1    0    0    0    0 -0.00000000000E+00 -0.00000000000E+00 -0.10000000000E+04  0.10000000000E+04  0.00000000000E+00 0.  1.
    9000005    2    1    2  501    0  0.74260251783E+00  0.18607245988E+00 -0.89844000471E+03  0.11015002554E+04  0.63726586636E+03 0.  0.
         13    1    3    3    0    0 -0.21537415745E+03  0.21167302046E+03 -0.27425851632E+03  0.40793287323E+03  0.00000000000E+00 0.  1.
          3    1    3    3  501    0  0.21611675997E+03 -0.21148694800E+03 -0.62418148839E+03  0.69356738214E+03  0.00000000000E+00 0.  1.
         21    1    1    2  502  501 -0.74260251783E+00 -0.18607245988E+00  0.48754055184E+01  0.49351454313E+01  0.00000000000E+00 0. -1.
<mgrwt>
<rscale>  1 0.63726633E+03</rscale>
<asrwt>0</asrwt>
<pdfrwt beam="1">  1        1 0.38703864E+00 0.63726633E+03</pdfrwt>
<pdfrwt beam="2">0</pdfrwt>
<totfact> 0.15311771E+00</totfact>
</mgrwt>
</event>
<event>
 6    1  0.5555421E-003  0.6560993E+03  0.7818608E-02  0.9795401E-01
          1   -1    0    0  502    0  0.00000000000E+00  0.00000000000E+00  0.10761663551E+03  0.10761663551E+03  0.00000000000E+00 0.  1.
         13   -1    0    0    0    0 -0.00000000000E+00 -0.00000000000E+00 -0.10000000000E+04  0.10000000000E+04  0.00000000000E+00 0.  1.
    9000005    2    1    2  501    0 -0.74375707591E-04 -0.90603697871E-04 -0.89238330781E+03  0.11076165053E+04  0.65609934823E+03 0.  0.
         13    1    3    3    0    0 -0.43760090074E+02 -0.10815500249E+03  0.71407201292E+02  0.13678976001E+03  0.00000000000E+00 0.  1.
          3    1    3    3  501    0  0.43760015699E+02  0.10815491188E+03 -0.96379050910E+03  0.97082674529E+03  0.00000000000E+00 0.  1.
         21    1    1    2  502  501  0.74375707590E-04  0.90603697874E-04 -0.56682048061E-04  0.13020610785E-03  0.00000000000E+00 0. -1.
<mgrwt>
<rscale>  1 0.65609935E+03</rscale>
<asrwt>0</asrwt>
<pdfrwt beam="1">  1        1 0.39133405E+00 0.65609935E+03</pdfrwt>
<pdfrwt beam="2">0</pdfrwt>
<totfact> 0.14603561E+00</totfact>
</mgrwt>
</event>
<event>
 6    1  0.5555421E-003  0.6498092E+03  0.7818608E-02  0.9807137E-01
          1   -1    0    0  502    0  0.00000000000E+00  0.00000000000E+00  0.10556379875E+03  0.10556379875E+03  0.00000000000E+00 0.  1.
         13   -1    0    0    0    0 -0.00000000000E+00 -0.00000000000E+00 -0.10000000000E+04  0.10000000000E+04  0.00000000000E+00 0.  1.
    9000005    2    1    2  501    0 -0.89983169204E-04  0.11250551287E-02 -0.89443651995E+03  0.11055626260E+04  0.64980922717E+03 0.  0.
         13    1    3    3    0    0  0.11706303726E+03  0.29728736805E+03 -0.34685574858E+03  0.47158503392E+03  0.00000000000E+00 0.  1.
          3    1    3    3  501    0 -0.11706312725E+03 -0.29728624300E+03 -0.54758077138E+03  0.63397759205E+03  0.00000000000E+00 0.  1.
         21    1    1    2  502  501  0.89983169206E-04 -0.11250551288E-02  0.31870388900E-03  0.11727822400E-02  0.00000000000E+00 0.  1.
<mgrwt>
<rscale>  1 0.64980923E+03</rscale>
<asrwt>0</asrwt>
<pdfrwt beam="1">  1        1 0.38386917E+00 0.64980923E+03</pdfrwt>
<pdfrwt beam="2">0</pdfrwt>
<totfact> 0.15777131E+00</totfact>
</mgrwt>
</event>
<event>
 6    1  0.5555421E-003  0.6620447E+03  0.7818608E-02  0.9784437E-01
          1   -1    0    0  502    0  0.00000000000E+00  0.00000000000E+00  0.11064864518E+03  0.11064864518E+03  0.00000000000E+00 0.  1.
         13   -1    0    0    0    0 -0.00000000000E+00 -0.00000000000E+00 -0.10000000000E+04  0.10000000000E+04  0.00000000000E+00 0.  1.
    9000005    2    1    2  501    0 -0.24137736024E+00 -0.31158366664E+00 -0.89038388668E+03  0.11095434441E+04  0.66204458560E+03 0.  0.
         13    1    3    3    0    0 -0.10070368645E+03  0.30839319630E+03 -0.55438513944E+03  0.64233206274E+03  0.00000000000E+00 0.  1.
          1    1    3    3  501    0  0.10046230909E+03 -0.30870477997E+03 -0.33599874724E+03  0.46721138135E+03  0.00000000000E+00 0.  1.
         21    1    1    2  502  501  0.24137736024E+00  0.31158366664E+00  0.10325318536E+01  0.11052010858E+01  0.00000000000E+00 0. -1.
<mgrwt>
<rscale>  1 0.66204470E+03</rscale>
<asrwt>0</asrwt>
<pdfrwt beam="1">  1        1 0.40235956E+00 0.66204470E+03</pdfrwt>
<pdfrwt beam="2">0</pdfrwt>
<totfact> 0.13028633E+00</totfact>
</mgrwt>
</event>
<event>
 6    1  0.5555421E-003  0.6686863E+03  0.7818608E-02  0.9772334E-01
          1   -1    0    0  502    0  0.00000000000E+00  0.00000000000E+00  0.11178557012E+03  0.11178557012E+03  0.00000000000E+00 0.  1.
         13   -1    0    0    0    0 -0.00000000000E+00 -0.00000000000E+00 -0.10000000000E+04  0.10000000000E+04  0.00000000000E+00 0.  1.
    9000005    2    1    2  501    0 -0.20992331599E-04  0.13206898288E-04 -0.88821465047E+03  0.11117853481E+04  0.66868632035E+03 0.  0.
         13    1    3    3    0    0  0.28845162367E+03 -0.88201608852E+02 -0.20430928137E+03  0.36431599671E+03  0.00000000000E+00 0.  1.
          1    1    3    3  501    0 -0.28845164466E+03  0.88201622059E+02 -0.68390536910E+03  0.74746935143E+03  0.00000000000E+00 0.  1.
         21    1    1    2  502  501  0.20992331587E-04 -0.13206898287E-04  0.22059033582E-03  0.22198017120E-03  0.00000000000E+00 0.  1.
<mgrwt>
<rscale>  1 0.66868632E+03</rscale>
<asrwt>0</asrwt>
<pdfrwt beam="1">  1        1 0.40649384E+00 0.66868632E+03</pdfrwt>
<pdfrwt beam="2">0</pdfrwt>
<totfact> 0.12470201E+00</totfact>
</mgrwt>
</event>
<event>
 6    1  0.5555421E-003  0.6402293E+03  0.7818608E-02  0.9825288E-01
          1   -1    0    0  502    0  0.00000000000E+00  0.00000000000E+00  0.10247446133E+03  0.10247446133E+03  0.00000000000E+00 0.  1.
         13   -1    0    0    0    0 -0.00000000000E+00 -0.00000000000E+00 -0.10000000000E+04  0.10000000000E+04  0.00000000000E+00 0.  1.
    9000005    2    1    2  501    0  0.48397124010E-03 -0.96521315339E-03 -0.89752630454E+03  0.11024731375E+04  0.64022929617E+03 0.  0.
         13    1    3    3    0    0  0.17935373869E+03  0.26087971233E+03 -0.36713148943E+03  0.48477986594E+03  0.00000000000E+00 0.  1.
          3    1    3    3  501    0 -0.17935325472E+03 -0.26088067754E+03 -0.53039481510E+03  0.61769327160E+03  0.00000000000E+00 0.  1.
         21    1    1    2  502  501 -0.48397124009E-03  0.96521315339E-03  0.76586676679E-03  0.13237886905E-02  0.00000000000E+00 0. -1.
<mgrwt>
<rscale>  1 0.64022930E+03</rscale>
<asrwt>0</asrwt>
<pdfrwt beam="1">  1        1 0.37263519E+00 0.64022930E+03</pdfrwt>
<pdfrwt beam="2">0</pdfrwt>
<totfact> 0.17714062E+00</totfact>
</mgrwt>
</event>
<event>
 6    1  0.5555421E-003  0.6391190E+03  0.7818608E-02  0.9827414E-01
          1   -1    0    0  502    0  0.00000000000E+00  0.00000000000E+00  0.10211826643E+03  0.10211826643E+03  0.00000000000E+00 0.  1.
         13   -1    0    0    0    0 -0.00000000000E+00 -0.00000000000E+00 -0.10000000000E+04  0.10000000000E+04  0.00000000000E+00 0.  1.
    9000005    2    1    2  501    0 -0.19642197202E-05 -0.36142580768E-05 -0.89788173779E+03  0.11021182605E+04  0.63911896009E+03 0.  0.
         13    1    3    3    0    0  0.47044477352E+02 -0.24662853086E+03 -0.78983592560E+03  0.82878200056E+03  0.00000000000E+00 0.  1.
          3    1    3    3  501    0 -0.47044479316E+02  0.24662852725E+03 -0.10804581219E+03  0.27333625998E+03  0.00000000000E+00 0.  1.
         21    1    1    2  502  501  0.19642197224E-05  0.36142580665E-05  0.42236906614E-05  0.58958106561E-05  0.00000000000E+00 0. -1.
<mgrwt>
<rscale>  1 0.63911896E+03</rscale>
<asrwt>0</asrwt>
<pdfrwt beam="1">  1        1 0.37133993E+00 0.63911896E+03</pdfrwt>
<pdfrwt beam="2">0</pdfrwt>
<totfact> 0.17951460E+00</totfact>
</mgrwt>
</event>
<event>
 6    1  0.5555421E-003  0.6448999E+03  0.7818608E-02  0.9816397E-01
          1   -1    0    0  502    0  0.00000000000E+00  0.00000000000E+00  0.10412854417E+03  0.10412854417E+03  0.00000000000E+00 0.  1.
         13   -1    0    0    0    0 -0.00000000000E+00 -0.00000000000E+00 -0.10000000000E+04  0.10000000000E+04  0.00000000000E+00 0.  1.
    9000005    2    1    2  501    0 -0.13271526966E+00 -0.12080863414E-01 -0.89599368701E+03  0.11039477134E+04  0.64489987524E+03 0.  0.
         13    1    3    3    0    0 -0.11311175114E+03  0.28673666982E+03 -0.61017760896E+03  0.68361458480E+03  0.00000000000E+00 0.  1.
          1    1    3    3  501    0  0.11297903587E+03 -0.28674875068E+03 -0.28581607805E+03  0.42033312865E+03  0.00000000000E+00 0.  1.
         21    1    1    2  502  501  0.13271526966E+00  0.12080863414E-01  0.12223118470E+00  0.18083072907E+00  0.00000000000E+00 0. -1.
<mgrwt>
<rscale>  1 0.64489989E+03</rscale>
<asrwt>0</asrwt>
<pdfrwt beam="1">  1        1 0.37865005E+00 0.64489989E+03</pdfrwt>
<pdfrwt beam="2">0</pdfrwt>
<totfact> 0.16651856E+00</totfact>
</mgrwt>
</event>
<event>
 6    1  0.8664991E-003  0.5220537E+03  0.7818608E-02  0.1008178E+00
          1   -1    0    0  502    0  0.00000000000E+00  0.00000000000E+00  0.68135011249E+02  0.68135011249E+02  0.00000000000E+00 0.  1.
         13   -1    0    0    0    0 -0.00000000000E+00 -0.00000000000E+00 -0.10000000000E+04  0.10000000000E+04  0.00000000000E+00 0.  1.
    9000005    2    1    2  501    0 -0.32992705172E-05  0.17459446440E-05 -0.93186497053E+03  0.10681349926E+04  0.52205367465E+03 0.  0.
         13    1    3    3    0    0  0.96109830696E+02  0.15770066425E+03 -0.84335848903E+03  0.86334242342E+03  0.00000000000E+00 0.  1.
          1    1    3    3  501    0 -0.96109833995E+02 -0.15770066250E+03 -0.88506481502E+02  0.20479256923E+03  0.00000000000E+00 0.  1.
         21    1    1    2  502  501  0.32992705119E-05 -0.17459446437E-05 -0.18223618232E-04  0.18601982961E-04  0.00000000000E+00 0. -1.
<mgrwt>
<rscale>  1 0.52205367E+03</rscale>
<asrwt>0</asrwt>
<pdfrwt beam="1">  1        1 0.24776420E+00 0.52205367E+03</pdfrwt>
<pdfrwt beam="2">0</pdfrwt>
<totfact> 0.62925158E+00</totfact>
</mgrwt>
</event>
<event>
 6    1  0.5555421E-003  0.6467581E+03  0.7818608E-02  0.9812882E-01
          1   -1    0    0  502    0  0.00000000000E+00  0.00000000000E+00  0.10457400623E+03  0.10457400623E+03  0.00000000000E+00 0.  1.
         13   -1    0    0    0    0 -0.00000000000E+00 -0.00000000000E+00 -0.10000000000E+04  0.10000000000E+04  0.00000000000E+00 0.  1.
    9000005    2    1    2  501    0  0.15543904397E-04 -0.72314138038E-05 -0.89542595047E+03  0.11045739596E+04  0.64675806880E+03 0.  0.
         13    1    3    3    0    0  0.16372520800E+03  0.13358446383E+03 -0.86578453412E+03  0.89119785246E+03  0.00000000000E+00 0.  1.
          3    1    3    3  501    0 -0.16372519246E+03 -0.13358447106E+03 -0.29641416346E+02  0.21337610719E+03  0.00000000000E+00 0.  1.
         21    1    1    2  502  501 -0.15543904390E-04  0.72314138053E-05 -0.43305788757E-04  0.46575719524E-04  0.00000000000E+00 0.  1.
<mgrwt>
<rscale>  1 0.64675807E+03</rscale>
<asrwt>0</asrwt>
<pdfrwt beam="1">  1        1 0.38026992E+00 0.64675807E+03</pdfrwt>
<pdfrwt beam="2">0</pdfrwt>
<totfact> 0.16374537E+00</totfact>
</mgrwt>
</event>
<event>
 6    1  0.5555421E-003  0.6294149E+03  0.7818608E-02  0.9846191E-01
          1   -1    0    0  502    0  0.00000000000E+00  0.00000000000E+00  0.99048040935E+02  0.99048040935E+02  0.00000000000E+00 0.  1.
         13   -1    0    0    0    0 -0.00000000000E+00 -0.00000000000E+00 -0.10000000000E+04  0.10000000000E+04  0.00000000000E+00 0.  1.
    9000005    2    1    2  501    0  0.81413842403E-03 -0.87444221087E-02 -0.90095618580E+03  0.10990382945E+04  0.62941490605E+03 0.  0.
         13    1    3    3    0    0  0.24897297046E+03  0.20168459559E+01 -0.78657668278E+03  0.82504211140E+03  0.00000000000E+00 0.  1.
          3    1    3    3  501    0 -0.24897215632E+03 -0.20255903780E+01 -0.11437950303E+03  0.27399618310E+03  0.00000000000E+00 0.  1.
         21    1    1    2  502  501 -0.81413842403E-03  0.87444221087E-02  0.42267394815E-02  0.97464386334E-02  0.00000000000E+00 0. -1.
<mgrwt>
<rscale>  1 0.62941491E+03</rscale>
<asrwt>0</asrwt>
<pdfrwt beam="1">  1        1 0.36017545E+00 0.62941491E+03</pdfrwt>
<pdfrwt beam="2">0</pdfrwt>
<totfact> 0.20128351E+00</totfact>
</mgrwt>
</event>
<event>
 6    1  0.5555421E-003  0.6529037E+03  0.7818608E-02  0.9801346E-01
          1   -1    0    0  502    0  0.00000000000E+00  0.00000000000E+00  0.10657082779E+03  0.10657082779E+03  0.00000000000E+00 0.  1.
         13   -1    0    0    0    0 -0.00000000000E+00 -0.00000000000E+00 -0.10000000000E+04  0.10000000000E+04  0.00000000000E+00 0.  1.
    9000005    2    1    2  501    0 -0.33543369682E-06 -0.22897159937E-05 -0.89342917784E+03  0.11065708217E+04  0.65290373533E+03 0.  0.
         13    1    3    3    0    0 -0.29158730687E+03  0.32424995771E+02 -0.68935751067E+03  0.74919177478E+03  0.00000000000E+00 0.  1.
          3    1    3    3  501    0  0.29158730654E+03 -0.32424998060E+02 -0.20407166717E+03  0.35737904692E+03  0.00000000000E+00 0.  1.
         21    1    1    2  502  501  0.33543369149E-06  0.22897159936E-05  0.56317075936E-05  0.60886324830E-05  0.00000000000E+00 0.  1.
<mgrwt>
<rscale>  1 0.65290374E+03</rscale>
<asrwt>0</asrwt>
<pdfrwt beam="1">  1        1 0.38753110E+00 0.65290374E+03</pdfrwt>
<pdfrwt beam="2">0</pdfrwt>
<totfact> 0.15190645E+00</totfact>
</mgrwt>
</event>
<event>
 6    1  0.5555421E-003  0.6305529E+03  0.7818608E-02  0.9843970E-01
          1   -1    0    0  502    0  0.00000000000E+00  0.00000000000E+00  0.99402924830E+02  0.99402924830E+02  0.00000000000E+00 0.  1.
         13   -1    0    0    0    0 -0.00000000000E+00 -0.00000000000E+00 -0.10000000000E+04  0.10000000000E+04  0.00000000000E+00 0.  1.
    9000005    2    1    2  501    0  0.18214869003E-02  0.10693790378E-02 -0.90060040760E+03  0.10993989794E+04  0.63055294918E+03 0.  0.
         13    1    3    3    0    0 -0.59918903824E+02  0.78402539573E+02  0.71780953685E+02  0.12202351642E+03  0.00000000000E+00 0.  1.
          3    1    3    3  501    0  0.59920725311E+02 -0.78401470194E+02 -0.97238136129E+03  0.97737546297E+03  0.00000000000E+00 0.  1.
         21    1    1    2  502  501 -0.18214869003E-02 -0.10693790378E-02  0.33324305132E-02  0.39454377678E-02  0.00000000000E+00 0.  1.
<mgrwt>
<rscale>  1 0.63055295E+03</rscale>
<asrwt>0</asrwt>
<pdfrwt beam="1">  1        1 0.36146594E+00 0.63055295E+03</pdfrwt>
<pdfrwt beam="2">0</pdfrwt>
<totfact> 0.19864297E+00</totfact>
</mgrwt>
</event>
<event>
 6    1  0.5555421E-003  0.6590650E+03  0.7818608E-02  0.9789916E-01
          1   -1    0    0  502    0  0.00000000000E+00  0.00000000000E+00  0.10945525605E+03  0.10945525605E+03  0.00000000000E+00 0.  1.
         13   -1    0    0    0    0 -0.00000000000E+00 -0.00000000000E+00 -0.10000000000E+04  0.10000000000E+04  0.00000000000E+00 0.  1.
    9000005    2    1    2  501    0 -0.20220715121E+00 -0.35359424316E+00 -0.89135475442E+03  0.11085485954E+04  0.65906488616E+03 0.  0.
         13    1    3    3    0    0 -0.20413896797E+03 -0.23582413197E+01 -0.88099417155E+03  0.90433899056E+03  0.00000000000E+00 0.  1.
          3    1    3    3  501    0  0.20393676081E+03  0.20046470765E+01 -0.10360582867E+02  0.20420960481E+03  0.00000000000E+00 0.  1.
         21    1    1    2  502  501  0.20220715121E+00  0.35359424316E+00  0.81001046444E+00  0.90666067153E+00  0.00000000000E+00 0.  1.
<mgrwt>
<rscale>  1 0.65906501E+03</rscale>
<asrwt>0</asrwt>
<pdfrwt beam="1">  1        1 0.39801995E+00 0.65906501E+03</pdfrwt>
<pdfrwt beam="2">0</pdfrwt>
<totfact> 0.13629938E+00</totfact>
</mgrwt>
</event>
<event>
 6    1  0.5555421E-003  0.5688022E+03  0.7818608E-02  0.9972333E-01
          1   -1    0    0  502    0  0.00000000000E+00  0.00000000000E+00  0.80884149649E+02  0.80884149649E+02  0.00000000000E+00 0.  1.
         13   -1    0    0    0    0 -0.00000000000E+00 -0.00000000000E+00 -0.10000000000E+04  0.10000000000E+04  0.00000000000E+00 0.  1.
    9000005    2    1    2  501    0 -0.98963335518E-04  0.77101432908E-04 -0.91911598991E+03  0.10808839620E+04  0.56880219444E+03 0.  0.
         13    1    3    3    0    0  0.49901841580E+02  0.60040477555E+02  0.60122567626E+02  0.98538195011E+02  0.00000000000E+00 0.  1.
          3    1    3    3  501    0 -0.49901940543E+02 -0.60040400454E+02 -0.97923855753E+03  0.98234576698E+03  0.00000000000E+00 0.  1.
         21    1    1    2  502  501  0.98963335517E-04 -0.77101432902E-04  0.13955418776E-03  0.18765325484E-03  0.00000000000E+00 0. -1.
<mgrwt>
<rscale>  1 0.56880219E+03</rscale>
<asrwt>0</asrwt>
<pdfrwt beam="1">  1        1 0.29412480E+00 0.56880219E+03</pdfrwt>
<pdfrwt beam="2">0</pdfrwt>
<totfact> 0.39331992E+00</totfact>
</mgrwt>
</event>
<event>
 6    1  0.5555421E-003  0.6330658E+03  0.7818608E-02  0.9839084E-01
          1   -1    0    0  502    0  0.00000000000E+00  0.00000000000E+00  0.10398193359E+03  0.10398193359E+03  0.00000000000E+00 0.  1.
         13   -1    0    0    0    0 -0.00000000000E+00 -0.00000000000E+00 -0.10000000000E+04  0.10000000000E+04  0.00000000000E+00 0.  1.
    9000005    2    1    2  501    0  0.10313381278E+01  0.18690965055E+00 -0.89972701306E+03  0.11001277308E+04  0.63306494734E+03 0.  0.
         13    1    3    3    0    0 -0.27221032944E+03 -0.61327687683E+02 -0.70720041721E+03  0.76025783708E+03  0.00000000000E+00 0.  1.
          1    1    3    3  501    0  0.27324166757E+03  0.61514597334E+02 -0.19252659585E+03  0.33986989377E+03  0.00000000000E+00 0.  1.
         21    1    1    2  502  501 -0.10313381278E+01 -0.18690965055E+00  0.37089466481E+01  0.38542027437E+01  0.00000000000E+00 0. -1.
<mgrwt>
<rscale>  1 0.63306582E+03</rscale>
<asrwt>0</asrwt>
<pdfrwt beam="1">  1        1 0.37811692E+00 0.63306582E+03</pdfrwt>
<pdfrwt beam="2">0</pdfrwt>
<totfact> 0.16778905E+00</totfact>
</mgrwt>
</event>
<event>
 6    1  0.5555421E-003  0.6515370E+03  0.7818608E-02  0.9803899E-01
          1   -1    0    0  502    0  0.00000000000E+00  0.00000000000E+00  0.10755260860E+03  0.10755260860E+03  0.00000000000E+00 0.  1.
         13   -1    0    0    0    0 -0.00000000000E+00 -0.00000000000E+00 -0.10000000000E+04  0.10000000000E+04  0.00000000000E+00 0.  1.
    9000005    2    1    2  501    0 -0.81471814601E+00 -0.33046542948E+01 -0.89111832139E+03  0.11038987158E+04  0.65152814788E+03 0.  0.
         13    1    3    3    0    0 -0.13115196612E+03  0.23693162262E+03 -0.14053650238E+03  0.30510316372E+03  0.00000000000E+00 0.  1.
          3    1    3    3  501    0  0.13033724798E+03 -0.24023627691E+03 -0.75058181901E+03  0.79879555206E+03  0.00000000000E+00 0.  1.
         21    1    1    2  502  501  0.81471814601E+00  0.33046542948E+01 -0.13290700086E+01  0.36538928218E+01  0.00000000000E+00 0. -1.
<mgrwt>
<rscale>  1 0.65153704E+03</rscale>
<asrwt>0</asrwt>
<pdfrwt beam="1">  1        1 0.39110122E+00 0.65153704E+03</pdfrwt>
<pdfrwt beam="2">0</pdfrwt>
<totfact> 0.14650776E+00</totfact>
</mgrwt>
</event>
<event>
 6    1  0.5555421E-003  0.6428333E+03  0.7818608E-02  0.9820321E-01
          1   -1    0    0  502    0  0.00000000000E+00  0.00000000000E+00  0.10331224324E+03  0.10331224324E+03  0.00000000000E+00 0.  1.
         13   -1    0    0    0    0 -0.00000000000E+00 -0.00000000000E+00 -0.10000000000E+04  0.10000000000E+04  0.00000000000E+00 0.  1.
    9000005    2    1    2  501    0  0.10003862423E-03  0.14784356043E-03 -0.89669134678E+03  0.11033086488E+04  0.64283326228E+03 0.  0.
         13    1    3    3    0    0 -0.30084031226E+03  0.11253177798E+03 -0.42801300655E+03  0.53512935661E+03  0.00000000000E+00 0.  1.
          1    1    3    3  501    0  0.30084041230E+03 -0.11253163014E+03 -0.46867834023E+03  0.56817929217E+03  0.00000000000E+00 0.  1.
         21    1    1    2  502  501 -0.10003862423E-03 -0.14784356043E-03  0.35900183267E-02  0.35944536484E-02  0.00000000000E+00 0. -1.
<mgrwt>
<rscale>  1 0.64283326E+03</rscale>
<asrwt>0</asrwt>
<pdfrwt beam="1">  1        1 0.37568168E+00 0.64283326E+03</pdfrwt>
<pdfrwt beam="2">0</pdfrwt>
<totfact> 0.17167478E+00</totfact>
</mgrwt>
</event>
<event>
 6    1  0.5555421E-003  0.6515714E+03  0.7818608E-02  0.9803835E-01
          1   -1    0    0  502    0  0.00000000000E+00  0.00000000000E+00  0.10840087194E+03  0.10840087194E+03  0.00000000000E+00 0.  1.
         13   -1    0    0    0    0 -0.00000000000E+00 -0.00000000000E+00 -0.10000000000E+04  0.10000000000E+04  0.00000000000E+00 0.  1.
    9000005    2    1    2  501    0 -0.62584294761E+00  0.35590919362E+00 -0.89380019200E+03  0.11060850496E+04  0.65157105162E+03 0.  0.
         13    1    3    3    0    0 -0.29214301750E+02  0.11986400247E+03  0.64996144309E+02  0.13944659655E+03  0.00000000000E+00 0.  1.
          3    1    3    3  501    0  0.28588458803E+02 -0.11950809327E+03 -0.95879633631E+03  0.96663845302E+03  0.00000000000E+00 0.  1.
         21    1    1    2  502  501  0.62584294761E+00 -0.35590919362E+00  0.22010639402E+01  0.23158223632E+01  0.00000000000E+00 0. -1.
<mgrwt>
<rscale>  1 0.65157145E+03</rscale>
<asrwt>0</asrwt>
<pdfrwt beam="1">  1        1 0.39418582E+00 0.65157145E+03</pdfrwt>
<pdfrwt beam="2">0</pdfrwt>
<totfact> 0.14195854E+00</totfact>
</mgrwt>
</event>
<event>
 6    1  0.5555421E-003  0.6488616E+03  0.7818608E-02  0.9808918E-01
          1   -1    0    0  502    0  0.00000000000E+00  0.00000000000E+00  0.10533116049E+03  0.10533116049E+03  0.00000000000E+00 0.  1.
         13   -1    0    0    0    0 -0.00000000000E+00 -0.00000000000E+00 -0.10000000000E+04  0.10000000000E+04  0.00000000000E+00 0.  1.
    9000005    2    1    2  501    0 -0.11690651419E+00 -0.25308931375E-01 -0.89468853684E+03  0.11052099348E+04  0.64886162455E+03 0.  0.
         13    1    3    3    0    0  0.18779113261E+03  0.24335529064E+03 -0.62380430612E+03  0.69542729261E+03  0.00000000000E+00 0.  1.
          1    1    3    3  501    0 -0.18790803913E+03 -0.24338059958E+03 -0.27088423071E+03  0.40978264222E+03  0.00000000000E+00 0.  1.
         21    1    1    2  502  501  0.11690651419E+00  0.25308931375E-01  0.19697327439E-01  0.12122565642E+00  0.00000000000E+00 0.  1.
<mgrwt>
<rscale>  1 0.64886164E+03</rscale>
<asrwt>0</asrwt>
<pdfrwt beam="1">  1        1 0.38302321E+00 0.64886164E+03</pdfrwt>
<pdfrwt beam="2">0</pdfrwt>
<totfact> 0.15916326E+00</totfact>
</mgrwt>
</event>
<event>
 6    1  0.5555421E-003  0.6444886E+03  0.7818608E-02  0.9817176E-01
          1   -1    0    0  502    0  0.00000000000E+00  0.00000000000E+00  0.10723354088E+03  0.10723354088E+03  0.00000000000E+00 0.  1.
         13   -1    0    0    0    0 -0.00000000000E+00 -0.00000000000E+00 -0.10000000000E+04  0.10000000000E+04  0.00000000000E+00 0.  1.
    9000005    2    1    2  501    0 -0.10112058608E+00  0.26090560131E-01 -0.89615770824E+03  0.11038406842E+04  0.64448863998E+03 0.  0.
         13    1    3    3    0    0  0.21568270145E+03  0.22346998279E+03 -0.30103231330E+03  0.43252550741E+03  0.00000000000E+00 0.  1.
          1    1    3    3  501    0 -0.21578382204E+03 -0.22344389223E+03 -0.59512539494E+03  0.67131517675E+03  0.00000000000E+00 0.  1.
         21    1    1    2  502  501  0.10112058608E+00 -0.26090560131E-01  0.33912491195E+01  0.33928567138E+01  0.00000000000E+00 0. -1.
<mgrwt>
<rscale>  1 0.64448865E+03</rscale>
<asrwt>0</asrwt>
<pdfrwt beam="1">  1        1 0.38994097E+00 0.64448865E+03</pdfrwt>
<pdfrwt beam="2">0</pdfrwt>
<totfact> 0.14844977E+00</totfact>
</mgrwt>
</event>
<event>
 6    1  0.6572163E-003  0.5409698E+03  0.7818608E-02  0.1003606E+00
          1   -1    0    0  502    0  0.00000000000E+00  0.00000000000E+00  0.73162091058E+02  0.73162091058E+02  0.00000000000E+00 0.  1.
         13   -1    0    0    0    0 -0.00000000000E+00 -0.00000000000E+00 -0.10000000000E+04  0.10000000000E+04  0.00000000000E+00 0.  1.
    9000005    2    1    2  501    0 -0.28327738733E-06  0.20093996795E-05 -0.92683791411E+03  0.10731620855E+04  0.54096981685E+03 0.  0.
         13    1    3    3    0    0  0.19182525540E+03 -0.16041341252E+03 -0.25886214722E+03  0.35991527168E+03  0.00000000000E+00 0.  1.
          1    1    3    3  501    0 -0.19182525569E+03  0.16041341453E+03 -0.66797576689E+03  0.71324681382E+03  0.00000000000E+00 0.  1.
         21    1    1    2  502  501  0.28327738660E-06 -0.20093996769E-05  0.51668027977E-05  0.55510165096E-05  0.00000000000E+00 0.  1.
<mgrwt>
<rscale>  1 0.54096982E+03</rscale>
<asrwt>0</asrwt>
<pdfrwt beam="1">  1        1 0.26604453E+00 0.54096982E+03</pdfrwt>
<pdfrwt beam="2">0</pdfrwt>
<totfact> 0.52250237E+00</totfact>
</mgrwt>
</event>
<event>
 6    1  0.5555421E-003  0.6528466E+03  0.7818608E-02  0.9801452E-01
          3   -1    0    0  502    0  0.00000000000E+00  0.00000000000E+00  0.10656549870E+03  0.10656549870E+03  0.00000000000E+00 0.  1.
         13   -1    0    0    0    0 -0.00000000000E+00 -0.00000000000E+00 -0.10000000000E+04  0.10000000000E+04  0.00000000000E+00 0.  1.
    9000005    2    1    2  501    0 -0.18612190175E-02  0.12254161027E-03 -0.89344774442E+03  0.11065521249E+04  0.65284663824E+03 0.  0.
         13    1    3    3    0    0  0.16774769871E+03  0.24938365443E+03 -0.23085365580E+03  0.37897876974E+03  0.00000000000E+00 0.  1.
          1    1    3    3  501    0 -0.16774955992E+03 -0.24938353189E+03 -0.66259408862E+03  0.72757335514E+03  0.00000000000E+00 0.  1.
         21    1    1    2  502  501  0.18612190175E-02 -0.12254161027E-03  0.13243111616E-01  0.13373823610E-01  0.00000000000E+00 0. -1.
<mgrwt>
<rscale>  1 0.65284664E+03</rscale>
<asrwt>0</asrwt>
<pdfrwt beam="1">  1        3 0.38751172E+00 0.65284664E+03</pdfrwt>
<pdfrwt beam="2">0</pdfrwt>
<totfact> 0.68865057E-02</totfact>
</mgrwt>
</event>
<event>
 6    1  0.5555421E-003  0.6311048E+03  0.7818608E-02  0.9842895E-01
          1   -1    0    0  502    0  0.00000000000E+00  0.00000000000E+00  0.99573425440E+02  0.99573425440E+02  0.00000000000E+00 0.  1.
         13   -1    0    0    0    0 -0.00000000000E+00 -0.00000000000E+00 -0.10000000000E+04  0.10000000000E+04  0.00000000000E+00 0.  1.
    9000005    2    1    2  501    0 -0.22898026373E-05  0.18335270241E-04 -0.90042668393E+03  0.10995733145E+04  0.63110479390E+03 0.  0.
         13    1    3    3    0    0 -0.28868402837E+03 -0.11154148133E+03 -0.55752175886E+03  0.63766016176E+03  0.00000000000E+00 0.  1.
          1    1    3    3  501    0  0.28868402608E+03  0.11154149966E+03 -0.34290492507E+03  0.46191315276E+03  0.00000000000E+00 0.  1.
         21    1    1    2  502  501  0.22898026309E-05 -0.18335270249E-04  0.10936717746E-03  0.11091710795E-03  0.00000000000E+00 0. -1.
<mgrwt>
<rscale>  1 0.63110479E+03</rscale>
<asrwt>0</asrwt>
<pdfrwt beam="1">  1        1 0.36208595E+00 0.63110479E+03</pdfrwt>
<pdfrwt beam="2">0</pdfrwt>
<totfact> 0.19738603E+00</totfact>
</mgrwt>
</event>
<event>
 6    1  0.5555421E-003  0.6601056E+03  0.7818608E-02  0.9787999E-01
          1   -1    0    0  502    0  0.00000000000E+00  0.00000000000E+00  0.10893687296E+03  0.10893687296E+03  0.00000000000E+00 0.  1.
         13   -1    0    0    0    0 -0.00000000000E+00 -0.00000000000E+00 -0.10000000000E+04  0.10000000000E+04  0.00000000000E+00 0.  1.
    9000005    2    1    2  501    0 -0.58528050261E-03 -0.30706132752E-02 -0.89106371785E+03  0.11089336917E+04  0.66010558500E+03 0.  0.
         13    1    3    3    0    0 -0.11479307276E+03 -0.22242552947E+03 -0.84113171774E+02  0.26405603833E+03  0.00000000000E+00 0.  1.
          1    1    3    3  501    0  0.11479248748E+03  0.22242245885E+03 -0.80695054608E+03  0.84487765339E+03  0.00000000000E+00 0.  1.
         21    1    1    2  502  501  0.58528050262E-03  0.30706132752E-02  0.59080813865E-03  0.31812377166E-02  0.00000000000E+00 0.  1.
<mgrwt>
<rscale>  1 0.66010559E+03</rscale>
<asrwt>0</asrwt>
<pdfrwt beam="1">  1        1 0.39613492E+00 0.66010559E+03</pdfrwt>
<pdfrwt beam="2">0</pdfrwt>
<totfact> 0.13893166E+00</totfact>
</mgrwt>
</event>
<event>
 6    1  0.5555421E-003  0.6480405E+03  0.7818608E-02  0.9810463E-01
          1   -1    0    0  502    0  0.00000000000E+00  0.00000000000E+00  0.10498913921E+03  0.10498913921E+03  0.00000000000E+00 0.  1.
         13   -1    0    0    0    0 -0.00000000000E+00 -0.00000000000E+00 -0.10000000000E+04  0.10000000000E+04  0.00000000000E+00 0.  1.
    9000005    2    1    2  501    0 -0.30047657447E-05 -0.23491611234E-05 -0.89501086550E+03  0.11049891331E+04  0.64804053501E+03 0.  0.
         13    1    3    3    0    0  0.31375609895E+03 -0.10715181803E+02 -0.31076103266E+03  0.44173535535E+03  0.00000000000E+00 0.  1.
          3    1    3    3  501    0 -0.31375610195E+03  0.10715179454E+02 -0.58424983285E+03  0.66325377780E+03  0.00000000000E+00 0.  1.
         21    1    1    2  502  501  0.30047657325E-05  0.23491611233E-05  0.47127078119E-05  0.60627378313E-05  0.00000000000E+00 0.  1.
<mgrwt>
<rscale>  1 0.64804054E+03</rscale>
<asrwt>0</asrwt>
<pdfrwt beam="1">  1        1 0.38177949E+00 0.64804054E+03</pdfrwt>
<pdfrwt beam="2">0</pdfrwt>
<totfact> 0.16121394E+00</totfact>
</mgrwt>
</event>
<event>
 6    1  0.5555421E-003  0.6473833E+03  0.7818608E-02  0.9811702E-01
          1   -1    0    0  502    0  0.00000000000E+00  0.00000000000E+00  0.10478753107E+03  0.10478753107E+03  0.00000000000E+00 0.  1.
         13   -1    0    0    0    0 -0.00000000000E+00 -0.00000000000E+00 -0.10000000000E+04  0.10000000000E+04  0.00000000000E+00 0.  1.
    9000005    2    1    2  501    0 -0.14054044632E-02  0.50470628082E-03 -0.89522364581E+03  0.11047762549E+04  0.64738334651E+03 0.  0.
         13    1    3    3    0    0  0.16561915246E+03  0.26373651287E+03 -0.59822685460E+03  0.67443459390E+03  0.00000000000E+00 0.  1.
          3    1    3    3  501    0 -0.16562055787E+03 -0.26373600816E+03 -0.29699679120E+03  0.43034166098E+03  0.00000000000E+00 0.  1.
         21    1    1    2  502  501  0.14054044632E-02 -0.50470628081E-03  0.11176879478E-01  0.11276192841E-01  0.00000000000E+00 0. -1.
<mgrwt>
<rscale>  1 0.64738335E+03</rscale>
<asrwt>0</asrwt>
<pdfrwt beam="1">  1        1 0.38104637E+00 0.64738335E+03</pdfrwt>
<pdfrwt beam="2">0</pdfrwt>
<totfact> 0.16243966E+00</totfact>
</mgrwt>
</event>
<event>
 6    1  0.5555421E-003  0.6449517E+03  0.7818608E-02  0.9816298E-01
          1   -1    0    0  502    0  0.00000000000E+00  0.00000000000E+00  0.10400599565E+03  0.10400599565E+03  0.00000000000E+00 0.  1.
         13   -1    0    0    0    0 -0.00000000000E+00 -0.00000000000E+00 -0.10000000000E+04  0.10000000000E+04  0.00000000000E+00 0.  1.
    9000005    2    1    2  501    0  0.11143950644E-03  0.92543279206E-03 -0.89600932202E+03  0.11039906496E+04  0.64495166437E+03 0.  0.
         13    1    3    3    0    0 -0.27538637233E+03 -0.16729408136E+03 -0.42598237954E+03  0.53412166348E+03  0.00000000000E+00 0.  1.
          1    1    3    3  501    0  0.27538648377E+03  0.16729500680E+03 -0.47002694248E+03  0.56986898617E+03  0.00000000000E+00 0.  1.
         21    1    1    2  502  501 -0.11143950646E-03 -0.92543279206E-03  0.15317663297E-01  0.15345997964E-01  0.00000000000E+00 0. -1.
<mgrwt>
<rscale>  1 0.64495166E+03</rscale>
<asrwt>0</asrwt>
<pdfrwt beam="1">  1        1 0.37820442E+00 0.64495166E+03</pdfrwt>
<pdfrwt beam="2">0</pdfrwt>
<totfact> 0.16727200E+00</totfact>
</mgrwt>
</event>
<event>
 6    1  0.5555421E-003  0.7138414E+03  0.7818608E-02  0.9693850E-01
          1   -1    0    0  502    0  0.00000000000E+00  0.00000000000E+00  0.12749533539E+03  0.12749533539E+03  0.00000000000E+00 0.  1.
         13   -1    0    0    0    0 -0.00000000000E+00 -0.00000000000E+00 -0.10000000000E+04  0.10000000000E+04  0.00000000000E+00 0.  1.
    9000005    2    1    2  501    0  0.15401005942E-01 -0.18260596391E-01 -0.87260603254E+03  0.11273911908E+04  0.71384144492E+03 0.  0.
         13    1    3    3    0    0  0.78661344737E+02  0.13511308832E+02  0.11311879408E+03  0.13844141070E+03  0.00000000000E+00 0.  1.
          3    1    3    3  501    0 -0.78645943731E+02 -0.13529569429E+02 -0.98572482662E+03  0.98894978009E+03  0.00000000000E+00 0.  1.
         21    1    1    2  502  501 -0.15401005942E-01  0.18260596391E-01  0.10136792933E+00  0.10414459881E+00  0.00000000000E+00 0.  1.
<mgrwt>
<rscale>  1 0.71384145E+03</rscale>
<asrwt>0</asrwt>
<pdfrwt beam="1">  1        1 0.46362038E+00 0.71384145E+03</pdfrwt>
<pdfrwt beam="2">0</pdfrwt>
<totfact> 0.67817446E-01</totfact>
</mgrwt>
</event>
<event>
 6    1  0.5555421E-003  0.6439017E+03  0.7818608E-02  0.9818290E-01
          1   -1    0    0  502    0  0.00000000000E+00  0.00000000000E+00  0.11357400341E+03  0.11357400341E+03  0.00000000000E+00 0.  1.
         13   -1    0    0    0    0 -0.00000000000E+00 -0.00000000000E+00 -0.10000000000E+04  0.10000000000E+04  0.00000000000E+00 0.  1.
    9000005    2    1    2  501    0 -0.27226796668E+02 -0.10902635391E+02 -0.85789609532E+03  0.10726579774E+04  0.64323344152E+03 0.  0.
         13    1    3    3    0    0  0.98263243022E+02  0.27933819845E+03 -0.25040883923E+03  0.38780159980E+03  0.00000000000E+00 0.  1.
          1    1    3    3  501    0 -0.12549003969E+03 -0.29024083384E+03 -0.60748725609E+03  0.68485637765E+03  0.00000000000E+00 0.  1.
         21    1    1    2  502  501  0.27226796668E+02  0.10902635391E+02 -0.28529901265E+02  0.40916025974E+02  0.00000000000E+00 0. -1.
<mgrwt>
<rscale>  1 0.64390172E+03</rscale>
<asrwt>0</asrwt>
<pdfrwt beam="1">  1        1 0.41299725E+00 0.64390172E+03</pdfrwt>
<pdfrwt beam="2">0</pdfrwt>
<totfact> 0.11716262E+00</totfact>
</mgrwt>
</event>
<event>
 6    1  0.5555421E-003  0.6321928E+03  0.7818608E-02  0.9840779E-01
          1   -1    0    0  502    0  0.00000000000E+00  0.00000000000E+00  0.99916969033E+02  0.99916969033E+02  0.00000000000E+00 0.  1.
         13   -1    0    0    0    0 -0.00000000000E+00 -0.00000000000E+00 -0.10000000000E+04  0.10000000000E+04  0.00000000000E+00 0.  1.
    9000005    2    1    2  501    0 -0.70003929409E-05 -0.46574284482E-05 -0.90008306090E+03  0.10999169379E+04  0.63219281384E+03 0.  0.
         13    1    3    3    0    0  0.25296322766E+03 -0.74903546299E+02 -0.75297432315E+03  0.79785416407E+03  0.00000000000E+00 0.  1.
          1    1    3    3  501    0 -0.25296323466E+03  0.74903541641E+02 -0.14710873774E+03  0.30206277388E+03  0.00000000000E+00 0.  1.
         21    1    1    2  502  501  0.70003929417E-05  0.46574284510E-05  0.29929326848E-04  0.31087967877E-04  0.00000000000E+00 0.  1.
<mgrwt>
<rscale>  1 0.63219281E+03</rscale>
<asrwt>0</asrwt>
<pdfrwt beam="1">  1        1 0.36333520E+00 0.63219281E+03</pdfrwt>
<pdfrwt beam="2">0</pdfrwt>
<totfact> 0.19487737E+00</totfact>
</mgrwt>
</event>
<event>
 6    1  0.5555421E-003  0.6548959E+03  0.7818608E-02  0.9797636E-01
          1   -1    0    0  502    0  0.00000000000E+00  0.00000000000E+00  0.10722390595E+03  0.10722390595E+03  0.00000000000E+00 0.  1.
         13   -1    0    0    0    0 -0.00000000000E+00 -0.00000000000E+00 -0.10000000000E+04  0.10000000000E+04  0.00000000000E+00 0.  1.
    9000005    2    1    2  501    0 -0.20542554950E-04  0.12412024773E-04 -0.89277784049E+03  0.11072221593E+04  0.65489589836E+03 0.  0.
         13    1    3    3    0    0 -0.14642755471E+03 -0.12910024119E+03 -0.89086288990E+03  0.91200032328E+03  0.00000000000E+00 0.  1.
          1    1    3    3  501    0  0.14642753416E+03  0.12910025361E+03 -0.19149505824E+01  0.19522183607E+03  0.00000000000E+00 0.  1.
         21    1    1    2  502  501  0.20542554947E-04 -0.12412024772E-04  0.17464411835E-02  0.17466060982E-02  0.00000000000E+00 0.  1.
<mgrwt>
<rscale>  1 0.65489590E+03</rscale>
<asrwt>0</asrwt>
<pdfrwt beam="1">  1        1 0.38990593E+00 0.65489590E+03</pdfrwt>
<pdfrwt beam="2">0</pdfrwt>
<totfact> 0.14821467E+00</totfact>
</mgrwt>
</event>
<event>
 6    1  0.5555421E-003  0.6487294E+03  0.7818608E-02  0.9809166E-01
          1   -1    0    0  502    0  0.00000000000E+00  0.00000000000E+00  0.10521397512E+03  0.10521397512E+03  0.00000000000E+00 0.  1.
         13   -1    0    0    0    0 -0.00000000000E+00 -0.00000000000E+00 -0.10000000000E+04  0.10000000000E+04  0.00000000000E+00 0.  1.
    9000005    2    1    2  501    0  0.33289986281E-02  0.10045733138E-02 -0.89478487489E+03  0.11052103126E+04  0.64872942185E+03 0.  0.
         13    1    3    3    0    0 -0.16383429237E+03  0.42158662146E+02 -0.91888484417E+03  0.93432777171E+03  0.00000000000E+00 0.  1.
          3    1    3    3  501    0  0.16383762137E+03 -0.42157657573E+02  0.24099969279E+02  0.17088254091E+03  0.00000000000E+00 0.  1.
         21    1    1    2  502  501 -0.33289986281E-02 -0.10045733138E-02 -0.11499970493E-02  0.36624981396E-02  0.00000000000E+00 0. -1.
<mgrwt>
<rscale>  1 0.64872942E+03</rscale>
<asrwt>0</asrwt>
<pdfrwt beam="1">  1        1 0.38259708E+00 0.64872942E+03</pdfrwt>
<pdfrwt beam="2">0</pdfrwt>
<totfact> 0.15985868E+00</totfact>
</mgrwt>
</event>
<event>
 6    1  0.5555421E-003  0.6519520E+03  0.7818608E-02  0.9803123E-01
          1   -1    0    0  502    0  0.00000000000E+00  0.00000000000E+00  0.10626933986E+03  0.10626933986E+03  0.00000000000E+00 0.  1.
         13   -1    0    0    0    0 -0.00000000000E+00 -0.00000000000E+00 -0.10000000000E+04  0.10000000000E+04  0.00000000000E+00 0.  1.
    9000005    2    1    2  501    0 -0.17933606638E-02  0.17441808382E-01 -0.89372897113E+03  0.11062517249E+04  0.65195199577E+03 0.  0.
         13    1    3    3    0    0  0.13697913627E+03  0.19263937338E+03 -0.65970471857E+02  0.24540846585E+03  0.00000000000E+00 0.  1.
          1    1    3    3  501    0 -0.13698092963E+03 -0.19262193157E+03 -0.82775849927E+03  0.86084325909E+03  0.00000000000E+00 0.  1.
         21    1    1    2  502  501  0.17933606638E-02 -0.17441808382E-01 -0.16890051910E-02  0.17614924372E-01  0.00000000000E+00 0.  1.
<mgrwt>
<rscale>  1 0.65195200E+03</rscale>
<asrwt>0</asrwt>
<pdfrwt beam="1">  1        1 0.38643478E+00 0.65195200E+03</pdfrwt>
<pdfrwt beam="2">0</pdfrwt>
<totfact> 0.15364093E+00</totfact>
</mgrwt>
</event>
<event>
 6    1  0.5555421E-003  0.6423656E+03  0.7818608E-02  0.9821211E-01
          1   -1    0    0  502    0  0.00000000000E+00  0.00000000000E+00  0.10315844524E+03  0.10315844524E+03  0.00000000000E+00 0.  1.
         13   -1    0    0    0    0 -0.00000000000E+00 -0.00000000000E+00 -0.10000000000E+04  0.10000000000E+04  0.00000000000E+00 0.  1.
    9000005    2    1    2  501    0 -0.38682860350E-04 -0.20963637468E-04 -0.89684161467E+03  0.11031583709E+04  0.64236555752E+03 0.  0.
         13    1    3    3    0    0 -0.31302371697E+03  0.57469883978E+02 -0.37412235183E+03  0.49117631161E+03  0.00000000000E+00 0.  1.
          1    1    3    3  501    0  0.31302367829E+03 -0.57469904942E+02 -0.52271926285E+03  0.61198205929E+03  0.00000000000E+00 0.  1.
         21    1    1    2  502  501  0.38682860337E-04  0.20963637472E-04  0.59912312502E-04  0.74332516231E-04  0.00000000000E+00 0.  1.
<mgrwt>
<rscale>  1 0.64236556E+03</rscale>
<asrwt>0</asrwt>
<pdfrwt beam="1">  1        1 0.37512241E+00 0.64236556E+03</pdfrwt>
<pdfrwt beam="2">0</pdfrwt>
<totfact> 0.17266564E+00</totfact>
</mgrwt>
</event>
<event>
 6    1  0.5555421E-003  0.6475844E+03  0.7818608E-02  0.9811322E-01
          1   -1    0    0  502    0  0.00000000000E+00  0.00000000000E+00  0.10566400807E+03  0.10566400807E+03  0.00000000000E+00 0.  1.
         13   -1    0    0    0    0 -0.00000000000E+00 -0.00000000000E+00 -0.10000000000E+04  0.10000000000E+04  0.00000000000E+00 0.  1.
    9000005    2    1    2  501    0 -0.13216365937E+01 -0.37700533116E-02 -0.89452586664E+03  0.11043287965E+04  0.64758305875E+03 0.  0.
         13    1    3    3    0    0  0.45955331614E+02  0.85460081791E+02  0.79485819801E+02  0.12543250628E+03  0.00000000000E+00 0.  1.
          1    1    3    3  501    0 -0.47276968208E+02 -0.85463851844E+02 -0.97401168644E+03  0.97889629023E+03  0.00000000000E+00 0.  1.
         21    1    1    2  502  501  0.13216365937E+01  0.37700533116E-02  0.18987470732E+00  0.13352115576E+01  0.00000000000E+00 0. -1.
<mgrwt>
<rscale>  1 0.64758441E+03</rscale>
<asrwt>0</asrwt>
<pdfrwt beam="1">  1        1 0.38423357E+00 0.64758441E+03</pdfrwt>
<pdfrwt beam="2">0</pdfrwt>
<totfact> 0.15725176E+00</totfact>
</mgrwt>
</event>
<event>
 6    1  0.5555421E-003  0.6499733E+03  0.7818608E-02  0.9806829E-01
          1   -1    0    0  502    0  0.00000000000E+00  0.00000000000E+00  0.11004440888E+03  0.11004440888E+03  0.00000000000E+00 0.  1.
         13   -1    0    0    0    0 -0.00000000000E+00 -0.00000000000E+00 -0.10000000000E+04  0.10000000000E+04  0.00000000000E+00 0.  1.
    9000005    2    1    2  501    0  0.47399674071E+00  0.13882425680E+00 -0.89436842887E+03  0.11056040168E+04  0.64997316205E+03 0.  0.
         13    1    3    3    0    0 -0.27935246362E+02 -0.44296551651E+02 -0.99266859870E+03  0.99404904774E+03  0.00000000000E+00 0.  1.
          1    1    3    3  501    0  0.28409243103E+02  0.44435375908E+02  0.98300169829E+02  0.11155496902E+03  0.00000000000E+00 0.  1.
         21    1    1    2  502  501 -0.47399674071E+00 -0.13882425680E+00  0.44128377555E+01  0.44403921157E+01  0.00000000000E+00 0. -1.
<mgrwt>
<rscale>  1 0.64997335E+03</rscale>
<asrwt>0</asrwt>
<pdfrwt beam="1">  1        1 0.40016233E+00 0.64997335E+03</pdfrwt>
<pdfrwt beam="2">0</pdfrwt>
<totfact> 0.13356525E+00</totfact>
</mgrwt>
</event>
<event>
 6    1  0.5555421E-003  0.6324356E+03  0.7818608E-02  0.9840307E-01
          1   -1    0    0  502    0  0.00000000000E+00  0.00000000000E+00  0.11233539334E+03  0.11233539334E+03  0.00000000000E+00 0.  1.
         13   -1    0    0    0    0 -0.00000000000E+00 -0.00000000000E+00 -0.10000000000E+04  0.10000000000E+04  0.00000000000E+00 0.  1.
    9000005    2    1    2  501    0 -0.54816066963E+00 -0.23747504610E+00 -0.89999835723E+03  0.10999871839E+04  0.63243529689E+03 0.  0.
         13    1    3    3    0    0 -0.64200205720E+02 -0.11585827170E+03 -0.94974670217E+03  0.95893879045E+03  0.00000000000E+00 0.  1.
          1    1    3    3  501    0  0.63652045051E+02  0.11562079665E+03  0.49748344949E+02  0.14104839340E+03  0.00000000000E+00 0.  1.
         21    1    1    2  502  501  0.54816066963E+00  0.23747504610E+00  0.12333750565E+02  0.12348209487E+02  0.00000000000E+00 0.  1.
<mgrwt>
<rscale>  1 0.63243558E+03</rscale>
<asrwt>0</asrwt>
<pdfrwt beam="1">  1        1 0.40849320E+00 0.63243558E+03</pdfrwt>
<pdfrwt beam="2">0</pdfrwt>
<totfact> 0.12301618E+00</totfact>
</mgrwt>
</event>
<event>
 6    1  0.5555421E-003  0.6425123E+03  0.7818608E-02  0.9820932E-01
          3   -1    0    0  502    0  0.00000000000E+00  0.00000000000E+00  0.10322130513E+03  0.10322130513E+03  0.00000000000E+00 0.  1.
         13   -1    0    0    0    0 -0.00000000000E+00 -0.00000000000E+00 -0.10000000000E+04  0.10000000000E+04  0.00000000000E+00 0.  1.
    9000005    2    1    2  501    0 -0.65539776649E-02 -0.17970348679E-02 -0.89679368976E+03  0.11032048421E+04  0.64251225798E+03 0.  0.
         13    1    3    3    0    0  0.28776842373E+03  0.10440145614E+03 -0.28109898098E+03  0.41560433930E+03  0.00000000000E+00 0.  1.
          1    1    3    3  501    0 -0.28777497771E+03 -0.10440325317E+03 -0.61569470877E+03  0.68760050282E+03  0.00000000000E+00 0.  1.
         21    1    1    2  502  501  0.65539776648E-02  0.17970348679E-02  0.14994882877E-01  0.16463003068E-01  0.00000000000E+00 0. -1.
<mgrwt>
<rscale>  1 0.64251226E+03</rscale>
<asrwt>0</asrwt>
<pdfrwt beam="1">  1        3 0.37535099E+00 0.64251226E+03</pdfrwt>
<pdfrwt beam="2">0</pdfrwt>
<totfact> 0.79972318E-02</totfact>
</mgrwt>
</event>
<event>
 6    1  0.5555421E-003  0.6435973E+03  0.7818608E-02  0.9818868E-01
          1   -1    0    0  502    0  0.00000000000E+00  0.00000000000E+00  0.10585643514E+03  0.10585643514E+03  0.00000000000E+00 0.  1.
         13   -1    0    0    0    0 -0.00000000000E+00 -0.00000000000E+00 -0.10000000000E+04  0.10000000000E+04  0.00000000000E+00 0.  1.
    9000005    2    1    2  501    0  0.43929279249E+01 -0.99401058502E+00 -0.89370763760E+03  0.11013314042E+04  0.64358156780E+03 0.  0.
         13    1    3    3    0    0  0.20091840699E+03  0.17300427338E+03 -0.13303112506E+03  0.29664113860E+03  0.00000000000E+00 0.  1.
          3    1    3    3  501    0 -0.19652547907E+03 -0.17399828397E+03 -0.76067651254E+03  0.80469026556E+03  0.00000000000E+00 0.  1.
         21    1    1    2  502  501 -0.43929279249E+01  0.99401058502E+00 -0.43592726047E+00  0.45250309803E+01  0.00000000000E+00 0. -1.
<mgrwt>
<rscale>  1 0.64359733E+03</rscale>
<asrwt>0</asrwt>
<pdfrwt beam="1">  1        1 0.38493330E+00 0.64359733E+03</pdfrwt>
<pdfrwt beam="2">0</pdfrwt>
<totfact> 0.15625112E+00</totfact>
</mgrwt>
</event>
<event>
 6    1  0.5555421E-003  0.6622395E+03  0.7818608E-02  0.9784080E-01
          1   -1    0    0  502    0  0.00000000000E+00  0.00000000000E+00  0.10964829641E+03  0.10964829641E+03  0.00000000000E+00 0.  1.
         13   -1    0    0    0    0 -0.00000000000E+00 -0.00000000000E+00 -0.10000000000E+04  0.10000000000E+04  0.00000000000E+00 0.  1.
    9000005    2    1    2  501    0 -0.70514024540E-03  0.19338414213E-02 -0.89035955923E+03  0.11096401756E+04  0.66223951448E+03 0.  0.
         13    1    3    3    0    0  0.17434871835E+03  0.17852798753E+03 -0.80491425576E+02  0.26219951852E+03  0.00000000000E+00 0.  1.
          1    1    3    3  501    0 -0.17434942349E+03 -0.17852605369E+03 -0.80986813365E+03  0.84744065705E+03  0.00000000000E+00 0.  1.
         21    1    1    2  502  501  0.70514024540E-03 -0.19338414213E-02  0.78556399057E-02  0.81208400881E-02  0.00000000000E+00 0. -1.
<mgrwt>
<rscale>  1 0.66223951E+03</rscale>
<asrwt>0</asrwt>
<pdfrwt beam="1">  1        1 0.39872192E+00 0.66223951E+03</pdfrwt>
<pdfrwt beam="2">0</pdfrwt>
<totfact> 0.13524112E+00</totfact>
</mgrwt>
</event>
<event>
 6    1  0.5555421E-003  0.6396584E+03  0.7818608E-02  0.9826380E-01
          1   -1    0    0  502    0  0.00000000000E+00  0.00000000000E+00  0.10231862343E+03  0.10231862343E+03  0.00000000000E+00 0.  1.
         13   -1    0    0    0    0 -0.00000000000E+00 -0.00000000000E+00 -0.10000000000E+04  0.10000000000E+04  0.00000000000E+00 0.  1.
    9000005    2    1    2  501    0 -0.29773029353E-02  0.55770333125E-03 -0.89770918821E+03  0.11022906473E+04  0.63965841241E+03 0.  0.
         13    1    3    3    0    0 -0.24904548792E+03  0.18969053355E+03 -0.33604727327E+03  0.45927543310E+03  0.00000000000E+00 0.  1.
          1    1    3    3  501    0  0.24904251062E+03 -0.18968997584E+03 -0.56166191494E+03  0.64301521422E+03  0.00000000000E+00 0.  1.
         21    1    1    2  502  501  0.29773029353E-02 -0.55770333125E-03  0.27811636190E-01  0.27976105400E-01  0.00000000000E+00 0.  1.
<mgrwt>
<rscale>  1 0.63965841E+03</rscale>
<asrwt>0</asrwt>
<pdfrwt beam="1">  1        1 0.37206851E+00 0.63965841E+03</pdfrwt>
<pdfrwt beam="2">0</pdfrwt>
<totfact> 0.17817830E+00</totfact>
</mgrwt>
</event>
<event>
 6    1  0.5555421E-003  0.6361970E+03  0.7818608E-02  0.9833030E-01
          1   -1    0    0  502    0  0.00000000000E+00  0.00000000000E+00  0.10157550164E+03  0.10157550164E+03  0.00000000000E+00 0.  1.
         13   -1    0    0    0    0 -0.00000000000E+00 -0.00000000000E+00 -0.10000000000E+04  0.10000000000E+04  0.00000000000E+00 0.  1.
    9000005    2    1    2  501    0 -0.31176181916E-01 -0.22685717526E-02 -0.89881264269E+03  0.11011861007E+04  0.63619702975E+03 0.  0.
         13    1    3    3    0    0  0.16627121344E+02  0.31763045325E+03 -0.44168994205E+03  0.54429364401E+03  0.00000000000E+00 0.  1.
          1    1    3    3  501    0 -0.16658297525E+02 -0.31763272182E+03 -0.45712270063E+03  0.55689245666E+03  0.00000000000E+00 0.  1.
         21    1    1    2  502  501  0.31176181916E-01  0.22685717526E-02  0.38814432798E+00  0.38940097596E+00  0.00000000000E+00 0.  1.
<mgrwt>
<rscale>  1 0.63619703E+03</rscale>
<asrwt>0</asrwt>
<pdfrwt beam="1">  1        1 0.36936624E+00 0.63619703E+03</pdfrwt>
<pdfrwt beam="2">0</pdfrwt>
<totfact> 0.18323165E+00</totfact>
</mgrwt>
</event>
<event>
 6    1  0.5555421E-003  0.7096534E+03  0.7818608E-02  0.9700864E-01
          1   -1    0    0  502    0  0.00000000000E+00  0.00000000000E+00  0.14222654528E+03  0.14222654528E+03  0.00000000000E+00 0.  1.
         13   -1    0    0    0    0 -0.00000000000E+00 -0.00000000000E+00 -0.10000000000E+04  0.10000000000E+04  0.00000000000E+00 0.  1.
    9000005    2    1    2  501    0 -0.10137514250E+00 -0.32842575540E+00 -0.87409596189E+03  0.11259004196E+04  0.70965335628E+03 0.  0.
         13    1    3    3    0    0 -0.10409970920E+02 -0.20606396234E+03 -0.89534766008E+03  0.91881345032E+03  0.00000000000E+00 0.  1.
          1    1    3    3  501    0  0.10308595778E+02  0.20573553658E+03  0.21251698196E+02  0.20708696926E+03  0.00000000000E+00 0.  1.
         21    1    1    2  502  501  0.10137514250E+00  0.32842575540E+00  0.16322507164E+02  0.16326125705E+02  0.00000000000E+00 0.  1.
<mgrwt>
<rscale>  1 0.70965344E+03</rscale>
<asrwt>0</asrwt>
<pdfrwt beam="1">  1        1 0.51718853E+00 0.70965344E+03</pdfrwt>
<pdfrwt beam="2">0</pdfrwt>
<totfact> 0.37651492E-01</totfact>
</mgrwt>
</event>
<event>
 6    1  0.5555421E-003  0.6475983E+03  0.7818608E-02  0.9811296E-01
          1   -1    0    0  502    0  0.00000000000E+00  0.00000000000E+00  0.10484591241E+03  0.10484591241E+03  0.00000000000E+00 0.  1.
         13   -1    0    0    0    0 -0.00000000000E+00 -0.00000000000E+00 -0.10000000000E+04  0.10000000000E+04  0.00000000000E+00 0.  1.
    9000005    2    1    2  501    0 -0.11808931418E-04  0.41283321934E-05 -0.89515411172E+03  0.11048458852E+04  0.64759829091E+03 0.  0.
         13    1    3    3    0    0 -0.16011452719E+03 -0.27990617557E+03 -0.49765987681E+03  0.59300040634E+03  0.00000000000E+00 0.  1.
          1    1    3    3  501    0  0.16011451538E+03  0.27990617970E+03 -0.39749423491E+03  0.51184547889E+03  0.00000000000E+00 0.  1.
         21    1    1    2  502  501  0.11808931427E-04 -0.41283321708E-05  0.24131820822E-04  0.27181588698E-04  0.00000000000E+00 0. -1.
<mgrwt>
<rscale>  1 0.64759829E+03</rscale>
<asrwt>0</asrwt>
<pdfrwt beam="1">  1        1 0.38125867E+00 0.64759829E+03</pdfrwt>
<pdfrwt beam="2">0</pdfrwt>
<totfact> 0.16208308E+00</totfact>
</mgrwt>
</event>
<event>
 6    1  0.5555421E-003  0.6916380E+03  0.7818608E-02  0.9731640E-01
          1   -1    0    0  502    0  0.00000000000E+00  0.00000000000E+00  0.11970814267E+03  0.11970814267E+03  0.00000000000E+00 0.  1.
         13   -1    0    0    0    0 -0.00000000000E+00 -0.00000000000E+00 -0.10000000000E+04  0.10000000000E+04  0.00000000000E+00 0.  1.
    9000005    2    1    2  501    0  0.18060307911E-02  0.50978880378E-02 -0.88040913305E+03  0.11195907423E+04  0.69163804745E+03 0.  0.
         13    1    3    3    0    0 -0.31741179169E+03 -0.13722037816E+03 -0.44528177844E+03  0.56378678584E+03  0.00000000000E+00 0.  1.
          1    1    3    3  501    0  0.31741359772E+03  0.13722547605E+03 -0.43512735461E+03  0.55580395647E+03  0.00000000000E+00 0.  1.
         21    1    1    2  502  501 -0.18060307911E-02 -0.50978880378E-02  0.11727571830E+00  0.11740035909E+00  0.00000000000E+00 0. -1.
<mgrwt>
<rscale>  1 0.69163805E+03</rscale>
<asrwt>0</asrwt>
<pdfrwt beam="1">  1        1 0.43530325E+00 0.69163805E+03</pdfrwt>
<pdfrwt beam="2">0</pdfrwt>
<totfact> 0.92005907E-01</totfact>
</mgrwt>
</event>
<event>
 6    1  0.5555421E-003  0.6454604E+03  0.7818608E-02  0.9815335E-01
          1   -1    0    0  502    0  0.00000000000E+00  0.00000000000E+00  0.10415478910E+03  0.10415478910E+03  0.00000000000E+00 0.  1.
         13   -1    0    0    0    0 -0.00000000000E+00 -0.00000000000E+00 -0.10000000000E+04  0.10000000000E+04  0.00000000000E+00 0.  1.
    9000005    2    1    2  501    0 -0.11884220896E-05  0.52305481546E-05 -0.89584522486E+03  0.11041547741E+04  0.64546037707E+03 0.  0.
         13    1    3    3    0    0 -0.25239280750E+03 -0.10644994128E+03 -0.15600256508E+03  0.31523089885E+03  0.00000000000E+00 0.  1.
          1    1    3    3  501    0  0.25239280631E+03  0.10644994651E+03 -0.73984265977E+03  0.78892387530E+03  0.00000000000E+00 0.  1.
         21    1    1    2  502  501  0.11884220712E-05 -0.52305481605E-05  0.13955567090E-04  0.14950880706E-04  0.00000000000E+00 0.  1.
<mgrwt>
<rscale>  1 0.64546038E+03</rscale>
<asrwt>0</asrwt>
<pdfrwt beam="1">  1        1 0.37874549E+00 0.64546038E+03</pdfrwt>
<pdfrwt beam="2">0</pdfrwt>
<totfact> 0.16634016E+00</totfact>
</mgrwt>
</event>
<event>
 6    1  0.5555421E-003  0.6491899E+03  0.7818608E-02  0.9808300E-01
          1   -1    0    0  502    0  0.00000000000E+00  0.00000000000E+00  0.12864953739E+03  0.12864953739E+03  0.00000000000E+00 0.  1.
         13   -1    0    0    0    0 -0.00000000000E+00 -0.00000000000E+00 -0.10000000000E+04  0.10000000000E+04  0.00000000000E+00 0.  1.
    9000005    2    1    2  501    0  0.33046085342E+00 -0.21204913986E+00 -0.89463628888E+03  0.11053604010E+04  0.64918978160E+03 0.  0.
         13    1    3    3    0    0  0.24158447644E+03  0.16118910336E+03 -0.20030685547E+03  0.35279997540E+03  0.00000000000E+00 0.  1.
          1    1    3    3  501    0 -0.24125401559E+03 -0.16140115250E+03 -0.69432943341E+03  0.75256042559E+03  0.00000000000E+00 0.  1.
         21    1    1    2  502  501 -0.33046085342E+00  0.21204913986E+00  0.23285826271E+02  0.23289136402E+02  0.00000000000E+00 0. -1.
<mgrwt>
<rscale>  1 0.64918990E+03</rscale>
<asrwt>0</asrwt>
<pdfrwt beam="1">  1        1 0.46781749E+00 0.64918990E+03</pdfrwt>
<pdfrwt beam="2">0</pdfrwt>
<totfact> 0.65695361E-01</totfact>
</mgrwt>
</event>
<event>
 6    1  0.5555421E-003  0.6519780E+03  0.7818608E-02  0.9803075E-01
          1   -1    0    0  502    0  0.00000000000E+00  0.00000000000E+00  0.10626882903E+03  0.10626882903E+03  0.00000000000E+00 0.  1.
         13   -1    0    0    0    0 -0.00000000000E+00 -0.00000000000E+00 -0.10000000000E+04  0.10000000000E+04  0.00000000000E+00 0.  1.
    9000005    2    1    2  501    0 -0.59707798528E-06 -0.73891810075E-05 -0.89373117269E+03  0.11062688214E+04  0.65197798750E+03 0.  0.
         13    1    3    3    0    0 -0.21279148797E+03 -0.24059002815E+03 -0.54141565401E+03  0.62951941146E+03  0.00000000000E+00 0.  1.
          1    1    3    3  501    0  0.21279148738E+03  0.24059002076E+03 -0.35231551869E+03  0.47674940996E+03  0.00000000000E+00 0.  1.
         21    1    1    2  502  501  0.59707799082E-06  0.73891809818E-05  0.17199101742E-05  0.76101635145E-05  0.00000000000E+00 0.  1.
<mgrwt>
<rscale>  1 0.65197799E+03</rscale>
<asrwt>0</asrwt>
<pdfrwt beam="1">  1        1 0.38643292E+00 0.65197799E+03</pdfrwt>
<pdfrwt beam="2">0</pdfrwt>
<totfact> 0.15364310E+00</totfact>
</mgrwt>
</event>
<event>
 6    1  0.5555421E-003  0.6465274E+03  0.7818608E-02  0.9813317E-01
          1   -1    0    0  502    0  0.00000000000E+00  0.00000000000E+00  0.10449944448E+03  0.10449944448E+03  0.00000000000E+00 0.  1.
         13   -1    0    0    0    0 -0.00000000000E+00 -0.00000000000E+00 -0.10000000000E+04  0.10000000000E+04  0.00000000000E+00 0.  1.
    9000005    2    1    2  501    0 -0.22430525632E-05  0.43505328335E-05 -0.89550057083E+03  0.11044994284E+04  0.64652742787E+03 0.  0.
         13    1    3    3    0    0  0.29670162382E+03  0.12819354267E+03 -0.43779030470E+03  0.54417441032E+03  0.00000000000E+00 0.  1.
          1    1    3    3  501    0 -0.29670162606E+03 -0.12819353832E+03 -0.45771026613E+03  0.56032501809E+03  0.00000000000E+00 0.  1.
         21    1    1    2  502  501  0.22430525105E-05 -0.43505328112E-05  0.15306999024E-04  0.16070551933E-04  0.00000000000E+00 0. -1.
<mgrwt>
<rscale>  1 0.64652743E+03</rscale>
<asrwt>0</asrwt>
<pdfrwt beam="1">  1        1 0.37999878E+00 0.64652743E+03</pdfrwt>
<pdfrwt beam="2">0</pdfrwt>
<totfact> 0.16420404E+00</totfact>
</mgrwt>
</event>
<event>
 6    1  0.5555421E-003  0.6654381E+03  0.7818608E-02  0.9778234E-01
          1   -1    0    0  502    0  0.00000000000E+00  0.00000000000E+00  0.11070252142E+03  0.11070252142E+03  0.00000000000E+00 0.  1.
         13   -1    0    0    0    0 -0.00000000000E+00 -0.00000000000E+00 -0.10000000000E+04  0.10000000000E+04  0.00000000000E+00 0.  1.
    9000005    2    1    2  501    0 -0.79441335004E-05 -0.39873649825E-04 -0.88929802096E+03  0.11107019775E+04  0.66543813595E+03 0.  0.
         13    1    3    3    0    0 -0.16625776918E+03 -0.28816261262E+03 -0.43670463554E+03  0.54899023290E+03  0.00000000000E+00 0.  1.
          1    1    3    3  501    0  0.16625776123E+03  0.28816257275E+03 -0.45259338543E+03  0.56171174461E+03  0.00000000000E+00 0.  1.
         21    1    1    2  502  501  0.79441334967E-05  0.39873649787E-04  0.54237804495E-03  0.54389977096E-03  0.00000000000E+00 0. -1.
<mgrwt>
<rscale>  1 0.66543814E+03</rscale>
<asrwt>0</asrwt>
<pdfrwt beam="1">  1        1 0.40255547E+00 0.66543814E+03</pdfrwt>
<pdfrwt beam="2">0</pdfrwt>
<totfact> 0.12994133E+00</totfact>
</mgrwt>
</event>
<event>
 6    1  0.5555421E-003  0.6519069E+03  0.7818608E-02  0.9803208E-01
          1   -1    0    0  502    0  0.00000000000E+00  0.00000000000E+00  0.10632066092E+03  0.10632066092E+03  0.00000000000E+00 0.  1.
         13   -1    0    0    0    0 -0.00000000000E+00 -0.00000000000E+00 -0.10000000000E+04  0.10000000000E+04  0.00000000000E+00 0.  1.
    9000005    2    1    2  501    0  0.19931559550E-03  0.15434570696E-02 -0.89375434790E+03  0.11062456360E+04  0.65190687424E+03 0.  0.
         13    1    3    3    0    0 -0.55625471815E+02 -0.20507581419E+02  0.97019639983E+02  0.11369944834E+03  0.00000000000E+00 0.  1.
          1    1    3    3  501    0  0.55625671131E+02  0.20509124876E+02 -0.99077398788E+03  0.99254618762E+03  0.00000000000E+00 0.  1.
         21    1    1    2  502  501 -0.19931559550E-03 -0.15434570696E-02  0.75008822960E-01  0.75024965899E-01  0.00000000000E+00 0. -1.
<mgrwt>
<rscale>  1 0.65190687E+03</rscale>
<asrwt>0</asrwt>
<pdfrwt beam="1">  1        1 0.38662140E+00 0.65190687E+03</pdfrwt>
<pdfrwt beam="2">0</pdfrwt>
<totfact> 0.15335023E+00</totfact>
</mgrwt>
</event>
<event>
 6    1  0.5555421E-003  0.6415361E+03  0.7818608E-02  0.9822792E-01
          1   -1    0    0  502    0  0.00000000000E+00  0.00000000000E+00  0.10304471751E+03  0.10304471751E+03  0.00000000000E+00 0.  1.
         13   -1    0    0    0    0 -0.00000000000E+00 -0.00000000000E+00 -0.10000000000E+04  0.10000000000E+04  0.00000000000E+00 0.  1.
    9000005    2    1    2  501    0 -0.21027987660E-01 -0.16356700901E+00 -0.89705712333E+03  0.11028508931E+04  0.64153611177E+03 0.  0.
         13    1    3    3    0    0 -0.22132858246E+02  0.31614520125E+03 -0.53269110282E+03  0.61983664195E+03  0.00000000000E+00 0.  1.
          1    1    3    3  501    0  0.22111830258E+02 -0.31630876825E+03 -0.36436602052E+03  0.48301425115E+03  0.00000000000E+00 0.  1.
         21    1    1    2  502  501  0.21027987660E-01  0.16356700901E+00  0.10184083843E+00  0.19382440268E+00  0.00000000000E+00 0.  1.
<mgrwt>
<rscale>  1 0.64153613E+03</rscale>
<asrwt>0</asrwt>
<pdfrwt beam="1">  1        1 0.37470885E+00 0.64153613E+03</pdfrwt>
<pdfrwt beam="2">0</pdfrwt>
<totfact> 0.17341719E+00</totfact>
</mgrwt>
</event>
<event>
 6    1  0.5555421E-003  0.6576644E+03  0.7818608E-02  0.9792503E-01
          1   -1    0    0  502    0  0.00000000000E+00  0.00000000000E+00  0.10813100328E+03  0.10813100328E+03  0.00000000000E+00 0.  1.
         13   -1    0    0    0    0 -0.00000000000E+00 -0.00000000000E+00 -0.10000000000E+04  0.10000000000E+04  0.00000000000E+00 0.  1.
    9000005    2    1    2  501    0 -0.26755002438E-04 -0.12179645381E-04 -0.89186939238E+03  0.11081306065E+04  0.65766437342E+03 0.  0.
         13    1    3    3    0    0  0.23762028111E+03  0.22700689931E+03 -0.46551690860E+03  0.56982587035E+03  0.00000000000E+00 0.  1.
          1    1    3    3  501    0 -0.23762030786E+03 -0.22700691149E+03 -0.42635248378E+03  0.53830473618E+03  0.00000000000E+00 0.  1.
         21    1    1    2  502  501  0.26755002451E-04  0.12179645370E-04  0.39565620455E-03  0.39674677833E-03  0.00000000000E+00 0.  1.
<mgrwt>
<rscale>  1 0.65766437E+03</rscale>
<asrwt>0</asrwt>
<pdfrwt beam="1">  1        1 0.39320448E+00 0.65766437E+03</pdfrwt>
<pdfrwt beam="2">0</pdfrwt>
<totfact> 0.14322783E+00</totfact>
</mgrwt>
</event>
<event>
 6    1  0.5555421E-003  0.6508458E+03  0.7818608E-02  0.9805193E-01
          1   -1    0    0  502    0  0.00000000000E+00  0.00000000000E+00  0.10590712645E+03  0.10590712645E+03  0.00000000000E+00 0.  1.
         13   -1    0    0    0    0 -0.00000000000E+00 -0.00000000000E+00 -0.10000000000E+04  0.10000000000E+04  0.00000000000E+00 0.  1.
    9000005    2    1    2  501    0  0.20208087332E-03  0.65940591804E-03 -0.89409992991E+03  0.11059000365E+04  0.65084576205E+03 0.  0.
         13    1    3    3    0    0 -0.14854731632E+03  0.20624837933E+03 -0.10175626465E+03  0.27378647986E+03  0.00000000000E+00 0.  1.
          1    1    3    3  501    0  0.14854751840E+03 -0.20624771992E+03 -0.79234366526E+03  0.83211355660E+03  0.00000000000E+00 0.  1.
         21    1    1    2  502  501 -0.20208087332E-03 -0.65940591802E-03  0.70563633262E-02  0.70899870406E-02  0.00000000000E+00 0. -1.
<mgrwt>
<rscale>  1 0.65084576E+03</rscale>
<asrwt>0</asrwt>
<pdfrwt beam="1">  1        1 0.38511764E+00 0.65084576E+03</pdfrwt>
<pdfrwt beam="2">0</pdfrwt>
<totfact> 0.15574857E+00</totfact>
</mgrwt>
</event>
<event>
 6    1  0.5555421E-003  0.6537684E+03  0.7818608E-02  0.9799734E-01
          1   -1    0    0  502    0  0.00000000000E+00  0.00000000000E+00  0.10685408384E+03  0.10685408384E+03  0.00000000000E+00 0.  1.
         13   -1    0    0    0    0 -0.00000000000E+00 -0.00000000000E+00 -0.10000000000E+04  0.10000000000E+04  0.00000000000E+00 0.  1.
    9000005    2    1    2  501    0 -0.29862406649E-04  0.27846976877E-04 -0.89314671035E+03  0.11068532886E+04  0.65376842712E+03 0.  0.
         13    1    3    3    0    0 -0.20245093346E+03  0.68953661419E+02 -0.86510710162E+03  0.89115166226E+03  0.00000000000E+00 0.  1.
          3    1    3    3  501    0  0.20245090360E+03 -0.68953633572E+02 -0.28039608729E+02  0.21570162634E+03  0.00000000000E+00 0.  1.
         21    1    1    2  502  501  0.29862406651E-04 -0.27846976881E-04  0.79418518572E-03  0.79523413324E-03  0.00000000000E+00 0.  1.
<mgrwt>
<rscale>  1 0.65376843E+03</rscale>
<asrwt>0</asrwt>
<pdfrwt beam="1">  1        1 0.38856112E+00 0.65376843E+03</pdfrwt>
<pdfrwt beam="2">0</pdfrwt>
<totfact> 0.15029463E+00</totfact>
</mgrwt>
</event>
<event>
 6    1  0.5555421E-003  0.6451104E+03  0.7818608E-02  0.9815998E-01
          1   -1    0    0  502    0  0.00000000000E+00  0.00000000000E+00  0.10405115072E+03  0.10405115072E+03  0.00000000000E+00 0.  1.
         13   -1    0    0    0    0 -0.00000000000E+00 -0.00000000000E+00 -0.10000000000E+04  0.10000000000E+04  0.00000000000E+00 0.  1.
    9000005    2    1    2  501    0  0.96117330133E-03  0.36964417067E-02 -0.89595771034E+03  0.11040415016E+04  0.64511039246E+03 0.  0.
         13    1    3    3    0    0 -0.55303745826E+02  0.27218160691E+03 -0.72867897011E+03  0.77981688422E+03  0.00000000000E+00 0.  1.
          3    1    3    3  501    0  0.55304706999E+02 -0.27217791047E+03 -0.16727874024E+03  0.32422461735E+03  0.00000000000E+00 0.  1.
         21    1    1    2  502  501 -0.96117330133E-03 -0.36964417067E-02  0.88610664998E-02  0.96491468494E-02  0.00000000000E+00 0.  1.
<mgrwt>
<rscale>  1 0.64511039E+03</rscale>
<asrwt>0</asrwt>
<pdfrwt beam="1">  1        1 0.37836862E+00 0.64511039E+03</pdfrwt>
<pdfrwt beam="2">0</pdfrwt>
<totfact> 0.16698855E+00</totfact>
</mgrwt>
</event>
<event>
 6    1  0.5555421E-003  0.6670703E+03  0.7818608E-02  0.9775265E-01
          1   -1    0    0  502    0  0.00000000000E+00  0.00000000000E+00  0.11124618289E+03  0.11124618289E+03  0.00000000000E+00 0.  1.
         13   -1    0    0    0    0 -0.00000000000E+00 -0.00000000000E+00 -0.10000000000E+04  0.10000000000E+04  0.00000000000E+00 0.  1.
    9000005    2    1    2  501    0  0.73411841652E-03 -0.12539982150E-02 -0.88875148469E+03  0.11112434349E+04  0.66707028866E+03 0.  0.
         13    1    3    3    0    0 -0.14668028957E+03  0.28013628360E+03 -0.26765430157E+03  0.41428283803E+03  0.00000000000E+00 0.  1.
          3    1    3    3  501    0  0.14668102368E+03 -0.28013753760E+03 -0.62109718312E+03  0.69696059685E+03  0.00000000000E+00 0.  1.
         21    1    1    2  502  501 -0.73411841650E-03  0.12539982150E-02 -0.23324154810E-02  0.27480180765E-02  0.00000000000E+00 0. -1.
<mgrwt>
<rscale>  1 0.66707029E+03</rscale>
<asrwt>0</asrwt>
<pdfrwt beam="1">  1        1 0.40453243E+00 0.66707029E+03</pdfrwt>
<pdfrwt beam="2">0</pdfrwt>
<totfact> 0.12728588E+00</totfact>
</mgrwt>
</event>
<event>
 6    1  0.5555421E-003  0.6088277E+03  0.7818608E-02  0.9887259E-01
          1   -1    0    0  502    0  0.00000000000E+00  0.00000000000E+00  0.96749581390E+02  0.96749581390E+02  0.00000000000E+00 0.  1.
         13   -1    0    0    0    0 -0.00000000000E+00 -0.00000000000E+00 -0.10000000000E+04  0.10000000000E+04  0.00000000000E+00 0.  1.
    9000005    2    1    2  501    0  0.88415081411E+01  0.71080719270E+01 -0.89603440813E+03  0.10833045912E+04  0.60872200544E+03 0.  0.
         13    1    3    3    0    0  0.77565522915E+02  0.51048025061E+02  0.68461261555E+02  0.11536574683E+03  0.00000000000E+00 0.  1.
          1    1    3    3  501    0 -0.68724014774E+02 -0.43939953134E+02 -0.96449566969E+03  0.96793884442E+03  0.00000000000E+00 0.  1.
         21    1    1    2  502  501 -0.88415081411E+01 -0.71080719270E+01 -0.72160104786E+01  0.13444990143E+02  0.00000000000E+00 0. -1.
<mgrwt>
<rscale>  1 0.60882771E+03</rscale>
<asrwt>0</asrwt>
<pdfrwt beam="1">  1        1 0.35181740E+00 0.60882771E+03</pdfrwt>
<pdfrwt beam="2">0</pdfrwt>
<totfact> 0.21974541E+00</totfact>
</mgrwt>
</event>
<event>
 6    1  0.5555421E-003  0.6571266E+03  0.7818608E-02  0.9793498E-01
          3   -1    0    0  502    0  0.00000000000E+00  0.00000000000E+00  0.10795403261E+03  0.10795403261E+03  0.00000000000E+00 0.  1.
         13   -1    0    0    0    0 -0.00000000000E+00 -0.00000000000E+00 -0.10000000000E+04  0.10000000000E+04  0.00000000000E+00 0.  1.
    9000005    2    1    2  501    0 -0.28485168286E-04 -0.13040330742E-03 -0.89204613413E+03  0.11079538190E+04  0.65712659333E+03 0.  0.
         13    1    3    3    0    0  0.65010968235E+02 -0.30249907930E+03 -0.63242037957E+03  0.70405088983E+03  0.00000000000E+00 0.  1.
          1    1    3    3  501    0 -0.65010996720E+02  0.30249894890E+03 -0.25962575456E+03  0.40390292920E+03  0.00000000000E+00 0.  1.
         21    1    1    2  502  501  0.28485168281E-04  0.13040330744E-03  0.16674416694E-03  0.21358849363E-03  0.00000000000E+00 0.  1.
<mgrwt>
<rscale>  1 0.65712659E+03</rscale>
<asrwt>0</asrwt>
<pdfrwt beam="1">  1        3 0.39256095E+00 0.65712659E+03</pdfrwt>
<pdfrwt beam="2">0</pdfrwt>
<totfact> 0.64732357E-02</totfact>
</mgrwt>
</event>
<event>
 6    1  0.5555421E-003  0.6657938E+03  0.7818608E-02  0.9777586E-01
          1   -1    0    0  502    0  0.00000000000E+00  0.00000000000E+00  0.11342740460E+03  0.11342740460E+03  0.00000000000E+00 0.  1.
         13   -1    0    0    0    0 -0.00000000000E+00 -0.00000000000E+00 -0.10000000000E+04  0.10000000000E+04  0.00000000000E+00 0.  1.
    9000005    2    1    2  501    0  0.82020606553E-01 -0.54953004201E+00 -0.88914671504E+03  0.11107940033E+04  0.66579360777E+03 0.  0.
         13    1    3    3    0    0  0.31256846187E+03  0.79882241638E+02 -0.30775274864E+03  0.44586093144E+03  0.00000000000E+00 0.  1.
          3    1    3    3  501    0 -0.31248644126E+03 -0.80431771680E+02 -0.58139396639E+03  0.66493307184E+03  0.00000000000E+00 0.  1.
         21    1    1    2  502  501 -0.82020606553E-01  0.54953004201E+00  0.25741196377E+01  0.26334013283E+01  0.00000000000E+00 0.  1.
<mgrwt>
<rscale>  1 0.66579384E+03</rscale>
<asrwt>0</asrwt>
<pdfrwt beam="1">  1        1 0.41246416E+00 0.66579384E+03</pdfrwt>
<pdfrwt beam="2">0</pdfrwt>
<totfact> 0.11731157E+00</totfact>
</mgrwt>
</event>
<event>
 6    1  0.5555421E-003  0.6685803E+03  0.7818608E-02  0.9772526E-01
          1   -1    0    0  502    0  0.00000000000E+00  0.00000000000E+00  0.11175439141E+03  0.11175439141E+03  0.00000000000E+00 0.  1.
         13   -1    0    0    0    0 -0.00000000000E+00 -0.00000000000E+00 -0.10000000000E+04  0.10000000000E+04  0.00000000000E+00 0.  1.
    9000005    2    1    2  501    0  0.42688980839E-02 -0.55339610171E-03 -0.88824889603E+03  0.11117489750E+04  0.66858034836E+03 0.  0.
         13    1    3    3    0    0 -0.22279247657E+03 -0.17323952281E+03 -0.14619564598E+03  0.31783893214E+03  0.00000000000E+00 0.  1.
          1    1    3    3  501    0  0.22279674547E+03  0.17323896942E+03 -0.74205325005E+03  0.79391004291E+03  0.00000000000E+00 0.  1.
         21    1    1    2  502  501 -0.42688980839E-02  0.55339610171E-03  0.32874384982E-02  0.54163631687E-02  0.00000000000E+00 0. -1.
<mgrwt>
<rscale>  1 0.66858035E+03</rscale>
<asrwt>0</asrwt>
<pdfrwt beam="1">  1        1 0.40638046E+00 0.66858035E+03</pdfrwt>
<pdfrwt beam="2">0</pdfrwt>
<totfact> 0.12485031E+00</totfact>
</mgrwt>
</event>
<event>
 6    1  0.5555421E-003  0.6375177E+03  0.7818608E-02  0.9830487E-01
          1   -1    0    0  502    0  0.00000000000E+00  0.00000000000E+00  0.10172587451E+03  0.10172587451E+03  0.00000000000E+00 0.  1.
         13   -1    0    0    0    0 -0.00000000000E+00 -0.00000000000E+00 -0.10000000000E+04  0.10000000000E+04  0.00000000000E+00 0.  1.
    9000005    2    1    2  501    0  0.14288984848E-02  0.97035013097E-03 -0.89839279405E+03  0.11016071934E+04  0.63751768298E+03 0.  0.
         13    1    3    3    0    0 -0.14464258911E+03 -0.70729459511E+02 -0.92456723369E+03  0.93848212804E+03  0.00000000000E+00 0.  1.
          1    1    3    3  501    0  0.14464401801E+03  0.70730429862E+02  0.26174439644E+02  0.16312506534E+03  0.00000000000E+00 0.  1.
         21    1    1    2  502  501 -0.14288984848E-02 -0.97035013098E-03  0.11866855590E+00  0.11868112525E+00  0.00000000000E+00 0.  1.
<mgrwt>
<rscale>  1 0.63751768E+03</rscale>
<asrwt>0</asrwt>
<pdfrwt beam="1">  1        1 0.36991305E+00 0.63751768E+03</pdfrwt>
<pdfrwt beam="2">0</pdfrwt>
<totfact> 0.18217756E+00</totfact>
</mgrwt>
</event>
<event>
 6    1  0.5555421E-003  0.6639725E+03  0.7818608E-02  0.9780908E-01
          3   -1    0    0  502    0  0.00000000000E+00  0.00000000000E+00  0.11021508635E+03  0.11021508635E+03  0.00000000000E+00 0.  1.
         13   -1    0    0    0    0 -0.00000000000E+00 -0.00000000000E+00 -0.10000000000E+04  0.10000000000E+04  0.00000000000E+00 0.  1.
    9000005    2    1    2  501    0  0.37432234032E-05 -0.69754065748E-04 -0.88978511652E+03  0.11102148718E+04  0.66397252048E+03 0.  0.
         13    1    3    3    0    0  0.22441023537E+01  0.18776772254E+03 -0.90266720832E+03  0.92199232242E+03  0.00000000000E+00 0.  1.
          1    1    3    3  501    0 -0.22440986105E+01 -0.18776779229E+03  0.12882091798E+02  0.18822254937E+03  0.00000000000E+00 0.  1.
         21    1    1    2  502  501 -0.37432234036E-05  0.69754065766E-04  0.20287350885E-03  0.21456304902E-03  0.00000000000E+00 0.  1.
<mgrwt>
<rscale>  1 0.66397252E+03</rscale>
<asrwt>0</asrwt>
<pdfrwt beam="1">  1        3 0.40078298E+00 0.66397252E+03</pdfrwt>
<pdfrwt beam="2">0</pdfrwt>
<totfact> 0.58542371E-02</totfact>
</mgrwt>
</event>
<event>
 6    1  0.5555421E-003  0.6390192E+03  0.7818608E-02  0.9827605E-01
          1   -1    0    0  502    0  0.00000000000E+00  0.00000000000E+00  0.10216774218E+03  0.10216774218E+03  0.00000000000E+00 0.  1.
         13   -1    0    0    0    0 -0.00000000000E+00 -0.00000000000E+00 -0.10000000000E+04  0.10000000000E+04  0.00000000000E+00 0.  1.
    9000005    2    1    2  501    0 -0.68655136953E-02  0.59850314618E-02 -0.89791333121E+03  0.11020861588E+04  0.63901921014E+03 0.  0.
         13    1    3    3    0    0 -0.19489885909E+03 -0.13050655313E+03 -0.82312969005E+03  0.85589719729E+03  0.00000000000E+00 0.  1.
          1    1    3    3  501    0  0.19489199357E+03  0.13051253816E+03 -0.74783641165E+02  0.24618896150E+03  0.00000000000E+00 0.  1.
         21    1    1    2  502  501  0.68655136953E-02 -0.59850314618E-02  0.81073397122E-01  0.81583402728E-01  0.00000000000E+00 0. -1.
<mgrwt>
<rscale>  1 0.63901921E+03</rscale>
<asrwt>0</asrwt>
<pdfrwt beam="1">  1        1 0.37151985E+00 0.63901921E+03</pdfrwt>
<pdfrwt beam="2">0</pdfrwt>
<totfact> 0.17919134E+00</totfact>
</mgrwt>
</event>
<event>
 6    1  0.5555421E-003  0.6554603E+03  0.7818608E-02  0.9796587E-01
          1   -1    0    0  502    0  0.00000000000E+00  0.00000000000E+00  0.10740704373E+03  0.10740704373E+03  0.00000000000E+00 0.  1.
         13   -1    0    0    0    0 -0.00000000000E+00 -0.00000000000E+00 -0.10000000000E+04  0.10000000000E+04  0.00000000000E+00 0.  1.
    9000005    2    1    2  501    0  0.78116437408E-06 -0.14492586473E-05 -0.89259296292E+03  0.11074070369E+04  0.65546025651E+03 0.  0.
         13    1    3    3    0    0 -0.16821945851E+03 -0.73245544349E+02 -0.90509844149E+03  0.92350738209E+03  0.00000000000E+00 0.  1.
          1    1    3    3  501    0  0.16821945929E+03  0.73245542900E+02  0.12505478564E+02  0.18389965479E+03  0.00000000000E+00 0.  1.
         21    1    1    2  502  501 -0.78116437078E-06  0.14492586525E-05  0.66501963590E-05  0.68509619784E-05  0.00000000000E+00 0.  1.
<mgrwt>
<rscale>  1 0.65546026E+03</rscale>
<asrwt>0</asrwt>
<pdfrwt beam="1">  1        1 0.39057189E+00 0.65546026E+03</pdfrwt>
<pdfrwt beam="2">0</pdfrwt>
<totfact> 0.14719464E+00</totfact>
</mgrwt>
</event>
<event>
 6    1  0.5555421E-003  0.6413817E+03  0.7818608E-02  0.9823087E-01
          1   -1    0    0  502    0  0.00000000000E+00  0.00000000000E+00  0.10284268229E+03  0.10284268229E+03  0.00000000000E+00 0.  1.
         13   -1    0    0    0    0 -0.00000000000E+00 -0.00000000000E+00 -0.10000000000E+04  0.10000000000E+04  0.00000000000E+00 0.  1.
    9000005    2    1    2  501    0 -0.15727736019E-03  0.52336856129E-04 -0.89715703081E+03  0.11028423509E+04  0.64138172183E+03 0.  0.
         13    1    3    3    0    0 -0.15983178619E+03 -0.11317694667E+03 -0.88522947641E+03  0.90663468224E+03  0.00000000000E+00 0.  1.
          3    1    3    3  501    0  0.15983162892E+03  0.11317699900E+03 -0.11927554404E+02  0.19620766871E+03  0.00000000000E+00 0.  1.
         21    1    1    2  502  501  0.15727736017E-03 -0.52336856128E-04 -0.28690020763E-03  0.33134127975E-03  0.00000000000E+00 0. -1.
<mgrwt>
<rscale>  1 0.64138172E+03</rscale>
<asrwt>0</asrwt>
<pdfrwt beam="1">  1        1 0.37397418E+00 0.64138172E+03</pdfrwt>
<pdfrwt beam="2">0</pdfrwt>
<totfact> 0.17471787E+00</totfact>
</mgrwt>
</event>
<event>
 6    1  0.5555421E-003  0.6506713E+03  0.7818608E-02  0.9805520E-01
          1   -1    0    0  502    0  0.00000000000E+00  0.00000000000E+00  0.10781108685E+03  0.10781108685E+03  0.00000000000E+00 0.  1.
         13   -1    0    0    0    0 -0.00000000000E+00 -0.00000000000E+00 -0.10000000000E+04  0.10000000000E+04  0.00000000000E+00 0.  1.
    9000005    2    1    2  501    0 -0.34372517162E+00  0.11198768951E-01 -0.89414008530E+03  0.11058298385E+04  0.65067120823E+03 0.  0.
         13    1    3    3    0    0 -0.11766948069E+03  0.29179763352E+03 -0.58828371383E+03  0.66713543870E+03  0.00000000000E+00 0.  1.
          3    1    3    3  501    0  0.11732575551E+03 -0.29178643475E+03 -0.30585637147E+03  0.43869439976E+03  0.00000000000E+00 0.  1.
         21    1    1    2  502  501  0.34372517162E+00 -0.11198768951E-01  0.19511721471E+01  0.19812483826E+01  0.00000000000E+00 0. -1.
<mgrwt>
<rscale>  1 0.65067130E+03</rscale>
<asrwt>0</asrwt>
<pdfrwt beam="1">  1        1 0.39204114E+00 0.65067130E+03</pdfrwt>
<pdfrwt beam="2">0</pdfrwt>
<totfact> 0.14513087E+00</totfact>
</mgrwt>
</event>
<event>
 6    1  0.5555421E-003  0.6312233E+03  0.7818608E-02  0.9842664E-01
          3   -1    0    0  502    0  0.00000000000E+00  0.00000000000E+00  0.10368771017E+03  0.10368771017E+03  0.00000000000E+00 0.  1.
         13   -1    0    0    0    0 -0.00000000000E+00 -0.00000000000E+00 -0.10000000000E+04  0.10000000000E+04  0.00000000000E+00 0.  1.
    9000005    2    1    2  501    0 -0.55560349572E+01 -0.49652543966E+00 -0.89818239457E+03  0.10978043987E+04  0.63119867543E+03 0.  0.
         13    1    3    3    0    0  0.16403305959E+02  0.29581528926E+03 -0.63568488053E+03  0.70133517033E+03  0.00000000000E+00 0.  1.
          3    1    3    3  501    0 -0.21959340916E+02 -0.29631181470E+03 -0.26249751404E+03  0.39646922838E+03  0.00000000000E+00 0.  1.
         21    1    1    2  502  501  0.55560349572E+01  0.49652543966E+00  0.18701047382E+01  0.58833114561E+01  0.00000000000E+00 0. -1.
<mgrwt>
<rscale>  1 0.63122332E+03</rscale>
<asrwt>0</asrwt>
<pdfrwt beam="1">  1        3 0.37704701E+00 0.63122332E+03</pdfrwt>
<pdfrwt beam="2">0</pdfrwt>
<totfact> 0.78484727E-02</totfact>
</mgrwt>
</event>
<event>
 6    1  0.5555421E-003  0.6206467E+03  0.7818608E-02  0.9863473E-01
          1   -1    0    0  502    0  0.00000000000E+00  0.00000000000E+00  0.97541942379E+02  0.97541942379E+02  0.00000000000E+00 0.  1.
         13   -1    0    0    0    0 -0.00000000000E+00 -0.00000000000E+00 -0.10000000000E+04  0.10000000000E+04  0.00000000000E+00 0.  1.
    9000005    2    1    2  501    0 -0.37063115188E+00 -0.15985189488E+00 -0.90366336829E+03  0.10962708429E+04  0.62064652975E+03 0.  0.
         13    1    3    3    0    0  0.23001994324E+03  0.11426888923E+02 -0.84612917978E+02  0.24535503656E+03  0.00000000000E+00 0.  1.
          1    1    3    3  501    0 -0.23039057439E+03 -0.11586740818E+02 -0.81905045031E+03  0.85091580634E+03  0.00000000000E+00 0.  1.
         21    1    1    2  502  501  0.37063115188E+00  0.15985189488E+00  0.12053106660E+01  0.12710994770E+01  0.00000000000E+00 0. -1.
<mgrwt>
<rscale>  1 0.62064666E+03</rscale>
<asrwt>0</asrwt>
<pdfrwt beam="1">  1        1 0.35469872E+00 0.62064666E+03</pdfrwt>
<pdfrwt beam="2">0</pdfrwt>
<totfact> 0.21302110E+00</totfact>
</mgrwt>
</event>
<event>
 6    1  0.5555421E-003  0.6444698E+03  0.7818608E-02  0.9817212E-01
          1   -1    0    0  502    0  0.00000000000E+00  0.00000000000E+00  0.10395320310E+03  0.10395320310E+03  0.00000000000E+00 0.  1.
         13   -1    0    0    0    0 -0.00000000000E+00 -0.00000000000E+00 -0.10000000000E+04  0.10000000000E+04  0.00000000000E+00 0.  1.
    9000005    2    1    2  501    0  0.53313457196E-01  0.32852304061E-01 -0.89615542486E+03  0.11038278172E+04  0.64446978246E+03 0.  0.
         13    1    3    3    0    0 -0.90982334492E+02 -0.30151985321E+03 -0.56457158765E+03  0.64647744327E+03  0.00000000000E+00 0.  1.
          3    1    3    3  501    0  0.91035647949E+02  0.30155270551E+03 -0.33158383721E+03  0.45735037390E+03  0.00000000000E+00 0.  1.
         21    1    1    2  502  501 -0.53313457196E-01 -0.32852304061E-01  0.10862796001E+00  0.12538593340E+00  0.00000000000E+00 0.  1.
<mgrwt>
<rscale>  1 0.64446979E+03</rscale>
<asrwt>0</asrwt>
<pdfrwt beam="1">  1        1 0.37801244E+00 0.64446979E+03</pdfrwt>
<pdfrwt beam="2">0</pdfrwt>
<totfact> 0.16761308E+00</totfact>
</mgrwt>
</event>
<event>
 6    1  0.5555421E-003  0.6586385E+03  0.7818608E-02  0.9790703E-01
          3   -1    0    0  502    0  0.00000000000E+00  0.00000000000E+00  0.10845819453E+03  0.10845819453E+03  0.00000000000E+00 0.  1.
         13   -1    0    0    0    0 -0.00000000000E+00 -0.00000000000E+00 -0.10000000000E+04  0.10000000000E+04  0.00000000000E+00 0.  1.
    9000005    2    1    2  501    0  0.40477891389E-04 -0.40154971602E-03 -0.89154883340E+03  0.11084511550E+04  0.65863847499E+03 0.  0.
         13    1    3    3    0    0 -0.32010772294E+03 -0.27907274428E+02 -0.56717270513E+03  0.65186858161E+03  0.00000000000E+00 0.  1.
          3    1    3    3  501    0  0.32010776341E+03  0.27906872878E+02 -0.32437612827E+03  0.45658257341E+03  0.00000000000E+00 0.  1.
         21    1    1    2  502  501 -0.40477891427E-04  0.40154971603E-03  0.70279285521E-02  0.70395071111E-02  0.00000000000E+00 0. -1.
<mgrwt>
<rscale>  1 0.65863847E+03</rscale>
<asrwt>0</asrwt>
<pdfrwt beam="1">  1        3 0.39439427E+00 0.65863847E+03</pdfrwt>
<pdfrwt beam="2">0</pdfrwt>
<totfact> 0.63296266E-02</totfact>
</mgrwt>
</event>
<event>
 6    1  0.5555421E-003  0.6443454E+03  0.7818608E-02  0.9817448E-01
          1   -1    0    0  502    0  0.00000000000E+00  0.00000000000E+00  0.10379782298E+03  0.10379782298E+03  0.00000000000E+00 0.  1.
         13   -1    0    0    0    0 -0.00000000000E+00 -0.00000000000E+00 -0.10000000000E+04  0.10000000000E+04  0.00000000000E+00 0.  1.
    9000005    2    1    2  501    0  0.22906288763E-03  0.59135059126E-03 -0.89620471236E+03  0.11037952095E+04  0.64434538728E+03 0.  0.
         13    1    3    3    0    0  0.27972320562E+03 -0.63789189061E+02 -0.19703032847E+03  0.34804465624E+03  0.00000000000E+00 0.  1.
          3    1    3    3  501    0 -0.27972297655E+03  0.63789780412E+02 -0.69917438390E+03  0.75575055329E+03  0.00000000000E+00 0.  1.
         21    1    1    2  502  501 -0.22906288766E-03 -0.59135059127E-03  0.25353430315E-02  0.26134516670E-02  0.00000000000E+00 0.  1.
<mgrwt>
<rscale>  1 0.64434539E+03</rscale>
<asrwt>0</asrwt>
<pdfrwt beam="1">  1        1 0.37744742E+00 0.64434539E+03</pdfrwt>
<pdfrwt beam="2">0</pdfrwt>
<totfact> 0.16858079E+00</totfact>
</mgrwt>
</event>
