<event>
 6    1  0.1866504E-003  0.6543583E+03  0.7818608E-02  0.9798635E-01
          1   -1    0    0  502    0  0.00000000000E+00  0.00000000000E+00  0.10735291339E+03  0.10735291339E+03  0.00000000000E+00 0.  1.
         13   -1    0    0    0    0 -0.00000000000E+00 -0.00000000000E+00 -0.10000000000E+04  0.10000000000E+04  0.00000000000E+00 0.  1.
    9000005    2    1    2  501    0  0.10861947499E+00  0.11849104855E+00 -0.89293030570E+03  0.11070272581E+04  0.65435830666E+03 0.  0.
         13    1    3    3    0    0  0.19944100444E+02 -0.32643028626E+03 -0.45895641961E+03  0.56355611436E+03  0.00000000000E+00 0.  1.
          3    1    3    3  501    0 -0.19835480969E+02  0.32654877731E+03 -0.43397388609E+03  0.54347114374E+03  0.00000000000E+00 0.  1.
         21    1    1    2  502  501 -0.10861947499E+00 -0.11849104855E+00  0.28321908934E+00  0.32565529553E+00  0.00000000000E+00 0. -1.
<mgrwt>
<rscale>  1 0.65435833E+03</rscale>
<asrwt>0</asrwt>
<pdfrwt beam="1">  1        1 0.39037505E+00 0.65435833E+03</pdfrwt>
<pdfrwt beam="2">0</pdfrwt>
<totfact> 0.14752103E+00</totfact>
</mgrwt>
</event>
<event>
 6    1  0.1866504E-003  0.6404696E+03  0.7818608E-02  0.9824828E-01
          1   -1    0    0  502    0  0.00000000000E+00  0.00000000000E+00  0.10273239343E+03  0.10273239343E+03  0.00000000000E+00 0.  1.
         13   -1    0    0    0    0 -0.00000000000E+00 -0.00000000000E+00 -0.10000000000E+04  0.10000000000E+04  0.00000000000E+00 0.  1.
    9000005    2    1    2  501    0  0.58572421296E-01 -0.53132522085E-01 -0.89744014980E+03  0.11025425910E+04  0.64046962165E+03 0.  0.
         13    1    3    3    0    0  0.19829186180E+03 -0.21927001554E+03 -0.23671260040E+03  0.37872398572E+03  0.00000000000E+00 0.  1.
          1    1    3    3  501    0 -0.19823328938E+03  0.21921688302E+03 -0.66072754941E+03  0.72381860529E+03  0.00000000000E+00 0.  1.
         21    1    1    2  502  501 -0.58572421296E-01  0.53132522085E-01  0.17254322543E+00  0.18980241853E+00  0.00000000000E+00 0.  1.
<mgrwt>
<rscale>  1 0.64046963E+03</rscale>
<asrwt>0</asrwt>
<pdfrwt beam="1">  1        1 0.37357313E+00 0.64046963E+03</pdfrwt>
<pdfrwt beam="2">0</pdfrwt>
<totfact> 0.17545837E+00</totfact>
</mgrwt>
</event>
<event>
 6    1  0.1866504E-003  0.6636066E+03  0.7818608E-02  0.9781577E-01
          1   -1    0    0  502    0  0.00000000000E+00  0.00000000000E+00  0.11011431694E+03  0.11011431694E+03  0.00000000000E+00 0.  1.
         13   -1    0    0    0    0 -0.00000000000E+00 -0.00000000000E+00 -0.10000000000E+04  0.10000000000E+04  0.00000000000E+00 0.  1.
    9000005    2    1    2  501    0  0.10034099202E-01 -0.33324361652E-02 -0.88990508089E+03  0.11100922248E+04  0.66360658104E+03 0.  0.
         13    1    3    3    0    0  0.86689611827E+02  0.36531980745E+02  0.87318523567E+02  0.12835185614E+03  0.00000000000E+00 0.  1.
          1    1    3    3  501    0 -0.86679577728E+02 -0.36535313182E+02 -0.97722360445E+03  0.98174036863E+03  0.00000000000E+00 0.  1.
         21    1    1    2  502  501 -0.10034099202E-01  0.33324361652E-02  0.19397828684E-01  0.22092171357E-01  0.00000000000E+00 0. -1.
<mgrwt>
<rscale>  1 0.66360658E+03</rscale>
<asrwt>0</asrwt>
<pdfrwt beam="1">  1        1 0.40041654E+00 0.66360658E+03</pdfrwt>
<pdfrwt beam="2">0</pdfrwt>
<totfact> 0.13287482E+00</totfact>
</mgrwt>
</event>
<event>
 6    1  0.1866504E-003  0.6495575E+03  0.7818608E-02  0.9807610E-01
          1   -1    0    0  502    0  0.00000000000E+00  0.00000000000E+00  0.10587438476E+03  0.10587438476E+03  0.00000000000E+00 0.  1.
         13   -1    0    0    0    0 -0.00000000000E+00 -0.00000000000E+00 -0.10000000000E+04  0.10000000000E+04  0.00000000000E+00 0.  1.
    9000005    2    1    2  501    0 -0.91071412038E+00  0.12753663340E+00 -0.89379819210E+03  0.11048982333E+04  0.64955681201E+03 0.  0.
         13    1    3    3    0    0  0.16015779030E+03  0.28781549234E+02 -0.92427192212E+03  0.93848680406E+03  0.00000000000E+00 0.  1.
          1    1    3    3  501    0 -0.16106850442E+03 -0.28654012600E+02  0.30473730020E+02  0.16641142922E+03  0.00000000000E+00 0.  1.
         21    1    1    2  502  501  0.91071412038E+00 -0.12753663340E+00 -0.32742314438E+00  0.97615148281E+00  0.00000000000E+00 0.  1.
<mgrwt>
<rscale>  1 0.64955746E+03</rscale>
<asrwt>0</asrwt>
<pdfrwt beam="1">  1        1 0.38499857E+00 0.64955746E+03</pdfrwt>
<pdfrwt beam="2">0</pdfrwt>
<totfact> 0.15597467E+00</totfact>
</mgrwt>
</event>
<event>
 6    1  0.1866504E-003  0.6466404E+03  0.7818608E-02  0.9813104E-01
          1   -1    0    0  502    0  0.00000000000E+00  0.00000000000E+00  0.10670666286E+03  0.10670666286E+03  0.00000000000E+00 0.  1.
         13   -1    0    0    0    0 -0.00000000000E+00 -0.00000000000E+00 -0.10000000000E+04  0.10000000000E+04  0.00000000000E+00 0.  1.
    9000005    2    1    2  501    0 -0.35670968156E+01 -0.31812552007E+01 -0.89204645093E+03  0.11017670992E+04  0.64662278464E+03 0.  0.
         13    1    3    3    0    0 -0.20769116571E+03  0.21601815112E+03 -0.65324451005E+03  0.71869872119E+03  0.00000000000E+00 0.  1.
          1    1    3    3  501    0  0.20412406889E+03 -0.21919940632E+03 -0.23880194088E+03  0.38306837797E+03  0.00000000000E+00 0.  1.
         21    1    1    2  502  501  0.35670968156E+01  0.31812552007E+01 -0.12468862042E+01  0.49395637003E+01  0.00000000000E+00 0. -1.
<mgrwt>
<rscale>  1 0.64664045E+03</rscale>
<asrwt>0</asrwt>
<pdfrwt beam="1">  1        1 0.38802505E+00 0.64664045E+03</pdfrwt>
<pdfrwt beam="2">0</pdfrwt>
<totfact> 0.15131919E+00</totfact>
</mgrwt>
</event>
<event>
 6    1  0.1866504E-003  0.6408237E+03  0.7818608E-02  0.9824152E-01
          1   -1    0    0  502    0  0.00000000000E+00  0.00000000000E+00  0.10405531342E+03  0.10405531342E+03  0.00000000000E+00 0.  1.
         13   -1    0    0    0    0 -0.00000000000E+00 -0.00000000000E+00 -0.10000000000E+04  0.10000000000E+04  0.00000000000E+00 0.  1.
    9000005    2    1    2  501    0  0.11726157173E+01 -0.26296358581E+01 -0.89545709237E+03  0.11011350805E+04  0.64081726814E+03 0.  0.
         13    1    3    3    0    0 -0.19510829643E+02  0.31535050450E+03 -0.36935003948E+03  0.48605150430E+03  0.00000000000E+00 0.  1.
          3    1    3    3  501    0  0.20683445361E+02 -0.31798014036E+03 -0.52610705289E+03  0.61508357617E+03  0.00000000000E+00 0.  1.
         21    1    1    2  502  501 -0.11726157173E+01  0.26296358581E+01 -0.48759421081E+00  0.29202329498E+01  0.00000000000E+00 0. -1.
<mgrwt>
<rscale>  1 0.64082374E+03</rscale>
<asrwt>0</asrwt>
<pdfrwt beam="1">  1        1 0.37838376E+00 0.64082374E+03</pdfrwt>
<pdfrwt beam="2">0</pdfrwt>
<totfact> 0.16709466E+00</totfact>
</mgrwt>
</event>
<event>
 6    1  0.1866504E-003  0.6400193E+03  0.7818608E-02  0.9825690E-01
          1   -1    0    0  502    0  0.00000000000E+00  0.00000000000E+00  0.10376761958E+03  0.10376761958E+03  0.00000000000E+00 0.  1.
         13   -1    0    0    0    0 -0.00000000000E+00 -0.00000000000E+00 -0.10000000000E+04  0.10000000000E+04  0.00000000000E+00 0.  1.
    9000005    2    1    2  501    0  0.29654907867E+01 -0.64189658562E+00 -0.89540122677E+03  0.11006216725E+04  0.64001211148E+03 0.  0.
         13    1    3    3    0    0  0.27017740876E+03 -0.36184311645E+02 -0.74195035188E+03  0.79044004281E+03  0.00000000000E+00 0.  1.
          3    1    3    3  501    0 -0.26721191797E+03  0.35542415059E+02 -0.15345087489E+03  0.31018162966E+03  0.00000000000E+00 0.  1.
         21    1    1    2  502  501 -0.29654907867E+01  0.64189658562E+00 -0.83115364767E+00  0.31459471100E+01  0.00000000000E+00 0.  1.
<mgrwt>
<rscale>  1 0.64001930E+03</rscale>
<asrwt>0</asrwt>
<pdfrwt beam="1">  1        1 0.37733759E+00 0.64001930E+03</pdfrwt>
<pdfrwt beam="2">0</pdfrwt>
<totfact> 0.16890304E+00</totfact>
</mgrwt>
</event>
<event>
 6    1  0.1866504E-003  0.6584284E+03  0.7818608E-02  0.9791091E-01
          3   -1    0    0  502    0  0.00000000000E+00  0.00000000000E+00  0.10838381517E+03  0.10838381517E+03  0.00000000000E+00 0.  1.
         13   -1    0    0    0    0 -0.00000000000E+00 -0.00000000000E+00 -0.10000000000E+04  0.10000000000E+04  0.00000000000E+00 0.  1.
    9000005    2    1    2  501    0  0.12738116467E-04  0.29335340571E-04 -0.89161800450E+03  0.11083819952E+04  0.65842841781E+03 0.  0.
         13    1    3    3    0    0  0.46729438657E+02  0.32341333410E+03 -0.37842815648E+03  0.49998769457E+03  0.00000000000E+00 0.  1.
          3    1    3    3  501    0 -0.46729425919E+02 -0.32341330476E+03 -0.51318984802E+03  0.60839430065E+03  0.00000000000E+00 0.  1.
         21    1    1    2  502  501 -0.12738116468E-04 -0.29335340594E-04  0.18196715290E-02  0.18199525530E-02  0.00000000000E+00 0. -1.
<mgrwt>
<rscale>  1 0.65842842E+03</rscale>
<asrwt>0</asrwt>
<pdfrwt beam="1">  1        3 0.39412380E+00 0.65842842E+03</pdfrwt>
<pdfrwt beam="2">0</pdfrwt>
<totfact> 0.63505963E-02</totfact>
</mgrwt>
</event>
<event>
 6    1  0.1866504E-003  0.6354742E+03  0.7818608E-02  0.9834424E-01
          1   -1    0    0  502    0  0.00000000000E+00  0.00000000000E+00  0.11064060798E+03  0.11064060798E+03  0.00000000000E+00 0.  1.
         13   -1    0    0    0    0 -0.00000000000E+00 -0.00000000000E+00 -0.10000000000E+04  0.10000000000E+04  0.00000000000E+00 0.  1.
    9000005    2    1    2  501    0  0.25232338006E+01 -0.23730074570E+02 -0.87893660249E+03  0.10845999150E+04  0.63502593753E+03 0.  0.
         13    1    3    3    0    0 -0.15077584396E+03 -0.13465565507E+03 -0.17817306684E+02  0.20293584450E+03  0.00000000000E+00 0.  1.
          3    1    3    3  501    0  0.15329907776E+03  0.11092558050E+03 -0.86111929580E+03  0.88166407053E+03  0.00000000000E+00 0.  1.
         21    1    1    2  502  501 -0.25232338006E+01  0.23730074570E+02 -0.10422789532E+02  0.26040692954E+02  0.00000000000E+00 0.  1.
<mgrwt>
<rscale>  1 0.63547417E+03</rscale>
<asrwt>0</asrwt>
<pdfrwt beam="1">  1        1 0.40233033E+00 0.63547417E+03</pdfrwt>
<pdfrwt beam="2">0</pdfrwt>
<totfact> 0.13099036E+00</totfact>
</mgrwt>
</event>
<event>
 6    1  0.1866504E-003  0.6493048E+03  0.7818608E-02  0.9808084E-01
          1   -1    0    0  502    0  0.00000000000E+00  0.00000000000E+00  0.10539954339E+03  0.10539954339E+03  0.00000000000E+00 0.  1.
         13   -1    0    0    0    0 -0.00000000000E+00 -0.00000000000E+00 -0.10000000000E+04  0.10000000000E+04  0.00000000000E+00 0.  1.
    9000005    2    1    2  501    0 -0.20627736575E-03 -0.43463914608E-04 -0.89460077083E+03  0.11053991650E+04  0.64930483967E+03 0.  0.
         13    1    3    3    0    0 -0.28477908751E+03 -0.66844510762E+02 -0.20755357730E+03  0.35867228043E+03  0.00000000000E+00 0.  1.
          1    1    3    3  501    0  0.28477888123E+03  0.66844467298E+02 -0.68704719354E+03  0.74672688457E+03  0.00000000000E+00 0.  1.
         21    1    1    2  502  501  0.20627736575E-03  0.43463914618E-04  0.31422861386E-03  0.37839012310E-03  0.00000000000E+00 0.  1.
<mgrwt>
<rscale>  1 0.64930484E+03</rscale>
<asrwt>0</asrwt>
<pdfrwt beam="1">  1        1 0.38327188E+00 0.64930484E+03</pdfrwt>
<pdfrwt beam="2">0</pdfrwt>
<totfact> 0.15874808E+00</totfact>
</mgrwt>
</event>
<event>
 6    1  0.1866504E-003  0.5980466E+03  0.7818608E-02  0.9909467E-01
          1   -1    0    0  502    0  0.00000000000E+00  0.00000000000E+00  0.89419773337E+02  0.89419773337E+02  0.00000000000E+00 0.  1.
         13   -1    0    0    0    0 -0.00000000000E+00 -0.00000000000E+00 -0.10000000000E+04  0.10000000000E+04  0.00000000000E+00 0.  1.
    9000005    2    1    2  501    0 -0.85987219060E-02  0.12938423900E-01 -0.91056376608E+03  0.10893971395E+04  0.59804661621E+03 0.  0.
         13    1    3    3    0    0  0.15142514153E+02 -0.28971565219E+03 -0.32332778278E+03  0.43440224444E+03  0.00000000000E+00 0.  1.
          1    1    3    3  501    0 -0.15151112874E+02  0.28972859061E+03 -0.58723598330E+03  0.65499489503E+03  0.00000000000E+00 0.  1.
         21    1    1    2  502  501  0.85987219060E-02 -0.12938423900E-01 -0.16460584954E-01  0.22633861545E-01  0.00000000000E+00 0. -1.
<mgrwt>
<rscale>  1 0.59804662E+03</rscale>
<asrwt>0</asrwt>
<pdfrwt beam="1">  1        1 0.32516350E+00 0.59804662E+03</pdfrwt>
<pdfrwt beam="2">0</pdfrwt>
<totfact> 0.28738507E+00</totfact>
</mgrwt>
</event>
<event>
 6    1  0.1866504E-003  0.6501476E+03  0.7818608E-02  0.9806502E-01
          1   -1    0    0  502    0  0.00000000000E+00  0.00000000000E+00  0.10567306642E+03  0.10567306642E+03  0.00000000000E+00 0.  1.
         13   -1    0    0    0    0 -0.00000000000E+00 -0.00000000000E+00 -0.10000000000E+04  0.10000000000E+04  0.00000000000E+00 0.  1.
    9000005    2    1    2  501    0  0.11132175274E-04  0.64419156445E-05 -0.89432704000E+03  0.11056729592E+04  0.65014755116E+03 0.  0.
         13    1    3    3    0    0  0.16448372987E+03 -0.10210543441E+03 -0.30610383656E+01  0.19362279588E+03  0.00000000000E+00 0.  1.
          3    1    3    3  501    0 -0.16448371874E+03  0.10210544085E+03 -0.89126600164E+03  0.91205016334E+03  0.00000000000E+00 0.  1.
         21    1    1    2  502  501 -0.11132175279E-04 -0.64419156433E-05  0.10642192262E-03  0.10719631159E-03  0.00000000000E+00 0. -1.
<mgrwt>
<rscale>  1 0.65014755E+03</rscale>
<asrwt>0</asrwt>
<pdfrwt beam="1">  1        1 0.38426651E+00 0.65014755E+03</pdfrwt>
<pdfrwt beam="2">0</pdfrwt>
<totfact> 0.15712461E+00</totfact>
</mgrwt>
</event>
<event>
 6    1  0.1866504E-003  0.6548595E+03  0.7818608E-02  0.9797703E-01
          1   -1    0    0  502    0  0.00000000000E+00  0.00000000000E+00  0.10732909222E+03  0.10732909222E+03  0.00000000000E+00 0.  1.
         13   -1    0    0    0    0 -0.00000000000E+00 -0.00000000000E+00 -0.10000000000E+04  0.10000000000E+04  0.00000000000E+00 0.  1.
    9000005    2    1    2  501    0  0.94802557633E-01 -0.50305567476E-01 -0.89276233600E+03  0.11071881054E+04  0.65485945098E+03 0.  0.
         13    1    3    3    0    0 -0.12768737752E+03 -0.11080641344E+02  0.63031044335E+02  0.14282772679E+03  0.00000000000E+00 0.  1.
          3    1    3    3  501    0  0.12778218008E+03  0.11030335777E+02 -0.95579338034E+03  0.96436037857E+03  0.00000000000E+00 0.  1.
         21    1    1    2  502  501 -0.94802557633E-01  0.50305567476E-01  0.91428223633E-01  0.14098686155E+00  0.00000000000E+00 0. -1.
<mgrwt>
<rscale>  1 0.65485946E+03</rscale>
<asrwt>0</asrwt>
<pdfrwt beam="1">  1        1 0.39028843E+00 0.65485946E+03</pdfrwt>
<pdfrwt beam="2">0</pdfrwt>
<totfact> 0.14763787E+00</totfact>
</mgrwt>
</event>
<event>
 6    1  0.1866504E-003  0.6324144E+03  0.7818608E-02  0.9840349E-01
          1   -1    0    0  502    0  0.00000000000E+00  0.00000000000E+00  0.10000441608E+03  0.10000441608E+03  0.00000000000E+00 0.  1.
         13   -1    0    0    0    0 -0.00000000000E+00 -0.00000000000E+00 -0.10000000000E+04  0.10000000000E+04  0.00000000000E+00 0.  1.
    9000005    2    1    2  501    0  0.52330082385E-02  0.10658295647E-02 -0.90001255728E+03  0.10999866224E+04  0.63241439434E+03 0.  0.
         13    1    3    3    0    0 -0.67193128570E+01 -0.24569331108E+03 -0.10398379221E+03  0.26687634087E+03  0.00000000000E+00 0.  1.
          1    1    3    3  501    0  0.67245458652E+01  0.24569437691E+03 -0.79602876507E+03  0.83311028152E+03  0.00000000000E+00 0.  1.
         21    1    1    2  502  501 -0.52330082385E-02 -0.10658295647E-02  0.16973352343E-01  0.17793680273E-01  0.00000000000E+00 0.  1.
<mgrwt>
<rscale>  1 0.63241439E+03</rscale>
<asrwt>0</asrwt>
<pdfrwt beam="1">  1        1 0.36365319E+00 0.63241439E+03</pdfrwt>
<pdfrwt beam="2">0</pdfrwt>
<totfact> 0.19424566E+00</totfact>
</mgrwt>
</event>
<event>
 6    1  0.1866504E-003  0.6273567E+03  0.7818608E-02  0.9850221E-01
          1   -1    0    0  502    0  0.00000000000E+00  0.00000000000E+00  0.12342356388E+03  0.12342356388E+03  0.00000000000E+00 0.  1.
         13   -1    0    0    0    0 -0.00000000000E+00 -0.00000000000E+00 -0.10000000000E+04  0.10000000000E+04  0.00000000000E+00 0.  1.
    9000005    2    1    2  501    0  0.26457538750E+00  0.47669837007E+00 -0.90160264008E+03  0.10983914220E+04  0.62735643628E+03 0.  0.
         13    1    3    3    0    0 -0.51101719400E+02  0.75542348105E+02  0.74681929529E+02  0.11787884747E+03  0.00000000000E+00 0.  1.
          3    1    3    3  501    0  0.51366294787E+02 -0.75065649735E+02 -0.97628456960E+03  0.98051257455E+03  0.00000000000E+00 0.  1.
         21    1    1    2  502  501 -0.26457538750E+00 -0.47669837007E+00  0.25026203959E+02  0.25032141859E+02  0.00000000000E+00 0. -1.
<mgrwt>
<rscale>  1 0.62735667E+03</rscale>
<asrwt>0</asrwt>
<pdfrwt beam="1">  1        1 0.44881391E+00 0.62735667E+03</pdfrwt>
<pdfrwt beam="2">0</pdfrwt>
<totfact> 0.80838903E-01</totfact>
</mgrwt>
</event>
<event>
 6    1  0.1866504E-003  0.6632076E+03  0.7818608E-02  0.9782307E-01
          1   -1    0    0  502    0  0.00000000000E+00  0.00000000000E+00  0.10996316539E+03  0.10996316539E+03  0.00000000000E+00 0.  1.
         13   -1    0    0    0    0 -0.00000000000E+00 -0.00000000000E+00 -0.10000000000E+04  0.10000000000E+04  0.00000000000E+00 0.  1.
    9000005    2    1    2  501    0 -0.48605004022E-02  0.31077631513E-03 -0.89003501445E+03  0.11099579660E+04  0.66320762905E+03 0.  0.
         13    1    3    3    0    0  0.29385889640E+03  0.13773117761E+03 -0.55897801984E+03  0.64635853436E+03  0.00000000000E+00 0.  1.
          1    1    3    3  501    0 -0.29386375690E+03 -0.13773086684E+03 -0.33105699460E+03  0.46359943159E+03  0.00000000000E+00 0.  1.
         21    1    1    2  502  501  0.48605004023E-02 -0.31077631513E-03 -0.18201682341E-02  0.51994286685E-02  0.00000000000E+00 0.  1.
<mgrwt>
<rscale>  1 0.66320763E+03</rscale>
<asrwt>0</asrwt>
<pdfrwt beam="1">  1        1 0.39986690E+00 0.66320763E+03</pdfrwt>
<pdfrwt beam="2">0</pdfrwt>
<totfact> 0.13363689E+00</totfact>
</mgrwt>
</event>
<event>
 6    1  0.1866504E-003  0.6041151E+03  0.7818608E-02  0.9896905E-01
          3   -1    0    0  502    0  0.00000000000E+00  0.00000000000E+00  0.91247545578E+02  0.91247545578E+02  0.00000000000E+00 0.  1.
         13   -1    0    0    0    0 -0.00000000000E+00 -0.00000000000E+00 -0.10000000000E+04  0.10000000000E+04  0.00000000000E+00 0.  1.
    9000005    2    1    2  501    0  0.15391496069E-03 -0.48083874213E-03 -0.90876122214E+03  0.10912387633E+04  0.60411512127E+03 0.  0.
         13    1    3    3    0    0  0.25104688473E+03  0.11247730258E+03 -0.22903566433E+03  0.35795672568E+03  0.00000000000E+00 0.  1.
          3    1    3    3  501    0 -0.25104673081E+03 -0.11247778341E+03 -0.67972555781E+03  0.73328203766E+03  0.00000000000E+00 0.  1.
         21    1    1    2  502  501 -0.15391496068E-03  0.48083874213E-03  0.87677146624E-02  0.87822386731E-02  0.00000000000E+00 0. -1.
<mgrwt>
<rscale>  1 0.60411512E+03</rscale>
<asrwt>0</asrwt>
<pdfrwt beam="1">  1        3 0.33180996E+00 0.60411512E+03</pdfrwt>
<pdfrwt beam="2">0</pdfrwt>
<totfact> 0.13716791E-01</totfact>
</mgrwt>
</event>
<event>
 6    1  0.1866504E-003  0.6554285E+03  0.7818608E-02  0.9796646E-01
          1   -1    0    0  502    0  0.00000000000E+00  0.00000000000E+00  0.10743144521E+03  0.10743144521E+03  0.00000000000E+00 0.  1.
         13   -1    0    0    0    0 -0.00000000000E+00 -0.00000000000E+00 -0.10000000000E+04  0.10000000000E+04  0.00000000000E+00 0.  1.
    9000005    2    1    2  501    0  0.19957766017E-03 -0.20786152740E-02 -0.89260333431E+03  0.11073966031E+04  0.65542850415E+03 0.  0.
         13    1    3    3    0    0  0.31509104225E+03 -0.68901801092E+02 -0.34826276763E+03  0.47467544535E+03  0.00000000000E+00 0.  1.
          3    1    3    3  501    0 -0.31509084267E+03  0.68899722477E+02 -0.54434056668E+03  0.63272115772E+03  0.00000000000E+00 0.  1.
         21    1    1    2  502  501 -0.19957766018E-03  0.20786152740E-02  0.34779510681E-01  0.34842141667E-01  0.00000000000E+00 0. -1.
<mgrwt>
<rscale>  1 0.65542850E+03</rscale>
<asrwt>0</asrwt>
<pdfrwt beam="1">  1        1 0.39066062E+00 0.65542850E+03</pdfrwt>
<pdfrwt beam="2">0</pdfrwt>
<totfact> 0.14706215E+00</totfact>
</mgrwt>
</event>
<event>
 6    1  0.1866504E-003  0.6426966E+03  0.7818608E-02  0.9820581E-01
          1   -1    0    0  502    0  0.00000000000E+00  0.00000000000E+00  0.10339356512E+03  0.10339356512E+03  0.00000000000E+00 0.  1.
         13   -1    0    0    0    0 -0.00000000000E+00 -0.00000000000E+00 -0.10000000000E+04  0.10000000000E+04  0.00000000000E+00 0.  1.
    9000005    2    1    2  501    0 -0.72745402215E-01 -0.37502658025E-01 -0.89672078785E+03  0.11032529417E+04  0.64269656551E+03 0.  0.
         13    1    3    3    0    0 -0.60689613571E+02  0.23367400965E+03 -0.81238995422E+03  0.84750469597E+03  0.00000000000E+00 0.  1.
          1    1    3    3  501    0  0.60616868169E+02 -0.23371151231E+03 -0.84330833635E+02  0.25574824573E+03  0.00000000000E+00 0.  1.
         21    1    1    2  502  501  0.72745402215E-01  0.37502658025E-01  0.11435296736E+00  0.14062341216E+00  0.00000000000E+00 0.  1.
<mgrwt>
<rscale>  1 0.64269657E+03</rscale>
<asrwt>0</asrwt>
<pdfrwt beam="1">  1        1 0.37597739E+00 0.64269657E+03</pdfrwt>
<pdfrwt beam="2">0</pdfrwt>
<totfact> 0.17116509E+00</totfact>
</mgrwt>
</event>
<event>
 6    1  0.1866504E-003  0.6594500E+03  0.7818608E-02  0.9789207E-01
          1   -1    0    0  502    0  0.00000000000E+00  0.00000000000E+00  0.11015747950E+03  0.11015747950E+03  0.00000000000E+00 0.  1.
         13   -1    0    0    0    0 -0.00000000000E+00 -0.00000000000E+00 -0.10000000000E+04  0.10000000000E+04  0.00000000000E+00 0.  1.
    9000005    2    1    2  501    0  0.24299397245E+00  0.19283262610E+00 -0.89126287388E+03  0.11087036452E+04  0.65944989671E+03 0.  0.
         13    1    3    3    0    0  0.92851445654E+02 -0.28555103330E+03 -0.67439605943E+03  0.73822139535E+03  0.00000000000E+00 0.  1.
          1    1    3    3  501    0 -0.92608451681E+02  0.28574386592E+03 -0.21686681445E+03  0.37048224984E+03  0.00000000000E+00 0.  1.
         21    1    1    2  502  501 -0.24299397245E+00 -0.19283262610E+00  0.14203533823E+01  0.14538343176E+01  0.00000000000E+00 0.  1.
<mgrwt>
<rscale>  1 0.65944997E+03</rscale>
<asrwt>0</asrwt>
<pdfrwt beam="1">  1        1 0.40057350E+00 0.65944997E+03</pdfrwt>
<pdfrwt beam="2">0</pdfrwt>
<totfact> 0.13276428E+00</totfact>
</mgrwt>
</event>
<event>
 6    1  0.1866504E-003  0.6311777E+03  0.7818608E-02  0.9842753E-01
          1   -1    0    0  502    0  0.00000000000E+00  0.00000000000E+00  0.99596372066E+02  0.99596372066E+02  0.00000000000E+00 0.  1.
         13   -1    0    0    0    0 -0.00000000000E+00 -0.00000000000E+00 -0.10000000000E+04  0.10000000000E+04  0.00000000000E+00 0.  1.
    9000005    2    1    2  501    0  0.24961915273E-04  0.13873466884E-04 -0.90040367418E+03  0.10995963177E+04  0.63117769721E+03 0.  0.
         13    1    3    3    0    0  0.22861078672E+03  0.19774174834E+03 -0.29214083279E+03  0.42037002394E+03  0.00000000000E+00 0.  1.
          3    1    3    3  501    0 -0.22861076176E+03 -0.19774173447E+03 -0.60826284139E+03  0.67922629378E+03  0.00000000000E+00 0.  1.
         21    1    1    2  502  501 -0.24961915289E-04 -0.13873466881E-04  0.46245876448E-04  0.54353025551E-04  0.00000000000E+00 0.  1.
<mgrwt>
<rscale>  1 0.63117770E+03</rscale>
<asrwt>0</asrwt>
<pdfrwt beam="1">  1        1 0.36216939E+00 0.63117770E+03</pdfrwt>
<pdfrwt beam="2">0</pdfrwt>
<totfact> 0.19721749E+00</totfact>
</mgrwt>
</event>
<event>
 6    1  0.1866504E-003  0.6424168E+03  0.7818608E-02  0.9821113E-01
          1   -1    0    0  502    0  0.00000000000E+00  0.00000000000E+00  0.10317515719E+03  0.10317515719E+03  0.00000000000E+00 0.  1.
         13   -1    0    0    0    0 -0.00000000000E+00 -0.00000000000E+00 -0.10000000000E+04  0.10000000000E+04  0.00000000000E+00 0.  1.
    9000005    2    1    2  501    0  0.10012722328E-03 -0.67938303371E-04 -0.89682513950E+03  0.11031748368E+04  0.64241683480E+03 0.  0.
         13    1    3    3    0    0  0.31269081224E+03  0.75384666247E+01 -0.57392887922E+03  0.65362583405E+03  0.00000000000E+00 0.  1.
          3    1    3    3  501    0 -0.31269071211E+03 -0.75385345630E+01 -0.32289626029E+03  0.44954900272E+03  0.00000000000E+00 0.  1.
         21    1    1    2  502  501 -0.10012722323E-03  0.67938303372E-04  0.29669715024E-03  0.32042202306E-03  0.00000000000E+00 0.  1.
<mgrwt>
<rscale>  1 0.64241683E+03</rscale>
<asrwt>0</asrwt>
<pdfrwt beam="1">  1        1 0.37518318E+00 0.64241683E+03</pdfrwt>
<pdfrwt beam="2">0</pdfrwt>
<totfact> 0.17255769E+00</totfact>
</mgrwt>
</event>
<event>
 6    1  0.1866504E-003  0.6434189E+03  0.7818608E-02  0.9819207E-01
          1   -1    0    0  502    0  0.00000000000E+00  0.00000000000E+00  0.10349700544E+03  0.10349700544E+03  0.00000000000E+00 0.  1.
         13   -1    0    0    0    0 -0.00000000000E+00 -0.00000000000E+00 -0.10000000000E+04  0.10000000000E+04  0.00000000000E+00 0.  1.
    9000005    2    1    2  501    0 -0.33249850162E-05  0.74976452566E-05 -0.89650303404E+03  0.11034969651E+04  0.64341888530E+03 0.  0.
         13    1    3    3    0    0 -0.31922035942E+03 -0.15454561146E+02 -0.51141773417E+03  0.60306598325E+03  0.00000000000E+00 0.  1.
          1    1    3    3  501    0  0.31922035609E+03  0.15454568644E+02 -0.38508529987E+03  0.50043098187E+03  0.00000000000E+00 0.  1.
         21    1    1    2  502  501  0.33249850472E-05 -0.74976452563E-05  0.39480760534E-04  0.40323698520E-04  0.00000000000E+00 0.  1.
<mgrwt>
<rscale>  1 0.64341889E+03</rscale>
<asrwt>0</asrwt>
<pdfrwt beam="1">  1        1 0.37635354E+00 0.64341889E+03</pdfrwt>
<pdfrwt beam="2">0</pdfrwt>
<totfact> 0.17049087E+00</totfact>
</mgrwt>
</event>
<event>
 6    1  0.1866504E-003  0.6636878E+03  0.7818608E-02  0.9781429E-01
          1   -1    0    0  502    0  0.00000000000E+00  0.00000000000E+00  0.12441689464E+03  0.12441689464E+03  0.00000000000E+00 0.  1.
         13   -1    0    0    0    0 -0.00000000000E+00 -0.00000000000E+00 -0.10000000000E+04  0.10000000000E+04  0.00000000000E+00 0.  1.
    9000005    2    1    2  501    0 -0.93075420646E+00 -0.15019162771E+01 -0.88981898199E+03  0.11100717826E+04  0.66368548256E+03 0.  0.
         13    1    3    3    0    0 -0.16735003006E+03  0.13666791453E+03 -0.86590228346E+03  0.89245219251E+03  0.00000000000E+00 0.  1.
          1    1    3    3  501    0  0.16641927585E+03 -0.13816983081E+03 -0.23916698533E+02  0.21761959009E+03  0.00000000000E+00 0.  1.
         21    1    1    2  502  501  0.93075420646E+00  0.15019162771E+01  0.14235876631E+02  0.14345112037E+02  0.00000000000E+00 0.  1.
<mgrwt>
<rscale>  1 0.66368783E+03</rscale>
<asrwt>0</asrwt>
<pdfrwt beam="1">  1        1 0.45242603E+00 0.66368783E+03</pdfrwt>
<pdfrwt beam="2">0</pdfrwt>
<totfact> 0.77208537E-01</totfact>
</mgrwt>
</event>
<event>
 6    1  0.1866504E-003  0.6516286E+03  0.7818608E-02  0.9803728E-01
          1   -1    0    0  502    0  0.00000000000E+00  0.00000000000E+00  0.10624150536E+03  0.10624150536E+03  0.00000000000E+00 0.  1.
         13   -1    0    0    0    0 -0.00000000000E+00 -0.00000000000E+00 -0.10000000000E+04  0.10000000000E+04  0.00000000000E+00 0.  1.
    9000005    2    1    2  501    0  0.40063857689E-04 -0.16303240288E-01 -0.89384419987E+03  0.11061542633E+04  0.65162857535E+03 0.  0.
         13    1    3    3    0    0  0.11678415253E+02 -0.28419152598E+03 -0.17714655567E+03  0.33508522946E+03  0.00000000000E+00 0.  1.
          1    1    3    3  501    0 -0.11678375189E+02  0.28417522274E+03 -0.71669764421E+03  0.77106903379E+03  0.00000000000E+00 0.  1.
         21    1    1    2  502  501 -0.40063857689E-04  0.16303240288E-01  0.85705239621E-01  0.87242107652E-01  0.00000000000E+00 0.  1.
<mgrwt>
<rscale>  1 0.65162858E+03</rscale>
<asrwt>0</asrwt>
<pdfrwt beam="1">  1        1 0.38633356E+00 0.65162858E+03</pdfrwt>
<pdfrwt beam="2">0</pdfrwt>
<totfact> 0.15380871E+00</totfact>
</mgrwt>
</event>
<event>
 6    1  0.1866504E-003  0.5056671E+03  0.7818608E-02  0.1012310E+00
          1   -1    0    0  502    0  0.00000000000E+00  0.00000000000E+00  0.64106844378E+02  0.64106844378E+02  0.00000000000E+00 0.  1.
         13   -1    0    0    0    0 -0.00000000000E+00 -0.00000000000E+00 -0.10000000000E+04  0.10000000000E+04  0.00000000000E+00 0.  1.
    9000005    2    1    2  501    0 -0.60940032688E-03  0.25323610670E-02 -0.93607518229E+03  0.10639247991E+04  0.50566711499E+03 0.  0.
         13    1    3    3    0    0  0.23026765780E+03 -0.10337593412E+03 -0.49886012719E+03  0.55908067797E+03  0.00000000000E+00 0.  1.
          3    1    3    3  501    0 -0.23026826720E+03  0.10337846648E+03 -0.43721505510E+03  0.50484412110E+03  0.00000000000E+00 0.  1.
         21    1    1    2  502  501  0.60940032687E-03 -0.25323610670E-02  0.18202666740E+00  0.18204530168E+00  0.00000000000E+00 0. -1.
<mgrwt>
<rscale>  1 0.50566711E+03</rscale>
<asrwt>0</asrwt>
<pdfrwt beam="1">  1        1 0.23311629E+00 0.50566711E+03</pdfrwt>
<pdfrwt beam="2">0</pdfrwt>
<totfact> 0.73123040E+00</totfact>
</mgrwt>
</event>
<event>
 6    1  0.1866504E-003  0.5229104E+03  0.7818608E-02  0.1007966E+00
          1   -1    0    0  502    0  0.00000000000E+00  0.00000000000E+00  0.68462573839E+02  0.68462573839E+02  0.00000000000E+00 0.  1.
         13   -1    0    0    0    0 -0.00000000000E+00 -0.00000000000E+00 -0.10000000000E+04  0.10000000000E+04  0.00000000000E+00 0.  1.
    9000005    2    1    2  501    0  0.90935339800E-03  0.14816692729E-02 -0.93164117279E+03  0.10683588126E+04  0.52291039165E+03 0.  0.
         13    1    3    3    0    0  0.71433930129E+02  0.19913207151E+03 -0.77970752416E+03  0.80789863938E+03  0.00000000000E+00 0.  1.
          1    1    3    3  501    0 -0.71433020775E+02 -0.19913058984E+03 -0.15193364864E+03  0.26046017326E+03  0.00000000000E+00 0.  1.
         21    1    1    2  502  501 -0.90935339800E-03 -0.14816692729E-02  0.10374663319E+00  0.10376119779E+00  0.00000000000E+00 0.  1.
<mgrwt>
<rscale>  1 0.52291039E+03</rscale>
<asrwt>0</asrwt>
<pdfrwt beam="1">  1        1 0.24895534E+00 0.52291039E+03</pdfrwt>
<pdfrwt beam="2">0</pdfrwt>
<totfact> 0.62169091E+00</totfact>
</mgrwt>
</event>
<event>
 6    1  0.1866504E-003  0.6506411E+03  0.7818608E-02  0.9805577E-01
          1   -1    0    0  502    0  0.00000000000E+00  0.00000000000E+00  0.10583348618E+03  0.10583348618E+03  0.00000000000E+00 0.  1.
         13   -1    0    0    0    0 -0.00000000000E+00 -0.00000000000E+00 -0.10000000000E+04  0.10000000000E+04  0.00000000000E+00 0.  1.
    9000005    2    1    2  501    0  0.37573642317E-04 -0.65514489620E-04 -0.89416648563E+03  0.11058334056E+04  0.65064108143E+03 0.  0.
         13    1    3    3    0    0  0.97054403739E+02 -0.30551792135E+03 -0.54129605576E+03  0.62909631817E+03  0.00000000000E+00 0.  1.
          3    1    3    3  501    0 -0.97054366165E+02  0.30551785584E+03 -0.35287042987E+03  0.47673708740E+03  0.00000000000E+00 0.  1.
         21    1    1    2  502  501 -0.37573642318E-04  0.65514489652E-04 -0.28188792359E-04  0.80613491216E-04  0.00000000000E+00 0. -1.
<mgrwt>
<rscale>  1 0.65064108E+03</rscale>
<asrwt>0</asrwt>
<pdfrwt beam="1">  1        1 0.38484985E+00 0.65064108E+03</pdfrwt>
<pdfrwt beam="2">0</pdfrwt>
<totfact> 0.15617983E+00</totfact>
</mgrwt>
</event>
<event>
 6    1  0.1866504E-003  0.6420725E+03  0.7818608E-02  0.9821769E-01
          1   -1    0    0  502    0  0.00000000000E+00  0.00000000000E+00  0.10308134433E+03  0.10308134433E+03  0.00000000000E+00 0.  1.
         13   -1    0    0    0    0 -0.00000000000E+00 -0.00000000000E+00 -0.10000000000E+04  0.10000000000E+04  0.00000000000E+00 0.  1.
    9000005    2    1    2  501    0 -0.27228843341E-02 -0.18361847229E-02 -0.89693553569E+03  0.11030641478E+04  0.64207254962E+03 0.  0.
         13    1    3    3    0    0  0.26122873375E+03 -0.11787542880E+03 -0.19993139706E+03  0.34943902413E+03  0.00000000000E+00 0.  1.
          1    1    3    3  501    0 -0.26123145663E+03  0.11787359262E+03 -0.69700413862E+03  0.75362512367E+03  0.00000000000E+00 0.  1.
         21    1    1    2  502  501  0.27228843341E-02  0.18361847229E-02  0.16880018850E-01  0.17196531912E-01  0.00000000000E+00 0. -1.
<mgrwt>
<rscale>  1 0.64207255E+03</rscale>
<asrwt>0</asrwt>
<pdfrwt beam="1">  1        1 0.37484204E+00 0.64207255E+03</pdfrwt>
<pdfrwt beam="2">0</pdfrwt>
<totfact> 0.17316628E+00</totfact>
</mgrwt>
</event>
<event>
 6    1  0.1866504E-003  0.6645237E+03  0.7818608E-02  0.9779902E-01
          1   -1    0    0  502    0  0.00000000000E+00  0.00000000000E+00  0.11091345388E+03  0.11091345388E+03  0.00000000000E+00 0.  1.
         13   -1    0    0    0    0 -0.00000000000E+00 -0.00000000000E+00 -0.10000000000E+04  0.10000000000E+04  0.00000000000E+00 0.  1.
    9000005    2    1    2  501    0  0.12327708778E-01  0.10124033509E-01 -0.88960194049E+03  0.11103978127E+04  0.66452365622E+03 0.  0.
         13    1    3    3    0    0  0.10608607707E+03 -0.31483810381E+03 -0.43756064261E+03  0.54939658109E+03  0.00000000000E+00 0.  1.
          1    1    3    3  501    0 -0.10607374936E+03  0.31484822784E+03 -0.45204129788E+03  0.56100123161E+03  0.00000000000E+00 0.  1.
         21    1    1    2  502  501 -0.12327708778E-01 -0.10124033509E-01  0.51539437269E+00  0.51564118131E+00  0.00000000000E+00 0. -1.
<mgrwt>
<rscale>  1 0.66452366E+03</rscale>
<asrwt>0</asrwt>
<pdfrwt beam="1">  1        1 0.40332250E+00 0.66452366E+03</pdfrwt>
<pdfrwt beam="2">0</pdfrwt>
<totfact> 0.12894236E+00</totfact>
</mgrwt>
</event>
<event>
 6    1  0.1866504E-003  0.6250904E+03  0.7818608E-02  0.9854677E-01
          1   -1    0    0  502    0  0.00000000000E+00  0.00000000000E+00  0.98234880168E+02  0.98234880168E+02  0.00000000000E+00 0.  1.
         13   -1    0    0    0    0 -0.00000000000E+00 -0.00000000000E+00 -0.10000000000E+04  0.10000000000E+04  0.00000000000E+00 0.  1.
    9000005    2    1    2  501    0  0.23133869296E+00  0.35694789687E-01 -0.90228805938E+03  0.10976619426E+04  0.62509034810E+03 0.  0.
         13    1    3    3    0    0  0.12141164759E+03 -0.27222032602E+03 -0.28591514887E+03  0.41302804556E+03  0.00000000000E+00 0.  1.
          1    1    3    3  501    0 -0.12118030889E+03  0.27225602080E+03 -0.61637291052E+03  0.68463389702E+03  0.00000000000E+00 0.  1.
         21    1    1    2  502  501 -0.23133869296E+00 -0.35694789687E-01  0.52293955250E+00  0.57293759210E+00  0.00000000000E+00 0. -1.
<mgrwt>
<rscale>  1 0.62509039E+03</rscale>
<asrwt>0</asrwt>
<pdfrwt beam="1">  1        1 0.35721850E+00 0.62509039E+03</pdfrwt>
<pdfrwt beam="2">0</pdfrwt>
<totfact> 0.20752584E+00</totfact>
</mgrwt>
</event>
<event>
 6    1  0.1866504E-003  0.6534347E+03  0.7818608E-02  0.9800355E-01
          3   -1    0    0  502    0  0.00000000000E+00  0.00000000000E+00  0.10746363946E+03  0.10746363946E+03  0.00000000000E+00 0.  1.
         13   -1    0    0    0    0 -0.00000000000E+00 -0.00000000000E+00 -0.10000000000E+04  0.10000000000E+04  0.00000000000E+00 0.  1.
    9000005    2    1    2  501    0  0.35642952613E+00  0.79438207247E-02 -0.89320656426E+03  0.11067045096E+04  0.65343460118E+03 0.  0.
         13    1    3    3    0    0 -0.13679540152E+03 -0.27592392334E+03 -0.63083652521E+03  0.70199837242E+03  0.00000000000E+00 0.  1.
          3    1    3    3  501    0  0.13715183105E+03  0.27593186716E+03 -0.26237003906E+03  0.40470613718E+03  0.00000000000E+00 0.  1.
         21    1    1    2  502  501 -0.35642952613E+00 -0.79438207247E-02  0.67020372358E+00  0.75912985878E+00  0.00000000000E+00 0. -1.
<mgrwt>
<rscale>  1 0.65343470E+03</rscale>
<asrwt>0</asrwt>
<pdfrwt beam="1">  1        3 0.39077769E+00 0.65343470E+03</pdfrwt>
<pdfrwt beam="2">0</pdfrwt>
<totfact> 0.66186029E-02</totfact>
</mgrwt>
</event>
<event>
 6    1  0.1866504E-003  0.6537849E+03  0.7818608E-02  0.9799703E-01
          1   -1    0    0  502    0  0.00000000000E+00  0.00000000000E+00  0.10685872047E+03  0.10685872047E+03  0.00000000000E+00 0.  1.
         13   -1    0    0    0    0 -0.00000000000E+00 -0.00000000000E+00 -0.10000000000E+04  0.10000000000E+04  0.00000000000E+00 0.  1.
    9000005    2    1    2  501    0 -0.60814451786E-06 -0.18210778876E-05 -0.89314131001E+03  0.11068586899E+04  0.65378494922E+03 0.  0.
         13    1    3    3    0    0  0.86870254417E+02 -0.10092367798E+03 -0.95200072615E+03  0.96126864740E+03  0.00000000000E+00 0.  1.
          1    1    3    3  501    0 -0.86870255025E+02  0.10092367615E+03  0.58859416139E+02  0.14559004253E+03  0.00000000000E+00 0.  1.
         21    1    1    2  502  501  0.60814452014E-06  0.18210778926E-05  0.30480672116E-04  0.30541079501E-04  0.00000000000E+00 0.  1.
<mgrwt>
<rscale>  1 0.65378495E+03</rscale>
<asrwt>0</asrwt>
<pdfrwt beam="1">  1        1 0.38857798E+00 0.65378495E+03</pdfrwt>
<pdfrwt beam="2">0</pdfrwt>
<totfact> 0.15026832E+00</totfact>
</mgrwt>
</event>
<event>
 6    1  0.1866504E-003  0.6739193E+03  0.7818608E-02  0.9762903E-01
          1   -1    0    0  502    0  0.00000000000E+00  0.00000000000E+00  0.11357320920E+03  0.11357320920E+03  0.00000000000E+00 0.  1.
         13   -1    0    0    0    0 -0.00000000000E+00 -0.00000000000E+00 -0.10000000000E+04  0.10000000000E+04  0.00000000000E+00 0.  1.
    9000005    2    1    2  501    0  0.44991299735E-02 -0.16821639863E-02 -0.88645797977E+03  0.11135416525E+04  0.67391932900E+03 0.  0.
         13    1    3    3    0    0  0.32732051656E+03  0.80003312636E+02 -0.44649595220E+03  0.55937276116E+03  0.00000000000E+00 0.  1.
          3    1    3    3  501    0 -0.32731601743E+03 -0.80004994800E+02 -0.43996202757E+03  0.55416889137E+03  0.00000000000E+00 0.  1.
         21    1    1    2  502  501 -0.44991299735E-02  0.16821639863E-02  0.31188970227E-01  0.31556674571E-01  0.00000000000E+00 0.  1.
<mgrwt>
<rscale>  1 0.67391933E+03</rscale>
<asrwt>0</asrwt>
<pdfrwt beam="1">  1        1 0.41299436E+00 0.67391933E+03</pdfrwt>
<pdfrwt beam="2">0</pdfrwt>
<totfact> 0.11648991E+00</totfact>
</mgrwt>
</event>
<event>
 6    1  0.1866504E-003  0.6700667E+03  0.7818608E-02  0.9769837E-01
          1   -1    0    0  502    0  0.00000000000E+00  0.00000000000E+00  0.11840890265E+03  0.11840890265E+03  0.00000000000E+00 0.  1.
         13   -1    0    0    0    0 -0.00000000000E+00 -0.00000000000E+00 -0.10000000000E+04  0.10000000000E+04  0.00000000000E+00 0.  1.
    9000005    2    1    2  501    0 -0.21920661193E+00  0.14930480478E+00 -0.88774949027E+03  0.11122448012E+04  0.67006661606E+03 0.  0.
         13    1    3    3    0    0  0.23472547056E+03 -0.15141718729E+03 -0.13698289738E+03  0.31110693549E+03  0.00000000000E+00 0.  1.
          1    1    3    3  501    0 -0.23494467717E+03  0.15156649210E+03 -0.75076659289E+03  0.80113786570E+03  0.00000000000E+00 0.  1.
         21    1    1    2  502  501  0.21920661193E+00 -0.14930480478E+00  0.61583929206E+01  0.61641014615E+01  0.00000000000E+00 0.  1.
<mgrwt>
<rscale>  1 0.67006667E+03</rscale>
<asrwt>0</asrwt>
<pdfrwt beam="1">  1        1 0.43057874E+00 0.67006667E+03</pdfrwt>
<pdfrwt beam="2">0</pdfrwt>
<totfact> 0.97084566E-01</totfact>
</mgrwt>
</event>
<event>
 6    1  0.1866504E-003  0.6475001E+03  0.7818608E-02  0.9811481E-01
          1   -1    0    0  502    0  0.00000000000E+00  0.00000000000E+00  0.10485104364E+03  0.10485104364E+03  0.00000000000E+00 0.  1.
         13   -1    0    0    0    0 -0.00000000000E+00 -0.00000000000E+00 -0.10000000000E+04  0.10000000000E+04  0.00000000000E+00 0.  1.
    9000005    2    1    2  501    0  0.21509969263E-01 -0.21703347679E-01 -0.89517878891E+03  0.11048083389E+04  0.64750011634E+03 0.  0.
         13    1    3    3    0    0 -0.22964970329E+03  0.16256444669E+03 -0.72078434815E+03  0.77375465239E+03  0.00000000000E+00 0.  1.
          3    1    3    3  501    0  0.22967121326E+03 -0.16258615004E+03 -0.17439444075E+03  0.33105368651E+03  0.00000000000E+00 0.  1.
         21    1    1    2  502  501 -0.21509969263E-01  0.21703347679E-01  0.29832546399E-01  0.42704740987E-01  0.00000000000E+00 0.  1.
<mgrwt>
<rscale>  1 0.64750012E+03</rscale>
<asrwt>0</asrwt>
<pdfrwt beam="1">  1        1 0.38127733E+00 0.64750012E+03</pdfrwt>
<pdfrwt beam="2">0</pdfrwt>
<totfact> 0.16205526E+00</totfact>
</mgrwt>
</event>
<event>
 6    1  0.1866504E-003  0.6038798E+03  0.7818608E-02  0.9897389E-01
          1   -1    0    0  502    0  0.00000000000E+00  0.00000000000E+00  0.91182642919E+02  0.91182642919E+02  0.00000000000E+00 0.  1.
         13   -1    0    0    0    0 -0.00000000000E+00 -0.00000000000E+00 -0.10000000000E+04  0.10000000000E+04  0.00000000000E+00 0.  1.
    9000005    2    1    2  501    0  0.90496598477E-03 -0.11194372981E-02 -0.90883227350E+03  0.10911676572E+04  0.60387975190E+03 0.  0.
         13    1    3    3    0    0 -0.25850219661E+03  0.14687158444E+03 -0.54956057656E+03  0.62482915687E+03  0.00000000000E+00 0.  1.
          3    1    3    3  501    0  0.25850310157E+03 -0.14687270387E+03 -0.35927169695E+03  0.46633850033E+03  0.00000000000E+00 0.  1.
         21    1    1    2  502  501 -0.90496598476E-03  0.11194372981E-02  0.14916421920E-01  0.14985718074E-01  0.00000000000E+00 0. -1.
<mgrwt>
<rscale>  1 0.60387975E+03</rscale>
<asrwt>0</asrwt>
<pdfrwt beam="1">  1        1 0.33157395E+00 0.60387975E+03</pdfrwt>
<pdfrwt beam="2">0</pdfrwt>
<totfact> 0.26931511E+00</totfact>
</mgrwt>
</event>
<event>
 6    1  0.1866504E-003  0.6410349E+03  0.7818608E-02  0.9823748E-01
          1   -1    0    0  502    0  0.00000000000E+00  0.00000000000E+00  0.10273184021E+03  0.10273184021E+03  0.00000000000E+00 0.  1.
         13   -1    0    0    0    0 -0.00000000000E+00 -0.00000000000E+00 -0.10000000000E+04  0.10000000000E+04  0.00000000000E+00 0.  1.
    9000005    2    1    2  501    0 -0.32987521371E-03  0.30133396557E-03 -0.89726840253E+03  0.11027313317E+04  0.64103494742E+03 0.  0.
         13    1    3    3    0    0  0.29856014930E+03 -0.91717482848E+02 -0.32481200257E+03  0.45061413251E+03  0.00000000000E+00 0.  1.
          1    1    3    3  501    0 -0.29856047917E+03  0.91717784182E+02 -0.57245639997E+03  0.65211719922E+03  0.00000000000E+00 0.  1.
         21    1    1    2  502  501  0.32987521372E-03 -0.30133396557E-03  0.24274001904E-03  0.50847077819E-03  0.00000000000E+00 0. -1.
<mgrwt>
<rscale>  1 0.64103495E+03</rscale>
<asrwt>0</asrwt>
<pdfrwt beam="1">  1        1 0.37357112E+00 0.64103495E+03</pdfrwt>
<pdfrwt beam="2">0</pdfrwt>
<totfact> 0.17544381E+00</totfact>
</mgrwt>
</event>
<event>
 6    1  0.1866504E-003  0.6536828E+03  0.7818608E-02  0.9799893E-01
          1   -1    0    0  502    0  0.00000000000E+00  0.00000000000E+00  0.10715237337E+03  0.10715237337E+03  0.00000000000E+00 0.  1.
         13   -1    0    0    0    0 -0.00000000000E+00 -0.00000000000E+00 -0.10000000000E+04  0.10000000000E+04  0.00000000000E+00 0.  1.
    9000005    2    1    2  501    0  0.42730559808E+00 -0.12667248827E-01 -0.89301232976E+03  0.11066942493E+04  0.65368261229E+03 0.  0.
         13    1    3    3    0    0 -0.15893457044E+03  0.19231411325E+03 -0.80354059370E+03  0.84138124626E+03  0.00000000000E+00 0.  1.
          3    1    3    3  501    0  0.15936187604E+03 -0.19232678050E+03 -0.89471736061E+02  0.26531300305E+03  0.00000000000E+00 0.  1.
         21    1    1    2  502  501 -0.42730559808E+00  0.12667248827E-01  0.16470312127E+00  0.45812405689E+00  0.00000000000E+00 0.  1.
<mgrwt>
<rscale>  1 0.65368275E+03</rscale>
<asrwt>0</asrwt>
<pdfrwt beam="1">  1        1 0.38964582E+00 0.65368275E+03</pdfrwt>
<pdfrwt beam="2">0</pdfrwt>
<totfact> 0.14864227E+00</totfact>
</mgrwt>
</event>
<event>
 6    1  0.1866504E-003  0.6512883E+03  0.7818608E-02  0.9804365E-01
          1   -1    0    0  502    0  0.00000000000E+00  0.00000000000E+00  0.10607688756E+03  0.10607688756E+03  0.00000000000E+00 0.  1.
         13   -1    0    0    0    0 -0.00000000000E+00 -0.00000000000E+00 -0.10000000000E+04  0.10000000000E+04  0.00000000000E+00 0.  1.
    9000005    2    1    2  501    0 -0.36208375758E-01  0.42128019260E-01 -0.89392748339E+03  0.11060211657E+04  0.65128831588E+03 0.  0.
         13    1    3    3    0    0 -0.68640783992E+02  0.31650582000E+03 -0.50514529740E+03  0.60004938363E+03  0.00000000000E+00 0.  1.
          3    1    3    3  501    0  0.68604575616E+02 -0.31646369198E+03 -0.38878218599E+03  0.50597178210E+03  0.00000000000E+00 0.  1.
         21    1    1    2  502  501  0.36208375758E-01 -0.42128019260E-01  0.43709467744E-02  0.55721823889E-01  0.00000000000E+00 0. -1.
<mgrwt>
<rscale>  1 0.65128832E+03</rscale>
<asrwt>0</asrwt>
<pdfrwt beam="1">  1        1 0.38573495E+00 0.65128832E+03</pdfrwt>
<pdfrwt beam="2">0</pdfrwt>
<totfact> 0.15475954E+00</totfact>
</mgrwt>
</event>
<event>
 6    1  0.1866504E-003  0.6463046E+03  0.7818608E-02  0.9813738E-01
          1   -1    0    0  502    0  0.00000000000E+00  0.00000000000E+00  0.10442750879E+03  0.10442750879E+03  0.00000000000E+00 0.  1.
         13   -1    0    0    0    0 -0.00000000000E+00 -0.00000000000E+00 -0.10000000000E+04  0.10000000000E+04  0.00000000000E+00 0.  1.
    9000005    2    1    2  501    0 -0.16858215730E-05 -0.54410000985E-05 -0.89557260218E+03  0.11044273977E+04  0.64630456517E+03 0.  0.
         13    1    3    3    0    0  0.84682436556E+02 -0.27567800506E+03 -0.69693599235E+03  0.75424747594E+03  0.00000000000E+00 0.  1.
          3    1    3    3  501    0 -0.84682438242E+02  0.27567799962E+03 -0.19863660983E+03  0.35017992173E+03  0.00000000000E+00 0.  1.
         21    1    1    2  502  501  0.16858215723E-05  0.54410000565E-05  0.11096699091E-03  0.11111309350E-03  0.00000000000E+00 0.  1.
<mgrwt>
<rscale>  1 0.64630457E+03</rscale>
<asrwt>0</asrwt>
<pdfrwt beam="1">  1        1 0.37973720E+00 0.64630457E+03</pdfrwt>
<pdfrwt beam="2">0</pdfrwt>
<totfact> 0.16464772E+00</totfact>
</mgrwt>
</event>
<event>
 6    1  0.1866504E-003  0.6410221E+03  0.7818608E-02  0.9823773E-01
          1   -1    0    0  502    0  0.00000000000E+00  0.00000000000E+00  0.10288652544E+03  0.10288652544E+03  0.00000000000E+00 0.  1.
         13   -1    0    0    0    0 -0.00000000000E+00 -0.00000000000E+00 -0.10000000000E+04  0.10000000000E+04  0.00000000000E+00 0.  1.
    9000005    2    1    2  501    0 -0.97137526716E-01 -0.12661869114E+00 -0.89722734521E+03  0.11026904782E+04  0.64102211838E+03 0.  0.
         13    1    3    3    0    0  0.14254988149E+03  0.11755427078E+03 -0.89896631665E+03  0.91775809109E+03  0.00000000000E+00 0.  1.
          3    1    3    3  501    0 -0.14264701902E+03 -0.11768088947E+03  0.17389714360E+01  0.18493238711E+03  0.00000000000E+00 0.  1.
         21    1    1    2  502  501  0.97137526716E-01  0.12661869114E+00  0.11387065577E+00  0.19604723484E+00  0.00000000000E+00 0.  1.
<mgrwt>
<rscale>  1 0.64102214E+03</rscale>
<asrwt>0</asrwt>
<pdfrwt beam="1">  1        1 0.37413361E+00 0.64102214E+03</pdfrwt>
<pdfrwt beam="2">0</pdfrwt>
<totfact> 0.17444736E+00</totfact>
</mgrwt>
</event>
<event>
 6    1  0.1866504E-003  0.5471065E+03  0.7818608E-02  0.1002166E+00
          1   -1    0    0  502    0  0.00000000000E+00  0.00000000000E+00  0.74831551237E+02  0.74831551237E+02  0.00000000000E+00 0.  1.
         13   -1    0    0    0    0 -0.00000000000E+00 -0.00000000000E+00 -0.10000000000E+04  0.10000000000E+04  0.00000000000E+00 0.  1.
    9000005    2    1    2  501    0 -0.20043817122E-03 -0.97163925645E-04 -0.92516854077E+03  0.10748313102E+04  0.54710649479E+03 0.  0.
         13    1    3    3    0    0  0.13571242243E+03 -0.11253498226E+03 -0.51666958355E+02  0.18371569998E+03  0.00000000000E+00 0.  1.
          1    1    3    3  501    0 -0.13571262287E+03  0.11253488509E+03 -0.87350158241E+03  0.89111561026E+03  0.00000000000E+00 0.  1.
         21    1    1    2  502  501  0.20043817121E-03  0.97163925653E-04  0.92005067648E-04  0.24100045934E-03  0.00000000000E+00 0. -1.
<mgrwt>
<rscale>  1 0.54710649E+03</rscale>
<asrwt>0</asrwt>
<pdfrwt beam="1">  1        1 0.27211531E+00 0.54710649E+03</pdfrwt>
<pdfrwt beam="2">0</pdfrwt>
<totfact> 0.49133429E+00</totfact>
</mgrwt>
</event>
<event>
 6    1  0.1866504E-003  0.6503944E+03  0.7818608E-02  0.9806039E-01
          1   -1    0    0  502    0  0.00000000000E+00  0.00000000000E+00  0.11615792971E+03  0.11615792971E+03  0.00000000000E+00 0.  1.
         13   -1    0    0    0    0 -0.00000000000E+00 -0.00000000000E+00 -0.10000000000E+04  0.10000000000E+04  0.00000000000E+00 0.  1.
    9000005    2    1    2  501    0  0.20050741476E-02  0.55287098287E+00 -0.89423865032E+03  0.11057466595E+04  0.65039419253E+03 0.  0.
         13    1    3    3    0    0  0.46361042785E+02 -0.23977215624E+03 -0.82281323584E+02  0.25770186147E+03  0.00000000000E+00 0.  1.
          1    1    3    3  501    0 -0.46359037711E+02  0.24032502722E+03 -0.81195732673E+03  0.84804479806E+03  0.00000000000E+00 0.  1.
         21    1    1    2  502  501 -0.20050741476E-02 -0.55287098287E+00  0.10396580030E+02  0.10411270175E+02  0.00000000000E+00 0. -1.
<mgrwt>
<rscale>  1 0.65039443E+03</rscale>
<asrwt>0</asrwt>
<pdfrwt beam="1">  1        1 0.42239336E+00 0.65039443E+03</pdfrwt>
<pdfrwt beam="2">0</pdfrwt>
<totfact> 0.10615002E+00</totfact>
</mgrwt>
</event>
<event>
 6    1  0.1866504E-003  0.6498584E+03  0.7818608E-02  0.9807045E-01
          1   -1    0    0  502    0  0.00000000000E+00  0.00000000000E+00  0.10911741162E+03  0.10911741162E+03  0.00000000000E+00 0.  1.
         13   -1    0    0    0    0 -0.00000000000E+00 -0.00000000000E+00 -0.10000000000E+04  0.10000000000E+04  0.00000000000E+00 0.  1.
    9000005    2    1    2  501    0  0.53268177140E-01 -0.17658031783E-01 -0.89442076686E+03  0.11055787881E+04  0.64985840412E+03 0.  0.
         13    1    3    3    0    0 -0.24624909675E+03 -0.16036842472E+03 -0.68299620981E+03  0.74353242829E+03  0.00000000000E+00 0.  1.
          3    1    3    3  501    0  0.24630236493E+03  0.16035076669E+03 -0.21142455705E+03  0.36204635983E+03  0.00000000000E+00 0.  1.
         21    1    1    2  502  501 -0.53268177140E-01  0.17658031783E-01  0.35381784762E+01  0.35386234943E+01  0.00000000000E+00 0.  1.
<mgrwt>
<rscale>  1 0.64985841E+03</rscale>
<asrwt>0</asrwt>
<pdfrwt beam="1">  1        1 0.39679142E+00 0.64985841E+03</pdfrwt>
<pdfrwt beam="2">0</pdfrwt>
<totfact> 0.13826605E+00</totfact>
</mgrwt>
</event>
<event>
 6    1  0.1866504E-003  0.6534877E+03  0.7818608E-02  0.9800257E-01
          1   -1    0    0  502    0  0.00000000000E+00  0.00000000000E+00  0.10682047947E+03  0.10682047947E+03  0.00000000000E+00 0.  1.
         13   -1    0    0    0    0 -0.00000000000E+00 -0.00000000000E+00 -0.10000000000E+04  0.10000000000E+04  0.00000000000E+00 0.  1.
    9000005    2    1    2  501    0  0.24686234369E-02  0.45807354682E-02 -0.89323833859E+03  0.11067614317E+04  0.65348767172E+03 0.  0.
         13    1    3    3    0    0  0.72621188632E+02  0.31255943985E+03 -0.55096817120E+03  0.63759953431E+03  0.00000000000E+00 0.  1.
          3    1    3    3  501    0 -0.72618720009E+02 -0.31255485912E+03 -0.34227016740E+03  0.46916189737E+03  0.00000000000E+00 0.  1.
         21    1    1    2  502  501 -0.24686234369E-02 -0.45807354683E-02  0.58818068728E-01  0.59047797995E-01  0.00000000000E+00 0. -1.
<mgrwt>
<rscale>  1 0.65348767E+03</rscale>
<asrwt>0</asrwt>
<pdfrwt beam="1">  1        1 0.38843893E+00 0.65348767E+03</pdfrwt>
<pdfrwt beam="2">0</pdfrwt>
<totfact> 0.15048996E+00</totfact>
</mgrwt>
</event>
<event>
 6    1  0.1866504E-003  0.6473443E+03  0.7818608E-02  0.9811775E-01
          1   -1    0    0  502    0  0.00000000000E+00  0.00000000000E+00  0.11066725769E+03  0.11066725769E+03  0.00000000000E+00 0.  1.
         13   -1    0    0    0    0 -0.00000000000E+00 -0.00000000000E+00 -0.10000000000E+04  0.10000000000E+04  0.00000000000E+00 0.  1.
    9000005    2    1    2  501    0 -0.90063551787E+01 -0.12498534385E+01 -0.89108995720E+03  0.11014063522E+04  0.64728043705E+03 0.  0.
         13    1    3    3    0    0 -0.12846478669E+03  0.28610759285E+03 -0.59114944720E+03  0.66919236773E+03  0.00000000000E+00 0.  1.
          3    1    3    3  501    0  0.11945843151E+03 -0.28735744628E+03 -0.29994051000E+03  0.43221398442E+03  0.00000000000E+00 0.  1.
         21    1    1    2  502  501  0.90063551787E+01  0.12498534385E+01  0.17572148855E+01  0.92609055376E+01  0.00000000000E+00 0. -1.
<mgrwt>
<rscale>  1 0.64734430E+03</rscale>
<asrwt>0</asrwt>
<pdfrwt beam="1">  1        1 0.40242724E+00 0.64734430E+03</pdfrwt>
<pdfrwt beam="2">0</pdfrwt>
<totfact> 0.13055989E+00</totfact>
</mgrwt>
</event>
<event>
 6    1  0.1866504E-003  0.6505416E+03  0.7818608E-02  0.9805763E-01
          1   -1    0    0  502    0  0.00000000000E+00  0.00000000000E+00  0.10580378269E+03  0.10580378269E+03  0.00000000000E+00 0.  1.
         13   -1    0    0    0    0 -0.00000000000E+00 -0.00000000000E+00 -0.10000000000E+04  0.10000000000E+04  0.00000000000E+00 0.  1.
    9000005    2    1    2  501    0  0.28411559141E-02 -0.13571625423E-02 -0.89419783244E+03  0.11058002439E+04  0.65054163277E+03 0.  0.
         13    1    3    3    0    0 -0.21441006138E+03  0.23841723564E+03 -0.53997776118E+03  0.62800512357E+03  0.00000000000E+00 0.  1.
          1    1    3    3  501    0  0.21441290254E+03 -0.23841859280E+03 -0.35422007126E+03  0.47779512037E+03  0.00000000000E+00 0.  1.
         21    1    1    2  502  501 -0.28411559141E-02  0.13571625423E-02  0.16151324175E-02  0.35387441022E-02  0.00000000000E+00 0. -1.
<mgrwt>
<rscale>  1 0.65054163E+03</rscale>
<asrwt>0</asrwt>
<pdfrwt beam="1">  1        1 0.38474184E+00 0.65054163E+03</pdfrwt>
<pdfrwt beam="2">0</pdfrwt>
<totfact> 0.15635459E+00</totfact>
</mgrwt>
</event>
<event>
 6    1  0.1866504E-003  0.6500483E+03  0.7818608E-02  0.9806689E-01
          1   -1    0    0  502    0  0.00000000000E+00  0.00000000000E+00  0.10565591705E+03  0.10565591705E+03  0.00000000000E+00 0.  1.
         13   -1    0    0    0    0 -0.00000000000E+00 -0.00000000000E+00 -0.10000000000E+04  0.10000000000E+04  0.00000000000E+00 0.  1.
    9000005    2    1    2  501    0 -0.39500782853E-03  0.18914380408E-02 -0.89435922838E+03  0.11056406489E+04  0.65004831746E+03 0.  0.
         13    1    3    3    0    0  0.22456074013E+03 -0.42653910377E+02 -0.54160593387E+02  0.23490477210E+03  0.00000000000E+00 0.  1.
          1    1    3    3  501    0 -0.22456113514E+03  0.42655801816E+02 -0.84019863499E+03  0.87073587676E+03  0.00000000000E+00 0.  1.
         21    1    1    2  502  501  0.39500782854E-03 -0.18914380408E-02  0.15145430714E-01  0.15268190481E-01  0.00000000000E+00 0.  1.
<mgrwt>
<rscale>  1 0.65004832E+03</rscale>
<asrwt>0</asrwt>
<pdfrwt beam="1">  1        1 0.38420414E+00 0.65004832E+03</pdfrwt>
<pdfrwt beam="2">0</pdfrwt>
<totfact> 0.15722728E+00</totfact>
</mgrwt>
</event>
<event>
 6    1  0.1866504E-003  0.6577200E+03  0.7818608E-02  0.9792400E-01
          3   -1    0    0  502    0  0.00000000000E+00  0.00000000000E+00  0.10814993228E+03  0.10814993228E+03  0.00000000000E+00 0.  1.
         13   -1    0    0    0    0 -0.00000000000E+00 -0.00000000000E+00 -0.10000000000E+04  0.10000000000E+04  0.00000000000E+00 0.  1.
    9000005    2    1    2  501    0 -0.14688860063E-04 -0.43849170481E-05 -0.89185111045E+03  0.11081488894E+04  0.65771996925E+03 0.  0.
         13    1    3    3    0    0 -0.24397670187E+03  0.21863044620E+03 -0.49431840851E+03  0.59302157806E+03  0.00000000000E+00 0.  1.
          3    1    3    3  501    0  0.24397668718E+03 -0.21863045058E+03 -0.39753270194E+03  0.51512731137E+03  0.00000000000E+00 0.  1.
         21    1    1    2  502  501  0.14688860069E-04  0.43849170317E-05  0.10427306396E-02  0.10428433137E-02  0.00000000000E+00 0. -1.
<mgrwt>
<rscale>  1 0.65771997E+03</rscale>
<asrwt>0</asrwt>
<pdfrwt beam="1">  1        3 0.39327331E+00 0.65771997E+03</pdfrwt>
<pdfrwt beam="2">0</pdfrwt>
<totfact> 0.64170378E-02</totfact>
</mgrwt>
</event>
<event>
 6    1  0.1866504E-003  0.6419837E+03  0.7818608E-02  0.9821938E-01
          1   -1    0    0  502    0  0.00000000000E+00  0.00000000000E+00  0.10304431081E+03  0.10304431081E+03  0.00000000000E+00 0.  1.
         13   -1    0    0    0    0 -0.00000000000E+00 -0.00000000000E+00 -0.10000000000E+04  0.10000000000E+04  0.00000000000E+00 0.  1.
    9000005    2    1    2  501    0 -0.82982331562E-02 -0.85671238109E-02 -0.89695935755E+03  0.11030318323E+04  0.64198374888E+03 0.  0.
         13    1    3    3    0    0  0.28676474934E+03  0.12331506300E+03 -0.31999183507E+03  0.44702953005E+03  0.00000000000E+00 0.  1.
          1    1    3    3  501    0 -0.28677304757E+03 -0.12332363012E+03 -0.57696752248E+03  0.65600230225E+03  0.00000000000E+00 0.  1.
         21    1    1    2  502  501  0.82982331562E-02  0.85671238109E-02  0.36683547128E-02  0.12478505928E-01  0.00000000000E+00 0.  1.
<mgrwt>
<rscale>  1 0.64198375E+03</rscale>
<asrwt>0</asrwt>
<pdfrwt beam="1">  1        1 0.37470737E+00 0.64198375E+03</pdfrwt>
<pdfrwt beam="2">0</pdfrwt>
<totfact> 0.17340559E+00</totfact>
</mgrwt>
</event>
<event>
 6    1  0.1866504E-003  0.6496134E+03  0.7818608E-02  0.9807505E-01
          1   -1    0    0  502    0  0.00000000000E+00  0.00000000000E+00  0.10549973982E+03  0.10549973982E+03  0.00000000000E+00 0.  1.
         13   -1    0    0    0    0 -0.00000000000E+00 -0.00000000000E+00 -0.10000000000E+04  0.10000000000E+04  0.00000000000E+00 0.  1.
    9000005    2    1    2  501    0  0.38972213254E-04 -0.26112164707E-03 -0.89450056689E+03  0.11054993351E+04  0.64961335870E+03 0.  0.
         13    1    3    3    0    0  0.35508278390E+02 -0.20927001793E+03 -0.86564155874E+03  0.89128563685E+03  0.00000000000E+00 0.  1.
          1    1    3    3  501    0 -0.35508239418E+02  0.20926975680E+03 -0.28859008150E+02  0.21421369828E+03  0.00000000000E+00 0.  1.
         21    1    1    2  502  501 -0.38972213249E-04  0.26112164706E-03  0.30670800916E-03  0.40468895569E-03  0.00000000000E+00 0. -1.
<mgrwt>
<rscale>  1 0.64961336E+03</rscale>
<asrwt>0</asrwt>
<pdfrwt beam="1">  1        1 0.38363623E+00 0.64961336E+03</pdfrwt>
<pdfrwt beam="2">0</pdfrwt>
<totfact> 0.15815154E+00</totfact>
</mgrwt>
</event>
<event>
 6    1  0.1866504E-003  0.6480222E+03  0.7818608E-02  0.9810498E-01
          1   -1    0    0  502    0  0.00000000000E+00  0.00000000000E+00  0.10499585210E+03  0.10499585210E+03  0.00000000000E+00 0.  1.
         13   -1    0    0    0    0 -0.00000000000E+00 -0.00000000000E+00 -0.10000000000E+04  0.10000000000E+04  0.00000000000E+00 0.  1.
    9000005    2    1    2  501    0 -0.16866947759E-01  0.44914686091E-02 -0.89500980735E+03  0.11049775028E+04  0.64802216486E+03 0.  0.
         13    1    3    3    0    0 -0.26162335421E+03 -0.11816622201E+03 -0.70372369931E+03  0.76002439464E+03  0.00000000000E+00 0.  1.
          1    1    3    3  501    0  0.26160648726E+03  0.11817071348E+03 -0.19128610805E+03  0.34495310816E+03  0.00000000000E+00 0.  1.
         21    1    1    2  502  501  0.16866947759E-01 -0.44914686091E-02  0.56594543452E-02  0.18349295367E-01  0.00000000000E+00 0.  1.
<mgrwt>
<rscale>  1 0.64802217E+03</rscale>
<asrwt>0</asrwt>
<pdfrwt beam="1">  1        1 0.38180390E+00 0.64802217E+03</pdfrwt>
<pdfrwt beam="2">0</pdfrwt>
<totfact> 0.16117448E+00</totfact>
</mgrwt>
</event>
<event>
 6    1  0.1866504E-003  0.6476264E+03  0.7818608E-02  0.9811243E-01
          1   -1    0    0  502    0  0.00000000000E+00  0.00000000000E+00  0.10485929083E+03  0.10485929083E+03  0.00000000000E+00 0.  1.
         13   -1    0    0    0    0 -0.00000000000E+00 -0.00000000000E+00 -0.10000000000E+04  0.10000000000E+04  0.00000000000E+00 0.  1.
    9000005    2    1    2  501    0 -0.76149041488E-02  0.50578608752E-02 -0.89513880460E+03  0.11048499529E+04  0.64762638839E+03 0.  0.
         13    1    3    3    0    0  0.80348205318E+02  0.22457995516E+03 -0.82119410453E+03  0.85513259069E+03  0.00000000000E+00 0.  1.
          1    1    3    3  501    0 -0.80355820222E+02 -0.22457489730E+03 -0.73944700075E+02  0.24971736225E+03  0.00000000000E+00 0.  1.
         21    1    1    2  502  501  0.76149041488E-02 -0.50578608752E-02 -0.19045699615E-02  0.93378856582E-02  0.00000000000E+00 0.  1.
<mgrwt>
<rscale>  1 0.64762639E+03</rscale>
<asrwt>0</asrwt>
<pdfrwt beam="1">  1        1 0.38130732E+00 0.64762639E+03</pdfrwt>
<pdfrwt beam="2">0</pdfrwt>
<totfact> 0.16200210E+00</totfact>
</mgrwt>
</event>
<event>
 6    1  0.1866504E-003  0.6576049E+03  0.7818608E-02  0.9792613E-01
          1   -1    0    0  502    0  0.00000000000E+00  0.00000000000E+00  0.10811278847E+03  0.10811278847E+03  0.00000000000E+00 0.  1.
         13   -1    0    0    0    0 -0.00000000000E+00 -0.00000000000E+00 -0.10000000000E+04  0.10000000000E+04  0.00000000000E+00 0.  1.
    9000005    2    1    2  501    0 -0.70823815616E-03  0.24170761586E-03 -0.89188885200E+03  0.11081109854E+04  0.65760492057E+03 0.  0.
         13    1    3    3    0    0  0.20249520862E+03  0.22699179805E+03 -0.23560456098E+03  0.38475848925E+03  0.00000000000E+00 0.  1.
          3    1    3    3  501    0 -0.20249591686E+03 -0.22699155634E+03 -0.65628429102E+03  0.72335249612E+03  0.00000000000E+00 0.  1.
         21    1    1    2  502  501  0.70823815615E-03 -0.24170761586E-03  0.16404788441E-02  0.18031069561E-02  0.00000000000E+00 0. -1.
<mgrwt>
<rscale>  1 0.65760492E+03</rscale>
<asrwt>0</asrwt>
<pdfrwt beam="1">  1        1 0.39313824E+00 0.65760492E+03</pdfrwt>
<pdfrwt beam="2">0</pdfrwt>
<totfact> 0.14332649E+00</totfact>
</mgrwt>
</event>
<event>
 6    1  0.1866504E-003  0.6576607E+03  0.7818608E-02  0.9792510E-01
          1   -1    0    0  502    0  0.00000000000E+00  0.00000000000E+00  0.10816903601E+03  0.10816903601E+03  0.00000000000E+00 0.  1.
         13   -1    0    0    0    0 -0.00000000000E+00 -0.00000000000E+00 -0.10000000000E+04  0.10000000000E+04  0.00000000000E+00 0.  1.
    9000005    2    1    2  501    0 -0.55729322938E-02  0.12963955992E-02 -0.89187038341E+03  0.11081292035E+04  0.65766066540E+03 0.  0.
         13    1    3    3    0    0  0.29710734938E+03 -0.97587492794E+02 -0.27466580427E+03  0.41621797155E+03  0.00000000000E+00 0.  1.
          1    1    3    3  501    0 -0.29711292232E+03  0.97588789190E+02 -0.61720457914E+03  0.69191123195E+03  0.00000000000E+00 0.  1.
         21    1    1    2  502  501  0.55729322938E-02 -0.12963955992E-02  0.39419419126E-01  0.39832509588E-01  0.00000000000E+00 0. -1.
<mgrwt>
<rscale>  1 0.65766067E+03</rscale>
<asrwt>0</asrwt>
<pdfrwt beam="1">  1        1 0.39334278E+00 0.65766067E+03</pdfrwt>
<pdfrwt beam="2">0</pdfrwt>
<totfact> 0.14302544E+00</totfact>
</mgrwt>
</event>
<event>
 6    1  0.1866504E-003  0.6502986E+03  0.7818608E-02  0.9806219E-01
          1   -1    0    0  502    0  0.00000000000E+00  0.00000000000E+00  0.10578714519E+03  0.10578714519E+03  0.00000000000E+00 0.  1.
         13   -1    0    0    0    0 -0.00000000000E+00 -0.00000000000E+00 -0.10000000000E+04  0.10000000000E+04  0.00000000000E+00 0.  1.
    9000005    2    1    2  501    0  0.32342005336E-01  0.44942593515E-01 -0.89426465565E+03  0.11057113219E+04  0.65029858527E+03 0.  0.
         13    1    3    3    0    0  0.23166588081E+03 -0.48677609424E+02 -0.68127058932E+02  0.24633287671E+03  0.00000000000E+00 0.  1.
          3    1    3    3  501    0 -0.23163353880E+03  0.48722552017E+02 -0.82613759672E+03  0.85937844521E+03  0.00000000000E+00 0.  1.
         21    1    1    2  502  501 -0.32342005336E-01 -0.44942593515E-01  0.51800838825E-01  0.75823274290E-01  0.00000000000E+00 0.  1.
<mgrwt>
<rscale>  1 0.65029859E+03</rscale>
<asrwt>0</asrwt>
<pdfrwt beam="1">  1        1 0.38468134E+00 0.65029859E+03</pdfrwt>
<pdfrwt beam="2">0</pdfrwt>
<totfact> 0.15645797E+00</totfact>
</mgrwt>
</event>
<event>
 6    1  0.1866504E-003  0.6484674E+03  0.7818608E-02  0.9809659E-01
          1   -1    0    0  502    0  0.00000000000E+00  0.00000000000E+00  0.10512765389E+03  0.10512765389E+03  0.00000000000E+00 0.  1.
         13   -1    0    0    0    0 -0.00000000000E+00 -0.00000000000E+00 -0.10000000000E+04  0.10000000000E+04  0.00000000000E+00 0.  1.
    9000005    2    1    2  501    0  0.42874928232E-03 -0.19656072629E-03 -0.89487201236E+03  0.11051270761E+04  0.64846737451E+03 0.  0.
         13    1    3    3    0    0 -0.17778451873E+03  0.17353720847E+03 -0.92382639826E+02  0.26506046473E+03  0.00000000000E+00 0.  1.
          1    1    3    3  501    0  0.17778494748E+03 -0.17353740503E+03 -0.80248937253E+03  0.84006661136E+03  0.00000000000E+00 0.  1.
         21    1    1    2  502  501 -0.42874928231E-03  0.19656072628E-03 -0.33374867667E-03  0.57779775473E-03  0.00000000000E+00 0.  1.
<mgrwt>
<rscale>  1 0.64846737E+03</rscale>
<asrwt>0</asrwt>
<pdfrwt beam="1">  1        1 0.38228318E+00 0.64846737E+03</pdfrwt>
<pdfrwt beam="2">0</pdfrwt>
<totfact> 0.16037765E+00</totfact>
</mgrwt>
</event>
<event>
 6    1  0.1866504E-003  0.5623695E+03  0.7818608E-02  0.9986707E-01
          1   -1    0    0  502    0  0.00000000000E+00  0.00000000000E+00  0.79067820039E+02  0.79067820039E+02  0.00000000000E+00 0.  1.
         13   -1    0    0    0    0 -0.00000000000E+00 -0.00000000000E+00 -0.10000000000E+04  0.10000000000E+04  0.00000000000E+00 0.  1.
    9000005    2    1    2  501    0  0.14855102481E-03  0.43681908872E-04 -0.92093514133E+03  0.10790648546E+04  0.56236947457E+03 0.  0.
         13    1    3    3    0    0 -0.12896846783E+03 -0.36691777888E+01  0.18915345925E+02  0.13039984230E+03  0.00000000000E+00 0.  1.
          1    1    3    3  501    0  0.12896861638E+03  0.36692214707E+01 -0.93985048726E+03  0.94866501232E+03  0.00000000000E+00 0.  1.
         21    1    1    2  502  501 -0.14855102480E-03 -0.43681908872E-04  0.29613740883E-02  0.29654193644E-02  0.00000000000E+00 0. -1.
<mgrwt>
<rscale>  1 0.56236947E+03</rscale>
<asrwt>0</asrwt>
<pdfrwt beam="1">  1        1 0.28751995E+00 0.56236947E+03</pdfrwt>
<pdfrwt beam="2">0</pdfrwt>
<totfact> 0.42045906E+00</totfact>
</mgrwt>
</event>
<event>
 6    1  0.1866504E-003  0.7011280E+03  0.7818608E-02  0.9715305E-01
          1   -1    0    0  502    0  0.00000000000E+00  0.00000000000E+00  0.12289707640E+03  0.12289707640E+03  0.00000000000E+00 0.  1.
         13   -1    0    0    0    0 -0.00000000000E+00 -0.00000000000E+00 -0.10000000000E+04  0.10000000000E+04  0.00000000000E+00 0.  1.
    9000005    2    1    2  501    0 -0.54574966368E-03 -0.55975505600E-02 -0.87709535836E+03  0.11228876497E+04  0.70112795273E+03 0.  0.
         13    1    3    3    0    0  0.61603138163E+02  0.32857949783E+03 -0.26955447765E+03  0.42944039103E+03  0.00000000000E+00 0.  1.
          1    1    3    3  501    0 -0.61603683913E+02 -0.32858509538E+03 -0.60754088071E+03  0.69344725864E+03  0.00000000000E+00 0.  1.
         21    1    1    2  502  501  0.54574966368E-03  0.55975505600E-02 -0.75652406590E-02  0.94267322650E-02  0.00000000000E+00 0.  1.
<mgrwt>
<rscale>  1 0.70112795E+03</rscale>
<asrwt>0</asrwt>
<pdfrwt beam="1">  1        1 0.44689940E+00 0.70112795E+03</pdfrwt>
<pdfrwt beam="2">0</pdfrwt>
<totfact> 0.81261514E-01</totfact>
</mgrwt>
</event>
<event>
 6    1  0.1866504E-003  0.6584789E+03  0.7818608E-02  0.9790998E-01
          1   -1    0    0  502    0  0.00000000000E+00  0.00000000000E+00  0.10840110291E+03  0.10840110291E+03  0.00000000000E+00 0.  1.
         13   -1    0    0    0    0 -0.00000000000E+00 -0.00000000000E+00 -0.10000000000E+04  0.10000000000E+04  0.00000000000E+00 0.  1.
    9000005    2    1    2  501    0  0.22671266746E-03  0.18805134098E-03 -0.89160136859E+03  0.11083986139E+04  0.65847891909E+03 0.  0.
         13    1    3    3    0    0 -0.17571128573E+03  0.25545378632E+03 -0.63223799363E+03  0.70417041508E+03  0.00000000000E+00 0.  1.
          3    1    3    3  501    0  0.17571151245E+03 -0.25545359827E+03 -0.25936337496E+03  0.40422819885E+03  0.00000000000E+00 0.  1.
         21    1    1    2  502  501 -0.22671266747E-03 -0.18805134099E-03  0.24715013427E-02  0.24889919300E-02  0.00000000000E+00 0.  1.
<mgrwt>
<rscale>  1 0.65847892E+03</rscale>
<asrwt>0</asrwt>
<pdfrwt beam="1">  1        1 0.39418666E+00 0.65847892E+03</pdfrwt>
<pdfrwt beam="2">0</pdfrwt>
<totfact> 0.14177418E+00</totfact>
</mgrwt>
</event>
<event>
 6    1  0.1866504E-003  0.6603671E+03  0.7818608E-02  0.9787518E-01
          1   -1    0    0  502    0  0.00000000000E+00  0.00000000000E+00  0.10919513021E+03  0.10919513021E+03  0.00000000000E+00 0.  1.
         13   -1    0    0    0    0 -0.00000000000E+00 -0.00000000000E+00 -0.10000000000E+04  0.10000000000E+04  0.00000000000E+00 0.  1.
    9000005    2    1    2  501    0  0.41131796617E-02  0.12435091710E-01 -0.89097853925E+03  0.11090209676E+04  0.66036713190E+03 0.  0.
         13    1    3    3    0    0 -0.18405035232E+03 -0.25526836263E+03 -0.61325988743E+03  0.68929250589E+03  0.00000000000E+00 0.  1.
          1    1    3    3  501    0  0.18405446550E+03  0.25528079772E+03 -0.27771865183E+03  0.41972846166E+03  0.00000000000E+00 0.  1.
         21    1    1    2  502  501 -0.41131796617E-02 -0.12435091710E-01  0.17366946598E+00  0.17416266295E+00  0.00000000000E+00 0.  1.
<mgrwt>
<rscale>  1 0.66036713E+03</rscale>
<asrwt>0</asrwt>
<pdfrwt beam="1">  1        1 0.39707404E+00 0.66036713E+03</pdfrwt>
<pdfrwt beam="2">0</pdfrwt>
<totfact> 0.13759424E+00</totfact>
</mgrwt>
</event>
<event>
 6    1  0.1866504E-003  0.6306772E+03  0.7818608E-02  0.9843728E-01
          1   -1    0    0  502    0  0.00000000000E+00  0.00000000000E+00  0.10044619713E+03  0.10044619713E+03  0.00000000000E+00 0.  1.
         13   -1    0    0    0    0 -0.00000000000E+00 -0.00000000000E+00 -0.10000000000E+04  0.10000000000E+04  0.00000000000E+00 0.  1.
    9000005    2    1    2  501    0 -0.50855828005E+00  0.86342356736E-01 -0.90048850055E+03  0.10993786081E+04  0.63067703168E+03 0.  0.
         13    1    3    3    0    0 -0.25623361597E+03  0.13262458091E+03 -0.67335815729E+03  0.73256819028E+03  0.00000000000E+00 0.  1.
          3    1    3    3  501    0  0.25572505769E+03 -0.13253823855E+03 -0.22713034326E+03  0.36681041784E+03  0.00000000000E+00 0.  1.
         21    1    1    2  502  501  0.50855828005E+00 -0.86342356736E-01  0.93469768589E+00  0.10675890084E+01  0.00000000000E+00 0.  1.
<mgrwt>
<rscale>  1 0.63067724E+03</rscale>
<asrwt>0</asrwt>
<pdfrwt beam="1">  1        1 0.36525967E+00 0.63067724E+03</pdfrwt>
<pdfrwt beam="2">0</pdfrwt>
<totfact> 0.19118339E+00</totfact>
</mgrwt>
</event>
<event>
 6    1  0.1866504E-003  0.6473135E+03  0.7818608E-02  0.9811833E-01
          1   -1    0    0  502    0  0.00000000000E+00  0.00000000000E+00  0.10859803379E+03  0.10859803379E+03  0.00000000000E+00 0.  1.
         13   -1    0    0    0    0 -0.00000000000E+00 -0.00000000000E+00 -0.10000000000E+04  0.10000000000E+04  0.00000000000E+00 0.  1.
    9000005    2    1    2  501    0  0.74309167296E-01 -0.47448042527E-01 -0.89524576247E+03  0.11047532265E+04  0.64731345462E+03 0.  0.
         13    1    3    3    0    0 -0.72170617152E+02 -0.20876955386E+03 -0.85137880960E+03  0.87956762221E+03  0.00000000000E+00 0.  1.
          3    1    3    3  501    0  0.72244926319E+02  0.20872210582E+03 -0.43866952868E+02  0.22518560432E+03  0.00000000000E+00 0.  1.
         21    1    1    2  502  501 -0.74309167296E-01  0.47448042527E-01  0.38437962617E+01  0.38448072605E+01  0.00000000000E+00 0.  1.
<mgrwt>
<rscale>  1 0.64731346E+03</rscale>
<asrwt>0</asrwt>
<pdfrwt beam="1">  1        1 0.39490277E+00 0.64731346E+03</pdfrwt>
<pdfrwt beam="2">0</pdfrwt>
<totfact> 0.14103396E+00</totfact>
</mgrwt>
</event>
<event>
 6    1  0.1866504E-003  0.6613085E+03  0.7818608E-02  0.9785788E-01
          1   -1    0    0  502    0  0.00000000000E+00  0.00000000000E+00  0.10942571721E+03  0.10942571721E+03  0.00000000000E+00 0.  1.
         13   -1    0    0    0    0 -0.00000000000E+00 -0.00000000000E+00 -0.10000000000E+04  0.10000000000E+04  0.00000000000E+00 0.  1.
    9000005    2    1    2  501    0  0.10823225994E-02 -0.10568413896E-02 -0.89066776449E+03  0.11093322233E+04  0.66130848693E+03 0.  0.
         13    1    3    3    0    0  0.30230383267E+03 -0.86769077144E+02 -0.27413167962E+03  0.41721056766E+03  0.00000000000E+00 0.  1.
          3    1    3    3  501    0 -0.30230275035E+03  0.86768020302E+02 -0.61653608487E+03  0.69212165561E+03  0.00000000000E+00 0.  1.
         21    1    1    2  502  501 -0.10823225994E-02  0.10568413896E-02  0.93481696963E-01  0.93493935648E-01  0.00000000000E+00 0.  1.
<mgrwt>
<rscale>  1 0.66130849E+03</rscale>
<asrwt>0</asrwt>
<pdfrwt beam="1">  1        1 0.39791254E+00 0.66130849E+03</pdfrwt>
<pdfrwt beam="2">0</pdfrwt>
<totfact> 0.13639238E+00</totfact>
</mgrwt>
</event>
<event>
 6    1  0.1866504E-003  0.6609443E+03  0.7818608E-02  0.9786457E-01
          1   -1    0    0  502    0  0.00000000000E+00  0.00000000000E+00  0.10921542373E+03  0.10921542373E+03  0.00000000000E+00 0.  1.
         13   -1    0    0    0    0 -0.00000000000E+00 -0.00000000000E+00 -0.10000000000E+04  0.10000000000E+04  0.00000000000E+00 0.  1.
    9000005    2    1    2  501    0 -0.79015847519E-02  0.24686768049E-02 -0.89078170404E+03  0.11092066614E+04  0.66094430422E+03 0.  0.
         13    1    3    3    0    0 -0.87609234175E+02  0.39925983978E+02  0.85154909393E+02  0.12853334471E+03  0.00000000000E+00 0.  1.
          1    1    3    3  501    0  0.87601332590E+02 -0.39923515301E+02 -0.97593661343E+03  0.98067331665E+03  0.00000000000E+00 0.  1.
         21    1    1    2  502  501  0.79015847519E-02 -0.24686768049E-02 -0.28722309781E-02  0.87623694028E-02  0.00000000000E+00 0.  1.
<mgrwt>
<rscale>  1 0.66094430E+03</rscale>
<asrwt>0</asrwt>
<pdfrwt beam="1">  1        1 0.39714783E+00 0.66094430E+03</pdfrwt>
<pdfrwt beam="2">0</pdfrwt>
<totfact> 0.13747538E+00</totfact>
</mgrwt>
</event>
<event>
 6    1  0.1866504E-003  0.6427013E+03  0.7818608E-02  0.9820572E-01
          1   -1    0    0  502    0  0.00000000000E+00  0.00000000000E+00  0.10386427004E+03  0.10386427004E+03  0.00000000000E+00 0.  1.
         13   -1    0    0    0    0 -0.00000000000E+00 -0.00000000000E+00 -0.10000000000E+04  0.10000000000E+04  0.00000000000E+00 0.  1.
    9000005    2    1    2  501    0  0.80368023384E+00  0.33822582970E+00 -0.89636136324E+03  0.11029635986E+04  0.64270074379E+03 0.  0.
         13    1    3    3    0    0 -0.29477028323E+03 -0.10288174002E+03 -0.32008485857E+03  0.44713363662E+03  0.00000000000E+00 0.  1.
          1    1    3    3  501    0  0.29557396346E+03  0.10321996585E+03 -0.57627650467E+03  0.65582996200E+03  0.00000000000E+00 0.  1.
         21    1    1    2  502  501 -0.80368023384E+00 -0.33822582970E+00  0.22563327939E+00  0.90067142006E+00  0.00000000000E+00 0.  1.
<mgrwt>
<rscale>  1 0.64270134E+03</rscale>
<asrwt>0</asrwt>
<pdfrwt beam="1">  1        1 0.37768905E+00 0.64270134E+03</pdfrwt>
<pdfrwt beam="2">0</pdfrwt>
<totfact> 0.16821872E+00</totfact>
</mgrwt>
</event>
<event>
 6    1  0.1866504E-003  0.6754500E+03  0.7818608E-02  0.9760162E-01
          1   -1    0    0  502    0  0.00000000000E+00  0.00000000000E+00  0.11408616572E+03  0.11408616572E+03  0.00000000000E+00 0.  1.
         13   -1    0    0    0    0 -0.00000000000E+00 -0.00000000000E+00 -0.10000000000E+04  0.10000000000E+04  0.00000000000E+00 0.  1.
    9000005    2    1    2  501    0 -0.15922722546E-02 -0.25498236674E-02 -0.88594173479E+03  0.11140581037E+04  0.67544999890E+03 0.  0.
         13    1    3    3    0    0  0.16573036054E+03  0.28284528612E+03 -0.30908442881E+03  0.45055653632E+03  0.00000000000E+00 0.  1.
          1    1    3    3  501    0 -0.16573195281E+03 -0.28284783595E+03 -0.57685730599E+03  0.66350156741E+03  0.00000000000E+00 0.  1.
         21    1    1    2  502  501  0.15922722546E-02  0.25498236674E-02  0.27900510199E-01  0.28061992107E-01  0.00000000000E+00 0.  1.
<mgrwt>
<rscale>  1 0.67545000E+03</rscale>
<asrwt>0</asrwt>
<pdfrwt beam="1">  1        1 0.41485966E+00 0.67545000E+03</pdfrwt>
<pdfrwt beam="2">0</pdfrwt>
<totfact> 0.11422844E+00</totfact>
</mgrwt>
</event>
<event>
 6    1  0.1866504E-003  0.6493492E+03  0.7818608E-02  0.9808001E-01
          1   -1    0    0  502    0  0.00000000000E+00  0.00000000000E+00  0.10646666098E+03  0.10646666098E+03  0.00000000000E+00 0.  1.
         13   -1    0    0    0    0 -0.00000000000E+00 -0.00000000000E+00 -0.10000000000E+04  0.10000000000E+04  0.00000000000E+00 0.  1.
    9000005    2    1    2  501    0 -0.13500988309E+00 -0.87327905992E-02 -0.89458161397E+03  0.11054096916E+04  0.64934913867E+03 0.  0.
         13    1    3    3    0    0 -0.12992847760E+03  0.43116673363E+02 -0.94854928393E+03  0.95837685743E+03  0.00000000000E+00 0.  1.
          1    1    3    3  501    0  0.12979346771E+03 -0.43125406154E+02  0.53967669964E+02  0.14703283415E+03  0.00000000000E+00 0.  1.
         21    1    1    2  502  501  0.13500988309E+00  0.87327905992E-02  0.10482749500E+01  0.10569693946E+01  0.00000000000E+00 0. -1.
<mgrwt>
<rscale>  1 0.64934915E+03</rscale>
<asrwt>0</asrwt>
<pdfrwt beam="1">  1        1 0.38715231E+00 0.64934915E+03</pdfrwt>
<pdfrwt beam="2">0</pdfrwt>
<totfact> 0.15259481E+00</totfact>
</mgrwt>
</event>
<event>
 6    1  0.1866504E-003  0.6424764E+03  0.7818608E-02  0.9821000E-01
          1   -1    0    0  502    0  0.00000000000E+00  0.00000000000E+00  0.10319398290E+03  0.10319398290E+03  0.00000000000E+00 0.  1.
         13   -1    0    0    0    0 -0.00000000000E+00 -0.00000000000E+00 -0.10000000000E+04  0.10000000000E+04  0.00000000000E+00 0.  1.
    9000005    2    1    2  501    0  0.78049859695E-05  0.57111935803E-05 -0.89680601597E+03  0.11031939732E+04  0.64247639033E+03 0.  0.
         13    1    3    3    0    0  0.86520944180E+02 -0.30825567786E+03 -0.40341179244E+03  0.51502282570E+03  0.00000000000E+00 0.  1.
          1    1    3    3  501    0 -0.86520936375E+02  0.30825568357E+03 -0.49339422354E+03  0.58817114746E+03  0.00000000000E+00 0.  1.
         21    1    1    2  502  501 -0.78049859743E-05 -0.57111935905E-05 -0.11275235480E-05  0.97368807962E-05  0.00000000000E+00 0.  1.
<mgrwt>
<rscale>  1 0.64247639E+03</rscale>
<asrwt>0</asrwt>
<pdfrwt beam="1">  1        1 0.37525164E+00 0.64247639E+03</pdfrwt>
<pdfrwt beam="2">0</pdfrwt>
<totfact> 0.17243611E+00</totfact>
</mgrwt>
</event>
<event>
 6    1  0.1866504E-003  0.6740619E+03  0.7818608E-02  0.9762648E-01
          1   -1    0    0  502    0  0.00000000000E+00  0.00000000000E+00  0.11391596727E+03  0.11391596727E+03  0.00000000000E+00 0.  1.
         13   -1    0    0    0    0 -0.00000000000E+00 -0.00000000000E+00 -0.10000000000E+04  0.10000000000E+04  0.00000000000E+00 0.  1.
    9000005    2    1    2  501    0  0.89960959024E-01  0.22033454511E+00 -0.88636101668E+03  0.11135507818E+04  0.67406189271E+03 0.  0.
         13    1    3    3    0    0 -0.14336548114E+03 -0.26246999634E+03 -0.18671623185E+03  0.35257213644E+03  0.00000000000E+00 0.  1.
          1    1    3    3  501    0  0.14345544210E+03  0.26269033088E+03 -0.69964478484E+03  0.76097864540E+03  0.00000000000E+00 0.  1.
         21    1    1    2  502  501 -0.89960959024E-01 -0.22033454511E+00  0.27698395694E+00  0.36518543005E+00  0.00000000000E+00 0.  1.
<mgrwt>
<rscale>  1 0.67406193E+03</rscale>
<asrwt>0</asrwt>
<pdfrwt beam="1">  1        1 0.41424075E+00 0.67406193E+03</pdfrwt>
<pdfrwt beam="2">0</pdfrwt>
<totfact> 0.11499334E+00</totfact>
</mgrwt>
</event>
<event>
 6    1  0.1866504E-003  0.6471558E+03  0.7818608E-02  0.9812131E-01
          1   -1    0    0  502    0  0.00000000000E+00  0.00000000000E+00  0.10471754787E+03  0.10471754787E+03  0.00000000000E+00 0.  1.
         13   -1    0    0    0    0 -0.00000000000E+00 -0.00000000000E+00 -0.10000000000E+04  0.10000000000E+04  0.00000000000E+00 0.  1.
    9000005    2    1    2  501    0 -0.94834967830E-02  0.48898565828E-02 -0.89529519930E+03  0.11047009245E+04  0.64715580697E+03 0.  0.
         13    1    3    3    0    0  0.11413659078E+03  0.91496371087E+02  0.45035999600E+02  0.15305877478E+03  0.00000000000E+00 0.  1.
          1    1    3    3  501    0 -0.11414607428E+03 -0.91491481230E+02 -0.94033119890E+03  0.95164214968E+03  0.00000000000E+00 0.  1.
         21    1    1    2  502  501  0.94834967830E-02 -0.48898565828E-02  0.12747173879E-01  0.16623412722E-01  0.00000000000E+00 0.  1.
<mgrwt>
<rscale>  1 0.64715581E+03</rscale>
<asrwt>0</asrwt>
<pdfrwt beam="1">  1        1 0.38079189E+00 0.64715581E+03</pdfrwt>
<pdfrwt beam="2">0</pdfrwt>
<totfact> 0.16286719E+00</totfact>
</mgrwt>
</event>
<event>
 6    1  0.1866504E-003  0.6697849E+03  0.7818608E-02  0.9770347E-01
          1   -1    0    0  502    0  0.00000000000E+00  0.00000000000E+00  0.11215327441E+03  0.11215327441E+03  0.00000000000E+00 0.  1.
         13   -1    0    0    0    0 -0.00000000000E+00 -0.00000000000E+00 -0.10000000000E+04  0.10000000000E+04  0.00000000000E+00 0.  1.
    9000005    2    1    2  501    0  0.26650526408E-04 -0.24995285969E-04 -0.88784705863E+03  0.11121529394E+04  0.66978486177E+03 0.  0.
         13    1    3    3    0    0  0.11391641030E+03 -0.31136702356E+03 -0.36557188050E+03  0.49352727555E+03  0.00000000000E+00 0.  1.
          3    1    3    3  501    0 -0.11391638365E+03  0.31136699857E+03 -0.52227517813E+03  0.61862566383E+03  0.00000000000E+00 0.  1.
         21    1    1    2  502  501 -0.26650526405E-04  0.24995285955E-04  0.33303584165E-03  0.33503415751E-03  0.00000000000E+00 0. -1.
<mgrwt>
<rscale>  1 0.66978486E+03</rscale>
<asrwt>0</asrwt>
<pdfrwt beam="1">  1        1 0.40783095E+00 0.66978486E+03</pdfrwt>
<pdfrwt beam="2">0</pdfrwt>
<totfact> 0.12296906E+00</totfact>
</mgrwt>
</event>
<event>
 6    1  0.3214353E-003  0.6624050E+03  0.7818608E-02  0.9783777E-01
          1   -1    0    0  502    0  0.00000000000E+00  0.00000000000E+00  0.10969514685E+03  0.10969514685E+03  0.00000000000E+00 0.  1.
         13   -1    0    0    0    0 -0.00000000000E+00 -0.00000000000E+00 -0.10000000000E+04  0.10000000000E+04  0.00000000000E+00 0.  1.
    9000005    2    1    2  501    0  0.68920527582E-04 -0.90397953784E-04 -0.89030479962E+03  0.11096950212E+04  0.66240501496E+03 0.  0.
         13    1    3    3    0    0  0.19869702314E+03 -0.23792051591E+03 -0.64057942963E+03  0.71163802917E+03  0.00000000000E+00 0.  1.
          1    1    3    3  501    0 -0.19869695422E+03  0.23792042551E+03 -0.24972536999E+03  0.39805699203E+03  0.00000000000E+00 0.  1.
         21    1    1    2  502  501 -0.68920527593E-04  0.90397953792E-04 -0.53534746220E-04  0.12564950548E-03  0.00000000000E+00 0. -1.
<mgrwt>
<rscale>  1 0.66240501E+03</rscale>
<asrwt>0</asrwt>
<pdfrwt beam="1">  1        1 0.39889228E+00 0.66240501E+03</pdfrwt>
<pdfrwt beam="2">0</pdfrwt>
<totfact> 0.13500073E+00</totfact>
</mgrwt>
</event>
<event>
 6    1  0.1866504E-003  0.6497964E+03  0.7818608E-02  0.9807161E-01
          1   -1    0    0  502    0  0.00000000000E+00  0.00000000000E+00  0.10607306139E+03  0.10607306139E+03  0.00000000000E+00 0.  1.
         13   -1    0    0    0    0 -0.00000000000E+00 -0.00000000000E+00 -0.10000000000E+04  0.10000000000E+04  0.00000000000E+00 0.  1.
    9000005    2    1    2  501    0  0.80421359133E+00  0.60328177227E+00 -0.89382805662E+03  0.11050628703E+04  0.64979561540E+03 0.  0.
         13    1    3    3    0    0  0.28174136959E+03 -0.18106841472E+02 -0.17279264459E+03  0.33100355749E+03  0.00000000000E+00 0.  1.
          1    1    3    3  501    0 -0.28093715600E+03  0.18710123245E+02 -0.72103541203E+03  0.77405931280E+03  0.00000000000E+00 0.  1.
         21    1    1    2  502  501 -0.80421359133E+00 -0.60328177227E+00 -0.98881989679E-01  0.10101910934E+01  0.00000000000E+00 0.  1.
<mgrwt>
<rscale>  1 0.64979639E+03</rscale>
<asrwt>0</asrwt>
<pdfrwt beam="1">  1        1 0.38572104E+00 0.64979639E+03</pdfrwt>
<pdfrwt beam="2">0</pdfrwt>
<totfact> 0.15482418E+00</totfact>
</mgrwt>
</event>
<event>
 6    1  0.1866504E-003  0.6471585E+03  0.7818608E-02  0.9812126E-01
          1   -1    0    0  502    0  0.00000000000E+00  0.00000000000E+00  0.11622686188E+03  0.11622686188E+03  0.00000000000E+00 0.  1.
         13   -1    0    0    0    0 -0.00000000000E+00 -0.00000000000E+00 -0.10000000000E+04  0.10000000000E+04  0.00000000000E+00 0.  1.
    9000005    2    1    2  501    0  0.13966172713E+00 -0.10137262164E+01 -0.89527135730E+03  0.11046831974E+04  0.64715772126E+03 0.  0.
         13    1    3    3    0    0 -0.13033103466E+03  0.29563273132E+03 -0.44577731722E+03  0.55054727951E+03  0.00000000000E+00 0.  1.
          3    1    3    3  501    0  0.13047069639E+03 -0.29664645754E+03 -0.44949404008E+03  0.55413591785E+03  0.00000000000E+00 0.  1.
         21    1    1    2  502  501 -0.13966172713E+00  0.10137262164E+01  0.11498219180E+02  0.11543664520E+02  0.00000000000E+00 0.  1.
<mgrwt>
<rscale>  1 0.64715853E+03</rscale>
<asrwt>0</asrwt>
<pdfrwt beam="1">  1        1 0.42264403E+00 0.64715853E+03</pdfrwt>
<pdfrwt beam="2">0</pdfrwt>
<totfact> 0.10594181E+00</totfact>
</mgrwt>
</event>
<event>
 6    1  0.1866504E-003  0.6285756E+03  0.7818608E-02  0.9847832E-01
          1   -1    0    0  502    0  0.00000000000E+00  0.00000000000E+00  0.11066296432E+03  0.11066296432E+03  0.00000000000E+00 0.  1.
         13   -1    0    0    0    0 -0.00000000000E+00 -0.00000000000E+00 -0.10000000000E+04  0.10000000000E+04  0.00000000000E+00 0.  1.
    9000005    2    1    2  501    0  0.93474248047E-01  0.17133192965E+01 -0.90115511224E+03  0.10987209739E+04  0.62857322412E+03 0.  0.
         13    1    3    3    0    0 -0.27640696186E+03  0.79210057870E+02 -0.67337302160E+03  0.73219278066E+03  0.00000000000E+00 0.  1.
          1    1    3    3  501    0  0.27650043611E+03 -0.77496738574E+02 -0.22778209064E+03  0.36652819329E+03  0.00000000000E+00 0.  1.
         21    1    1    2  502  501 -0.93474248047E-01 -0.17133192965E+01  0.11818076562E+02  0.11941990373E+02  0.00000000000E+00 0.  1.
<mgrwt>
<rscale>  1 0.62857557E+03</rscale>
<asrwt>0</asrwt>
<pdfrwt beam="1">  1        1 0.40241163E+00 0.62857557E+03</pdfrwt>
<pdfrwt beam="2">0</pdfrwt>
<totfact> 0.13105808E+00</totfact>
</mgrwt>
</event>
<event>
 6    1  0.1866504E-003  0.6524830E+03  0.7818608E-02  0.9802131E-01
          1   -1    0    0  502    0  0.00000000000E+00  0.00000000000E+00  0.10665067877E+03  0.10665067877E+03  0.00000000000E+00 0.  1.
         13   -1    0    0    0    0 -0.00000000000E+00 -0.00000000000E+00 -0.10000000000E+04  0.10000000000E+04  0.00000000000E+00 0.  1.
    9000005    2    1    2  501    0  0.47338974751E-02  0.44239137564E-01 -0.89356396164E+03  0.11064314756E+04  0.65248299192E+03 0.  0.
         13    1    3    3    0    0  0.50838814863E+02  0.14683956156E+03  0.39654662944E+02  0.16037123878E+03  0.00000000000E+00 0.  1.
          1    1    3    3  501    0 -0.50834080965E+02 -0.14679532242E+03 -0.93321862458E+03  0.94606023685E+03  0.00000000000E+00 0.  1.
         21    1    1    2  502  501 -0.47338974751E-02 -0.44239137564E-01  0.21464041154E+00  0.21920314173E+00  0.00000000000E+00 0. -1.
<mgrwt>
<rscale>  1 0.65248299E+03</rscale>
<asrwt>0</asrwt>
<pdfrwt beam="1">  1        1 0.38782147E+00 0.65248299E+03</pdfrwt>
<pdfrwt beam="2">0</pdfrwt>
<totfact> 0.15146905E+00</totfact>
</mgrwt>
</event>
<event>
 6    1  0.1866504E-003  0.6482189E+03  0.7818608E-02  0.9810127E-01
          1   -1    0    0  502    0  0.00000000000E+00  0.00000000000E+00  0.10551216364E+03  0.10551216364E+03  0.00000000000E+00 0.  1.
         13   -1    0    0    0    0 -0.00000000000E+00 -0.00000000000E+00 -0.10000000000E+04  0.10000000000E+04  0.00000000000E+00 0.  1.
    9000005    2    1    2  501    0 -0.92140320283E-02 -0.13121909825E-01 -0.89495291455E+03  0.11050468091E+04  0.64821889117E+03 0.  0.
         13    1    3    3    0    0 -0.24085331542E+03 -0.20008415119E+03 -0.59019517688E+03  0.66811251591E+03  0.00000000000E+00 0.  1.
          3    1    3    3  501    0  0.24084410138E+03  0.20007102928E+03 -0.30475773767E+03  0.43693429323E+03  0.00000000000E+00 0.  1.
         21    1    1    2  502  501  0.92140320283E-02  0.13121909825E-01  0.46507818820E+00  0.46535449288E+00  0.00000000000E+00 0. -1.
<mgrwt>
<rscale>  1 0.64821889E+03</rscale>
<asrwt>0</asrwt>
<pdfrwt beam="1">  1        1 0.38368140E+00 0.64821889E+03</pdfrwt>
<pdfrwt beam="2">0</pdfrwt>
<totfact> 0.15811951E+00</totfact>
</mgrwt>
</event>
<event>
 6    1  0.1866504E-003  0.6497843E+03  0.7818608E-02  0.9807184E-01
          1   -1    0    0  502    0  0.00000000000E+00  0.00000000000E+00  0.10555801531E+03  0.10555801531E+03  0.00000000000E+00 0.  1.
         13   -1    0    0    0    0 -0.00000000000E+00 -0.00000000000E+00 -0.10000000000E+04  0.10000000000E+04  0.00000000000E+00 0.  1.
    9000005    2    1    2  501    0 -0.11325308762E-03 -0.81055610912E-03 -0.89444501960E+03  0.11055548720E+04  0.64978433491E+03 0.  0.
         13    1    3    3    0    0 -0.13808534052E+03  0.25046875116E+03 -0.70944248451E+03  0.76492535283E+03  0.00000000000E+00 0.  1.
          1    1    3    3  501    0  0.13808522726E+03 -0.25046956171E+03 -0.18500253509E+03  0.34062951916E+03  0.00000000000E+00 0.  1.
         21    1    1    2  502  501  0.11325308763E-03  0.81055610912E-03  0.30349050061E-02  0.31433224245E-02  0.00000000000E+00 0.  1.
<mgrwt>
<rscale>  1 0.64978433E+03</rscale>
<asrwt>0</asrwt>
<pdfrwt beam="1">  1        1 0.38384814E+00 0.64978433E+03</pdfrwt>
<pdfrwt beam="2">0</pdfrwt>
<totfact> 0.15780581E+00</totfact>
</mgrwt>
</event>
<event>
 6    1  0.1866504E-003  0.6484038E+03  0.7818608E-02  0.9809779E-01
          1   -1    0    0  502    0  0.00000000000E+00  0.00000000000E+00  0.10512809867E+03  0.10512809867E+03  0.00000000000E+00 0.  1.
         13   -1    0    0    0    0 -0.00000000000E+00 -0.00000000000E+00 -0.10000000000E+04  0.10000000000E+04  0.00000000000E+00 0.  1.
    9000005    2    1    2  501    0 -0.15930502395E-01  0.56029525077E-01 -0.89483249804E+03  0.11050577729E+04  0.64840379287E+03 0.  0.
         13    1    3    3    0    0  0.42803911630E+02 -0.55180503392E+02 -0.98695573860E+03  0.98942341429E+03  0.00000000000E+00 0.  1.
          1    1    3    3  501    0 -0.42819842132E+02  0.55236532917E+02  0.92123240559E+02  0.11563435865E+03  0.00000000000E+00 0.  1.
         21    1    1    2  502  501  0.15930502395E-01 -0.56029525077E-01 -0.39403292263E-01  0.70325728067E-01  0.00000000000E+00 0.  1.
<mgrwt>
<rscale>  1 0.64840380E+03</rscale>
<asrwt>0</asrwt>
<pdfrwt beam="1">  1        1 0.38228480E+00 0.64840380E+03</pdfrwt>
<pdfrwt beam="2">0</pdfrwt>
<totfact> 0.16037688E+00</totfact>
</mgrwt>
</event>
<event>
 6    1  0.1866504E-003  0.6479099E+03  0.7818608E-02  0.9810709E-01
          1   -1    0    0  502    0  0.00000000000E+00  0.00000000000E+00  0.10494681332E+03  0.10494681332E+03  0.00000000000E+00 0.  1.
         13   -1    0    0    0    0 -0.00000000000E+00 -0.00000000000E+00 -0.10000000000E+04  0.10000000000E+04  0.00000000000E+00 0.  1.
    9000005    2    1    2  501    0 -0.50761013699E-05  0.84122290218E-05 -0.89505319895E+03  0.11049467976E+04  0.64790986763E+03 0.  0.
         13    1    3    3    0    0  0.29006524267E+01  0.31639569677E+03 -0.32897784260E+03  0.45644394140E+03  0.00000000000E+00 0.  1.
          3    1    3    3  501    0 -0.29006575028E+01 -0.31639568836E+03 -0.56607535636E+03  0.64850285620E+03  0.00000000000E+00 0.  1.
         21    1    1    2  502  501  0.50761013696E-05 -0.84122289844E-05  0.12271504554E-04  0.15720121679E-04  0.00000000000E+00 0. -1.
<mgrwt>
<rscale>  1 0.64790987E+03</rscale>
<asrwt>0</asrwt>
<pdfrwt beam="1">  1        1 0.38162558E+00 0.64790987E+03</pdfrwt>
<pdfrwt beam="2">0</pdfrwt>
<totfact> 0.16147032E+00</totfact>
</mgrwt>
</event>
<event>
 6    1  0.1866504E-003  0.6543668E+03  0.7818608E-02  0.9798620E-01
          1   -1    0    0  502    0  0.00000000000E+00  0.00000000000E+00  0.10707069499E+03  0.10707069499E+03  0.00000000000E+00 0.  1.
         13   -1    0    0    0    0 -0.00000000000E+00 -0.00000000000E+00 -0.10000000000E+04  0.10000000000E+04  0.00000000000E+00 0.  1.
    9000005    2    1    2  501    0  0.44716783324E-02  0.58909924516E-02 -0.89295034032E+03  0.11070483974E+04  0.65436675022E+03 0.  0.
         13    1    3    3    0    0 -0.20078472595E+03  0.23742280341E+03 -0.27423473539E+03  0.41459472241E+03  0.00000000000E+00 0.  1.
          1    1    3    3  501    0  0.20078919763E+03 -0.23741691242E+03 -0.61871560493E+03  0.69245367496E+03  0.00000000000E+00 0.  1.
         21    1    1    2  502  501 -0.44716783324E-02 -0.58909924516E-02  0.21035305434E-01  0.22297618122E-01  0.00000000000E+00 0.  1.
<mgrwt>
<rscale>  1 0.65436675E+03</rscale>
<asrwt>0</asrwt>
<pdfrwt beam="1">  1        1 0.38934880E+00 0.65436675E+03</pdfrwt>
<pdfrwt beam="2">0</pdfrwt>
<totfact> 0.14907474E+00</totfact>
</mgrwt>
</event>
<event>
 6    1  0.1866504E-003  0.6284503E+03  0.7818608E-02  0.9848078E-01
          1   -1    0    0  502    0  0.00000000000E+00  0.00000000000E+00  0.10011688299E+03  0.10011688299E+03  0.00000000000E+00 0.  1.
         13   -1    0    0    0    0 -0.00000000000E+00 -0.00000000000E+00 -0.10000000000E+04  0.10000000000E+04  0.00000000000E+00 0.  1.
    9000005    2    1    2  501    0 -0.42294008120E+01 -0.10060333069E+01 -0.89450871564E+03  0.10932042768E+04  0.62843523814E+03 0.  0.
         13    1    3    3    0    0  0.10978680940E+03 -0.28367024490E+03 -0.58187538901E+03  0.65658275921E+03  0.00000000000E+00 0.  1.
          1    1    3    3  501    0 -0.11401621021E+03  0.28266421159E+03 -0.31263332663E+03  0.43662151760E+03  0.00000000000E+00 0.  1.
         21    1    1    2  502  501  0.42294008120E+01  0.10060333069E+01 -0.53744013653E+01  0.69126061857E+01  0.00000000000E+00 0. -1.
<mgrwt>
<rscale>  1 0.62845028E+03</rscale>
<asrwt>0</asrwt>
<pdfrwt beam="1">  1        1 0.36406216E+00 0.62845028E+03</pdfrwt>
<pdfrwt beam="2">0</pdfrwt>
<totfact> 0.19358549E+00</totfact>
</mgrwt>
</event>
<event>
 6    1  0.1866504E-003  0.6548272E+03  0.7818608E-02  0.9797763E-01
          1   -1    0    0  502    0  0.00000000000E+00  0.00000000000E+00  0.12383225381E+03  0.12383225381E+03  0.00000000000E+00 0.  1.
         13   -1    0    0    0    0 -0.00000000000E+00 -0.00000000000E+00 -0.10000000000E+04  0.10000000000E+04  0.00000000000E+00 0.  1.
    9000005    2    1    2  501    0  0.25899613497E+00  0.16795626393E+00 -0.89279874962E+03  0.11071983858E+04  0.65482712451E+03 0.  0.
         13    1    3    3    0    0 -0.16476798019E+03 -0.18180877482E+03 -0.81251059765E+03  0.84874989791E+03  0.00000000000E+00 0.  1.
          3    1    3    3  501    0  0.16502697633E+03  0.18197673108E+03 -0.80288151971E+02  0.25844848794E+03  0.00000000000E+00 0.  1.
         21    1    1    2  502  501 -0.25899613497E+00 -0.16795626393E+00  0.16631003434E+02  0.16633867966E+02  0.00000000000E+00 0.  1.
<mgrwt>
<rscale>  1 0.65482720E+03</rscale>
<asrwt>0</asrwt>
<pdfrwt beam="1">  1        1 0.45030005E+00 0.65482720E+03</pdfrwt>
<pdfrwt beam="2">0</pdfrwt>
<totfact> 0.79115898E-01</totfact>
</mgrwt>
</event>
<event>
 6    1  0.1866504E-003  0.6720725E+03  0.7818608E-02  0.9766221E-01
          1   -1    0    0  502    0  0.00000000000E+00  0.00000000000E+00  0.11490589677E+03  0.11490589677E+03  0.00000000000E+00 0.  1.
         13   -1    0    0    0    0 -0.00000000000E+00 -0.00000000000E+00 -0.10000000000E+04  0.10000000000E+04  0.00000000000E+00 0.  1.
    9000005    2    1    2  501    0  0.11045007466E+01 -0.26832475386E+01 -0.88581824542E+03  0.11119152244E+04  0.67206627843E+03 0.  0.
         13    1    3    3    0    0 -0.15172188204E+03  0.26071748420E+03 -0.20111826190E+03  0.36254888129E+03  0.00000000000E+00 0.  1.
          3    1    3    3  501    0  0.15282638278E+03 -0.26340073174E+03 -0.68469998352E+03  0.74936634311E+03  0.00000000000E+00 0.  1.
         21    1    1    2  502  501 -0.11045007466E+01  0.26832475386E+01  0.72414218661E+00  0.29906723591E+01  0.00000000000E+00 0.  1.
<mgrwt>
<rscale>  1 0.67207254E+03</rscale>
<asrwt>0</asrwt>
<pdfrwt beam="1">  1        1 0.41784051E+00 0.67207254E+03</pdfrwt>
<pdfrwt beam="2">0</pdfrwt>
<totfact> 0.11082279E+00</totfact>
</mgrwt>
</event>
<event>
 6    1  0.1866504E-003  0.6478636E+03  0.7818608E-02  0.9810796E-01
          1   -1    0    0  502    0  0.00000000000E+00  0.00000000000E+00  0.10517473431E+03  0.10517473431E+03  0.00000000000E+00 0.  1.
         13   -1    0    0    0    0 -0.00000000000E+00 -0.00000000000E+00 -0.10000000000E+04  0.10000000000E+04  0.00000000000E+00 0.  1.
    9000005    2    1    2  501    0  0.23979580151E-02 -0.22364680604E-02 -0.89506817250E+03  0.11049318054E+04  0.64786361302E+03 0.  0.
         13    1    3    3    0    0 -0.27869378018E+03  0.16502324955E+03 -0.43852626511E+03  0.54516803024E+03  0.00000000000E+00 0.  1.
          1    1    3    3  501    0  0.27869617813E+03 -0.16502548602E+03 -0.45654190739E+03  0.55976377513E+03  0.00000000000E+00 0.  1.
         21    1    1    2  502  501 -0.23979580151E-02  0.22364680604E-02  0.24290681031E+00  0.24292894123E+00  0.00000000000E+00 0.  1.
<mgrwt>
<rscale>  1 0.64786361E+03</rscale>
<asrwt>0</asrwt>
<pdfrwt beam="1">  1        1 0.38245439E+00 0.64786361E+03</pdfrwt>
<pdfrwt beam="2">0</pdfrwt>
<totfact> 0.16011642E+00</totfact>
</mgrwt>
</event>
<event>
 6    1  0.1866504E-003  0.6559970E+03  0.7818608E-02  0.9795591E-01
          1   -1    0    0  502    0  0.00000000000E+00  0.00000000000E+00  0.10758596215E+03  0.10758596215E+03  0.00000000000E+00 0.  1.
         13   -1    0    0    0    0 -0.00000000000E+00 -0.00000000000E+00 -0.10000000000E+04  0.10000000000E+04  0.00000000000E+00 0.  1.
    9000005    2    1    2  501    0  0.13818580406E-02 -0.16779686613E-02 -0.89241651986E+03  0.11075826628E+04  0.65599703513E+03 0.  0.
         13    1    3    3    0    0  0.12701571257E+03  0.30239599306E+03 -0.44194699860E+03  0.55035759051E+03  0.00000000000E+00 0.  1.
          1    1    3    3  501    0 -0.12701433071E+03 -0.30239767103E+03 -0.45046952126E+03  0.55722507233E+03  0.00000000000E+00 0.  1.
         21    1    1    2  502  501 -0.13818580406E-02  0.16779686613E-02  0.24820112348E-02  0.32993166326E-02  0.00000000000E+00 0. -1.
<mgrwt>
<rscale>  1 0.65599704E+03</rscale>
<asrwt>0</asrwt>
<pdfrwt beam="1">  1        1 0.39122251E+00 0.65599704E+03</pdfrwt>
<pdfrwt beam="2">0</pdfrwt>
<totfact> 0.14620493E+00</totfact>
</mgrwt>
</event>
<event>
 6    1  0.1866504E-003  0.6542035E+03  0.7818608E-02  0.9798924E-01
          1   -1    0    0  502    0  0.00000000000E+00  0.00000000000E+00  0.10699555100E+03  0.10699555100E+03  0.00000000000E+00 0.  1.
         13   -1    0    0    0    0 -0.00000000000E+00 -0.00000000000E+00 -0.10000000000E+04  0.10000000000E+04  0.00000000000E+00 0.  1.
    9000005    2    1    2  501    0  0.17136710397E-05 -0.23614380211E-05 -0.89300446001E+03  0.11069955396E+04  0.65420345391E+03 0.  0.
         13    1    3    3    0    0 -0.74425293462E+02  0.27688475540E+03 -0.71293167560E+03  0.76842427484E+03  0.00000000000E+00 0.  1.
          3    1    3    3  501    0  0.74425295175E+02 -0.27688475776E+03 -0.18007278441E+03  0.33857126477E+03  0.00000000000E+00 0.  1.
         21    1    1    2  502  501 -0.17136710407E-05  0.23614380132E-05  0.11011262984E-04  0.11391267288E-04  0.00000000000E+00 0.  1.
<mgrwt>
<rscale>  1 0.65420345E+03</rscale>
<asrwt>0</asrwt>
<pdfrwt beam="1">  1        1 0.38907555E+00 0.65420345E+03</pdfrwt>
<pdfrwt beam="2">0</pdfrwt>
<totfact> 0.14949564E+00</totfact>
</mgrwt>
</event>
<event>
 6    1  0.1866504E-003  0.6505780E+03  0.7818608E-02  0.9805695E-01
          1   -1    0    0  502    0  0.00000000000E+00  0.00000000000E+00  0.11374900850E+03  0.11374900850E+03  0.00000000000E+00 0.  1.
         13   -1    0    0    0    0 -0.00000000000E+00 -0.00000000000E+00 -0.10000000000E+04  0.10000000000E+04  0.00000000000E+00 0.  1.
    9000005    2    1    2  501    0  0.18359223305E+00  0.14481469371E+00 -0.89418517724E+03  0.11058113778E+04  0.65057791038E+03 0.  0.
         13    1    3    3    0    0  0.25379306743E+03 -0.98649316093E+02 -0.74980272345E+03  0.79771344024E+03  0.00000000000E+00 0.  1.
          3    1    3    3  501    0 -0.25360947520E+03  0.98794130786E+02 -0.14438245378E+03  0.30809793759E+03  0.00000000000E+00 0.  1.
         21    1    1    2  502  501 -0.18359223305E+00 -0.14481469371E+00  0.79341857403E+01  0.79376306771E+01  0.00000000000E+00 0. -1.
<mgrwt>
<rscale>  1 0.65057795E+03</rscale>
<asrwt>0</asrwt>
<pdfrwt beam="1">  1        1 0.41363363E+00 0.65057795E+03</pdfrwt>
<pdfrwt beam="2">0</pdfrwt>
<totfact> 0.11624196E+00</totfact>
</mgrwt>
</event>
<event>
 6    1  0.1866504E-003  0.6654552E+03  0.7818608E-02  0.9778203E-01
          1   -1    0    0  502    0  0.00000000000E+00  0.00000000000E+00  0.12445136071E+03  0.12445136071E+03  0.00000000000E+00 0.  1.
         13   -1    0    0    0    0 -0.00000000000E+00 -0.00000000000E+00 -0.10000000000E+04  0.10000000000E+04  0.00000000000E+00 0.  1.
    9000005    2    1    2  501    0 -0.54208547210E+01  0.35602315479E+02 -0.85335794741E+03  0.10821508012E+04  0.66447999179E+03 0.  0.
         13    1    3    3    0    0 -0.12050636414E+03 -0.77347189656E+02 -0.90233390002E+03  0.91362510839E+03  0.00000000000E+00 0.  1.
          3    1    3    3  501    0  0.11508550942E+03  0.11294950513E+03  0.48975952611E+02  0.16852569276E+03  0.00000000000E+00 0.  1.
         21    1    1    2  502  501  0.54208547210E+01 -0.35602315479E+02 -0.22190691873E+02  0.42300559561E+02  0.00000000000E+00 0. -1.
<mgrwt>
<rscale>  1 0.66545516E+03</rscale>
<asrwt>0</asrwt>
<pdfrwt beam="1">  1        1 0.45255136E+00 0.66545516E+03</pdfrwt>
<pdfrwt beam="2">0</pdfrwt>
<totfact> 0.77077745E-01</totfact>
</mgrwt>
</event>
<event>
 6    1  0.1866504E-003  0.6680716E+03  0.7818608E-02  0.9773448E-01
          1   -1    0    0  502    0  0.00000000000E+00  0.00000000000E+00  0.11158221507E+03  0.11158221507E+03  0.00000000000E+00 0.  1.
         13   -1    0    0    0    0 -0.00000000000E+00 -0.00000000000E+00 -0.10000000000E+04  0.10000000000E+04  0.00000000000E+00 0.  1.
    9000005    2    1    2  501    0  0.94636237577E-04 -0.26013684578E-03 -0.88842008209E+03  0.11115799013E+04  0.66807157903E+03 0.  0.
         13    1    3    3    0    0 -0.26755808029E+03  0.19053259292E+03 -0.34314010090E+03  0.47501065687E+03  0.00000000000E+00 0.  1.
          1    1    3    3  501    0  0.26755817493E+03 -0.19053285306E+03 -0.54527998119E+03  0.63656924443E+03  0.00000000000E+00 0.  1.
         21    1    1    2  502  501 -0.94636237587E-04  0.26013684577E-03  0.22971572765E-02  0.23137758641E-02  0.00000000000E+00 0. -1.
<mgrwt>
<rscale>  1 0.66807158E+03</rscale>
<asrwt>0</asrwt>
<pdfrwt beam="1">  1        1 0.40575436E+00 0.66807158E+03</pdfrwt>
<pdfrwt beam="2">0</pdfrwt>
<totfact> 0.12567042E+00</totfact>
</mgrwt>
</event>
<event>
 6    1  0.1866504E-003  0.6346441E+03  0.7818608E-02  0.9836028E-01
          1   -1    0    0  502    0  0.00000000000E+00  0.00000000000E+00  0.10069385673E+03  0.10069385673E+03  0.00000000000E+00 0.  1.
         13   -1    0    0    0    0 -0.00000000000E+00 -0.00000000000E+00 -0.10000000000E+04  0.10000000000E+04  0.00000000000E+00 0.  1.
    9000005    2    1    2  501    0 -0.44055655496E-03 -0.35682471500E-03 -0.89930657853E+03  0.11006931420E+04  0.63464405032E+03 0.  0.
         13    1    3    3    0    0 -0.13071339986E+03 -0.45563756858E+02  0.45566586628E+02  0.14573387615E+03  0.00000000000E+00 0.  1.
          1    1    3    3  501    0  0.13071295930E+03  0.45563400034E+02 -0.94487316516E+03  0.95495926583E+03  0.00000000000E+00 0.  1.
         21    1    1    2  502  501  0.44055655497E-03  0.35682471500E-03  0.43526064485E-03  0.71474875608E-03  0.00000000000E+00 0.  1.
<mgrwt>
<rscale>  1 0.63464405E+03</rscale>
<asrwt>0</asrwt>
<pdfrwt beam="1">  1        1 0.36616025E+00 0.63464405E+03</pdfrwt>
<pdfrwt beam="2">0</pdfrwt>
<totfact> 0.18931686E+00</totfact>
</mgrwt>
</event>
<event>
 6    1  0.1866504E-003  0.6520213E+03  0.7818608E-02  0.9802994E-01
          1   -1    0    0  502    0  0.00000000000E+00  0.00000000000E+00  0.10628611871E+03  0.10628611871E+03  0.00000000000E+00 0.  1.
         13   -1    0    0    0    0 -0.00000000000E+00 -0.00000000000E+00 -0.10000000000E+04  0.10000000000E+04  0.00000000000E+00 0.  1.
    9000005    2    1    2  501    0  0.16874737194E-02 -0.55308647899E-02 -0.89371383353E+03  0.11062803359E+04  0.65202129216E+03 0.  0.
         13    1    3    3    0    0 -0.17209077311E+03 -0.25878772163E+03 -0.61394498451E+03  0.68812408987E+03  0.00000000000E+00 0.  1.
          1    1    3    3  501    0  0.17209246059E+03  0.25878219077E+03 -0.27976884902E+03  0.41815624608E+03  0.00000000000E+00 0.  1.
         21    1    1    2  502  501 -0.16874737195E-02  0.55308647899E-02 -0.47766700930E-04  0.57827601140E-02  0.00000000000E+00 0. -1.
<mgrwt>
<rscale>  1 0.65202129E+03</rscale>
<asrwt>0</asrwt>
<pdfrwt beam="1">  1        1 0.38649579E+00 0.65202129E+03</pdfrwt>
<pdfrwt beam="2">0</pdfrwt>
<totfact> 0.15354345E+00</totfact>
</mgrwt>
</event>
<event>
 6    1  0.1866504E-003  0.6399350E+03  0.7818608E-02  0.9825851E-01
          1   -1    0    0  502    0  0.00000000000E+00  0.00000000000E+00  0.11642114126E+03  0.11642114126E+03  0.00000000000E+00 0.  1.
         13   -1    0    0    0    0 -0.00000000000E+00 -0.00000000000E+00 -0.10000000000E+04  0.10000000000E+04  0.00000000000E+00 0.  1.
    9000005    2    1    2  501    0 -0.67317617879E+00  0.84661969795E+01 -0.89619142787E+03  0.11012156634E+04  0.63987868555E+03 0.  0.
         13    1    3    3    0    0 -0.18987783587E+03  0.26177709883E+03 -0.43434355771E+03  0.54151192798E+03  0.00000000000E+00 0.  1.
          3    1    3    3  501    0  0.18920465969E+03 -0.25331090185E+03 -0.46184787016E+03  0.55970373539E+03  0.00000000000E+00 0.  1.
         21    1    1    2  502  501  0.67317617879E+00 -0.84661969795E+01  0.12612569135E+02  0.15205477883E+02  0.00000000000E+00 0.  1.
<mgrwt>
<rscale>  1 0.63993505E+03</rscale>
<asrwt>0</asrwt>
<pdfrwt beam="1">  1        1 0.42335050E+00 0.63993505E+03</pdfrwt>
<pdfrwt beam="2">0</pdfrwt>
<totfact> 0.10531856E+00</totfact>
</mgrwt>
</event>
<event>
 6    1  0.1866504E-003  0.7099522E+03  0.7818608E-02  0.9700362E-01
          1   -1    0    0  502    0  0.00000000000E+00  0.00000000000E+00  0.12746935901E+03  0.12746935901E+03  0.00000000000E+00 0.  1.
         13   -1    0    0    0    0 -0.00000000000E+00 -0.00000000000E+00 -0.10000000000E+04  0.10000000000E+04  0.00000000000E+00 0.  1.
    9000005    2    1    2  501    0  0.75804883905E-02 -0.26294087666E+00 -0.87397861078E+03  0.11259976893E+04  0.70995219199E+03 0.  0.
         13    1    3    3    0    0 -0.73461365319E+02  0.32142749725E+03 -0.22877234176E+03  0.40130909850E+03  0.00000000000E+00 0.  1.
          1    1    3    3  501    0  0.73468945808E+02 -0.32169043813E+03 -0.64520626902E+03  0.72468859075E+03  0.00000000000E+00 0.  1.
         21    1    1    2  502  501 -0.75804883905E-02  0.26294087666E+00  0.14479697902E+01  0.14716697598E+01  0.00000000000E+00 0. -1.
<mgrwt>
<rscale>  1 0.70995224E+03</rscale>
<asrwt>0</asrwt>
<pdfrwt beam="1">  1        1 0.46352592E+00 0.70995224E+03</pdfrwt>
<pdfrwt beam="2">0</pdfrwt>
<totfact> 0.67938441E-01</totfact>
</mgrwt>
</event>
<event>
 6    1  0.1866504E-003  0.6501350E+03  0.7818608E-02  0.9806526E-01
          1   -1    0    0  502    0  0.00000000000E+00  0.00000000000E+00  0.10566995302E+03  0.10566995302E+03  0.00000000000E+00 0.  1.
         13   -1    0    0    0    0 -0.00000000000E+00 -0.00000000000E+00 -0.10000000000E+04  0.10000000000E+04  0.00000000000E+00 0.  1.
    9000005    2    1    2  501    0 -0.17160129389E-04  0.77299712586E-06 -0.89433110964E+03  0.11056688902E+04  0.65013503299E+03 0.  0.
         13    1    3    3    0    0  0.10482584353E+03 -0.11727559989E+03 -0.93096779495E+03  0.94416262319E+03  0.00000000000E+00 0.  1.
          3    1    3    3  501    0 -0.10482586069E+03  0.11727560066E+03  0.36636685302E+02  0.16150626703E+03  0.00000000000E+00 0.  1.
         21    1    1    2  502  501  0.17160129388E-04 -0.77299712115E-06  0.10626656452E-02  0.10628044698E-02  0.00000000000E+00 0.  1.
<mgrwt>
<rscale>  1 0.65013503E+03</rscale>
<asrwt>0</asrwt>
<pdfrwt beam="1">  1        1 0.38425518E+00 0.65013503E+03</pdfrwt>
<pdfrwt beam="2">0</pdfrwt>
<totfact> 0.15714309E+00</totfact>
</mgrwt>
</event>
<event>
 6    1  0.1866504E-003  0.6537537E+03  0.7818608E-02  0.9799761E-01
          1   -1    0    0  502    0  0.00000000000E+00  0.00000000000E+00  0.10684861948E+03  0.10684861948E+03  0.00000000000E+00 0.  1.
         13   -1    0    0    0    0 -0.00000000000E+00 -0.00000000000E+00 -0.10000000000E+04  0.10000000000E+04  0.00000000000E+00 0.  1.
    9000005    2    1    2  501    0 -0.12624796477E-03 -0.12998173378E-03 -0.89315145281E+03  0.11068484244E+04  0.65375371273E+03 0.  0.
         13    1    3    3    0    0 -0.26149998069E+03  0.19080900987E+03 -0.52338517138E+03  0.61540422144E+03  0.00000000000E+00 0.  1.
          3    1    3    3  501    0  0.26149985444E+03 -0.19080913986E+03 -0.36976628144E+03  0.49144420295E+03  0.00000000000E+00 0.  1.
         21    1    1    2  502  501  0.12624796477E-03  0.12998173379E-03  0.72295962615E-04  0.19509101962E-03  0.00000000000E+00 0.  1.
<mgrwt>
<rscale>  1 0.65375371E+03</rscale>
<asrwt>0</asrwt>
<pdfrwt beam="1">  1        1 0.38854125E+00 0.65375371E+03</pdfrwt>
<pdfrwt beam="2">0</pdfrwt>
<totfact> 0.15032552E+00</totfact>
</mgrwt>
</event>
<event>
 6    1  0.1866504E-003  0.6799292E+03  0.7818608E-02  0.9752185E-01
          1   -1    0    0  502    0  0.00000000000E+00  0.00000000000E+00  0.11557653606E+03  0.11557653606E+03  0.00000000000E+00 0.  1.
         13   -1    0    0    0    0 -0.00000000000E+00 -0.00000000000E+00 -0.10000000000E+04  0.10000000000E+04  0.00000000000E+00 0.  1.
    9000005    2    1    2  501    0  0.88505081521E-05  0.71675891036E-05 -0.88442405906E+03  0.11155759408E+04  0.67992923419E+03 0.  0.
         13    1    3    3    0    0 -0.27184900672E+03  0.14203254357E+03 -0.68279388346E+03  0.74852028241E+03  0.00000000000E+00 0.  1.
          1    1    3    3  501    0  0.27184901557E+03 -0.14203253640E+03 -0.20163017560E+03  0.36705565842E+03  0.00000000000E+00 0.  1.
         21    1    1    2  502  501 -0.88505081301E-05 -0.71675891004E-05  0.59512585261E-03  0.59523481608E-03  0.00000000000E+00 0. -1.
<mgrwt>
<rscale>  1 0.67992923E+03</rscale>
<asrwt>0</asrwt>
<pdfrwt beam="1">  1        1 0.42027920E+00 0.67992923E+03</pdfrwt>
<pdfrwt beam="2">0</pdfrwt>
<totfact> 0.10788881E+00</totfact>
</mgrwt>
</event>
<event>
 6    1  0.1866504E-003  0.6512463E+03  0.7818608E-02  0.9804443E-01
          1   -1    0    0  502    0  0.00000000000E+00  0.00000000000E+00  0.10603044957E+03  0.10603044957E+03  0.00000000000E+00 0.  1.
         13   -1    0    0    0    0 -0.00000000000E+00 -0.00000000000E+00 -0.10000000000E+04  0.10000000000E+04  0.00000000000E+00 0.  1.
    9000005    2    1    2  501    0  0.54653518902E-05  0.56309238516E-06 -0.89396955317E+03  0.11060304434E+04  0.65124632804E+03 0.  0.
         13    1    3    3    0    0  0.10345491996E+03 -0.30796138029E+03 -0.48447567574E+03  0.58331793441E+03  0.00000000000E+00 0.  1.
          3    1    3    3  501    0 -0.10345491450E+03  0.30796138086E+03 -0.40949387743E+03  0.52271250902E+03  0.00000000000E+00 0.  1.
         21    1    1    2  502  501 -0.54653518844E-05 -0.56309236903E-06  0.27466507649E-05  0.61425755722E-05  0.00000000000E+00 0.  1.
<mgrwt>
<rscale>  1 0.65124633E+03</rscale>
<asrwt>0</asrwt>
<pdfrwt beam="1">  1        1 0.38556608E+00 0.65124633E+03</pdfrwt>
<pdfrwt beam="2">0</pdfrwt>
<totfact> 0.15502723E+00</totfact>
</mgrwt>
</event>
<event>
 6    1  0.1866504E-003  0.6510108E+03  0.7818608E-02  0.9804884E-01
          1   -1    0    0  502    0  0.00000000000E+00  0.00000000000E+00  0.10595381512E+03  0.10595381512E+03  0.00000000000E+00 0.  1.
         13   -1    0    0    0    0 -0.00000000000E+00 -0.00000000000E+00 -0.10000000000E+04  0.10000000000E+04  0.00000000000E+00 0.  1.
    9000005    2    1    2  501    0  0.47200392032E-04  0.85449329220E-04 -0.89404618842E+03  0.11059537174E+04  0.65101078185E+03 0.  0.
         13    1    3    3    0    0 -0.32009398634E+03 -0.47185064852E+01 -0.54711430221E+03  0.63388996212E+03  0.00000000000E+00 0.  1.
          1    1    3    3  501    0  0.32009403354E+03  0.47185919346E+01 -0.34693188621E+03  0.47206375532E+03  0.00000000000E+00 0.  1.
         21    1    1    2  502  501 -0.47200392035E-04 -0.85449329221E-04  0.35432978369E-05  0.97683262804E-04  0.00000000000E+00 0. -1.
<mgrwt>
<rscale>  1 0.65101078E+03</rscale>
<asrwt>0</asrwt>
<pdfrwt beam="1">  1        1 0.38528741E+00 0.65101078E+03</pdfrwt>
<pdfrwt beam="2">0</pdfrwt>
<totfact> 0.15547472E+00</totfact>
</mgrwt>
</event>
<event>
 6    1  0.1866504E-003  0.6602545E+03  0.7818608E-02  0.9787725E-01
          1   -1    0    0  502    0  0.00000000000E+00  0.00000000000E+00  0.10898569152E+03  0.10898569152E+03  0.00000000000E+00 0.  1.
         13   -1    0    0    0    0 -0.00000000000E+00 -0.00000000000E+00 -0.10000000000E+04  0.10000000000E+04  0.00000000000E+00 0.  1.
    9000005    2    1    2  501    0  0.89783825331E-04  0.13750415871E-04 -0.89101601043E+03  0.11089839871E+04  0.66025446071E+03 0.  0.
         13    1    3    3    0    0  0.16796989062E+03 -0.20301196053E+02 -0.92164120536E+03  0.93704243988E+03  0.00000000000E+00 0.  1.
          3    1    3    3  501    0 -0.16796980083E+03  0.20301209803E+02  0.30625194927E+02  0.17194154727E+03  0.00000000000E+00 0.  1.
         21    1    1    2  502  501 -0.89783825340E-04 -0.13750415871E-04  0.17019500327E-02  0.17043720612E-02  0.00000000000E+00 0. -1.
<mgrwt>
<rscale>  1 0.66025446E+03</rscale>
<asrwt>0</asrwt>
<pdfrwt beam="1">  1        1 0.39631244E+00 0.66025446E+03</pdfrwt>
<pdfrwt beam="2">0</pdfrwt>
<totfact> 0.13867534E+00</totfact>
</mgrwt>
</event>
<event>
 6    1  0.1866504E-003  0.6398398E+03  0.7818608E-02  0.9826033E-01
          1   -1    0    0  502    0  0.00000000000E+00  0.00000000000E+00  0.10877378645E+03  0.10877378645E+03  0.00000000000E+00 0.  1.
         13   -1    0    0    0    0 -0.00000000000E+00 -0.00000000000E+00 -0.10000000000E+04  0.10000000000E+04  0.00000000000E+00 0.  1.
    9000005    2    1    2  501    0  0.42556206146E+01  0.24178983514E+01 -0.89660784844E+03  0.11014992739E+04  0.63982111556E+03 0.  0.
         13    1    3    3    0    0  0.26077271575E+03 -0.11345152222E+03 -0.70718684589E+03  0.76222496166E+03  0.00000000000E+00 0.  1.
          1    1    3    3  501    0 -0.25651709513E+03  0.11586942057E+03 -0.18942100255E+03  0.33927431221E+03  0.00000000000E+00 0.  1.
         21    1    1    2  502  501 -0.42556206146E+01 -0.24178983514E+01  0.53816348895E+01  0.72745125842E+01  0.00000000000E+00 0. -1.
<mgrwt>
<rscale>  1 0.63983984E+03</rscale>
<asrwt>0</asrwt>
<pdfrwt beam="1">  1        1 0.39554188E+00 0.63983984E+03</pdfrwt>
<pdfrwt beam="2">0</pdfrwt>
<totfact> 0.14031377E+00</totfact>
</mgrwt>
</event>
<event>
 6    1  0.1866504E-003  0.6555810E+03  0.7818608E-02  0.9796363E-01
          1   -1    0    0  502    0  0.00000000000E+00  0.00000000000E+00  0.10758455288E+03  0.10758455288E+03  0.00000000000E+00 0.  1.
         13   -1    0    0    0    0 -0.00000000000E+00 -0.00000000000E+00 -0.10000000000E+04  0.10000000000E+04  0.00000000000E+00 0.  1.
    9000005    2    1    2  501    0 -0.11710607773E+00  0.76237980120E-01 -0.89251304437E+03  0.11074141085E+04  0.65558100477E+03 0.  0.
         13    1    3    3    0    0 -0.23781099364E+03 -0.75598145799E+02 -0.80543156915E+03  0.84320173205E+03  0.00000000000E+00 0.  1.
          3    1    3    3  501    0  0.23769388756E+03  0.75674383779E+02 -0.87081475216E+02  0.26421237645E+03  0.00000000000E+00 0.  1.
         21    1    1    2  502  501  0.11710607773E+00 -0.76237980120E-01  0.97597246214E-01  0.17044437663E+00  0.00000000000E+00 0.  1.
<mgrwt>
<rscale>  1 0.65558102E+03</rscale>
<asrwt>0</asrwt>
<pdfrwt beam="1">  1        1 0.39121738E+00 0.65558102E+03</pdfrwt>
<pdfrwt beam="2">0</pdfrwt>
<totfact> 0.14622388E+00</totfact>
</mgrwt>
</event>
<event>
 6    1  0.1866504E-003  0.6483077E+03  0.7818608E-02  0.9809960E-01
          1   -1    0    0  502    0  0.00000000000E+00  0.00000000000E+00  0.10507623959E+03  0.10507623959E+03  0.00000000000E+00 0.  1.
         13   -1    0    0    0    0 -0.00000000000E+00 -0.00000000000E+00 -0.10000000000E+04  0.10000000000E+04  0.00000000000E+00 0.  1.
    9000005    2    1    2  501    0 -0.32741887395E-04 -0.22735253168E-04 -0.89492429541E+03  0.11050757031E+04  0.64830765464E+03 0.  0.
         13    1    3    3    0    0 -0.15302598428E+03  0.18104109610E+03 -0.82433013687E+03  0.85773714207E+03  0.00000000000E+00 0.  1.
          3    1    3    3  501    0  0.15302595154E+03 -0.18104111883E+03 -0.70594158543E+02  0.24733856103E+03  0.00000000000E+00 0.  1.
         21    1    1    2  502  501  0.32741887398E-04  0.22735253190E-04  0.53499954329E-03  0.53648246406E-03  0.00000000000E+00 0. -1.
<mgrwt>
<rscale>  1 0.64830765E+03</rscale>
<asrwt>0</asrwt>
<pdfrwt beam="1">  1        1 0.38209622E+00 0.64830765E+03</pdfrwt>
<pdfrwt beam="2">0</pdfrwt>
<totfact> 0.16068762E+00</totfact>
</mgrwt>
</event>
<event>
 6    1  0.1866504E-003  0.6314900E+03  0.7818608E-02  0.9842145E-01
          1   -1    0    0  502    0  0.00000000000E+00  0.00000000000E+00  0.99845945371E+02  0.99845945371E+02  0.00000000000E+00 0.  1.
         13   -1    0    0    0    0 -0.00000000000E+00 -0.00000000000E+00 -0.10000000000E+04  0.10000000000E+04  0.00000000000E+00 0.  1.
    9000005    2    1    2  501    0  0.89554448287E-01 -0.15285950778E+00 -0.90024584426E+03  0.10996464175E+04  0.63149000948E+03 0.  0.
         13    1    3    3    0    0 -0.27674246972E+01  0.28934721750E+03 -0.23030169207E+03  0.36982203867E+03  0.00000000000E+00 0.  1.
          1    1    3    3  501    0  0.28569791455E+01 -0.28950007701E+03 -0.66994415218E+03  0.72982437885E+03  0.00000000000E+00 0.  1.
         21    1    1    2  502  501 -0.89554448287E-01  0.15285950778E+00  0.91789628885E-01  0.19952785344E+00  0.00000000000E+00 0.  1.
<mgrwt>
<rscale>  1 0.63149003E+03</rscale>
<asrwt>0</asrwt>
<pdfrwt beam="1">  1        1 0.36307693E+00 0.63149003E+03</pdfrwt>
<pdfrwt beam="2">0</pdfrwt>
<totfact> 0.19541039E+00</totfact>
</mgrwt>
</event>
<event>
 6    1  0.1866504E-003  0.5850790E+03  0.7818608E-02  0.9936855E-01
          1   -1    0    0  502    0  0.00000000000E+00  0.00000000000E+00  0.85589901589E+02  0.85589901589E+02  0.00000000000E+00 0.  1.
         13   -1    0    0    0    0 -0.00000000000E+00 -0.00000000000E+00 -0.10000000000E+04  0.10000000000E+04  0.00000000000E+00 0.  1.
    9000005    2    1    2  501    0 -0.29929139621E-01 -0.18259525189E-01 -0.91436951804E+03  0.10855362739E+04  0.58507895636E+03 0.  0.
         13    1    3    3    0    0  0.15866314232E+02 -0.28808966716E+03 -0.36750948161E+03  0.46723721527E+03  0.00000000000E+00 0.  1.
          1    1    3    3  501    0 -0.15896243372E+02  0.28807140764E+03 -0.54686003643E+03  0.61829905862E+03  0.00000000000E+00 0.  1.
         21    1    1    2  502  501  0.29929139621E-01  0.18259525189E-01 -0.40580371883E-01  0.53627700311E-01  0.00000000000E+00 0. -1.
<mgrwt>
<rscale>  1 0.58507896E+03</rscale>
<asrwt>0</asrwt>
<pdfrwt beam="1">  1        1 0.31123666E+00 0.58507896E+03</pdfrwt>
<pdfrwt beam="2">0</pdfrwt>
<totfact> 0.33087553E+00</totfact>
</mgrwt>
</event>
<event>
 6    1  0.1866504E-003  0.6511250E+03  0.7818608E-02  0.9804670E-01
          1   -1    0    0  502    0  0.00000000000E+00  0.00000000000E+00  0.10600429764E+03  0.10600429764E+03  0.00000000000E+00 0.  1.
         13   -1    0    0    0    0 -0.00000000000E+00 -0.00000000000E+00 -0.10000000000E+04  0.10000000000E+04  0.00000000000E+00 0.  1.
    9000005    2    1    2  501    0  0.44373804047E-03  0.18333017452E-03 -0.89400904588E+03  0.11059909455E+04  0.65112502437E+03 0.  0.
         13    1    3    3    0    0  0.18610743059E+02  0.67007531940E+02 -0.98723619247E+03  0.98968261014E+03  0.00000000000E+00 0.  1.
          1    1    3    3  501    0 -0.18610299321E+02 -0.67007348610E+02  0.93227146587E+02  0.11630833534E+03  0.00000000000E+00 0.  1.
         21    1    1    2  502  501 -0.44373804047E-03 -0.18333017453E-03  0.13343524339E-01  0.13352159196E-01  0.00000000000E+00 0. -1.
<mgrwt>
<rscale>  1 0.65112502E+03</rscale>
<asrwt>0</asrwt>
<pdfrwt beam="1">  1        1 0.38547099E+00 0.65112502E+03</pdfrwt>
<pdfrwt beam="2">0</pdfrwt>
<totfact> 0.15518098E+00</totfact>
</mgrwt>
</event>
<event>
 6    1  0.1866504E-003  0.6263646E+03  0.7818608E-02  0.9852169E-01
          1   -1    0    0  502    0  0.00000000000E+00  0.00000000000E+00  0.98087868188E+02  0.98087868188E+02  0.00000000000E+00 0.  1.
         13   -1    0    0    0    0 -0.00000000000E+00 -0.00000000000E+00 -0.10000000000E+04  0.10000000000E+04  0.00000000000E+00 0.  1.
    9000005    2    1    2  501    0  0.83950702539E-02 -0.11350890317E-01 -0.90189965093E+03  0.10980690243E+04  0.62636459157E+03 0.  0.
         13    1    3    3    0    0  0.52852067560E+02 -0.27960879475E+02 -0.98988916117E+03  0.99169335141E+03  0.00000000000E+00 0.  1.
          1    1    3    3  501    0 -0.52843672490E+02  0.27949528585E+02  0.87989510238E+02  0.10637567289E+03  0.00000000000E+00 0.  1.
         21    1    1    2  502  501 -0.83950702539E-02  0.11350890317E-01 -0.12480881671E-01  0.18843893516E-01  0.00000000000E+00 0. -1.
<mgrwt>
<rscale>  1 0.62636459E+03</rscale>
<asrwt>0</asrwt>
<pdfrwt beam="1">  1        1 0.35668391E+00 0.62636459E+03</pdfrwt>
<pdfrwt beam="2">0</pdfrwt>
<totfact> 0.20859683E+00</totfact>
</mgrwt>
</event>
<event>
 6    1  0.1866504E-003  0.5859307E+03  0.7818608E-02  0.9935033E-01
          1   -1    0    0  502    0  0.00000000000E+00  0.00000000000E+00  0.85831778105E+02  0.85831778105E+02  0.00000000000E+00 0.  1.
         13   -1    0    0    0    0 -0.00000000000E+00 -0.00000000000E+00 -0.10000000000E+04  0.10000000000E+04  0.00000000000E+00 0.  1.
    9000005    2    1    2  501    0  0.68574379090E-03  0.99586417386E-03 -0.91417118370E+03  0.10858285790E+04  0.58593066985E+03 0.  0.
         13    1    3    3    0    0 -0.12736426579E+03 -0.23766437083E+03 -0.24479894458E+03  0.36418749653E+03  0.00000000000E+00 0.  1.
          3    1    3    3  501    0  0.12736495153E+03  0.23766536670E+03 -0.66937223912E+03  0.72164108247E+03  0.00000000000E+00 0.  1.
         21    1    1    2  502  501 -0.68574379091E-03 -0.99586417387E-03  0.29618035226E-02  0.31991045788E-02  0.00000000000E+00 0.  1.
<mgrwt>
<rscale>  1 0.58593067E+03</rscale>
<asrwt>0</asrwt>
<pdfrwt beam="1">  1        1 0.31211621E+00 0.58593067E+03</pdfrwt>
<pdfrwt beam="2">0</pdfrwt>
<totfact> 0.32794491E+00</totfact>
</mgrwt>
</event>
<event>
 6    1  0.1866504E-003  0.6513583E+03  0.7818608E-02  0.9804234E-01
          1   -1    0    0  502    0  0.00000000000E+00  0.00000000000E+00  0.10606690561E+03  0.10606690561E+03  0.00000000000E+00 0.  1.
         13   -1    0    0    0    0 -0.00000000000E+00 -0.00000000000E+00 -0.10000000000E+04  0.10000000000E+04  0.00000000000E+00 0.  1.
    9000005    2    1    2  501    0  0.64183129354E-05 -0.14062057744E-04 -0.89393309563E+03  0.11060668901E+04  0.65135826235E+03 0.  0.
         13    1    3    3    0    0 -0.57007371941E+02 -0.25872105826E+03 -0.12531137659E+03  0.29306887850E+03  0.00000000000E+00 0.  1.
          3    1    3    3  501    0  0.57007378359E+02  0.25872104420E+03 -0.76862171904E+03  0.81299801161E+03  0.00000000000E+00 0.  1.
         21    1    1    2  502  501 -0.64183129362E-05  0.14062057752E-04  0.12402627734E-05  0.15507238985E-04  0.00000000000E+00 0. -1.
<mgrwt>
<rscale>  1 0.65135826E+03</rscale>
<asrwt>0</asrwt>
<pdfrwt beam="1">  1        1 0.38569865E+00 0.65135826E+03</pdfrwt>
<pdfrwt beam="2">0</pdfrwt>
<totfact> 0.15481479E+00</totfact>
</mgrwt>
</event>
<event>
 6    1  0.1866504E-003  0.6453235E+03  0.7818608E-02  0.9815594E-01
          3   -1    0    0  502    0  0.00000000000E+00  0.00000000000E+00  0.10484307710E+03  0.10484307710E+03  0.00000000000E+00 0.  1.
         13   -1    0    0    0    0 -0.00000000000E+00 -0.00000000000E+00 -0.10000000000E+04  0.10000000000E+04  0.00000000000E+00 0.  1.
    9000005    2    1    2  501    0  0.11903682343E-01  0.35465607971E+00 -0.89584163509E+03  0.11040718745E+04  0.64532344064E+03 0.  0.
         13    1    3    3    0    0 -0.10704027323E+03 -0.30265429025E+03 -0.39510058518E+03  0.50907927861E+03  0.00000000000E+00 0.  1.
          1    1    3    3  501    0  0.10705217692E+03  0.30300894633E+03 -0.50074104991E+03  0.59499259592E+03  0.00000000000E+00 0.  1.
         21    1    1    2  502  501 -0.11903682343E-01 -0.35465607971E+00  0.68471218331E+00  0.77120257164E+00  0.00000000000E+00 0.  1.
<mgrwt>
<rscale>  1 0.64532354E+03</rscale>
<asrwt>0</asrwt>
<pdfrwt beam="1">  1        3 0.38124836E+00 0.64532354E+03</pdfrwt>
<pdfrwt beam="2">0</pdfrwt>
<totfact> 0.74399651E-02</totfact>
</mgrwt>
</event>
<event>
 6    1  0.1866504E-003  0.6429100E+03  0.7818608E-02  0.9820175E-01
          1   -1    0    0  502    0  0.00000000000E+00  0.00000000000E+00  0.10559591968E+03  0.10559591968E+03  0.00000000000E+00 0.  1.
         13   -1    0    0    0    0 -0.00000000000E+00 -0.00000000000E+00 -0.10000000000E+04  0.10000000000E+04  0.00000000000E+00 0.  1.
    9000005    2    1    2  501    0 -0.36061643737E+01 -0.22863495694E+01 -0.89418894574E+03  0.11013206304E+04  0.64289581454E+03 0.  0.
         13    1    3    3    0    0  0.40489398460E+02 -0.81253205504E+01 -0.99252955164E+03  0.99338830429E+03  0.00000000000E+00 0.  1.
          3    1    3    3  501    0 -0.44095562834E+02  0.58389709810E+01  0.98340605894E+02  0.10793232607E+03  0.00000000000E+00 0.  1.
         21    1    1    2  502  501  0.36061643737E+01  0.22863495694E+01 -0.21513458117E+00  0.42752893156E+01  0.00000000000E+00 0.  1.
<mgrwt>
<rscale>  1 0.64290999E+03</rscale>
<asrwt>0</asrwt>
<pdfrwt beam="1">  1        1 0.38398597E+00 0.64290999E+03</pdfrwt>
<pdfrwt beam="2">0</pdfrwt>
<totfact> 0.15778540E+00</totfact>
</mgrwt>
</event>
<event>
 6    1  0.1866504E-003  0.6487994E+03  0.7818608E-02  0.9809035E-01
          1   -1    0    0  502    0  0.00000000000E+00  0.00000000000E+00  0.11499095273E+03  0.11499095273E+03  0.00000000000E+00 0.  1.
         13   -1    0    0    0    0 -0.00000000000E+00 -0.00000000000E+00 -0.10000000000E+04  0.10000000000E+04  0.00000000000E+00 0.  1.
    9000005    2    1    2  501    0 -0.55545094676E-01 -0.21308099274E+00 -0.89476346558E+03  0.11052340493E+04  0.64879934943E+03 0.  0.
         13    1    3    3    0    0  0.94738146333E+02  0.29621020304E+03 -0.60383824433E+03  0.67921751013E+03  0.00000000000E+00 0.  1.
          1    1    3    3  501    0 -0.94793691428E+02 -0.29642328403E+03 -0.29092522125E+03  0.42601653913E+03  0.00000000000E+00 0.  1.
         21    1    1    2  502  501  0.55545094676E-01  0.21308099274E+00  0.97544183104E+01  0.97569034709E+01  0.00000000000E+00 0.  1.
<mgrwt>
<rscale>  1 0.64879939E+03</rscale>
<asrwt>0</asrwt>
<pdfrwt beam="1">  1        1 0.41814980E+00 0.64879939E+03</pdfrwt>
<pdfrwt beam="2">0</pdfrwt>
<totfact> 0.11096822E+00</totfact>
</mgrwt>
</event>
<event>
 6    1  0.1866504E-003  0.6450206E+03  0.7818608E-02  0.9816168E-01
          1   -1    0    0  502    0  0.00000000000E+00  0.00000000000E+00  0.10820232974E+03  0.10820232974E+03  0.00000000000E+00 0.  1.
         13   -1    0    0    0    0 -0.00000000000E+00 -0.00000000000E+00 -0.10000000000E+04  0.10000000000E+04  0.00000000000E+00 0.  1.
    9000005    2    1    2  501    0  0.62035163682E+01  0.75322233945E+01 -0.88841117534E+03  0.10978734212E+04  0.64494683070E+03 0.  0.
         13    1    3    3    0    0 -0.19140116887E+03  0.21024952010E+03 -0.70599875215E+03  0.76110019458E+03  0.00000000000E+00 0.  1.
          3    1    3    3  501    0  0.19760468524E+03 -0.20271729671E+03 -0.18241242318E+03  0.33677322659E+03  0.00000000000E+00 0.  1.
         21    1    1    2  502  501 -0.62035163682E+01 -0.75322233945E+01 -0.33864949168E+01  0.10328908578E+02  0.00000000000E+00 0. -1.
<mgrwt>
<rscale>  1 0.64502064E+03</rscale>
<asrwt>0</asrwt>
<pdfrwt beam="1">  1        1 0.39346385E+00 0.64502064E+03</pdfrwt>
<pdfrwt beam="2">0</pdfrwt>
<totfact> 0.14318746E+00</totfact>
</mgrwt>
</event>
<event>
 6    1  0.1866504E-003  0.6928565E+03  0.7818608E-02  0.9729527E-01
          1   -1    0    0  502    0  0.00000000000E+00  0.00000000000E+00  0.12136102775E+03  0.12136102775E+03  0.00000000000E+00 0.  1.
         13   -1    0    0    0    0 -0.00000000000E+00 -0.00000000000E+00 -0.10000000000E+04  0.10000000000E+04  0.00000000000E+00 0.  1.
    9000005    2    1    2  501    0  0.51092345265E+00  0.30219523495E+00 -0.87991385700E+03  0.11199547220E+04  0.69285628467E+03 0.  0.
         13    1    3    3    0    0 -0.44713645295E+02  0.34188040560E+03 -0.38384555625E+03  0.51596408098E+03  0.00000000000E+00 0.  1.
          3    1    3    3  501    0  0.45224568747E+02 -0.34157821037E+03 -0.49606830076E+03  0.60399064101E+03  0.00000000000E+00 0.  1.
         21    1    1    2  502  501 -0.51092345265E+00 -0.30219523495E+00  0.12748847495E+01  0.14063057488E+01  0.00000000000E+00 0. -1.
<mgrwt>
<rscale>  1 0.69285654E+03</rscale>
<asrwt>0</asrwt>
<pdfrwt beam="1">  1        1 0.44131376E+00 0.69285654E+03</pdfrwt>
<pdfrwt beam="2">0</pdfrwt>
<totfact> 0.86343981E-01</totfact>
</mgrwt>
</event>
<event>
 6    1  0.1866504E-003  0.6523254E+03  0.7818608E-02  0.9802425E-01
          1   -1    0    0  502    0  0.00000000000E+00  0.00000000000E+00  0.10638366799E+03  0.10638366799E+03  0.00000000000E+00 0.  1.
         13   -1    0    0    0    0 -0.00000000000E+00 -0.00000000000E+00 -0.10000000000E+04  0.10000000000E+04  0.00000000000E+00 0.  1.
    9000005    2    1    2  501    0 -0.78958659344E-04  0.39156853362E-04 -0.89361788033E+03  0.11063821172E+04  0.65232543498E+03 0.  0.
         13    1    3    3    0    0 -0.26678825450E+03  0.66435625104E+02 -0.74442969911E+03  0.79357749587E+03  0.00000000000E+00 0.  1.
          3    1    3    3  501    0  0.26678817554E+03 -0.66435585947E+02 -0.14918818122E+03  0.31280462129E+03  0.00000000000E+00 0.  1.
         21    1    1    2  502  501  0.78958659360E-04 -0.39156853374E-04  0.15483221315E-02  0.15508285372E-02  0.00000000000E+00 0.  1.
<mgrwt>
<rscale>  1 0.65232543E+03</rscale>
<asrwt>0</asrwt>
<pdfrwt beam="1">  1        1 0.38685052E+00 0.65232543E+03</pdfrwt>
<pdfrwt beam="2">0</pdfrwt>
<totfact> 0.15298064E+00</totfact>
</mgrwt>
</event>
<event>
 6    1  0.1866504E-003  0.6286595E+03  0.7818608E-02  0.9847668E-01
          1   -1    0    0  502    0  0.00000000000E+00  0.00000000000E+00  0.99682083197E+02  0.99682083197E+02  0.00000000000E+00 0.  1.
         13   -1    0    0    0    0 -0.00000000000E+00 -0.00000000000E+00 -0.10000000000E+04  0.10000000000E+04  0.00000000000E+00 0.  1.
    9000005    2    1    2  501    0  0.10891230199E+00  0.11613239441E+00 -0.90118888488E+03  0.10987966827E+04  0.62865946135E+03 0.  0.
         13    1    3    3    0    0 -0.10334966747E+03 -0.24915986468E+03 -0.73234009492E+03  0.78043821444E+03  0.00000000000E+00 0.  1.
          1    1    3    3  501    0  0.10345857977E+03  0.24927599708E+03 -0.16884878997E+03  0.31835846827E+03  0.00000000000E+00 0.  1.
         21    1    1    2  502  501 -0.10891230199E+00 -0.11613239441E+00  0.87096808245E+00  0.88540048747E+00  0.00000000000E+00 0.  1.
<mgrwt>
<rscale>  1 0.62865948E+03</rscale>
<asrwt>0</asrwt>
<pdfrwt beam="1">  1        1 0.36248107E+00 0.62865948E+03</pdfrwt>
<pdfrwt beam="2">0</pdfrwt>
<totfact> 0.19668865E+00</totfact>
</mgrwt>
</event>
<event>
 6    1  0.1866504E-003  0.6558793E+03  0.7818608E-02  0.9795809E-01
          1   -1    0    0  502    0  0.00000000000E+00  0.00000000000E+00  0.10755964503E+03  0.10755964503E+03  0.00000000000E+00 0.  1.
         13   -1    0    0    0    0 -0.00000000000E+00 -0.00000000000E+00 -0.10000000000E+04  0.10000000000E+04  0.00000000000E+00 0.  1.
    9000005    2    1    2  501    0  0.22678212477E-03  0.31686291229E-03 -0.89245558228E+03  0.11075444127E+04  0.65587930279E+03 0.  0.
         13    1    3    3    0    0 -0.19959772553E+03 -0.11189355071E+02 -0.88520900635E+03  0.90750175681E+03  0.00000000000E+00 0.  1.
          1    1    3    3  501    0  0.19959795231E+03  0.11189671934E+02 -0.72465759359E+01  0.20004265592E+03  0.00000000000E+00 0.  1.
         21    1    1    2  502  501 -0.22678212477E-03 -0.31686291229E-03  0.15227312302E-01  0.15232297009E-01  0.00000000000E+00 0.  1.
<mgrwt>
<rscale>  1 0.65587930E+03</rscale>
<asrwt>0</asrwt>
<pdfrwt beam="1">  1        1 0.39112681E+00 0.65587930E+03</pdfrwt>
<pdfrwt beam="2">0</pdfrwt>
<totfact> 0.14635116E+00</totfact>
</mgrwt>
</event>
<event>
 6    1  0.1866504E-003  0.6487589E+03  0.7818608E-02  0.9809111E-01
          1   -1    0    0  502    0  0.00000000000E+00  0.00000000000E+00  0.10574726528E+03  0.10574726528E+03  0.00000000000E+00 0.  1.
         13   -1    0    0    0    0 -0.00000000000E+00 -0.00000000000E+00 -0.10000000000E+04  0.10000000000E+04  0.00000000000E+00 0.  1.
    9000005    2    1    2  501    0  0.56559940222E+00 -0.11188706145E+01 -0.89376488419E+03  0.11044019875E+04  0.64875766664E+03 0.  0.
         13    1    3    3    0    0  0.50763092065E+01 -0.19142701165E+03 -0.89375599451E+03  0.91404039704E+03  0.00000000000E+00 0.  1.
          1    1    3    3  501    0 -0.45107098043E+01  0.19030814103E+03 -0.88896800705E-02  0.19036159047E+03  0.00000000000E+00 0.  1.
         21    1    1    2  502  501 -0.56559940222E+00  0.11188706145E+01 -0.48785053759E+00  0.13452777716E+01  0.00000000000E+00 0.  1.
<mgrwt>
<rscale>  1 0.64875888E+03</rscale>
<asrwt>0</asrwt>
<pdfrwt beam="1">  1        1 0.38453632E+00 0.64875888E+03</pdfrwt>
<pdfrwt beam="2">0</pdfrwt>
<totfact> 0.15673375E+00</totfact>
</mgrwt>
</event>
<event>
 6    1  0.1866504E-003  0.6518172E+03  0.7818608E-02  0.9803375E-01
          1   -1    0    0  502    0  0.00000000000E+00  0.00000000000E+00  0.10621729847E+03  0.10621729847E+03  0.00000000000E+00 0.  1.
         13   -1    0    0    0    0 -0.00000000000E+00 -0.00000000000E+00 -0.10000000000E+04  0.10000000000E+04  0.00000000000E+00 0.  1.
    9000005    2    1    2  501    0 -0.37226681613E-03  0.51796227439E-04 -0.89378355625E+03  0.11062163648E+04  0.65181715247E+03 0.  0.
         13    1    3    3    0    0  0.24383544873E+03  0.20757685394E+03 -0.34404455311E+03  0.47001120292E+03  0.00000000000E+00 0.  1.
          1    1    3    3  501    0 -0.24383582100E+03 -0.20757680214E+03 -0.54973900313E+03  0.63620516184E+03  0.00000000000E+00 0.  1.
         21    1    1    2  502  501  0.37226681611E-03 -0.51796227451E-04  0.85471661003E-03  0.93370547552E-03  0.00000000000E+00 0.  1.
<mgrwt>
<rscale>  1 0.65181715E+03</rscale>
<asrwt>0</asrwt>
<pdfrwt beam="1">  1        1 0.38624554E+00 0.65181715E+03</pdfrwt>
<pdfrwt beam="2">0</pdfrwt>
<totfact> 0.15394139E+00</totfact>
</mgrwt>
</event>
<event>
 6    1  0.1866504E-003  0.6315551E+03  0.7818608E-02  0.9842019E-01
          1   -1    0    0  502    0  0.00000000000E+00  0.00000000000E+00  0.10113422232E+03  0.10113422232E+03  0.00000000000E+00 0.  1.
         13   -1    0    0    0    0 -0.00000000000E+00 -0.00000000000E+00 -0.10000000000E+04  0.10000000000E+04  0.00000000000E+00 0.  1.
    9000005    2    1    2  501    0 -0.95045507074E-01  0.57774356483E-01 -0.90028215344E+03  0.10997134860E+04  0.63155505146E+03 0.  0.
         13    1    3    3    0    0 -0.25902563476E+03  0.10244702679E+03 -0.70939927990E+03  0.76212663717E+03  0.00000000000E+00 0.  1.
          3    1    3    3  501    0  0.25893058925E+03 -0.10238925243E+03 -0.19088287354E+03  0.33758684878E+03  0.00000000000E+00 0.  1.
         21    1    1    2  502  501  0.95045507074E-01 -0.57774356483E-01  0.14163757550E+01  0.14207363598E+01  0.00000000000E+00 0. -1.
<mgrwt>
<rscale>  1 0.63155506E+03</rscale>
<asrwt>0</asrwt>
<pdfrwt beam="1">  1        1 0.36776158E+00 0.63155506E+03</pdfrwt>
<pdfrwt beam="2">0</pdfrwt>
<totfact> 0.18638493E+00</totfact>
</mgrwt>
</event>
<event>
 6    1  0.1866504E-003  0.6520728E+03  0.7818608E-02  0.9802898E-01
          1   -1    0    0  502    0  0.00000000000E+00  0.00000000000E+00  0.10630050420E+03  0.10630050420E+03  0.00000000000E+00 0.  1.
         13   -1    0    0    0    0 -0.00000000000E+00 -0.00000000000E+00 -0.10000000000E+04  0.10000000000E+04  0.00000000000E+00 0.  1.
    9000005    2    1    2  501    0  0.64220390527E-04 -0.42550577774E-04 -0.89370026854E+03  0.11062997276E+04  0.65207278533E+03 0.  0.
         13    1    3    3    0    0  0.26891623490E+03 -0.13057088107E+03 -0.66763542727E+03  0.73150650039E+03  0.00000000000E+00 0.  1.
          3    1    3    3  501    0 -0.26891617067E+03  0.13057083852E+03 -0.22606484127E+03  0.37479322723E+03  0.00000000000E+00 0.  1.
         21    1    1    2  502  501 -0.64220390523E-04  0.42550577780E-04  0.77274284392E-03  0.77657344344E-03  0.00000000000E+00 0. -1.
<mgrwt>
<rscale>  1 0.65207279E+03</rscale>
<asrwt>0</asrwt>
<pdfrwt beam="1">  1        1 0.38654810E+00 0.65207279E+03</pdfrwt>
<pdfrwt beam="2">0</pdfrwt>
<totfact> 0.15346014E+00</totfact>
</mgrwt>
</event>
<event>
 6    1  0.1866504E-003  0.6504515E+03  0.7818608E-02  0.9805932E-01
          1   -1    0    0  502    0  0.00000000000E+00  0.00000000000E+00  0.10577287670E+03  0.10577287670E+03  0.00000000000E+00 0.  1.
         13   -1    0    0    0    0 -0.00000000000E+00 -0.00000000000E+00 -0.10000000000E+04  0.10000000000E+04  0.00000000000E+00 0.  1.
    9000005    2    1    2  501    0  0.12628905151E-03  0.55608382922E-04 -0.89422821396E+03  0.11057717773E+04  0.65045147777E+03 0.  0.
         13    1    3    3    0    0 -0.91542080779E+02 -0.26777087320E+03 -0.17463231579E+03  0.33253216206E+03  0.00000000000E+00 0.  1.
          1    1    3    3  501    0  0.91542207068E+02  0.26777092880E+03 -0.71959589817E+03  0.77323961529E+03  0.00000000000E+00 0.  1.
         21    1    1    2  502  501 -0.12628905150E-03 -0.55608382916E-04  0.10906552241E-02  0.10993498236E-02  0.00000000000E+00 0. -1.
<mgrwt>
<rscale>  1 0.65045148E+03</rscale>
<asrwt>0</asrwt>
<pdfrwt beam="1">  1        1 0.38462945E+00 0.65045148E+03</pdfrwt>
<pdfrwt beam="2">0</pdfrwt>
<totfact> 0.15653624E+00</totfact>
</mgrwt>
</event>
<event>
 6    1  0.1866504E-003  0.5648327E+03  0.7818608E-02  0.9981179E-01
          1   -1    0    0  502    0  0.00000000000E+00  0.00000000000E+00  0.79786431354E+02  0.79786431354E+02  0.00000000000E+00 0.  1.
         13   -1    0    0    0    0 -0.00000000000E+00 -0.00000000000E+00 -0.10000000000E+04  0.10000000000E+04  0.00000000000E+00 0.  1.
    9000005    2    1    2  501    0  0.73981691460E-03 -0.46861311475E-03 -0.92024100743E+03  0.10797589786E+04  0.56483266559E+03 0.  0.
         13    1    3    3    0    0 -0.79258591929E+02 -0.14187683052E+03 -0.90165663561E+03  0.91618537861E+03  0.00000000000E+00 0.  1.
          3    1    3    3  501    0  0.79259331746E+02  0.14187636191E+03 -0.18584371812E+02  0.16357359999E+03  0.00000000000E+00 0.  1.
         21    1    1    2  502  501 -0.73981691461E-03  0.46861311476E-03  0.27438780110E-01  0.27452751797E-01  0.00000000000E+00 0. -1.
<mgrwt>
<rscale>  1 0.56483267E+03</rscale>
<asrwt>0</asrwt>
<pdfrwt beam="1">  1        1 0.29013309E+00 0.56483267E+03</pdfrwt>
<pdfrwt beam="2">0</pdfrwt>
<totfact> 0.40951040E+00</totfact>
</mgrwt>
</event>
<event>
 6    1  0.1866504E-003  0.6362827E+03  0.7818608E-02  0.9832865E-01
          1   -1    0    0  502    0  0.00000000000E+00  0.00000000000E+00  0.10121401288E+03  0.10121401288E+03  0.00000000000E+00 0.  1.
         13   -1    0    0    0    0 -0.00000000000E+00 -0.00000000000E+00 -0.10000000000E+04  0.10000000000E+04  0.00000000000E+00 0.  1.
    9000005    2    1    2  501    0 -0.32502474212E-04 -0.13327684968E-04 -0.89878608727E+03  0.11012139068E+04  0.63628267127E+03 0.  0.
         13    1    3    3    0    0  0.44573553124E+02  0.20632503813E+03 -0.86134700592E+03  0.88683453226E+03  0.00000000000E+00 0.  1.
          1    1    3    3  501    0 -0.44573585626E+02 -0.20632505146E+03 -0.37439081341E+02  0.21437937449E+03  0.00000000000E+00 0.  1.
         21    1    1    2  502  501  0.32502474218E-04  0.13327684966E-04  0.10014919666E-03  0.10613152033E-03  0.00000000000E+00 0.  1.
<mgrwt>
<rscale>  1 0.63628267E+03</rscale>
<asrwt>0</asrwt>
<pdfrwt beam="1">  1        1 0.36805173E+00 0.63628267E+03</pdfrwt>
<pdfrwt beam="2">0</pdfrwt>
<totfact> 0.18567927E+00</totfact>
</mgrwt>
</event>
<event>
 6    1  0.1866504E-003  0.6532298E+03  0.7818608E-02  0.9800737E-01
          1   -1    0    0  502    0  0.00000000000E+00  0.00000000000E+00  0.10667919807E+03  0.10667919807E+03  0.00000000000E+00 0.  1.
         13   -1    0    0    0    0 -0.00000000000E+00 -0.00000000000E+00 -0.10000000000E+04  0.10000000000E+04  0.00000000000E+00 0.  1.
    9000005    2    1    2  501    0 -0.19984615145E-02  0.15497691821E-02 -0.89332171594E+03  0.11066765090E+04  0.65322982740E+03 0.  0.
         13    1    3    3    0    0 -0.42386944225E+02 -0.22490703067E+03 -0.84142967847E+03  0.87199984477E+03  0.00000000000E+00 0.  1.
          3    1    3    3  501    0  0.42384945764E+02  0.22490858044E+03 -0.51892037477E+02  0.23467666423E+03  0.00000000000E+00 0.  1.
         21    1    1    2  502  501  0.19984615145E-02 -0.15497691821E-02  0.91401019354E-03  0.26890607239E-02  0.00000000000E+00 0.  1.
<mgrwt>
<rscale>  1 0.65322983E+03</rscale>
<asrwt>0</asrwt>
<pdfrwt beam="1">  1        1 0.38792517E+00 0.65322983E+03</pdfrwt>
<pdfrwt beam="2">0</pdfrwt>
<totfact> 0.15128800E+00</totfact>
</mgrwt>
</event>
<event>
 6    1  0.1866504E-003  0.6363596E+03  0.7818608E-02  0.9832716E-01
          1   -1    0    0  502    0  0.00000000000E+00  0.00000000000E+00  0.10127087503E+03  0.10127087503E+03  0.00000000000E+00 0.  1.
         13   -1    0    0    0    0 -0.00000000000E+00 -0.00000000000E+00 -0.10000000000E+04  0.10000000000E+04  0.00000000000E+00 0.  1.
    9000005    2    1    2  501    0  0.11502618163E-02  0.26021423730E-02 -0.89876154372E+03  0.11012383317E+04  0.63635960798E+03 0.  0.
         13    1    3    3    0    0 -0.59892463837E+02 -0.30979759621E+03 -0.37853583579E+03  0.49279918508E+03  0.00000000000E+00 0.  1.
          1    1    3    3  501    0  0.59893614099E+02  0.30980019835E+03 -0.52022570794E+03  0.60843914659E+03  0.00000000000E+00 0.  1.
         21    1    1    2  502  501 -0.11502618163E-02 -0.26021423730E-02  0.32418759131E-01  0.32543358628E-01  0.00000000000E+00 0. -1.
<mgrwt>
<rscale>  1 0.63635961E+03</rscale>
<asrwt>0</asrwt>
<pdfrwt beam="1">  1        1 0.36825850E+00 0.63635961E+03</pdfrwt>
<pdfrwt beam="2">0</pdfrwt>
<totfact> 0.18528914E+00</totfact>
</mgrwt>
</event>
<event>
 6    1  0.1866504E-003  0.6571378E+03  0.7818608E-02  0.9793477E-01
          1   -1    0    0  502    0  0.00000000000E+00  0.00000000000E+00  0.12770361436E+03  0.12770361436E+03  0.00000000000E+00 0.  1.
         13   -1    0    0    0    0 -0.00000000000E+00 -0.00000000000E+00 -0.10000000000E+04  0.10000000000E+04  0.00000000000E+00 0.  1.
    9000005    2    1    2  501    0  0.18900077070E+01  0.36685771466E-01 -0.89199233222E+03  0.11079171597E+04  0.65713509920E+03 0.  0.
         13    1    3    3    0    0  0.99963619967E+02 -0.77340218526E+02 -0.95822386619E+03  0.96652326017E+03  0.00000000000E+00 0.  1.
          3    1    3    3  501    0 -0.98073612260E+02  0.77376904297E+02  0.66231533965E+02  0.14139389956E+03  0.00000000000E+00 0.  1.
         21    1    1    2  502  501 -0.18900077070E+01 -0.36685771466E-01  0.19695946585E+02  0.19786454631E+02  0.00000000000E+00 0. -1.
<mgrwt>
<rscale>  1 0.65713782E+03</rscale>
<asrwt>0</asrwt>
<pdfrwt beam="1">  1        1 0.46437776E+00 0.65713782E+03</pdfrwt>
<pdfrwt beam="2">0</pdfrwt>
<totfact> 0.68052123E-01</totfact>
</mgrwt>
</event>
<event>
 6    1  0.1866504E-003  0.6515215E+03  0.7818608E-02  0.9803928E-01
          1   -1    0    0  502    0  0.00000000000E+00  0.00000000000E+00  0.10744240753E+03  0.10744240753E+03  0.00000000000E+00 0.  1.
         13   -1    0    0    0    0 -0.00000000000E+00 -0.00000000000E+00 -0.10000000000E+04  0.10000000000E+04  0.00000000000E+00 0.  1.
    9000005    2    1    2  501    0  0.41378613098E+00  0.96836311728E+00 -0.89364399160E+03  0.11059293943E+04  0.65152063084E+03 0.  0.
         13    1    3    3    0    0  0.23906556051E+03 -0.15379202562E+03 -0.71652667439E+03  0.77085329634E+03  0.00000000000E+00 0.  1.
          3    1    3    3  501    0 -0.23865177438E+03  0.15476038874E+03 -0.17711731721E+03  0.33507609792E+03  0.00000000000E+00 0.  1.
         21    1    1    2  502  501 -0.41378613098E+00 -0.96836311728E+00  0.10863991278E+01  0.15130132696E+01  0.00000000000E+00 0.  1.
<mgrwt>
<rscale>  1 0.65152148E+03</rscale>
<asrwt>0</asrwt>
<pdfrwt beam="1">  1        1 0.39070049E+00 0.65152148E+03</pdfrwt>
<pdfrwt beam="2">0</pdfrwt>
<totfact> 0.14710914E+00</totfact>
</mgrwt>
</event>
<event>
 6    1  0.1866504E-003  0.6477246E+03  0.7818608E-02  0.9811058E-01
          1   -1    0    0  502    0  0.00000000000E+00  0.00000000000E+00  0.10700331232E+03  0.10700331232E+03  0.00000000000E+00 0.  1.
         13   -1    0    0    0    0 -0.00000000000E+00 -0.00000000000E+00 -0.10000000000E+04  0.10000000000E+04  0.00000000000E+00 0.  1.
    9000005    2    1    2  501    0  0.11082871242E+01  0.48798609410E+01 -0.89113007646E+03  0.11016623779E+04  0.64770528819E+03 0.  0.
         13    1    3    3    0    0 -0.28687475325E+03 -0.53598097974E+02 -0.20909138982E+03  0.35901126648E+03  0.00000000000E+00 0.  1.
          3    1    3    3  501    0  0.28798304038E+03  0.58477958915E+02 -0.68203868663E+03  0.74265111141E+03  0.00000000000E+00 0.  1.
         21    1    1    2  502  501 -0.11082871242E+01 -0.48798609410E+01 -0.18666112202E+01  0.53409344313E+01  0.00000000000E+00 0.  1.
<mgrwt>
<rscale>  1 0.64772462E+03</rscale>
<asrwt>0</asrwt>
<pdfrwt beam="1">  1        1 0.38910377E+00 0.64772462E+03</pdfrwt>
<pdfrwt beam="2">0</pdfrwt>
<totfact> 0.14963282E+00</totfact>
</mgrwt>
</event>
<event>
 6    1  0.1866504E-003  0.6578457E+03  0.7818608E-02  0.9792168E-01
          1   -1    0    0  502    0  0.00000000000E+00  0.00000000000E+00  0.14596818397E+03  0.14596818397E+03  0.00000000000E+00 0.  1.
         13   -1    0    0    0    0 -0.00000000000E+00 -0.00000000000E+00 -0.10000000000E+04  0.10000000000E+04  0.00000000000E+00 0.  1.
    9000005    2    1    2  501    0  0.45944249318E+02  0.59657471087E+02 -0.84386603725E+03  0.10699864035E+04  0.65352209373E+03 0.  0.
         13    1    3    3    0    0  0.29649150672E+03  0.52274674519E+02 -0.73956421492E+03  0.79849551229E+03  0.00000000000E+00 0.  1.
          1    1    3    3  501    0 -0.25054725741E+03  0.73827965676E+01 -0.10430182233E+03  0.27149089123E+03  0.00000000000E+00 0.  1.
         21    1    1    2  502  501 -0.45944249318E+02 -0.59657471087E+02 -0.10165778784E+02  0.75981780449E+02  0.00000000000E+00 0. -1.
<mgrwt>
<rscale>  1 0.65784574E+03</rscale>
<asrwt>0</asrwt>
<pdfrwt beam="1">  1        1 0.53079452E+00 0.65784574E+03</pdfrwt>
<pdfrwt beam="2">0</pdfrwt>
<totfact> 0.32636470E-01</totfact>
</mgrwt>
</event>
<event>
 6    1  0.1866504E-003  0.6511485E+03  0.7818608E-02  0.9804627E-01
          1   -1    0    0  502    0  0.00000000000E+00  0.00000000000E+00  0.10661604887E+03  0.10661604887E+03  0.00000000000E+00 0.  1.
         13   -1    0    0    0    0 -0.00000000000E+00 -0.00000000000E+00 -0.10000000000E+04  0.10000000000E+04  0.00000000000E+00 0.  1.
    9000005    2    1    2  501    0  0.80081919526E-01  0.58482151234E-01 -0.89399700868E+03  0.11059950232E+04  0.65114847006E+03 0.  0.
         13    1    3    3    0    0  0.28460036287E+03 -0.53464538678E+02 -0.69990090095E+03  0.75744114926E+03  0.00000000000E+00 0.  1.
          1    1    3    3  501    0 -0.28452028095E+03  0.53523020829E+02 -0.19409610773E+03  0.34855387398E+03  0.00000000000E+00 0.  1.
         21    1    1    2  502  501 -0.80081919526E-01 -0.58482151234E-01  0.61305754980E+00  0.62102563169E+00  0.00000000000E+00 0. -1.
<mgrwt>
<rscale>  1 0.65114848E+03</rscale>
<asrwt>0</asrwt>
<pdfrwt beam="1">  1        1 0.38769554E+00 0.65114848E+03</pdfrwt>
<pdfrwt beam="2">0</pdfrwt>
<totfact> 0.15170123E+00</totfact>
</mgrwt>
</event>
<event>
 6    1  0.1866504E-003  0.6529962E+03  0.7818608E-02  0.9801173E-01
          1   -1    0    0  502    0  0.00000000000E+00  0.00000000000E+00  0.10660871147E+03  0.10660871147E+03  0.00000000000E+00 0.  1.
         13   -1    0    0    0    0 -0.00000000000E+00 -0.00000000000E+00 -0.10000000000E+04  0.10000000000E+04  0.00000000000E+00 0.  1.
    9000005    2    1    2  501    0 -0.93910528420E-03  0.36030402982E-03 -0.89339895019E+03  0.11066009841E+04  0.65299621265E+03 0.  0.
         13    1    3    3    0    0  0.14306908396E+03  0.27866908037E+02 -0.94180306316E+03  0.95301539186E+03  0.00000000000E+00 0.  1.
          3    1    3    3  501    0 -0.14307002306E+03 -0.27866547733E+02  0.48404112965E+02  0.15358559221E+03  0.00000000000E+00 0.  1.
         21    1    1    2  502  501  0.93910528422E-03 -0.36030402982E-03  0.76616574834E-02  0.77274014469E-02  0.00000000000E+00 0. -1.
<mgrwt>
<rscale>  1 0.65299621E+03</rscale>
<asrwt>0</asrwt>
<pdfrwt beam="1">  1        1 0.38766886E+00 0.65299621E+03</pdfrwt>
<pdfrwt beam="2">0</pdfrwt>
<totfact> 0.15169059E+00</totfact>
</mgrwt>
</event>
<event>
 6    1  0.1866504E-003  0.6666459E+03  0.7818608E-02  0.9776036E-01
          1   -1    0    0  502    0  0.00000000000E+00  0.00000000000E+00  0.11110460789E+03  0.11110460789E+03  0.00000000000E+00 0.  1.
         13   -1    0    0    0    0 -0.00000000000E+00 -0.00000000000E+00 -0.10000000000E+04  0.10000000000E+04  0.00000000000E+00 0.  1.
    9000005    2    1    2  501    0 -0.16984799146E-04 -0.46536785590E-05 -0.88889579417E+03  0.11111042054E+04  0.66664594985E+03 0.  0.
         13    1    3    3    0    0  0.18839952606E+03 -0.27495580038E+03 -0.44948403002E+03  0.55958106368E+03  0.00000000000E+00 0.  1.
          3    1    3    3  501    0 -0.18839954305E+03  0.27495579573E+03 -0.43941176415E+03  0.55152314176E+03  0.00000000000E+00 0.  1.
         21    1    1    2  502  501  0.16984799141E-04  0.46536785534E-05  0.40206445053E-03  0.40244995031E-03  0.00000000000E+00 0.  1.
<mgrwt>
<rscale>  1 0.66664595E+03</rscale>
<asrwt>0</asrwt>
<pdfrwt beam="1">  1        1 0.40401761E+00 0.66664595E+03</pdfrwt>
<pdfrwt beam="2">0</pdfrwt>
<totfact> 0.12797239E+00</totfact>
</mgrwt>
</event>
<event>
 6    1  0.1866504E-003  0.6478210E+03  0.7818608E-02  0.9810877E-01
          1   -1    0    0  502    0  0.00000000000E+00  0.00000000000E+00  0.10550969583E+03  0.10550969583E+03  0.00000000000E+00 0.  1.
         13   -1    0    0    0    0 -0.00000000000E+00 -0.00000000000E+00 -0.10000000000E+04  0.10000000000E+04  0.00000000000E+00 0.  1.
    9000005    2    1    2  501    0  0.51899408865E+00 -0.35509481663E+00 -0.89489154184E+03  0.11047637475E+04  0.64782070882E+03 0.  0.
         13    1    3    3    0    0 -0.24101058182E+03  0.19586816069E+03 -0.29191966337E+03  0.42622473741E+03  0.00000000000E+00 0.  1.
          3    1    3    3  501    0  0.24152957591E+03 -0.19622325551E+03 -0.60297187847E+03  0.67853901012E+03  0.00000000000E+00 0.  1.
         21    1    1    2  502  501 -0.51899408865E+00  0.35509481663E+00  0.40123766305E+00  0.74594829251E+00  0.00000000000E+00 0. -1.
<mgrwt>
<rscale>  1 0.64782101E+03</rscale>
<asrwt>0</asrwt>
<pdfrwt beam="1">  1        1 0.38367243E+00 0.64782101E+03</pdfrwt>
<pdfrwt beam="2">0</pdfrwt>
<totfact> 0.15814558E+00</totfact>
</mgrwt>
</event>
<event>
 6    1  0.1866504E-003  0.6526055E+03  0.7818608E-02  0.9801902E-01
          1   -1    0    0  502    0  0.00000000000E+00  0.00000000000E+00  0.10647352302E+03  0.10647352302E+03  0.00000000000E+00 0.  1.
         13   -1    0    0    0    0 -0.00000000000E+00 -0.00000000000E+00 -0.10000000000E+04  0.10000000000E+04  0.00000000000E+00 0.  1.
    9000005    2    1    2  501    0  0.23541024063E-05 -0.17362174304E-04 -0.89352651720E+03  0.11064734791E+04  0.65260548811E+03 0.  0.
         13    1    3    3    0    0  0.15757168654E+03 -0.79234762701E+02 -0.91222014486E+03  0.92911386638E+03  0.00000000000E+00 0.  1.
          1    1    3    3  501    0 -0.15757168419E+03  0.79234745339E+02  0.18693627655E+02  0.17735961277E+03  0.00000000000E+00 0.  1.
         21    1    1    2  502  501 -0.23541024174E-05  0.17362174303E-04  0.40219520443E-04  0.43870225887E-04  0.00000000000E+00 0.  1.
<mgrwt>
<rscale>  1 0.65260549E+03</rscale>
<asrwt>0</asrwt>
<pdfrwt beam="1">  1        1 0.38717726E+00 0.65260549E+03</pdfrwt>
<pdfrwt beam="2">0</pdfrwt>
<totfact> 0.15246396E+00</totfact>
</mgrwt>
</event>
<event>
 6    1  0.1866504E-003  0.6421537E+03  0.7818608E-02  0.9821615E-01
          1   -1    0    0  502    0  0.00000000000E+00  0.00000000000E+00  0.10345133416E+03  0.10345133416E+03  0.00000000000E+00 0.  1.
         13   -1    0    0    0    0 -0.00000000000E+00 -0.00000000000E+00 -0.10000000000E+04  0.10000000000E+04  0.00000000000E+00 0.  1.
    9000005    2    1    2  501    0  0.67712063470E-02 -0.12204822401E-01 -0.89690951840E+03  0.11030902118E+04  0.64215366612E+03 0.  0.
         13    1    3    3    0    0 -0.78864000227E+02 -0.31070986884E+03 -0.47982931178E+03  0.57705833463E+03  0.00000000000E+00 0.  1.
          1    1    3    3  501    0  0.78870771433E+02  0.31069766401E+03 -0.41708020662E+03  0.52603187714E+03  0.00000000000E+00 0.  1.
         21    1    1    2  502  501 -0.67712063470E-02  0.12204822401E-01  0.36085256863E+00  0.36112239367E+00  0.00000000000E+00 0.  1.
<mgrwt>
<rscale>  1 0.64215367E+03</rscale>
<asrwt>0</asrwt>
<pdfrwt beam="1">  1        1 0.37618746E+00 0.64215367E+03</pdfrwt>
<pdfrwt beam="2">0</pdfrwt>
<totfact> 0.17081787E+00</totfact>
</mgrwt>
</event>
<event>
 6    1  0.1866504E-003  0.5875086E+03  0.7818608E-02  0.9931666E-01
          1   -1    0    0  502    0  0.00000000000E+00  0.00000000000E+00  0.86293552857E+02  0.86293552857E+02  0.00000000000E+00 0.  1.
         13   -1    0    0    0    0 -0.00000000000E+00 -0.00000000000E+00 -0.10000000000E+04  0.10000000000E+04  0.00000000000E+00 0.  1.
    9000005    2    1    2  501    0 -0.41245803808E-03 -0.57394971446E-03 -0.91370835108E+03  0.10862915220E+04  0.58750857004E+03 0.  0.
         13    1    3    3    0    0  0.11138345660E+03  0.26855686121E+03 -0.37923352844E+03  0.47785681035E+03  0.00000000000E+00 0.  1.
          1    1    3    3  501    0 -0.11138386906E+03 -0.26855743516E+03 -0.53447482264E+03  0.60843471162E+03  0.00000000000E+00 0.  1.
         21    1    1    2  502  501  0.41245803808E-03  0.57394971445E-03  0.19039332471E-02  0.20308869287E-02  0.00000000000E+00 0.  1.
<mgrwt>
<rscale>  1 0.58750857E+03</rscale>
<asrwt>0</asrwt>
<pdfrwt beam="1">  1        1 0.31379540E+00 0.58750857E+03</pdfrwt>
<pdfrwt beam="2">0</pdfrwt>
<totfact> 0.32242358E+00</totfact>
</mgrwt>
</event>
<event>
 6    1  0.1866504E-003  0.6457306E+03  0.7818608E-02  0.9814824E-01
          1   -1    0    0  502    0  0.00000000000E+00  0.00000000000E+00  0.10507283599E+03  0.10507283599E+03  0.00000000000E+00 0.  1.
         13   -1    0    0    0    0 -0.00000000000E+00 -0.00000000000E+00 -0.10000000000E+04  0.10000000000E+04  0.00000000000E+00 0.  1.
    9000005    2    1    2  501    0 -0.17296845631E+01 -0.10634792356E+01 -0.89405983044E+03  0.11028648812E+04  0.64572737514E+03 0.  0.
         13    1    3    3    0    0  0.12259329261E+03  0.13422860009E+03  0.83119788283E+01  0.18197670584E+03  0.00000000000E+00 0.  1.
          1    1    3    3  501    0 -0.12432297717E+03 -0.13529207933E+03 -0.90237180926E+03  0.92088817537E+03  0.00000000000E+00 0.  1.
         21    1    1    2  502  501  0.17296845631E+01  0.10634792356E+01 -0.86733357939E+00  0.22079547799E+01  0.00000000000E+00 0.  1.
<mgrwt>
<rscale>  1 0.64573057E+03</rscale>
<asrwt>0</asrwt>
<pdfrwt beam="1">  1        1 0.38208385E+00 0.64573057E+03</pdfrwt>
<pdfrwt beam="2">0</pdfrwt>
<totfact> 0.16078424E+00</totfact>
</mgrwt>
</event>
<event>
 6    1  0.1866504E-003  0.6266237E+03  0.7818608E-02  0.9851660E-01
          1   -1    0    0  502    0  0.00000000000E+00  0.00000000000E+00  0.99106261734E+02  0.99106261734E+02  0.00000000000E+00 0.  1.
         13   -1    0    0    0    0 -0.00000000000E+00 -0.00000000000E+00 -0.10000000000E+04  0.10000000000E+04  0.00000000000E+00 0.  1.
    9000005    2    1    2  501    0  0.12207249219E+01  0.93704027295E+00 -0.90109304146E+03  0.10975545093E+04  0.62662178651E+03 0.  0.
         13    1    3    3    0    0  0.23387596711E+03 -0.26139356005E+02 -0.87754506123E+02  0.25116147648E+03  0.00000000000E+00 0.  1.
          1    1    3    3  501    0 -0.23265524219E+03  0.27076396278E+02 -0.81333853534E+03  0.84639303283E+03  0.00000000000E+00 0.  1.
         21    1    1    2  502  501 -0.12207249219E+01 -0.93704027295E+00  0.19930319769E+00  0.15517524199E+01  0.00000000000E+00 0.  1.
<mgrwt>
<rscale>  1 0.62662368E+03</rscale>
<asrwt>0</asrwt>
<pdfrwt beam="1">  1        1 0.36038717E+00 0.62662368E+03</pdfrwt>
<pdfrwt beam="2">0</pdfrwt>
<totfact> 0.20095624E+00</totfact>
</mgrwt>
</event>
<event>
 6    1  0.1866504E-003  0.6559083E+03  0.7818608E-02  0.9795755E-01
          1   -1    0    0  502    0  0.00000000000E+00  0.00000000000E+00  0.12283555640E+03  0.12283555640E+03  0.00000000000E+00 0.  1.
         13   -1    0    0    0    0 -0.00000000000E+00 -0.00000000000E+00 -0.10000000000E+04  0.10000000000E+04  0.00000000000E+00 0.  1.
    9000005    2    1    2  501    0  0.77473377103E-02 -0.74282838650E+00 -0.89243606673E+03  0.11075458760E+04  0.65590790694E+03 0.  0.
         13    1    3    3    0    0  0.24523724991E+03  0.21369174882E+03 -0.37853102748E+03  0.49909038362E+03  0.00000000000E+00 0.  1.
          1    1    3    3  501    0 -0.24522950258E+03 -0.21443457720E+03 -0.51390503925E+03  0.60845549238E+03  0.00000000000E+00 0.  1.
         21    1    1    2  502  501 -0.77473377103E-02  0.74282838650E+00  0.15271623123E+02  0.15289680403E+02  0.00000000000E+00 0.  1.
<mgrwt>
<rscale>  1 0.65590833E+03</rscale>
<asrwt>0</asrwt>
<pdfrwt beam="1">  1        1 0.44667569E+00 0.65590833E+03</pdfrwt>
<pdfrwt beam="2">0</pdfrwt>
<totfact> 0.82194084E-01</totfact>
</mgrwt>
</event>
<event>
 6    1  0.1866504E-003  0.6554313E+03  0.7818608E-02  0.9796641E-01
          1   -1    0    0  502    0  0.00000000000E+00  0.00000000000E+00  0.10739773604E+03  0.10739773604E+03  0.00000000000E+00 0.  1.
         13   -1    0    0    0    0 -0.00000000000E+00 -0.00000000000E+00 -0.10000000000E+04  0.10000000000E+04  0.00000000000E+00 0.  1.
    9000005    2    1    2  501    0 -0.34138784883E-05  0.16954613184E-04 -0.89260244878E+03  0.11073975504E+04  0.65543131073E+03 0.  0.
         13    1    3    3    0    0 -0.14279207941E+03 -0.10062354294E+02  0.51783311907E+02  0.15222463765E+03  0.00000000000E+00 0.  1.
          1    1    3    3  501    0  0.14279207599E+03  0.10062371249E+02 -0.94438576069E+03  0.95517291276E+03  0.00000000000E+00 0.  1.
         21    1    1    2  502  501  0.34138784770E-05 -0.16954613184E-04  0.18481833953E-03  0.18562578512E-03  0.00000000000E+00 0.  1.
<mgrwt>
<rscale>  1 0.65543131E+03</rscale>
<asrwt>0</asrwt>
<pdfrwt beam="1">  1        1 0.39053805E+00 0.65543131E+03</pdfrwt>
<pdfrwt beam="2">0</pdfrwt>
<totfact> 0.14724633E+00</totfact>
</mgrwt>
</event>
<event>
 6    1  0.1866504E-003  0.6916376E+03  0.7818608E-02  0.9731641E-01
          1   -1    0    0  502    0  0.00000000000E+00  0.00000000000E+00  0.11959949599E+03  0.11959949599E+03  0.00000000000E+00 0.  1.
         13   -1    0    0    0    0 -0.00000000000E+00 -0.00000000000E+00 -0.10000000000E+04  0.10000000000E+04  0.00000000000E+00 0.  1.
    9000005    2    1    2  501    0 -0.69139061360E-02 -0.44224607202E-02 -0.88040715502E+03  0.11195889321E+04  0.69163763502E+03 0.  0.
         13    1    3    3    0    0  0.13349092437E+03 -0.31533791767E+03 -0.51839692502E+03  0.62128351103E+03  0.00000000000E+00 0.  1.
          3    1    3    3  501    0 -0.13349783828E+03  0.31533349521E+03 -0.36201023000E+03  0.49830542105E+03  0.00000000000E+00 0.  1.
         21    1    1    2  502  501  0.69139061360E-02  0.44224607202E-02  0.66510016625E-02  0.10563904581E-01  0.00000000000E+00 0. -1.
<mgrwt>
<rscale>  1 0.69163764E+03</rscale>
<asrwt>0</asrwt>
<pdfrwt beam="1">  1        1 0.43490818E+00 0.69163764E+03</pdfrwt>
<pdfrwt beam="2">0</pdfrwt>
<totfact> 0.92388529E-01</totfact>
</mgrwt>
</event>
<event>
 6    1  0.1866504E-003  0.6491734E+03  0.7818608E-02  0.9808331E-01
          1   -1    0    0  502    0  0.00000000000E+00  0.00000000000E+00  0.10535681008E+03  0.10535681008E+03  0.00000000000E+00 0.  1.
         13   -1    0    0    0    0 -0.00000000000E+00 -0.00000000000E+00 -0.10000000000E+04  0.10000000000E+04  0.00000000000E+00 0.  1.
    9000005    2    1    2  501    0  0.65486014222E-04  0.61496663903E-04 -0.89464345304E+03  0.11053565321E+04  0.64917343976E+03 0.  0.
         13    1    3    3    0    0  0.17579317963E+03 -0.25358399887E+03 -0.27579117663E+03  0.41384642030E+03  0.00000000000E+00 0.  1.
          3    1    3    3  501    0 -0.17579311414E+03  0.25358406036E+03 -0.61885227640E+03  0.69151011175E+03  0.00000000000E+00 0.  1.
         21    1    1    2  502  501 -0.65486014222E-04 -0.61496663916E-04  0.26311560573E-03  0.27802891883E-03  0.00000000000E+00 0. -1.
<mgrwt>
<rscale>  1 0.64917344E+03</rscale>
<asrwt>0</asrwt>
<pdfrwt beam="1">  1        1 0.38311648E+00 0.64917344E+03</pdfrwt>
<pdfrwt beam="2">0</pdfrwt>
<totfact> 0.15900315E+00</totfact>
</mgrwt>
</event>
<event>
 6    1  0.1866504E-003  0.6369578E+03  0.7818608E-02  0.9831564E-01
          1   -1    0    0  502    0  0.00000000000E+00  0.00000000000E+00  0.10149910214E+03  0.10149910214E+03  0.00000000000E+00 0.  1.
         13   -1    0    0    0    0 -0.00000000000E+00 -0.00000000000E+00 -0.10000000000E+04  0.10000000000E+04  0.00000000000E+00 0.  1.
    9000005    2    1    2  501    0 -0.14003033483E-02  0.81539920757E-03 -0.89857116742E+03  0.11014288139E+04  0.63695783940E+03 0.  0.
         13    1    3    3    0    0 -0.43426452686E+02  0.28539381955E+03 -0.68188561792E+03  0.74047517511E+03  0.00000000000E+00 0.  1.
          3    1    3    3  501    0  0.43425052383E+02 -0.28539300415E+03 -0.21668554950E+03  0.36095363879E+03  0.00000000000E+00 0.  1.
         21    1    1    2  502  501  0.14003033483E-02 -0.81539920758E-03  0.70269559993E-01  0.70288240744E-01  0.00000000000E+00 0. -1.
<mgrwt>
<rscale>  1 0.63695784E+03</rscale>
<asrwt>0</asrwt>
<pdfrwt beam="1">  1        1 0.36908842E+00 0.63695784E+03</pdfrwt>
<pdfrwt beam="2">0</pdfrwt>
<totfact> 0.18372150E+00</totfact>
</mgrwt>
</event>
<event>
 6    1  0.1866504E-003  0.6085502E+03  0.7818608E-02  0.9887824E-01
          1   -1    0    0  502    0  0.00000000000E+00  0.00000000000E+00  0.92586459678E+02  0.92586459678E+02  0.00000000000E+00 0.  1.
         13   -1    0    0    0    0 -0.00000000000E+00 -0.00000000000E+00 -0.10000000000E+04  0.10000000000E+04  0.00000000000E+00 0.  1.
    9000005    2    1    2  501    0  0.20983520554E-02 -0.24526368100E-02 -0.90741571827E+03  0.10925825658E+04  0.60855022588E+03 0.  0.
         13    1    3    3    0    0 -0.50258959480E+02  0.27475015407E+03 -0.23699940006E+03  0.36630905776E+03  0.00000000000E+00 0.  1.
          1    1    3    3  501    0  0.50261057832E+02 -0.27475260670E+03 -0.67041631821E+03  0.72627350808E+03  0.00000000000E+00 0.  1.
         21    1    1    2  502  501 -0.20983520554E-02  0.24526368100E-02  0.21779449430E-02  0.38938352359E-02  0.00000000000E+00 0. -1.
<mgrwt>
<rscale>  1 0.60855023E+03</rscale>
<asrwt>0</asrwt>
<pdfrwt beam="1">  1        1 0.33667875E+00 0.60855023E+03</pdfrwt>
<pdfrwt beam="2">0</pdfrwt>
<totfact> 0.25572104E+00</totfact>
</mgrwt>
</event>
<event>
 6    1  0.1866504E-003  0.6496339E+03  0.7818608E-02  0.9807466E-01
          1   -1    0    0  502    0  0.00000000000E+00  0.00000000000E+00  0.10749400123E+03  0.10749400123E+03  0.00000000000E+00 0.  1.
         13   -1    0    0    0    0 -0.00000000000E+00 -0.00000000000E+00 -0.10000000000E+04  0.10000000000E+04  0.00000000000E+00 0.  1.
    9000005    2    1    2  501    0  0.24116958082E+00 -0.20958406654E-01 -0.89448580938E+03  0.11054994456E+04  0.64963382184E+03 0.  0.
         13    1    3    3    0    0 -0.31677522624E+03 -0.15238189907E+02 -0.32855535489E+03  0.45664796903E+03  0.00000000000E+00 0.  1.
          3    1    3    3  501    0  0.31701639582E+03  0.15217231500E+02 -0.56593045449E+03  0.64885147659E+03  0.00000000000E+00 0.  1.
         21    1    1    2  502  501 -0.24116958082E+00  0.20958406654E-01  0.19798106124E+01  0.19945556103E+01  0.00000000000E+00 0.  1.
<mgrwt>
<rscale>  1 0.64963387E+03</rscale>
<asrwt>0</asrwt>
<pdfrwt beam="1">  1        1 0.39088810E+00 0.64963387E+03</pdfrwt>
<pdfrwt beam="2">0</pdfrwt>
<totfact> 0.14687927E+00</totfact>
</mgrwt>
</event>
<event>
 6    1  0.1866504E-003  0.6643369E+03  0.7818608E-02  0.9780243E-01
          1   -1    0    0  502    0  0.00000000000E+00  0.00000000000E+00  0.11033976540E+03  0.11033976540E+03  0.00000000000E+00 0.  1.
         13   -1    0    0    0    0 -0.00000000000E+00 -0.00000000000E+00 -0.10000000000E+04  0.10000000000E+04  0.00000000000E+00 0.  1.
    9000005    2    1    2  501    0  0.58319257028E-03  0.10863864307E-02 -0.88966402828E+03  0.11103357764E+04  0.66433685211E+03 0.  0.
         13    1    3    3    0    0 -0.29295035484E+03 -0.47910272871E+02 -0.19569280547E+03  0.35554321644E+03  0.00000000000E+00 0.  1.
          1    1    3    3  501    0  0.29295093803E+03  0.47911359257E+02 -0.69397122281E+03  0.75479255993E+03  0.00000000000E+00 0.  1.
         21    1    1    2  502  501 -0.58319257026E-03 -0.10863864307E-02  0.37936790019E-02  0.39890286312E-02  0.00000000000E+00 0. -1.
<mgrwt>
<rscale>  1 0.66433685E+03</rscale>
<asrwt>0</asrwt>
<pdfrwt beam="1">  1        1 0.40123636E+00 0.66433685E+03</pdfrwt>
<pdfrwt beam="2">0</pdfrwt>
<totfact> 0.13174245E+00</totfact>
</mgrwt>
</event>
<event>
 6    1  0.1866504E-003  0.6097272E+03  0.7818608E-02  0.9885428E-01
          1   -1    0    0  502    0  0.00000000000E+00  0.00000000000E+00  0.92943153577E+02  0.92943153577E+02  0.00000000000E+00 0.  1.
         13   -1    0    0    0    0 -0.00000000000E+00 -0.00000000000E+00 -0.10000000000E+04  0.10000000000E+04  0.00000000000E+00 0.  1.
    9000005    2    1    2  501    0  0.68151678323E-03 -0.56512007677E-03 -0.90705801596E+03  0.10929416867E+04  0.60972722284E+03 0.  0.
         13    1    3    3    0    0 -0.11404792426E+03  0.22329412397E+03 -0.14267193661E+03  0.28848306072E+03  0.00000000000E+00 0.  1.
          3    1    3    3  501    0  0.11404860577E+03 -0.22329468909E+03 -0.76438607935E+03  0.80445862601E+03  0.00000000000E+00 0.  1.
         21    1    1    2  502  501 -0.68151678323E-03  0.56512007679E-03  0.11695381467E-02  0.14668487664E-02  0.00000000000E+00 0.  1.
<mgrwt>
<rscale>  1 0.60972722E+03</rscale>
<asrwt>0</asrwt>
<pdfrwt beam="1">  1        1 0.33797582E+00 0.60972722E+03</pdfrwt>
<pdfrwt beam="2">0</pdfrwt>
<totfact> 0.25237512E+00</totfact>
</mgrwt>
</event>
<event>
 6    1  0.1866504E-003  0.6485949E+03  0.7818608E-02  0.9809419E-01
          1   -1    0    0  502    0  0.00000000000E+00  0.00000000000E+00  0.10516888231E+03  0.10516888231E+03  0.00000000000E+00 0.  1.
         13   -1    0    0    0    0 -0.00000000000E+00 -0.00000000000E+00 -0.10000000000E+04  0.10000000000E+04  0.00000000000E+00 0.  1.
    9000005    2    1    2  501    0  0.35714111036E-04  0.29164692478E-04 -0.89483116775E+03  0.11051688143E+04  0.64859485753E+03 0.  0.
         13    1    3    3    0    0 -0.68400749373E+02 -0.27497414289E+03 -0.71618186033E+03  0.77019860999E+03  0.00000000000E+00 0.  1.
          3    1    3    3  501    0  0.68400785088E+02  0.27497417206E+03 -0.17864930742E+03  0.33497020426E+03  0.00000000000E+00 0.  1.
         21    1    1    2  502  501 -0.35714111035E-04 -0.29164692506E-04  0.50061240480E-04  0.68060302779E-04  0.00000000000E+00 0.  1.
<mgrwt>
<rscale>  1 0.64859486E+03</rscale>
<asrwt>0</asrwt>
<pdfrwt beam="1">  1        1 0.38243311E+00 0.64859486E+03</pdfrwt>
<pdfrwt beam="2">0</pdfrwt>
<totfact> 0.16012951E+00</totfact>
</mgrwt>
</event>
<event>
 6    1  0.1866504E-003  0.6400092E+03  0.7818608E-02  0.9825709E-01
          1   -1    0    0  502    0  0.00000000000E+00  0.00000000000E+00  0.10241951031E+03  0.10241951031E+03  0.00000000000E+00 0.  1.
         13   -1    0    0    0    0 -0.00000000000E+00 -0.00000000000E+00 -0.10000000000E+04  0.10000000000E+04  0.00000000000E+00 0.  1.
    9000005    2    1    2  501    0 -0.95039309713E-04 -0.57127291907E-03 -0.89759706078E+03  0.11024029291E+04  0.64000916757E+03 0.  0.
         13    1    3    3    0    0  0.31863767711E+03 -0.68262383354E+00 -0.39792058076E+03  0.50977566031E+03  0.00000000000E+00 0.  1.
          3    1    3    3  501    0 -0.31863777215E+03  0.68205256062E+00 -0.49967648002E+03  0.59262726879E+03  0.00000000000E+00 0.  1.
         21    1    1    2  502  501  0.95039309722E-04  0.57127291907E-03  0.16571094487E-01  0.16581210985E-01  0.00000000000E+00 0.  1.
<mgrwt>
<rscale>  1 0.64000917E+03</rscale>
<asrwt>0</asrwt>
<pdfrwt beam="1">  1        1 0.37243537E+00 0.64000917E+03</pdfrwt>
<pdfrwt beam="2">0</pdfrwt>
<totfact> 0.17750647E+00</totfact>
</mgrwt>
</event>
<event>
 6    1  0.1866504E-003  0.6499329E+03  0.7818608E-02  0.9806905E-01
          1   -1    0    0  502    0  0.00000000000E+00  0.00000000000E+00  0.10615034436E+03  0.10615034436E+03  0.00000000000E+00 0.  1.
         13   -1    0    0    0    0 -0.00000000000E+00 -0.00000000000E+00 -0.10000000000E+04  0.10000000000E+04  0.00000000000E+00 0.  1.
    9000005    2    1    2  501    0  0.14161793120E-01  0.72187774486E-02 -0.89439667226E+03  0.11056030968E+04  0.64993291972E+03 0.  0.
         13    1    3    3    0    0 -0.50173360275E+02  0.32643899593E+02 -0.99053874177E+03  0.99234570045E+03  0.00000000000E+00 0.  1.
          1    1    3    3  501    0  0.50187522068E+02 -0.32636680815E+02  0.96142069509E+02  0.11325739638E+03  0.00000000000E+00 0.  1.
         21    1    1    2  502  501 -0.14161793120E-01 -0.72187774486E-02  0.54701661909E+00  0.54724752050E+00  0.00000000000E+00 0. -1.
<mgrwt>
<rscale>  1 0.64993292E+03</rscale>
<asrwt>0</asrwt>
<pdfrwt beam="1">  1        1 0.38600207E+00 0.64993292E+03</pdfrwt>
<pdfrwt beam="2">0</pdfrwt>
<totfact> 0.15437759E+00</totfact>
</mgrwt>
</event>
<event>
 6    1  0.1866504E-003  0.6427193E+03  0.7818608E-02  0.9820538E-01
          1   -1    0    0  502    0  0.00000000000E+00  0.00000000000E+00  0.10327209061E+03  0.10327209061E+03  0.00000000000E+00 0.  1.
         13   -1    0    0    0    0 -0.00000000000E+00 -0.00000000000E+00 -0.10000000000E+04  0.10000000000E+04  0.00000000000E+00 0.  1.
    9000005    2    1    2  501    0  0.18310853875E-04 -0.89354282125E-05 -0.89672797724E+03  0.11032720198E+04  0.64271928898E+03 0.  0.
         13    1    3    3    0    0 -0.25775393762E+03 -0.10805460712E+03 -0.17608817420E+03  0.33033306764E+03  0.00000000000E+00 0.  1.
          3    1    3    3  501    0  0.25775395593E+03  0.10805459819E+03 -0.72063980304E+03  0.77293895213E+03  0.00000000000E+00 0.  1.
         21    1    1    2  502  501 -0.18310853868E-04  0.89354282215E-05  0.67846843150E-04  0.70840125440E-04  0.00000000000E+00 0. -1.
<mgrwt>
<rscale>  1 0.64271929E+03</rscale>
<asrwt>0</asrwt>
<pdfrwt beam="1">  1        1 0.37553567E+00 0.64271929E+03</pdfrwt>
<pdfrwt beam="2">0</pdfrwt>
<totfact> 0.17193268E+00</totfact>
</mgrwt>
</event>
<event>
 6    1  0.1866504E-003  0.6548944E+03  0.7818608E-02  0.9797638E-01
          1   -1    0    0  502    0  0.00000000000E+00  0.00000000000E+00  0.10722221430E+03  0.10722221430E+03  0.00000000000E+00 0.  1.
         13   -1    0    0    0    0 -0.00000000000E+00 -0.00000000000E+00 -0.10000000000E+04  0.10000000000E+04  0.00000000000E+00 0.  1.
    9000005    2    1    2  501    0 -0.37582395578E-05  0.10366382782E-04 -0.89277832361E+03  0.11072216763E+04  0.65489442303E+03 0.  0.
         13    1    3    3    0    0 -0.19527897688E+03  0.16957697529E+03 -0.10685365600E+03  0.27983554664E+03  0.00000000000E+00 0.  1.
          1    1    3    3  501    0  0.19527897312E+03 -0.16957696492E+03 -0.78592466761E+03  0.82738612964E+03  0.00000000000E+00 0.  1.
         21    1    1    2  502  501  0.37582395531E-05 -0.10366382768E-04  0.53790925415E-03  0.53802225972E-03  0.00000000000E+00 0.  1.
<mgrwt>
<rscale>  1 0.65489442E+03</rscale>
<asrwt>0</asrwt>
<pdfrwt beam="1">  1        1 0.38989978E+00 0.65489442E+03</pdfrwt>
<pdfrwt beam="2">0</pdfrwt>
<totfact> 0.14822402E+00</totfact>
</mgrwt>
</event>
<event>
 6    1  0.1866504E-003  0.6599019E+03  0.7818608E-02  0.9788374E-01
          1   -1    0    0  502    0  0.00000000000E+00  0.00000000000E+00  0.11450345208E+03  0.11450345208E+03  0.00000000000E+00 0.  1.
         13   -1    0    0    0    0 -0.00000000000E+00 -0.00000000000E+00 -0.10000000000E+04  0.10000000000E+04  0.00000000000E+00 0.  1.
    9000005    2    1    2  501    0  0.61177479229E+00 -0.18584909666E+01 -0.89094343856E+03  0.11087158036E+04  0.65989900304E+03 0.  0.
         13    1    3    3    0    0 -0.29071494655E+03  0.13716923029E+03 -0.56459993156E+03  0.64969505201E+03  0.00000000000E+00 0.  1.
          1    1    3    3  501    0  0.29132672134E+03 -0.13902772125E+03 -0.32634350700E+03  0.45902075161E+03  0.00000000000E+00 0.  1.
         21    1    1    2  502  501 -0.61177479229E+00  0.18584909666E+01  0.54468906457E+01  0.57876484669E+01  0.00000000000E+00 0.  1.
<mgrwt>
<rscale>  1 0.65990190E+03</rscale>
<asrwt>0</asrwt>
<pdfrwt beam="1">  1        1 0.41637707E+00 0.65990190E+03</pdfrwt>
<pdfrwt beam="2">0</pdfrwt>
<totfact> 0.11278165E+00</totfact>
</mgrwt>
</event>
<event>
 6    1  0.1866504E-003  0.6430129E+03  0.7818608E-02  0.9819979E-01
          1   -1    0    0  502    0  0.00000000000E+00  0.00000000000E+00  0.10358767559E+03  0.10358767559E+03  0.00000000000E+00 0.  1.
         13   -1    0    0    0    0 -0.00000000000E+00 -0.00000000000E+00 -0.10000000000E+04  0.10000000000E+04  0.00000000000E+00 0.  1.
    9000005    2    1    2  501    0  0.63992552525E-01  0.48391810455E-01 -0.89662555032E+03  0.11033598553E+04  0.64301289743E+03 0.  0.
         13    1    3    3    0    0 -0.30117649242E+03 -0.41918328023E+02 -0.62725513866E+03  0.69707491333E+03  0.00000000000E+00 0.  1.
          3    1    3    3  501    0  0.30124048497E+03  0.41966719834E+02 -0.26937041166E+03  0.40628494193E+03  0.00000000000E+00 0.  1.
         21    1    1    2  502  501 -0.63992552525E-01 -0.48391810455E-01  0.21322591479E+00  0.22782033455E+00  0.00000000000E+00 0. -1.
<mgrwt>
<rscale>  1 0.64301290E+03</rscale>
<asrwt>0</asrwt>
<pdfrwt beam="1">  1        1 0.37668325E+00 0.64301290E+03</pdfrwt>
<pdfrwt beam="2">0</pdfrwt>
<totfact> 0.16993433E+00</totfact>
</mgrwt>
</event>
<event>
 6    1  0.1866504E-003  0.6521575E+03  0.7818608E-02  0.9802739E-01
          1   -1    0    0  502    0  0.00000000000E+00  0.00000000000E+00  0.10632806417E+03  0.10632806417E+03  0.00000000000E+00 0.  1.
         13   -1    0    0    0    0 -0.00000000000E+00 -0.00000000000E+00 -0.10000000000E+04  0.10000000000E+04  0.00000000000E+00 0.  1.
    9000005    2    1    2  501    0  0.11907193446E-04 -0.46938939136E-05 -0.89367264562E+03  0.11063273543E+04  0.65215750956E+03 0.  0.
         13    1    3    3    0    0 -0.49216199673E+02  0.29872654904E+03 -0.65228823202E+03  0.71912427510E+03  0.00000000000E+00 0.  1.
          3    1    3    3  501    0  0.49216211581E+02 -0.29872655373E+03 -0.24138441360E+03  0.38720307917E+03  0.00000000000E+00 0.  1.
         21    1    1    2  502  501 -0.11907193442E-04  0.46938939107E-05  0.70979124090E-03  0.70990662735E-03  0.00000000000E+00 0. -1.
<mgrwt>
<rscale>  1 0.65215751E+03</rscale>
<asrwt>0</asrwt>
<pdfrwt beam="1">  1        1 0.38664832E+00 0.65215751E+03</pdfrwt>
<pdfrwt beam="2">0</pdfrwt>
<totfact> 0.15330105E+00</totfact>
</mgrwt>
</event>
<event>
 6    1  0.1866504E-003  0.6514176E+03  0.7818608E-02  0.9804123E-01
          1   -1    0    0  502    0  0.00000000000E+00  0.00000000000E+00  0.10608741412E+03  0.10608741412E+03  0.00000000000E+00 0.  1.
         13   -1    0    0    0    0 -0.00000000000E+00 -0.00000000000E+00 -0.10000000000E+04  0.10000000000E+04  0.00000000000E+00 0.  1.
    9000005    2    1    2  501    0  0.55718598503E-04 -0.60212033816E-04 -0.89391377120E+03  0.11060862260E+04  0.65141761484E+03 0.  0.
         13    1    3    3    0    0  0.14352744004E+03 -0.26975918300E+03 -0.25548435173E+03  0.39829938092E+03  0.00000000000E+00 0.  1.
          3    1    3    3  501    0 -0.14352738432E+03  0.26975912279E+03 -0.63842941946E+03  0.70778684504E+03  0.00000000000E+00 0.  1.
         21    1    1    2  502  501 -0.55718598520E-04  0.60212033813E-04  0.11853173551E-02  0.11881528873E-02  0.00000000000E+00 0. -1.
<mgrwt>
<rscale>  1 0.65141761E+03</rscale>
<asrwt>0</asrwt>
<pdfrwt beam="1">  1        1 0.38577323E+00 0.65141761E+03</pdfrwt>
<pdfrwt beam="2">0</pdfrwt>
<totfact> 0.15469550E+00</totfact>
</mgrwt>
</event>
<event>
 6    1  0.1866504E-003  0.7015742E+03  0.7818608E-02  0.9714544E-01
          1   -1    0    0  502    0  0.00000000000E+00  0.00000000000E+00  0.12305173981E+03  0.12305173981E+03  0.00000000000E+00 0.  1.
         13   -1    0    0    0    0 -0.00000000000E+00 -0.00000000000E+00 -0.10000000000E+04  0.10000000000E+04  0.00000000000E+00 0.  1.
    9000005    2    1    2  501    0 -0.44528445613E-04 -0.14788305208E-04 -0.87694842398E+03  0.11230515694E+04  0.70157415095E+03 0.  0.
         13    1    3    3    0    0 -0.18924793433E+03  0.20365543854E+03 -0.78090682220E+03  0.82891844185E+03  0.00000000000E+00 0.  1.
          1    1    3    3  501    0  0.18924788980E+03 -0.20365545333E+03 -0.96041601786E+02  0.29413312758E+03  0.00000000000E+00 0.  1.
         21    1    1    2  502  501  0.44528445611E-04  0.14788305214E-04  0.16379514796E-03  0.17038288334E-03  0.00000000000E+00 0. -1.
<mgrwt>
<rscale>  1 0.70157415E+03</rscale>
<asrwt>0</asrwt>
<pdfrwt beam="1">  1        1 0.44746182E+00 0.70157415E+03</pdfrwt>
<pdfrwt beam="2">0</pdfrwt>
<totfact> 0.80771563E-01</totfact>
</mgrwt>
</event>
<event>
 6    1  0.1866504E-003  0.6640933E+03  0.7818608E-02  0.9780688E-01
          1   -1    0    0  502    0  0.00000000000E+00  0.00000000000E+00  0.11093425837E+03  0.11093425837E+03  0.00000000000E+00 0.  1.
         13   -1    0    0    0    0 -0.00000000000E+00 -0.00000000000E+00 -0.10000000000E+04  0.10000000000E+04  0.00000000000E+00 0.  1.
    9000005    2    1    2  501    0 -0.22922915660E+00  0.47387850553E-01 -0.88972254859E+03  0.11102369873E+04  0.66409329135E+03 0.  0.
         13    1    3    3    0    0 -0.16698274561E+03  0.28070688080E+03 -0.54564864510E+03  0.63593398569E+03  0.00000000000E+00 0.  1.
          1    1    3    3  501    0  0.16675351645E+03 -0.28065949295E+03 -0.34407390349E+03  0.47430300156E+03  0.00000000000E+00 0.  1.
         21    1    1    2  502  501  0.22922915660E+00 -0.47387850553E-01  0.65680696727E+00  0.69727111432E+00  0.00000000000E+00 0. -1.
<mgrwt>
<rscale>  1 0.66409333E+03</rscale>
<asrwt>0</asrwt>
<pdfrwt beam="1">  1        1 0.40339815E+00 0.66409333E+03</pdfrwt>
<pdfrwt beam="2">0</pdfrwt>
<totfact> 0.12885246E+00</totfact>
</mgrwt>
</event>
<event>
 6    1  0.1866504E-003  0.6537692E+03  0.7818608E-02  0.9799732E-01
          1   -1    0    0  502    0  0.00000000000E+00  0.00000000000E+00  0.11518495475E+03  0.11518495475E+03  0.00000000000E+00 0.  1.
         13   -1    0    0    0    0 -0.00000000000E+00 -0.00000000000E+00 -0.10000000000E+04  0.10000000000E+04  0.00000000000E+00 0.  1.
    9000005    2    1    2  501    0 -0.17527750168E+01 -0.81844173788E+00 -0.89302199564E+03  0.11067531043E+04  0.65376632455E+03 0.  0.
         13    1    3    3    0    0  0.31341025792E+03  0.65166416863E+02 -0.34120530569E+03  0.46786078302E+03  0.00000000000E+00 0.  1.
          1    1    3    3  501    0 -0.31516303293E+03 -0.65984858601E+02 -0.55181668995E+03  0.63889232129E+03  0.00000000000E+00 0.  1.
         21    1    1    2  502  501  0.17527750168E+01  0.81844173788E+00  0.82069503981E+01  0.84318504479E+01  0.00000000000E+00 0.  1.
<mgrwt>
<rscale>  1 0.65376919E+03</rscale>
<asrwt>0</asrwt>
<pdfrwt beam="1">  1        1 0.41885526E+00 0.65376919E+03</pdfrwt>
<pdfrwt beam="2">0</pdfrwt>
<totfact> 0.11005128E+00</totfact>
</mgrwt>
</event>
<event>
 6    1  0.1866504E-003  0.5242176E+03  0.7818608E-02  0.1007644E+00
          1   -1    0    0  502    0  0.00000000000E+00  0.00000000000E+00  0.69012926986E+02  0.69012926986E+02  0.00000000000E+00 0.  1.
         13   -1    0    0    0    0 -0.00000000000E+00 -0.00000000000E+00 -0.10000000000E+04  0.10000000000E+04  0.00000000000E+00 0.  1.
    9000005    2    1    2  501    0 -0.27224896099E-01  0.47056034121E-01 -0.93129645151E+03  0.10686988083E+04  0.52421756878E+03 0.  0.
         13    1    3    3    0    0 -0.38385993760E+02 -0.24095285047E+03 -0.27050903521E+03  0.36428958097E+03  0.00000000000E+00 0.  1.
          3    1    3    3  501    0  0.38358768864E+02  0.24099990651E+03 -0.66078741629E+03  0.70440922738E+03  0.00000000000E+00 0.  1.
         21    1    1    2  502  501  0.27224896099E-01 -0.47056034121E-01  0.30937849577E+00  0.31411863835E+00  0.00000000000E+00 0.  1.
<mgrwt>
<rscale>  1 0.52421757E+03</rscale>
<asrwt>0</asrwt>
<pdfrwt beam="1">  1        1 0.25095663E+00 0.52421757E+03</pdfrwt>
<pdfrwt beam="2">0</pdfrwt>
<totfact> 0.60921372E+00</totfact>
</mgrwt>
</event>
<event>
 6    1  0.1866504E-003  0.6529442E+03  0.7818608E-02  0.9801270E-01
          1   -1    0    0  502    0  0.00000000000E+00  0.00000000000E+00  0.10669053565E+03  0.10669053565E+03  0.00000000000E+00 0.  1.
         13   -1    0    0    0    0 -0.00000000000E+00 -0.00000000000E+00 -0.10000000000E+04  0.10000000000E+04  0.00000000000E+00 0.  1.
    9000005    2    1    2  501    0  0.14650843187E-02 -0.36829768437E-02 -0.89341593697E+03  0.11065839893E+04  0.65294416980E+03 0.  0.
         13    1    3    3    0    0  0.23423046945E+03  0.22668574091E+03 -0.41577152092E+03  0.52831458012E+03  0.00000000000E+00 0.  1.
          3    1    3    3  501    0 -0.23422900437E+03 -0.22668942389E+03 -0.47764441605E+03  0.57826940916E+03  0.00000000000E+00 0.  1.
         21    1    1    2  502  501 -0.14650843187E-02  0.36829768437E-02  0.10647261864E+00  0.10654637164E+00  0.00000000000E+00 0.  1.
<mgrwt>
<rscale>  1 0.65294417E+03</rscale>
<asrwt>0</asrwt>
<pdfrwt beam="1">  1        1 0.38796640E+00 0.65294417E+03</pdfrwt>
<pdfrwt beam="2">0</pdfrwt>
<totfact> 0.15123238E+00</totfact>
</mgrwt>
</event>
<event>
 6    1  0.1866504E-003  0.6436537E+03  0.7818608E-02  0.9818761E-01
          1   -1    0    0  502    0  0.00000000000E+00  0.00000000000E+00  0.10391902601E+03  0.10391902601E+03  0.00000000000E+00 0.  1.
         13   -1    0    0    0    0 -0.00000000000E+00 -0.00000000000E+00 -0.10000000000E+04  0.10000000000E+04  0.00000000000E+00 0.  1.
    9000005    2    1    2  501    0  0.63853284182E+00 -0.92628471869E-01 -0.89605926069E+03  0.11032734443E+04  0.64365338345E+03 0.  0.
         13    1    3    3    0    0 -0.20375064624E+03  0.20648340008E+01 -0.21208567532E+02  0.20486188694E+03  0.00000000000E+00 0.  1.
          3    1    3    3  501    0  0.20438917908E+03 -0.21574624727E+01 -0.87485069316E+03  0.89841155741E+03  0.00000000000E+00 0.  1.
         21    1    1    2  502  501 -0.63853284182E+00  0.92628471869E-01 -0.21713299223E-01  0.64558166892E+00  0.00000000000E+00 0.  1.
<mgrwt>
<rscale>  1 0.64365371E+03</rscale>
<asrwt>0</asrwt>
<pdfrwt beam="1">  1        1 0.37788816E+00 0.64365371E+03</pdfrwt>
<pdfrwt beam="2">0</pdfrwt>
<totfact> 0.16784978E+00</totfact>
</mgrwt>
</event>
<event>
 6    1  0.1866504E-003  0.6510751E+03  0.7818608E-02  0.9804764E-01
          1   -1    0    0  502    0  0.00000000000E+00  0.00000000000E+00  0.11709763122E+03  0.11709763122E+03  0.00000000000E+00 0.  1.
         13   -1    0    0    0    0 -0.00000000000E+00 -0.00000000000E+00 -0.10000000000E+04  0.10000000000E+04  0.00000000000E+00 0.  1.
    9000005    2    1    2  501    0  0.14863064009E+02 -0.22591899510E+02 -0.87126153817E+03  0.10876559340E+04  0.65051322689E+03 0.  0.
         13    1    3    3    0    0  0.20336646299E+03  0.94054578986E+02 -0.83311876335E+03  0.86272304707E+03  0.00000000000E+00 0.  1.
          3    1    3    3  501    0 -0.18850339898E+03 -0.11664647850E+03 -0.38142774822E+02  0.22493288698E+03  0.00000000000E+00 0.  1.
         21    1    1    2  502  501 -0.14863064009E+02  0.22591899510E+02 -0.11640830614E+02  0.29441697176E+02  0.00000000000E+00 0. -1.
<mgrwt>
<rscale>  1 0.65107508E+03</rscale>
<asrwt>0</asrwt>
<pdfrwt beam="1">  1        1 0.42581047E+00 0.65107508E+03</pdfrwt>
<pdfrwt beam="2">0</pdfrwt>
<totfact> 0.10242581E+00</totfact>
</mgrwt>
</event>
<event>
 6    1  0.1866504E-003  0.6512788E+03  0.7818608E-02  0.9804383E-01
          1   -1    0    0  502    0  0.00000000000E+00  0.00000000000E+00  0.10612013461E+03  0.10612013461E+03  0.00000000000E+00 0.  1.
         13   -1    0    0    0    0 -0.00000000000E+00 -0.00000000000E+00 -0.10000000000E+04  0.10000000000E+04  0.00000000000E+00 0.  1.
    9000005    2    1    2  501    0 -0.54273776006E-03  0.26975443307E-02 -0.89395895972E+03  0.11060409924E+04  0.65127878460E+03 0.  0.
         13    1    3    3    0    0  0.40470733793E+02 -0.15676088097E+02  0.10110728834E+03  0.11002864985E+03  0.00000000000E+00 0.  1.
          1    1    3    3  501    0 -0.40471276531E+02  0.15678785641E+02 -0.99506624806E+03  0.99601234258E+03  0.00000000000E+00 0.  1.
         21    1    1    2  502  501  0.54273776006E-03 -0.26975443307E-02  0.79094328619E-01  0.79142176679E-01  0.00000000000E+00 0.  1.
<mgrwt>
<rscale>  1 0.65127878E+03</rscale>
<asrwt>0</asrwt>
<pdfrwt beam="1">  1        1 0.38589221E+00 0.65127878E+03</pdfrwt>
<pdfrwt beam="2">0</pdfrwt>
<totfact> 0.15451203E+00</totfact>
</mgrwt>
</event>
<event>
 6    1  0.1866504E-003  0.6650114E+03  0.7818608E-02  0.9779012E-01
          1   -1    0    0  502    0  0.00000000000E+00  0.00000000000E+00  0.11154422678E+03  0.11154422678E+03  0.00000000000E+00 0.  1.
         13   -1    0    0    0    0 -0.00000000000E+00 -0.00000000000E+00 -0.10000000000E+04  0.10000000000E+04  0.00000000000E+00 0.  1.
    9000005    2    1    2  501    0  0.20318766460E+01 -0.42422971553E+00 -0.88802023724E+03  0.11094233342E+04  0.66500818367E+03 0.  0.
         13    1    3    3    0    0  0.29271529099E+03  0.80810863070E+01 -0.71108572107E+03  0.76901914687E+03  0.00000000000E+00 0.  1.
          3    1    3    3  501    0 -0.29068341435E+03 -0.85053160225E+01 -0.17693451617E+03  0.34040418738E+03  0.00000000000E+00 0.  1.
         21    1    1    2  502  501 -0.20318766460E+01  0.42422971553E+00 -0.43553597965E+00  0.21208925352E+01  0.00000000000E+00 0. -1.
<mgrwt>
<rscale>  1 0.66501142E+03</rscale>
<asrwt>0</asrwt>
<pdfrwt beam="1">  1        1 0.40561623E+00 0.66501142E+03</pdfrwt>
<pdfrwt beam="2">0</pdfrwt>
<totfact> 0.12592190E+00</totfact>
</mgrwt>
</event>
<event>
 6    1  0.1866504E-003  0.6521493E+03  0.7818608E-02  0.9802754E-01
          1   -1    0    0  502    0  0.00000000000E+00  0.00000000000E+00  0.10632508369E+03  0.10632508369E+03  0.00000000000E+00 0.  1.
         13   -1    0    0    0    0 -0.00000000000E+00 -0.00000000000E+00 -0.10000000000E+04  0.10000000000E+04  0.00000000000E+00 0.  1.
    9000005    2    1    2  501    0 -0.52342909954E-03 -0.36771343889E-03 -0.89367499879E+03  0.11063244387E+04  0.65214933891E+03 0.  0.
         13    1    3    3    0    0 -0.12015364363E+03 -0.28892631321E+03 -0.60240638185E+03  0.67882896331E+03  0.00000000000E+00 0.  1.
          3    1    3    3  501    0  0.12015312020E+03  0.28892594550E+03 -0.29126861694E+03  0.42749547540E+03  0.00000000000E+00 0.  1.
         21    1    1    2  502  501  0.52342909953E-03  0.36771343887E-03  0.82475937197E-04  0.64497556200E-03  0.00000000000E+00 0.  1.
<mgrwt>
<rscale>  1 0.65214934E+03</rscale>
<asrwt>0</asrwt>
<pdfrwt beam="1">  1        1 0.38663748E+00 0.65214934E+03</pdfrwt>
<pdfrwt beam="2">0</pdfrwt>
<totfact> 0.15331822E+00</totfact>
</mgrwt>
</event>
<event>
 6    1  0.1866504E-003  0.6509072E+03  0.7818608E-02  0.9805078E-01
          1   -1    0    0  502    0  0.00000000000E+00  0.00000000000E+00  0.10609684107E+03  0.10609684107E+03  0.00000000000E+00 0.  1.
         13   -1    0    0    0    0 -0.00000000000E+00 -0.00000000000E+00 -0.10000000000E+04  0.10000000000E+04  0.00000000000E+00 0.  1.
    9000005    2    1    2  501    0  0.60209275075E-03  0.26883399781E-02 -0.89407993345E+03  0.11059200451E+04  0.65090722744E+03 0.  0.
         13    1    3    3    0    0  0.39145207290E+02 -0.14900913707E+03 -0.93411573815E+03  0.94673559268E+03  0.00000000000E+00 0.  1.
          3    1    3    3  501    0 -0.39144605198E+02  0.14901182541E+03  0.40035804708E+02  0.15918445241E+03  0.00000000000E+00 0.  1.
         21    1    1    2  502  501 -0.60209275075E-03 -0.26883399781E-02  0.17677451571E+00  0.17679598155E+00  0.00000000000E+00 0.  1.
<mgrwt>
<rscale>  1 0.65090723E+03</rscale>
<asrwt>0</asrwt>
<pdfrwt beam="1">  1        1 0.38580751E+00 0.65090723E+03</pdfrwt>
<pdfrwt beam="2">0</pdfrwt>
<totfact> 0.15465606E+00</totfact>
</mgrwt>
</event>
<event>
 6    1  0.1866504E-003  0.6146499E+03  0.7818608E-02  0.9875470E-01
          1   -1    0    0  502    0  0.00000000000E+00  0.00000000000E+00  0.94482570896E+02  0.94482570896E+02  0.00000000000E+00 0.  1.
         13   -1    0    0    0    0 -0.00000000000E+00 -0.00000000000E+00 -0.10000000000E+04  0.10000000000E+04  0.00000000000E+00 0.  1.
    9000005    2    1    2  501    0  0.30046014755E-01  0.99502499512E-02 -0.90554313379E+03  0.10944417971E+04  0.61464988336E+03 0.  0.
         13    1    3    3    0    0  0.22826865336E+03 -0.20386141090E+03 -0.50274765689E+03  0.58857561916E+03  0.00000000000E+00 0.  1.
          3    1    3    3  501    0 -0.22823860735E+03  0.20387136115E+03 -0.40279547690E+03  0.50586617795E+03  0.00000000000E+00 0.  1.
         21    1    1    2  502  501 -0.30046014755E-01 -0.99502499512E-02  0.25704687532E-01  0.40773783708E-01  0.00000000000E+00 0.  1.
<mgrwt>
<rscale>  1 0.61464988E+03</rscale>
<asrwt>0</asrwt>
<pdfrwt beam="1">  1        1 0.34357371E+00 0.61464988E+03</pdfrwt>
<pdfrwt beam="2">0</pdfrwt>
<totfact> 0.23842286E+00</totfact>
</mgrwt>
</event>
<event>
 6    1  0.1866504E-003  0.6771431E+03  0.7818608E-02  0.9757139E-01
          1   -1    0    0  502    0  0.00000000000E+00  0.00000000000E+00  0.11487456912E+03  0.11487456912E+03  0.00000000000E+00 0.  1.
         13   -1    0    0    0    0 -0.00000000000E+00 -0.00000000000E+00 -0.10000000000E+04  0.10000000000E+04  0.00000000000E+00 0.  1.
    9000005    2    1    2  501    0  0.46270700455E-02  0.14786508247E-02 -0.88536927864E+03  0.11146306730E+04  0.67714309978E+03 0.  0.
         13    1    3    3    0    0  0.21171206563E+02 -0.13443870400E+03 -0.95299162276E+03  0.96266038568E+03  0.00000000000E+00 0.  1.
          3    1    3    3  501    0 -0.21166579493E+02  0.13444018265E+03  0.67622344120E+02  0.15197028730E+03  0.00000000000E+00 0.  1.
         21    1    1    2  502  501 -0.46270700455E-02 -0.14786508247E-02  0.24384776169E+00  0.24389613992E+00  0.00000000000E+00 0. -1.
<mgrwt>
<rscale>  1 0.67714310E+03</rscale>
<asrwt>0</asrwt>
<pdfrwt beam="1">  1        1 0.41772659E+00 0.67714310E+03</pdfrwt>
<pdfrwt beam="2">0</pdfrwt>
<totfact> 0.11084673E+00</totfact>
</mgrwt>
</event>
<event>
 6    1  0.1866504E-003  0.6461264E+03  0.7818608E-02  0.9814075E-01
          1   -1    0    0  502    0  0.00000000000E+00  0.00000000000E+00  0.10442404597E+03  0.10442404597E+03  0.00000000000E+00 0.  1.
         13   -1    0    0    0    0 -0.00000000000E+00 -0.00000000000E+00 -0.10000000000E+04  0.10000000000E+04  0.00000000000E+00 0.  1.
    9000005    2    1    2  501    0 -0.68937037459E-03 -0.62528425161E-03 -0.89563015537E+03  0.11043698366E+04  0.64612642794E+03 0.  0.
         13    1    3    3    0    0  0.26682419674E+02  0.30652457785E+03 -0.27947320243E+03  0.41566156813E+03  0.00000000000E+00 0.  1.
          3    1    3    3  501    0 -0.26683109044E+02 -0.30652520313E+03 -0.61615695293E+03  0.68870826851E+03  0.00000000000E+00 0.  1.
         21    1    1    2  502  501  0.68937037459E-03  0.62528425159E-03  0.54201340172E-01  0.54209330270E-01  0.00000000000E+00 0.  1.
<mgrwt>
<rscale>  1 0.64612643E+03</rscale>
<asrwt>0</asrwt>
<pdfrwt beam="1">  1        1 0.37972460E+00 0.64612643E+03</pdfrwt>
<pdfrwt beam="2">0</pdfrwt>
<totfact> 0.16467417E+00</totfact>
</mgrwt>
</event>
<event>
 6    1  0.1874108E-003  0.6565150E+03  0.7818608E-02  0.9794631E-01
          1   -1    0    0  502    0  0.00000000000E+00  0.00000000000E+00  0.10775300214E+03  0.10775300214E+03  0.00000000000E+00 0.  1.
         13   -1    0    0    0    0 -0.00000000000E+00 -0.00000000000E+00 -0.10000000000E+04  0.10000000000E+04  0.00000000000E+00 0.  1.
    9000005    2    1    2  501    0  0.68005174114E-05 -0.22873896540E-04 -0.89224701281E+03  0.11077529740E+04  0.65651498040E+03 0.  0.
         13    1    3    3    0    0  0.24693867245E+03 -0.21624815027E+03 -0.45172381879E+03  0.55838730189E+03  0.00000000000E+00 0.  1.
          1    1    3    3  501    0 -0.24693866565E+03  0.21624812740E+03 -0.44052319402E+03  0.54936567209E+03  0.00000000000E+00 0.  1.
         21    1    1    2  502  501 -0.68005174133E-05  0.22873896520E-04  0.14953781142E-04  0.28161636131E-04  0.00000000000E+00 0.  1.
<mgrwt>
<rscale>  1 0.65651498E+03</rscale>
<asrwt>0</asrwt>
<pdfrwt beam="1">  1        1 0.39182992E+00 0.65651498E+03</pdfrwt>
<pdfrwt beam="2">0</pdfrwt>
<totfact> 0.14528617E+00</totfact>
</mgrwt>
</event>
<event>
 6    1  0.1866504E-003  0.6426169E+03  0.7818608E-02  0.9820733E-01
          1   -1    0    0  502    0  0.00000000000E+00  0.00000000000E+00  0.10323913048E+03  0.10323913048E+03  0.00000000000E+00 0.  1.
         13   -1    0    0    0    0 -0.00000000000E+00 -0.00000000000E+00 -0.10000000000E+04  0.10000000000E+04  0.00000000000E+00 0.  1.
    9000005    2    1    2  501    0  0.51806641892E-05 -0.14491104423E-05 -0.89676087599E+03  0.11032391221E+04  0.64261690901E+03 0.  0.
         13    1    3    3    0    0  0.86764097295E+02 -0.51483584322E+02 -0.97210184533E+03  0.97732316340E+03  0.00000000000E+00 0.  1.
          1    1    3    3  501    0 -0.86764092114E+02  0.51483582873E+02  0.75340969336E+02  0.12591595866E+03  0.00000000000E+00 0.  1.
         21    1    1    2  502  501 -0.51806641767E-05  0.14491104369E-05  0.64708602083E-05  0.84149411290E-05  0.00000000000E+00 0. -1.
<mgrwt>
<rscale>  1 0.64261691E+03</rscale>
<asrwt>0</asrwt>
<pdfrwt beam="1">  1        1 0.37541581E+00 0.64261691E+03</pdfrwt>
<pdfrwt beam="2">0</pdfrwt>
<totfact> 0.17214494E+00</totfact>
</mgrwt>
</event>
<event>
 6    1  0.2270910E-003  0.6624952E+03  0.7818608E-02  0.9783611E-01
          1   -1    0    0  502    0  0.00000000000E+00  0.00000000000E+00  0.10972498898E+03  0.10972498898E+03  0.00000000000E+00 0.  1.
         13   -1    0    0    0    0 -0.00000000000E+00 -0.00000000000E+00 -0.10000000000E+04  0.10000000000E+04  0.00000000000E+00 0.  1.
    9000005    2    1    2  501    0 -0.16553673277E-05  0.19014447048E-05 -0.89027502015E+03  0.11097249795E+04  0.66249522161E+03 0.  0.
         13    1    3    3    0    0 -0.27306210721E+03 -0.18091653483E+03 -0.36254332804E+03  0.48860144461E+03  0.00000000000E+00 0.  1.
          1    1    3    3  501    0  0.27306210556E+03  0.18091653673E+03 -0.52773169210E+03  0.62112353490E+03  0.00000000000E+00 0.  1.
         21    1    1    2  502  501  0.16553673345E-05 -0.19014447038E-05  0.91244661100E-05  0.94663411499E-05  0.00000000000E+00 0. -1.
<mgrwt>
<rscale>  1 0.66249522E+03</rscale>
<asrwt>0</asrwt>
<pdfrwt beam="1">  1        1 0.39900080E+00 0.66249522E+03</pdfrwt>
<pdfrwt beam="2">0</pdfrwt>
<totfact> 0.13484821E+00</totfact>
</mgrwt>
</event>
<event>
 6    1  0.1866504E-003  0.6248755E+03  0.7818608E-02  0.9855100E-01
          1   -1    0    0  502    0  0.00000000000E+00  0.00000000000E+00  0.97617423455E+02  0.97617423455E+02  0.00000000000E+00 0.  1.
         13   -1    0    0    0    0 -0.00000000000E+00 -0.00000000000E+00 -0.10000000000E+04  0.10000000000E+04  0.00000000000E+00 0.  1.
    9000005    2    1    2  501    0  0.29724890851E-05  0.13135077097E-04 -0.90238264067E+03  0.10976173579E+04  0.62487553500E+03 0.  0.
         13    1    3    3    0    0 -0.24370413295E+03 -0.10386279045E+03 -0.16023014285E+03  0.30960116656E+03  0.00000000000E+00 0.  1.
          3    1    3    3  501    0  0.24370413593E+03  0.10386280359E+03 -0.74215249782E+03  0.78801619137E+03  0.00000000000E+00 0.  1.
         21    1    1    2  502  501 -0.29724891036E-05 -0.13135077107E-04  0.64126185716E-04  0.65525061133E-04  0.00000000000E+00 0. -1.
<mgrwt>
<rscale>  1 0.62487554E+03</rscale>
<asrwt>0</asrwt>
<pdfrwt beam="1">  1        1 0.35497320E+00 0.62487554E+03</pdfrwt>
<pdfrwt beam="2">0</pdfrwt>
<totfact> 0.21227257E+00</totfact>
</mgrwt>
</event>
<event>
 6    1  0.1866504E-003  0.6545842E+03  0.7818608E-02  0.9798215E-01
          1   -1    0    0  502    0  0.00000000000E+00  0.00000000000E+00  0.10712025616E+03  0.10712025616E+03  0.00000000000E+00 0.  1.
         13   -1    0    0    0    0 -0.00000000000E+00 -0.00000000000E+00 -0.10000000000E+04  0.10000000000E+04  0.00000000000E+00 0.  1.
    9000005    2    1    2  501    0 -0.43758634263E-05 -0.50421648154E-05 -0.89287989035E+03  0.11071201095E+04  0.65458417201E+03 0.  0.
         13    1    3    3    0    0 -0.19620216057E+03 -0.16234086321E+03 -0.98706283656E+02  0.27311677743E+03  0.00000000000E+00 0.  1.
          3    1    3    3  501    0  0.19620215619E+03  0.16234085816E+03 -0.79417360670E+03  0.83400333207E+03  0.00000000000E+00 0.  1.
         21    1    1    2  502  501  0.43758634210E-05  0.50421648239E-05  0.14651144316E-03  0.14666347392E-03  0.00000000000E+00 0. -1.
<mgrwt>
<rscale>  1 0.65458417E+03</rscale>
<asrwt>0</asrwt>
<pdfrwt beam="1">  1        1 0.38952903E+00 0.65458417E+03</pdfrwt>
<pdfrwt beam="2">0</pdfrwt>
<totfact> 0.14879473E+00</totfact>
</mgrwt>
</event>
<event>
 6    1  0.1866504E-003  0.6257476E+03  0.7818608E-02  0.9853382E-01
          1   -1    0    0  502    0  0.00000000000E+00  0.00000000000E+00  0.10380214841E+03  0.10380214841E+03  0.00000000000E+00 0.  1.
         13   -1    0    0    0    0 -0.00000000000E+00 -0.00000000000E+00 -0.10000000000E+04  0.10000000000E+04  0.00000000000E+00 0.  1.
    9000005    2    1    2  501    0  0.14112323631E+02  0.58419073878E+01 -0.88840018619E+03  0.10866531209E+04  0.62556121100E+03 0.  0.
         13    1    3    3    0    0  0.28289414906E+03  0.32681168443E+02 -0.70448936239E+03  0.75987000208E+03  0.00000000000E+00 0.  1.
          3    1    3    3  501    0 -0.26878182542E+03 -0.26839261055E+02 -0.18391082380E+03  0.32678311878E+03  0.00000000000E+00 0.  1.
         21    1    1    2  502  501 -0.14112323631E+02 -0.58419073878E+01 -0.77976654021E+01  0.17149027550E+02  0.00000000000E+00 0.  1.
<mgrwt>
<rscale>  1 0.62574764E+03</rscale>
<asrwt>0</asrwt>
<pdfrwt beam="1">  1        1 0.37746315E+00 0.62574764E+03</pdfrwt>
<pdfrwt beam="2">0</pdfrwt>
<totfact> 0.16913705E+00</totfact>
</mgrwt>
</event>
<event>
 6    1  0.1866504E-003  0.6069549E+03  0.7818608E-02  0.9891081E-01
          1   -1    0    0  502    0  0.00000000000E+00  0.00000000000E+00  0.10811458896E+03  0.10811458896E+03  0.00000000000E+00 0.  1.
         13   -1    0    0    0    0 -0.00000000000E+00 -0.00000000000E+00 -0.10000000000E+04  0.10000000000E+04  0.00000000000E+00 0.  1.
    9000005    2    1    2  501    0  0.28435034610E+00  0.50318962578E+00 -0.90789573869E+03  0.10920938322E+04  0.60695463752E+03 0.  0.
         13    1    3    3    0    0  0.18003984190E+03  0.46089775405E+02 -0.22170697949E+02  0.18716343637E+03  0.00000000000E+00 0.  1.
          3    1    3    3  501    0 -0.17975549155E+03 -0.45586585780E+02 -0.88572504074E+03  0.90493039585E+03  0.00000000000E+00 0.  1.
         21    1    1    2  502  501 -0.28435034610E+00 -0.50318962578E+00  0.16010327645E+02  0.16020756730E+02  0.00000000000E+00 0.  1.
<mgrwt>
<rscale>  1 0.60695491E+03</rscale>
<asrwt>0</asrwt>
<pdfrwt beam="1">  1        1 0.39314479E+00 0.60695491E+03</pdfrwt>
<pdfrwt beam="2">0</pdfrwt>
<totfact> 0.14472088E+00</totfact>
</mgrwt>
</event>
<event>
 6    1  0.1866504E-003  0.6458726E+03  0.7818608E-02  0.9814555E-01
          1   -1    0    0  502    0  0.00000000000E+00  0.00000000000E+00  0.10428933386E+03  0.10428933386E+03  0.00000000000E+00 0.  1.
         13   -1    0    0    0    0 -0.00000000000E+00 -0.00000000000E+00 -0.10000000000E+04  0.10000000000E+04  0.00000000000E+00 0.  1.
    9000005    2    1    2  501    0  0.42482203924E-05  0.20842613111E-04 -0.89571213825E+03  0.11042878616E+04  0.64587262416E+03 0.  0.
         13    1    3    3    0    0  0.17167899778E+03 -0.13320512631E+03 -0.39403574675E+02  0.22083913976E+03  0.00000000000E+00 0.  1.
          3    1    3    3  501    0 -0.17167899353E+03  0.13320514715E+03 -0.85630856358E+03  0.88344872183E+03  0.00000000000E+00 0.  1.
         21    1    1    2  502  501 -0.42482203974E-05 -0.20842613112E-04  0.14721145891E-02  0.14722682587E-02  0.00000000000E+00 0.  1.
<mgrwt>
<rscale>  1 0.64587262E+03</rscale>
<asrwt>0</asrwt>
<pdfrwt beam="1">  1        1 0.37923474E+00 0.64587262E+03</pdfrwt>
<pdfrwt beam="2">0</pdfrwt>
<totfact> 0.16550328E+00</totfact>
</mgrwt>
</event>
<event>
 6    1  0.1866504E-003  0.6590218E+03  0.7818608E-02  0.9789996E-01
          3   -1    0    0  502    0  0.00000000000E+00  0.00000000000E+00  0.10857747990E+03  0.10857747990E+03  0.00000000000E+00 0.  1.
         13   -1    0    0    0    0 -0.00000000000E+00 -0.00000000000E+00 -0.10000000000E+04  0.10000000000E+04  0.00000000000E+00 0.  1.
    9000005    2    1    2  501    0  0.19896462959E-04  0.74208316505E-05 -0.89142256321E+03  0.11085774318E+04  0.65902180252E+03 0.  0.
         13    1    3    3    0    0  0.13396978272E+03 -0.37714955091E+02 -0.94813022291E+03  0.95829079100E+03  0.00000000000E+00 0.  1.
          3    1    3    3  501    0 -0.13396976283E+03  0.37714962512E+02  0.56707659696E+02  0.15028664085E+03  0.00000000000E+00 0.  1.
         21    1    1    2  502  501 -0.19896462966E-04 -0.74208316497E-05  0.43110019569E-04  0.48056339521E-04  0.00000000000E+00 0. -1.
<mgrwt>
<rscale>  1 0.65902180E+03</rscale>
<asrwt>0</asrwt>
<pdfrwt beam="1">  1        3 0.39482803E+00 0.65902180E+03</pdfrwt>
<pdfrwt beam="2">0</pdfrwt>
<totfact> 0.62960969E-02</totfact>
</mgrwt>
</event>
<event>
 6    1  0.1866504E-003  0.6547818E+03  0.7818608E-02  0.9797848E-01
          1   -1    0    0  502    0  0.00000000000E+00  0.00000000000E+00  0.10718655552E+03  0.10718655552E+03  0.00000000000E+00 0.  1.
         13   -1    0    0    0    0 -0.00000000000E+00 -0.00000000000E+00 -0.10000000000E+04  0.10000000000E+04  0.00000000000E+00 0.  1.
    9000005    2    1    2  501    0  0.25972019820E-02 -0.20100187029E-02 -0.89281328921E+03  0.11071832677E+04  0.65478181014E+03 0.  0.
         13    1    3    3    0    0 -0.18897995915E+03  0.25531132966E+03 -0.31233585575E+03  0.44547837973E+03  0.00000000000E+00 0.  1.
          3    1    3    3  501    0  0.18898255636E+03 -0.25531333968E+03 -0.58047743345E+03  0.66170488798E+03  0.00000000000E+00 0.  1.
         21    1    1    2  502  501 -0.25972019820E-02  0.20100187029E-02 -0.15527368461E-03  0.32878173973E-02  0.00000000000E+00 0.  1.
<mgrwt>
<rscale>  1 0.65478181E+03</rscale>
<asrwt>0</asrwt>
<pdfrwt beam="1">  1        1 0.38977011E+00 0.65478181E+03</pdfrwt>
<pdfrwt beam="2">0</pdfrwt>
<totfact> 0.14842350E+00</totfact>
</mgrwt>
</event>
<event>
 6    1  0.1866504E-003  0.6597088E+03  0.7818608E-02  0.9788730E-01
          1   -1    0    0  502    0  0.00000000000E+00  0.00000000000E+00  0.10880395741E+03  0.10880395741E+03  0.00000000000E+00 0.  1.
         13   -1    0    0    0    0 -0.00000000000E+00 -0.00000000000E+00 -0.10000000000E+04  0.10000000000E+04  0.00000000000E+00 0.  1.
    9000005    2    1    2  501    0  0.13557829249E-04  0.58281599138E-05 -0.89119605882E+03  0.11088039355E+04  0.65970883886E+03 0.  0.
         13    1    3    3    0    0 -0.42069014662E+02  0.25148158120E+03 -0.93879187182E+02  0.27170956822E+03  0.00000000000E+00 0.  1.
          3    1    3    3  501    0  0.42069028220E+02 -0.25148157537E+03 -0.79731687164E+03  0.83709436725E+03  0.00000000000E+00 0.  1.
         21    1    1    2  502  501 -0.13557829246E-04 -0.58281599087E-05  0.16232114689E-04  0.21937723881E-04  0.00000000000E+00 0.  1.
<mgrwt>
<rscale>  1 0.65970884E+03</rscale>
<asrwt>0</asrwt>
<pdfrwt beam="1">  1        1 0.39565159E+00 0.65970884E+03</pdfrwt>
<pdfrwt beam="2">0</pdfrwt>
<totfact> 0.13963159E+00</totfact>
</mgrwt>
</event>
<event>
 6    1  0.1866504E-003  0.6443171E+03  0.7818608E-02  0.9817502E-01
          1   -1    0    0  502    0  0.00000000000E+00  0.00000000000E+00  0.10378659863E+03  0.10378659863E+03  0.00000000000E+00 0.  1.
         13   -1    0    0    0    0 -0.00000000000E+00 -0.00000000000E+00 -0.10000000000E+04  0.10000000000E+04  0.00000000000E+00 0.  1.
    9000005    2    1    2  501    0  0.65500218204E-03 -0.50909474012E-03 -0.89621344807E+03  0.11037857677E+04  0.64431706212E+03 0.  0.
         13    1    3    3    0    0  0.28509833170E+03  0.14782957202E+03 -0.49183623208E+03  0.58739894474E+03  0.00000000000E+00 0.  1.
          1    1    3    3  501    0 -0.28509767670E+03 -0.14783008111E+03 -0.40437721600E+03  0.51638682299E+03  0.00000000000E+00 0.  1.
         21    1    1    2  502  501 -0.65500218206E-03  0.50909474012E-03  0.46701052088E-04  0.83089487974E-03  0.00000000000E+00 0. -1.
<mgrwt>
<rscale>  1 0.64431706E+03</rscale>
<asrwt>0</asrwt>
<pdfrwt beam="1">  1        1 0.37740661E+00 0.64431706E+03</pdfrwt>
<pdfrwt beam="2">0</pdfrwt>
<totfact> 0.16865150E+00</totfact>
</mgrwt>
</event>
<event>
 6    1  0.1866504E-003  0.6445216E+03  0.7818608E-02  0.9817114E-01
          1   -1    0    0  502    0  0.00000000000E+00  0.00000000000E+00  0.10385288889E+03  0.10385288889E+03  0.00000000000E+00 0.  1.
         13   -1    0    0    0    0 -0.00000000000E+00 -0.00000000000E+00 -0.10000000000E+04  0.10000000000E+04  0.00000000000E+00 0.  1.
    9000005    2    1    2  501    0  0.67032627790E-04  0.82286914903E-04 -0.89614796926E+03  0.11038520242E+04  0.64452161214E+03 0.  0.
         13    1    3    3    0    0  0.59359768631E+02 -0.26714629515E+03 -0.73953617331E+03  0.78854579879E+03  0.00000000000E+00 0.  1.
          1    1    3    3  501    0 -0.59359701598E+02  0.26714637744E+03 -0.15661179595E+03  0.31530622541E+03  0.00000000000E+00 0.  1.
         21    1    1    2  502  501 -0.67032627789E-04 -0.82286914870E-04  0.85815486579E-03  0.86469317288E-03  0.00000000000E+00 0.  1.
<mgrwt>
<rscale>  1 0.64452161E+03</rscale>
<asrwt>0</asrwt>
<pdfrwt beam="1">  1        1 0.37764767E+00 0.64452161E+03</pdfrwt>
<pdfrwt beam="2">0</pdfrwt>
<totfact> 0.16823315E+00</totfact>
</mgrwt>
</event>
<event>
 6    1  0.1866504E-003  0.6328721E+03  0.7818608E-02  0.9839460E-01
          1   -1    0    0  502    0  0.00000000000E+00  0.00000000000E+00  0.10014303821E+03  0.10014303821E+03  0.00000000000E+00 0.  1.
         13   -1    0    0    0    0 -0.00000000000E+00 -0.00000000000E+00 -0.10000000000E+04  0.10000000000E+04  0.00000000000E+00 0.  1.
    9000005    2    1    2  501    0  0.24114759356E-03  0.11977305068E-03 -0.89986821618E+03  0.11001317806E+04  0.63287212625E+03 0.  0.
         13    1    3    3    0    0  0.76668984031E+02 -0.12484576745E+03  0.37623059335E+02  0.15126167180E+03  0.00000000000E+00 0.  1.
          3    1    3    3  501    0 -0.76668742884E+02  0.12484588722E+03 -0.93749127552E+03  0.94887010879E+03  0.00000000000E+00 0.  1.
         21    1    1    2  502  501 -0.24114759355E-03 -0.11977305068E-03  0.11254395766E-01  0.11257616169E-01  0.00000000000E+00 0. -1.
<mgrwt>
<rscale>  1 0.63287213E+03</rscale>
<asrwt>0</asrwt>
<pdfrwt beam="1">  1        1 0.36415727E+00 0.63287213E+03</pdfrwt>
<pdfrwt beam="2">0</pdfrwt>
<totfact> 0.19324455E+00</totfact>
</mgrwt>
</event>
<event>
 6    1  0.1866504E-003  0.5316192E+03  0.7818608E-02  0.1005840E+00
          1   -1    0    0  502    0  0.00000000000E+00  0.00000000000E+00  0.70656167748E+02  0.70656167748E+02  0.00000000000E+00 0.  1.
         13   -1    0    0    0    0 -0.00000000000E+00 -0.00000000000E+00 -0.10000000000E+04  0.10000000000E+04  0.00000000000E+00 0.  1.
    9000005    2    1    2  501    0  0.78396004650E-03  0.53588449464E-03 -0.92934509890E+03  0.10706545847E+04  0.53161915579E+03 0.  0.
         13    1    3    3    0    0 -0.17052288591E+03 -0.17256912013E+03 -0.68340897069E+03  0.72519375139E+03  0.00000000000E+00 0.  1.
          3    1    3    3  501    0  0.17052366987E+03  0.17256965602E+03 -0.24593612821E+03  0.34546083327E+03  0.00000000000E+00 0.  1.
         21    1    1    2  502  501 -0.78396004649E-03 -0.53588449465E-03  0.12666493087E-02  0.15830874951E-02  0.00000000000E+00 0. -1.
<mgrwt>
<rscale>  1 0.53161916E+03</rscale>
<asrwt>0</asrwt>
<pdfrwt beam="1">  1        1 0.25693206E+00 0.53161916E+03</pdfrwt>
<pdfrwt beam="2">0</pdfrwt>
<totfact> 0.57315031E+00</totfact>
</mgrwt>
</event>
<event>
 6    1  0.1866504E-003  0.6549455E+03  0.7818608E-02  0.9797543E-01
          1   -1    0    0  502    0  0.00000000000E+00  0.00000000000E+00  0.10738300254E+03  0.10738300254E+03  0.00000000000E+00 0.  1.
         13   -1    0    0    0    0 -0.00000000000E+00 -0.00000000000E+00 -0.10000000000E+04  0.10000000000E+04  0.00000000000E+00 0.  1.
    9000005    2    1    2  501    0  0.21712606981E+00  0.71183862740E-02 -0.89266499431E+03  0.11071605209E+04  0.65494547840E+03 0.  0.
         13    1    3    3    0    0 -0.98314931314E+02  0.14319678323E+02  0.81142038665E+02  0.12827669058E+03  0.00000000000E+00 0.  1.
          1    1    3    3  501    0  0.98532057383E+02 -0.14312559937E+02 -0.97380703298E+03  0.97888383028E+03  0.00000000000E+00 0.  1.
         21    1    1    2  502  501 -0.21712606981E+00 -0.71183862740E-02  0.47996850777E-01  0.22248168306E+00  0.00000000000E+00 0. -1.
<mgrwt>
<rscale>  1 0.65494551E+03</rscale>
<asrwt>0</asrwt>
<pdfrwt beam="1">  1        1 0.39048447E+00 0.65494551E+03</pdfrwt>
<pdfrwt beam="2">0</pdfrwt>
<totfact> 0.14734020E+00</totfact>
</mgrwt>
</event>
<event>
 6    1  0.1866504E-003  0.6240862E+03  0.7818608E-02  0.9856658E-01
          1   -1    0    0  502    0  0.00000000000E+00  0.00000000000E+00  0.97375012104E+02  0.97375012104E+02  0.00000000000E+00 0.  1.
         13   -1    0    0    0    0 -0.00000000000E+00 -0.00000000000E+00 -0.10000000000E+04  0.10000000000E+04  0.00000000000E+00 0.  1.
    9000005    2    1    2  501    0  0.50214858220E-04  0.10826478658E-03 -0.90262909579E+03  0.10973709025E+04  0.62408622245E+03 0.  0.
         13    1    3    3    0    0  0.13274246177E+03  0.17535980037E+03 -0.62086836076E+02  0.22853095186E+03  0.00000000000E+00 0.  1.
          1    1    3    3  501    0 -0.13274241155E+03 -0.17535969211E+03 -0.84054225971E+03  0.86883995062E+03  0.00000000000E+00 0.  1.
         21    1    1    2  502  501 -0.50214858220E-04 -0.10826478658E-03  0.41078908993E-02  0.41096241235E-02  0.00000000000E+00 0.  1.
<mgrwt>
<rscale>  1 0.62408622E+03</rscale>
<asrwt>0</asrwt>
<pdfrwt beam="1">  1        1 0.35409170E+00 0.62408622E+03</pdfrwt>
<pdfrwt beam="2">0</pdfrwt>
<totfact> 0.21419172E+00</totfact>
</mgrwt>
</event>
<event>
 6    1  0.1866504E-003  0.6544557E+03  0.7818608E-02  0.9798454E-01
          1   -1    0    0  502    0  0.00000000000E+00  0.00000000000E+00  0.11139165189E+03  0.11139165189E+03  0.00000000000E+00 0.  1.
         13   -1    0    0    0    0 -0.00000000000E+00 -0.00000000000E+00 -0.10000000000E+04  0.10000000000E+04  0.00000000000E+00 0.  1.
    9000005    2    1    2  501    0 -0.11861851455E+02  0.37634126804E+01 -0.87773711859E+03  0.10948674144E+04  0.65433732805E+03 0.  0.
         13    1    3    3    0    0  0.17662903575E+03  0.17331931113E+02  0.18946915533E+02  0.17848584737E+03  0.00000000000E+00 0.  1.
          3    1    3    3  501    0 -0.18849088720E+03 -0.13568518433E+02 -0.89668403413E+03  0.91638156698E+03  0.00000000000E+00 0.  1.
         21    1    1    2  502  501  0.11861851455E+02 -0.37634126804E+01 -0.10871229513E+02  0.16524237533E+02  0.00000000000E+00 0. -1.
<mgrwt>
<rscale>  1 0.65445566E+03</rscale>
<asrwt>0</asrwt>
<pdfrwt beam="1">  1        1 0.40506141E+00 0.65445566E+03</pdfrwt>
<pdfrwt beam="2">0</pdfrwt>
<totfact> 0.12689736E+00</totfact>
</mgrwt>
</event>
<event>
 6    1  0.1866504E-003  0.6724216E+03  0.7818608E-02  0.9765593E-01
          1   -1    0    0  502    0  0.00000000000E+00  0.00000000000E+00  0.14122267156E+03  0.14122267156E+03  0.00000000000E+00 0.  1.
         13   -1    0    0    0    0 -0.00000000000E+00 -0.00000000000E+00 -0.10000000000E+04  0.10000000000E+04  0.00000000000E+00 0.  1.
    9000005    2    1    2  501    0 -0.55026666698E+02  0.38831058972E+02 -0.82943289552E+03  0.10677592049E+04  0.66904036225E+03 0.  0.
         13    1    3    3    0    0  0.46216962500E+02  0.67304628836E+02  0.10186223139E+03  0.13054437893E+03  0.00000000000E+00 0.  1.
          1    1    3    3  501    0 -0.10124362920E+03 -0.28473569864E+02 -0.93129512691E+03  0.93721482598E+03  0.00000000000E+00 0.  1.
         21    1    1    2  502  501  0.55026666698E+02 -0.38831058972E+02 -0.29344432920E+02  0.73463466649E+02  0.00000000000E+00 0. -1.
<mgrwt>
<rscale>  1 0.67242159E+03</rscale>
<asrwt>0</asrwt>
<pdfrwt beam="1">  1        1 0.51353807E+00 0.67242159E+03</pdfrwt>
<pdfrwt beam="2">0</pdfrwt>
<totfact> 0.39555773E-01</totfact>
</mgrwt>
</event>
<event>
 6    1  0.1866504E-003  0.6474744E+03  0.7818608E-02  0.9811530E-01
          1   -1    0    0  502    0  0.00000000000E+00  0.00000000000E+00  0.10548092281E+03  0.10548092281E+03  0.00000000000E+00 0.  1.
         13   -1    0    0    0    0 -0.00000000000E+00 -0.00000000000E+00 -0.10000000000E+04  0.10000000000E+04  0.00000000000E+00 0.  1.
    9000005    2    1    2  501    0  0.38230208866E-01  0.29147283608E-01 -0.89519328341E+03  0.11048050048E+04  0.64747438690E+03 0.  0.
         13    1    3    3    0    0 -0.67347787207E+02 -0.30832575465E+03 -0.32460114522E+03  0.45273214918E+03  0.00000000000E+00 0.  1.
          1    1    3    3  501    0  0.67386017416E+02  0.30835490194E+03 -0.57059213819E+03  0.65207285564E+03  0.00000000000E+00 0.  1.
         21    1    1    2  502  501 -0.38230208866E-01 -0.29147283608E-01  0.67420621452E+00  0.67591799259E+00  0.00000000000E+00 0. -1.
<mgrwt>
<rscale>  1 0.64747439E+03</rscale>
<asrwt>0</asrwt>
<pdfrwt beam="1">  1        1 0.38356780E+00 0.64747439E+03</pdfrwt>
<pdfrwt beam="2">0</pdfrwt>
<totfact> 0.15832421E+00</totfact>
</mgrwt>
</event>
<event>
 6    1  0.1866504E-003  0.6624495E+03  0.7818608E-02  0.9783695E-01
          1   -1    0    0  502    0  0.00000000000E+00  0.00000000000E+00  0.10971064736E+03  0.10971064736E+03  0.00000000000E+00 0.  1.
         13   -1    0    0    0    0 -0.00000000000E+00 -0.00000000000E+00 -0.10000000000E+04  0.10000000000E+04  0.00000000000E+00 0.  1.
    9000005    2    1    2  501    0 -0.12441956834E-02  0.47161742742E-03 -0.89028953890E+03  0.11097093038E+04  0.66244945156E+03 0.  0.
         13    1    3    3    0    0 -0.17521752870E+03  0.26604795652E+03 -0.59709154673E+03  0.67675772083E+03  0.00000000000E+00 0.  1.
          1    1    3    3  501    0  0.17521628451E+03 -0.26604748491E+03 -0.29319799218E+03  0.43295158297E+03  0.00000000000E+00 0.  1.
         21    1    1    2  502  501  0.12441956834E-02 -0.47161742742E-03  0.18626635808E-03  0.13435553775E-02  0.00000000000E+00 0. -1.
<mgrwt>
<rscale>  1 0.66244945E+03</rscale>
<asrwt>0</asrwt>
<pdfrwt beam="1">  1        1 0.39894865E+00 0.66244945E+03</pdfrwt>
<pdfrwt beam="2">0</pdfrwt>
<totfact> 0.13492155E+00</totfact>
</mgrwt>
</event>
<event>
 6    1  0.1866504E-003  0.6459004E+03  0.7818608E-02  0.9814502E-01
          1   -1    0    0  502    0  0.00000000000E+00  0.00000000000E+00  0.10465906316E+03  0.10465906316E+03  0.00000000000E+00 0.  1.
         13   -1    0    0    0    0 -0.00000000000E+00 -0.00000000000E+00 -0.10000000000E+04  0.10000000000E+04  0.00000000000E+00 0.  1.
    9000005    2    1    2  501    0  0.13190807164E+00  0.86637078198E-01 -0.89568409575E+03  0.11042813546E+04  0.64590036834E+03 0.  0.
         13    1    3    3    0    0 -0.47142237928E+02 -0.20358875042E+03 -0.86867086405E+03  0.89345388238E+03  0.00000000000E+00 0.  1.
          3    1    3    3  501    0  0.47274146000E+02  0.20367538750E+03 -0.27013231705E+02  0.21082747222E+03  0.00000000000E+00 0.  1.
         21    1    1    2  502  501 -0.13190807164E+00 -0.86637078198E-01  0.34315891402E+00  0.37770856881E+00  0.00000000000E+00 0. -1.
<mgrwt>
<rscale>  1 0.64590039E+03</rscale>
<asrwt>0</asrwt>
<pdfrwt beam="1">  1        1 0.38057921E+00 0.64590039E+03</pdfrwt>
<pdfrwt beam="2">0</pdfrwt>
<totfact> 0.16325729E+00</totfact>
</mgrwt>
</event>
<event>
 6    1  0.1866504E-003  0.6571658E+03  0.7818608E-02  0.9793425E-01
          1   -1    0    0  502    0  0.00000000000E+00  0.00000000000E+00  0.10802417336E+03  0.10802417336E+03  0.00000000000E+00 0.  1.
         13   -1    0    0    0    0 -0.00000000000E+00 -0.00000000000E+00 -0.10000000000E+04  0.10000000000E+04  0.00000000000E+00 0.  1.
    9000005    2    1    2  501    0  0.52117025611E-03  0.60655931438E-03 -0.89203328162E+03  0.11079667128E+04  0.65716577907E+03 0.  0.
         13    1    3    3    0    0  0.77906171660E+02 -0.13503498772E+03 -0.93367765315E+03  0.94660328517E+03  0.00000000000E+00 0.  1.
          1    1    3    3  501    0 -0.77905650490E+02  0.13503559428E+03  0.41644371529E+02  0.16136342765E+03  0.00000000000E+00 0.  1.
         21    1    1    2  502  501 -0.52117025609E-03 -0.60655931438E-03  0.57454986306E-01  0.57460551547E-01  0.00000000000E+00 0.  1.
<mgrwt>
<rscale>  1 0.65716578E+03</rscale>
<asrwt>0</asrwt>
<pdfrwt beam="1">  1        1 0.39281600E+00 0.65716578E+03</pdfrwt>
<pdfrwt beam="2">0</pdfrwt>
<totfact> 0.14381138E+00</totfact>
</mgrwt>
</event>
<event>
 6    1  0.1866504E-003  0.6163840E+03  0.7818608E-02  0.9871986E-01
          1   -1    0    0  502    0  0.00000000000E+00  0.00000000000E+00  0.94984310324E+02  0.94984310324E+02  0.00000000000E+00 0.  1.
         13   -1    0    0    0    0 -0.00000000000E+00 -0.00000000000E+00 -0.10000000000E+04  0.10000000000E+04  0.00000000000E+00 0.  1.
    9000005    2    1    2  501    0 -0.34230752908E-02 -0.19315069573E-02 -0.90501535386E+03  0.10949803656E+04  0.61638397959E+03 0.  0.
         13    1    3    3    0    0  0.11563746268E+03 -0.12319976293E+03  0.53640369276E+01  0.16905317877E+03  0.00000000000E+00 0.  1.
          3    1    3    3  501    0 -0.11564088575E+03  0.12319783142E+03 -0.91037939078E+03  0.92592718682E+03  0.00000000000E+00 0.  1.
         21    1    1    2  502  501  0.34230752908E-02  0.19315069573E-02 -0.33582017165E-03  0.39447355755E-02  0.00000000000E+00 0.  1.
<mgrwt>
<rscale>  1 0.61638398E+03</rscale>
<asrwt>0</asrwt>
<pdfrwt beam="1">  1        1 0.34539822E+00 0.61638398E+03</pdfrwt>
<pdfrwt beam="2">0</pdfrwt>
<totfact> 0.23403375E+00</totfact>
</mgrwt>
</event>
<event>
 6    1  0.1866504E-003  0.6273182E+03  0.7818608E-02  0.9850296E-01
          1   -1    0    0  502    0  0.00000000000E+00  0.00000000000E+00  0.98395292545E+02  0.98395292545E+02  0.00000000000E+00 0.  1.
         13   -1    0    0    0    0 -0.00000000000E+00 -0.00000000000E+00 -0.10000000000E+04  0.10000000000E+04  0.00000000000E+00 0.  1.
    9000005    2    1    2  501    0 -0.79901685979E-04 -0.53520853552E-03 -0.90161796976E+03  0.10983820192E+04  0.62731817823E+03 0.  0.
         13    1    3    3    0    0 -0.22909922099E+03  0.15628814725E+03 -0.70736161097E+03  0.75978476340E+03  0.00000000000E+00 0.  1.
          3    1    3    3  501    0  0.22909914109E+03 -0.15628868246E+03 -0.19425635879E+03  0.33859725581E+03  0.00000000000E+00 0.  1.
         21    1    1    2  502  501  0.79901685958E-04  0.53520853553E-03  0.13262300043E-01  0.13273335485E-01  0.00000000000E+00 0.  1.
<mgrwt>
<rscale>  1 0.62731818E+03</rscale>
<asrwt>0</asrwt>
<pdfrwt beam="1">  1        1 0.35780182E+00 0.62731818E+03</pdfrwt>
<pdfrwt beam="2">0</pdfrwt>
<totfact> 0.20622875E+00</totfact>
</mgrwt>
</event>
<event>
 6    1  0.1866504E-003  0.6522582E+03  0.7818608E-02  0.9802551E-01
          1   -1    0    0  502    0  0.00000000000E+00  0.00000000000E+00  0.10636104244E+03  0.10636104244E+03  0.00000000000E+00 0.  1.
         13   -1    0    0    0    0 -0.00000000000E+00 -0.00000000000E+00 -0.10000000000E+04  0.10000000000E+04  0.00000000000E+00 0.  1.
    9000005    2    1    2  501    0  0.10515923000E-02 -0.16533793827E-02 -0.89363832786E+03  0.11063589843E+04  0.65225818589E+03 0.  0.
         13    1    3    3    0    0  0.16050366984E+03 -0.18132315498E+03 -0.76282850095E+02  0.25388695867E+03  0.00000000000E+00 0.  1.
          3    1    3    3  501    0 -0.16050261825E+03  0.18132150160E+03 -0.81735547776E+03  0.85247202560E+03  0.00000000000E+00 0.  1.
         21    1    1    2  502  501 -0.10515923000E-02  0.16533793827E-02 -0.62970460930E-03  0.20581636581E-02  0.00000000000E+00 0. -1.
<mgrwt>
<rscale>  1 0.65225819E+03</rscale>
<asrwt>0</asrwt>
<pdfrwt beam="1">  1        1 0.38676824E+00 0.65225819E+03</pdfrwt>
<pdfrwt beam="2">0</pdfrwt>
<totfact> 0.15311091E+00</totfact>
</mgrwt>
</event>
<event>
 6    1  0.1866504E-003  0.6146795E+03  0.7818608E-02  0.9875410E-01
          1   -1    0    0  502    0  0.00000000000E+00  0.00000000000E+00  0.94466450456E+02  0.94466450456E+02  0.00000000000E+00 0.  1.
         13   -1    0    0    0    0 -0.00000000000E+00 -0.00000000000E+00 -0.10000000000E+04  0.10000000000E+04  0.00000000000E+00 0.  1.
    9000005    2    1    2  501    0  0.89734182870E-03  0.10776951890E-02 -0.90554220964E+03  0.10944576775E+04  0.61467952177E+03 0.  0.
         13    1    3    3    0    0  0.16704148074E+03 -0.13297486903E+03 -0.84639622203E+03  0.87290992476E+03  0.00000000000E+00 0.  1.
          1    1    3    3  501    0 -0.16704058340E+03  0.13297594673E+03 -0.59145987612E+02  0.22154775278E+03  0.00000000000E+00 0.  1.
         21    1    1    2  502  501 -0.89734182869E-03 -0.10776951890E-02  0.86601004950E-02  0.87729122793E-02  0.00000000000E+00 0. -1.
<mgrwt>
<rscale>  1 0.61467952E+03</rscale>
<asrwt>0</asrwt>
<pdfrwt beam="1">  1        1 0.34351509E+00 0.61467952E+03</pdfrwt>
<pdfrwt beam="2">0</pdfrwt>
<totfact> 0.23856157E+00</totfact>
</mgrwt>
</event>
<event>
 6    1  0.1866504E-003  0.6527166E+03  0.7818608E-02  0.9801695E-01
          1   -1    0    0  502    0  0.00000000000E+00  0.00000000000E+00  0.10652557128E+03  0.10652557128E+03  0.00000000000E+00 0.  1.
         13   -1    0    0    0    0 -0.00000000000E+00 -0.00000000000E+00 -0.10000000000E+04  0.10000000000E+04  0.00000000000E+00 0.  1.
    9000005    2    1    2  501    0 -0.16585694295E-03  0.14686747784E-03 -0.89349026712E+03  0.11065097313E+04  0.65271657562E+03 0.  0.
         13    1    3    3    0    0 -0.23977559718E+02  0.30055127650E+03 -0.65850605066E+03  0.72424872243E+03  0.00000000000E+00 0.  1.
          1    1    3    3  501    0  0.23977393861E+02 -0.30055112964E+03 -0.23498421646E+03  0.38226100890E+03  0.00000000000E+00 0.  1.
         21    1    1    2  502  501  0.16585694294E-03 -0.14686747784E-03  0.15838398686E-01  0.15839947965E-01  0.00000000000E+00 0.  1.
<mgrwt>
<rscale>  1 0.65271658E+03</rscale>
<asrwt>0</asrwt>
<pdfrwt beam="1">  1        1 0.38736653E+00 0.65271658E+03</pdfrwt>
<pdfrwt beam="2">0</pdfrwt>
<totfact> 0.15216687E+00</totfact>
</mgrwt>
</event>
<event>
 6    1  0.1866504E-003  0.6406020E+03  0.7818608E-02  0.9824575E-01
          1   -1    0    0  502    0  0.00000000000E+00  0.00000000000E+00  0.10265712042E+03  0.10265712042E+03  0.00000000000E+00 0.  1.
         13   -1    0    0    0    0 -0.00000000000E+00 -0.00000000000E+00 -0.10000000000E+04  0.10000000000E+04  0.00000000000E+00 0.  1.
    9000005    2    1    2  501    0 -0.18617606571E+00  0.51986011567E-01 -0.89715610593E+03  0.11023883297E+04  0.64060199313E+03 0.  0.
         13    1    3    3    0    0  0.25039575212E+03 -0.16695442132E+03 -0.63669796890E+03  0.70424151758E+03  0.00000000000E+00 0.  1.
          3    1    3    3  501    0 -0.25058192819E+03  0.16700640733E+03 -0.26045813702E+03  0.39814681208E+03  0.00000000000E+00 0.  1.
         21    1    1    2  502  501  0.18617606571E+00 -0.51986011567E-01 -0.18677365755E+00  0.26879075876E+00  0.00000000000E+00 0. -1.
<mgrwt>
<rscale>  1 0.64060202E+03</rscale>
<asrwt>0</asrwt>
<pdfrwt beam="1">  1        1 0.37329941E+00 0.64060202E+03</pdfrwt>
<pdfrwt beam="2">0</pdfrwt>
<totfact> 0.17594120E+00</totfact>
</mgrwt>
</event>
<event>
 6    1  0.1866504E-003  0.6491144E+03  0.7818608E-02  0.9808442E-01
          1   -1    0    0  502    0  0.00000000000E+00  0.00000000000E+00  0.10533741599E+03  0.10533741599E+03  0.00000000000E+00 0.  1.
         13   -1    0    0    0    0 -0.00000000000E+00 -0.00000000000E+00 -0.10000000000E+04  0.10000000000E+04  0.00000000000E+00 0.  1.
    9000005    2    1    2  501    0  0.66211066496E-06  0.40525514748E-05 -0.89466262247E+03  0.11053373773E+04  0.64911440411E+03 0.  0.
         13    1    3    3    0    0  0.28319164820E+03 -0.14069900307E+03 -0.57180940592E+03  0.65342154524E+03  0.00000000000E+00 0.  1.
          1    1    3    3  501    0 -0.28319164754E+03  0.14069900712E+03 -0.32285321655E+03  0.45191583207E+03  0.00000000000E+00 0.  1.
         21    1    1    2  502  501 -0.66211070690E-06 -0.40525514664E-05  0.38466846968E-04  0.38685396207E-04  0.00000000000E+00 0.  1.
<mgrwt>
<rscale>  1 0.64911440E+03</rscale>
<asrwt>0</asrwt>
<pdfrwt beam="1">  1        1 0.38304596E+00 0.64911440E+03</pdfrwt>
<pdfrwt beam="2">0</pdfrwt>
<totfact> 0.15911902E+00</totfact>
</mgrwt>
</event>
<event>
 6    1  0.5224959E-003  0.7084650E+03  0.7818608E-02  0.9702864E-01
          1   -1    0    0  502    0  0.00000000000E+00  0.00000000000E+00  0.12548068941E+03  0.12548068941E+03  0.00000000000E+00 0.  1.
         13   -1    0    0    0    0 -0.00000000000E+00 -0.00000000000E+00 -0.10000000000E+04  0.10000000000E+04  0.00000000000E+00 0.  1.
    9000005    2    1    2  501    0 -0.96733497230E-05  0.18106427078E-04 -0.87451933918E+03  0.11254806542E+04  0.70846498036E+03 0.  0.
         13    1    3    3    0    0 -0.27807979533E+03  0.84894057892E+02 -0.11580362243E+03  0.31296302115E+03  0.00000000000E+00 0.  1.
          3    1    3    3  501    0  0.27807978566E+03 -0.84894039785E+02 -0.75871571676E+03  0.81251763306E+03  0.00000000000E+00 0.  1.
         21    1    1    2  502  501  0.96733497292E-05 -0.18106427082E-04  0.28589755833E-04  0.35196456289E-04  0.00000000000E+00 0. -1.
<mgrwt>
<rscale>  1 0.70846498E+03</rscale>
<asrwt>0</asrwt>
<pdfrwt beam="1">  1        1 0.45629438E+00 0.70846498E+03</pdfrwt>
<pdfrwt beam="2">0</pdfrwt>
<totfact> 0.73428930E-01</totfact>
</mgrwt>
</event>
<event>
 6    1  0.1866504E-003  0.6464707E+03  0.7818608E-02  0.9813424E-01
          1   -1    0    0  502    0  0.00000000000E+00  0.00000000000E+00  0.10448131743E+03  0.10448131743E+03  0.00000000000E+00 0.  1.
         13   -1    0    0    0    0 -0.00000000000E+00 -0.00000000000E+00 -0.10000000000E+04  0.10000000000E+04  0.00000000000E+00 0.  1.
    9000005    2    1    2  501    0  0.11876240109E-04  0.27841063876E-04 -0.89551890448E+03  0.11044810935E+04  0.64647070896E+03 0.  0.
         13    1    3    3    0    0  0.12880205616E+03 -0.47740674804E+01  0.58677781998E+02  0.14161865517E+03  0.00000000000E+00 0.  1.
          1    1    3    3  501    0 -0.12880204428E+03  0.47740953215E+01 -0.95419668648E+03  0.96286243830E+03  0.00000000000E+00 0.  1.
         21    1    1    2  502  501 -0.11876240088E-04 -0.27841063876E-04  0.22190919452E-03  0.22396397149E-03  0.00000000000E+00 0. -1.
<mgrwt>
<rscale>  1 0.64647071E+03</rscale>
<asrwt>0</asrwt>
<pdfrwt beam="1">  1        1 0.37993286E+00 0.64647071E+03</pdfrwt>
<pdfrwt beam="2">0</pdfrwt>
<totfact> 0.16431575E+00</totfact>
</mgrwt>
</event>
<event>
 6    1  0.1866504E-003  0.6177787E+03  0.7818608E-02  0.9869192E-01
          1   -1    0    0  502    0  0.00000000000E+00  0.00000000000E+00  0.95412996910E+02  0.95412996910E+02  0.00000000000E+00 0.  1.
         13   -1    0    0    0    0 -0.00000000000E+00 -0.00000000000E+00 -0.10000000000E+04  0.10000000000E+04  0.00000000000E+00 0.  1.
    9000005    2    1    2  501    0 -0.11342176371E-02 -0.27365820617E-03 -0.90458585142E+03  0.10954113575E+04  0.61777866549E+03 0.  0.
         13    1    3    3    0    0  0.85108141687E+01  0.18043030177E+03 -0.79967921838E+01  0.18080784397E+03  0.00000000000E+00 0.  1.
          3    1    3    3  501    0 -0.85119483863E+01 -0.18043057543E+03 -0.89658905924E+03  0.91460351353E+03  0.00000000000E+00 0.  1.
         21    1    1    2  502  501  0.11342176371E-02  0.27365820615E-03 -0.11516680119E-02  0.16394138195E-02  0.00000000000E+00 0. -1.
<mgrwt>
<rscale>  1 0.61777867E+03</rscale>
<asrwt>0</asrwt>
<pdfrwt beam="1">  1        1 0.34695708E+00 0.61777867E+03</pdfrwt>
<pdfrwt beam="2">0</pdfrwt>
<totfact> 0.23034925E+00</totfact>
</mgrwt>
</event>
<event>
 6    1  0.1866504E-003  0.6533009E+03  0.7818608E-02  0.9800605E-01
          1   -1    0    0  502    0  0.00000000000E+00  0.00000000000E+00  0.10728660049E+03  0.10728660049E+03  0.00000000000E+00 0.  1.
         13   -1    0    0    0    0 -0.00000000000E+00 -0.00000000000E+00 -0.10000000000E+04  0.10000000000E+04  0.00000000000E+00 0.  1.
    9000005    2    1    2  501    0 -0.52442485045E-02 -0.10073816297E-01 -0.89329943067E+03  0.11067004593E+04  0.65330087529E+03 0.  0.
         13    1    3    3    0    0 -0.83063243592E+02  0.29857616252E+03 -0.62147036669E+03  0.69445852571E+03  0.00000000000E+00 0.  1.
          3    1    3    3  501    0  0.83057999343E+02 -0.29858623633E+03 -0.27182906397E+03  0.41224193358E+03  0.00000000000E+00 0.  1.
         21    1    1    2  502  501  0.52442485045E-02  0.10073816297E-01  0.58603115514E+00  0.58614119350E+00  0.00000000000E+00 0.  1.
<mgrwt>
<rscale>  1 0.65330088E+03</rscale>
<asrwt>0</asrwt>
<pdfrwt beam="1">  1        1 0.39013392E+00 0.65330088E+03</pdfrwt>
<pdfrwt beam="2">0</pdfrwt>
<totfact> 0.14791381E+00</totfact>
</mgrwt>
</event>
<event>
 6    1  0.1866504E-003  0.6349453E+03  0.7818608E-02  0.9835446E-01
          1   -1    0    0  502    0  0.00000000000E+00  0.00000000000E+00  0.10081217148E+03  0.10081217148E+03  0.00000000000E+00 0.  1.
         13   -1    0    0    0    0 -0.00000000000E+00 -0.00000000000E+00 -0.10000000000E+04  0.10000000000E+04  0.00000000000E+00 0.  1.
    9000005    2    1    2  501    0  0.35609779960E-03  0.24897859919E-03 -0.89921110993E+03  0.11007888860E+04  0.63494531366E+03 0.  0.
         13    1    3    3    0    0  0.42499553172E+02 -0.28155294220E+03 -0.69300354882E+03  0.74922105547E+03  0.00000000000E+00 0.  1.
          1    1    3    3  501    0 -0.42499197074E+02  0.28155319118E+03 -0.20620756111E+03  0.35156783054E+03  0.00000000000E+00 0.  1.
         21    1    1    2  502  501 -0.35609779961E-03 -0.24897859919E-03  0.23281410313E-01  0.23285464611E-01  0.00000000000E+00 0. -1.
<mgrwt>
<rscale>  1 0.63494531E+03</rscale>
<asrwt>0</asrwt>
<pdfrwt beam="1">  1        1 0.36659049E+00 0.63494531E+03</pdfrwt>
<pdfrwt beam="2">0</pdfrwt>
<totfact> 0.18848596E+00</totfact>
</mgrwt>
</event>
<event>
 6    1  0.1866504E-003  0.6490513E+03  0.7818608E-02  0.9808561E-01
          1   -1    0    0  502    0  0.00000000000E+00  0.00000000000E+00  0.10566713270E+03  0.10566713270E+03  0.00000000000E+00 0.  1.
         13   -1    0    0    0    0 -0.00000000000E+00 -0.00000000000E+00 -0.10000000000E+04  0.10000000000E+04  0.00000000000E+00 0.  1.
    9000005    2    1    2  501    0 -0.62802322025E-01 -0.15819092049E-01 -0.89467978209E+03  0.11053142244E+04  0.64905132160E+03 0.  0.
         13    1    3    3    0    0  0.10163101991E+03  0.29588016110E+03 -0.59412679677E+03  0.67146152875E+03  0.00000000000E+00 0.  1.
          3    1    3    3  501    0 -0.10169382223E+03 -0.29589598019E+03 -0.30055298531E+03  0.43385269569E+03  0.00000000000E+00 0.  1.
         21    1    1    2  502  501  0.62802322025E-01  0.15819092049E-01  0.34691478245E+00  0.35290826231E+00  0.00000000000E+00 0.  1.
<mgrwt>
<rscale>  1 0.64905132E+03</rscale>
<asrwt>0</asrwt>
<pdfrwt beam="1">  1        1 0.38424493E+00 0.64905132E+03</pdfrwt>
<pdfrwt beam="2">0</pdfrwt>
<totfact> 0.15719093E+00</totfact>
</mgrwt>
</event>
<event>
 6    1  0.1866504E-003  0.6548017E+03  0.7818608E-02  0.9797811E-01
          1   -1    0    0  502    0  0.00000000000E+00  0.00000000000E+00  0.10720293432E+03  0.10720293432E+03  0.00000000000E+00 0.  1.
         13   -1    0    0    0    0 -0.00000000000E+00 -0.00000000000E+00 -0.10000000000E+04  0.10000000000E+04  0.00000000000E+00 0.  1.
    9000005    2    1    2  501    0  0.40612008411E-03 -0.24102420180E-02 -0.89280854328E+03  0.11071911994E+04  0.65480169285E+03 0.  0.
         13    1    3    3    0    0 -0.27896840091E+03  0.12054912396E+02 -0.73545291682E+03  0.78667635180E+03  0.00000000000E+00 0.  1.
          3    1    3    3  501    0  0.27896880703E+03 -0.12057322638E+02 -0.15735562646E+03  0.32051484756E+03  0.00000000000E+00 0.  1.
         21    1    1    2  502  501 -0.40612008414E-03  0.24102420180E-02  0.11477596168E-01  0.11734965441E-01  0.00000000000E+00 0. -1.
<mgrwt>
<rscale>  1 0.65480169E+03</rscale>
<asrwt>0</asrwt>
<pdfrwt beam="1">  1        1 0.38982967E+00 0.65480169E+03</pdfrwt>
<pdfrwt beam="2">0</pdfrwt>
<totfact> 0.14833272E+00</totfact>
</mgrwt>
</event>
<event>
 6    1  0.1866504E-003  0.6052561E+03  0.7818608E-02  0.9894561E-01
          1   -1    0    0  502    0  0.00000000000E+00  0.00000000000E+00  0.92709543304E+02  0.92709543304E+02  0.00000000000E+00 0.  1.
         13   -1    0    0    0    0 -0.00000000000E+00 -0.00000000000E+00 -0.10000000000E+04  0.10000000000E+04  0.00000000000E+00 0.  1.
    9000005    2    1    2  501    0  0.24098751045E-01  0.18005380629E-01 -0.90841603128E+03  0.10915835668E+04  0.60525614126E+03 0.  0.
         13    1    3    3    0    0 -0.14131928085E+03  0.20659664555E+03 -0.76096801761E+03  0.80107779704E+03  0.00000000000E+00 0.  1.
          3    1    3    3  501    0  0.14134337960E+03 -0.20657864017E+03 -0.14744801367E+03  0.29050576976E+03  0.00000000000E+00 0.  1.
         21    1    1    2  502  501 -0.24098751045E-01 -0.18005380629E-01  0.11255745801E+01  0.11259765002E+01  0.00000000000E+00 0.  1.
<mgrwt>
<rscale>  1 0.60525614E+03</rscale>
<asrwt>0</asrwt>
<pdfrwt beam="1">  1        1 0.33712632E+00 0.60525614E+03</pdfrwt>
<pdfrwt beam="2">0</pdfrwt>
<totfact> 0.25472845E+00</totfact>
</mgrwt>
</event>
<event>
 6    1  0.1866504E-003  0.6362020E+03  0.7818608E-02  0.9833020E-01
          1   -1    0    0  502    0  0.00000000000E+00  0.00000000000E+00  0.14591626376E+03  0.14591626376E+03  0.00000000000E+00 0.  1.
         13   -1    0    0    0    0 -0.00000000000E+00 -0.00000000000E+00 -0.10000000000E+04  0.10000000000E+04  0.00000000000E+00 0.  1.
    9000005    2    1    2  501    0 -0.82272160370E+00 -0.35097050249E+01 -0.89873175919E+03  0.11011229512E+04  0.63619178217E+03 0.  0.
         13    1    3    3    0    0 -0.59991242073E+02 -0.27390613976E+03 -0.71732128491E+03  0.77017747845E+03  0.00000000000E+00 0.  1.
          1    1    3    3  501    0  0.59168520469E+02  0.27039643473E+03 -0.18141047428E+03  0.33094547271E+03  0.00000000000E+00 0.  1.
         21    1    1    2  502  501  0.82272160370E+00  0.35097050249E+01  0.44648022947E+02  0.44793312596E+02  0.00000000000E+00 0.  1.
<mgrwt>
<rscale>  1 0.63620200E+03</rscale>
<asrwt>0</asrwt>
<pdfrwt beam="1">  1        1 0.53060571E+00 0.63620200E+03</pdfrwt>
<pdfrwt beam="2">0</pdfrwt>
<totfact> 0.32876854E-01</totfact>
</mgrwt>
</event>
<event>
 6    1  0.1866504E-003  0.6400551E+03  0.7818608E-02  0.9825621E-01
          1   -1    0    0  502    0  0.00000000000E+00  0.00000000000E+00  0.10242145008E+03  0.10242145008E+03  0.00000000000E+00 0.  1.
         13   -1    0    0    0    0 -0.00000000000E+00 -0.00000000000E+00 -0.10000000000E+04  0.10000000000E+04  0.00000000000E+00 0.  1.
    9000005    2    1    2  501    0 -0.17626788930E-02 -0.16383743393E-02 -0.89758193283E+03  0.11024172985E+04  0.64005513352E+03 0.  0.
         13    1    3    3    0    0 -0.31708108153E+03 -0.22026565489E+02 -0.51306853920E+03  0.60354362540E+03  0.00000000000E+00 0.  1.
          1    1    3    3  501    0  0.31707931885E+03  0.22024927115E+02 -0.38451339363E+03  0.49887367313E+03  0.00000000000E+00 0.  1.
         21    1    1    2  502  501  0.17626788931E-02  0.16383743393E-02  0.33829144005E-02  0.41515559970E-02  0.00000000000E+00 0. -1.
<mgrwt>
<rscale>  1 0.64005513E+03</rscale>
<asrwt>0</asrwt>
<pdfrwt beam="1">  1        1 0.37244242E+00 0.64005513E+03</pdfrwt>
<pdfrwt beam="2">0</pdfrwt>
<totfact> 0.17749231E+00</totfact>
</mgrwt>
</event>
<event>
 6    1  0.1866504E-003  0.6481750E+03  0.7818608E-02  0.9810210E-01
          1   -1    0    0  502    0  0.00000000000E+00  0.00000000000E+00  0.10639018258E+03  0.10639018258E+03  0.00000000000E+00 0.  1.
         13   -1    0    0    0    0 -0.00000000000E+00 -0.00000000000E+00 -0.10000000000E+04  0.10000000000E+04  0.00000000000E+00 0.  1.
    9000005    2    1    2  501    0  0.61624406324E-01  0.67307550371E-01 -0.89496560153E+03  0.11050313307E+04  0.64817498068E+03 0.  0.
         13    1    3    3    0    0 -0.28994341266E+03  0.77638679656E+02 -0.23917896263E+03  0.38379880574E+03  0.00000000000E+00 0.  1.
          1    1    3    3  501    0  0.29000503707E+03 -0.77571372105E+02 -0.65578663890E+03  0.72123252496E+03  0.00000000000E+00 0.  1.
         21    1    1    2  502  501 -0.61624406324E-01 -0.67307550371E-01  0.13557841053E+01  0.13588518734E+01  0.00000000000E+00 0.  1.
<mgrwt>
<rscale>  1 0.64817499E+03</rscale>
<asrwt>0</asrwt>
<pdfrwt beam="1">  1        1 0.38687421E+00 0.64817499E+03</pdfrwt>
<pdfrwt beam="2">0</pdfrwt>
<totfact> 0.15306142E+00</totfact>
</mgrwt>
</event>
<event>
 6    1  0.1866504E-003  0.6097663E+03  0.7818608E-02  0.9885349E-01
          1   -1    0    0  502    0  0.00000000000E+00  0.00000000000E+00  0.92978676546E+02  0.92978676546E+02  0.00000000000E+00 0.  1.
         13   -1    0    0    0    0 -0.00000000000E+00 -0.00000000000E+00 -0.10000000000E+04  0.10000000000E+04  0.00000000000E+00 0.  1.
    9000005    2    1    2  501    0  0.37585623423E-01  0.44502659931E-01 -0.90700258394E+03  0.10929174856E+04  0.60976629917E+03 0.  0.
         13    1    3    3    0    0  0.65504202576E+02 -0.29704340021E+03 -0.41685679778E+03  0.51603795598E+03  0.00000000000E+00 0.  1.
          1    1    3    3  501    0 -0.65466616953E+02  0.29708790287E+03 -0.49014578616E+03  0.57687952959E+03  0.00000000000E+00 0.  1.
         21    1    1    2  502  501 -0.37585623423E-01 -0.44502659931E-01 -0.18739515068E-01  0.61190973632E-01  0.00000000000E+00 0. -1.
<mgrwt>
<rscale>  1 0.60976630E+03</rscale>
<asrwt>0</asrwt>
<pdfrwt beam="1">  1        1 0.33810499E+00 0.60976630E+03</pdfrwt>
<pdfrwt beam="2">0</pdfrwt>
<totfact> 0.25204772E+00</totfact>
</mgrwt>
</event>
<event>
 6    1  0.1866504E-003  0.6443396E+03  0.7818608E-02  0.9817459E-01
          1   -1    0    0  502    0  0.00000000000E+00  0.00000000000E+00  0.10427217093E+03  0.10427217093E+03  0.00000000000E+00 0.  1.
         13   -1    0    0    0    0 -0.00000000000E+00 -0.00000000000E+00 -0.10000000000E+04  0.10000000000E+04  0.00000000000E+00 0.  1.
    9000005    2    1    2  501    0 -0.29289505065E-01  0.64929163497E-01 -0.89620369060E+03  0.11037910079E+04  0.64433960689E+03 0.  0.
         13    1    3    3    0    0 -0.20703770217E+03  0.24466621275E+03 -0.39161399568E+03  0.50605107192E+03  0.00000000000E+00 0.  1.
          1    1    3    3  501    0  0.20700841266E+03 -0.24460128359E+03 -0.50458969492E+03  0.59773993598E+03  0.00000000000E+00 0.  1.
         21    1    1    2  502  501  0.29289505065E-01 -0.64929163497E-01  0.47586152832E+00  0.48116303424E+00  0.00000000000E+00 0. -1.
<mgrwt>
<rscale>  1 0.64433961E+03</rscale>
<asrwt>0</asrwt>
<pdfrwt beam="1">  1        1 0.37917233E+00 0.64433961E+03</pdfrwt>
<pdfrwt beam="2">0</pdfrwt>
<totfact> 0.16565488E+00</totfact>
</mgrwt>
</event>
<event>
 6    1  0.1866504E-003  0.6520489E+03  0.7818608E-02  0.9802942E-01
          1   -1    0    0  502    0  0.00000000000E+00  0.00000000000E+00  0.10768663790E+03  0.10768663790E+03  0.00000000000E+00 0.  1.
         13   -1    0    0    0    0 -0.00000000000E+00 -0.00000000000E+00 -0.10000000000E+04  0.10000000000E+04  0.00000000000E+00 0.  1.
    9000005    2    1    2  501    0 -0.56323373253E-01 -0.37166432510E-01 -0.89370714299E+03  0.11062912244E+04  0.65204893314E+03 0.  0.
         13    1    3    3    0    0 -0.30260683047E+03 -0.12089241866E+03 -0.46606551931E+03  0.56868527239E+03  0.00000000000E+00 0.  1.
          1    1    3    3  501    0  0.30255050710E+03  0.12085525223E+03 -0.42764162368E+03  0.53760595201E+03  0.00000000000E+00 0.  1.
         21    1    1    2  502  501  0.56323373253E-01  0.37166432510E-01  0.13937808838E+01  0.13954134936E+01  0.00000000000E+00 0. -1.
<mgrwt>
<rscale>  1 0.65204894E+03</rscale>
<asrwt>0</asrwt>
<pdfrwt beam="1">  1        1 0.39158860E+00 0.65204894E+03</pdfrwt>
<pdfrwt beam="2">0</pdfrwt>
<totfact> 0.14576608E+00</totfact>
</mgrwt>
</event>
<event>
 6    1  0.1866504E-003  0.6617350E+03  0.7818608E-02  0.9785005E-01
          1   -1    0    0  502    0  0.00000000000E+00  0.00000000000E+00  0.10947362699E+03  0.10947362699E+03  0.00000000000E+00 0.  1.
         13   -1    0    0    0    0 -0.00000000000E+00 -0.00000000000E+00 -0.10000000000E+04  0.10000000000E+04  0.00000000000E+00 0.  1.
    9000005    2    1    2  501    0  0.95284668760E-04  0.34944748450E-04 -0.89052669944E+03  0.11094732851E+04  0.66173496813E+03 0.  0.
         13    1    3    3    0    0  0.28771786893E+03  0.13992866114E+03 -0.30387294134E+03  0.44124864508E+03  0.00000000000E+00 0.  1.
          1    1    3    3  501    0 -0.28771777364E+03 -0.13992862620E+03 -0.58665375810E+03  0.66822464007E+03  0.00000000000E+00 0.  1.
         21    1    1    2  502  501 -0.95284668772E-04 -0.34944748451E-04  0.32642302780E-03  0.34183665196E-03  0.00000000000E+00 0. -1.
<mgrwt>
<rscale>  1 0.66173497E+03</rscale>
<asrwt>0</asrwt>
<pdfrwt beam="1">  1        1 0.39808676E+00 0.66173497E+03</pdfrwt>
<pdfrwt beam="2">0</pdfrwt>
<totfact> 0.13613805E+00</totfact>
</mgrwt>
</event>
<event>
 6    1  0.1866504E-003  0.6672815E+03  0.7818608E-02  0.9774881E-01
          1   -1    0    0  502    0  0.00000000000E+00  0.00000000000E+00  0.11131821715E+03  0.11131821715E+03  0.00000000000E+00 0.  1.
         13   -1    0    0    0    0 -0.00000000000E+00 -0.00000000000E+00 -0.10000000000E+04  0.10000000000E+04  0.00000000000E+00 0.  1.
    9000005    2    1    2  501    0  0.12289555491E-03  0.85827133951E-05 -0.88868384367E+03  0.11113161526E+04  0.66728151266E+03 0.  0.
         13    1    3    3    0    0  0.40069701193E+02  0.17775183112E+02  0.10649939850E+03  0.11516796416E+03  0.00000000000E+00 0.  1.
          1    1    3    3  501    0 -0.40069578297E+02 -0.17775174529E+02 -0.99518324217E+03  0.99614818849E+03  0.00000000000E+00 0.  1.
         21    1    1    2  502  501 -0.12289555491E-03 -0.85827133936E-05  0.20608207375E-02  0.20644997196E-02  0.00000000000E+00 0.  1.
<mgrwt>
<rscale>  1 0.66728151E+03</rscale>
<asrwt>0</asrwt>
<pdfrwt beam="1">  1        1 0.40479437E+00 0.66728151E+03</pdfrwt>
<pdfrwt beam="2">0</pdfrwt>
<totfact> 0.12693802E+00</totfact>
</mgrwt>
</event>
<event>
 6    1  0.1866504E-003  0.6602748E+03  0.7818608E-02  0.9787688E-01
          1   -1    0    0  502    0  0.00000000000E+00  0.00000000000E+00  0.10909708359E+03  0.10909708359E+03  0.00000000000E+00 0.  1.
         13   -1    0    0    0    0 -0.00000000000E+00 -0.00000000000E+00 -0.10000000000E+04  0.10000000000E+04  0.00000000000E+00 0.  1.
    9000005    2    1    2  501    0 -0.28366250673E-01 -0.18952595132E-01 -0.89100624945E+03  0.11089882646E+04  0.66027481657E+03 0.  0.
         13    1    3    3    0    0  0.27414980387E+02 -0.27384473273E+03 -0.13923468487E+03  0.30842959693E+03  0.00000000000E+00 0.  1.
          1    1    3    3  501    0 -0.27443346638E+02  0.27382578013E+03 -0.75177156458E+03  0.80055866771E+03  0.00000000000E+00 0.  1.
         21    1    1    2  502  501  0.28366250673E-01  0.18952595132E-01  0.10333304420E+00  0.10881894625E+00  0.00000000000E+00 0.  1.
<mgrwt>
<rscale>  1 0.66027482E+03</rscale>
<asrwt>0</asrwt>
<pdfrwt beam="1">  1        1 0.39671750E+00 0.66027482E+03</pdfrwt>
<pdfrwt beam="2">0</pdfrwt>
<totfact> 0.13810036E+00</totfact>
</mgrwt>
</event>
<event>
 6    1  0.1866504E-003  0.6597985E+03  0.7818608E-02  0.9788565E-01
          1   -1    0    0  502    0  0.00000000000E+00  0.00000000000E+00  0.10883371065E+03  0.10883371065E+03  0.00000000000E+00 0.  1.
         13   -1    0    0    0    0 -0.00000000000E+00 -0.00000000000E+00 -0.10000000000E+04  0.10000000000E+04  0.00000000000E+00 0.  1.
    9000005    2    1    2  501    0  0.54181488125E-04  0.17759617776E-06 -0.89116648523E+03  0.11088335074E+04  0.65979848649E+03 0.  0.
         13    1    3    3    0    0 -0.45141784598E+02  0.18207554507E+03  0.10479268836E+02  0.18788054690E+03  0.00000000000E+00 0.  1.
          3    1    3    3  501    0  0.45141838780E+02 -0.18207554489E+03 -0.90164575407E+03  0.92095296051E+03  0.00000000000E+00 0.  1.
         21    1    1    2  502  501 -0.54181488127E-04 -0.17759616506E-06  0.19588130288E-03  0.20323668471E-03  0.00000000000E+00 0.  1.
<mgrwt>
<rscale>  1 0.65979849E+03</rscale>
<asrwt>0</asrwt>
<pdfrwt beam="1">  1        1 0.39575978E+00 0.65979849E+03</pdfrwt>
<pdfrwt beam="2">0</pdfrwt>
<totfact> 0.13947460E+00</totfact>
</mgrwt>
</event>
<event>
 6    1  0.1866504E-003  0.6711832E+03  0.7818608E-02  0.9767823E-01
          1   -1    0    0  502    0  0.00000000000E+00  0.00000000000E+00  0.11262717747E+03  0.11262717747E+03  0.00000000000E+00 0.  1.
         13   -1    0    0    0    0 -0.00000000000E+00 -0.00000000000E+00 -0.10000000000E+04  0.10000000000E+04  0.00000000000E+00 0.  1.
    9000005    2    1    2  501    0  0.35444580419E-04  0.40751272621E-03 -0.88737826329E+03  0.11126217214E+04  0.67118321840E+03 0.  0.
         13    1    3    3    0    0 -0.17990072042E+03  0.27811358495E+03 -0.35425943729E+03  0.48498575675E+03  0.00000000000E+00 0.  1.
          3    1    3    3  501    0  0.17990075587E+03 -0.27811317743E+03 -0.53311882601E+03  0.62763596461E+03  0.00000000000E+00 0.  1.
         21    1    1    2  502  501 -0.35444580405E-04 -0.40751272621E-03  0.54407617789E-02  0.54561169044E-02  0.00000000000E+00 0.  1.
<mgrwt>
<rscale>  1 0.67118322E+03</rscale>
<asrwt>0</asrwt>
<pdfrwt beam="1">  1        1 0.40955424E+00 0.67118322E+03</pdfrwt>
<pdfrwt beam="2">0</pdfrwt>
<totfact> 0.12076945E+00</totfact>
</mgrwt>
</event>
<event>
 6    1  0.1866504E-003  0.6533709E+03  0.7818608E-02  0.9800474E-01
          1   -1    0    0  502    0  0.00000000000E+00  0.00000000000E+00  0.10876332527E+03  0.10876332527E+03  0.00000000000E+00 0.  1.
         13   -1    0    0    0    0 -0.00000000000E+00 -0.00000000000E+00 -0.10000000000E+04  0.10000000000E+04  0.00000000000E+00 0.  1.
    9000005    2    1    2  501    0  0.13596608263E+00 -0.21664114923E+00 -0.89326774599E+03  0.11067162125E+04  0.65337083160E+03 0.  0.
         13    1    3    3    0    0 -0.71218198196E+02  0.16916736030E+03  0.11078314978E+02  0.18388136559E+03  0.00000000000E+00 0.  1.
          1    1    3    3  501    0  0.71354164278E+02 -0.16938400145E+03 -0.90434606097E+03  0.92283484693E+03  0.00000000000E+00 0.  1.
         21    1    1    2  502  501 -0.13596608263E+00  0.21664114923E+00  0.20310712651E+01  0.20471127587E+01  0.00000000000E+00 0.  1.
<mgrwt>
<rscale>  1 0.65337088E+03</rscale>
<asrwt>0</asrwt>
<pdfrwt beam="1">  1        1 0.39550383E+00 0.65337088E+03</pdfrwt>
<pdfrwt beam="2">0</pdfrwt>
<totfact> 0.14000891E+00</totfact>
</mgrwt>
</event>
<event>
 6    1  0.1866504E-003  0.6151832E+03  0.7818608E-02  0.9874397E-01
          1   -1    0    0  502    0  0.00000000000E+00  0.00000000000E+00  0.14896519688E+03  0.14896519688E+03  0.00000000000E+00 0.  1.
         13   -1    0    0    0    0 -0.00000000000E+00 -0.00000000000E+00 -0.10000000000E+04  0.10000000000E+04  0.00000000000E+00 0.  1.
    9000005    2    1    2  501    0  0.58762427054E+02 -0.53475916737E+02 -0.87165557555E+03  0.10668804068E+04  0.61003087099E+03 0.  0.
         13    1    3    3    0    0  0.29082728479E+03 -0.16593408604E+03 -0.63009120693E+03  0.71353315238E+03  0.00000000000E+00 0.  1.
          1    1    3    3  501    0 -0.23206485773E+03  0.11245816930E+03 -0.24156436861E+03  0.35334725444E+03  0.00000000000E+00 0.  1.
         21    1    1    2  502  501 -0.58762427054E+02  0.53475916737E+02  0.20620772424E+02  0.82084790062E+02  0.00000000000E+00 0.  1.
<mgrwt>
<rscale>  1 0.61518319E+03</rscale>
<asrwt>0</asrwt>
<pdfrwt beam="1">  1        1 0.54169277E+00 0.61518319E+03</pdfrwt>
<pdfrwt beam="2">0</pdfrwt>
<totfact> 0.29092078E-01</totfact>
</mgrwt>
</event>
<event>
 6    1  0.1866504E-003  0.6917088E+03  0.7818608E-02  0.9731517E-01
          1   -1    0    0  502    0  0.00000000000E+00  0.00000000000E+00  0.11961573215E+03  0.11961573215E+03  0.00000000000E+00 0.  1.
         13   -1    0    0    0    0 -0.00000000000E+00 -0.00000000000E+00 -0.10000000000E+04  0.10000000000E+04  0.00000000000E+00 0.  1.
    9000005    2    1    2  501    0  0.42889605942E-03 -0.12986869394E-02 -0.88038264895E+03  0.11196136129E+04  0.69170877798E+03 0.  0.
         13    1    3    3    0    0  0.28478810135E+03 -0.12669525584E+03 -0.19761696424E+03  0.36906424248E+03  0.00000000000E+00 0.  1.
          1    1    3    3  501    0 -0.28478767246E+03  0.12669395715E+03 -0.68276568470E+03  0.75054937037E+03  0.00000000000E+00 0.  1.
         21    1    1    2  502  501 -0.42889605942E-03  0.12986869394E-02 -0.16189031966E-02  0.21192893045E-02  0.00000000000E+00 0. -1.
<mgrwt>
<rscale>  1 0.69170878E+03</rscale>
<asrwt>0</asrwt>
<pdfrwt beam="1">  1        1 0.43496722E+00 0.69170878E+03</pdfrwt>
<pdfrwt beam="2">0</pdfrwt>
<totfact> 0.92329992E-01</totfact>
</mgrwt>
</event>
<event>
 6    1  0.1866504E-003  0.6118317E+03  0.7818608E-02  0.9881159E-01
          1   -1    0    0  502    0  0.00000000000E+00  0.00000000000E+00  0.93740509771E+02  0.93740509771E+02  0.00000000000E+00 0.  1.
         13   -1    0    0    0    0 -0.00000000000E+00 -0.00000000000E+00 -0.10000000000E+04  0.10000000000E+04  0.00000000000E+00 0.  1.
    9000005    2    1    2  501    0  0.25300728943E+00  0.30335844815E+00 -0.90608040153E+03  0.10933067912E+04  0.61183158598E+03 0.  0.
         13    1    3    3    0    0 -0.14672279602E+03 -0.24230763895E+03 -0.24720987359E+03  0.37596980247E+03  0.00000000000E+00 0.  1.
          1    1    3    3  501    0  0.14697580331E+03  0.24261099740E+03 -0.65887052794E+03  0.71733698873E+03  0.00000000000E+00 0.  1.
         21    1    1    2  502  501 -0.25300728943E+00 -0.30335844815E+00 -0.17908870048E+00  0.43371857143E+00  0.00000000000E+00 0.  1.
<mgrwt>
<rscale>  1 0.61183171E+03</rscale>
<asrwt>0</asrwt>
<pdfrwt beam="1">  1        1 0.34087530E+00 0.61183171E+03</pdfrwt>
<pdfrwt beam="2">0</pdfrwt>
<totfact> 0.24507170E+00</totfact>
</mgrwt>
</event>
<event>
 6    1  0.1866504E-003  0.6392103E+03  0.7818608E-02  0.9827239E-01
          1   -1    0    0  502    0  0.00000000000E+00  0.00000000000E+00  0.10290859932E+03  0.10290859932E+03  0.00000000000E+00 0.  1.
         13   -1    0    0    0    0 -0.00000000000E+00 -0.00000000000E+00 -0.10000000000E+04  0.10000000000E+04  0.00000000000E+00 0.  1.
    9000005    2    1    2  501    0  0.20712449545E+01 -0.64455160764E-02 -0.89577046266E+03  0.11004519808E+04  0.63920696979E+03 0.  0.
         13    1    3    3    0    0  0.26328742276E+03 -0.17997632885E+03 -0.50299426059E+03  0.59557952627E+03  0.00000000000E+00 0.  1.
          3    1    3    3  501    0 -0.26121617780E+03  0.17996988333E+03 -0.39277620207E+03  0.50487245456E+03  0.00000000000E+00 0.  1.
         21    1    1    2  502  501 -0.20712449545E+01  0.64455160764E-02 -0.13209380164E+01  0.24566184990E+01  0.00000000000E+00 0.  1.
<mgrwt>
<rscale>  1 0.63921033E+03</rscale>
<asrwt>0</asrwt>
<pdfrwt beam="1">  1        1 0.37421388E+00 0.63921033E+03</pdfrwt>
<pdfrwt beam="2">0</pdfrwt>
<totfact> 0.17436341E+00</totfact>
</mgrwt>
</event>
<event>
 6    1  0.1866504E-003  0.6436844E+03  0.7818608E-02  0.9818703E-01
          1   -1    0    0  502    0  0.00000000000E+00  0.00000000000E+00  0.10512476828E+03  0.10512476828E+03  0.00000000000E+00 0.  1.
         13   -1    0    0    0    0 -0.00000000000E+00 -0.00000000000E+00 -0.10000000000E+04  0.10000000000E+04  0.00000000000E+00 0.  1.
    9000005    2    1    2  501    0  0.21995165538E+01  0.19615005896E+01 -0.89467967307E+03  0.11021711940E+04  0.64367766637E+03 0.  0.
         13    1    3    3    0    0  0.14794983562E+03 -0.21916851039E+03 -0.76073649123E+03  0.80538437959E+03  0.00000000000E+00 0.  1.
          1    1    3    3  501    0 -0.14575031907E+03  0.22113001098E+03 -0.13394318185E+03  0.29678681444E+03  0.00000000000E+00 0.  1.
         21    1    1    2  502  501 -0.21995165538E+01 -0.19615005896E+01 -0.19555865323E+00  0.29535742449E+01  0.00000000000E+00 0.  1.
<mgrwt>
<rscale>  1 0.64368441E+03</rscale>
<asrwt>0</asrwt>
<pdfrwt beam="1">  1        1 0.38227269E+00 0.64368441E+03</pdfrwt>
<pdfrwt beam="2">0</pdfrwt>
<totfact> 0.16053653E+00</totfact>
</mgrwt>
</event>
<event>
 6    1  0.1866504E-003  0.6519347E+03  0.7818608E-02  0.9803156E-01
          1   -1    0    0  502    0  0.00000000000E+00  0.00000000000E+00  0.10625551318E+03  0.10625551318E+03  0.00000000000E+00 0.  1.
         13   -1    0    0    0    0 -0.00000000000E+00 -0.00000000000E+00 -0.10000000000E+04  0.10000000000E+04  0.00000000000E+00 0.  1.
    9000005    2    1    2  501    0  0.11428922642E-03  0.54426452095E-04 -0.89374528873E+03  0.11062547013E+04  0.65193467702E+03 0.  0.
         13    1    3    3    0    0 -0.22442573293E+03  0.22481735951E+03 -0.32281530392E+03  0.45290117596E+03  0.00000000000E+00 0.  1.
          1    1    3    3  501    0  0.22442584722E+03 -0.22481730509E+03 -0.57092998481E+03  0.65335352538E+03  0.00000000000E+00 0.  1.
         21    1    1    2  502  501 -0.11428922639E-03 -0.54426452102E-04  0.80190615841E-03  0.81183603816E-03  0.00000000000E+00 0.  1.
<mgrwt>
<rscale>  1 0.65193468E+03</rscale>
<asrwt>0</asrwt>
<pdfrwt beam="1">  1        1 0.38638450E+00 0.65193468E+03</pdfrwt>
<pdfrwt beam="2">0</pdfrwt>
<totfact> 0.15372018E+00</totfact>
</mgrwt>
</event>
<event>
 6    1  0.1866504E-003  0.6471513E+03  0.7818608E-02  0.9812139E-01
          1   -1    0    0  502    0  0.00000000000E+00  0.00000000000E+00  0.10470146020E+03  0.10470146020E+03  0.00000000000E+00 0.  1.
         13   -1    0    0    0    0 -0.00000000000E+00 -0.00000000000E+00 -0.10000000000E+04  0.10000000000E+04  0.00000000000E+00 0.  1.
    9000005    2    1    2  501    0  0.13728402735E-05  0.21303273925E-04 -0.89529880800E+03  0.11047011912E+04  0.64715126989E+03 0.  0.
         13    1    3    3    0    0  0.23476374722E+03 -0.12694950349E+03 -0.75995036709E+03  0.80545313574E+03  0.00000000000E+00 0.  1.
          1    1    3    3  501    0 -0.23476374585E+03  0.12694952479E+03 -0.13534844091E+03  0.29924805541E+03  0.00000000000E+00 0.  1.
         21    1    1    2  502  501 -0.13728402609E-05 -0.21303273918E-04  0.26820185093E-03  0.26905008272E-03  0.00000000000E+00 0.  1.
<mgrwt>
<rscale>  1 0.64715127E+03</rscale>
<asrwt>0</asrwt>
<pdfrwt beam="1">  1        1 0.38073339E+00 0.64715127E+03</pdfrwt>
<pdfrwt beam="2">0</pdfrwt>
<totfact> 0.16296419E+00</totfact>
</mgrwt>
</event>
<event>
 6    1  0.1866504E-003  0.6506767E+03  0.7818608E-02  0.9805510E-01
          1   -1    0    0  502    0  0.00000000000E+00  0.00000000000E+00  0.10584815131E+03  0.10584815131E+03  0.00000000000E+00 0.  1.
         13   -1    0    0    0    0 -0.00000000000E+00 -0.00000000000E+00 -0.10000000000E+04  0.10000000000E+04  0.00000000000E+00 0.  1.
    9000005    2    1    2  501    0 -0.58752692667E-04 -0.61158973686E-04 -0.89415495786E+03  0.11058450410E+04  0.65067669852E+03 0.  0.
         13    1    3    3    0    0 -0.26745791955E+03  0.44399419777E+02 -0.14144532787E+03  0.30579703724E+03  0.00000000000E+00 0.  1.
          1    1    3    3  501    0  0.26745786080E+03 -0.44399480936E+02 -0.75270962999E+03  0.80004800374E+03  0.00000000000E+00 0.  1.
         21    1    1    2  502  501  0.58752692640E-04  0.61158973684E-04  0.31091734298E-02  0.31103298403E-02  0.00000000000E+00 0. -1.
<mgrwt>
<rscale>  1 0.65067670E+03</rscale>
<asrwt>0</asrwt>
<pdfrwt beam="1">  1        1 0.38490318E+00 0.65067670E+03</pdfrwt>
<pdfrwt beam="2">0</pdfrwt>
<totfact> 0.15609401E+00</totfact>
</mgrwt>
</event>
<event>
 6    1  0.1866504E-003  0.6579637E+03  0.7818608E-02  0.9791950E-01
          1   -1    0    0  502    0  0.00000000000E+00  0.00000000000E+00  0.10838954180E+03  0.10838954180E+03  0.00000000000E+00 0.  1.
         13   -1    0    0    0    0 -0.00000000000E+00 -0.00000000000E+00 -0.10000000000E+04  0.10000000000E+04  0.00000000000E+00 0.  1.
    9000005    2    1    2  501    0 -0.16370570901E+00  0.10907107830E-01 -0.89172309464E+03  0.11081905305E+04  0.65796363690E+03 0.  0.
         13    1    3    3    0    0  0.20167551546E+02 -0.24144116870E+03 -0.82066167570E+03  0.85567876803E+03  0.00000000000E+00 0.  1.
          1    1    3    3  501    0 -0.20331257255E+02  0.24145207581E+03 -0.71061418937E+02  0.25251176249E+03  0.00000000000E+00 0.  1.
         21    1    1    2  502  501  0.16370570901E+00 -0.10907107830E-01  0.11263644289E+00  0.19901128720E+00  0.00000000000E+00 0.  1.
<mgrwt>
<rscale>  1 0.65796366E+03</rscale>
<asrwt>0</asrwt>
<pdfrwt beam="1">  1        1 0.39414462E+00 0.65796366E+03</pdfrwt>
<pdfrwt beam="2">0</pdfrwt>
<totfact> 0.14184879E+00</totfact>
</mgrwt>
</event>
<event>
 6    1  0.1866504E-003  0.6464360E+03  0.7818608E-02  0.9813490E-01
          1   -1    0    0  502    0  0.00000000000E+00  0.00000000000E+00  0.10460877195E+03  0.10460877195E+03  0.00000000000E+00 0.  1.
         13   -1    0    0    0    0 -0.00000000000E+00 -0.00000000000E+00 -0.10000000000E+04  0.10000000000E+04  0.00000000000E+00 0.  1.
    9000005    2    1    2  501    0 -0.34698716058E-01 -0.13375057123E-01 -0.89552737188E+03  0.11044676407E+04  0.64643599385E+03 0.  0.
         13    1    3    3    0    0  0.70451150803E+01 -0.27885299441E+03 -0.72676593441E+03  0.77845831588E+03  0.00000000000E+00 0.  1.
          1    1    3    3  501    0 -0.70798137963E+01  0.27883961935E+03 -0.16876143747E+03  0.32600932480E+03  0.00000000000E+00 0.  1.
         21    1    1    2  502  501  0.34698716058E-01  0.13375057123E-01  0.13614382644E+00  0.14113126701E+00  0.00000000000E+00 0. -1.
<mgrwt>
<rscale>  1 0.64643599E+03</rscale>
<asrwt>0</asrwt>
<pdfrwt beam="1">  1        1 0.38039634E+00 0.64643599E+03</pdfrwt>
<pdfrwt beam="2">0</pdfrwt>
<totfact> 0.16354485E+00</totfact>
</mgrwt>
</event>
<event>
 6    1  0.1866504E-003  0.6293335E+03  0.7818608E-02  0.9846350E-01
          1   -1    0    0  502    0  0.00000000000E+00  0.00000000000E+00  0.99422245192E+02  0.99422245192E+02  0.00000000000E+00 0.  1.
         13   -1    0    0    0    0 -0.00000000000E+00 -0.00000000000E+00 -0.10000000000E+04  0.10000000000E+04  0.00000000000E+00 0.  1.
    9000005    2    1    2  501    0  0.82334254012E-02  0.10209832124E-01 -0.90098472885E+03  0.10990150599E+04  0.62933347281E+03 0.  0.
         13    1    3    3    0    0  0.90427043575E+02 -0.11799681067E+03  0.33822246761E+02  0.15246062415E+03  0.00000000000E+00 0.  1.
          3    1    3    3  501    0 -0.90418810149E+02  0.11800702051E+03 -0.93480697561E+03  0.94655443571E+03  0.00000000000E+00 0.  1.
         21    1    1    2  502  501 -0.82334254012E-02 -0.10209832124E-01  0.40697403799E+00  0.40718533564E+00  0.00000000000E+00 0.  1.
<mgrwt>
<rscale>  1 0.62933347E+03</rscale>
<asrwt>0</asrwt>
<pdfrwt beam="1">  1        1 0.36153620E+00 0.62933347E+03</pdfrwt>
<pdfrwt beam="2">0</pdfrwt>
<totfact> 0.19854619E+00</totfact>
</mgrwt>
</event>
<event>
 6    1  0.1866504E-003  0.6321619E+03  0.7818608E-02  0.9840839E-01
          1   -1    0    0  502    0  0.00000000000E+00  0.00000000000E+00  0.10025865022E+03  0.10025865022E+03  0.00000000000E+00 0.  1.
         13   -1    0    0    0    0 -0.00000000000E+00 -0.00000000000E+00 -0.10000000000E+04  0.10000000000E+04  0.00000000000E+00 0.  1.
    9000005    2    1    2  501    0  0.46156370083E+00  0.19680507344E+00 -0.89988465017E+03  0.10997368186E+04  0.63216171562E+03 0.  0.
         13    1    3    3    0    0 -0.25162926389E+03 -0.14445888306E+02 -0.11840032853E+03  0.27846832482E+03  0.00000000000E+00 0.  1.
          1    1    3    3  501    0  0.25209082759E+03  0.14642693380E+02 -0.78148432164E+03  0.82126849373E+03  0.00000000000E+00 0.  1.
         21    1    1    2  502  501 -0.46156370083E+00 -0.19680507344E+00  0.14330038852E+00  0.52183166654E+00  0.00000000000E+00 0.  1.
<mgrwt>
<rscale>  1 0.63216191E+03</rscale>
<asrwt>0</asrwt>
<pdfrwt beam="1">  1        1 0.36457768E+00 0.63216191E+03</pdfrwt>
<pdfrwt beam="2">0</pdfrwt>
<totfact> 0.19245151E+00</totfact>
</mgrwt>
</event>
<event>
 6    1  0.1866504E-003  0.6393605E+03  0.7818608E-02  0.9826951E-01
          1   -1    0    0  502    0  0.00000000000E+00  0.00000000000E+00  0.10278994087E+03  0.10278994087E+03  0.00000000000E+00 0.  1.
         13   -1    0    0    0    0 -0.00000000000E+00 -0.00000000000E+00 -0.10000000000E+04  0.10000000000E+04  0.00000000000E+00 0.  1.
    9000005    2    1    2  501    0 -0.61512181591E-01  0.19351178407E-01 -0.89780259505E+03  0.11021939065E+04  0.63936054272E+03 0.  0.
         13    1    3    3    0    0  0.24821635602E+03  0.20004785382E+03 -0.48943648378E+03  0.58410493481E+03  0.00000000000E+00 0.  1.
          3    1    3    3  501    0 -0.24827786820E+03 -0.20002850264E+03 -0.40836611126E+03  0.51808897164E+03  0.00000000000E+00 0.  1.
         21    1    1    2  502  501  0.61512181591E-01 -0.19351178407E-01  0.59253591675E+00  0.59603441950E+00  0.00000000000E+00 0. -1.
<mgrwt>
<rscale>  1 0.63936055E+03</rscale>
<asrwt>0</asrwt>
<pdfrwt beam="1">  1        1 0.37378239E+00 0.63936055E+03</pdfrwt>
<pdfrwt beam="2">0</pdfrwt>
<totfact> 0.17512240E+00</totfact>
</mgrwt>
</event>
<event>
 6    1  0.1866504E-003  0.6671588E+03  0.7818608E-02  0.9775104E-01
          1   -1    0    0  502    0  0.00000000000E+00  0.00000000000E+00  0.12952005863E+03  0.12952005863E+03  0.00000000000E+00 0.  1.
         13   -1    0    0    0    0 -0.00000000000E+00 -0.00000000000E+00 -0.10000000000E+04  0.10000000000E+04  0.00000000000E+00 0.  1.
    9000005    2    1    2  501    0  0.15253077823E+02 -0.17757635245E+02 -0.87994795118E+03  0.11042686586E+04  0.66674799110E+03 0.  0.
         13    1    3    3    0    0 -0.21703399898E+03  0.20473904263E+02 -0.27277319874E+02  0.21969749577E+03  0.00000000000E+00 0.  1.
          3    1    3    3  501    0  0.23228707680E+03 -0.38231539508E+02 -0.85267063131E+03  0.88457116286E+03  0.00000000000E+00 0.  1.
         21    1    1    2  502  501 -0.15253077823E+02  0.17757635245E+02  0.94680098179E+01  0.25251400010E+02  0.00000000000E+00 0.  1.
<mgrwt>
<rscale>  1 0.66715881E+03</rscale>
<asrwt>0</asrwt>
<pdfrwt beam="1">  1        1 0.47098302E+00 0.66715881E+03</pdfrwt>
<pdfrwt beam="2">0</pdfrwt>
<totfact> 0.63249873E-01</totfact>
</mgrwt>
</event>
<event>
 6    1  0.1866504E-003  0.6485538E+03  0.7818608E-02  0.9809497E-01
          1   -1    0    0  502    0  0.00000000000E+00  0.00000000000E+00  0.10705129887E+03  0.10705129887E+03  0.00000000000E+00 0.  1.
         13   -1    0    0    0    0 -0.00000000000E+00 -0.00000000000E+00 -0.10000000000E+04  0.10000000000E+04  0.00000000000E+00 0.  1.
    9000005    2    1    2  501    0 -0.15095978538E-02  0.35472173952E+00 -0.89482614214E+03  0.11051406407E+04  0.64855368729E+03 0.  0.
         13    1    3    3    0    0 -0.20970790416E+03 -0.24435434994E+03 -0.51059087841E+03  0.60364683261E+03  0.00000000000E+00 0.  1.
          3    1    3    3  501    0  0.20970639456E+03  0.24470907168E+03 -0.38423526373E+03  0.50149380812E+03  0.00000000000E+00 0.  1.
         21    1    1    2  502  501  0.15095978538E-02 -0.35472173952E+00  0.18774410066E+01  0.19106581391E+01  0.00000000000E+00 0.  1.
<mgrwt>
<rscale>  1 0.64855378E+03</rscale>
<asrwt>0</asrwt>
<pdfrwt beam="1">  1        1 0.38927827E+00 0.64855378E+03</pdfrwt>
<pdfrwt beam="2">0</pdfrwt>
<totfact> 0.14934347E+00</totfact>
</mgrwt>
</event>
<event>
 6    1  0.1866504E-003  0.6683511E+03  0.7818608E-02  0.9772941E-01
          1   -1    0    0  502    0  0.00000000000E+00  0.00000000000E+00  0.12191751733E+03  0.12191751733E+03  0.00000000000E+00 0.  1.
         13   -1    0    0    0    0 -0.00000000000E+00 -0.00000000000E+00 -0.10000000000E+04  0.10000000000E+04  0.00000000000E+00 0.  1.
    9000005    2    1    2  501    0  0.26124749296E+02  0.14711652455E+02 -0.84013009930E+03  0.10735510140E+04  0.66767826129E+03 0.  0.
         13    1    3    3    0    0 -0.22042542828E+03  0.14080080705E+03 -0.94411272972E+02  0.27807503513E+03  0.00000000000E+00 0.  1.
          1    1    3    3  501    0  0.24655017758E+03 -0.12608915459E+03 -0.74571882632E+03  0.79547597884E+03  0.00000000000E+00 0.  1.
         21    1    1    2  502  501 -0.26124749296E+02 -0.14711652455E+02 -0.37952383374E+02  0.48366503362E+02  0.00000000000E+00 0. -1.
<mgrwt>
<rscale>  1 0.66835110E+03</rscale>
<asrwt>0</asrwt>
<pdfrwt beam="1">  1        1 0.44333736E+00 0.66835110E+03</pdfrwt>
<pdfrwt beam="2">0</pdfrwt>
<totfact> 0.84930212E-01</totfact>
</mgrwt>
</event>
<event>
 6    1  0.1866504E-003  0.6529843E+03  0.7818608E-02  0.9801195E-01
          1   -1    0    0  502    0  0.00000000000E+00  0.00000000000E+00  0.10660564426E+03  0.10660564426E+03  0.00000000000E+00 0.  1.
         13   -1    0    0    0    0 -0.00000000000E+00 -0.00000000000E+00 -0.10000000000E+04  0.10000000000E+04  0.00000000000E+00 0.  1.
    9000005    2    1    2  501    0 -0.16903085179E-03 -0.54247593567E-04 -0.89340287064E+03  0.11065971275E+04  0.65298431326E+03 0.  0.
         13    1    3    3    0    0  0.25490815408E+03 -0.14639964054E+03 -0.20592564009E+03  0.35891000406E+03  0.00000000000E+00 0.  1.
          1    1    3    3  501    0 -0.25490832311E+03  0.14639958629E+03 -0.68747723055E+03  0.74768712346E+03  0.00000000000E+00 0.  1.
         21    1    1    2  502  501  0.16903085178E-03  0.54247593583E-04  0.85148958389E-02  0.85167461732E-02  0.00000000000E+00 0. -1.
<mgrwt>
<rscale>  1 0.65298431E+03</rscale>
<asrwt>0</asrwt>
<pdfrwt beam="1">  1        1 0.38765771E+00 0.65298431E+03</pdfrwt>
<pdfrwt beam="2">0</pdfrwt>
<totfact> 0.15170818E+00</totfact>
</mgrwt>
</event>
<event>
 6    1  0.1866504E-003  0.6509914E+03  0.7818608E-02  0.9804921E-01
          1   -1    0    0  502    0  0.00000000000E+00  0.00000000000E+00  0.10594752587E+03  0.10594752587E+03  0.00000000000E+00 0.  1.
         13   -1    0    0    0    0 -0.00000000000E+00 -0.00000000000E+00 -0.10000000000E+04  0.10000000000E+04  0.00000000000E+00 0.  1.
    9000005    2    1    2  501    0 -0.10677497537E-04  0.15304444503E-05 -0.89405254142E+03  0.11059474577E+04  0.65099142269E+03 0.  0.
         13    1    3    3    0    0 -0.11317393561E+02 -0.12541741958E+03 -0.95694052100E+03  0.96519053729E+03  0.00000000000E+00 0.  1.
          1    1    3    3  501    0  0.11317382884E+02  0.12541742111E+03  0.62887979581E+02  0.14075692043E+03  0.00000000000E+00 0.  1.
         21    1    1    2  502  501  0.10677497538E-04 -0.15304444467E-05  0.67295641352E-04  0.68154637104E-04  0.00000000000E+00 0.  1.
<mgrwt>
<rscale>  1 0.65099142E+03</rscale>
<asrwt>0</asrwt>
<pdfrwt beam="1">  1        1 0.38526454E+00 0.65099142E+03</pdfrwt>
<pdfrwt beam="2">0</pdfrwt>
<totfact> 0.15551150E+00</totfact>
</mgrwt>
</event>
<event>
 6    1  0.1866504E-003  0.6474306E+03  0.7818608E-02  0.9811612E-01
          1   -1    0    0  502    0  0.00000000000E+00  0.00000000000E+00  0.10484486320E+03  0.10484486320E+03  0.00000000000E+00 0.  1.
         13   -1    0    0    0    0 -0.00000000000E+00 -0.00000000000E+00 -0.10000000000E+04  0.10000000000E+04  0.00000000000E+00 0.  1.
    9000005    2    1    2  501    0  0.17434842733E-01 -0.68791040785E-02 -0.89520656274E+03  0.11047901282E+04  0.64743064261E+03 0.  0.
         13    1    3    3    0    0 -0.55526669869E+02 -0.31396194267E+03 -0.35202350022E+03  0.47494826794E+03  0.00000000000E+00 0.  1.
          3    1    3    3  501    0  0.55544104711E+02  0.31395506356E+03 -0.54318306251E+03  0.62984186024E+03  0.00000000000E+00 0.  1.
         21    1    1    2  502  501 -0.17434842733E-01  0.68791040785E-02  0.51425934512E-01  0.54735021280E-01  0.00000000000E+00 0.  1.
<mgrwt>
<rscale>  1 0.64743064E+03</rscale>
<asrwt>0</asrwt>
<pdfrwt beam="1">  1        1 0.38125485E+00 0.64743064E+03</pdfrwt>
<pdfrwt beam="2">0</pdfrwt>
<totfact> 0.16209436E+00</totfact>
</mgrwt>
</event>
<event>
 6    1  0.1866504E-003  0.6542362E+03  0.7818608E-02  0.9798863E-01
          1   -1    0    0  502    0  0.00000000000E+00  0.00000000000E+00  0.10706582213E+03  0.10706582213E+03  0.00000000000E+00 0.  1.
         13   -1    0    0    0    0 -0.00000000000E+00 -0.00000000000E+00 -0.10000000000E+04  0.10000000000E+04  0.00000000000E+00 0.  1.
    9000005    2    1    2  501    0  0.63448412770E-01 -0.56769805990E-01 -0.89295799381E+03  0.11069774156E+04  0.65423620561E+03 0.  0.
         13    1    3    3    0    0 -0.25897381496E+02  0.19678453427E+03 -0.65329051983E+01  0.19858878656E+03  0.00000000000E+00 0.  1.
          3    1    3    3  501    0  0.25960829908E+02 -0.19684130408E+03 -0.88642508862E+03  0.90838862906E+03  0.00000000000E+00 0.  1.
         21    1    1    2  502  501 -0.63448412770E-01  0.56769805990E-01  0.23815946631E-01  0.88406511463E-01  0.00000000000E+00 0.  1.
<mgrwt>
<rscale>  1 0.65423621E+03</rscale>
<asrwt>0</asrwt>
<pdfrwt beam="1">  1        1 0.38933108E+00 0.65423621E+03</pdfrwt>
<pdfrwt beam="2">0</pdfrwt>
<totfact> 0.14910532E+00</totfact>
</mgrwt>
</event>
<event>
 6    1  0.1866504E-003  0.6493878E+03  0.7818608E-02  0.9807929E-01
          1   -1    0    0  502    0  0.00000000000E+00  0.00000000000E+00  0.10546001783E+03  0.10546001783E+03  0.00000000000E+00 0.  1.
         13   -1    0    0    0    0 -0.00000000000E+00 -0.00000000000E+00 -0.10000000000E+04  0.10000000000E+04  0.00000000000E+00 0.  1.
    9000005    2    1    2  501    0  0.23713546013E-01 -0.91764892750E-01 -0.89447071399E+03  0.11053426244E+04  0.64938775029E+03 0.  0.
         13    1    3    3    0    0  0.21199045287E+03 -0.14308718056E+03 -0.10671855489E+03  0.27713307870E+03  0.00000000000E+00 0.  1.
          3    1    3    3  501    0 -0.21196673933E+03  0.14299541567E+03 -0.78775215910E+03  0.82820954574E+03  0.00000000000E+00 0.  1.
         21    1    1    2  502  501 -0.23713546013E-01  0.91764892750E-01 -0.69268180598E-01  0.11739339270E+00  0.00000000000E+00 0. -1.
<mgrwt>
<rscale>  1 0.64938776E+03</rscale>
<asrwt>0</asrwt>
<pdfrwt beam="1">  1        1 0.38349178E+00 0.64938776E+03</pdfrwt>
<pdfrwt beam="2">0</pdfrwt>
<totfact> 0.15839079E+00</totfact>
</mgrwt>
</event>
<event>
 6    1  0.1866504E-003  0.6633791E+03  0.7818608E-02  0.9781993E-01
          1   -1    0    0  502    0  0.00000000000E+00  0.00000000000E+00  0.11004959264E+03  0.11004959264E+03  0.00000000000E+00 0.  1.
         13   -1    0    0    0    0 -0.00000000000E+00 -0.00000000000E+00 -0.10000000000E+04  0.10000000000E+04  0.00000000000E+00 0.  1.
    9000005    2    1    2  501    0 -0.86266395395E-02  0.15386349295E-01 -0.88997928445E+03  0.11100157541E+04  0.66337911283E+03 0.  0.
         13    1    3    3    0    0 -0.23650724203E+03  0.13729885162E+02 -0.83345367957E+03  0.86646940008E+03  0.00000000000E+00 0.  1.
          1    1    3    3  501    0  0.23649861539E+03 -0.13714498813E+02 -0.56525604880E+02  0.24354635404E+03  0.00000000000E+00 0.  1.
         21    1    1    2  502  501  0.86266395395E-02 -0.15386349295E-01  0.28877094937E-01  0.33838517497E-01  0.00000000000E+00 0. -1.
<mgrwt>
<rscale>  1 0.66337911E+03</rscale>
<asrwt>0</asrwt>
<pdfrwt beam="1">  1        1 0.40018118E+00 0.66337911E+03</pdfrwt>
<pdfrwt beam="2">0</pdfrwt>
<totfact> 0.13320205E+00</totfact>
</mgrwt>
</event>
<event>
 6    1  0.1866504E-003  0.6482133E+03  0.7818608E-02  0.9810138E-01
          1   -1    0    0  502    0  0.00000000000E+00  0.00000000000E+00  0.10504514390E+03  0.10504514390E+03  0.00000000000E+00 0.  1.
         13   -1    0    0    0    0 -0.00000000000E+00 -0.00000000000E+00 -0.10000000000E+04  0.10000000000E+04  0.00000000000E+00 0.  1.
    9000005    2    1    2  501    0  0.22931112085E-05  0.49764497874E-05 -0.89495487801E+03  0.11050451213E+04  0.64821330321E+03 0.  0.
         13    1    3    3    0    0  0.25368086627E+03  0.17597815887E+03 -0.61557383347E+03  0.68866061218E+03  0.00000000000E+00 0.  1.
          3    1    3    3  501    0 -0.25368086398E+03 -0.17597815389E+03 -0.27938104454E+03  0.41638450913E+03  0.00000000000E+00 0.  1.
         21    1    1    2  502  501 -0.22931112004E-05 -0.49764497915E-05  0.21916708514E-04  0.22591270960E-04  0.00000000000E+00 0.  1.
<mgrwt>
<rscale>  1 0.64821330E+03</rscale>
<asrwt>0</asrwt>
<pdfrwt beam="1">  1        1 0.38198315E+00 0.64821330E+03</pdfrwt>
<pdfrwt beam="2">0</pdfrwt>
<totfact> 0.16087530E+00</totfact>
</mgrwt>
</event>
<event>
 6    1  0.1866504E-003  0.6552189E+03  0.7818608E-02  0.9797035E-01
          1   -1    0    0  502    0  0.00000000000E+00  0.00000000000E+00  0.10736144580E+03  0.10736144580E+03  0.00000000000E+00 0.  1.
         13   -1    0    0    0    0 -0.00000000000E+00 -0.00000000000E+00 -0.10000000000E+04  0.10000000000E+04  0.00000000000E+00 0.  1.
    9000005    2    1    2  501    0  0.31266357338E-01  0.22734953831E-01 -0.89265923436E+03  0.11073176037E+04  0.65521886817E+03 0.  0.
         13    1    3    3    0    0  0.23862123682E+03  0.22394750247E+03 -0.41974618349E+03  0.53224001830E+03  0.00000000000E+00 0.  1.
          1    1    3    3  501    0 -0.23858997046E+03 -0.22392476752E+03 -0.47291305087E+03  0.57507758537E+03  0.00000000000E+00 0.  1.
         21    1    1    2  502  501 -0.31266357338E-01 -0.22734953831E-01  0.20680161019E-01  0.43842129130E-01  0.00000000000E+00 0. -1.
<mgrwt>
<rscale>  1 0.65521887E+03</rscale>
<asrwt>0</asrwt>
<pdfrwt beam="1">  1        1 0.39040608E+00 0.65521887E+03</pdfrwt>
<pdfrwt beam="2">0</pdfrwt>
<totfact> 0.14745074E+00</totfact>
</mgrwt>
</event>
<event>
 6    1  0.1866504E-003  0.6471830E+03  0.7818608E-02  0.9812079E-01
          1   -1    0    0  502    0  0.00000000000E+00  0.00000000000E+00  0.10471153199E+03  0.10471153199E+03  0.00000000000E+00 0.  1.
         13   -1    0    0    0    0 -0.00000000000E+00 -0.00000000000E+00 -0.10000000000E+04  0.10000000000E+04  0.00000000000E+00 0.  1.
    9000005    2    1    2  501    0  0.28501640234E-04 -0.32687620774E-04 -0.89528852261E+03  0.11047114623E+04  0.64718303140E+03 0.  0.
         13    1    3    3    0    0 -0.27783978308E+02  0.32151591224E+03 -0.40699771424E+03  0.51941464233E+03  0.00000000000E+00 0.  1.
          3    1    3    3  501    0  0.27784006810E+02 -0.32151594493E+03 -0.48829080837E+03  0.58529681993E+03  0.00000000000E+00 0.  1.
         21    1    1    2  502  501 -0.28501640236E-04  0.32687620812E-04  0.54603096922E-04  0.69730353821E-04  0.00000000000E+00 0.  1.
<mgrwt>
<rscale>  1 0.64718303E+03</rscale>
<asrwt>0</asrwt>
<pdfrwt beam="1">  1        1 0.38077001E+00 0.64718303E+03</pdfrwt>
<pdfrwt beam="2">0</pdfrwt>
<totfact> 0.16290259E+00</totfact>
</mgrwt>
</event>
<event>
 6    1  0.1866504E-003  0.6456607E+03  0.7818608E-02  0.9814956E-01
          1   -1    0    0  502    0  0.00000000000E+00  0.00000000000E+00  0.10421948895E+03  0.10421948895E+03  0.00000000000E+00 0.  1.
         13   -1    0    0    0    0 -0.00000000000E+00 -0.00000000000E+00 -0.10000000000E+04  0.10000000000E+04  0.00000000000E+00 0.  1.
    9000005    2    1    2  501    0 -0.27134472919E-04  0.49233166379E-05 -0.89578056897E+03  0.11042194248E+04  0.64566067742E+03 0.  0.
         13    1    3    3    0    0 -0.29377170714E+02  0.11908690441E+03  0.62816844207E+02  0.13780662131E+03  0.00000000000E+00 0.  1.
          1    1    3    3  501    0  0.29377143580E+02 -0.11908689949E+03 -0.95859741318E+03  0.96641280349E+03  0.00000000000E+00 0.  1.
         21    1    1    2  502  501  0.27134472918E-04 -0.49233166417E-05  0.57922544906E-04  0.64152473652E-04  0.00000000000E+00 0. -1.
<mgrwt>
<rscale>  1 0.64566068E+03</rscale>
<asrwt>0</asrwt>
<pdfrwt beam="1">  1        1 0.37898076E+00 0.64566068E+03</pdfrwt>
<pdfrwt beam="2">0</pdfrwt>
<totfact> 0.16593716E+00</totfact>
</mgrwt>
</event>
<event>
 6    1  0.1866504E-003  0.6467193E+03  0.7818608E-02  0.9812955E-01
          1   -1    0    0  502    0  0.00000000000E+00  0.00000000000E+00  0.10456293889E+03  0.10456293889E+03  0.00000000000E+00 0.  1.
         13   -1    0    0    0    0 -0.00000000000E+00 -0.00000000000E+00 -0.10000000000E+04  0.10000000000E+04  0.00000000000E+00 0.  1.
    9000005    2    1    2  501    0  0.34897213726E-03 -0.23332901787E-03 -0.89543848974E+03  0.11045614499E+04  0.64671934223E+03 0.  0.
         13    1    3    3    0    0  0.21834372358E+03 -0.23824927197E+03 -0.46680817582E+03  0.56775573113E+03  0.00000000000E+00 0.  1.
          3    1    3    3  501    0 -0.21834337461E+03  0.23824903864E+03 -0.42863031392E+03  0.53680571873E+03  0.00000000000E+00 0.  1.
         21    1    1    2  502  501 -0.34897213724E-03  0.23332901787E-03  0.14286235663E-02  0.14890229271E-02  0.00000000000E+00 0.  1.
<mgrwt>
<rscale>  1 0.64671934E+03</rscale>
<asrwt>0</asrwt>
<pdfrwt beam="1">  1        1 0.38022967E+00 0.64671934E+03</pdfrwt>
<pdfrwt beam="2">0</pdfrwt>
<totfact> 0.16381351E+00</totfact>
</mgrwt>
</event>
<event>
 6    1  0.1866504E-003  0.6465683E+03  0.7818608E-02  0.9813240E-01
          3   -1    0    0  502    0  0.00000000000E+00  0.00000000000E+00  0.11045603293E+03  0.11045603293E+03  0.00000000000E+00 0.  1.
         13   -1    0    0    0    0 -0.00000000000E+00 -0.00000000000E+00 -0.10000000000E+04  0.10000000000E+04  0.00000000000E+00 0.  1.
    9000005    2    1    2  501    0 -0.44232868553E+01  0.61771129919E+00 -0.89454643597E+03  0.11037499365E+04  0.64655289750E+03 0.  0.
         13    1    3    3    0    0  0.24862575463E+03  0.12749007896E+03 -0.17291758367E+03  0.32858633088E+03  0.00000000000E+00 0.  1.
          3    1    3    3  501    0 -0.25304904148E+03 -0.12687236766E+03 -0.72162885230E+03  0.77516360566E+03  0.00000000000E+00 0.  1.
         21    1    1    2  502  501  0.44232868553E+01 -0.61771129919E+00  0.50024688971E+01  0.67060963996E+01  0.00000000000E+00 0.  1.
<mgrwt>
<rscale>  1 0.64656832E+03</rscale>
<asrwt>0</asrwt>
<pdfrwt beam="1">  1        3 0.40165915E+00 0.64656832E+03</pdfrwt>
<pdfrwt beam="2">0</pdfrwt>
<totfact> 0.58100125E-02</totfact>
</mgrwt>
</event>
<event>
 6    1  0.1866504E-003  0.6430230E+03  0.7818608E-02  0.9819960E-01
          1   -1    0    0  502    0  0.00000000000E+00  0.00000000000E+00  0.10339419283E+03  0.10339419283E+03  0.00000000000E+00 0.  1.
         13   -1    0    0    0    0 -0.00000000000E+00 -0.00000000000E+00 -0.10000000000E+04  0.10000000000E+04  0.00000000000E+00 0.  1.
    9000005    2    1    2  501    0  0.19795430414E-02 -0.80307034878E-03 -0.89663030393E+03  0.11033696031E+04  0.64302300047E+03 0.  0.
         13    1    3    3    0    0 -0.13406441430E+03 -0.23783445921E+03 -0.15695835588E+03  0.31491970826E+03  0.00000000000E+00 0.  1.
          1    1    3    3  501    0  0.13406639384E+03  0.23783365614E+03 -0.73967194805E+03  0.78844989485E+03  0.00000000000E+00 0.  1.
         21    1    1    2  502  501 -0.19795430414E-02  0.80307034879E-03  0.24496757388E-01  0.24589726212E-01  0.00000000000E+00 0. -1.
<mgrwt>
<rscale>  1 0.64302300E+03</rscale>
<asrwt>0</asrwt>
<pdfrwt beam="1">  1        1 0.37597968E+00 0.64302300E+03</pdfrwt>
<pdfrwt beam="2">0</pdfrwt>
<totfact> 0.17115090E+00</totfact>
</mgrwt>
</event>
<event>
 6    1  0.1866504E-003  0.6476050E+03  0.7818608E-02  0.9811284E-01
          1   -1    0    0  502    0  0.00000000000E+00  0.00000000000E+00  0.10485007909E+03  0.10485007909E+03  0.00000000000E+00 0.  1.
         13   -1    0    0    0    0 -0.00000000000E+00 -0.00000000000E+00 -0.10000000000E+04  0.10000000000E+04  0.00000000000E+00 0.  1.
    9000005    2    1    2  501    0  0.54118140383E-04  0.14936465742E-04 -0.89515192506E+03  0.11048480742E+04  0.64760504788E+03 0.  0.
         13    1    3    3    0    0  0.32091232844E+03  0.54959537782E+00 -0.52121478357E+03  0.61208649324E+03  0.00000000000E+00 0.  1.
          3    1    3    3  501    0 -0.32091227432E+03 -0.54958044136E+00 -0.37393714149E+03  0.49276158092E+03  0.00000000000E+00 0.  1.
         21    1    1    2  502  501 -0.54118140425E-04 -0.14936465742E-04  0.20041484361E-02  0.20049346187E-02  0.00000000000E+00 0.  1.
<mgrwt>
<rscale>  1 0.64760505E+03</rscale>
<asrwt>0</asrwt>
<pdfrwt beam="1">  1        1 0.38127382E+00 0.64760505E+03</pdfrwt>
<pdfrwt beam="2">0</pdfrwt>
<totfact> 0.16205791E+00</totfact>
</mgrwt>
</event>
<event>
 6    1  0.1866504E-003  0.6124606E+03  0.7818608E-02  0.9879886E-01
          1   -1    0    0  502    0  0.00000000000E+00  0.00000000000E+00  0.93777281287E+02  0.93777281287E+02  0.00000000000E+00 0.  1.
         13   -1    0    0    0    0 -0.00000000000E+00 -0.00000000000E+00 -0.10000000000E+04  0.10000000000E+04  0.00000000000E+00 0.  1.
    9000005    2    1    2  501    0 -0.46424056336E-04  0.69037556514E-04 -0.90622300957E+03  0.10937769788E+04  0.61246055889E+03 0.  0.
         13    1    3    3    0    0 -0.95065876190E+02  0.12791961686E+03 -0.92009623506E+03  0.93379763919E+03  0.00000000000E+00 0.  1.
          3    1    3    3  501    0  0.95065829766E+02 -0.12791954782E+03  0.13873225487E+02  0.15997933957E+03  0.00000000000E+00 0.  1.
         21    1    1    2  502  501  0.46424056325E-04 -0.69037556510E-04  0.29085865862E-03  0.30252295204E-03  0.00000000000E+00 0. -1.
<mgrwt>
<rscale>  1 0.61246056E+03</rscale>
<asrwt>0</asrwt>
<pdfrwt beam="1">  1        1 0.34100901E+00 0.61246056E+03</pdfrwt>
<pdfrwt beam="2">0</pdfrwt>
<totfact> 0.24471681E+00</totfact>
</mgrwt>
</event>
<event>
 6    1  0.1866504E-003  0.6757498E+03  0.7818608E-02  0.9759626E-01
          1   -1    0    0  502    0  0.00000000000E+00  0.00000000000E+00  0.12432077428E+03  0.12432077428E+03  0.00000000000E+00 0.  1.
         13   -1    0    0    0    0 -0.00000000000E+00 -0.00000000000E+00 -0.10000000000E+04  0.10000000000E+04  0.00000000000E+00 0.  1.
    9000005    2    1    2  501    0 -0.14002169393E+00 -0.32553460723E+00 -0.88583712393E+03  0.11141566966E+04  0.67574966436E+03 0.  0.
         13    1    3    3    0    0 -0.21666527218E+03  0.24533494242E+03 -0.30510530520E+03  0.44746208935E+03  0.00000000000E+00 0.  1.
          3    1    3    3  501    0  0.21652525049E+03 -0.24566047702E+03 -0.58073181873E+03  0.66669460726E+03  0.00000000000E+00 0.  1.
         21    1    1    2  502  501  0.14002169393E+00  0.32553460723E+00  0.10157898213E+02  0.10164077674E+02  0.00000000000E+00 0.  1.
<mgrwt>
<rscale>  1 0.67574976E+03</rscale>
<asrwt>0</asrwt>
<pdfrwt beam="1">  1        1 0.45207650E+00 0.67574976E+03</pdfrwt>
<pdfrwt beam="2">0</pdfrwt>
<totfact> 0.77305333E-01</totfact>
</mgrwt>
</event>
<event>
 6    1  0.1866504E-003  0.6472903E+03  0.7818608E-02  0.9811877E-01
          1   -1    0    0  502    0  0.00000000000E+00  0.00000000000E+00  0.10474786082E+03  0.10474786082E+03  0.00000000000E+00 0.  1.
         13   -1    0    0    0    0 -0.00000000000E+00 -0.00000000000E+00 -0.10000000000E+04  0.10000000000E+04  0.00000000000E+00 0.  1.
    9000005    2    1    2  501    0  0.17465489387E-03 -0.10282023507E-03 -0.89525380455E+03  0.11047461832E+04  0.64729031712E+03 0.  0.
         13    1    3    3    0    0  0.77219440642E+02 -0.24807603830E+03 -0.77699236192E+03  0.81928120525E+03  0.00000000000E+00 0.  1.
          1    1    3    3  501    0 -0.77219265987E+02  0.24807593548E+03 -0.11826144263E+03  0.28546497791E+03  0.00000000000E+00 0.  1.
         21    1    1    2  502  501 -0.17465489387E-03  0.10282023509E-03  0.16653745375E-02  0.16776616711E-02  0.00000000000E+00 0.  1.
<mgrwt>
<rscale>  1 0.64729032E+03</rscale>
<asrwt>0</asrwt>
<pdfrwt beam="1">  1        1 0.38090212E+00 0.64729032E+03</pdfrwt>
<pdfrwt beam="2">0</pdfrwt>
<totfact> 0.16268080E+00</totfact>
</mgrwt>
</event>
<event>
 6    1  0.1866504E-003  0.6495480E+03  0.7818608E-02  0.9807628E-01
          1   -1    0    0  502    0  0.00000000000E+00  0.00000000000E+00  0.10583766827E+03  0.10583766827E+03  0.00000000000E+00 0.  1.
         13   -1    0    0    0    0 -0.00000000000E+00 -0.00000000000E+00 -0.10000000000E+04  0.10000000000E+04  0.00000000000E+00 0.  1.
    9000005    2    1    2  501    0 -0.79645990094E-02 -0.15854884249E-02 -0.89452180090E+03  0.11054781074E+04  0.64954799172E+03 0.  0.
         13    1    3    3    0    0 -0.23119530981E+02 -0.36256062404E+02 -0.99513497223E+03  0.99606356611E+03  0.00000000000E+00 0.  1.
          3    1    3    3  501    0  0.23111566382E+02  0.36254476915E+02  0.10061317133E+03  0.10941454127E+03  0.00000000000E+00 0.  1.
         21    1    1    2  502  501  0.79645990094E-02  0.15854884249E-02  0.35946916619E+00  0.35956088504E+00  0.00000000000E+00 0.  1.
<mgrwt>
<rscale>  1 0.64954799E+03</rscale>
<asrwt>0</asrwt>
<pdfrwt beam="1">  1        1 0.38486506E+00 0.64954799E+03</pdfrwt>
<pdfrwt beam="2">0</pdfrwt>
<totfact> 0.15618717E+00</totfact>
</mgrwt>
</event>
<event>
 6    1  0.1866504E-003  0.6346391E+03  0.7818608E-02  0.9836038E-01
          3   -1    0    0  502    0  0.00000000000E+00  0.00000000000E+00  0.10069233051E+03  0.10069233051E+03  0.00000000000E+00 0.  1.
         13   -1    0    0    0    0 -0.00000000000E+00 -0.00000000000E+00 -0.10000000000E+04  0.10000000000E+04  0.00000000000E+00 0.  1.
    9000005    2    1    2  501    0 -0.91618066165E-05 -0.12508996292E-04 -0.89930830303E+03  0.11006916968E+04  0.63463910017E+03 0.  0.
         13    1    3    3    0    0 -0.18839186867E+03  0.22853824705E+03 -0.25213158792E+03  0.38896216291E+03  0.00000000000E+00 0.  1.
          1    1    3    3  501    0  0.18839185951E+03 -0.22853825956E+03 -0.64717671511E+03  0.71172953387E+03  0.00000000000E+00 0.  1.
         21    1    1    2  502  501  0.91618065919E-05  0.12508996293E-04  0.63353908143E-03  0.63372879167E-03  0.00000000000E+00 0. -1.
<mgrwt>
<rscale>  1 0.63463910E+03</rscale>
<asrwt>0</asrwt>
<pdfrwt beam="1">  1        3 0.36615470E+00 0.63463910E+03</pdfrwt>
<pdfrwt beam="2">0</pdfrwt>
<totfact> 0.89578662E-02</totfact>
</mgrwt>
</event>
<event>
 6    1  0.1866504E-003  0.6490962E+03  0.7818608E-02  0.9808477E-01
          1   -1    0    0  502    0  0.00000000000E+00  0.00000000000E+00  0.10533334103E+03  0.10533334103E+03  0.00000000000E+00 0.  1.
         13   -1    0    0    0    0 -0.00000000000E+00 -0.00000000000E+00 -0.10000000000E+04  0.10000000000E+04  0.00000000000E+00 0.  1.
    9000005    2    1    2  501    0  0.12387210757E-03  0.15575228937E-03 -0.89466852792E+03  0.11053314615E+04  0.64909619083E+03 0.  0.
         13    1    3    3    0    0  0.18889490614E+03 -0.15007106248E+03 -0.77653439377E+02  0.25344164221E+03  0.00000000000E+00 0.  1.
          3    1    3    3  501    0 -0.18889478227E+03  0.15007121823E+03 -0.81701508855E+03  0.85188981930E+03  0.00000000000E+00 0.  1.
         21    1    1    2  502  501 -0.12387210755E-03 -0.15575228936E-03  0.18689487245E-02  0.18795138758E-02  0.00000000000E+00 0.  1.
<mgrwt>
<rscale>  1 0.64909619E+03</rscale>
<asrwt>0</asrwt>
<pdfrwt beam="1">  1        1 0.38303114E+00 0.64909619E+03</pdfrwt>
<pdfrwt beam="2">0</pdfrwt>
<totfact> 0.15914355E+00</totfact>
</mgrwt>
</event>
<event>
 6    1  0.1866504E-003  0.6538095E+03  0.7818608E-02  0.9799657E-01
          1   -1    0    0  502    0  0.00000000000E+00  0.00000000000E+00  0.11789505214E+03  0.11789505214E+03  0.00000000000E+00 0.  1.
         13   -1    0    0    0    0 -0.00000000000E+00 -0.00000000000E+00 -0.10000000000E+04  0.10000000000E+04  0.00000000000E+00 0.  1.
    9000005    2    1    2  501    0 -0.40801738008E+00 -0.54157372064E+00 -0.89312175598E+03  0.11068573965E+04  0.65380912005E+03 0.  0.
         13    1    3    3    0    0 -0.12567902608E+03 -0.29229466390E+03 -0.57642505665E+03  0.65840506838E+03  0.00000000000E+00 0.  1.
          1    1    3    3  501    0  0.12527100870E+03  0.29175309018E+03 -0.31669669934E+03  0.44845232814E+03  0.00000000000E+00 0.  1.
         21    1    1    2  502  501  0.40801738008E+00  0.54157372064E+00  0.11016808124E+02  0.11037655617E+02  0.00000000000E+00 0.  1.
<mgrwt>
<rscale>  1 0.65380947E+03</rscale>
<asrwt>0</asrwt>
<pdfrwt beam="1">  1        1 0.42871018E+00 0.65380947E+03</pdfrwt>
<pdfrwt beam="2">0</pdfrwt>
<totfact> 0.99318952E-01</totfact>
</mgrwt>
</event>
<event>
 6    1  0.1866504E-003  0.6420547E+03  0.7818608E-02  0.9821803E-01
          1   -1    0    0  502    0  0.00000000000E+00  0.00000000000E+00  0.10305861538E+03  0.10305861538E+03  0.00000000000E+00 0.  1.
         13   -1    0    0    0    0 -0.00000000000E+00 -0.00000000000E+00 -0.10000000000E+04  0.10000000000E+04  0.00000000000E+00 0.  1.
    9000005    2    1    2  501    0 -0.39922791927E-04 -0.16817771041E-04 -0.89694144641E+03  0.11030585399E+04  0.64205465826E+03 0.  0.
         13    1    3    3    0    0 -0.65686638708E+02 -0.31417925065E+03 -0.43827524405E+03  0.54323892128E+03  0.00000000000E+00 0.  1.
          1    1    3    3  501    0  0.65686598785E+02  0.31417923383E+03 -0.45866620236E+03  0.55981961864E+03  0.00000000000E+00 0.  1.
         21    1    1    2  502  501  0.39922791929E-04  0.16817771013E-04  0.61791073068E-04  0.75463921500E-04  0.00000000000E+00 0.  1.
<mgrwt>
<rscale>  1 0.64205466E+03</rscale>
<asrwt>0</asrwt>
<pdfrwt beam="1">  1        1 0.37475939E+00 0.64205466E+03</pdfrwt>
<pdfrwt beam="2">0</pdfrwt>
<totfact> 0.17331196E+00</totfact>
</mgrwt>
</event>
<event>
 6    1  0.1866504E-003  0.6511468E+03  0.7818608E-02  0.9804630E-01
          1   -1    0    0  502    0  0.00000000000E+00  0.00000000000E+00  0.10606281652E+03  0.10606281652E+03  0.00000000000E+00 0.  1.
         13   -1    0    0    0    0 -0.00000000000E+00 -0.00000000000E+00 -0.10000000000E+04  0.10000000000E+04  0.00000000000E+00 0.  1.
    9000005    2    1    2  501    0 -0.34129451504E-01 -0.88269818451E-03 -0.89399695931E+03  0.11059939780E+04  0.65114676905E+03 0.  0.
         13    1    3    3    0    0 -0.22831638018E+03 -0.16448788115E+03 -0.72518762630E+03  0.77786999290E+03  0.00000000000E+00 0.  1.
          1    1    3    3  501    0  0.22828225073E+03  0.16448699845E+03 -0.16880933300E+03  0.32812398506E+03  0.00000000000E+00 0.  1.
         21    1    1    2  502  501  0.34129451504E-01  0.88269818452E-03  0.59775831972E-01  0.68838569887E-01  0.00000000000E+00 0.  1.
<mgrwt>
<rscale>  1 0.65114677E+03</rscale>
<asrwt>0</asrwt>
<pdfrwt beam="1">  1        1 0.38568378E+00 0.65114677E+03</pdfrwt>
<pdfrwt beam="2">0</pdfrwt>
<totfact> 0.15484429E+00</totfact>
</mgrwt>
</event>
<event>
 6    1  0.1866504E-003  0.6313200E+03  0.7818608E-02  0.9842476E-01
          1   -1    0    0  502    0  0.00000000000E+00  0.00000000000E+00  0.99682152566E+02  0.99682152566E+02  0.00000000000E+00 0.  1.
         13   -1    0    0    0    0 -0.00000000000E+00 -0.00000000000E+00 -0.10000000000E+04  0.10000000000E+04  0.00000000000E+00 0.  1.
    9000005    2    1    2  501    0  0.10567526328E-01 -0.12010789632E+00 -0.90021595879E+03  0.10995242954E+04  0.63131995790E+03 0.  0.
         13    1    3    3    0    0  0.22789119972E+03 -0.19718028874E+03 -0.61403587982E+03  0.68399892316E+03  0.00000000000E+00 0.  1.
          1    1    3    3  501    0 -0.22788063220E+03  0.19706018084E+03 -0.28618007897E+03  0.41552537227E+03  0.00000000000E+00 0.  1.
         21    1    1    2  502  501 -0.10567526328E-01  0.12010789632E+00 -0.10188864202E+00  0.15785713396E+00  0.00000000000E+00 0. -1.
<mgrwt>
<rscale>  1 0.63131997E+03</rscale>
<asrwt>0</asrwt>
<pdfrwt beam="1">  1        1 0.36248132E+00 0.63131997E+03</pdfrwt>
<pdfrwt beam="2">0</pdfrwt>
<totfact> 0.19659333E+00</totfact>
</mgrwt>
</event>
<event>
 6    1  0.1866504E-003  0.6414103E+03  0.7818608E-02  0.9823032E-01
          1   -1    0    0  502    0  0.00000000000E+00  0.00000000000E+00  0.10285601525E+03  0.10285601525E+03  0.00000000000E+00 0.  1.
         13   -1    0    0    0    0 -0.00000000000E+00 -0.00000000000E+00 -0.10000000000E+04  0.10000000000E+04  0.00000000000E+00 0.  1.
    9000005    2    1    2  501    0  0.41568753523E-02  0.96618305075E-02 -0.89713917331E+03  0.11028444489E+04  0.64141030712E+03 0.  0.
         13    1    3    3    0    0 -0.33175130889E+02  0.30348525421E+03 -0.27966474841E+03  0.41402446828E+03  0.00000000000E+00 0.  1.
          1    1    3    3  501    0  0.33179287765E+02 -0.30347559238E+03 -0.61747442489E+03  0.68881998062E+03  0.00000000000E+00 0.  1.
         21    1    1    2  502  501 -0.41568753523E-02 -0.96618305075E-02 -0.48114385127E-02  0.11566353013E-01  0.00000000000E+00 0. -1.
<mgrwt>
<rscale>  1 0.64141031E+03</rscale>
<asrwt>0</asrwt>
<pdfrwt beam="1">  1        1 0.37402266E+00 0.64141031E+03</pdfrwt>
<pdfrwt beam="2">0</pdfrwt>
<totfact> 0.17463116E+00</totfact>
</mgrwt>
</event>
<event>
 6    1  0.1866504E-003  0.6560323E+03  0.7818608E-02  0.9795525E-01
          1   -1    0    0  502    0  0.00000000000E+00  0.00000000000E+00  0.10878637222E+03  0.10878637222E+03  0.00000000000E+00 0.  1.
         13   -1    0    0    0    0 -0.00000000000E+00 -0.00000000000E+00 -0.10000000000E+04  0.10000000000E+04  0.00000000000E+00 0.  1.
    9000005    2    1    2  501    0 -0.63259595319E+00 -0.10517938675E+01 -0.89204477686E+03  0.11073040576E+04  0.65603116199E+03 0.  0.
         13    1    3    3    0    0 -0.16215654922E+03  0.19638444791E+03 -0.79429557882E+03  0.83412652779E+03  0.00000000000E+00 0.  1.
          3    1    3    3  501    0  0.16152395326E+03 -0.19743624178E+03 -0.97749198041E+02  0.27317752976E+03  0.00000000000E+00 0.  1.
         21    1    1    2  502  501  0.63259595319E+00  0.10517938675E+01  0.83114907956E+00  0.14823146671E+01  0.00000000000E+00 0. -1.
<mgrwt>
<rscale>  1 0.65603231E+03</rscale>
<asrwt>0</asrwt>
<pdfrwt beam="1">  1        1 0.39558764E+00 0.65603231E+03</pdfrwt>
<pdfrwt beam="2">0</pdfrwt>
<totfact> 0.13981902E+00</totfact>
</mgrwt>
</event>
<event>
 6    1  0.1866504E-003  0.6458076E+03  0.7818608E-02  0.9814678E-01
          1   -1    0    0  502    0  0.00000000000E+00  0.00000000000E+00  0.10428429712E+03  0.10428429712E+03  0.00000000000E+00 0.  1.
         13   -1    0    0    0    0 -0.00000000000E+00 -0.00000000000E+00 -0.10000000000E+04  0.10000000000E+04  0.00000000000E+00 0.  1.
    9000005    2    1    2  501    0  0.17454020521E-02 -0.24508683533E-03 -0.89573307620E+03  0.11042668346E+04  0.64580763253E+03 0.  0.
         13    1    3    3    0    0  0.79054864907E+02  0.54536873601E+02  0.79279361904E+02  0.12453577587E+03  0.00000000000E+00 0.  1.
          1    1    3    3  501    0 -0.79053119505E+02 -0.54537118688E+02 -0.97501243811E+03  0.97973105875E+03  0.00000000000E+00 0.  1.
         21    1    1    2  502  501 -0.17454020521E-02  0.24508683534E-03  0.17373318524E-01  0.17462493877E-01  0.00000000000E+00 0.  1.
<mgrwt>
<rscale>  1 0.64580763E+03</rscale>
<asrwt>0</asrwt>
<pdfrwt beam="1">  1        1 0.37921643E+00 0.64580763E+03</pdfrwt>
<pdfrwt beam="2">0</pdfrwt>
<totfact> 0.16553604E+00</totfact>
</mgrwt>
</event>
<event>
 6    1  0.1866504E-003  0.6577815E+03  0.7818608E-02  0.9792286E-01
          1   -1    0    0  502    0  0.00000000000E+00  0.00000000000E+00  0.10819868211E+03  0.10819868211E+03  0.00000000000E+00 0.  1.
         13   -1    0    0    0    0 -0.00000000000E+00 -0.00000000000E+00 -0.10000000000E+04  0.10000000000E+04  0.00000000000E+00 0.  1.
    9000005    2    1    2  501    0  0.31463166351E-04  0.46371063284E-02 -0.89183068306E+03  0.11081689530E+04  0.65778146920E+03 0.  0.
         13    1    3    3    0    0 -0.21226765948E+03  0.17464393290E+03 -0.75015404707E+03  0.79893000751E+03  0.00000000000E+00 0.  1.
          3    1    3    3  501    0  0.21226769095E+03 -0.17463929579E+03 -0.14167663599E+03  0.30923894554E+03  0.00000000000E+00 0.  1.
         21    1    1    2  502  501 -0.31463166343E-04 -0.46371063284E-02  0.29365173440E-01  0.29729062484E-01  0.00000000000E+00 0. -1.
<mgrwt>
<rscale>  1 0.65778147E+03</rscale>
<asrwt>0</asrwt>
<pdfrwt beam="1">  1        1 0.39345058E+00 0.65778147E+03</pdfrwt>
<pdfrwt beam="2">0</pdfrwt>
<totfact> 0.14286458E+00</totfact>
</mgrwt>
</event>
<event>
 6    1  0.1866504E-003  0.6566179E+03  0.7818608E-02  0.9794440E-01
          1   -1    0    0  502    0  0.00000000000E+00  0.00000000000E+00  0.11911141323E+03  0.11911141323E+03  0.00000000000E+00 0.  1.
         13   -1    0    0    0    0 -0.00000000000E+00 -0.00000000000E+00 -0.10000000000E+04  0.10000000000E+04  0.00000000000E+00 0.  1.
    9000005    2    1    2  501    0 -0.58023897045E+00  0.73747087616E-01 -0.89220487176E+03  0.11077800222E+04  0.65661762263E+03 0.  0.
         13    1    3    3    0    0 -0.12290469182E+03 -0.48876236174E+02  0.60898656011E+02  0.14561282923E+03  0.00000000000E+00 0.  1.
          1    1    3    3  501    0  0.12232445285E+03  0.48949983262E+02 -0.95310352777E+03  0.96216719300E+03  0.00000000000E+00 0.  1.
         21    1    1    2  502  501  0.58023897045E+00 -0.73747087616E-01  0.11316284995E+02  0.11331391000E+02  0.00000000000E+00 0.  1.
<mgrwt>
<rscale>  1 0.65661788E+03</rscale>
<asrwt>0</asrwt>
<pdfrwt beam="1">  1        1 0.43313333E+00 0.65661788E+03</pdfrwt>
<pdfrwt beam="2">0</pdfrwt>
<totfact> 0.94774784E-01</totfact>
</mgrwt>
</event>
<event>
 6    1  0.1866504E-003  0.6663161E+03  0.7818608E-02  0.9776636E-01
          1   -1    0    0  502    0  0.00000000000E+00  0.00000000000E+00  0.13440160683E+03  0.13440160683E+03  0.00000000000E+00 0.  1.
         13   -1    0    0    0    0 -0.00000000000E+00 -0.00000000000E+00 -0.10000000000E+04  0.10000000000E+04  0.00000000000E+00 0.  1.
    9000005    2    1    2  501    0 -0.23189333605E+02  0.22596096378E+02 -0.87579897389E+03  0.11004548749E+04  0.66552893263E+03 0.  0.
         13    1    3    3    0    0 -0.10098759233E+03 -0.25064077160E+03 -0.73557075635E+03  0.78363488168E+03  0.00000000000E+00 0.  1.
          3    1    3    3  501    0  0.77798258728E+02  0.27323686798E+03 -0.14022821754E+03  0.31681999318E+03  0.00000000000E+00 0.  1.
         21    1    1    2  502  501  0.23189333605E+02 -0.22596096378E+02  0.10200580718E+02  0.33946731972E+02  0.00000000000E+00 0. -1.
<mgrwt>
<rscale>  1 0.66631606E+03</rscale>
<asrwt>0</asrwt>
<pdfrwt beam="1">  1        1 0.48873415E+00 0.66631606E+03</pdfrwt>
<pdfrwt beam="2">0</pdfrwt>
<totfact> 0.52156819E-01</totfact>
</mgrwt>
</event>
<event>
 6    1  0.1866504E-003  0.6439710E+03  0.7818608E-02  0.9818158E-01
          1   -1    0    0  502    0  0.00000000000E+00  0.00000000000E+00  0.10581004242E+03  0.10581004242E+03  0.00000000000E+00 0.  1.
         13   -1    0    0    0    0 -0.00000000000E+00 -0.00000000000E+00 -0.10000000000E+04  0.10000000000E+04  0.00000000000E+00 0.  1.
    9000005    2    1    2  501    0  0.80169138645E-02 -0.64919882336E-01 -0.89632478329E+03  0.11036742148E+04  0.64397100166E+03 0.  0.
         13    1    3    3    0    0 -0.23618509893E+02 -0.28254639125E+03 -0.18657856683E+03  0.33941399326E+03  0.00000000000E+00 0.  1.
          3    1    3    3  501    0  0.23626526806E+02  0.28248147137E+03 -0.70974621646E+03  0.76426022153E+03  0.00000000000E+00 0.  1.
         21    1    1    2  502  501 -0.80169138645E-02  0.64919882336E-01  0.21348257119E+01  0.21358276340E+01  0.00000000000E+00 0. -1.
<mgrwt>
<rscale>  1 0.64397100E+03</rscale>
<asrwt>0</asrwt>
<pdfrwt beam="1">  1        1 0.38476460E+00 0.64397100E+03</pdfrwt>
<pdfrwt beam="2">0</pdfrwt>
<totfact> 0.15650884E+00</totfact>
</mgrwt>
</event>
<event>
 6    1  0.1866504E-003  0.6484641E+03  0.7818608E-02  0.9809666E-01
          1   -1    0    0  502    0  0.00000000000E+00  0.00000000000E+00  0.10512753466E+03  0.10512753466E+03  0.00000000000E+00 0.  1.
         13   -1    0    0    0    0 -0.00000000000E+00 -0.00000000000E+00 -0.10000000000E+04  0.10000000000E+04  0.00000000000E+00 0.  1.
    9000005    2    1    2  501    0 -0.18555269889E-04 -0.99447036121E-04 -0.89487358181E+03  0.11051264136E+04  0.64846407970E+03 0.  0.
         13    1    3    3    0    0 -0.29291041260E+03 -0.13381996331E+03 -0.51170523534E+03  0.60460444943E+03  0.00000000000E+00 0.  1.
          3    1    3    3  501    0  0.29291039405E+03  0.13381986386E+03 -0.38316834647E+03  0.50052196419E+03  0.00000000000E+00 0.  1.
         21    1    1    2  502  501  0.18555269885E-04  0.99447036108E-04  0.11164671686E-02  0.11210410115E-02  0.00000000000E+00 0.  1.
<mgrwt>
<rscale>  1 0.64846408E+03</rscale>
<asrwt>0</asrwt>
<pdfrwt beam="1">  1        1 0.38228275E+00 0.64846408E+03</pdfrwt>
<pdfrwt beam="2">0</pdfrwt>
<totfact> 0.16037845E+00</totfact>
</mgrwt>
</event>
<event>
 6    1  0.1866504E-003  0.6678656E+03  0.7818608E-02  0.9773821E-01
          1   -1    0    0  502    0  0.00000000000E+00  0.00000000000E+00  0.11151189496E+03  0.11151189496E+03  0.00000000000E+00 0.  1.
         13   -1    0    0    0    0 -0.00000000000E+00 -0.00000000000E+00 -0.10000000000E+04  0.10000000000E+04  0.00000000000E+00 0.  1.
    9000005    2    1    2  501    0 -0.97406059325E-05  0.70542061792E-05 -0.88848888574E+03  0.11115111142E+04  0.66786559787E+03 0.  0.
         13    1    3    3    0    0  0.68763510553E+02  0.16656882660E+03 -0.91213188656E+03  0.92976242818E+03  0.00000000000E+00 0.  1.
          3    1    3    3  501    0 -0.68763520294E+02 -0.16656881955E+03  0.23643000819E+02  0.18174868598E+03  0.00000000000E+00 0.  1.
         21    1    1    2  502  501  0.97406059234E-05 -0.70542061801E-05  0.78070134169E-03  0.78079397164E-03  0.00000000000E+00 0.  1.
<mgrwt>
<rscale>  1 0.66786560E+03</rscale>
<asrwt>0</asrwt>
<pdfrwt beam="1">  1        1 0.40549865E+00 0.66786560E+03</pdfrwt>
<pdfrwt beam="2">0</pdfrwt>
<totfact> 0.12600679E+00</totfact>
</mgrwt>
</event>
<event>
 6    1  0.1866504E-003  0.6897574E+03  0.7818608E-02  0.9734910E-01
          1   -1    0    0  502    0  0.00000000000E+00  0.00000000000E+00  0.12049816661E+03  0.12049816661E+03  0.00000000000E+00 0.  1.
         13   -1    0    0    0    0 -0.00000000000E+00 -0.00000000000E+00 -0.10000000000E+04  0.10000000000E+04  0.00000000000E+00 0.  1.
    9000005    2    1    2  501    0 -0.78244107029E-01  0.61983628303E-02 -0.88105757468E+03  0.11189404466E+04  0.68975739723E+03 0.  0.
         13    1    3    3    0    0  0.46194629561E+02 -0.20432873673E+03  0.38991205020E+01  0.20952178787E+03  0.00000000000E+00 0.  1.
          3    1    3    3  501    0 -0.46272873668E+02  0.20433493509E+03 -0.88495669519E+03  0.90941865876E+03  0.00000000000E+00 0.  1.
         21    1    1    2  502  501  0.78244107029E-01 -0.61983628303E-02  0.15557412967E+01  0.15577199820E+01  0.00000000000E+00 0. -1.
<mgrwt>
<rscale>  1 0.68975740E+03</rscale>
<asrwt>0</asrwt>
<pdfrwt beam="1">  1        1 0.43817608E+00 0.68975740E+03</pdfrwt>
<pdfrwt beam="2">0</pdfrwt>
<totfact> 0.89300458E-01</totfact>
</mgrwt>
</event>
<event>
 6    1  0.1866504E-003  0.6502410E+03  0.7818608E-02  0.9806327E-01
          1   -1    0    0  502    0  0.00000000000E+00  0.00000000000E+00  0.11174230548E+03  0.11174230548E+03  0.00000000000E+00 0.  1.
         13   -1    0    0    0    0 -0.00000000000E+00 -0.00000000000E+00 -0.10000000000E+04  0.10000000000E+04  0.00000000000E+00 0.  1.
    9000005    2    1    2  501    0 -0.16005605338E+02  0.14740332571E+01 -0.84959408176E+03  0.10698707504E+04  0.65004228059E+03 0.  0.
         13    1    3    3    0    0  0.31172037907E+03  0.34555793545E+02 -0.33514490681E+03  0.45900523543E+03  0.00000000000E+00 0.  1.
          3    1    3    3  501    0 -0.32772598441E+03 -0.33081760288E+02 -0.51444917495E+03  0.61086551493E+03  0.00000000000E+00 0.  1.
         21    1    1    2  502  501  0.16005605338E+02 -0.14740332571E+01 -0.38663612763E+02  0.41871555120E+02  0.00000000000E+00 0.  1.
<mgrwt>
<rscale>  1 0.65024097E+03</rscale>
<asrwt>0</asrwt>
<pdfrwt beam="1">  1        1 0.40633651E+00 0.65024097E+03</pdfrwt>
<pdfrwt beam="2">0</pdfrwt>
<totfact> 0.12534345E+00</totfact>
</mgrwt>
</event>
<event>
 6    1  0.1866504E-003  0.6379315E+03  0.7818608E-02  0.9829692E-01
          1   -1    0    0  502    0  0.00000000000E+00  0.00000000000E+00  0.10174188100E+03  0.10174188100E+03  0.00000000000E+00 0.  1.
         13   -1    0    0    0    0 -0.00000000000E+00 -0.00000000000E+00 -0.10000000000E+04  0.10000000000E+04  0.00000000000E+00 0.  1.
    9000005    2    1    2  501    0  0.43702389418E-03 -0.25365569336E-02 -0.89826014988E+03  0.11017386023E+04  0.63793154102E+03 0.  0.
         13    1    3    3    0    0 -0.82604313991E+02  0.19098150910E+03 -0.86663632365E+03  0.89126647361E+03  0.00000000000E+00 0.  1.
          3    1    3    3  501    0  0.82604751014E+02 -0.19098404566E+03 -0.31623826226E+02  0.21047212873E+03  0.00000000000E+00 0.  1.
         21    1    1    2  502  501 -0.43702389418E-03  0.25365569336E-02  0.20308752754E-02  0.32786529773E-02  0.00000000000E+00 0.  1.
<mgrwt>
<rscale>  1 0.63793154E+03</rscale>
<asrwt>0</asrwt>
<pdfrwt beam="1">  1        1 0.36997126E+00 0.63793154E+03</pdfrwt>
<pdfrwt beam="2">0</pdfrwt>
<totfact> 0.18205664E+00</totfact>
</mgrwt>
</event>
<event>
 6    1  0.1866504E-003  0.6578988E+03  0.7818608E-02  0.9792069E-01
          1   -1    0    0  502    0  0.00000000000E+00  0.00000000000E+00  0.10821422449E+03  0.10821422449E+03  0.00000000000E+00 0.  1.
         13   -1    0    0    0    0 -0.00000000000E+00 -0.00000000000E+00 -0.10000000000E+04  0.10000000000E+04  0.00000000000E+00 0.  1.
    9000005    2    1    2  501    0  0.93030617552E-02  0.28493184366E-02 -0.89178796644E+03  0.11082042512E+04  0.65789884122E+03 0.  0.
         13    1    3    3    0    0  0.20318060139E+03  0.13778619940E+03 -0.81472468742E+03  0.85090758006E+03  0.00000000000E+00 0.  1.
          3    1    3    3  501    0 -0.20317129833E+03 -0.13778335008E+03 -0.77063279021E+02  0.25729667117E+03  0.00000000000E+00 0.  1.
         21    1    1    2  502  501 -0.93030617552E-02 -0.28493184366E-02  0.21909237844E-02  0.99732502527E-02  0.00000000000E+00 0. -1.
<mgrwt>
<rscale>  1 0.65789884E+03</rscale>
<asrwt>0</asrwt>
<pdfrwt beam="1">  1        1 0.39350710E+00 0.65789884E+03</pdfrwt>
<pdfrwt beam="2">0</pdfrwt>
<totfact> 0.14277888E+00</totfact>
</mgrwt>
</event>
<event>
 6    1  0.1866504E-003  0.6433757E+03  0.7818608E-02  0.9819289E-01
          1   -1    0    0  502    0  0.00000000000E+00  0.00000000000E+00  0.10348563688E+03  0.10348563688E+03  0.00000000000E+00 0.  1.
         13   -1    0    0    0    0 -0.00000000000E+00 -0.00000000000E+00 -0.10000000000E+04  0.10000000000E+04  0.00000000000E+00 0.  1.
    9000005    2    1    2  501    0  0.20147481743E-02  0.31053656017E-02 -0.89651537949E+03  0.11034817982E+04  0.64337567040E+03 0.  0.
         13    1    3    3    0    0 -0.23182493558E+02 -0.18187079818E+03  0.51000958367E+01  0.18341326619E+03  0.00000000000E+00 0.  1.
          3    1    3    3  501    0  0.23184508306E+02  0.18187390355E+03 -0.90161547533E+03  0.92006853200E+03  0.00000000000E+00 0.  1.
         21    1    1    2  502  501 -0.20147481743E-02 -0.31053656017E-02  0.10163709608E-02  0.38386867098E-02  0.00000000000E+00 0. -1.
<mgrwt>
<rscale>  1 0.64337567E+03</rscale>
<asrwt>0</asrwt>
<pdfrwt beam="1">  1        1 0.37631220E+00 0.64337567E+03</pdfrwt>
<pdfrwt beam="2">0</pdfrwt>
<totfact> 0.17056372E+00</totfact>
</mgrwt>
</event>
<event>
 6    1  0.1866504E-003  0.6313155E+03  0.7818608E-02  0.9842485E-01
          1   -1    0    0  502    0  0.00000000000E+00  0.00000000000E+00  0.10038782525E+03  0.10038782525E+03  0.00000000000E+00 0.  1.
         13   -1    0    0    0    0 -0.00000000000E+00 -0.00000000000E+00 -0.10000000000E+04  0.10000000000E+04  0.00000000000E+00 0.  1.
    9000005    2    1    2  501    0 -0.21076283775E+01 -0.14835180757E+00 -0.89441286996E+03  0.10947756175E+04  0.63131197249E+03 0.  0.
         13    1    3    3    0    0 -0.62850044992E+02 -0.29712243895E+03 -0.29659651643E+03  0.42450131383E+03  0.00000000000E+00 0.  1.
          3    1    3    3  501    0  0.60742416614E+02  0.29697408714E+03 -0.59781635353E+03  0.67027430367E+03  0.00000000000E+00 0.  1.
         21    1    1    2  502  501  0.21076283775E+01  0.14835180757E+00 -0.51993047909E+01  0.56122077603E+01  0.00000000000E+00 0.  1.
<mgrwt>
<rscale>  1 0.63131551E+03</rscale>
<asrwt>0</asrwt>
<pdfrwt beam="1">  1        1 0.36504741E+00 0.63131551E+03</pdfrwt>
<pdfrwt beam="2">0</pdfrwt>
<totfact> 0.19157105E+00</totfact>
</mgrwt>
</event>
<event>
 6    1  0.1866504E-003  0.6377300E+03  0.7818608E-02  0.9830079E-01
          1   -1    0    0  502    0  0.00000000000E+00  0.00000000000E+00  0.10168367427E+03  0.10168367427E+03  0.00000000000E+00 0.  1.
         13   -1    0    0    0    0 -0.00000000000E+00 -0.00000000000E+00 -0.10000000000E+04  0.10000000000E+04  0.00000000000E+00 0.  1.
    9000005    2    1    2  501    0 -0.22403002049E-02  0.43568717146E-02 -0.89832437020E+03  0.11016742554E+04  0.63772995142E+03 0.  0.
         13    1    3    3    0    0 -0.26269679336E+03  0.15554353378E+03 -0.60817643179E+03  0.68050126255E+03  0.00000000000E+00 0.  1.
          1    1    3    3  501    0  0.26269455306E+03 -0.15553917690E+03 -0.29014793840E+03  0.42117299287E+03  0.00000000000E+00 0.  1.
         21    1    1    2  502  501  0.22403002049E-02 -0.43568717146E-02  0.80444703819E-02  0.94188523649E-02  0.00000000000E+00 0.  1.
<mgrwt>
<rscale>  1 0.63772995E+03</rscale>
<asrwt>0</asrwt>
<pdfrwt beam="1">  1        1 0.36975960E+00 0.63772995E+03</pdfrwt>
<pdfrwt beam="2">0</pdfrwt>
<totfact> 0.18245342E+00</totfact>
</mgrwt>
</event>
<event>
 6    1  0.1866504E-003  0.6547225E+03  0.7818608E-02  0.9797958E-01
          1   -1    0    0  502    0  0.00000000000E+00  0.00000000000E+00  0.10716539266E+03  0.10716539266E+03  0.00000000000E+00 0.  1.
         13   -1    0    0    0    0 -0.00000000000E+00 -0.00000000000E+00 -0.10000000000E+04  0.10000000000E+04  0.00000000000E+00 0.  1.
    9000005    2    1    2  501    0 -0.46863029652E-05  0.10862137742E-04 -0.89283461911E+03  0.11071653760E+04  0.65472246995E+03 0.  0.
         13    1    3    3    0    0  0.42282656891E+02  0.32461158846E+03 -0.44268356824E+03  0.55057174649E+03  0.00000000000E+00 0.  1.
          3    1    3    3  501    0 -0.42282661577E+02 -0.32461157760E+03 -0.45015105087E+03  0.55659362948E+03  0.00000000000E+00 0.  1.
         21    1    1    2  502  501  0.46863029665E-05 -0.10862137750E-04  0.11768968912E-04  0.16687003963E-04  0.00000000000E+00 0.  1.
<mgrwt>
<rscale>  1 0.65472247E+03</rscale>
<asrwt>0</asrwt>
<pdfrwt beam="1">  1        1 0.38969316E+00 0.65472247E+03</pdfrwt>
<pdfrwt beam="2">0</pdfrwt>
<totfact> 0.14854180E+00</totfact>
</mgrwt>
</event>
<event>
 6    1  0.1866504E-003  0.6445234E+03  0.7818608E-02  0.9817110E-01
          1   -1    0    0  502    0  0.00000000000E+00  0.00000000000E+00  0.10385338059E+03  0.10385338059E+03  0.00000000000E+00 0.  1.
         13   -1    0    0    0    0 -0.00000000000E+00 -0.00000000000E+00 -0.10000000000E+04  0.10000000000E+04  0.00000000000E+00 0.  1.
    9000005    2    1    2  501    0  0.20278505190E-04 -0.20177690885E-04 -0.89614739097E+03  0.11038526085E+04  0.64452341692E+03 0.  0.
         13    1    3    3    0    0  0.28828220160E+03  0.99179527028E+02 -0.62695829981E+03  0.69715128633E+03  0.00000000000E+00 0.  1.
          3    1    3    3  501    0 -0.28828218132E+03 -0.99179547206E+02 -0.26918909116E+03  0.40670132217E+03  0.00000000000E+00 0.  1.
         21    1    1    2  502  501 -0.20278505157E-04  0.20177690874E-04  0.77155742340E-03  0.77208756925E-03  0.00000000000E+00 0. -1.
<mgrwt>
<rscale>  1 0.64452342E+03</rscale>
<asrwt>0</asrwt>
<pdfrwt beam="1">  1        1 0.37764945E+00 0.64452342E+03</pdfrwt>
<pdfrwt beam="2">0</pdfrwt>
<totfact> 0.16823004E+00</totfact>
</mgrwt>
</event>
<event>
 6    1  0.1866504E-003  0.6783774E+03  0.7818608E-02  0.9754941E-01
          1   -1    0    0  502    0  0.00000000000E+00  0.00000000000E+00  0.11612473334E+03  0.11612473334E+03  0.00000000000E+00 0.  1.
         13   -1    0    0    0    0 -0.00000000000E+00 -0.00000000000E+00 -0.10000000000E+04  0.10000000000E+04  0.00000000000E+00 0.  1.
    9000005    2    1    2  501    0 -0.14549577663E+01 -0.42313336113E+00 -0.88431752444E+03  0.11145462734E+04  0.67837571853E+03 0.  0.
         13    1    3    3    0    0 -0.25873384075E+03  0.15495833537E+03 -0.18609644916E+03  0.35438280777E+03  0.00000000000E+00 0.  1.
          1    1    3    3  501    0  0.25727888299E+03 -0.15538146874E+03 -0.69822107528E+03  0.76016346559E+03  0.00000000000E+00 0.  1.
         21    1    1    2  502  501  0.14549577663E+01  0.42313336113E+00  0.44225778257E+00  0.15784599739E+01  0.00000000000E+00 0.  1.
<mgrwt>
<rscale>  1 0.67837741E+03</rscale>
<asrwt>0</asrwt>
<pdfrwt beam="1">  1        1 0.42227265E+00 0.67837741E+03</pdfrwt>
<pdfrwt beam="2">0</pdfrwt>
<totfact> 0.10570564E+00</totfact>
</mgrwt>
</event>
<event>
 6    1  0.1866504E-003  0.6514484E+03  0.7818608E-02  0.9804065E-01
          1   -1    0    0  502    0  0.00000000000E+00  0.00000000000E+00  0.10878974309E+03  0.10878974309E+03  0.00000000000E+00 0.  1.
         13   -1    0    0    0    0 -0.00000000000E+00 -0.00000000000E+00 -0.10000000000E+04  0.10000000000E+04  0.00000000000E+00 0.  1.
    9000005    2    1    2  501    0 -0.47370210300E+01  0.23705991445E+01 -0.89064254549E+03  0.11034623230E+04  0.65142681503E+03 0.  0.
         13    1    3    3    0    0  0.11662024408E+03  0.16554536667E+03 -0.87653065553E+03  0.89961744082E+03  0.00000000000E+00 0.  1.
          1    1    3    3  501    0 -0.12135726511E+03 -0.16317476753E+03 -0.14111889964E+02  0.20384488218E+03  0.00000000000E+00 0.  1.
         21    1    1    2  502  501  0.47370210300E+01 -0.23705991445E+01 -0.56771141540E+00  0.53274200879E+01  0.00000000000E+00 0. -1.
<mgrwt>
<rscale>  1 0.65144835E+03</rscale>
<asrwt>0</asrwt>
<pdfrwt beam="1">  1        1 0.39559990E+00 0.65144835E+03</pdfrwt>
<pdfrwt beam="2">0</pdfrwt>
<totfact> 0.13992183E+00</totfact>
</mgrwt>
</event>
<event>
 6    1  0.1866504E-003  0.6553155E+03  0.7818608E-02  0.9796856E-01
          1   -1    0    0  502    0  0.00000000000E+00  0.00000000000E+00  0.10735976527E+03  0.10735976527E+03  0.00000000000E+00 0.  1.
         13   -1    0    0    0    0 -0.00000000000E+00 -0.00000000000E+00 -0.10000000000E+04  0.10000000000E+04  0.00000000000E+00 0.  1.
    9000005    2    1    2  501    0  0.62759479622E-05 -0.16596453634E-06 -0.89264039375E+03  0.11073596061E+04  0.65531551540E+03 0.  0.
         13    1    3    3    0    0 -0.11829084885E+02 -0.28103821790E+03 -0.73027487885E+03  0.78257511195E+03  0.00000000000E+00 0.  1.
          3    1    3    3  501    0  0.11829091161E+02  0.28103821774E+03 -0.16236551490E+03  0.32478449417E+03  0.00000000000E+00 0.  1.
         21    1    1    2  502  501 -0.62759479613E-05  0.16596450562E-06  0.15901761410E-03  0.15914149887E-03  0.00000000000E+00 0.  1.
<mgrwt>
<rscale>  1 0.65531552E+03</rscale>
<asrwt>0</asrwt>
<pdfrwt beam="1">  1        1 0.39039997E+00 0.65531552E+03</pdfrwt>
<pdfrwt beam="2">0</pdfrwt>
<totfact> 0.14745730E+00</totfact>
</mgrwt>
</event>
<event>
 6    1  0.1866504E-003  0.6507515E+03  0.7818608E-02  0.9805370E-01
          1   -1    0    0  502    0  0.00000000000E+00  0.00000000000E+00  0.10586941062E+03  0.10586941062E+03  0.00000000000E+00 0.  1.
         13   -1    0    0    0    0 -0.00000000000E+00 -0.00000000000E+00 -0.10000000000E+04  0.10000000000E+04  0.00000000000E+00 0.  1.
    9000005    2    1    2  501    0 -0.61772869188E-04 -0.12415392291E-04 -0.89413049688E+03  0.11058692987E+04  0.65075153504E+03 0.  0.
         13    1    3    3    0    0  0.10864700101E+03  0.18117428269E+03 -0.26522572236E+02  0.21291251343E+03  0.00000000000E+00 0.  1.
          3    1    3    3  501    0 -0.10864706278E+03 -0.18117429511E+03 -0.86760792464E+03  0.89295678527E+03  0.00000000000E+00 0.  1.
         21    1    1    2  502  501  0.61772869187E-04  0.12415392276E-04 -0.92502549567E-04  0.11192296909E-03  0.00000000000E+00 0.  1.
<mgrwt>
<rscale>  1 0.65075154E+03</rscale>
<asrwt>0</asrwt>
<pdfrwt beam="1">  1        1 0.38498049E+00 0.65075154E+03</pdfrwt>
<pdfrwt beam="2">0</pdfrwt>
<totfact> 0.15596900E+00</totfact>
</mgrwt>
</event>
<event>
 6    1  0.1866504E-003  0.6488116E+03  0.7818608E-02  0.9809012E-01
          1   -1    0    0  502    0  0.00000000000E+00  0.00000000000E+00  0.10524973434E+03  0.10524973434E+03  0.00000000000E+00 0.  1.
         13   -1    0    0    0    0 -0.00000000000E+00 -0.00000000000E+00 -0.10000000000E+04  0.10000000000E+04  0.00000000000E+00 0.  1.
    9000005    2    1    2  501    0  0.87341856607E-03  0.12235887748E-01 -0.89475679410E+03  0.11052358383E+04  0.64881163483E+03 0.  0.
         13    1    3    3    0    0  0.31408749643E+03 -0.12028839403E+02 -0.58412039305E+03  0.66331914036E+03  0.00000000000E+00 0.  1.
          3    1    3    3  501    0 -0.31408662301E+03  0.12041075290E+02 -0.31063640105E+03  0.44191669793E+03  0.00000000000E+00 0.  1.
         21    1    1    2  502  501 -0.87341856608E-03 -0.12235887748E-01  0.65284392158E-02  0.13896054388E-01  0.00000000000E+00 0. -1.
<mgrwt>
<rscale>  1 0.64881163E+03</rscale>
<asrwt>0</asrwt>
<pdfrwt beam="1">  1        1 0.38272711E+00 0.64881163E+03</pdfrwt>
<pdfrwt beam="2">0</pdfrwt>
<totfact> 0.15964493E+00</totfact>
</mgrwt>
</event>
<event>
 6    1  0.1866504E-003  0.6554475E+03  0.7818608E-02  0.9796611E-01
          1   -1    0    0  502    0  0.00000000000E+00  0.00000000000E+00  0.10742351201E+03  0.10742351201E+03  0.00000000000E+00 0.  1.
         13   -1    0    0    0    0 -0.00000000000E+00 -0.00000000000E+00 -0.10000000000E+04  0.10000000000E+04  0.00000000000E+00 0.  1.
    9000005    2    1    2  501    0 -0.90002438988E-03 -0.53461447459E-03 -0.89259713617E+03  0.11074028373E+04  0.65544747813E+03 0.  0.
         13    1    3    3    0    0  0.11086627042E+03  0.30422229426E+03 -0.53178346638E+03  0.62260436021E+03  0.00000000000E+00 0.  1.
          1    1    3    3  501    0 -0.11086717045E+03 -0.30422282887E+03 -0.36081366979E+03  0.48479847710E+03  0.00000000000E+00 0.  1.
         21    1    1    2  502  501  0.90002438987E-03  0.53461447458E-03  0.20648181785E-01  0.20674701148E-01  0.00000000000E+00 0. -1.
<mgrwt>
<rscale>  1 0.65544748E+03</rscale>
<asrwt>0</asrwt>
<pdfrwt beam="1">  1        1 0.39063178E+00 0.65544748E+03</pdfrwt>
<pdfrwt beam="2">0</pdfrwt>
<totfact> 0.14710497E+00</totfact>
</mgrwt>
</event>
<event>
 6    1  0.1866504E-003  0.6117776E+03  0.7818608E-02  0.9881268E-01
          1   -1    0    0  502    0  0.00000000000E+00  0.00000000000E+00  0.93643633235E+02  0.93643633235E+02  0.00000000000E+00 0.  1.
         13   -1    0    0    0    0 -0.00000000000E+00 -0.00000000000E+00 -0.10000000000E+04  0.10000000000E+04  0.00000000000E+00 0.  1.
    9000005    2    1    2  501    0  0.10954520950E+00 -0.77091929236E-01 -0.90636160591E+03  0.10935095781E+04  0.61177758939E+03 0.  0.
         13    1    3    3    0    0  0.18655178780E+03 -0.24062654840E+03 -0.39952627580E+03  0.50231857459E+03  0.00000000000E+00 0.  1.
          3    1    3    3  501    0 -0.18644224259E+03  0.24054945647E+03 -0.50683533011E+03  0.59119100355E+03  0.00000000000E+00 0.  1.
         21    1    1    2  502  501 -0.10954520950E+00  0.77091929236E-01  0.52391455102E-02  0.13405508988E+00  0.00000000000E+00 0.  1.
<mgrwt>
<rscale>  1 0.61177760E+03</rscale>
<asrwt>0</asrwt>
<pdfrwt beam="1">  1        1 0.34052302E+00 0.61177760E+03</pdfrwt>
<pdfrwt beam="2">0</pdfrwt>
<totfact> 0.24593917E+00</totfact>
</mgrwt>
</event>
<event>
 6    1  0.2478377E-003  0.6534401E+03  0.7818608E-02  0.9800345E-01
          1   -1    0    0  502    0  0.00000000000E+00  0.00000000000E+00  0.10674600501E+03  0.10674600501E+03  0.00000000000E+00 0.  1.
         13   -1    0    0    0    0 -0.00000000000E+00 -0.00000000000E+00 -0.10000000000E+04  0.10000000000E+04  0.00000000000E+00 0.  1.
    9000005    2    1    2  501    0 -0.45028478155E-05 -0.19902596193E-06 -0.89325400201E+03  0.11067459967E+04  0.65344011895E+03 0.  0.
         13    1    3    3    0    0  0.19749306546E+03  0.81295530439E+02 -0.27850912961E+02  0.21537907867E+03  0.00000000000E+00 0.  1.
          3    1    3    3  501    0 -0.19749306996E+03 -0.81295530638E+02 -0.86540308904E+03  0.89136691800E+03  0.00000000000E+00 0.  1.
         21    1    1    2  502  501  0.45028478113E-05  0.19902596333E-06  0.70141134931E-05  0.83374479213E-05  0.00000000000E+00 0. -1.
<mgrwt>
<rscale>  1 0.65344012E+03</rscale>
<asrwt>0</asrwt>
<pdfrwt beam="1">  1        1 0.38816811E+00 0.65344012E+03</pdfrwt>
<pdfrwt beam="2">0</pdfrwt>
<totfact> 0.15090767E+00</totfact>
</mgrwt>
</event>
<event>
 6    1  0.1866504E-003  0.6535350E+03  0.7818608E-02  0.9800168E-01
          1   -1    0    0  502    0  0.00000000000E+00  0.00000000000E+00  0.10677751808E+03  0.10677751808E+03  0.00000000000E+00 0.  1.
         13   -1    0    0    0    0 -0.00000000000E+00 -0.00000000000E+00 -0.10000000000E+04  0.10000000000E+04  0.00000000000E+00 0.  1.
    9000005    2    1    2  501    0  0.12966970527E-03  0.44775483713E-03 -0.89322287161E+03  0.11067769105E+04  0.65353502679E+03 0.  0.
         13    1    3    3    0    0 -0.16050273642E+03 -0.50676861787E+02 -0.92094212275E+03  0.93619638227E+03  0.00000000000E+00 0.  1.
          3    1    3    3  501    0  0.16050286609E+03  0.50677309542E+02  0.27719251140E+02  0.17058052823E+03  0.00000000000E+00 0.  1.
         21    1    1    2  502  501 -0.12966970528E-03 -0.44775483714E-03  0.38968715502E-03  0.60758102787E-03  0.00000000000E+00 0. -1.
<mgrwt>
<rscale>  1 0.65353503E+03</rscale>
<asrwt>0</asrwt>
<pdfrwt beam="1">  1        1 0.38828270E+00 0.65353503E+03</pdfrwt>
<pdfrwt beam="2">0</pdfrwt>
<totfact> 0.15072870E+00</totfact>
</mgrwt>
</event>
<event>
 6    1  0.1866504E-003  0.6395533E+03  0.7818608E-02  0.9826582E-01
          1   -1    0    0  502    0  0.00000000000E+00  0.00000000000E+00  0.10230547210E+03  0.10230547210E+03  0.00000000000E+00 0.  1.
         13   -1    0    0    0    0 -0.00000000000E+00 -0.00000000000E+00 -0.10000000000E+04  0.10000000000E+04  0.00000000000E+00 0.  1.
    9000005    2    1    2  501    0  0.37079989262E-02  0.93685083243E-03 -0.89774280998E+03  0.11022570388E+04  0.63955330245E+03 0.  0.
         13    1    3    3    0    0 -0.29238458328E+03  0.12946508201E+03 -0.45315788178E+03  0.55461880406E+03  0.00000000000E+00 0.  1.
          1    1    3    3  501    0  0.29238829127E+03 -0.12946414516E+03 -0.44458492820E+03  0.54763823473E+03  0.00000000000E+00 0.  1.
         21    1    1    2  502  501 -0.37079989263E-02 -0.93685083244E-03  0.48282072528E-01  0.48433309542E-01  0.00000000000E+00 0. -1.
<mgrwt>
<rscale>  1 0.63955330E+03</rscale>
<asrwt>0</asrwt>
<pdfrwt beam="1">  1        1 0.37202068E+00 0.63955330E+03</pdfrwt>
<pdfrwt beam="2">0</pdfrwt>
<totfact> 0.17826799E+00</totfact>
</mgrwt>
</event>
<event>
 6    1  0.2115290E-003  0.6360743E+03  0.7818608E-02  0.9833266E-01
          1   -1    0    0  502    0  0.00000000000E+00  0.00000000000E+00  0.10114762813E+03  0.10114762813E+03  0.00000000000E+00 0.  1.
         13   -1    0    0    0    0 -0.00000000000E+00 -0.00000000000E+00 -0.10000000000E+04  0.10000000000E+04  0.00000000000E+00 0.  1.
    9000005    2    1    2  501    0 -0.13543833056E-04 -0.15385536756E-05 -0.89885237193E+03  0.11011476145E+04  0.63607427427E+03 0.  0.
         13    1    3    3    0    0  0.32955719925E+02  0.15659849953E+03 -0.92522323644E+03  0.93896070566E+03  0.00000000000E+00 0.  1.
          3    1    3    3  501    0 -0.32955733469E+02 -0.15659850107E+03  0.26370864505E+02  0.16218690884E+03  0.00000000000E+00 0.  1.
         21    1    1    2  502  501  0.13543833059E-04  0.15385536874E-05  0.66325928550E-07  0.13631102689E-04  0.00000000000E+00 0.  1.
<mgrwt>
<rscale>  1 0.63607427E+03</rscale>
<asrwt>0</asrwt>
<pdfrwt beam="1">  1        1 0.36781033E+00 0.63607427E+03</pdfrwt>
<pdfrwt beam="2">0</pdfrwt>
<totfact> 0.18613974E+00</totfact>
</mgrwt>
</event>
<event>
 6    1  0.1866504E-003  0.6540761E+03  0.7818608E-02  0.9799161E-01
          1   -1    0    0  502    0  0.00000000000E+00  0.00000000000E+00  0.10695887839E+03  0.10695887839E+03  0.00000000000E+00 0.  1.
         13   -1    0    0    0    0 -0.00000000000E+00 -0.00000000000E+00 -0.10000000000E+04  0.10000000000E+04  0.00000000000E+00 0.  1.
    9000005    2    1    2  501    0 -0.57179626128E-03  0.23643188077E-03 -0.89304607801E+03  0.11069538835E+04  0.65407614448E+03 0.  0.
         13    1    3    3    0    0 -0.24868947069E+03  0.95012198081E+02 -0.12505648676E+03  0.29413074558E+03  0.00000000000E+00 0.  1.
          1    1    3    3  501    0  0.24868889889E+03 -0.95011961649E+02 -0.76798959126E+03  0.81282313794E+03  0.00000000000E+00 0.  1.
         21    1    1    2  502  501  0.57179626127E-03 -0.23643188076E-03  0.49564052618E-02  0.49948777881E-02  0.00000000000E+00 0.  1.
<mgrwt>
<rscale>  1 0.65407614E+03</rscale>
<asrwt>0</asrwt>
<pdfrwt beam="1">  1        1 0.38894220E+00 0.65407614E+03</pdfrwt>
<pdfrwt beam="2">0</pdfrwt>
<totfact> 0.14970278E+00</totfact>
</mgrwt>
</event>
<event>
 6    1  0.1866504E-003  0.6516979E+03  0.7818608E-02  0.9803598E-01
          1   -1    0    0  502    0  0.00000000000E+00  0.00000000000E+00  0.12860051476E+03  0.12860051476E+03  0.00000000000E+00 0.  1.
         13   -1    0    0    0    0 -0.00000000000E+00 -0.00000000000E+00 -0.10000000000E+04  0.10000000000E+04  0.00000000000E+00 0.  1.
    9000005    2    1    2  501    0 -0.33949135644E+02  0.49540836973E+02 -0.75307853113E+03  0.99591032478E+03  0.64892469717E+03 0.  0.
         13    1    3    3    0    0 -0.18523925454E+03  0.48390804194E+02 -0.81146175212E+03  0.83374182245E+03  0.00000000000E+00 0.  1.
          3    1    3    3  501    0  0.15129011890E+03  0.11500327792E+01  0.58383220987E+02  0.16216850232E+03  0.00000000000E+00 0.  1.
         21    1    1    2  502  501  0.33949135644E+02 -0.49540836973E+02 -0.11832095410E+03  0.13269018999E+03  0.00000000000E+00 0. -1.
<mgrwt>
<rscale>  1 0.65169786E+03</rscale>
<asrwt>0</asrwt>
<pdfrwt beam="1">  1        1 0.46763922E+00 0.65169786E+03</pdfrwt>
<pdfrwt beam="2">0</pdfrwt>
<totfact> 0.65785951E-01</totfact>
</mgrwt>
</event>
<event>
 6    1  0.1866504E-003  0.6137692E+03  0.7818608E-02  0.9877244E-01
          1   -1    0    0  502    0  0.00000000000E+00  0.00000000000E+00  0.94178266046E+02  0.94178266046E+02  0.00000000000E+00 0.  1.
         13   -1    0    0    0    0 -0.00000000000E+00 -0.00000000000E+00 -0.10000000000E+04  0.10000000000E+04  0.00000000000E+00 0.  1.
    9000005    2    1    2  501    0  0.23959273250E-05 -0.47849090352E-05 -0.90582183946E+03  0.10941781604E+04  0.61376920894E+03 0.  0.
         13    1    3    3    0    0 -0.36350500545E+02  0.36261266676E+01  0.90288195730E+02  0.97398490608E+02  0.00000000000E+00 0.  1.
          3    1    3    3  501    0  0.36350502941E+02 -0.36261314526E+01 -0.99611003520E+03  0.99677966979E+03  0.00000000000E+00 0.  1.
         21    1    1    2  502  501 -0.23959273202E-05  0.47849090354E-05  0.10551103246E-03  0.10564664592E-03  0.00000000000E+00 0.  1.
<mgrwt>
<rscale>  1 0.61376921E+03</rscale>
<asrwt>0</asrwt>
<pdfrwt beam="1">  1        1 0.34246714E+00 0.61376921E+03</pdfrwt>
<pdfrwt beam="2">0</pdfrwt>
<totfact> 0.24111624E+00</totfact>
</mgrwt>
</event>
<event>
 6    1  0.1866504E-003  0.6176356E+03  0.7818608E-02  0.9869479E-01
          1   -1    0    0  502    0  0.00000000000E+00  0.00000000000E+00  0.95837634229E+02  0.95837634229E+02  0.00000000000E+00 0.  1.
         13   -1    0    0    0    0 -0.00000000000E+00 -0.00000000000E+00 -0.10000000000E+04  0.10000000000E+04  0.00000000000E+00 0.  1.
    9000005    2    1    2  501    0 -0.21963060440E+00  0.21893029723E+00 -0.90457485879E+03  0.10953215736E+04  0.61763547363E+03 0.  0.
         13    1    3    3    0    0  0.68043950393E+02  0.72769385346E+02 -0.97067191204E+03  0.97577114297E+03  0.00000000000E+00 0.  1.
          3    1    3    3  501    0 -0.68263580998E+02 -0.72550455048E+02  0.66097053247E+02  0.11955043064E+03  0.00000000000E+00 0.  1.
         21    1    1    2  502  501  0.21963060440E+00 -0.21893029723E+00  0.41249301754E+00  0.51606062333E+00  0.00000000000E+00 0. -1.
<mgrwt>
<rscale>  1 0.61763555E+03</rscale>
<asrwt>0</asrwt>
<pdfrwt beam="1">  1        1 0.34850122E+00 0.61763555E+03</pdfrwt>
<pdfrwt beam="2">0</pdfrwt>
<totfact> 0.22681665E+00</totfact>
</mgrwt>
</event>
<event>
 6    1  0.1866504E-003  0.6432253E+03  0.7818608E-02  0.9819575E-01
          1   -1    0    0  502    0  0.00000000000E+00  0.00000000000E+00  0.10343586439E+03  0.10343586439E+03  0.00000000000E+00 0.  1.
         13   -1    0    0    0    0 -0.00000000000E+00 -0.00000000000E+00 -0.10000000000E+04  0.10000000000E+04  0.00000000000E+00 0.  1.
    9000005    2    1    2  501    0 -0.11139760625E-03 -0.18793136437E-03 -0.89656528010E+03  0.11034346992E+04  0.64322533688E+03 0.  0.
         13    1    3    3    0    0  0.22478446169E+03 -0.20437054204E+03 -0.62933886979E+03  0.69882958273E+03  0.00000000000E+00 0.  1.
          3    1    3    3  501    0 -0.22478457309E+03  0.20437035411E+03 -0.26722641031E+03  0.40460511651E+03  0.00000000000E+00 0.  1.
         21    1    1    2  502  501  0.11139760624E-03  0.18793136435E-03  0.11444906690E-02  0.11651551466E-02  0.00000000000E+00 0. -1.
<mgrwt>
<rscale>  1 0.64322534E+03</rscale>
<asrwt>0</asrwt>
<pdfrwt beam="1">  1        1 0.37613121E+00 0.64322534E+03</pdfrwt>
<pdfrwt beam="2">0</pdfrwt>
<totfact> 0.17088177E+00</totfact>
</mgrwt>
</event>
<event>
 6    1  0.1866504E-003  0.6535088E+03  0.7818608E-02  0.9800217E-01
          1   -1    0    0  502    0  0.00000000000E+00  0.00000000000E+00  0.10894016255E+03  0.10894016255E+03  0.00000000000E+00 0.  1.
         13   -1    0    0    0    0 -0.00000000000E+00 -0.00000000000E+00 -0.10000000000E+04  0.10000000000E+04  0.00000000000E+00 0.  1.
    9000005    2    1    2  501    0 -0.52645691166E+00  0.79044439123E+00 -0.89311606308E+03  0.11066752071E+04  0.65350807952E+03 0.  0.
         13    1    3    3    0    0  0.49308189918E+02 -0.68408784666E+02  0.87987654373E+02  0.12187241991E+03  0.00000000000E+00 0.  1.
          1    1    3    3  501    0 -0.49834646830E+02  0.69199229057E+02 -0.98110371745E+03  0.98480278722E+03  0.00000000000E+00 0.  1.
         21    1    1    2  502  501  0.52645691166E+00 -0.79044439123E+00  0.20562256264E+01  0.22649554172E+01  0.00000000000E+00 0.  1.
<mgrwt>
<rscale>  1 0.65350877E+03</rscale>
<asrwt>0</asrwt>
<pdfrwt beam="1">  1        1 0.39614688E+00 0.65350877E+03</pdfrwt>
<pdfrwt beam="2">0</pdfrwt>
<totfact> 0.13908626E+00</totfact>
</mgrwt>
</event>
<event>
 6    1  0.1866504E-003  0.6524003E+03  0.7818608E-02  0.9802286E-01
          1   -1    0    0  502    0  0.00000000000E+00  0.00000000000E+00  0.10641523399E+03  0.10641523399E+03  0.00000000000E+00 0.  1.
         13   -1    0    0    0    0 -0.00000000000E+00 -0.00000000000E+00 -0.10000000000E+04  0.10000000000E+04  0.00000000000E+00 0.  1.
    9000005    2    1    2  501    0  0.22197961052E-01  0.78597750735E-03 -0.89357324847E+03  0.11063902136E+04  0.65240030184E+03 0.  0.
         13    1    3    3    0    0 -0.34236780738E+02  0.32404142271E+03 -0.42100867510E+03  0.53237515466E+03  0.00000000000E+00 0.  1.
          1    1    3    3  501    0  0.34258978699E+02 -0.32404063673E+03 -0.47256457336E+03  0.57401505892E+03  0.00000000000E+00 0.  1.
         21    1    1    2  502  501 -0.22197961052E-01 -0.78597750739E-03 -0.11517542621E-01  0.25020412137E-01  0.00000000000E+00 0. -1.
<mgrwt>
<rscale>  1 0.65240030E+03</rscale>
<asrwt>0</asrwt>
<pdfrwt beam="1">  1        1 0.38696530E+00 0.65240030E+03</pdfrwt>
<pdfrwt beam="2">0</pdfrwt>
<totfact> 0.15279961E+00</totfact>
</mgrwt>
</event>
<event>
 6    1  0.1866504E-003  0.6223154E+03  0.7818608E-02  0.9860161E-01
          1   -1    0    0  502    0  0.00000000000E+00  0.00000000000E+00  0.96858378334E+02  0.96858378334E+02  0.00000000000E+00 0.  1.
         13   -1    0    0    0    0 -0.00000000000E+00 -0.00000000000E+00 -0.10000000000E+04  0.10000000000E+04  0.00000000000E+00 0.  1.
    9000005    2    1    2  501    0 -0.91932648821E-02 -0.18106401650E-01 -0.90317798517E+03  0.10968167291E+04  0.62231540541E+03 0.  0.
         13    1    3    3    0    0 -0.45916382796E+02  0.23729051363E+03 -0.79695417445E+03  0.83279712910E+03  0.00000000000E+00 0.  1.
          3    1    3    3  501    0  0.45907189531E+02 -0.23730862003E+03 -0.10622381072E+03  0.26401959995E+03  0.00000000000E+00 0.  1.
         21    1    1    2  502  501  0.91932648821E-02  0.18106401650E-01  0.36363508105E-01  0.41649281165E-01  0.00000000000E+00 0. -1.
<mgrwt>
<rscale>  1 0.62231541E+03</rscale>
<asrwt>0</asrwt>
<pdfrwt beam="1">  1        1 0.35221303E+00 0.62231541E+03</pdfrwt>
<pdfrwt beam="2">0</pdfrwt>
<totfact> 0.21834126E+00</totfact>
</mgrwt>
</event>
<event>
 6    1  0.1866504E-003  0.6543143E+03  0.7818608E-02  0.9798717E-01
          1   -1    0    0  502    0  0.00000000000E+00  0.00000000000E+00  0.10703183174E+03  0.10703183174E+03  0.00000000000E+00 0.  1.
         13   -1    0    0    0    0 -0.00000000000E+00 -0.00000000000E+00 -0.10000000000E+04  0.10000000000E+04  0.00000000000E+00 0.  1.
    9000005    2    1    2  501    0 -0.46571167047E-05  0.13548980036E-04 -0.89296818802E+03  0.11070318073E+04  0.65431432633E+03 0.  0.
         13    1    3    3    0    0  0.24683640832E+03  0.21187750375E+02 -0.80799074926E+03  0.84511903548E+03  0.00000000000E+00 0.  1.
          3    1    3    3  501    0 -0.24683641298E+03 -0.21187736826E+02 -0.84977438759E+02  0.26191277186E+03  0.00000000000E+00 0.  1.
         21    1    1    2  502  501  0.46571167037E-05 -0.13548980037E-04  0.19755575080E-04  0.24403818201E-04  0.00000000000E+00 0.  1.
<mgrwt>
<rscale>  1 0.65431433E+03</rscale>
<asrwt>0</asrwt>
<pdfrwt beam="1">  1        1 0.38920748E+00 0.65431433E+03</pdfrwt>
<pdfrwt beam="2">0</pdfrwt>
<totfact> 0.14929140E+00</totfact>
</mgrwt>
</event>
<event>
 6    1  0.1866504E-003  0.6503534E+03  0.7818608E-02  0.9806116E-01
          1   -1    0    0  502    0  0.00000000000E+00  0.00000000000E+00  0.10575708873E+03  0.10575708873E+03  0.00000000000E+00 0.  1.
         13   -1    0    0    0    0 -0.00000000000E+00 -0.00000000000E+00 -0.10000000000E+04  0.10000000000E+04  0.00000000000E+00 0.  1.
    9000005    2    1    2  501    0  0.43186137306E-02 -0.11739270955E-02 -0.89425979481E+03  0.11057396221E+04  0.65035338954E+03 0.  0.
         13    1    3    3    0    0 -0.24098379632E+03 -0.15932507258E+03 -0.70091798077E+03  0.75811851620E+03  0.00000000000E+00 0.  1.
          3    1    3    3  501    0  0.24098811494E+03  0.15932389865E+03 -0.19334181404E+03  0.34762110592E+03  0.00000000000E+00 0.  1.
         21    1    1    2  502  501 -0.43186137306E-02  0.11739270955E-02  0.16883543139E-01  0.17466612674E-01  0.00000000000E+00 0.  1.
<mgrwt>
<rscale>  1 0.65035339E+03</rscale>
<asrwt>0</asrwt>
<pdfrwt beam="1">  1        1 0.38457204E+00 0.65035339E+03</pdfrwt>
<pdfrwt beam="2">0</pdfrwt>
<totfact> 0.15663061E+00</totfact>
</mgrwt>
</event>
<event>
 6    1  0.1866504E-003  0.6739428E+03  0.7818608E-02  0.9762861E-01
          1   -1    0    0  502    0  0.00000000000E+00  0.00000000000E+00  0.11355624716E+03  0.11355624716E+03  0.00000000000E+00 0.  1.
         13   -1    0    0    0    0 -0.00000000000E+00 -0.00000000000E+00 -0.10000000000E+04  0.10000000000E+04  0.00000000000E+00 0.  1.
    9000005    2    1    2  501    0  0.50139163197E-02 -0.45947244733E-02 -0.88644821867E+03  0.11135481112E+04  0.67394283990E+03 0.  0.
         13    1    3    3    0    0  0.17583356144E+03  0.26851700651E+03 -0.61277884641E+03  0.69174904316E+03  0.00000000000E+00 0.  1.
          1    1    3    3  501    0 -0.17582854753E+03 -0.26852160123E+03 -0.27366937226E+03  0.42179906800E+03  0.00000000000E+00 0.  1.
         21    1    1    2  502  501 -0.50139163197E-02  0.45947244734E-02  0.44658315161E-02  0.81360003059E-02  0.00000000000E+00 0.  1.
<mgrwt>
<rscale>  1 0.67394284E+03</rscale>
<asrwt>0</asrwt>
<pdfrwt beam="1">  1        1 0.41293268E+00 0.67394284E+03</pdfrwt>
<pdfrwt beam="2">0</pdfrwt>
<totfact> 0.11656377E+00</totfact>
</mgrwt>
</event>
<event>
 6    1  0.1866504E-003  0.6477786E+03  0.7818608E-02  0.9810956E-01
          1   -1    0    0  502    0  0.00000000000E+00  0.00000000000E+00  0.10499494290E+03  0.10499494290E+03  0.00000000000E+00 0.  1.
         13   -1    0    0    0    0 -0.00000000000E+00 -0.00000000000E+00 -0.10000000000E+04  0.10000000000E+04  0.00000000000E+00 0.  1.
    9000005    2    1    2  501    0 -0.62171204539E-01  0.19106682197E+00 -0.89495070290E+03  0.11047867935E+04  0.64777855639E+03 0.  0.
         13    1    3    3    0    0 -0.18611784356E+03  0.18097745738E+03 -0.11705089096E+03  0.28476938537E+03  0.00000000000E+00 0.  1.
          3    1    3    3  501    0  0.18605567236E+03 -0.18078639056E+03 -0.77789981194E+03  0.82001740813E+03  0.00000000000E+00 0.  1.
         21    1    1    2  502  501  0.62171204539E-01 -0.19106682197E+00 -0.54354202158E-01  0.20814938968E+00  0.00000000000E+00 0.  1.
<mgrwt>
<rscale>  1 0.64777859E+03</rscale>
<asrwt>0</asrwt>
<pdfrwt beam="1">  1        1 0.38180060E+00 0.64777859E+03</pdfrwt>
<pdfrwt beam="2">0</pdfrwt>
<totfact> 0.16118712E+00</totfact>
</mgrwt>
</event>
<event>
 6    1  0.1866504E-003  0.6357219E+03  0.7818608E-02  0.9833946E-01
          1   -1    0    0  502    0  0.00000000000E+00  0.00000000000E+00  0.10103606765E+03  0.10103606765E+03  0.00000000000E+00 0.  1.
         13   -1    0    0    0    0 -0.00000000000E+00 -0.00000000000E+00 -0.10000000000E+04  0.10000000000E+04  0.00000000000E+00 0.  1.
    9000005    2    1    2  501    0 -0.20913291061E-03 -0.38733059796E-04 -0.89896439796E+03  0.11010355558E+04  0.63572187807E+03 0.  0.
         13    1    3    3    0    0  0.14742022891E+03  0.18438866029E+03 -0.81812063883E+03  0.85150060576E+03  0.00000000000E+00 0.  1.
          3    1    3    3  501    0 -0.14742043804E+03 -0.18438869903E+03 -0.80843759128E+02  0.24953495000E+03  0.00000000000E+00 0.  1.
         21    1    1    2  502  501  0.20913291062E-03  0.38733059779E-04  0.46560481905E-03  0.51188345524E-03  0.00000000000E+00 0.  1.
<mgrwt>
<rscale>  1 0.63572188E+03</rscale>
<asrwt>0</asrwt>
<pdfrwt beam="1">  1        1 0.36740466E+00 0.63572188E+03</pdfrwt>
<pdfrwt beam="2">0</pdfrwt>
<totfact> 0.18691610E+00</totfact>
</mgrwt>
</event>
<event>
 6    1  0.1866504E-003  0.6308749E+03  0.7818608E-02  0.9843343E-01
          1   -1    0    0  502    0  0.00000000000E+00  0.00000000000E+00  0.99823874764E+02  0.99823874764E+02  0.00000000000E+00 0.  1.
         13   -1    0    0    0    0 -0.00000000000E+00 -0.00000000000E+00 -0.10000000000E+04  0.10000000000E+04  0.00000000000E+00 0.  1.
    9000005    2    1    2  501    0  0.91842579230E-01 -0.11314717850E-01 -0.90049192421E+03  0.10994947972E+04  0.63087486464E+03 0.  0.
         13    1    3    3    0    0 -0.17305287593E+02  0.31315151665E+03 -0.39158954212E+03  0.50170281528E+03  0.00000000000E+00 0.  1.
          3    1    3    3  501    0  0.17397130172E+02 -0.31316283137E+03 -0.50890238210E+03  0.59779198188E+03  0.00000000000E+00 0.  1.
         21    1    1    2  502  501 -0.91842579230E-01  0.11314717850E-01  0.31579897598E+00  0.32907761308E+00  0.00000000000E+00 0. -1.
<mgrwt>
<rscale>  1 0.63087487E+03</rscale>
<asrwt>0</asrwt>
<pdfrwt beam="1">  1        1 0.36299667E+00 0.63087487E+03</pdfrwt>
<pdfrwt beam="2">0</pdfrwt>
<totfact> 0.19559037E+00</totfact>
</mgrwt>
</event>
<event>
 6    1  0.1866504E-003  0.6617058E+03  0.7818608E-02  0.9785059E-01
          1   -1    0    0  502    0  0.00000000000E+00  0.00000000000E+00  0.13015694524E+03  0.13015694524E+03  0.00000000000E+00 0.  1.
         13   -1    0    0    0    0 -0.00000000000E+00 -0.00000000000E+00 -0.10000000000E+04  0.10000000000E+04  0.00000000000E+00 0.  1.
    9000005    2    1    2  501    0  0.48462249947E+01  0.92768812628E+00 -0.89020951619E+03  0.11092012956E+04  0.66168737700E+03 0.  0.
         13    1    3    3    0    0 -0.29185646847E+03  0.30091752859E+02 -0.19372121473E+03  0.35158728762E+03  0.00000000000E+00 0.  1.
          3    1    3    3  501    0  0.29670269346E+03 -0.29164064733E+02 -0.69648830145E+03  0.75761400795E+03  0.00000000000E+00 0.  1.
         21    1    1    2  502  501 -0.48462249947E+01 -0.92768812628E+00  0.20366461429E+02  0.20955649670E+02  0.00000000000E+00 0.  1.
<mgrwt>
<rscale>  1 0.66170577E+03</rscale>
<asrwt>0</asrwt>
<pdfrwt beam="1">  1        1 0.47329898E+00 0.66170577E+03</pdfrwt>
<pdfrwt beam="2">0</pdfrwt>
<totfact> 0.61759113E-01</totfact>
</mgrwt>
</event>
<event>
 6    1  0.1866504E-003  0.6538241E+03  0.7818608E-02  0.9799630E-01
          1   -1    0    0  502    0  0.00000000000E+00  0.00000000000E+00  0.10687149768E+03  0.10687149768E+03  0.00000000000E+00 0.  1.
         13   -1    0    0    0    0 -0.00000000000E+00 -0.00000000000E+00 -0.10000000000E+04  0.10000000000E+04  0.00000000000E+00 0.  1.
    9000005    2    1    2  501    0 -0.30107475393E-05  0.62455600300E-05 -0.89312852469E+03  0.11068714743E+04  0.65382405806E+03 0.  0.
         13    1    3    3    0    0 -0.18300593733E+01  0.23542340818E+03 -0.62588835750E+02  0.24360807170E+03  0.00000000000E+00 0.  1.
          1    1    3    3  501    0  0.18300563625E+01 -0.23542340193E+03 -0.83053968894E+03  0.86326340256E+03  0.00000000000E+00 0.  1.
         21    1    1    2  502  501  0.30107475392E-05 -0.62455600272E-05  0.22370483469E-04  0.23420293581E-04  0.00000000000E+00 0. -1.
<mgrwt>
<rscale>  1 0.65382406E+03</rscale>
<asrwt>0</asrwt>
<pdfrwt beam="1">  1        1 0.38862445E+00 0.65382406E+03</pdfrwt>
<pdfrwt beam="2">0</pdfrwt>
<totfact> 0.15019601E+00</totfact>
</mgrwt>
</event>
<event>
 6    1  0.1866504E-003  0.6584112E+03  0.7818608E-02  0.9791123E-01
          1   -1    0    0  502    0  0.00000000000E+00  0.00000000000E+00  0.10837784749E+03  0.10837784749E+03  0.00000000000E+00 0.  1.
         13   -1    0    0    0    0 -0.00000000000E+00 -0.00000000000E+00 -0.10000000000E+04  0.10000000000E+04  0.00000000000E+00 0.  1.
    9000005    2    1    2  501    0  0.30772110105E-03 -0.68758421946E-04 -0.89162364353E+03  0.11083763235E+04  0.65841123380E+03 0.  0.
         13    1    3    3    0    0 -0.80977685890E+02  0.27295344850E+03 -0.72403483162E+03  0.77800219027E+03  0.00000000000E+00 0.  1.
          1    1    3    3  501    0  0.80977993611E+02 -0.27295351725E+03 -0.16758881190E+03  0.33037413323E+03  0.00000000000E+00 0.  1.
         21    1    1    2  502  501 -0.30772110105E-03  0.68758421929E-04  0.14910130805E-02  0.15239881899E-02  0.00000000000E+00 0.  1.
<mgrwt>
<rscale>  1 0.65841123E+03</rscale>
<asrwt>0</asrwt>
<pdfrwt beam="1">  1        1 0.39410209E+00 0.65841123E+03</pdfrwt>
<pdfrwt beam="2">0</pdfrwt>
<totfact> 0.14189872E+00</totfact>
</mgrwt>
</event>
<event>
 6    1  0.1866504E-003  0.6496562E+03  0.7818608E-02  0.9807425E-01
          1   -1    0    0  502    0  0.00000000000E+00  0.00000000000E+00  0.10551338196E+03  0.10551338196E+03  0.00000000000E+00 0.  1.
         13   -1    0    0    0    0 -0.00000000000E+00 -0.00000000000E+00 -0.10000000000E+04  0.10000000000E+04  0.00000000000E+00 0.  1.
    9000005    2    1    2  501    0 -0.16703330999E-04  0.19268170290E-04 -0.89448670652E+03  0.11055132899E+04  0.64965619059E+03 0.  0.
         13    1    3    3    0    0  0.25272361839E+03 -0.38525177996E+01 -0.79444318149E+03  0.83368101682E+03  0.00000000000E+00 0.  1.
          1    1    3    3  501    0 -0.25272363510E+03  0.38525370677E+01 -0.10004352502E+03  0.27183227306E+03  0.00000000000E+00 0.  1.
         21    1    1    2  502  501  0.16703331009E-04 -0.19268170290E-04  0.88470567628E-04  0.92072281331E-04  0.00000000000E+00 0. -1.
<mgrwt>
<rscale>  1 0.64965619E+03</rscale>
<asrwt>0</asrwt>
<pdfrwt beam="1">  1        1 0.38368583E+00 0.64965619E+03</pdfrwt>
<pdfrwt beam="2">0</pdfrwt>
<totfact> 0.15807046E+00</totfact>
</mgrwt>
</event>
<event>
 6    1  0.1866504E-003  0.6473792E+03  0.7818608E-02  0.9811709E-01
          1   -1    0    0  502    0  0.00000000000E+00  0.00000000000E+00  0.10477558182E+03  0.10477558182E+03  0.00000000000E+00 0.  1.
         13   -1    0    0    0    0 -0.00000000000E+00 -0.00000000000E+00 -0.10000000000E+04  0.10000000000E+04  0.00000000000E+00 0.  1.
    9000005    2    1    2  501    0  0.56395184487E-05  0.12576050239E-04 -0.89522504608E+03  0.11047749538E+04  0.64737918977E+03 0.  0.
         13    1    3    3    0    0  0.45750898412E+02  0.11734439706E+03  0.61244208481E+02  0.14004893895E+03  0.00000000000E+00 0.  1.
          1    1    3    3  501    0 -0.45750892772E+02 -0.11734438449E+03 -0.95646925456E+03  0.96472601482E+03  0.00000000000E+00 0.  1.
         21    1    1    2  502  501 -0.56395184476E-05 -0.12576050229E-04  0.62790322045E-03  0.62805446854E-03  0.00000000000E+00 0.  1.
<mgrwt>
<rscale>  1 0.64737919E+03</rscale>
<asrwt>0</asrwt>
<pdfrwt beam="1">  1        1 0.38100292E+00 0.64737919E+03</pdfrwt>
<pdfrwt beam="2">0</pdfrwt>
<totfact> 0.16251155E+00</totfact>
</mgrwt>
</event>
<event>
 6    1  0.1866504E-003  0.6486595E+03  0.7818608E-02  0.9809298E-01
          1   -1    0    0  502    0  0.00000000000E+00  0.00000000000E+00  0.10519481072E+03  0.10519481072E+03  0.00000000000E+00 0.  1.
         13   -1    0    0    0    0 -0.00000000000E+00 -0.00000000000E+00 -0.10000000000E+04  0.10000000000E+04  0.00000000000E+00 0.  1.
    9000005    2    1    2  501    0 -0.37952757288E-03 -0.67487080173E-04 -0.89481022133E+03  0.11051897639E+04  0.64865945002E+03 0.  0.
         13    1    3    3    0    0  0.19795632932E+01 -0.26145251171E+03 -0.77437810883E+03  0.81732661158E+03  0.00000000000E+00 0.  1.
          1    1    3    3  501    0 -0.19799428208E+01  0.26145244422E+03 -0.12043211249E+03  0.28786315235E+03  0.00000000000E+00 0.  1.
         21    1    1    2  502  501  0.37952757288E-03  0.67487080223E-04  0.50320525123E-02  0.50467958322E-02  0.00000000000E+00 0.  1.
<mgrwt>
<rscale>  1 0.64865945E+03</rscale>
<asrwt>0</asrwt>
<pdfrwt beam="1">  1        1 0.38252739E+00 0.64865945E+03</pdfrwt>
<pdfrwt beam="2">0</pdfrwt>
<totfact> 0.15997410E+00</totfact>
</mgrwt>
</event>
<event>
 6    1  0.1866504E-003  0.6505926E+03  0.7818608E-02  0.9805668E-01
          3   -1    0    0  502    0  0.00000000000E+00  0.00000000000E+00  0.11129273818E+03  0.11129273818E+03  0.00000000000E+00 0.  1.
         13   -1    0    0    0    0 -0.00000000000E+00 -0.00000000000E+00 -0.10000000000E+04  0.10000000000E+04  0.00000000000E+00 0.  1.
    9000005    2    1    2  501    0 -0.16294905748E+00  0.46840722881E+00 -0.89416989961E+03  0.11058076339E+04  0.65059239758E+03 0.  0.
         13    1    3    3    0    0 -0.28072887542E+03 -0.75170454577E+02 -0.19864467277E+03  0.35202131293E+03  0.00000000000E+00 0.  1.
          1    1    3    3  501    0  0.28056592637E+03  0.75638861806E+02 -0.69552522684E+03  0.75378632094E+03  0.00000000000E+00 0.  1.
         21    1    1    2  502  501  0.16294905748E+00 -0.46840722881E+00  0.54626377892E+01  0.54851043147E+01  0.00000000000E+00 0.  1.
<mgrwt>
<rscale>  1 0.65059259E+03</rscale>
<asrwt>0</asrwt>
<pdfrwt beam="1">  1        3 0.40470172E+00 0.65059259E+03</pdfrwt>
<pdfrwt beam="2">0</pdfrwt>
<totfact> 0.55970887E-02</totfact>
</mgrwt>
</event>
