<event>
 6    1  0.1839160E-004  0.3000000E+03  0.7818608E-02  0.1093470E+00
          1   -1    0    0  502    0  0.00000000000E+00  0.00000000000E+00  0.39829840353E+02  0.39829840353E+02  0.00000000000E+00 0.  1.
         13   -1    0    0    0    0 -0.00000000000E+00 -0.00000000000E+00 -0.10000000000E+04  0.10000000000E+04  0.00000000000E+00 0.  1.
    9000005    2    1    2  501    0 -0.21710185867E+02 -0.88839947024E+01 -0.96397572373E+03  0.10160655846E+04  0.32029645454E+03 0.  0.
         13    1    3    3    0    0  0.93596922795E+02  0.19841886026E+02 -0.81670652108E+02  0.12579419626E+03  0.00000000000E+00 0.  1.
          1    1    3    3  501    0 -0.11530710866E+03 -0.28725880728E+02 -0.88230507162E+03  0.89027138836E+03  0.00000000000E+00 0.  1.
         21    1    1    2  502  501  0.21710185867E+02  0.88839947024E+01  0.38055640803E+01  0.23764255726E+02  0.00000000000E+00 0.  1.
<mgrwt>
<rscale>  1 0.30000000E+03</rscale>
<asrwt>0</asrwt>
<pdfrwt beam="1">  1        1 0.14483609E+00 0.30000000E+03</pdfrwt>
<pdfrwt beam="2">0</pdfrwt>
<totfact> 0.19093356E+01</totfact>
</mgrwt>
</event>
<event>
 6    1  0.1839160E-004  0.3000000E+03  0.7818608E-02  0.1093470E+00
          1   -1    0    0  502    0  0.00000000000E+00  0.00000000000E+00  0.33453765992E+02  0.33453765992E+02  0.00000000000E+00 0.  1.
         13   -1    0    0    0    0 -0.00000000000E+00 -0.00000000000E+00 -0.10000000000E+04  0.10000000000E+04  0.00000000000E+00 0.  1.
    9000005    2    1    2  501    0  0.96881224839E+01 -0.53328997063E+01 -0.97056151849E+03  0.10216884761E+04  0.31895984310E+03 0.  0.
         13    1    3    3    0    0  0.41716202618E+02  0.38283483960E+02 -0.96569930456E+03  0.96735774847E+03  0.00000000000E+00 0.  1.
          3    1    3    3  501    0 -0.32028080134E+02 -0.43616383667E+02 -0.48622139275E+01  0.54330727637E+02  0.00000000000E+00 0.  1.
         21    1    1    2  502  501 -0.96881224839E+01  0.53328997063E+01  0.40152844797E+01  0.11765289881E+02  0.00000000000E+00 0.  1.
<mgrwt>
<rscale>  1 0.30000000E+03</rscale>
<asrwt>0</asrwt>
<pdfrwt beam="1">  1        1 0.12165031E+00 0.30000000E+03</pdfrwt>
<pdfrwt beam="2">0</pdfrwt>
<totfact> 0.25445381E+01</totfact>
</mgrwt>
</event>
<event>
 6    1  0.1839160E-004  0.3000000E+03  0.7818608E-02  0.1093470E+00
          1   -1    0    0  502    0  0.00000000000E+00  0.00000000000E+00  0.35557145093E+02  0.35557145093E+02  0.00000000000E+00 0.  1.
         13   -1    0    0    0    0 -0.00000000000E+00 -0.00000000000E+00 -0.10000000000E+04  0.10000000000E+04  0.00000000000E+00 0.  1.
    9000005    2    1    2  501    0  0.75768627068E+01 -0.86556231675E+01 -0.97311015817E+03  0.10211539924E+04  0.30932146330E+03 0.  0.
         13    1    3    3    0    0  0.12620979120E+03 -0.65339842792E+02 -0.26270133824E+03  0.29868076531E+03  0.00000000000E+00 0.  1.
          3    1    3    3  501    0 -0.11863292849E+03  0.56684219624E+02 -0.71040881993E+03  0.72247322712E+03  0.00000000000E+00 0.  1.
         21    1    1    2  502  501 -0.75768627068E+01  0.86556231675E+01  0.86673032609E+01  0.14403152666E+02  0.00000000000E+00 0.  1.
<mgrwt>
<rscale>  1 0.30000000E+03</rscale>
<asrwt>0</asrwt>
<pdfrwt beam="1">  1        1 0.12929898E+00 0.30000000E+03</pdfrwt>
<pdfrwt beam="2">0</pdfrwt>
<totfact> 0.23082019E+01</totfact>
</mgrwt>
</event>
<event>
 6    1  0.1839160E-004  0.3000000E+03  0.7818608E-02  0.1093470E+00
          1   -1    0    0  502    0  0.00000000000E+00  0.00000000000E+00  0.30843340295E+02  0.30843340295E+02  0.00000000000E+00 0.  1.
         13   -1    0    0    0    0 -0.00000000000E+00 -0.00000000000E+00 -0.10000000000E+04  0.10000000000E+04  0.00000000000E+00 0.  1.
    9000005    2    1    2  501    0 -0.60473779085E+01 -0.17877172619E+02 -0.94120979936E+03  0.99712107638E+03  0.32866151352E+03 0.  0.
         13    1    3    3    0    0  0.90441829091E+02 -0.10910086501E+03 -0.20613134741E+03  0.25014566872E+03  0.00000000000E+00 0.  1.
          1    1    3    3  501    0 -0.96489207000E+02  0.91223692392E+02 -0.73507845196E+03  0.74697540766E+03  0.00000000000E+00 0.  1.
         21    1    1    2  502  501  0.60473779085E+01  0.17877172619E+02 -0.27946860341E+02  0.33722263912E+02  0.00000000000E+00 0. -1.
<mgrwt>
<rscale>  1 0.30000000E+03</rscale>
<asrwt>0</asrwt>
<pdfrwt beam="1">  1        1 0.11215784E+00 0.30000000E+03</pdfrwt>
<pdfrwt beam="2">0</pdfrwt>
<totfact> 0.28847918E+01</totfact>
</mgrwt>
</event>
<event>
 6    1  0.1839160E-004  0.3000000E+03  0.7818608E-02  0.1093470E+00
          1   -1    0    0  502    0  0.00000000000E+00  0.00000000000E+00  0.60821025150E+02  0.60821025150E+02  0.00000000000E+00 0.  1.
         13   -1    0    0    0    0 -0.00000000000E+00 -0.00000000000E+00 -0.10000000000E+04  0.10000000000E+04  0.00000000000E+00 0.  1.
    9000005    2    1    2  501    0 -0.33068138854E+02  0.70275765745E+01 -0.95238531079E+03  0.10245264533E+04  0.37613001020E+03 0.  0.
         13    1    3    3    0    0  0.46549336704E+02 -0.86250344717E+02 -0.43201577521E+02  0.10710900528E+03  0.00000000000E+00 0.  1.
          3    1    3    3  501    0 -0.79617475558E+02  0.93277921292E+02 -0.90918373327E+03  0.91741744798E+03  0.00000000000E+00 0.  1.
         21    1    1    2  502  501  0.33068138854E+02 -0.70275765745E+01  0.13206335942E+02  0.36294571891E+02  0.00000000000E+00 0.  1.
<mgrwt>
<rscale>  1 0.30000000E+03</rscale>
<asrwt>0</asrwt>
<pdfrwt beam="1">  1        1 0.22116783E+00 0.30000000E+03</pdfrwt>
<pdfrwt beam="2">0</pdfrwt>
<totfact> 0.81400263E+00</totfact>
</mgrwt>
</event>
<event>
 6    1  0.1839160E-004  0.3000000E+03  0.7818608E-02  0.1093470E+00
          1   -1    0    0  502    0  0.00000000000E+00  0.00000000000E+00  0.48707657045E+02  0.48707657045E+02  0.00000000000E+00 0.  1.
         13   -1    0    0    0    0 -0.00000000000E+00 -0.00000000000E+00 -0.10000000000E+04  0.10000000000E+04  0.00000000000E+00 0.  1.
    9000005    2    1    2  501    0 -0.10812650242E+02  0.15646041404E+02 -0.96860128706E+03  0.10229916783E+04  0.32857542294E+03 0.  0.
         13    1    3    3    0    0 -0.86882895992E+02 -0.27495287028E+02 -0.91686385694E+03  0.92138154995E+03  0.00000000000E+00 0.  1.
          1    1    3    3  501    0  0.76070245751E+02  0.43141328432E+02 -0.51737430115E+02  0.10161012835E+03  0.00000000000E+00 0.  1.
         21    1    1    2  502  501  0.10812650242E+02 -0.15646041404E+02  0.17308944104E+02  0.25715978746E+02  0.00000000000E+00 0.  1.
<mgrwt>
<rscale>  1 0.30000000E+03</rscale>
<asrwt>0</asrwt>
<pdfrwt beam="1">  1        1 0.17711913E+00 0.30000000E+03</pdfrwt>
<pdfrwt beam="2">0</pdfrwt>
<totfact> 0.13191582E+01</totfact>
</mgrwt>
</event>
<event>
 6    1  0.1839160E-004  0.3000000E+03  0.7818608E-02  0.1093470E+00
          1   -1    0    0  502    0  0.00000000000E+00  0.00000000000E+00  0.48906265541E+02  0.48906265541E+02  0.00000000000E+00 0.  1.
         13   -1    0    0    0    0 -0.00000000000E+00 -0.00000000000E+00 -0.10000000000E+04  0.10000000000E+04  0.00000000000E+00 0.  1.
    9000005    2    1    2  501    0 -0.35654646864E+02 -0.26418852152E+02 -0.94966721751E+03  0.10045075658E+04  0.32434305304E+03 0.  0.
         13    1    3    3    0    0 -0.15724370198E+02 -0.86134731480E+02 -0.46482671868E+02  0.99131662799E+02  0.00000000000E+00 0.  1.
          3    1    3    3  501    0 -0.19930276666E+02  0.59715879328E+02 -0.90318454564E+03  0.90537590296E+03  0.00000000000E+00 0.  1.
         21    1    1    2  502  501  0.35654646864E+02  0.26418852152E+02 -0.14265169518E+01  0.44398699785E+02  0.00000000000E+00 0.  1.
<mgrwt>
<rscale>  1 0.30000000E+03</rscale>
<asrwt>0</asrwt>
<pdfrwt beam="1">  1        1 0.17784134E+00 0.30000000E+03</pdfrwt>
<pdfrwt beam="2">0</pdfrwt>
<totfact> 0.13085636E+01</totfact>
</mgrwt>
</event>
<event>
 6    1  0.1839160E-004  0.3000000E+03  0.7818608E-02  0.1093470E+00
          1   -1    0    0  502    0  0.00000000000E+00  0.00000000000E+00  0.27307459417E+02  0.27307459417E+02  0.00000000000E+00 0.  1.
         13   -1    0    0    0    0 -0.00000000000E+00 -0.00000000000E+00 -0.10000000000E+04  0.10000000000E+04  0.00000000000E+00 0.  1.
    9000005    2    1    2  501    0  0.11487194638E+02 -0.17886913214E+01 -0.97800515122E+03  0.10145254843E+04  0.26950459612E+03 0.  0.
         13    1    3    3    0    0 -0.12804387977E+03 -0.16892916211E+02 -0.49078986229E+03  0.50749905881E+03  0.00000000000E+00 0.  1.
          1    1    3    3  501    0  0.13953107440E+03  0.15104224889E+02 -0.48721528893E+03  0.50702642545E+03  0.00000000000E+00 0.  1.
         21    1    1    2  502  501 -0.11487194638E+02  0.17886913214E+01  0.53126106362E+01  0.12781975163E+02  0.00000000000E+00 0.  1.
<mgrwt>
<rscale>  1 0.30000000E+03</rscale>
<asrwt>0</asrwt>
<pdfrwt beam="1">  1        1 0.99300062E-01 0.30000000E+03</pdfrwt>
<pdfrwt beam="2">0</pdfrwt>
<totfact> 0.34579883E+01</totfact>
</mgrwt>
</event>
<event>
 6    1  0.1839160E-004  0.3000000E+03  0.7818608E-02  0.1093470E+00
          1   -1    0    0  502    0  0.00000000000E+00  0.00000000000E+00  0.30961979870E+02  0.30961979870E+02  0.00000000000E+00 0.  1.
         13   -1    0    0    0    0 -0.00000000000E+00 -0.00000000000E+00 -0.10000000000E+04  0.10000000000E+04  0.00000000000E+00 0.  1.
    9000005    2    1    2  501    0 -0.97446457383E+01 -0.14468395754E+01 -0.96687290734E+03  0.10208753958E+04  0.32748481381E+03 0.  0.
         13    1    3    3    0    0  0.15533302132E+03 -0.23813202750E+02 -0.54815884693E+03  0.57023989478E+03  0.00000000000E+00 0.  1.
          3    1    3    3  501    0 -0.16507766706E+03  0.22366363175E+02 -0.41871406042E+03  0.45063550099E+03  0.00000000000E+00 0.  1.
         21    1    1    2  502  501  0.97446457383E+01  0.14468395754E+01 -0.21651127851E+01  0.10086584094E+02  0.00000000000E+00 0. -1.
<mgrwt>
<rscale>  1 0.30000000E+03</rscale>
<asrwt>0</asrwt>
<pdfrwt beam="1">  1        1 0.11258926E+00 0.30000000E+03</pdfrwt>
<pdfrwt beam="2">0</pdfrwt>
<totfact> 0.28679887E+01</totfact>
</mgrwt>
</event>
<event>
 6    1  0.1839160E-004  0.3000000E+03  0.7818608E-02  0.1093470E+00
          1   -1    0    0  502    0  0.00000000000E+00  0.00000000000E+00  0.52225931582E+02  0.52225931582E+02  0.00000000000E+00 0.  1.
         13   -1    0    0    0    0 -0.00000000000E+00 -0.00000000000E+00 -0.10000000000E+04  0.10000000000E+04  0.00000000000E+00 0.  1.
    9000005    2    1    2  501    0 -0.13165639576E+02 -0.31720558111E+01 -0.97156471934E+03  0.10248509234E+04  0.32588036954E+03 0.  0.
         13    1    3    3    0    0  0.10436342963E+00  0.13857809192E+03 -0.22064035172E+03  0.26054954090E+03  0.00000000000E+00 0.  1.
          1    1    3    3  501    0 -0.13270003006E+02 -0.14175014773E+03 -0.75092436762E+03  0.76430138247E+03  0.00000000000E+00 0.  1.
         21    1    1    2  502  501  0.13165639576E+02  0.31720558111E+01  0.23790650922E+02  0.27375008216E+02  0.00000000000E+00 0. -1.
<mgrwt>
<rscale>  1 0.30000000E+03</rscale>
<asrwt>0</asrwt>
<pdfrwt beam="1">  1        1 0.18991288E+00 0.30000000E+03</pdfrwt>
<pdfrwt beam="2">0</pdfrwt>
<totfact> 0.11445004E+01</totfact>
</mgrwt>
</event>
<event>
 6    1  0.1839160E-004  0.3000000E+03  0.7818608E-02  0.1093470E+00
          1   -1    0    0  502    0  0.00000000000E+00  0.00000000000E+00  0.31675123369E+02  0.31675123369E+02  0.00000000000E+00 0.  1.
         13   -1    0    0    0    0 -0.00000000000E+00 -0.00000000000E+00 -0.10000000000E+04  0.10000000000E+04  0.00000000000E+00 0.  1.
    9000005    2    1    2  501    0 -0.59467578990E+01 -0.81887463369E+01 -0.97302444879E+03  0.10205169213E+04  0.30753176929E+03 0.  0.
         13    1    3    3    0    0 -0.39108949320E+02 -0.10716509258E+03 -0.13824285711E+03  0.17923435644E+03  0.00000000000E+00 0.  1.
          3    1    3    3  501    0  0.33162191421E+02  0.98976346247E+02 -0.83478159168E+03  0.84128256481E+03  0.00000000000E+00 0.  1.
         21    1    1    2  502  501  0.59467578990E+01  0.81887463369E+01  0.46995721565E+01  0.11158202119E+02  0.00000000000E+00 0.  1.
<mgrwt>
<rscale>  1 0.30000000E+03</rscale>
<asrwt>0</asrwt>
<pdfrwt beam="1">  1        1 0.11518251E+00 0.30000000E+03</pdfrwt>
<pdfrwt beam="2">0</pdfrwt>
<totfact> 0.27698634E+01</totfact>
</mgrwt>
</event>
<event>
 6    1  0.1839160E-004  0.3000000E+03  0.7818608E-02  0.1093470E+00
          1   -1    0    0  502    0  0.00000000000E+00  0.00000000000E+00  0.33409908791E+02  0.33409908791E+02  0.00000000000E+00 0.  1.
         13   -1    0    0    0    0 -0.00000000000E+00 -0.00000000000E+00 -0.10000000000E+04  0.10000000000E+04  0.00000000000E+00 0.  1.
    9000005    2    1    2  501    0  0.62917328598E+00 -0.25654758717E+02 -0.94382869283E+03  0.99910766747E+03  0.32671848321E+03 0.  0.
         13    1    3    3    0    0  0.42437712871E+02  0.12758569912E+03 -0.21823302667E+03  0.25632932728E+03  0.00000000000E+00 0.  1.
          3    1    3    3  501    0 -0.41808539585E+02 -0.15324045784E+03 -0.72559566616E+03  0.74277834019E+03  0.00000000000E+00 0.  1.
         21    1    1    2  502  501 -0.62917328598E+00  0.25654758717E+02 -0.22761398378E+02  0.34302241326E+02  0.00000000000E+00 0.  1.
<mgrwt>
<rscale>  1 0.30000000E+03</rscale>
<asrwt>0</asrwt>
<pdfrwt beam="1">  1        1 0.12149083E+00 0.30000000E+03</pdfrwt>
<pdfrwt beam="2">0</pdfrwt>
<totfact> 0.25497914E+01</totfact>
</mgrwt>
</event>
<event>
 6    1  0.1839160E-004  0.3000000E+03  0.7818608E-02  0.1093470E+00
          1   -1    0    0  502    0  0.00000000000E+00  0.00000000000E+00  0.31180543983E+02  0.31180543983E+02  0.00000000000E+00 0.  1.
         13   -1    0    0    0    0 -0.00000000000E+00 -0.00000000000E+00 -0.10000000000E+04  0.10000000000E+04  0.00000000000E+00 0.  1.
    9000005    2    1    2  501    0 -0.18137547508E+02  0.31003521573E+01 -0.93328107087E+03  0.99116105333E+03  0.33323879364E+03 0.  0.
         13    1    3    3    0    0  0.85389504740E+02  0.11766474480E+03 -0.67300102336E+03  0.68852504467E+03  0.00000000000E+00 0.  1.
          1    1    3    3  501    0 -0.10352705225E+03 -0.11456439265E+03 -0.26028004751E+03  0.30263600867E+03  0.00000000000E+00 0.  1.
         21    1    1    2  502  501  0.18137547508E+02 -0.31003521573E+01 -0.35538385147E+02  0.40019490651E+02  0.00000000000E+00 0.  1.
<mgrwt>
<rscale>  1 0.30000000E+03</rscale>
<asrwt>0</asrwt>
<pdfrwt beam="1">  1        1 0.11338404E+00 0.30000000E+03</pdfrwt>
<pdfrwt beam="2">0</pdfrwt>
<totfact> 0.28373981E+01</totfact>
</mgrwt>
</event>
<event>
 6    1  0.1839160E-004  0.3000000E+03  0.7818608E-02  0.1093470E+00
          3   -1    0    0  502    0  0.00000000000E+00  0.00000000000E+00  0.31762372342E+02  0.31762372342E+02  0.00000000000E+00 0.  1.
         13   -1    0    0    0    0 -0.00000000000E+00 -0.00000000000E+00 -0.10000000000E+04  0.10000000000E+04  0.00000000000E+00 0.  1.
    9000005    2    1    2  501    0 -0.36524783794E+02 -0.45996481900E+02 -0.92370707826E+03  0.95805547980E+03  0.24735763536E+03 0.  0.
         13    1    3    3    0    0  0.37878261506E+02 -0.13081918954E+03 -0.40733176791E+03  0.42949690592E+03  0.00000000000E+00 0.  1.
          3    1    3    3  501    0 -0.74403045300E+02  0.84822707645E+02 -0.51637531035E+03  0.52855857388E+03  0.00000000000E+00 0.  1.
         21    1    1    2  502  501  0.36524783794E+02  0.45996481900E+02 -0.44530549400E+02  0.73706892542E+02  0.00000000000E+00 0.  1.
<mgrwt>
<rscale>  1 0.30000000E+03</rscale>
<asrwt>0</asrwt>
<pdfrwt beam="1">  1        3 0.11549978E+00 0.30000000E+03</pdfrwt>
<pdfrwt beam="2">0</pdfrwt>
<totfact> 0.26071567E+00</totfact>
</mgrwt>
</event>
<event>
 6    1  0.1839160E-004  0.3000000E+03  0.7818608E-02  0.1093470E+00
          1   -1    0    0  502    0  0.00000000000E+00  0.00000000000E+00  0.28143369344E+02  0.28143369344E+02  0.00000000000E+00 0.  1.
         13   -1    0    0    0    0 -0.00000000000E+00 -0.00000000000E+00 -0.10000000000E+04  0.10000000000E+04  0.00000000000E+00 0.  1.
    9000005    2    1    2  501    0  0.13704065880E+02  0.44945296389E+01 -0.93751683740E+03  0.99089791836E+03  0.32051967487E+03 0.  0.
         13    1    3    3    0    0 -0.55272045721E+02 -0.57197412994E+02 -0.87639026124E+03  0.87999229149E+03  0.00000000000E+00 0.  1.
          3    1    3    3  501    0  0.68976111600E+02  0.61691942633E+02 -0.61126576162E+02  0.11090562687E+03  0.00000000000E+00 0.  1.
         21    1    1    2  502  501 -0.13704065880E+02 -0.44945296389E+01 -0.34339793258E+02  0.37245450988E+02  0.00000000000E+00 0. -1.
<mgrwt>
<rscale>  1 0.30000000E+03</rscale>
<asrwt>0</asrwt>
<pdfrwt beam="1">  1        1 0.10233974E+00 0.30000000E+03</pdfrwt>
<pdfrwt beam="2">0</pdfrwt>
<totfact> 0.33084856E+01</totfact>
</mgrwt>
</event>
<event>
 6    1  0.1839160E-004  0.3000000E+03  0.7818608E-02  0.1093470E+00
          3   -1    0    0  502    0  0.00000000000E+00  0.00000000000E+00  0.30980099057E+02  0.30980099057E+02  0.00000000000E+00 0.  1.
         13   -1    0    0    0    0 -0.00000000000E+00 -0.00000000000E+00 -0.10000000000E+04  0.10000000000E+04  0.00000000000E+00 0.  1.
    9000005    2    1    2  501    0  0.10858853564E+02 -0.10909038529E+02 -0.95492315684E+03  0.10101081079E+04  0.32894259722E+03 0.  0.
         13    1    3    3    0    0 -0.13621977853E+03 -0.88810917169E+02 -0.49172466629E+03  0.51791539320E+03  0.00000000000E+00 0.  1.
          3    1    3    3  501    0  0.14707863210E+03  0.77901878639E+02 -0.46319849055E+03  0.49219271466E+03  0.00000000000E+00 0.  1.
         21    1    1    2  502  501 -0.10858853564E+02  0.10909038529E+02 -0.14096744099E+02  0.20871991198E+02  0.00000000000E+00 0.  1.
<mgrwt>
<rscale>  1 0.30000000E+03</rscale>
<asrwt>0</asrwt>
<pdfrwt beam="1">  1        3 0.11265514E+00 0.30000000E+03</pdfrwt>
<pdfrwt beam="2">0</pdfrwt>
<totfact> 0.28105738E+00</totfact>
</mgrwt>
</event>
<event>
 6    1  0.1839160E-004  0.3000000E+03  0.7818608E-02  0.1093470E+00
          1   -1    0    0  502    0  0.00000000000E+00  0.00000000000E+00  0.40546297381E+02  0.40546297381E+02  0.00000000000E+00 0.  1.
         13   -1    0    0    0    0 -0.00000000000E+00 -0.00000000000E+00 -0.10000000000E+04  0.10000000000E+04  0.00000000000E+00 0.  1.
    9000005    2    1    2  501    0  0.22894128593E+02 -0.41366268588E+02 -0.92623482051E+03  0.98276391746E+03  0.32508255172E+03 0.  0.
         13    1    3    3    0    0  0.74162693319E+02  0.12413092985E+03 -0.30040313176E+03  0.33339261299E+03  0.00000000000E+00 0.  1.
          3    1    3    3  501    0 -0.51268564726E+02 -0.16549719844E+03 -0.62583168875E+03  0.64937130447E+03  0.00000000000E+00 0.  1.
         21    1    1    2  502  501 -0.22894128593E+02  0.41366268588E+02 -0.33218882108E+02  0.57782379922E+02  0.00000000000E+00 0.  1.
<mgrwt>
<rscale>  1 0.30000000E+03</rscale>
<asrwt>0</asrwt>
<pdfrwt beam="1">  1        1 0.14744139E+00 0.30000000E+03</pdfrwt>
<pdfrwt beam="2">0</pdfrwt>
<totfact> 0.18513302E+01</totfact>
</mgrwt>
</event>
<event>
 6    1  0.1839160E-004  0.3000000E+03  0.7818608E-02  0.1093470E+00
          1   -1    0    0  502    0  0.00000000000E+00  0.00000000000E+00  0.39939177792E+02  0.39939177792E+02  0.00000000000E+00 0.  1.
         13   -1    0    0    0    0 -0.00000000000E+00 -0.00000000000E+00 -0.10000000000E+04  0.10000000000E+04  0.00000000000E+00 0.  1.
    9000005    2    1    2  501    0 -0.54194927247E+02  0.16409489083E+02 -0.89570701768E+03  0.95422002224E+03  0.32409632496E+03 0.  0.
         13    1    3    3    0    0  0.10066315585E+03  0.10908328357E+03 -0.41614130635E+03  0.44182102774E+03  0.00000000000E+00 0.  1.
          1    1    3    3  501    0 -0.15485808309E+03 -0.92673794485E+02 -0.47956571133E+03  0.51239899450E+03  0.00000000000E+00 0.  1.
         21    1    1    2  502  501  0.54194927247E+02 -0.16409489083E+02 -0.64353804525E+02  0.85719155549E+02  0.00000000000E+00 0. -1.
<mgrwt>
<rscale>  1 0.30000000E+03</rscale>
<asrwt>0</asrwt>
<pdfrwt beam="1">  1        1 0.14523368E+00 0.30000000E+03</pdfrwt>
<pdfrwt beam="2">0</pdfrwt>
<totfact> 0.19003372E+01</totfact>
</mgrwt>
</event>
<event>
 6    1  0.1839160E-004  0.3000000E+03  0.7818608E-02  0.1093470E+00
          1   -1    0    0  502    0  0.00000000000E+00  0.00000000000E+00  0.41662531106E+02  0.41662531106E+02  0.00000000000E+00 0.  1.
         13   -1    0    0    0    0 -0.00000000000E+00 -0.00000000000E+00 -0.10000000000E+04  0.10000000000E+04  0.00000000000E+00 0.  1.
    9000005    2    1    2  501    0  0.10450640977E+02 -0.19419412087E+02 -0.96227850830E+03  0.10192602711E+04  0.33529873726E+03 0.  0.
         13    1    3    3    0    0 -0.12211801647E+03 -0.84726656756E+02 -0.72225775680E+03  0.73739248950E+03  0.00000000000E+00 0.  1.
          1    1    3    3  501    0  0.13256865745E+03  0.65307244669E+02 -0.24002075150E+03  0.28186778158E+03  0.00000000000E+00 0.  1.
         21    1    1    2  502  501 -0.10450640977E+02  0.19419412087E+02  0.39410394041E+01  0.22402260025E+02  0.00000000000E+00 0.  1.
<mgrwt>
<rscale>  1 0.30000000E+03</rscale>
<asrwt>0</asrwt>
<pdfrwt beam="1">  1        1 0.15150043E+00 0.30000000E+03</pdfrwt>
<pdfrwt beam="2">0</pdfrwt>
<totfact> 0.17652748E+01</totfact>
</mgrwt>
</event>
<event>
 6    1  0.1839160E-004  0.3000000E+03  0.7818608E-02  0.1093470E+00
          1   -1    0    0  502    0  0.00000000000E+00  0.00000000000E+00  0.29221888847E+02  0.29221888847E+02  0.00000000000E+00 0.  1.
         13   -1    0    0    0    0 -0.00000000000E+00 -0.00000000000E+00 -0.10000000000E+04  0.10000000000E+04  0.00000000000E+00 0.  1.
    9000005    2    1    2  501    0 -0.13848607413E+02  0.12664520268E+00 -0.90389228400E+03  0.96091732209E+03  0.32580521611E+03 0.  0.
         13    1    3    3    0    0 -0.58417177013E+02  0.91661845784E+02 -0.82497199479E+03  0.83210170816E+03  0.00000000000E+00 0.  1.
          3    1    3    3  501    0  0.44568569600E+02 -0.91535200582E+02 -0.78920289216E+02  0.12881561393E+03  0.00000000000E+00 0.  1.
         21    1    1    2  502  501  0.13848607413E+02 -0.12664520268E+00 -0.66885827149E+02  0.68304566756E+02  0.00000000000E+00 0. -1.
<mgrwt>
<rscale>  1 0.30000000E+03</rscale>
<asrwt>0</asrwt>
<pdfrwt beam="1">  1        1 0.10626164E+00 0.30000000E+03</pdfrwt>
<pdfrwt beam="2">0</pdfrwt>
<totfact> 0.31291537E+01</totfact>
</mgrwt>
</event>
<event>
 6    1  0.1839160E-004  0.3000000E+03  0.7818608E-02  0.1093470E+00
          1   -1    0    0  502    0  0.00000000000E+00  0.00000000000E+00  0.40602600437E+02  0.40602600437E+02  0.00000000000E+00 0.  1.
         13   -1    0    0    0    0 -0.00000000000E+00 -0.00000000000E+00 -0.10000000000E+04  0.10000000000E+04  0.00000000000E+00 0.  1.
    9000005    2    1    2  501    0  0.44936993261E+02  0.50493049548E+02 -0.88242862820E+03  0.93816689777E+03  0.31130043814E+03 0.  0.
         13    1    3    3    0    0  0.58629400247E+02  0.15955316354E+03 -0.73426270093E+03  0.75368185101E+03  0.00000000000E+00 0.  1.
          3    1    3    3  501    0 -0.13692406986E+02 -0.10906011399E+03 -0.14816592727E+03  0.18448504676E+03  0.00000000000E+00 0.  1.
         21    1    1    2  502  501 -0.44936993261E+02 -0.50493049548E+02 -0.76968771361E+02  0.10243570267E+03  0.00000000000E+00 0.  1.
<mgrwt>
<rscale>  1 0.30000000E+03</rscale>
<asrwt>0</asrwt>
<pdfrwt beam="1">  1        1 0.14764613E+00 0.30000000E+03</pdfrwt>
<pdfrwt beam="2">0</pdfrwt>
<totfact> 0.18468661E+01</totfact>
</mgrwt>
</event>
<event>
 6    1  0.1839160E-004  0.3000000E+03  0.7818608E-02  0.1093470E+00
          1   -1    0    0  502    0  0.00000000000E+00  0.00000000000E+00  0.32145647018E+02  0.32145647018E+02  0.00000000000E+00 0.  1.
         13   -1    0    0    0    0 -0.00000000000E+00 -0.00000000000E+00 -0.10000000000E+04  0.10000000000E+04  0.00000000000E+00 0.  1.
    9000005    2    1    2  501    0  0.13637152552E+02  0.14154512329E+01 -0.96209055159E+03  0.10172729594E+04  0.33020912909E+03 0.  0.
         13    1    3    3    0    0 -0.40028350127E+02 -0.13213144708E+03 -0.73898999989E+03  0.75177603584E+03  0.00000000000E+00 0.  1.
          3    1    3    3  501    0  0.53665502680E+02  0.13354689831E+03 -0.22310055170E+03  0.26549692352E+03  0.00000000000E+00 0.  1.
         21    1    1    2  502  501 -0.13637152552E+02 -0.14154512329E+01 -0.57638013871E+01  0.14872687664E+02  0.00000000000E+00 0.  1.
<mgrwt>
<rscale>  1 0.30000000E+03</rscale>
<asrwt>0</asrwt>
<pdfrwt beam="1">  1        1 0.11689351E+00 0.30000000E+03</pdfrwt>
<pdfrwt beam="2">0</pdfrwt>
<totfact> 0.27076853E+01</totfact>
</mgrwt>
</event>
<event>
 6    1  0.1839160E-004  0.3000000E+03  0.7818608E-02  0.1093470E+00
          1   -1    0    0  502    0  0.00000000000E+00  0.00000000000E+00  0.37921071123E+02  0.37921071123E+02  0.00000000000E+00 0.  1.
         13   -1    0    0    0    0 -0.00000000000E+00 -0.00000000000E+00 -0.10000000000E+04  0.10000000000E+04  0.00000000000E+00 0.  1.
    9000005    2    1    2  501    0 -0.44231853524E+01 -0.19265412141E+02 -0.96698149042E+03  0.10175555173E+04  0.31618872094E+03 0.  0.
         13    1    3    3    0    0 -0.12846965270E+03  0.46290611423E+02 -0.23119427100E+03  0.26851082532E+03  0.00000000000E+00 0.  1.
          1    1    3    3  501    0  0.12404646735E+03 -0.65556023565E+02 -0.73578721942E+03  0.74904469196E+03  0.00000000000E+00 0.  1.
         21    1    1    2  502  501  0.44231853524E+01  0.19265412141E+02  0.49025615473E+01  0.20365553843E+02  0.00000000000E+00 0. -1.
<mgrwt>
<rscale>  1 0.30000000E+03</rscale>
<asrwt>0</asrwt>
<pdfrwt beam="1">  1        1 0.13789509E+00 0.30000000E+03</pdfrwt>
<pdfrwt beam="2">0</pdfrwt>
<totfact> 0.20754875E+01</totfact>
</mgrwt>
</event>
<event>
 6    1  0.1839160E-004  0.3000000E+03  0.7818608E-02  0.1093470E+00
          1   -1    0    0  502    0  0.00000000000E+00  0.00000000000E+00  0.31281147505E+02  0.31281147505E+02  0.00000000000E+00 0.  1.
         13   -1    0    0    0    0 -0.00000000000E+00 -0.00000000000E+00 -0.10000000000E+04  0.10000000000E+04  0.00000000000E+00 0.  1.
    9000005    2    1    2  501    0 -0.14798098189E+02 -0.18439064470E+02 -0.86600381301E+03  0.92588018857E+03  0.32669945917E+03 0.  0.
         13    1    3    3    0    0  0.71898605856E+02  0.13367087021E+03 -0.37228023738E+03  0.40203219549E+03  0.00000000000E+00 0.  1.
          3    1    3    3  501    0 -0.86696704045E+02 -0.15210993468E+03 -0.49372357563E+03  0.52384799308E+03  0.00000000000E+00 0.  1.
         21    1    1    2  502  501  0.14798098189E+02  0.18439064470E+02 -0.10271503948E+03  0.10540095894E+03  0.00000000000E+00 0.  1.
<mgrwt>
<rscale>  1 0.30000000E+03</rscale>
<asrwt>0</asrwt>
<pdfrwt beam="1">  1        1 0.11374987E+00 0.30000000E+03</pdfrwt>
<pdfrwt beam="2">0</pdfrwt>
<totfact> 0.28234735E+01</totfact>
</mgrwt>
</event>
<event>
 6    1  0.1839160E-004  0.3000000E+03  0.7818608E-02  0.1093470E+00
          1   -1    0    0  502    0  0.00000000000E+00  0.00000000000E+00  0.28616063980E+02  0.28616063980E+02  0.00000000000E+00 0.  1.
         13   -1    0    0    0    0 -0.00000000000E+00 -0.00000000000E+00 -0.10000000000E+04  0.10000000000E+04  0.00000000000E+00 0.  1.
    9000005    2    1    2  501    0  0.60069350064E+01 -0.62319036322E+01 -0.95604368055E+03  0.10110023384E+04  0.32868113611E+03 0.  0.
         13    1    3    3    0    0  0.90005768115E+01 -0.44242817019E+02 -0.96951364549E+03  0.97056434410E+03  0.00000000000E+00 0.  1.
          1    1    3    3  501    0 -0.29936418051E+01  0.38010913387E+02  0.13469964937E+02  0.40437994302E+02  0.00000000000E+00 0.  1.
         21    1    1    2  502  501 -0.60069350064E+01  0.62319036322E+01 -0.15340255468E+02  0.17613725582E+02  0.00000000000E+00 0. -1.
<mgrwt>
<rscale>  1 0.30000000E+03</rscale>
<asrwt>0</asrwt>
<pdfrwt beam="1">  1        1 0.10405863E+00 0.30000000E+03</pdfrwt>
<pdfrwt beam="2">0</pdfrwt>
<totfact> 0.32280988E+01</totfact>
</mgrwt>
</event>
<event>
 6    1  0.1839160E-004  0.3000000E+03  0.7818608E-02  0.1093470E+00
          1   -1    0    0  502    0  0.00000000000E+00  0.00000000000E+00  0.23501755891E+02  0.23501755891E+02  0.00000000000E+00 0.  1.
         13   -1    0    0    0    0 -0.00000000000E+00 -0.00000000000E+00 -0.10000000000E+04  0.10000000000E+04  0.00000000000E+00 0.  1.
    9000005    2    1    2  501    0  0.90282603809E+01  0.74788698157E+01 -0.95989096652E+03  0.10031733362E+04  0.29125355247E+03 0.  0.
         13    1    3    3    0    0 -0.45248101272E+02  0.13732303183E+03 -0.38349369619E+03  0.40984438603E+03  0.00000000000E+00 0.  1.
          3    1    3    3  501    0  0.54276361653E+02 -0.12984416201E+03 -0.57639727033E+03  0.59332895015E+03  0.00000000000E+00 0.  1.
         21    1    1    2  502  501 -0.90282603809E+01 -0.74788698157E+01 -0.16607277591E+02  0.20328419718E+02  0.00000000000E+00 0. -1.
<mgrwt>
<rscale>  1 0.30000000E+03</rscale>
<asrwt>0</asrwt>
<pdfrwt beam="1">  1        1 0.85461111E-01 0.30000000E+03</pdfrwt>
<pdfrwt beam="2">0</pdfrwt>
<totfact> 0.42843578E+01</totfact>
</mgrwt>
</event>
<event>
 6    1  0.1839160E-004  0.3000000E+03  0.7818608E-02  0.1093470E+00
          1   -1    0    0  502    0  0.00000000000E+00  0.00000000000E+00  0.34696662424E+02  0.34696662424E+02  0.00000000000E+00 0.  1.
         13   -1    0    0    0    0 -0.00000000000E+00 -0.00000000000E+00 -0.10000000000E+04  0.10000000000E+04  0.00000000000E+00 0.  1.
    9000005    2    1    2  501    0  0.67089537311E+01 -0.24084774302E+02 -0.95187017178E+03  0.10063146900E+04  0.32555697665E+03 0.  0.
         13    1    3    3    0    0  0.12589799585E+02  0.48823633639E+02 -0.92800636501E+03  0.92937509314E+03  0.00000000000E+00 0.  1.
          1    1    3    3  501    0 -0.58808458534E+01 -0.72908407941E+02 -0.23863806769E+02  0.76939596892E+02  0.00000000000E+00 0.  1.
         21    1    1    2  502  501 -0.67089537311E+01  0.24084774302E+02 -0.13433165796E+02  0.28381972388E+02  0.00000000000E+00 0. -1.
<mgrwt>
<rscale>  1 0.30000000E+03</rscale>
<asrwt>0</asrwt>
<pdfrwt beam="1">  1        1 0.12616995E+00 0.30000000E+03</pdfrwt>
<pdfrwt beam="2">0</pdfrwt>
<totfact> 0.24013381E+01</totfact>
</mgrwt>
</event>
<event>
 6    1  0.1839160E-004  0.3000000E+03  0.7818608E-02  0.1093470E+00
          1   -1    0    0  502    0  0.00000000000E+00  0.00000000000E+00  0.35347054165E+02  0.35347054165E+02  0.00000000000E+00 0.  1.
         13   -1    0    0    0    0 -0.00000000000E+00 -0.00000000000E+00 -0.10000000000E+04  0.10000000000E+04  0.00000000000E+00 0.  1.
    9000005    2    1    2  501    0  0.16336845586E+02 -0.69302651371E+01 -0.96410658245E+03  0.10175926290E+04  0.32508204388E+03 0.  0.
         13    1    3    3    0    0  0.16423945123E+03 -0.18383328268E+02 -0.64261681411E+03  0.66352762857E+03  0.00000000000E+00 0.  1.
          3    1    3    3  501    0 -0.14790260564E+03  0.11453063131E+02 -0.32148976834E+03  0.35406500047E+03  0.00000000000E+00 0.  1.
         21    1    1    2  502  501 -0.16336845586E+02  0.69302651371E+01 -0.54636338390E+00  0.17754425125E+02  0.00000000000E+00 0.  1.
<mgrwt>
<rscale>  1 0.30000000E+03</rscale>
<asrwt>0</asrwt>
<pdfrwt beam="1">  1        1 0.12853501E+00 0.30000000E+03</pdfrwt>
<pdfrwt beam="2">0</pdfrwt>
<totfact> 0.23305063E+01</totfact>
</mgrwt>
</event>
<event>
 6    1  0.1839160E-004  0.3000000E+03  0.7818608E-02  0.1093470E+00
          1   -1    0    0  502    0  0.00000000000E+00  0.00000000000E+00  0.27379068841E+02  0.27379068841E+02  0.00000000000E+00 0.  1.
         13   -1    0    0    0    0 -0.00000000000E+00 -0.00000000000E+00 -0.10000000000E+04  0.10000000000E+04  0.00000000000E+00 0.  1.
    9000005    2    1    2  501    0  0.15197852134E+02 -0.12404891127E+02 -0.91972351749E+03  0.97096105393E+03  0.31062704904E+03 0.  0.
         13    1    3    3    0    0 -0.37978525909E+02  0.13506048457E+03 -0.58134809611E+03  0.59803788490E+03  0.00000000000E+00 0.  1.
          1    1    3    3  501    0  0.53176378043E+02 -0.14746537569E+03 -0.33837542137E+03  0.37292316903E+03  0.00000000000E+00 0.  1.
         21    1    1    2  502  501 -0.15197852134E+02  0.12404891127E+02 -0.52897413672E+02  0.56418014912E+02  0.00000000000E+00 0. -1.
<mgrwt>
<rscale>  1 0.30000000E+03</rscale>
<asrwt>0</asrwt>
<pdfrwt beam="1">  1        1 0.99560460E-01 0.30000000E+03</pdfrwt>
<pdfrwt beam="2">0</pdfrwt>
<totfact> 0.34447957E+01</totfact>
</mgrwt>
</event>
<event>
 6    1  0.1839160E-004  0.3000000E+03  0.7818608E-02  0.1093470E+00
          1   -1    0    0  502    0  0.00000000000E+00  0.00000000000E+00  0.28795427882E+02  0.28795427882E+02  0.00000000000E+00 0.  1.
         13   -1    0    0    0    0 -0.00000000000E+00 -0.00000000000E+00 -0.10000000000E+04  0.10000000000E+04  0.00000000000E+00 0.  1.
    9000005    2    1    2  501    0 -0.84971749573E+01  0.58091475099E+01 -0.96440041488E+03  0.10164566786E+04  0.32095182062E+03 0.  0.
         13    1    3    3    0    0 -0.12873484110E+03 -0.71259935517E+02 -0.70643204373E+03  0.72159328581E+03  0.00000000000E+00 0.  1.
          1    1    3    3  501    0  0.12023766614E+03  0.77069083027E+02 -0.25796837115E+03  0.29486339283E+03  0.00000000000E+00 0.  1.
         21    1    1    2  502  501  0.84971749573E+01 -0.58091475099E+01 -0.68041572402E+01  0.12338749240E+02  0.00000000000E+00 0.  1.
<mgrwt>
<rscale>  1 0.30000000E+03</rscale>
<asrwt>0</asrwt>
<pdfrwt beam="1">  1        1 0.10471087E+00 0.30000000E+03</pdfrwt>
<pdfrwt beam="2">0</pdfrwt>
<totfact> 0.31983383E+01</totfact>
</mgrwt>
</event>
<event>
 6    1  0.1839160E-004  0.3000000E+03  0.7818608E-02  0.1093470E+00
          1   -1    0    0  502    0  0.00000000000E+00  0.00000000000E+00  0.41735503999E+02  0.41735503999E+02  0.00000000000E+00 0.  1.
         13   -1    0    0    0    0 -0.00000000000E+00 -0.00000000000E+00 -0.10000000000E+04  0.10000000000E+04  0.00000000000E+00 0.  1.
    9000005    2    1    2  501    0 -0.11268162223E+02 -0.50885953616E+00 -0.96418238675E+03  0.10289976922E+04  0.35925108945E+03 0.  0.
         13    1    3    3    0    0  0.15624883090E+03 -0.23208828503E+02 -0.25513541976E+03  0.30007737218E+03  0.00000000000E+00 0.  1.
          3    1    3    3  501    0 -0.16751699313E+03  0.22699968967E+02 -0.70904696699E+03  0.72892032005E+03  0.00000000000E+00 0.  1.
         21    1    1    2  502  501  0.11268162223E+02  0.50885953616E+00  0.59178907467E+01  0.12737811774E+02  0.00000000000E+00 0.  1.
<mgrwt>
<rscale>  1 0.30000000E+03</rscale>
<asrwt>0</asrwt>
<pdfrwt beam="1">  1        1 0.15176579E+00 0.30000000E+03</pdfrwt>
<pdfrwt beam="2">0</pdfrwt>
<totfact> 0.17598230E+01</totfact>
</mgrwt>
</event>
<event>
 6    1  0.1839160E-004  0.3000000E+03  0.7818608E-02  0.1093470E+00
          1   -1    0    0  502    0  0.00000000000E+00  0.00000000000E+00  0.30680492569E+02  0.30680492569E+02  0.00000000000E+00 0.  1.
         13   -1    0    0    0    0 -0.00000000000E+00 -0.00000000000E+00 -0.10000000000E+04  0.10000000000E+04  0.00000000000E+00 0.  1.
    9000005    2    1    2  501    0 -0.14518905735E+02 -0.66141594642E+01 -0.93399826698E+03  0.99192309642E+03  0.33362272219E+03 0.  0.
         13    1    3    3    0    0 -0.16851759493E+03  0.70197960447E+01 -0.61067244396E+03  0.63353633767E+03  0.00000000000E+00 0.  1.
          1    1    3    3  501    0  0.15399868919E+03 -0.13633955509E+02 -0.32332582302E+03  0.35838675875E+03  0.00000000000E+00 0.  1.
         21    1    1    2  502  501  0.14518905735E+02  0.66141594642E+01 -0.35321240451E+02  0.38757396147E+02  0.00000000000E+00 0.  1.
<mgrwt>
<rscale>  1 0.30000000E+03</rscale>
<asrwt>0</asrwt>
<pdfrwt beam="1">  1        1 0.11156566E+00 0.30000000E+03</pdfrwt>
<pdfrwt beam="2">0</pdfrwt>
<totfact> 0.29080846E+01</totfact>
</mgrwt>
</event>
<event>
 6    1  0.1839160E-004  0.3000000E+03  0.7818608E-02  0.1093470E+00
          1   -1    0    0  502    0  0.00000000000E+00  0.00000000000E+00  0.26818344689E+02  0.26818344689E+02  0.00000000000E+00 0.  1.
         13   -1    0    0    0    0 -0.00000000000E+00 -0.00000000000E+00 -0.10000000000E+04  0.10000000000E+04  0.00000000000E+00 0.  1.
    9000005    2    1    2  501    0 -0.37613736149E+00  0.18195918175E+02 -0.97063296586E+03  0.10084409473E+04  0.27293507803E+03 0.  0.
         13    1    3    3    0    0 -0.78827248002E+02 -0.28999037435E+02 -0.86325374779E+03  0.86733022101E+03  0.00000000000E+00 0.  1.
          3    1    3    3  501    0  0.78451110640E+02  0.47194955610E+02 -0.10737921807E+03  0.14111072627E+03  0.00000000000E+00 0.  1.
         21    1    1    2  502  501  0.37613736149E+00 -0.18195918175E+02 -0.25486894485E+01  0.18377397407E+02  0.00000000000E+00 0.  1.
<mgrwt>
<rscale>  1 0.30000000E+03</rscale>
<asrwt>0</asrwt>
<pdfrwt beam="1">  1        1 0.97521459E-01 0.30000000E+03</pdfrwt>
<pdfrwt beam="2">0</pdfrwt>
<totfact> 0.35501254E+01</totfact>
</mgrwt>
</event>
<event>
 6    1  0.1839160E-004  0.3000000E+03  0.7818608E-02  0.1093470E+00
          1   -1    0    0  502    0  0.00000000000E+00  0.00000000000E+00  0.46877842915E+02  0.46877842915E+02  0.00000000000E+00 0.  1.
         13   -1    0    0    0    0 -0.00000000000E+00 -0.00000000000E+00 -0.10000000000E+04  0.10000000000E+04  0.00000000000E+00 0.  1.
    9000005    2    1    2  501    0  0.85633064884E+01 -0.38794887892E+02 -0.95213044290E+03  0.10071367176E+04  0.32587361675E+03 0.  0.
         13    1    3    3    0    0 -0.91276806235E+01 -0.67733363736E+01  0.25972049000E+02  0.28350308084E+02  0.00000000000E+00 0.  1.
          3    1    3    3  501    0  0.17690987112E+02 -0.32021551518E+02 -0.97810249190E+03  0.97878640951E+03  0.00000000000E+00 0.  1.
         21    1    1    2  502  501 -0.85633064884E+01  0.38794887892E+02 -0.99171418660E+00  0.39741125319E+02  0.00000000000E+00 0. -1.
<mgrwt>
<rscale>  1 0.30000000E+03</rscale>
<asrwt>0</asrwt>
<pdfrwt beam="1">  1        1 0.17046524E+00 0.30000000E+03</pdfrwt>
<pdfrwt beam="2">0</pdfrwt>
<totfact> 0.14212609E+01</totfact>
</mgrwt>
</event>
<event>
 6    1  0.1839160E-004  0.3000000E+03  0.7818608E-02  0.1093470E+00
          1   -1    0    0  502    0  0.00000000000E+00  0.00000000000E+00  0.28628137324E+02  0.28628137324E+02  0.00000000000E+00 0.  1.
         13   -1    0    0    0    0 -0.00000000000E+00 -0.00000000000E+00 -0.10000000000E+04  0.10000000000E+04  0.00000000000E+00 0.  1.
    9000005    2    1    2  501    0  0.10789220757E+02  0.11550321411E+02 -0.94516513280E+03  0.99802405426E+03  0.32010165169E+03 0.  0.
         13    1    3    3    0    0 -0.11954399884E+03 -0.53058853762E+02 -0.70662738731E+03  0.71862944145E+03  0.00000000000E+00 0.  1.
          3    1    3    3  501    0  0.13033321959E+03  0.64609175172E+02 -0.23853774549E+03  0.27939461281E+03  0.00000000000E+00 0.  1.
         21    1    1    2  502  501 -0.10789220757E+02 -0.11550321411E+02 -0.26206729880E+02  0.30604083065E+02  0.00000000000E+00 0.  1.
<mgrwt>
<rscale>  1 0.30000000E+03</rscale>
<asrwt>0</asrwt>
<pdfrwt beam="1">  1        1 0.10410254E+00 0.30000000E+03</pdfrwt>
<pdfrwt beam="2">0</pdfrwt>
<totfact> 0.32260830E+01</totfact>
</mgrwt>
</event>
<event>
 6    1  0.1839160E-004  0.3000000E+03  0.7818608E-02  0.1093470E+00
          1   -1    0    0  502    0  0.00000000000E+00  0.00000000000E+00  0.46959809891E+02  0.46959809891E+02  0.00000000000E+00 0.  1.
         13   -1    0    0    0    0 -0.00000000000E+00 -0.00000000000E+00 -0.10000000000E+04  0.10000000000E+04  0.00000000000E+00 0.  1.
    9000005    2    1    2  501    0  0.37387383554E+02  0.28931936261E+01 -0.95647473262E+03  0.10093036935E+04  0.32006849982E+03 0.  0.
         13    1    3    3    0    0  0.76898006991E+02  0.14691568545E+03 -0.60729456002E+03  0.62952696904E+03  0.00000000000E+00 0.  1.
          3    1    3    3  501    0 -0.39510623437E+02 -0.14402249183E+03 -0.34918017260E+03  0.37977672448E+03  0.00000000000E+00 0.  1.
         21    1    1    2  502  501 -0.37387383554E+02 -0.28931936261E+01  0.34345425140E+01  0.37656116378E+02  0.00000000000E+00 0.  1.
<mgrwt>
<rscale>  1 0.30000000E+03</rscale>
<asrwt>0</asrwt>
<pdfrwt beam="1">  1        1 0.17076331E+00 0.30000000E+03</pdfrwt>
<pdfrwt beam="2">0</pdfrwt>
<totfact> 0.14165055E+01</totfact>
</mgrwt>
</event>
<event>
 6    1  0.1839160E-004  0.3000000E+03  0.7818608E-02  0.1093470E+00
          1   -1    0    0  502    0  0.00000000000E+00  0.00000000000E+00  0.35688289816E+02  0.35688289816E+02  0.00000000000E+00 0.  1.
         13   -1    0    0    0    0 -0.00000000000E+00 -0.00000000000E+00 -0.10000000000E+04  0.10000000000E+04  0.00000000000E+00 0.  1.
    9000005    2    1    2  501    0  0.16189168952E+02  0.24356109041E+02 -0.93036526681E+03  0.99088125625E+03  0.33972168767E+03 0.  0.
         13    1    3    3    0    0 -0.70562751105E+01 -0.66242984368E+02 -0.11908022708E+02  0.67673665493E+02  0.00000000000E+00 0.  1.
          3    1    3    3  501    0  0.23245444062E+02  0.90599093409E+02 -0.91845724410E+03  0.92320759076E+03  0.00000000000E+00 0.  1.
         21    1    1    2  502  501 -0.16189168952E+02 -0.24356109041E+02 -0.33946443379E+02  0.44807033567E+02  0.00000000000E+00 0.  1.
<mgrwt>
<rscale>  1 0.30000000E+03</rscale>
<asrwt>0</asrwt>
<pdfrwt beam="1">  1        1 0.12977587E+00 0.30000000E+03</pdfrwt>
<pdfrwt beam="2">0</pdfrwt>
<totfact> 0.22944187E+01</totfact>
</mgrwt>
</event>
<event>
 6    1  0.1839160E-004  0.3000000E+03  0.7818608E-02  0.1093470E+00
          1   -1    0    0  502    0  0.00000000000E+00  0.00000000000E+00  0.45189323206E+02  0.45189323206E+02  0.00000000000E+00 0.  1.
         13   -1    0    0    0    0 -0.00000000000E+00 -0.00000000000E+00 -0.10000000000E+04  0.10000000000E+04  0.00000000000E+00 0.  1.
    9000005    2    1    2  501    0 -0.23452688212E+02  0.15495652023E+02 -0.95105731715E+03  0.10168303471E+04  0.35866947250E+03 0.  0.
         13    1    3    3    0    0 -0.12735273588E+03  0.54671709382E+00 -0.10718983519E+03  0.16645924126E+03  0.00000000000E+00 0.  1.
          1    1    3    3  501    0  0.10390004767E+03  0.14948934929E+02 -0.84386748196E+03  0.85037110586E+03  0.00000000000E+00 0.  1.
         21    1    1    2  502  501  0.23452688212E+02 -0.15495652023E+02 -0.37533596429E+01  0.28358976085E+02  0.00000000000E+00 0.  1.
<mgrwt>
<rscale>  1 0.30000000E+03</rscale>
<asrwt>0</asrwt>
<pdfrwt beam="1">  1        1 0.16432516E+00 0.30000000E+03</pdfrwt>
<pdfrwt beam="2">0</pdfrwt>
<totfact> 0.15233498E+01</totfact>
</mgrwt>
</event>
<event>
 6    1  0.1839160E-004  0.3000000E+03  0.7818608E-02  0.1093470E+00
          1   -1    0    0  502    0  0.00000000000E+00  0.00000000000E+00  0.28995784086E+02  0.28995784086E+02  0.00000000000E+00 0.  1.
         13   -1    0    0    0    0 -0.00000000000E+00 -0.00000000000E+00 -0.10000000000E+04  0.10000000000E+04  0.00000000000E+00 0.  1.
    9000005    2    1    2  501    0 -0.45736195425E+01 -0.22305540306E+02 -0.90167929892E+03  0.95602730294E+03  0.31692931507E+03 0.  0.
         13    1    3    3    0    0  0.86262971228E+02  0.61916268830E+02 -0.10345790983E+03  0.14825135297E+03  0.00000000000E+00 0.  1.
          3    1    3    3  501    0 -0.90836590770E+02 -0.84221809136E+02 -0.79822138909E+03  0.80777594997E+03  0.00000000000E+00 0.  1.
         21    1    1    2  502  501  0.45736195425E+01  0.22305540306E+02 -0.69324916995E+02  0.72968481144E+02  0.00000000000E+00 0. -1.
<mgrwt>
<rscale>  1 0.30000000E+03</rscale>
<asrwt>0</asrwt>
<pdfrwt beam="1">  1        1 0.10543944E+00 0.30000000E+03</pdfrwt>
<pdfrwt beam="2">0</pdfrwt>
<totfact> 0.31655623E+01</totfact>
</mgrwt>
</event>
<event>
 6    1  0.1839160E-004  0.3000000E+03  0.7818608E-02  0.1093470E+00
          1   -1    0    0  502    0  0.00000000000E+00  0.00000000000E+00  0.35045731776E+02  0.35045731776E+02  0.00000000000E+00 0.  1.
         13   -1    0    0    0    0 -0.00000000000E+00 -0.00000000000E+00 -0.10000000000E+04  0.10000000000E+04  0.00000000000E+00 0.  1.
    9000005    2    1    2  501    0  0.12485713921E+02  0.21930541525E+02 -0.95072882498E+03  0.10060766976E+04  0.32812829987E+03 0.  0.
         13    1    3    3    0    0 -0.73122088809E+02  0.13227780060E+03 -0.72538043217E+03  0.74095953181E+03  0.00000000000E+00 0.  1.
          3    1    3    3  501    0  0.85607802730E+02 -0.11034725907E+03 -0.22534839280E+03  0.26511716582E+03  0.00000000000E+00 0.  1.
         21    1    1    2  502  501 -0.12485713921E+02 -0.21930541525E+02 -0.14225443246E+02  0.28969034144E+02  0.00000000000E+00 0.  1.
<mgrwt>
<rscale>  1 0.30000000E+03</rscale>
<asrwt>0</asrwt>
<pdfrwt beam="1">  1        1 0.12743929E+00 0.30000000E+03</pdfrwt>
<pdfrwt beam="2">0</pdfrwt>
<totfact> 0.23629842E+01</totfact>
</mgrwt>
</event>
<event>
 6    1  0.1839160E-004  0.3000000E+03  0.7818608E-02  0.1093470E+00
          1   -1    0    0  502    0  0.00000000000E+00  0.00000000000E+00  0.19616843492E+02  0.19616843492E+02  0.00000000000E+00 0.  1.
         13   -1    0    0    0    0 -0.00000000000E+00 -0.00000000000E+00 -0.10000000000E+04  0.10000000000E+04  0.00000000000E+00 0.  1.
    9000005    2    1    2  501    0 -0.11355601520E+02 -0.27205150954E+02 -0.95534081960E+03  0.98093624678E+03  0.22065984847E+03 0.  0.
         13    1    3    3    0    0 -0.36580173681E+02  0.78988305477E+02 -0.20525028693E+03  0.22294605131E+03  0.00000000000E+00 0.  1.
          1    1    3    3  501    0  0.25224572161E+02 -0.10619345643E+03 -0.75009053267E+03  0.75799019547E+03  0.00000000000E+00 0.  1.
         21    1    1    2  502  501  0.11355601520E+02  0.27205150954E+02 -0.25042336907E+02  0.38680596713E+02  0.00000000000E+00 0. -1.
<mgrwt>
<rscale>  1 0.30000000E+03</rscale>
<asrwt>0</asrwt>
<pdfrwt beam="1">  1        1 0.71334127E-01 0.30000000E+03</pdfrwt>
<pdfrwt beam="2">0</pdfrwt>
<totfact> 0.54956515E+01</totfact>
</mgrwt>
</event>
<event>
 6    1  0.1839160E-004  0.3000000E+03  0.7818608E-02  0.1093470E+00
          1   -1    0    0  502    0  0.00000000000E+00  0.00000000000E+00  0.76958624063E+02  0.76958624063E+02  0.00000000000E+00 0.  1.
         13   -1    0    0    0    0 -0.00000000000E+00 -0.00000000000E+00 -0.10000000000E+04  0.10000000000E+04  0.00000000000E+00 0.  1.
    9000005    2    1    2  501    0 -0.34986625067E+02 -0.11995561972E+02 -0.96720938920E+03  0.10193498501E+04  0.31970636049E+03 0.  0.
         13    1    3    3    0    0  0.69614503205E+02  0.12881710025E+03 -0.43832020019E+03  0.46213052514E+03  0.00000000000E+00 0.  1.
          3    1    3    3  501    0 -0.10460112827E+03 -0.14081266222E+03 -0.52888918901E+03  0.55721932497E+03  0.00000000000E+00 0.  1.
         21    1    1    2  502  501  0.34986625067E+02  0.11995561972E+02  0.44168013258E+02  0.57608773948E+02  0.00000000000E+00 0.  1.
<mgrwt>
<rscale>  1 0.30000000E+03</rscale>
<asrwt>0</asrwt>
<pdfrwt beam="1">  1        1 0.27985013E+00 0.30000000E+03</pdfrwt>
<pdfrwt beam="2">0</pdfrwt>
<totfact> 0.43249794E+00</totfact>
</mgrwt>
</event>
<event>
 6    1  0.1839160E-004  0.3000000E+03  0.7818608E-02  0.1093470E+00
          1   -1    0    0  502    0  0.00000000000E+00  0.00000000000E+00  0.28682943495E+02  0.28682943495E+02  0.00000000000E+00 0.  1.
         13   -1    0    0    0    0 -0.00000000000E+00 -0.00000000000E+00 -0.10000000000E+04  0.10000000000E+04  0.00000000000E+00 0.  1.
    9000005    2    1    2  501    0 -0.38130985673E+01 -0.14955091465E+02 -0.95637216760E+03  0.10071993641E+04  0.31553865294E+03 0.  0.
         13    1    3    3    0    0 -0.13818238026E+03 -0.24736121794E+01 -0.73544281137E+03  0.74831585428E+03  0.00000000000E+00 0.  1.
          1    1    3    3  501    0  0.13436928169E+03 -0.12481479286E+02 -0.22092935624E+03  0.25888350977E+03  0.00000000000E+00 0.  1.
         21    1    1    2  502  501  0.38130985673E+01  0.14955091465E+02 -0.14944888902E+02  0.21483579444E+02  0.00000000000E+00 0. -1.
<mgrwt>
<rscale>  1 0.30000000E+03</rscale>
<asrwt>0</asrwt>
<pdfrwt beam="1">  1        1 0.10430183E+00 0.30000000E+03</pdfrwt>
<pdfrwt beam="2">0</pdfrwt>
<totfact> 0.32169552E+01</totfact>
</mgrwt>
</event>
<event>
 6    1  0.1839160E-004  0.3000000E+03  0.7818608E-02  0.1093470E+00
          3   -1    0    0  502    0  0.00000000000E+00  0.00000000000E+00  0.30565742728E+02  0.30565742728E+02  0.00000000000E+00 0.  1.
         13   -1    0    0    0    0 -0.00000000000E+00 -0.00000000000E+00 -0.10000000000E+04  0.10000000000E+04  0.00000000000E+00 0.  1.
    9000005    2    1    2  501    0  0.10083908673E+02  0.11138969984E+01 -0.96875585793E+03  0.10203978419E+04  0.32034499776E+03 0.  0.
         13    1    3    3    0    0 -0.80292631844E+02 -0.88715012068E+02 -0.80019984815E+03  0.80909644485E+03  0.00000000000E+00 0.  1.
          1    1    3    3  501    0  0.90376540516E+02  0.89828909066E+02 -0.16855600978E+03  0.21130139710E+03  0.00000000000E+00 0.  1.
         21    1    1    2  502  501 -0.10083908673E+02 -0.11138969984E+01 -0.67839933788E+00  0.10167900781E+02  0.00000000000E+00 0.  1.
<mgrwt>
<rscale>  1 0.30000000E+03</rscale>
<asrwt>0</asrwt>
<pdfrwt beam="1">  1        3 0.11114839E+00 0.30000000E+03</pdfrwt>
<pdfrwt beam="2">0</pdfrwt>
<totfact> 0.29241128E+00</totfact>
</mgrwt>
</event>
<event>
 6    1  0.1839160E-004  0.3000000E+03  0.7818608E-02  0.1093470E+00
          1   -1    0    0  502    0  0.00000000000E+00  0.00000000000E+00  0.37153369947E+02  0.37153369947E+02  0.00000000000E+00 0.  1.
         13   -1    0    0    0    0 -0.00000000000E+00 -0.00000000000E+00 -0.10000000000E+04  0.10000000000E+04  0.00000000000E+00 0.  1.
    9000005    2    1    2  501    0 -0.12435083051E+02  0.30515376468E+02 -0.94692670594E+03  0.10005574211E+04  0.32149517402E+03 0.  0.
         13    1    3    3    0    0  0.21478868620E+02  0.16644146516E+03 -0.66354323992E+03  0.68443680086E+03  0.00000000000E+00 0.  1.
          1    1    3    3  501    0 -0.33913951671E+02 -0.13592608869E+03 -0.28338346601E+03  0.31612062020E+03  0.00000000000E+00 0.  1.
         21    1    1    2  502  501  0.12435083051E+02 -0.30515376468E+02 -0.15919924116E+02  0.36595948892E+02  0.00000000000E+00 0.  1.
<mgrwt>
<rscale>  1 0.30000000E+03</rscale>
<asrwt>0</asrwt>
<pdfrwt beam="1">  1        1 0.13510345E+00 0.30000000E+03</pdfrwt>
<pdfrwt beam="2">0</pdfrwt>
<totfact> 0.21475187E+01</totfact>
</mgrwt>
</event>
<event>
 6    1  0.1839160E-004  0.3000000E+03  0.7818608E-02  0.1093470E+00
          1   -1    0    0  502    0  0.00000000000E+00  0.00000000000E+00  0.51913566458E+02  0.51913566458E+02  0.00000000000E+00 0.  1.
         13   -1    0    0    0    0 -0.00000000000E+00 -0.00000000000E+00 -0.10000000000E+04  0.10000000000E+04  0.00000000000E+00 0.  1.
    9000005    2    1    2  501    0  0.23433014107E+02  0.10762570373E+02 -0.96601823230E+03  0.10205051523E+04  0.32798567307E+03 0.  0.
         13    1    3    3    0    0  0.15949189792E+03  0.60517446170E+02 -0.37477895764E+03  0.41177578108E+03  0.00000000000E+00 0.  1.
          1    1    3    3  501    0 -0.13605888382E+03 -0.49754875797E+02 -0.59123927466E+03  0.60872937125E+03  0.00000000000E+00 0.  1.
         21    1    1    2  502  501 -0.23433014107E+02 -0.10762570373E+02  0.17931798756E+02  0.31408414124E+02  0.00000000000E+00 0. -1.
<mgrwt>
<rscale>  1 0.30000000E+03</rscale>
<asrwt>0</asrwt>
<pdfrwt beam="1">  1        1 0.18877700E+00 0.30000000E+03</pdfrwt>
<pdfrwt beam="2">0</pdfrwt>
<totfact> 0.11589630E+01</totfact>
</mgrwt>
</event>
<event>
 6    1  0.1839160E-004  0.3000000E+03  0.7818608E-02  0.1093470E+00
          1   -1    0    0  502    0  0.00000000000E+00  0.00000000000E+00  0.44042104745E+02  0.44042104745E+02  0.00000000000E+00 0.  1.
         13   -1    0    0    0    0 -0.00000000000E+00 -0.00000000000E+00 -0.10000000000E+04  0.10000000000E+04  0.00000000000E+00 0.  1.
    9000005    2    1    2  501    0 -0.82675196853E+01  0.65263182860E+01 -0.97506430890E+03  0.10222246861E+04  0.30672782360E+03 0.  0.
         13    1    3    3    0    0 -0.12664458236E+03 -0.12552640970E+02 -0.19405074829E+03  0.23206057819E+03  0.00000000000E+00 0.  1.
          1    1    3    3  501    0  0.11837706268E+03  0.19078959256E+02 -0.78101356060E+03  0.79016410796E+03  0.00000000000E+00 0.  1.
         21    1    1    2  502  501  0.82675196853E+01 -0.65263182860E+01  0.19106413641E+02  0.21817418600E+02  0.00000000000E+00 0. -1.
<mgrwt>
<rscale>  1 0.30000000E+03</rscale>
<asrwt>0</asrwt>
<pdfrwt beam="1">  1        1 0.16015345E+00 0.30000000E+03</pdfrwt>
<pdfrwt beam="2">0</pdfrwt>
<totfact> 0.15974985E+01</totfact>
</mgrwt>
</event>
<event>
 6    1  0.1839160E-004  0.3000000E+03  0.7818608E-02  0.1093470E+00
          1   -1    0    0  502    0  0.00000000000E+00  0.00000000000E+00  0.50000025646E+02  0.50000025646E+02  0.00000000000E+00 0.  1.
         13   -1    0    0    0    0 -0.00000000000E+00 -0.00000000000E+00 -0.10000000000E+04  0.10000000000E+04  0.00000000000E+00 0.  1.
    9000005    2    1    2  501    0 -0.12482546632E+03 -0.22993031890E+02 -0.69216707104E+03  0.76261895009E+03  0.29390871413E+03 0.  0.
         13    1    3    3    0    0 -0.74155186666E+02 -0.81176469628E+02 -0.59018953306E+02  0.12478721000E+03  0.00000000000E+00 0.  1.
          3    1    3    3  501    0 -0.50670279658E+02  0.58183437739E+02 -0.63314811773E+03  0.63783174008E+03  0.00000000000E+00 0.  1.
         21    1    1    2  502  501  0.12482546632E+03  0.22993031890E+02 -0.25783290331E+03  0.28738107556E+03  0.00000000000E+00 0.  1.
<mgrwt>
<rscale>  1 0.30000000E+03</rscale>
<asrwt>0</asrwt>
<pdfrwt beam="1">  1        1 0.18181866E+00 0.30000000E+03</pdfrwt>
<pdfrwt beam="2">0</pdfrwt>
<totfact> 0.12518552E+01</totfact>
</mgrwt>
</event>
<event>
 6    1  0.1839160E-004  0.3000000E+03  0.7818608E-02  0.1093470E+00
          1   -1    0    0  502    0  0.00000000000E+00  0.00000000000E+00  0.26529777918E+02  0.26529777918E+02  0.00000000000E+00 0.  1.
         13   -1    0    0    0    0 -0.00000000000E+00 -0.00000000000E+00 -0.10000000000E+04  0.10000000000E+04  0.00000000000E+00 0.  1.
    9000005    2    1    2  501    0  0.10402879410E+02 -0.10796377848E+02 -0.95912792248E+03  0.10057816881E+04  0.30239981926E+03 0.  0.
         13    1    3    3    0    0  0.21386491180E+02 -0.11289175908E+02  0.17019853812E+02  0.29571995561E+02  0.00000000000E+00 0.  1.
          1    1    3    3  501    0 -0.10983611770E+02  0.49279806021E+00 -0.97614777630E+03  0.97620969251E+03  0.00000000000E+00 0.  1.
         21    1    1    2  502  501 -0.10402879410E+02  0.10796377848E+02 -0.14342299599E+02  0.20748089850E+02  0.00000000000E+00 0. -1.
<mgrwt>
<rscale>  1 0.30000000E+03</rscale>
<asrwt>0</asrwt>
<pdfrwt beam="1">  1        1 0.96472123E-01 0.30000000E+03</pdfrwt>
<pdfrwt beam="2">0</pdfrwt>
<totfact> 0.36061986E+01</totfact>
</mgrwt>
</event>
<event>
 6    1  0.1839160E-004  0.3000000E+03  0.7818608E-02  0.1093470E+00
          1   -1    0    0  502    0  0.00000000000E+00  0.00000000000E+00  0.41843512618E+02  0.41843512618E+02  0.00000000000E+00 0.  1.
         13   -1    0    0    0    0 -0.00000000000E+00 -0.00000000000E+00 -0.10000000000E+04  0.10000000000E+04  0.00000000000E+00 0.  1.
    9000005    2    1    2  501    0 -0.14811450486E+01  0.50902659439E+02 -0.91608218974E+03  0.97578655953E+03  0.33220408920E+03 0.  0.
         13    1    3    3    0    0 -0.37420962296E+02  0.77788950397E+02 -0.34337989797E+02  0.92900736092E+02  0.00000000000E+00 0.  1.
          3    1    3    3  501    0  0.35939817248E+02 -0.26886290958E+02 -0.88174419994E+03  0.88288582344E+03  0.00000000000E+00 0.  1.
         21    1    1    2  502  501  0.14811450486E+01 -0.50902659439E+02 -0.42074297643E+02  0.66056953084E+02  0.00000000000E+00 0.  1.
<mgrwt>
<rscale>  1 0.30000000E+03</rscale>
<asrwt>0</asrwt>
<pdfrwt beam="1">  1        1 0.15215855E+00 0.30000000E+03</pdfrwt>
<pdfrwt beam="2">0</pdfrwt>
<totfact> 0.17517913E+01</totfact>
</mgrwt>
</event>
<event>
 6    1  0.1839160E-004  0.3000000E+03  0.7818608E-02  0.1093470E+00
          1   -1    0    0  502    0  0.00000000000E+00  0.00000000000E+00  0.34529424144E+02  0.34529424144E+02  0.00000000000E+00 0.  1.
         13   -1    0    0    0    0 -0.00000000000E+00 -0.00000000000E+00 -0.10000000000E+04  0.10000000000E+04  0.00000000000E+00 0.  1.
    9000005    2    1    2  501    0  0.87810638349E+01  0.15762515327E+02 -0.95046385392E+03  0.10110610268E+04  0.34429246041E+03 0.  0.
         13    1    3    3    0    0 -0.11596609582E+03 -0.87514752391E+02 -0.22564971159E+03  0.26837429013E+03  0.00000000000E+00 0.  1.
          1    1    3    3  501    0  0.12474715965E+03  0.10327726772E+03 -0.72481414234E+03  0.74268673665E+03  0.00000000000E+00 0.  1.
         21    1    1    2  502  501 -0.87810638349E+01 -0.15762515327E+02 -0.15006721933E+02  0.23468397361E+02  0.00000000000E+00 0. -1.
<mgrwt>
<rscale>  1 0.30000000E+03</rscale>
<asrwt>0</asrwt>
<pdfrwt beam="1">  1        1 0.12556181E+00 0.30000000E+03</pdfrwt>
<pdfrwt beam="2">0</pdfrwt>
<totfact> 0.24199950E+01</totfact>
</mgrwt>
</event>
<event>
 6    1  0.1839160E-004  0.3000000E+03  0.7818608E-02  0.1093470E+00
          1   -1    0    0  502    0  0.00000000000E+00  0.00000000000E+00  0.39110875188E+02  0.39110875188E+02  0.00000000000E+00 0.  1.
         13   -1    0    0    0    0 -0.00000000000E+00 -0.00000000000E+00 -0.10000000000E+04  0.10000000000E+04  0.00000000000E+00 0.  1.
    9000005    2    1    2  501    0 -0.95701818932E+01 -0.89346518084E+01 -0.92609262484E+03  0.10019327527E+04  0.38216524526E+03 0.  0.
         13    1    3    3    0    0 -0.15562401708E+03  0.71509185805E+02 -0.23365365426E+03  0.28970058422E+03  0.00000000000E+00 0.  1.
          1    1    3    3  501    0  0.14605383519E+03 -0.80443837614E+02 -0.69243897058E+03  0.71223216844E+03  0.00000000000E+00 0.  1.
         21    1    1    2  502  501  0.95701818932E+01  0.89346518084E+01 -0.34796499974E+02  0.37178122530E+02  0.00000000000E+00 0. -1.
<mgrwt>
<rscale>  1 0.30000000E+03</rscale>
<asrwt>0</asrwt>
<pdfrwt beam="1">  1        1 0.14222166E+00 0.30000000E+03</pdfrwt>
<pdfrwt beam="2">0</pdfrwt>
<totfact> 0.19698647E+01</totfact>
</mgrwt>
</event>
<event>
 6    1  0.1839160E-004  0.3000000E+03  0.7818608E-02  0.1093470E+00
          1   -1    0    0  502    0  0.00000000000E+00  0.00000000000E+00  0.35546156136E+02  0.35546156136E+02  0.00000000000E+00 0.  1.
         13   -1    0    0    0    0 -0.00000000000E+00 -0.00000000000E+00 -0.10000000000E+04  0.10000000000E+04  0.00000000000E+00 0.  1.
    9000005    2    1    2  501    0  0.16578983943E+01 -0.11660749987E+02 -0.97157684907E+03  0.10217817484E+04  0.31612916031E+03 0.  0.
         13    1    3    3    0    0 -0.57319682626E+02  0.40296969978E+02 -0.28834039675E+02  0.75768025247E+02  0.00000000000E+00 0.  1.
          3    1    3    3  501    0  0.58977581020E+02 -0.51957719965E+02 -0.94274280939E+03  0.94601372315E+03  0.00000000000E+00 0.  1.
         21    1    1    2  502  501 -0.16578983943E+01  0.11660749987E+02  0.71230052024E+01  0.13764407741E+02  0.00000000000E+00 0. -1.
<mgrwt>
<rscale>  1 0.30000000E+03</rscale>
<asrwt>0</asrwt>
<pdfrwt beam="1">  1        1 0.12925902E+00 0.30000000E+03</pdfrwt>
<pdfrwt beam="2">0</pdfrwt>
<totfact> 0.23093616E+01</totfact>
</mgrwt>
</event>
<event>
 6    1  0.1839160E-004  0.3000000E+03  0.7818608E-02  0.1093470E+00
          1   -1    0    0  502    0  0.00000000000E+00  0.00000000000E+00  0.58986596224E+02  0.58986596224E+02  0.00000000000E+00 0.  1.
         13   -1    0    0    0    0 -0.00000000000E+00 -0.00000000000E+00 -0.10000000000E+04  0.10000000000E+04  0.00000000000E+00 0.  1.
    9000005    2    1    2  501    0  0.20865238125E+02 -0.38117286889E+02 -0.95390059365E+03  0.10136614886E+04  0.34013965531E+03 0.  0.
         13    1    3    3    0    0 -0.14187961290E+03 -0.40820531023E+02 -0.67306617497E+03  0.68906764269E+03  0.00000000000E+00 0.  1.
          1    1    3    3  501    0  0.16274485103E+03  0.27032441333E+01 -0.28083441868E+03  0.32459384588E+03  0.00000000000E+00 0.  1.
         21    1    1    2  502  501 -0.20865238125E+02  0.38117286889E+02  0.12887189870E+02  0.45325107662E+02  0.00000000000E+00 0.  1.
<mgrwt>
<rscale>  1 0.30000000E+03</rscale>
<asrwt>0</asrwt>
<pdfrwt beam="1">  1        1 0.21449717E+00 0.30000000E+03</pdfrwt>
<pdfrwt beam="2">0</pdfrwt>
<totfact> 0.87484136E+00</totfact>
</mgrwt>
</event>
<event>
 6    1  0.1839160E-004  0.3000000E+03  0.7818608E-02  0.1093470E+00
          1   -1    0    0  502    0  0.00000000000E+00  0.00000000000E+00  0.36747317484E+02  0.36747317484E+02  0.00000000000E+00 0.  1.
         13   -1    0    0    0    0 -0.00000000000E+00 -0.00000000000E+00 -0.10000000000E+04  0.10000000000E+04  0.00000000000E+00 0.  1.
    9000005    2    1    2  501    0  0.22749651859E+02 -0.35899449951E+02 -0.90599813585E+03  0.96544233673E+03  0.33081711899E+03 0.  0.
         13    1    3    3    0    0  0.24930734174E+02  0.12861250019E+02  0.22315766605E+02  0.35846153178E+02  0.00000000000E+00 0.  1.
          1    1    3    3  501    0 -0.21810823143E+01 -0.48760699969E+02 -0.92831390245E+03  0.92959618355E+03  0.00000000000E+00 0.  1.
         21    1    1    2  502  501 -0.22749651859E+02  0.35899449951E+02 -0.57254546671E+02  0.71304980758E+02  0.00000000000E+00 0. -1.
<mgrwt>
<rscale>  1 0.30000000E+03</rscale>
<asrwt>0</asrwt>
<pdfrwt beam="1">  1        1 0.13362689E+00 0.30000000E+03</pdfrwt>
<pdfrwt beam="2">0</pdfrwt>
<totfact> 0.21869598E+01</totfact>
</mgrwt>
</event>
<event>
 6    1  0.1839160E-004  0.3000000E+03  0.7818608E-02  0.1093470E+00
          1   -1    0    0  502    0  0.00000000000E+00  0.00000000000E+00  0.38204422212E+02  0.38204422212E+02  0.00000000000E+00 0.  1.
         13   -1    0    0    0    0 -0.00000000000E+00 -0.00000000000E+00 -0.10000000000E+04  0.10000000000E+04  0.00000000000E+00 0.  1.
    9000005    2    1    2  501    0 -0.12735999059E+02 -0.22082111919E+02 -0.92149756697E+03  0.99052051492E+03  0.36238556705E+03 0.  0.
         13    1    3    3    0    0 -0.18649930995E+03 -0.30788909396E+02 -0.46052477608E+03  0.49780821501E+03  0.00000000000E+00 0.  1.
          3    1    3    3  501    0  0.17376331089E+03  0.87067974773E+01 -0.46097279089E+03  0.49271229991E+03  0.00000000000E+00 0.  1.
         21    1    1    2  502  501  0.12735999059E+02  0.22082111919E+02 -0.40298010817E+02  0.47683907292E+02  0.00000000000E+00 0. -1.
<mgrwt>
<rscale>  1 0.30000000E+03</rscale>
<asrwt>0</asrwt>
<pdfrwt beam="1">  1        1 0.13892546E+00 0.30000000E+03</pdfrwt>
<pdfrwt beam="2">0</pdfrwt>
<totfact> 0.20496910E+01</totfact>
</mgrwt>
</event>
<event>
 6    1  0.1839160E-004  0.3000000E+03  0.7818608E-02  0.1093470E+00
          1   -1    0    0  502    0  0.00000000000E+00  0.00000000000E+00  0.30144371527E+02  0.30144371527E+02  0.00000000000E+00 0.  1.
         13   -1    0    0    0    0 -0.00000000000E+00 -0.00000000000E+00 -0.10000000000E+04  0.10000000000E+04  0.00000000000E+00 0.  1.
    9000005    2    1    2  501    0  0.12790686672E+02 -0.37476385548E+01 -0.96433058163E+03  0.10157161837E+04  0.31869773890E+03 0.  0.
         13    1    3    3    0    0 -0.96206591763E+02 -0.43360973908E+02 -0.10595060627E+03  0.14953733088E+03  0.00000000000E+00 0.  1.
          1    1    3    3  501    0  0.10899727844E+03  0.39613335353E+02 -0.85837997536E+03  0.86617885286E+03  0.00000000000E+00 0.  1.
         21    1    1    2  502  501 -0.12790686672E+02  0.37476385548E+01 -0.55250468451E+01  0.14428187791E+02  0.00000000000E+00 0. -1.
<mgrwt>
<rscale>  1 0.30000000E+03</rscale>
<asrwt>0</asrwt>
<pdfrwt beam="1">  1        1 0.10961613E+00 0.30000000E+03</pdfrwt>
<pdfrwt beam="2">0</pdfrwt>
<totfact> 0.29866750E+01</totfact>
</mgrwt>
</event>
<event>
 6    1  0.1839160E-004  0.3000000E+03  0.7818608E-02  0.1093470E+00
          1   -1    0    0  502    0  0.00000000000E+00  0.00000000000E+00  0.33284860487E+02  0.33284860487E+02  0.00000000000E+00 0.  1.
         13   -1    0    0    0    0 -0.00000000000E+00 -0.00000000000E+00 -0.10000000000E+04  0.10000000000E+04  0.00000000000E+00 0.  1.
    9000005    2    1    2  501    0  0.64478503613E+01 -0.13934717677E+02 -0.96376722454E+03  0.10176502408E+04  0.32638780355E+03 0.  0.
         13    1    3    3    0    0 -0.24969108250E+02 -0.11307574852E+03 -0.86983790401E+03  0.87751214266E+03  0.00000000000E+00 0.  1.
          3    1    3    3  501    0  0.31416958612E+02  0.99141030845E+02 -0.93929320532E+02  0.14013809811E+03  0.00000000000E+00 0.  1.
         21    1    1    2  502  501 -0.64478503613E+01  0.13934717677E+02 -0.29479149711E+01  0.15634619717E+02  0.00000000000E+00 0. -1.
<mgrwt>
<rscale>  1 0.30000000E+03</rscale>
<asrwt>0</asrwt>
<pdfrwt beam="1">  1        1 0.12103611E+00 0.30000000E+03</pdfrwt>
<pdfrwt beam="2">0</pdfrwt>
<totfact> 0.25648487E+01</totfact>
</mgrwt>
</event>
<event>
 6    1  0.1839160E-004  0.3000000E+03  0.7818608E-02  0.1093470E+00
          1   -1    0    0  502    0  0.00000000000E+00  0.00000000000E+00  0.33259066939E+02  0.33259066939E+02  0.00000000000E+00 0.  1.
         13   -1    0    0    0    0 -0.00000000000E+00 -0.00000000000E+00 -0.10000000000E+04  0.10000000000E+04  0.00000000000E+00 0.  1.
    9000005    2    1    2  501    0  0.16728435731E+02  0.12739620988E+02 -0.95538377860E+03  0.10093608774E+04  0.32497550361E+03 0.  0.
         13    1    3    3    0    0  0.80403745717E+02  0.70941271936E+02 -0.90864521369E+02  0.14054816837E+03  0.00000000000E+00 0.  1.
          3    1    3    3  501    0 -0.63675309986E+02 -0.58201650948E+02 -0.86451925723E+03  0.86881270905E+03  0.00000000000E+00 0.  1.
         21    1    1    2  502  501 -0.16728435731E+02 -0.12739620988E+02 -0.11357154458E+02  0.23898189520E+02  0.00000000000E+00 0. -1.
<mgrwt>
<rscale>  1 0.30000000E+03</rscale>
<asrwt>0</asrwt>
<pdfrwt beam="1">  1        1 0.12094232E+00 0.30000000E+03</pdfrwt>
<pdfrwt beam="2">0</pdfrwt>
<totfact> 0.25679692E+01</totfact>
</mgrwt>
</event>
<event>
 6    1  0.1839160E-004  0.3000000E+03  0.7818608E-02  0.1093470E+00
          1   -1    0    0  502    0  0.00000000000E+00  0.00000000000E+00  0.63266936310E+02  0.63266936310E+02  0.00000000000E+00 0.  1.
         13   -1    0    0    0    0 -0.00000000000E+00 -0.00000000000E+00 -0.10000000000E+04  0.10000000000E+04  0.00000000000E+00 0.  1.
    9000005    2    1    2  501    0 -0.61530812672E+02  0.40910139463E+02 -0.93270164159E+03  0.98926739048E+03  0.32133773078E+03 0.  0.
         13    1    3    3    0    0  0.80524913124E+02 -0.57898483725E+02 -0.10809513474E+03  0.14670055966E+03  0.00000000000E+00 0.  1.
          1    1    3    3  501    0 -0.14205572580E+03  0.98808623189E+02 -0.82460650685E+03  0.84256683082E+03  0.00000000000E+00 0.  1.
         21    1    1    2  502  501  0.61530812672E+02 -0.40910139463E+02 -0.40314221011E+01  0.73999545831E+02  0.00000000000E+00 0.  1.
<mgrwt>
<rscale>  1 0.30000000E+03</rscale>
<asrwt>0</asrwt>
<pdfrwt beam="1">  1        1 0.23006207E+00 0.30000000E+03</pdfrwt>
<pdfrwt beam="2">0</pdfrwt>
<totfact> 0.73954688E+00</totfact>
</mgrwt>
</event>
<event>
 6    1  0.1839160E-004  0.3000000E+03  0.7818608E-02  0.1093470E+00
          3   -1    0    0  502    0  0.00000000000E+00  0.00000000000E+00  0.26201101128E+02  0.26201101128E+02  0.00000000000E+00 0.  1.
         13   -1    0    0    0    0 -0.00000000000E+00 -0.00000000000E+00 -0.10000000000E+04  0.10000000000E+04  0.00000000000E+00 0.  1.
    9000005    2    1    2  501    0  0.94019572413E+01 -0.20058705840E+01 -0.95616992043E+03  0.10061212307E+04  0.31293225106E+03 0.  0.
         13    1    3    3    0    0 -0.57323077899E+02  0.12110762783E+03 -0.71328226146E+03  0.72575793299E+03  0.00000000000E+00 0.  1.
          1    1    3    3  501    0  0.66725035140E+02 -0.12311349842E+03 -0.24288765897E+03  0.28036329768E+03  0.00000000000E+00 0.  1.
         21    1    1    2  502  501 -0.94019572413E+01  0.20058705840E+01 -0.17628978442E+02  0.20079870460E+02  0.00000000000E+00 0. -1.
<mgrwt>
<rscale>  1 0.30000000E+03</rscale>
<asrwt>0</asrwt>
<pdfrwt beam="1">  1        3 0.95276932E-01 0.30000000E+03</pdfrwt>
<pdfrwt beam="2">0</pdfrwt>
<totfact> 0.44350068E+00</totfact>
</mgrwt>
</event>
<event>
 6    1  0.1839160E-004  0.3000000E+03  0.7818608E-02  0.1093470E+00
          1   -1    0    0  502    0  0.00000000000E+00  0.00000000000E+00  0.10595941034E+03  0.10595941034E+03  0.00000000000E+00 0.  1.
         13   -1    0    0    0    0 -0.00000000000E+00 -0.00000000000E+00 -0.10000000000E+04  0.10000000000E+04  0.00000000000E+00 0.  1.
    9000005    2    1    2  501    0 -0.78019345172E+02  0.32268427103E+02 -0.94649574378E+03  0.10065621629E+04  0.33194114712E+03 0.  0.
         13    1    3    3    0    0  0.65016242102E+02  0.70331307031E+02 -0.77124692593E+03  0.77717142590E+03  0.00000000000E+00 0.  1.
          3    1    3    3  501    0 -0.14303558727E+03 -0.38062879929E+02 -0.17524881785E+03  0.22939073698E+03  0.00000000000E+00 0.  1.
         21    1    1    2  502  501  0.78019345172E+02 -0.32268427103E+02  0.52455154119E+02  0.99397247459E+02  0.00000000000E+00 0.  1.
<mgrwt>
<rscale>  1 0.30000000E+03</rscale>
<asrwt>0</asrwt>
<pdfrwt beam="1">  1        1 0.38530776E+00 0.30000000E+03</pdfrwt>
<pdfrwt beam="2">0</pdfrwt>
<totfact> 0.12735900E+00</totfact>
</mgrwt>
</event>
<event>
 6    1  0.1839160E-004  0.3000000E+03  0.7818608E-02  0.1093470E+00
          1   -1    0    0  502    0  0.00000000000E+00  0.00000000000E+00  0.64881663598E+02  0.64881663598E+02  0.00000000000E+00 0.  1.
         13   -1    0    0    0    0 -0.00000000000E+00 -0.00000000000E+00 -0.10000000000E+04  0.10000000000E+04  0.00000000000E+00 0.  1.
    9000005    2    1    2  501    0 -0.15505884046E+02  0.66131771905E+01 -0.97244602846E+03  0.10239240862E+04  0.32013292468E+03 0.  0.
         13    1    3    3    0    0 -0.57054318581E+02  0.52930688539E+01 -0.98000019436E+03  0.98167387293E+03  0.00000000000E+00 0.  1.
          3    1    3    3  501    0  0.41548434535E+02  0.13201083366E+01  0.75541659008E+01  0.42250213263E+02  0.00000000000E+00 0.  1.
         21    1    1    2  502  501  0.15505884046E+02 -0.66131771905E+01  0.37327692057E+02  0.40957577405E+02  0.00000000000E+00 0.  1.
<mgrwt>
<rscale>  1 0.30000000E+03</rscale>
<asrwt>0</asrwt>
<pdfrwt beam="1">  1        1 0.23593382E+00 0.30000000E+03</pdfrwt>
<pdfrwt beam="2">0</pdfrwt>
<totfact> 0.69419528E+00</totfact>
</mgrwt>
</event>
<event>
 6    1  0.1839160E-004  0.3000000E+03  0.7818608E-02  0.1093470E+00
          1   -1    0    0  502    0  0.00000000000E+00  0.00000000000E+00  0.47213252704E+02  0.47213252704E+02  0.00000000000E+00 0.  1.
         13   -1    0    0    0    0 -0.00000000000E+00 -0.00000000000E+00 -0.10000000000E+04  0.10000000000E+04  0.00000000000E+00 0.  1.
    9000005    2    1    2  501    0 -0.10620117647E+02 -0.86515970693E+01 -0.96720882081E+03  0.10273227214E+04  0.34599340143E+03 0.  0.
         13    1    3    3    0    0  0.16564214845E+03 -0.30845481565E+02 -0.48436970767E+03  0.51283796543E+03  0.00000000000E+00 0.  1.
          3    1    3    3  501    0 -0.17626226609E+03  0.22193884496E+02 -0.48283911314E+03  0.51448475598E+03  0.00000000000E+00 0.  1.
         21    1    1    2  502  501  0.10620117647E+02  0.86515970693E+01  0.14422073517E+02  0.19890531295E+02  0.00000000000E+00 0.  1.
<mgrwt>
<rscale>  1 0.30000000E+03</rscale>
<asrwt>0</asrwt>
<pdfrwt beam="1">  1        1 0.17168492E+00 0.30000000E+03</pdfrwt>
<pdfrwt beam="2">0</pdfrwt>
<totfact> 0.14019144E+01</totfact>
</mgrwt>
</event>
<event>
 6    1  0.1839160E-004  0.3000000E+03  0.7818608E-02  0.1093470E+00
          1   -1    0    0  502    0  0.00000000000E+00  0.00000000000E+00  0.33900005278E+02  0.33900005278E+02  0.00000000000E+00 0.  1.
         13   -1    0    0    0    0 -0.00000000000E+00 -0.00000000000E+00 -0.10000000000E+04  0.10000000000E+04  0.00000000000E+00 0.  1.
    9000005    2    1    2  501    0  0.88101997914E+01  0.58222153014E+01 -0.95535313059E+03  0.10188330580E+04  0.35384979603E+03 0.  0.
         13    1    3    3    0    0 -0.84474480444E+02  0.15483799311E+03 -0.53002547959E+03  0.55860339326E+03  0.00000000000E+00 0.  1.
          1    1    3    3  501    0  0.93284680235E+02 -0.14901577780E+03 -0.42532765100E+03  0.46022966474E+03  0.00000000000E+00 0.  1.
         21    1    1    2  502  501 -0.88101997914E+01 -0.58222153014E+01 -0.10746864132E+02  0.15066947271E+02  0.00000000000E+00 0. -1.
<mgrwt>
<rscale>  1 0.30000000E+03</rscale>
<asrwt>0</asrwt>
<pdfrwt beam="1">  1        1 0.12327301E+00 0.30000000E+03</pdfrwt>
<pdfrwt beam="2">0</pdfrwt>
<totfact> 0.24918871E+01</totfact>
</mgrwt>
</event>
<event>
 6    1  0.1839160E-004  0.3000000E+03  0.7818608E-02  0.1093470E+00
          1   -1    0    0  502    0  0.00000000000E+00  0.00000000000E+00  0.37840114325E+02  0.37840114325E+02  0.00000000000E+00 0.  1.
         13   -1    0    0    0    0 -0.00000000000E+00 -0.00000000000E+00 -0.10000000000E+04  0.10000000000E+04  0.00000000000E+00 0.  1.
    9000005    2    1    2  501    0  0.34217933244E+02 -0.33029793513E+02 -0.88045259089E+03  0.94329956093E+03  0.33519466379E+03 0.  0.
         13    1    3    3    0    0  0.31654255409E+02  0.36642726772E+02  0.10562824616E+02  0.49560615156E+02  0.00000000000E+00 0.  1.
          1    1    3    3  501    0  0.25636778354E+01 -0.69672520286E+02 -0.89101541550E+03  0.89373894577E+03  0.00000000000E+00 0.  1.
         21    1    1    2  502  501 -0.34217933244E+02  0.33029793513E+02 -0.81707294789E+02  0.94540553398E+02  0.00000000000E+00 0. -1.
<mgrwt>
<rscale>  1 0.30000000E+03</rscale>
<asrwt>0</asrwt>
<pdfrwt beam="1">  1        1 0.13760071E+00 0.30000000E+03</pdfrwt>
<pdfrwt beam="2">0</pdfrwt>
<totfact> 0.20829341E+01</totfact>
</mgrwt>
</event>
<event>
 6    1  0.1839160E-004  0.3000000E+03  0.7818608E-02  0.1093470E+00
          1   -1    0    0  502    0  0.00000000000E+00  0.00000000000E+00  0.31296340167E+02  0.31296340167E+02  0.00000000000E+00 0.  1.
         13   -1    0    0    0    0 -0.00000000000E+00 -0.00000000000E+00 -0.10000000000E+04  0.10000000000E+04  0.00000000000E+00 0.  1.
    9000005    2    1    2  501    0  0.54403377869E+01 -0.19855708450E+02 -0.90570491854E+03  0.96501898478E+03  0.33247014163E+03 0.  0.
         13    1    3    3    0    0  0.90678181155E+02 -0.13076480994E+03 -0.68864824248E+03  0.70679443258E+03  0.00000000000E+00 0.  1.
          3    1    3    3  501    0 -0.85237843369E+02  0.11090910149E+03 -0.21705667606E+03  0.25822455220E+03  0.00000000000E+00 0.  1.
         21    1    1    2  502  501 -0.54403377869E+01  0.19855708450E+02 -0.62998741291E+02  0.66277355391E+02  0.00000000000E+00 0. -1.
<mgrwt>
<rscale>  1 0.30000000E+03</rscale>
<asrwt>0</asrwt>
<pdfrwt beam="1">  1        1 0.11380511E+00 0.30000000E+03</pdfrwt>
<pdfrwt beam="2">0</pdfrwt>
<totfact> 0.28213791E+01</totfact>
</mgrwt>
</event>
<event>
 6    1  0.1839160E-004  0.3000000E+03  0.7818608E-02  0.1093470E+00
          1   -1    0    0  502    0  0.00000000000E+00  0.00000000000E+00  0.55259330515E+02  0.55259330515E+02  0.00000000000E+00 0.  1.
         13   -1    0    0    0    0 -0.00000000000E+00 -0.00000000000E+00 -0.10000000000E+04  0.10000000000E+04  0.00000000000E+00 0.  1.
    9000005    2    1    2  501    0  0.63942933483E+02  0.47500377270E+02 -0.90688296536E+03  0.96706528114E+03  0.32624156779E+03 0.  0.
         13    1    3    3    0    0  0.13071872445E+01 -0.13650845112E+03 -0.45780211492E+03  0.47772276729E+03  0.00000000000E+00 0.  1.
          3    1    3    3  501    0  0.62635746238E+02  0.18400882839E+03 -0.44908085044E+03  0.48934251385E+03  0.00000000000E+00 0.  1.
         21    1    1    2  502  501 -0.63942933483E+02 -0.47500377270E+02 -0.37857704130E+02  0.88194049375E+02  0.00000000000E+00 0.  1.
<mgrwt>
<rscale>  1 0.30000000E+03</rscale>
<asrwt>0</asrwt>
<pdfrwt beam="1">  1        1 0.20094344E+00 0.30000000E+03</pdfrwt>
<pdfrwt beam="2">0</pdfrwt>
<totfact> 0.10138207E+01</totfact>
</mgrwt>
</event>
<event>
 6    1  0.1839160E-004  0.3000000E+03  0.7818608E-02  0.1093470E+00
          1   -1    0    0  502    0  0.00000000000E+00  0.00000000000E+00  0.38099177699E+02  0.38099177699E+02  0.00000000000E+00 0.  1.
         13   -1    0    0    0    0 -0.00000000000E+00 -0.00000000000E+00 -0.10000000000E+04  0.10000000000E+04  0.00000000000E+00 0.  1.
    9000005    2    1    2  501    0  0.10466399375E+02 -0.80897878143E+01 -0.96725442828E+03  0.10238285337E+04  0.33536360453E+03 0.  0.
         13    1    3    3    0    0 -0.89612815627E+02 -0.29124636405E+02 -0.61952682002E+02  0.11276894953E+03  0.00000000000E+00 0.  1.
          1    1    3    3  501    0  0.10007921500E+03  0.21034848591E+02 -0.90530174628E+03  0.91105958419E+03  0.00000000000E+00 0.  1.
         21    1    1    2  502  501 -0.10466399375E+02  0.80897878143E+01  0.53536059771E+01  0.14270643984E+02  0.00000000000E+00 0.  1.
<mgrwt>
<rscale>  1 0.30000000E+03</rscale>
<asrwt>0</asrwt>
<pdfrwt beam="1">  1        1 0.13854276E+00 0.30000000E+03</pdfrwt>
<pdfrwt beam="2">0</pdfrwt>
<totfact> 0.20592244E+01</totfact>
</mgrwt>
</event>
<event>
 6    1  0.1839160E-004  0.3000000E+03  0.7818608E-02  0.1093470E+00
          1   -1    0    0  502    0  0.00000000000E+00  0.00000000000E+00  0.28261183150E+02  0.28261183150E+02  0.00000000000E+00 0.  1.
         13   -1    0    0    0    0 -0.00000000000E+00 -0.00000000000E+00 -0.10000000000E+04  0.10000000000E+04  0.00000000000E+00 0.  1.
    9000005    2    1    2  501    0 -0.28166461612E+00 -0.14141827836E+02 -0.93713121452E+03  0.99087459774E+03  0.32158588991E+03 0.  0.
         13    1    3    3    0    0  0.13282027359E+03  0.79795701885E+02 -0.53531667645E+03  0.55729034013E+03  0.00000000000E+00 0.  1.
          3    1    3    3  501    0 -0.13310193821E+03 -0.93937529721E+02 -0.40181453808E+03  0.43358425762E+03  0.00000000000E+00 0.  1.
         21    1    1    2  502  501  0.28166461612E+00  0.14141827836E+02 -0.34607602327E+02  0.37386585406E+02  0.00000000000E+00 0. -1.
<mgrwt>
<rscale>  1 0.30000000E+03</rscale>
<asrwt>0</asrwt>
<pdfrwt beam="1">  1        1 0.10276816E+00 0.30000000E+03</pdfrwt>
<pdfrwt beam="2">0</pdfrwt>
<totfact> 0.32881794E+01</totfact>
</mgrwt>
</event>
<event>
 6    1  0.1839160E-004  0.3000000E+03  0.7818608E-02  0.1093470E+00
          1   -1    0    0  502    0  0.00000000000E+00  0.00000000000E+00  0.31103122793E+02  0.31103122793E+02  0.00000000000E+00 0.  1.
         13   -1    0    0    0    0 -0.00000000000E+00 -0.00000000000E+00 -0.10000000000E+04  0.10000000000E+04  0.00000000000E+00 0.  1.
    9000005    2    1    2  501    0  0.21528326823E+02  0.41581991292E+00 -0.92051892134E+03  0.97814966799E+03  0.33008793779E+03 0.  0.
         13    1    3    3    0    0  0.11199733067E+03 -0.83179125901E+02 -0.77518393844E+03  0.78763716741E+03  0.00000000000E+00 0.  1.
          1    1    3    3  501    0 -0.90469003852E+02  0.83594945814E+02 -0.14533498290E+03  0.19051250058E+03  0.00000000000E+00 0.  1.
         21    1    1    2  502  501 -0.21528326823E+02 -0.41581991292E+00 -0.48377955864E+02  0.52953454803E+02  0.00000000000E+00 0. -1.
<mgrwt>
<rscale>  1 0.30000000E+03</rscale>
<asrwt>0</asrwt>
<pdfrwt beam="1">  1        1 0.11310250E+00 0.30000000E+03</pdfrwt>
<pdfrwt beam="2">0</pdfrwt>
<totfact> 0.28481806E+01</totfact>
</mgrwt>
</event>
<event>
 6    1  0.1839160E-004  0.3000000E+03  0.7818608E-02  0.1093470E+00
          1   -1    0    0  502    0  0.00000000000E+00  0.00000000000E+00  0.50109084746E+02  0.50109084746E+02  0.00000000000E+00 0.  1.
         13   -1    0    0    0    0 -0.00000000000E+00 -0.00000000000E+00 -0.10000000000E+04  0.10000000000E+04  0.00000000000E+00 0.  1.
    9000005    2    1    2  501    0 -0.74682484995E+02 -0.19826361291E+02 -0.84859833673E+03  0.92270914506E+03  0.35398089089E+03 0.  0.
         13    1    3    3    0    0 -0.20148878972E+03 -0.77985443836E+02 -0.42560323771E+03  0.47730239658E+03  0.00000000000E+00 0.  1.
          3    1    3    3  501    0  0.12680630472E+03  0.58159082544E+02 -0.42299509902E+03  0.44540674848E+03  0.00000000000E+00 0.  1.
         21    1    1    2  502  501  0.74682484995E+02  0.19826361291E+02 -0.10129257853E+03  0.12739993968E+03  0.00000000000E+00 0.  1.
<mgrwt>
<rscale>  1 0.30000000E+03</rscale>
<asrwt>0</asrwt>
<pdfrwt beam="1">  1        1 0.18221524E+00 0.30000000E+03</pdfrwt>
<pdfrwt beam="2">0</pdfrwt>
<totfact> 0.12463501E+01</totfact>
</mgrwt>
</event>
<event>
 6    1  0.1839160E-004  0.3000000E+03  0.7818608E-02  0.1093470E+00
          1   -1    0    0  502    0  0.00000000000E+00  0.00000000000E+00  0.36484849714E+02  0.36484849714E+02  0.00000000000E+00 0.  1.
         13   -1    0    0    0    0 -0.00000000000E+00 -0.00000000000E+00 -0.10000000000E+04  0.10000000000E+04  0.00000000000E+00 0.  1.
    9000005    2    1    2  501    0  0.16084539596E+02  0.25334932513E+01 -0.96593409399E+03  0.10200233100E+04  0.32734347092E+03 0.  0.
         13    1    3    3    0    0 -0.51517705757E+02  0.14310289628E+03 -0.65161459035E+03  0.66912935019E+03  0.00000000000E+00 0.  1.
          1    1    3    3  501    0  0.67602245354E+02 -0.14056940303E+03 -0.31431950364E+03  0.35089395979E+03  0.00000000000E+00 0.  1.
         21    1    1    2  502  501 -0.16084539596E+02 -0.25334932513E+01  0.24189437011E+01  0.16461539743E+02  0.00000000000E+00 0.  1.
<mgrwt>
<rscale>  1 0.30000000E+03</rscale>
<asrwt>0</asrwt>
<pdfrwt beam="1">  1        1 0.13267246E+00 0.30000000E+03</pdfrwt>
<pdfrwt beam="2">0</pdfrwt>
<totfact> 0.22129656E+01</totfact>
</mgrwt>
</event>
<event>
 6    1  0.1839160E-004  0.3000000E+03  0.7818608E-02  0.1093470E+00
          1   -1    0    0  502    0  0.00000000000E+00  0.00000000000E+00  0.33785022449E+02  0.33785022449E+02  0.00000000000E+00 0.  1.
         13   -1    0    0    0    0 -0.00000000000E+00 -0.00000000000E+00 -0.10000000000E+04  0.10000000000E+04  0.00000000000E+00 0.  1.
    9000005    2    1    2  501    0  0.12761386139E+02 -0.15911598602E+02 -0.95806627403E+03  0.10118206578E+04  0.32476764944E+03 0.  0.
         13    1    3    3    0    0 -0.40189798652E+02  0.33283225960E+02 -0.11667086493E+01  0.52195347064E+02  0.00000000000E+00 0.  1.
          1    1    3    3  501    0  0.52951184791E+02 -0.49194824562E+02 -0.95689956539E+03  0.95962531072E+03  0.00000000000E+00 0.  1.
         21    1    1    2  502  501 -0.12761386139E+02  0.15911598602E+02 -0.81487035165E+01  0.21964364668E+02  0.00000000000E+00 0. -1.
<mgrwt>
<rscale>  1 0.30000000E+03</rscale>
<asrwt>0</asrwt>
<pdfrwt beam="1">  1        1 0.12285489E+00 0.30000000E+03</pdfrwt>
<pdfrwt beam="2">0</pdfrwt>
<totfact> 0.25053164E+01</totfact>
</mgrwt>
</event>
<event>
 6    1  0.1839160E-004  0.3000000E+03  0.7818608E-02  0.1093470E+00
          3   -1    0    0  502    0  0.00000000000E+00  0.00000000000E+00  0.38899626271E+02  0.38899626271E+02  0.00000000000E+00 0.  1.
         13   -1    0    0    0    0 -0.00000000000E+00 -0.00000000000E+00 -0.10000000000E+04  0.10000000000E+04  0.00000000000E+00 0.  1.
    9000005    2    1    2  501    0 -0.29420719711E+02 -0.45990026447E+02 -0.90136550655E+03  0.95797425548E+03  0.31980343413E+03 0.  0.
         13    1    3    3    0    0 -0.11564024897E+03  0.68220795910E+02 -0.19180746155E+03  0.23412997776E+03  0.00000000000E+00 0.  1.
          3    1    3    3  501    0  0.86219529262E+02 -0.11421082236E+03 -0.70955804500E+03  0.72384427772E+03  0.00000000000E+00 0.  1.
         21    1    1    2  502  501  0.29420719711E+02  0.45990026447E+02 -0.59734867177E+02  0.80925370791E+02  0.00000000000E+00 0.  1.
<mgrwt>
<rscale>  1 0.30000000E+03</rscale>
<asrwt>0</asrwt>
<pdfrwt beam="1">  1        3 0.14145348E+00 0.30000000E+03</pdfrwt>
<pdfrwt beam="2">0</pdfrwt>
<totfact> 0.12837224E+00</totfact>
</mgrwt>
</event>
<event>
 6    1  0.1839160E-004  0.3000000E+03  0.7818608E-02  0.1093470E+00
          1   -1    0    0  502    0  0.00000000000E+00  0.00000000000E+00  0.41412004330E+02  0.41412004330E+02  0.00000000000E+00 0.  1.
         13   -1    0    0    0    0 -0.00000000000E+00 -0.00000000000E+00 -0.10000000000E+04  0.10000000000E+04  0.00000000000E+00 0.  1.
    9000005    2    1    2  501    0  0.75690491599E+02  0.50322850812E+01 -0.79450045145E+03  0.86063839845E+03  0.32204520045E+03 0.  0.
         13    1    3    3    0    0 -0.59456054245E+02 -0.11960434220E+03 -0.21931523280E+03  0.25678666709E+03  0.00000000000E+00 0.  1.
          1    1    3    3  501    0  0.13514654584E+03  0.12463662729E+03 -0.57518521865E+03  0.60385173136E+03  0.00000000000E+00 0.  1.
         21    1    1    2  502  501 -0.75690491599E+02 -0.50322850812E+01 -0.16408754422E+03  0.18077360588E+03  0.00000000000E+00 0.  1.
<mgrwt>
<rscale>  1 0.30000000E+03</rscale>
<asrwt>0</asrwt>
<pdfrwt beam="1">  1        1 0.15058942E+00 0.30000000E+03</pdfrwt>
<pdfrwt beam="2">0</pdfrwt>
<totfact> 0.17841504E+01</totfact>
</mgrwt>
</event>
<event>
 6    1  0.1839160E-004  0.3000000E+03  0.7818608E-02  0.1093470E+00
          1   -1    0    0  502    0  0.00000000000E+00  0.00000000000E+00  0.29882594124E+02  0.29882594124E+02  0.00000000000E+00 0.  1.
         13   -1    0    0    0    0 -0.00000000000E+00 -0.00000000000E+00 -0.10000000000E+04  0.10000000000E+04  0.00000000000E+00 0.  1.
    9000005    2    1    2  501    0  0.23002392619E+01 -0.96805619148E+01 -0.97147735923E+03  0.10198399922E+04  0.31017147817E+03 0.  0.
         13    1    3    3    0    0  0.78181480396E+02  0.12048730512E+03 -0.31355972158E+03  0.34489017610E+03  0.00000000000E+00 0.  1.
          3    1    3    3  501    0 -0.75881241134E+02 -0.13016786703E+03 -0.65791763765E+03  0.67494981613E+03  0.00000000000E+00 0.  1.
         21    1    1    2  502  501 -0.23002392619E+01  0.96805619148E+01  0.13599533570E+01  0.10042601893E+02  0.00000000000E+00 0.  1.
<mgrwt>
<rscale>  1 0.30000000E+03</rscale>
<asrwt>0</asrwt>
<pdfrwt beam="1">  1        1 0.10866421E+00 0.30000000E+03</pdfrwt>
<pdfrwt beam="2">0</pdfrwt>
<totfact> 0.30261483E+01</totfact>
</mgrwt>
</event>
<event>
 6    1  0.1839160E-004  0.3000000E+03  0.7818608E-02  0.1093470E+00
          1   -1    0    0  502    0  0.00000000000E+00  0.00000000000E+00  0.28137817330E+02  0.28137817330E+02  0.00000000000E+00 0.  1.
         13   -1    0    0    0    0 -0.00000000000E+00 -0.00000000000E+00 -0.10000000000E+04  0.10000000000E+04  0.00000000000E+00 0.  1.
    9000005    2    1    2  501    0  0.16072522845E+01 -0.10121483907E+02 -0.96933080318E+03  0.10175815122E+04  0.30945904452E+03 0.  0.
         13    1    3    3    0    0  0.13188907556E+03 -0.74704402123E+02 -0.35005495279E+03  0.38146290242E+03  0.00000000000E+00 0.  1.
          3    1    3    3  501    0 -0.13028182328E+03  0.64582918216E+02 -0.61927585039E+03  0.63611860975E+03  0.00000000000E+00 0.  1.
         21    1    1    2  502  501 -0.16072522845E+01  0.10121483907E+02 -0.25313794901E+01  0.10556305154E+02  0.00000000000E+00 0. -1.
<mgrwt>
<rscale>  1 0.30000000E+03</rscale>
<asrwt>0</asrwt>
<pdfrwt beam="1">  1        1 0.10231955E+00 0.30000000E+03</pdfrwt>
<pdfrwt beam="2">0</pdfrwt>
<totfact> 0.33094470E+01</totfact>
</mgrwt>
</event>
<event>
 6    1  0.1839160E-004  0.3000000E+03  0.7818608E-02  0.1093470E+00
          1   -1    0    0  502    0  0.00000000000E+00  0.00000000000E+00  0.38933383261E+02  0.38933383261E+02  0.00000000000E+00 0.  1.
         13   -1    0    0    0    0 -0.00000000000E+00 -0.00000000000E+00 -0.10000000000E+04  0.10000000000E+04  0.00000000000E+00 0.  1.
    9000005    2    1    2  501    0  0.42364442501E+01  0.14027553469E+02 -0.96573464818E+03  0.10235544940E+04  0.33882985679E+03 0.  0.
         13    1    3    3    0    0  0.15850927022E+03  0.36726178083E+01 -0.29162362988E+03  0.33193827494E+03  0.00000000000E+00 0.  1.
          1    1    3    3  501    0 -0.15427282597E+03  0.10354935660E+02 -0.67411101830E+03  0.69161621909E+03  0.00000000000E+00 0.  1.
         21    1    1    2  502  501 -0.42364442501E+01 -0.14027553469E+02  0.46680314405E+01  0.15378889223E+02  0.00000000000E+00 0.  1.
<mgrwt>
<rscale>  1 0.30000000E+03</rscale>
<asrwt>0</asrwt>
<pdfrwt beam="1">  1        1 0.14157624E+00 0.30000000E+03</pdfrwt>
<pdfrwt beam="2">0</pdfrwt>
<totfact> 0.19851800E+01</totfact>
</mgrwt>
</event>
<event>
 6    1  0.1839160E-004  0.3000000E+03  0.7818608E-02  0.1093470E+00
          1   -1    0    0  502    0  0.00000000000E+00  0.00000000000E+00  0.36300596473E+02  0.36300596473E+02  0.00000000000E+00 0.  1.
         13   -1    0    0    0    0 -0.00000000000E+00 -0.00000000000E+00 -0.10000000000E+04  0.10000000000E+04  0.00000000000E+00 0.  1.
    9000005    2    1    2  501    0  0.26529662428E+02 -0.27380616603E+02 -0.92959837857E+03  0.98514982857E+03  0.32390356301E+03 0.  0.
         13    1    3    3    0    0  0.57005430110E+02  0.10218667552E+03 -0.13147610078E+03  0.17600483173E+03  0.00000000000E+00 0.  1.
          1    1    3    3  501    0 -0.30475767681E+02 -0.12956729212E+03 -0.79812227779E+03  0.80914499684E+03  0.00000000000E+00 0.  1.
         21    1    1    2  502  501 -0.26529662428E+02  0.27380616603E+02 -0.34101024955E+02  0.51150767904E+02  0.00000000000E+00 0. -1.
<mgrwt>
<rscale>  1 0.30000000E+03</rscale>
<asrwt>0</asrwt>
<pdfrwt beam="1">  1        1 0.13200245E+00 0.30000000E+03</pdfrwt>
<pdfrwt beam="2">0</pdfrwt>
<totfact> 0.22314657E+01</totfact>
</mgrwt>
</event>
<event>
 6    1  0.1839160E-004  0.3000000E+03  0.7818608E-02  0.1093470E+00
          1   -1    0    0  502    0  0.00000000000E+00  0.00000000000E+00  0.35549450917E+02  0.35549450917E+02  0.00000000000E+00 0.  1.
         13   -1    0    0    0    0 -0.00000000000E+00 -0.00000000000E+00 -0.10000000000E+04  0.10000000000E+04  0.00000000000E+00 0.  1.
    9000005    2    1    2  501    0 -0.50038492771E+01 -0.24709207660E+02 -0.94894165488E+03  0.10059503082E+04  0.33288162270E+03 0.  0.
         13    1    3    3    0    0 -0.11439773339E+03 -0.60979167964E+02 -0.14794730957E+03  0.19670715985E+03  0.00000000000E+00 0.  1.
          1    1    3    3  501    0  0.10939388411E+03  0.36269960305E+02 -0.80099434531E+03  0.80924314834E+03  0.00000000000E+00 0.  1.
         21    1    1    2  502  501  0.50038492771E+01  0.24709207660E+02 -0.15508894203E+02  0.29599142727E+02  0.00000000000E+00 0. -1.
<mgrwt>
<rscale>  1 0.30000000E+03</rscale>
<asrwt>0</asrwt>
<pdfrwt beam="1">  1        1 0.12927100E+00 0.30000000E+03</pdfrwt>
<pdfrwt beam="2">0</pdfrwt>
<totfact> 0.23090138E+01</totfact>
</mgrwt>
</event>
<event>
 6    1  0.1839160E-004  0.3000000E+03  0.7818608E-02  0.1093470E+00
          3   -1    0    0  502    0  0.00000000000E+00  0.00000000000E+00  0.23309217425E+02  0.23309217425E+02  0.00000000000E+00 0.  1.
         13   -1    0    0    0    0 -0.00000000000E+00 -0.00000000000E+00 -0.10000000000E+04  0.10000000000E+04  0.00000000000E+00 0.  1.
    9000005    2    1    2  501    0 -0.29908579732E+01 -0.99639439126E+01 -0.84335835233E+03  0.88957155494E+03  0.28280031032E+03 0.  0.
         13    1    3    3    0    0 -0.10280668503E+03 -0.63878563008E+02 -0.18211870830E+03  0.21867077814E+03  0.00000000000E+00 0.  1.
          1    1    3    3  501    0  0.99815827062E+02  0.53914619096E+02 -0.66123964402E+03  0.67090077680E+03  0.00000000000E+00 0.  1.
         21    1    1    2  502  501  0.29908579732E+01  0.99639439126E+01 -0.13333243025E+03  0.13373766248E+03  0.00000000000E+00 0. -1.
<mgrwt>
<rscale>  1 0.30000000E+03</rscale>
<asrwt>0</asrwt>
<pdfrwt beam="1">  1        3 0.84760969E-01 0.30000000E+03</pdfrwt>
<pdfrwt beam="2">0</pdfrwt>
<totfact> 0.58771814E+00</totfact>
</mgrwt>
</event>
<event>
 6    1  0.1839160E-004  0.3000000E+03  0.7818608E-02  0.1093470E+00
          1   -1    0    0  502    0  0.00000000000E+00  0.00000000000E+00  0.29169492225E+02  0.29169492225E+02  0.00000000000E+00 0.  1.
         13   -1    0    0    0    0 -0.00000000000E+00 -0.00000000000E+00 -0.10000000000E+04  0.10000000000E+04  0.00000000000E+00 0.  1.
    9000005    2    1    2  501    0  0.12186142408E+02  0.82040234878E+01 -0.94324282233E+03  0.99791427736E+03  0.32543828141E+03 0.  0.
         13    1    3    3    0    0  0.78140403453E+02  0.14955973363E+03 -0.52987453374E+03  0.55609446867E+03  0.00000000000E+00 0.  1.
          3    1    3    3  501    0 -0.65954261045E+02 -0.14135571014E+03 -0.41336828859E+03  0.44181980869E+03  0.00000000000E+00 0.  1.
         21    1    1    2  502  501 -0.12186142408E+02 -0.82040234878E+01 -0.27587685447E+02  0.31255214869E+02  0.00000000000E+00 0.  1.
<mgrwt>
<rscale>  1 0.30000000E+03</rscale>
<asrwt>0</asrwt>
<pdfrwt beam="1">  1        1 0.10607110E+00 0.30000000E+03</pdfrwt>
<pdfrwt beam="2">0</pdfrwt>
<totfact> 0.31375369E+01</totfact>
</mgrwt>
</event>
<event>
 6    1  0.1839160E-004  0.3000000E+03  0.7818608E-02  0.1093470E+00
          1   -1    0    0  502    0  0.00000000000E+00  0.00000000000E+00  0.85790425405E+02  0.85790425405E+02  0.00000000000E+00 0.  1.
         13   -1    0    0    0    0 -0.00000000000E+00 -0.00000000000E+00 -0.10000000000E+04  0.10000000000E+04  0.00000000000E+00 0.  1.
    9000005    2    1    2  501    0 -0.77209712678E+02 -0.24056548142E+02 -0.94266646362E+03  0.10000591489E+04  0.32397250252E+03 0.  0.
         13    1    3    3    0    0 -0.56261817328E+01  0.10528193136E+03 -0.74919079273E+03  0.75657305193E+03  0.00000000000E+00 0.  1.
          1    1    3    3  501    0 -0.71583530945E+02 -0.12933847951E+03 -0.19347567090E+03  0.24348609696E+03  0.00000000000E+00 0.  1.
         21    1    1    2  502  501  0.77209712678E+02  0.24056548142E+02  0.28456889030E+02  0.85731276519E+02  0.00000000000E+00 0.  1.
<mgrwt>
<rscale>  1 0.30000000E+03</rscale>
<asrwt>0</asrwt>
<pdfrwt beam="1">  1        1 0.31196584E+00 0.30000000E+03</pdfrwt>
<pdfrwt beam="2">0</pdfrwt>
<totfact> 0.30457764E+00</totfact>
</mgrwt>
</event>
<event>
 6    1  0.1839160E-004  0.3000000E+03  0.7818608E-02  0.1093470E+00
          1   -1    0    0  502    0  0.00000000000E+00  0.00000000000E+00  0.53998204380E+02  0.53998204380E+02  0.00000000000E+00 0.  1.
         13   -1    0    0    0    0 -0.00000000000E+00 -0.00000000000E+00 -0.10000000000E+04  0.10000000000E+04  0.00000000000E+00 0.  1.
    9000005    2    1    2  501    0 -0.50604161802E+02  0.89673425052E+02 -0.83538417230E+03  0.90287453667E+03  0.32667049039E+03 0.  0.
         13    1    3    3    0    0 -0.10052155011E+03  0.16977081318E+03 -0.75029280730E+03  0.77580023700E+03  0.00000000000E+00 0.  1.
          3    1    3    3  501    0  0.49917388309E+02 -0.80097388124E+02 -0.85091364994E+02  0.12707429967E+03  0.00000000000E+00 0.  1.
         21    1    1    2  502  501  0.50604161802E+02 -0.89673425052E+02 -0.11061762332E+03  0.15112366771E+03  0.00000000000E+00 0.  1.
<mgrwt>
<rscale>  1 0.30000000E+03</rscale>
<asrwt>0</asrwt>
<pdfrwt beam="1">  1        1 0.19635752E+00 0.30000000E+03</pdfrwt>
<pdfrwt beam="2">0</pdfrwt>
<totfact> 0.10660525E+01</totfact>
</mgrwt>
</event>
<event>
 6    1  0.1839160E-004  0.3000000E+03  0.7818608E-02  0.1093470E+00
          1   -1    0    0  502    0  0.00000000000E+00  0.00000000000E+00  0.50245891366E+02  0.50245891366E+02  0.00000000000E+00 0.  1.
         13   -1    0    0    0    0 -0.00000000000E+00 -0.00000000000E+00 -0.10000000000E+04  0.10000000000E+04  0.00000000000E+00 0.  1.
    9000005    2    1    2  501    0 -0.10855300130E+02 -0.59008426485E+02 -0.93099479114E+03  0.98738299349E+03  0.32337910068E+03 0.  0.
         13    1    3    3    0    0 -0.84306948249E+02 -0.84277717698E+02 -0.89298237957E+03  0.90090394907E+03  0.00000000000E+00 0.  1.
          3    1    3    3  501    0  0.73451648120E+02  0.25269291213E+02 -0.38012411570E+02  0.86479044417E+02  0.00000000000E+00 0.  1.
         21    1    1    2  502  501  0.10855300130E+02  0.59008426485E+02 -0.18759317494E+02  0.62862897881E+02  0.00000000000E+00 0. -1.
<mgrwt>
<rscale>  1 0.30000000E+03</rscale>
<asrwt>0</asrwt>
<pdfrwt beam="1">  1        1 0.18271272E+00 0.30000000E+03</pdfrwt>
<pdfrwt beam="2">0</pdfrwt>
<totfact> 0.12394820E+01</totfact>
</mgrwt>
</event>
<event>
 6    1  0.1839160E-004  0.3000000E+03  0.7818608E-02  0.1093470E+00
          1   -1    0    0  502    0  0.00000000000E+00  0.00000000000E+00  0.28450641972E+02  0.28450641972E+02  0.00000000000E+00 0.  1.
         13   -1    0    0    0    0 -0.00000000000E+00 -0.00000000000E+00 -0.10000000000E+04  0.10000000000E+04  0.00000000000E+00 0.  1.
    9000005    2    1    2  501    0 -0.23097095182E+01  0.98460751621E+01 -0.95547567593E+03  0.10094600335E+04  0.32553573072E+03 0.  0.
         13    1    3    3    0    0 -0.75150818387E+02  0.39412281010E+02 -0.91880414948E+03  0.92271449458E+03  0.00000000000E+00 0.  1.
          1    1    3    3  501    0  0.72841108869E+02 -0.29566205848E+02 -0.36671526444E+02  0.86745538912E+02  0.00000000000E+00 0.  1.
         21    1    1    2  502  501  0.23097095182E+01 -0.98460751621E+01 -0.16073682100E+02  0.18990608479E+02  0.00000000000E+00 0.  1.
<mgrwt>
<rscale>  1 0.30000000E+03</rscale>
<asrwt>0</asrwt>
<pdfrwt beam="1">  1        1 0.10345710E+00 0.30000000E+03</pdfrwt>
<pdfrwt beam="2">0</pdfrwt>
<totfact> 0.32559039E+01</totfact>
</mgrwt>
</event>
<event>
 6    1  0.1839160E-004  0.3000000E+03  0.7818608E-02  0.1093470E+00
          1   -1    0    0  502    0  0.00000000000E+00  0.00000000000E+00  0.27674296150E+02  0.27674296150E+02  0.00000000000E+00 0.  1.
         13   -1    0    0    0    0 -0.00000000000E+00 -0.00000000000E+00 -0.10000000000E+04  0.10000000000E+04  0.00000000000E+00 0.  1.
    9000005    2    1    2  501    0  0.11993079069E+02 -0.15590634452E+02 -0.94572877283E+03  0.99459411223E+03  0.30729079795E+03 0.  0.
         13    1    3    3    0    0 -0.49103296931E+02  0.21065119200E+02 -0.91572977583E+03  0.91728724800E+03  0.00000000000E+00 0.  1.
          3    1    3    3  501    0  0.61096375999E+02 -0.36655753652E+02 -0.29998997004E+02  0.77306864231E+02  0.00000000000E+00 0.  1.
         21    1    1    2  502  501 -0.11993079069E+02  0.15590634452E+02 -0.26596931020E+02  0.33080183915E+02  0.00000000000E+00 0. -1.
<mgrwt>
<rscale>  1 0.30000000E+03</rscale>
<asrwt>0</asrwt>
<pdfrwt beam="1">  1        1 0.10063402E+00 0.30000000E+03</pdfrwt>
<pdfrwt beam="2">0</pdfrwt>
<totfact> 0.33911817E+01</totfact>
</mgrwt>
</event>
<event>
 6    1  0.1839160E-004  0.3000000E+03  0.7818608E-02  0.1093470E+00
          1   -1    0    0  502    0  0.00000000000E+00  0.00000000000E+00  0.33012408464E+02  0.33012408464E+02  0.00000000000E+00 0.  1.
         13   -1    0    0    0    0 -0.00000000000E+00 -0.00000000000E+00 -0.10000000000E+04  0.10000000000E+04  0.00000000000E+00 0.  1.
    9000005    2    1    2  501    0  0.33037988391E+02  0.10468370648E+02 -0.91748648592E+03  0.97258513881E+03  0.32084155735E+03 0.  0.
         13    1    3    3    0    0  0.28293662275E+02  0.32705577988E+02 -0.93976071783E+03  0.94075522477E+03  0.00000000000E+00 0.  1.
          3    1    3    3  501    0  0.47443261165E+01 -0.22237207340E+02  0.22274231908E+02  0.31829914038E+02  0.00000000000E+00 0.  1.
         21    1    1    2  502  501 -0.33037988391E+02 -0.10468370648E+02 -0.49501105612E+02  0.60427269654E+02  0.00000000000E+00 0. -1.
<mgrwt>
<rscale>  1 0.30000000E+03</rscale>
<asrwt>0</asrwt>
<pdfrwt beam="1">  1        1 0.12004537E+00 0.30000000E+03</pdfrwt>
<pdfrwt beam="2">0</pdfrwt>
<totfact> 0.25980670E+01</totfact>
</mgrwt>
</event>
<event>
 6    1  0.1839160E-004  0.3000000E+03  0.7818608E-02  0.1093470E+00
          1   -1    0    0  502    0  0.00000000000E+00  0.00000000000E+00  0.32205798068E+02  0.32205798068E+02  0.00000000000E+00 0.  1.
         13   -1    0    0    0    0 -0.00000000000E+00 -0.00000000000E+00 -0.10000000000E+04  0.10000000000E+04  0.00000000000E+00 0.  1.
    9000005    2    1    2  501    0 -0.15486403804E+01 -0.18803831125E+02 -0.95652433379E+03  0.10102287127E+04  0.32444917712E+03 0.  0.
         13    1    3    3    0    0  0.79189132173E+00 -0.81548893602E+02 -0.94233415809E+03  0.94585649792E+03  0.00000000000E+00 0.  1.
          3    1    3    3  501    0 -0.23405317021E+01  0.62745062477E+02 -0.14190175700E+02  0.64372214816E+02  0.00000000000E+00 0.  1.
         21    1    1    2  502  501  0.15486403804E+01  0.18803831125E+02 -0.11269868137E+02  0.21977085335E+02  0.00000000000E+00 0.  1.
<mgrwt>
<rscale>  1 0.30000000E+03</rscale>
<asrwt>0</asrwt>
<pdfrwt beam="1">  1        1 0.11711224E+00 0.30000000E+03</pdfrwt>
<pdfrwt beam="2">0</pdfrwt>
<totfact> 0.26998763E+01</totfact>
</mgrwt>
</event>
<event>
 6    1  0.1839160E-004  0.3000000E+03  0.7818608E-02  0.1093470E+00
          1   -1    0    0  502    0  0.00000000000E+00  0.00000000000E+00  0.99766711568E+02  0.99766711568E+02  0.00000000000E+00 0.  1.
         13   -1    0    0    0    0 -0.00000000000E+00 -0.00000000000E+00 -0.10000000000E+04  0.10000000000E+04  0.00000000000E+00 0.  1.
    9000005    2    1    2  501    0 -0.12757754564E+02  0.15723173252E+02 -0.97173295698E+03  0.10254553323E+04  0.32693075792E+03 0.  0.
         13    1    3    3    0    0 -0.14686963029E+03 -0.66333518192E+02 -0.61205296637E+03  0.63291362568E+03  0.00000000000E+00 0.  1.
          1    1    3    3  501    0  0.13411187572E+03  0.82056691443E+02 -0.35967999062E+03  0.39254170667E+03  0.00000000000E+00 0.  1.
         21    1    1    2  502  501  0.12757754564E+02 -0.15723173252E+02  0.71499668552E+02  0.74311379220E+02  0.00000000000E+00 0.  1.
<mgrwt>
<rscale>  1 0.30000000E+03</rscale>
<asrwt>0</asrwt>
<pdfrwt beam="1">  1        1 0.36278881E+00 0.30000000E+03</pdfrwt>
<pdfrwt beam="2">0</pdfrwt>
<totfact> 0.16874894E+00</totfact>
</mgrwt>
</event>
<event>
 6    1  0.1839160E-004  0.3000000E+03  0.7818608E-02  0.1093470E+00
          1   -1    0    0  502    0  0.00000000000E+00  0.00000000000E+00  0.34275651018E+02  0.34275651018E+02  0.00000000000E+00 0.  1.
         13   -1    0    0    0    0 -0.00000000000E+00 -0.00000000000E+00 -0.10000000000E+04  0.10000000000E+04  0.00000000000E+00 0.  1.
    9000005    2    1    2  501    0  0.98671698281E+01  0.14136313153E+02 -0.96097489738E+03  0.10163939934E+04  0.33058554106E+03 0.  0.
         13    1    3    3    0    0  0.15707971624E+03  0.39088085796E+01 -0.69183064680E+03  0.70944975854E+03  0.00000000000E+00 0.  1.
          3    1    3    3  501    0 -0.14721254641E+03  0.10227504574E+02 -0.26914425058E+03  0.30694423483E+03  0.00000000000E+00 0.  1.
         21    1    1    2  502  501 -0.98671698281E+01 -0.14136313153E+02 -0.47494516022E+01  0.17881657656E+02  0.00000000000E+00 0. -1.
<mgrwt>
<rscale>  1 0.30000000E+03</rscale>
<asrwt>0</asrwt>
<pdfrwt beam="1">  1        1 0.12463899E+00 0.30000000E+03</pdfrwt>
<pdfrwt beam="2">0</pdfrwt>
<totfact> 0.24486586E+01</totfact>
</mgrwt>
</event>
<event>
 6    1  0.1839160E-004  0.3000000E+03  0.7818608E-02  0.1093470E+00
          1   -1    0    0  502    0  0.00000000000E+00  0.00000000000E+00  0.28802370990E+02  0.28802370990E+02  0.00000000000E+00 0.  1.
         13   -1    0    0    0    0 -0.00000000000E+00 -0.00000000000E+00 -0.10000000000E+04  0.10000000000E+04  0.00000000000E+00 0.  1.
    9000005    2    1    2  501    0  0.83415897007E+01  0.11424111448E+02 -0.91755020518E+03  0.97332139655E+03  0.32443191816E+03 0.  0.
         13    1    3    3    0    0  0.99995885873E+02 -0.76850914656E+02 -0.15311429580E+03  0.19836639800E+03  0.00000000000E+00 0.  1.
          3    1    3    3  501    0 -0.91654296172E+02  0.88275026104E+02 -0.76443590938E+03  0.77495499855E+03  0.00000000000E+00 0.  1.
         21    1    1    2  502  501 -0.83415897007E+01 -0.11424111448E+02 -0.53647423830E+02  0.55480974439E+02  0.00000000000E+00 0.  1.
<mgrwt>
<rscale>  1 0.30000000E+03</rscale>
<asrwt>0</asrwt>
<pdfrwt beam="1">  1        1 0.10473612E+00 0.30000000E+03</pdfrwt>
<pdfrwt beam="2">0</pdfrwt>
<totfact> 0.31971943E+01</totfact>
</mgrwt>
</event>
<event>
 6    1  0.1839160E-004  0.3000000E+03  0.7818608E-02  0.1093470E+00
          1   -1    0    0  502    0  0.00000000000E+00  0.00000000000E+00  0.37497878480E+02  0.37497878480E+02  0.00000000000E+00 0.  1.
         13   -1    0    0    0    0 -0.00000000000E+00 -0.00000000000E+00 -0.10000000000E+04  0.10000000000E+04  0.00000000000E+00 0.  1.
    9000005    2    1    2  501    0 -0.25051135365E+02  0.19792754227E+02 -0.93887269898E+03  0.99777808351E+03  0.33624373085E+03 0.  0.
         13    1    3    3    0    0 -0.72411899414E-01  0.17753558775E+03 -0.46675089588E+03  0.49937489822E+03  0.00000000000E+00 0.  1.
          1    1    3    3  501    0 -0.24978723465E+02 -0.15774283352E+03 -0.47212180310E+03  0.49840318529E+03  0.00000000000E+00 0.  1.
         21    1    1    2  502  501  0.25051135365E+02 -0.19792754227E+02 -0.23629422540E+02  0.39719794971E+02  0.00000000000E+00 0. -1.
<mgrwt>
<rscale>  1 0.30000000E+03</rscale>
<asrwt>0</asrwt>
<pdfrwt beam="1">  1        1 0.13635621E+00 0.30000000E+03</pdfrwt>
<pdfrwt beam="2">0</pdfrwt>
<totfact> 0.21147951E+01</totfact>
</mgrwt>
</event>
<event>
 6    1  0.1839160E-004  0.3000000E+03  0.7818608E-02  0.1093470E+00
          1   -1    0    0  502    0  0.00000000000E+00  0.00000000000E+00  0.30403799739E+02  0.30403799739E+02  0.00000000000E+00 0.  1.
         13   -1    0    0    0    0 -0.00000000000E+00 -0.00000000000E+00 -0.10000000000E+04  0.10000000000E+04  0.00000000000E+00 0.  1.
    9000005    2    1    2  501    0 -0.34993479486E+01  0.11102216608E+02 -0.96318714987E+03  0.10171154373E+04  0.32658662318E+03 0.  0.
         13    1    3    3    0    0  0.61905626477E+02  0.13683039747E+03 -0.72128998288E+03  0.73675918974E+03  0.00000000000E+00 0.  1.
          1    1    3    3  501    0 -0.65404974425E+02 -0.12572818086E+03 -0.24189716699E+03  0.28035624755E+03  0.00000000000E+00 0.  1.
         21    1    1    2  502  501  0.34993479486E+01 -0.11102216608E+02 -0.64090503866E+01  0.13288362448E+02  0.00000000000E+00 0.  1.
<mgrwt>
<rscale>  1 0.30000000E+03</rscale>
<asrwt>0</asrwt>
<pdfrwt beam="1">  1        1 0.11055950E+00 0.30000000E+03</pdfrwt>
<pdfrwt beam="2">0</pdfrwt>
<totfact> 0.29482744E+01</totfact>
</mgrwt>
</event>
<event>
 6    1  0.1839160E-004  0.3000000E+03  0.7818608E-02  0.1093470E+00
          1   -1    0    0  502    0  0.00000000000E+00  0.00000000000E+00  0.31519728609E+02  0.31519728609E+02  0.00000000000E+00 0.  1.
         13   -1    0    0    0    0 -0.00000000000E+00 -0.00000000000E+00 -0.10000000000E+04  0.10000000000E+04  0.00000000000E+00 0.  1.
    9000005    2    1    2  501    0 -0.22289375750E+02 -0.12110629509E+02 -0.91396504625E+03  0.97139158718E+03  0.32806405819E+03 0.  0.
         13    1    3    3    0    0  0.13983224015E+03 -0.25605233367E+02 -0.61305193414E+03  0.62931816858E+03  0.00000000000E+00 0.  1.
          3    1    3    3  501    0 -0.16212161590E+03  0.13494603858E+02 -0.30091311211E+03  0.34207341860E+03  0.00000000000E+00 0.  1.
         21    1    1    2  502  501  0.22289375750E+02  0.12110629509E+02 -0.54515225145E+02  0.60128141424E+02  0.00000000000E+00 0.  1.
<mgrwt>
<rscale>  1 0.30000000E+03</rscale>
<asrwt>0</asrwt>
<pdfrwt beam="1">  1        1 0.11461744E+00 0.30000000E+03</pdfrwt>
<pdfrwt beam="2">0</pdfrwt>
<totfact> 0.27908359E+01</totfact>
</mgrwt>
</event>
<event>
 6    1  0.1839160E-004  0.3000000E+03  0.7818608E-02  0.1093470E+00
          1   -1    0    0  502    0  0.00000000000E+00  0.00000000000E+00  0.33300677741E+02  0.33300677741E+02  0.00000000000E+00 0.  1.
         13   -1    0    0    0    0 -0.00000000000E+00 -0.00000000000E+00 -0.10000000000E+04  0.10000000000E+04  0.00000000000E+00 0.  1.
    9000005    2    1    2  501    0 -0.71549443834E+01 -0.11241705209E+02 -0.96458213290E+03  0.10198080258E+04  0.33077507349E+03 0.  0.
         13    1    3    3    0    0 -0.16447344044E+03 -0.26979351146E+00 -0.37467984984E+03  0.40919014562E+03  0.00000000000E+00 0.  1.
          1    1    3    3  501    0  0.15731849606E+03 -0.10971911697E+02 -0.58990228306E+03  0.61061788019E+03  0.00000000000E+00 0.  1.
         21    1    1    2  502  501  0.71549443834E+01  0.11241705209E+02 -0.21171893566E+01  0.13492651923E+02  0.00000000000E+00 0.  1.
<mgrwt>
<rscale>  1 0.30000000E+03</rscale>
<asrwt>0</asrwt>
<pdfrwt beam="1">  1        1 0.12109363E+00 0.30000000E+03</pdfrwt>
<pdfrwt beam="2">0</pdfrwt>
<totfact> 0.25629376E+01</totfact>
</mgrwt>
</event>
<event>
 6    1  0.1839160E-004  0.3000000E+03  0.7818608E-02  0.1093470E+00
          1   -1    0    0  502    0  0.00000000000E+00  0.00000000000E+00  0.62808125027E+02  0.62808125027E+02  0.00000000000E+00 0.  1.
         13   -1    0    0    0    0 -0.00000000000E+00 -0.00000000000E+00 -0.10000000000E+04  0.10000000000E+04  0.00000000000E+00 0.  1.
    9000005    2    1    2  501    0  0.38539268037E+02  0.11877265611E+03 -0.77620628666E+03  0.85907158274E+03  0.34628826980E+03 0.  0.
         13    1    3    3    0    0 -0.11479761081E+03 -0.52686628674E+02 -0.38568727757E+03  0.40584362551E+03  0.00000000000E+00 0.  1.
          3    1    3    3  501    0  0.15333687885E+03  0.17145928478E+03 -0.39051900908E+03  0.45322795722E+03  0.00000000000E+00 0.  1.
         21    1    1    2  502  501 -0.38539268037E+02 -0.11877265611E+03 -0.16098558832E+03  0.20373654229E+03  0.00000000000E+00 0. -1.
<mgrwt>
<rscale>  1 0.30000000E+03</rscale>
<asrwt>0</asrwt>
<pdfrwt beam="1">  1        1 0.22839366E+00 0.30000000E+03</pdfrwt>
<pdfrwt beam="2">0</pdfrwt>
<totfact> 0.75296938E+00</totfact>
</mgrwt>
</event>
<event>
 6    1  0.1839160E-004  0.3000000E+03  0.7818608E-02  0.1093470E+00
          1   -1    0    0  502    0  0.00000000000E+00  0.00000000000E+00  0.31582230917E+02  0.31582230917E+02  0.00000000000E+00 0.  1.
         13   -1    0    0    0    0 -0.00000000000E+00 -0.00000000000E+00 -0.10000000000E+04  0.10000000000E+04  0.00000000000E+00 0.  1.
    9000005    2    1    2  501    0  0.15222105766E+02 -0.14079007390E+01 -0.95256504225E+03  0.10095594328E+04  0.33406046454E+03 0.  0.
         13    1    3    3    0    0  0.87512689000E+02  0.59637293270E+02 -0.88965695104E+03  0.89593781481E+03  0.00000000000E+00 0.  1.
          3    1    3    3  501    0 -0.72290583234E+02 -0.61045194009E+02 -0.62908091213E+02  0.11362161800E+03  0.00000000000E+00 0.  1.
         21    1    1    2  502  501 -0.15222105766E+02  0.14079007390E+01 -0.15852726832E+02  0.22022798107E+02  0.00000000000E+00 0.  1.
<mgrwt>
<rscale>  1 0.30000000E+03</rscale>
<asrwt>0</asrwt>
<pdfrwt beam="1">  1        1 0.11484472E+00 0.30000000E+03</pdfrwt>
<pdfrwt beam="2">0</pdfrwt>
<totfact> 0.27823737E+01</totfact>
</mgrwt>
</event>
<event>
 6    1  0.1839160E-004  0.3000000E+03  0.7818608E-02  0.1093470E+00
          3   -1    0    0  502    0  0.00000000000E+00  0.00000000000E+00  0.44748863864E+02  0.44748863864E+02  0.00000000000E+00 0.  1.
         13   -1    0    0    0    0 -0.00000000000E+00 -0.00000000000E+00 -0.10000000000E+04  0.10000000000E+04  0.00000000000E+00 0.  1.
    9000005    2    1    2  501    0 -0.10107671014E+02 -0.28167752438E+01 -0.98250835496E+03  0.10155417549E+04  0.25669493402E+03 0.  0.
         13    1    3    3    0    0 -0.93497423600E+02  0.91363816075E+02 -0.47266828220E+03  0.49041249995E+03  0.00000000000E+00 0.  1.
          3    1    3    3  501    0  0.83389752586E+02 -0.94180591319E+02 -0.50984007276E+03  0.52512925495E+03  0.00000000000E+00 0.  1.
         21    1    1    2  502  501  0.10107671014E+02  0.28167752438E+01  0.27257218822E+02  0.29207108964E+02  0.00000000000E+00 0.  1.
<mgrwt>
<rscale>  1 0.30000000E+03</rscale>
<asrwt>0</asrwt>
<pdfrwt beam="1">  1        3 0.16272348E+00 0.30000000E+03</pdfrwt>
<pdfrwt beam="2">0</pdfrwt>
<totfact> 0.64305532E-01</totfact>
</mgrwt>
</event>
<event>
 6    1  0.1839160E-004  0.3000000E+03  0.7818608E-02  0.1093470E+00
          1   -1    0    0  502    0  0.00000000000E+00  0.00000000000E+00  0.65507691024E+02  0.65507691024E+02  0.00000000000E+00 0.  1.
         13   -1    0    0    0    0 -0.00000000000E+00 -0.00000000000E+00 -0.10000000000E+04  0.10000000000E+04  0.00000000000E+00 0.  1.
    9000005    2    1    2  501    0  0.83125234983E+01  0.60935636583E+02 -0.95058033686E+03  0.10019382448E+04  0.31063647518E+03 0.  0.
         13    1    3    3    0    0 -0.99088833649E+01 -0.11222450510E+03 -0.60017915089E+03  0.61066155821E+03  0.00000000000E+00 0.  1.
          3    1    3    3  501    0  0.18221406863E+02  0.17316014169E+03 -0.35040118597E+03  0.39127668659E+03  0.00000000000E+00 0.  1.
         21    1    1    2  502  501 -0.83125234983E+01 -0.60935636583E+02  0.16088027881E+02  0.63569446228E+02  0.00000000000E+00 0. -1.
<mgrwt>
<rscale>  1 0.30000000E+03</rscale>
<asrwt>0</asrwt>
<pdfrwt beam="1">  1        1 0.23821029E+00 0.30000000E+03</pdfrwt>
<pdfrwt beam="2">0</pdfrwt>
<totfact> 0.67734665E+00</totfact>
</mgrwt>
</event>
<event>
 6    1  0.1839160E-004  0.3000000E+03  0.7818608E-02  0.1093470E+00
          1   -1    0    0  502    0  0.00000000000E+00  0.00000000000E+00  0.46987910046E+02  0.46987910046E+02  0.00000000000E+00 0.  1.
         13   -1    0    0    0    0 -0.00000000000E+00 -0.00000000000E+00 -0.10000000000E+04  0.10000000000E+04  0.00000000000E+00 0.  1.
    9000005    2    1    2  501    0  0.23835492947E+02  0.73581551169E+02 -0.83156624563E+03  0.90300364528E+03  0.34341052273E+03 0.  0.
         13    1    3    3    0    0  0.95809830623E+02  0.56840262556E+02 -0.57402487366E+02  0.12532112610E+03  0.00000000000E+00 0.  1.
          3    1    3    3  501    0 -0.71974337676E+02  0.16741288613E+02 -0.77416375826E+03  0.77768251918E+03  0.00000000000E+00 0.  1.
         21    1    1    2  502  501 -0.23835492947E+02 -0.73581551169E+02 -0.12144584432E+03  0.14398426477E+03  0.00000000000E+00 0.  1.
<mgrwt>
<rscale>  1 0.30000000E+03</rscale>
<asrwt>0</asrwt>
<pdfrwt beam="1">  1        1 0.17086549E+00 0.30000000E+03</pdfrwt>
<pdfrwt beam="2">0</pdfrwt>
<totfact> 0.14148794E+01</totfact>
</mgrwt>
</event>
<event>
 6    1  0.1839160E-004  0.3000000E+03  0.7818608E-02  0.1093470E+00
          3   -1    0    0  502    0  0.00000000000E+00  0.00000000000E+00  0.30090895147E+02  0.30090895147E+02  0.00000000000E+00 0.  1.
         13   -1    0    0    0    0 -0.00000000000E+00 -0.00000000000E+00 -0.10000000000E+04  0.10000000000E+04  0.00000000000E+00 0.  1.
    9000005    2    1    2  501    0  0.76159848161E+01 -0.13267935552E+02 -0.96524371372E+03  0.10140969209E+04  0.31058508772E+03 0.  0.
         13    1    3    3    0    0 -0.19703155750E+02 -0.14919809940E+03 -0.68616775625E+03  0.70247738535E+03  0.00000000000E+00 0.  1.
          1    1    3    3  501    0  0.27319140567E+02  0.13593016384E+03 -0.27907595747E+03  0.31161953552E+03  0.00000000000E+00 0.  1.
         21    1    1    2  502  501 -0.76159848161E+01  0.13267935552E+02 -0.46653911334E+01  0.15993974271E+02  0.00000000000E+00 0.  1.
<mgrwt>
<rscale>  1 0.30000000E+03</rscale>
<asrwt>0</asrwt>
<pdfrwt beam="1">  1        3 0.10942167E+00 0.30000000E+03</pdfrwt>
<pdfrwt beam="2">0</pdfrwt>
<totfact> 0.30597057E+00</totfact>
</mgrwt>
</event>
<event>
 6    1  0.1839160E-004  0.3000000E+03  0.7818608E-02  0.1093470E+00
          1   -1    0    0  502    0  0.00000000000E+00  0.00000000000E+00  0.30508239027E+02  0.30508239027E+02  0.00000000000E+00 0.  1.
         13   -1    0    0    0    0 -0.00000000000E+00 -0.00000000000E+00 -0.10000000000E+04  0.10000000000E+04  0.00000000000E+00 0.  1.
    9000005    2    1    2  501    0 -0.56221354950E+01  0.17601179469E+02 -0.94290011734E+03  0.99812729653E+03  0.32688845018E+03 0.  0.
         13    1    3    3    0    0  0.38760135089E+02  0.13515589214E+03 -0.19882871955E+03  0.24352068284E+03  0.00000000000E+00 0.  1.
          1    1    3    3  501    0 -0.44382270584E+02 -0.11755471267E+03 -0.74407139779E+03  0.75460661369E+03  0.00000000000E+00 0.  1.
         21    1    1    2  502  501  0.56221354950E+01 -0.17601179469E+02 -0.26591643629E+02  0.32380942499E+02  0.00000000000E+00 0. -1.
<mgrwt>
<rscale>  1 0.30000000E+03</rscale>
<asrwt>0</asrwt>
<pdfrwt beam="1">  1        1 0.11093928E+00 0.30000000E+03</pdfrwt>
<pdfrwt beam="2">0</pdfrwt>
<totfact> 0.29330128E+01</totfact>
</mgrwt>
</event>
<event>
 6    1  0.1839160E-004  0.3000000E+03  0.7818608E-02  0.1093470E+00
          1   -1    0    0  502    0  0.00000000000E+00  0.00000000000E+00  0.29643992533E+02  0.29643992533E+02  0.00000000000E+00 0.  1.
         13   -1    0    0    0    0 -0.00000000000E+00 -0.00000000000E+00 -0.10000000000E+04  0.10000000000E+04  0.00000000000E+00 0.  1.
    9000005    2    1    2  501    0 -0.71267819743E+01  0.25609247548E+02 -0.91599403344E+03  0.96913078074E+03  0.31537719686E+03 0.  0.
         13    1    3    3    0    0  0.50808949101E+01 -0.29719475197E+02 -0.91181937829E+03  0.91231773047E+03  0.00000000000E+00 0.  1.
          1    1    3    3  501    0 -0.12207676884E+02  0.55328722745E+02 -0.41746551470E+01  0.56813050271E+02  0.00000000000E+00 0.  1.
         21    1    1    2  502  501  0.71267819743E+01 -0.25609247548E+02 -0.54361974027E+02  0.60513211792E+02  0.00000000000E+00 0.  1.
<mgrwt>
<rscale>  1 0.30000000E+03</rscale>
<asrwt>0</asrwt>
<pdfrwt beam="1">  1        1 0.10779656E+00 0.30000000E+03</pdfrwt>
<pdfrwt beam="2">0</pdfrwt>
<totfact> 0.30627785E+01</totfact>
</mgrwt>
</event>
<event>
 6    1  0.1839160E-004  0.3000000E+03  0.7818608E-02  0.1093470E+00
          1   -1    0    0  502    0  0.00000000000E+00  0.00000000000E+00  0.39313240315E+02  0.39313240315E+02  0.00000000000E+00 0.  1.
         13   -1    0    0    0    0 -0.00000000000E+00 -0.00000000000E+00 -0.10000000000E+04  0.10000000000E+04  0.00000000000E+00 0.  1.
    9000005    2    1    2  501    0  0.76396963124E+01 -0.90851184796E+01 -0.97092276270E+03  0.10236390547E+04  0.32404474814E+03 0.  0.
         13    1    3    3    0    0 -0.10339232699E+03 -0.70005335911E+02 -0.16034456301E+03  0.20322671878E+03  0.00000000000E+00 0.  1.
          1    1    3    3  501    0  0.11103202331E+03  0.60920217431E+02 -0.81057819969E+03  0.82041233590E+03  0.00000000000E+00 0.  1.
         21    1    1    2  502  501 -0.76396963124E+01  0.90851184796E+01  0.10236003017E+02  0.15674185634E+02  0.00000000000E+00 0. -1.
<mgrwt>
<rscale>  1 0.30000000E+03</rscale>
<asrwt>0</asrwt>
<pdfrwt beam="1">  1        1 0.14295754E+00 0.30000000E+03</pdfrwt>
<pdfrwt beam="2">0</pdfrwt>
<totfact> 0.19525854E+01</totfact>
</mgrwt>
</event>
<event>
 6    1  0.1839160E-004  0.3000000E+03  0.7818608E-02  0.1093470E+00
          1   -1    0    0  502    0  0.00000000000E+00  0.00000000000E+00  0.32155937672E+02  0.32155937672E+02  0.00000000000E+00 0.  1.
         13   -1    0    0    0    0 -0.00000000000E+00 -0.00000000000E+00 -0.10000000000E+04  0.10000000000E+04  0.00000000000E+00 0.  1.
    9000005    2    1    2  501    0 -0.98325700043E+01  0.13574680660E+02 -0.94816741559E+03  0.10063078852E+04  0.33667961108E+03 0.  0.
         13    1    3    3    0    0 -0.74021621186E+02  0.13262836938E+03 -0.75726481602E+03  0.77234673972E+03  0.00000000000E+00 0.  1.
          3    1    3    3  501    0  0.64189051182E+02 -0.11905368872E+03 -0.19090259957E+03  0.23396114552E+03  0.00000000000E+00 0.  1.
         21    1    1    2  502  501  0.98325700043E+01 -0.13574680660E+02 -0.19676646742E+02  0.25848052440E+02  0.00000000000E+00 0.  1.
<mgrwt>
<rscale>  1 0.30000000E+03</rscale>
<asrwt>0</asrwt>
<pdfrwt beam="1">  1        1 0.11693093E+00 0.30000000E+03</pdfrwt>
<pdfrwt beam="2">0</pdfrwt>
<totfact> 0.27063471E+01</totfact>
</mgrwt>
</event>
<event>
 6    1  0.2384117E-004  0.3000000E+03  0.7818608E-02  0.1093470E+00
          1   -1    0    0  502    0  0.00000000000E+00  0.00000000000E+00  0.50497163530E+02  0.50497163530E+02  0.00000000000E+00 0.  1.
         13   -1    0    0    0    0 -0.00000000000E+00 -0.00000000000E+00 -0.10000000000E+04  0.10000000000E+04  0.00000000000E+00 0.  1.
    9000005    2    1    2  501    0 -0.89162241904E+01 -0.45970697085E+01 -0.93411846426E+03  0.10321311348E+04  0.43888123907E+03 0.  0.
         13    1    3    3    0    0  0.30614552427E+02 -0.51854993498E+02  0.29144448008E+02  0.66899850678E+02  0.00000000000E+00 0.  1.
          3    1    3    3  501    0 -0.39530776617E+02  0.47257923790E+02 -0.96326291227E+03  0.96523128410E+03  0.00000000000E+00 0.  1.
         21    1    1    2  502  501  0.89162241904E+01  0.45970697085E+01 -0.15384372210E+02  0.18366028750E+02  0.00000000000E+00 0. -1.
<mgrwt>
<rscale>  1 0.30000000E+03</rscale>
<asrwt>0</asrwt>
<pdfrwt beam="1">  1        1 0.18362644E+00 0.30000000E+03</pdfrwt>
<pdfrwt beam="2">0</pdfrwt>
<totfact> 0.12269759E+01</totfact>
</mgrwt>
</event>
<event>
 6    1  0.1839160E-004  0.3000000E+03  0.7818608E-02  0.1093470E+00
          1   -1    0    0  502    0  0.00000000000E+00  0.00000000000E+00  0.54055075747E+02  0.54055075747E+02  0.00000000000E+00 0.  1.
         13   -1    0    0    0    0 -0.00000000000E+00 -0.00000000000E+00 -0.10000000000E+04  0.10000000000E+04  0.00000000000E+00 0.  1.
    9000005    2    1    2  501    0 -0.23674858174E+02  0.64657957135E+02 -0.92461399920E+03  0.98197068982E+03  0.32344124324E+03 0.  0.
         13    1    3    3    0    0  0.92748778327E+01  0.35659496272E+02  0.16116704523E+02  0.40216553779E+02  0.00000000000E+00 0.  1.
          1    1    3    3  501    0 -0.32949736007E+02  0.28998460863E+02 -0.94073070372E+03  0.94175413604E+03  0.00000000000E+00 0.  1.
         21    1    1    2  502  501  0.23674858174E+02 -0.64657957135E+02 -0.21330925057E+02  0.72084385925E+02  0.00000000000E+00 0. -1.
<mgrwt>
<rscale>  1 0.30000000E+03</rscale>
<asrwt>0</asrwt>
<pdfrwt beam="1">  1        1 0.19656433E+00 0.30000000E+03</pdfrwt>
<pdfrwt beam="2">0</pdfrwt>
<totfact> 0.10636358E+01</totfact>
</mgrwt>
</event>
<event>
 6    1  0.1839160E-004  0.3000000E+03  0.7818608E-02  0.1093470E+00
          1   -1    0    0  502    0  0.00000000000E+00  0.00000000000E+00  0.28659406362E+02  0.28659406362E+02  0.00000000000E+00 0.  1.
         13   -1    0    0    0    0 -0.00000000000E+00 -0.00000000000E+00 -0.10000000000E+04  0.10000000000E+04  0.00000000000E+00 0.  1.
    9000005    2    1    2  501    0  0.13815789286E+02 -0.62871861138E+01 -0.95899708080E+03  0.10090949730E+04  0.31363491331E+03 0.  0.
         13    1    3    3    0    0 -0.68405716813E+02  0.83116577821E+02 -0.80879193052E+03  0.81592407397E+03  0.00000000000E+00 0.  1.
          1    1    3    3  501    0  0.82221506099E+02 -0.89403763935E+02 -0.15020515028E+03  0.19317089905E+03  0.00000000000E+00 0.  1.
         21    1    1    2  502  501 -0.13815789286E+02  0.62871861138E+01 -0.12343512839E+02  0.19564433343E+02  0.00000000000E+00 0.  1.
<mgrwt>
<rscale>  1 0.30000000E+03</rscale>
<asrwt>0</asrwt>
<pdfrwt beam="1">  1        1 0.10421624E+00 0.30000000E+03</pdfrwt>
<pdfrwt beam="2">0</pdfrwt>
<totfact> 0.32208707E+01</totfact>
</mgrwt>
</event>
<event>
 6    1  0.1839160E-004  0.3000000E+03  0.7818608E-02  0.1093470E+00
          1   -1    0    0  502    0  0.00000000000E+00  0.00000000000E+00  0.41381684401E+02  0.41381684401E+02  0.00000000000E+00 0.  1.
         13   -1    0    0    0    0 -0.00000000000E+00 -0.00000000000E+00 -0.10000000000E+04  0.10000000000E+04  0.00000000000E+00 0.  1.
    9000005    2    1    2  501    0  0.96341654875E+01 -0.10980342910E+02 -0.97028446837E+03  0.10226871880E+04  0.32283703298E+03 0.  0.
         13    1    3    3    0    0 -0.14369007221E+02 -0.16399193731E+03 -0.57634368648E+03  0.59939291689E+03  0.00000000000E+00 0.  1.
          3    1    3    3  501    0  0.24003172709E+02  0.15301159440E+03 -0.39394078190E+03  0.42329427112E+03  0.00000000000E+00 0.  1.
         21    1    1    2  502  501 -0.96341654875E+01  0.10980342910E+02  0.11666152774E+02  0.18694496399E+02  0.00000000000E+00 0. -1.
<mgrwt>
<rscale>  1 0.30000000E+03</rscale>
<asrwt>0</asrwt>
<pdfrwt beam="1">  1        1 0.15047917E+00 0.30000000E+03</pdfrwt>
<pdfrwt beam="2">0</pdfrwt>
<totfact> 0.17864516E+01</totfact>
</mgrwt>
</event>
<event>
 6    1  0.1839160E-004  0.3000000E+03  0.7818608E-02  0.1093470E+00
          1   -1    0    0  502    0  0.00000000000E+00  0.00000000000E+00  0.22136207674E+02  0.22136207674E+02  0.00000000000E+00 0.  1.
         13   -1    0    0    0    0 -0.00000000000E+00 -0.00000000000E+00 -0.10000000000E+04  0.10000000000E+04  0.00000000000E+00 0.  1.
    9000005    2    1    2  501    0 -0.31388837285E+01 -0.10027806266E+02 -0.94945658057E+03  0.99184793983E+03  0.28667774217E+03 0.  0.
         13    1    3    3    0    0  0.87095060520E+02 -0.59774532548E+01 -0.82227234032E+02  0.11992746779E+03  0.00000000000E+00 0.  1.
          3    1    3    3  501    0 -0.90233944248E+02 -0.40503530110E+01 -0.86722934654E+03  0.87192047204E+03  0.00000000000E+00 0.  1.
         21    1    1    2  502  501  0.31388837285E+01  0.10027806266E+02 -0.28407211753E+02  0.30288267847E+02  0.00000000000E+00 0.  1.
<mgrwt>
<rscale>  1 0.30000000E+03</rscale>
<asrwt>0</asrwt>
<pdfrwt beam="1">  1        1 0.80495470E-01 0.30000000E+03</pdfrwt>
<pdfrwt beam="2">0</pdfrwt>
<totfact> 0.46566370E+01</totfact>
</mgrwt>
</event>
<event>
 6    1  0.1839160E-004  0.3000000E+03  0.7818608E-02  0.1093470E+00
          1   -1    0    0  502    0  0.00000000000E+00  0.00000000000E+00  0.33246748657E+02  0.33246748657E+02  0.00000000000E+00 0.  1.
         13   -1    0    0    0    0 -0.00000000000E+00 -0.00000000000E+00 -0.10000000000E+04  0.10000000000E+04  0.00000000000E+00 0.  1.
    9000005    2    1    2  501    0  0.10120878837E+02 -0.67535883364E+01 -0.96664474401E+03  0.10210789667E+04  0.32871287163E+03 0.  0.
         13    1    3    3    0    0  0.28625985033E+02 -0.90066064375E+02 -0.91798846833E+03  0.92284027381E+03  0.00000000000E+00 0.  1.
          1    1    3    3  501    0 -0.18505106196E+02  0.83312476038E+02 -0.48656275679E+02  0.98238692896E+02  0.00000000000E+00 0.  1.
         21    1    1    2  502  501 -0.10120878837E+02  0.67535883364E+01 -0.10850733208E+00  0.12167781954E+02  0.00000000000E+00 0. -1.
<mgrwt>
<rscale>  1 0.30000000E+03</rscale>
<asrwt>0</asrwt>
<pdfrwt beam="1">  1        1 0.12089752E+00 0.30000000E+03</pdfrwt>
<pdfrwt beam="2">0</pdfrwt>
<totfact> 0.25694613E+01</totfact>
</mgrwt>
</event>
<event>
 6    1  0.1839160E-004  0.3000000E+03  0.7818608E-02  0.1093470E+00
          1   -1    0    0  502    0  0.00000000000E+00  0.00000000000E+00  0.33179507931E+02  0.33179507931E+02  0.00000000000E+00 0.  1.
         13   -1    0    0    0    0 -0.00000000000E+00 -0.00000000000E+00 -0.10000000000E+04  0.10000000000E+04  0.00000000000E+00 0.  1.
    9000005    2    1    2  501    0 -0.31075134860E+01 -0.26292516721E+02 -0.93184990575E+03  0.98931728064E+03  0.33121515945E+03 0.  0.
         13    1    3    3    0    0 -0.13978840650E+03 -0.86539918916E+02 -0.32327876410E+03  0.36268321642E+03  0.00000000000E+00 0.  1.
          3    1    3    3  501    0  0.13668089301E+03  0.60247402195E+02 -0.60857114165E+03  0.62663406421E+03  0.00000000000E+00 0.  1.
         21    1    1    2  502  501  0.31075134860E+01  0.26292516721E+02 -0.34970586322E+02  0.43862227295E+02  0.00000000000E+00 0. -1.
<mgrwt>
<rscale>  1 0.30000000E+03</rscale>
<asrwt>0</asrwt>
<pdfrwt beam="1">  1        1 0.12065301E+00 0.30000000E+03</pdfrwt>
<pdfrwt beam="2">0</pdfrwt>
<totfact> 0.25776261E+01</totfact>
</mgrwt>
</event>
<event>
 6    1  0.1839160E-004  0.3000000E+03  0.7818608E-02  0.1093470E+00
          1   -1    0    0  502    0  0.00000000000E+00  0.00000000000E+00  0.10399001453E+03  0.10399001453E+03  0.00000000000E+00 0.  1.
         13   -1    0    0    0    0 -0.00000000000E+00 -0.00000000000E+00 -0.10000000000E+04  0.10000000000E+04  0.00000000000E+00 0.  1.
    9000005    2    1    2  501    0 -0.75518514898E+01 -0.19683976053E+03 -0.81517667480E+03  0.89106527219E+03  0.30113350259E+03 0.  0.
         13    1    3    3    0    0 -0.84166325637E+02 -0.23511795191E+03 -0.72452096279E+03  0.76635177771E+03  0.00000000000E+00 0.  1.
          3    1    3    3  501    0  0.76614474147E+02  0.38278191385E+02 -0.90655712009E+02  0.12471349448E+03  0.00000000000E+00 0.  1.
         21    1    1    2  502  501  0.75518514898E+01  0.19683976053E+03 -0.80833310672E+02  0.21292474234E+03  0.00000000000E+00 0.  1.
<mgrwt>
<rscale>  1 0.30000000E+03</rscale>
<asrwt>0</asrwt>
<pdfrwt beam="1">  1        1 0.37814630E+00 0.30000000E+03</pdfrwt>
<pdfrwt beam="2">0</pdfrwt>
<totfact> 0.13945564E+00</totfact>
</mgrwt>
</event>
<event>
 6    1  0.1839160E-004  0.3000000E+03  0.7818608E-02  0.1093470E+00
          1   -1    0    0  502    0  0.00000000000E+00  0.00000000000E+00  0.32630900115E+02  0.32630900115E+02  0.00000000000E+00 0.  1.
         13   -1    0    0    0    0 -0.00000000000E+00 -0.00000000000E+00 -0.10000000000E+04  0.10000000000E+04  0.00000000000E+00 0.  1.
    9000005    2    1    2  501    0  0.12155520307E+02 -0.71300092532E+01 -0.96386176410E+03  0.10181086720E+04  0.32759300045E+03 0.  0.
         13    1    3    3    0    0  0.16468218488E+03  0.37357286951E+02 -0.51187131136E+03  0.53900651972E+03  0.00000000000E+00 0.  1.
          1    1    3    3  501    0 -0.15252666457E+03 -0.44487296204E+02 -0.45199045274E+03  0.47910215225E+03  0.00000000000E+00 0.  1.
         21    1    1    2  502  501 -0.12155520307E+02  0.71300092532E+01 -0.35073357832E+01  0.14522228141E+02  0.00000000000E+00 0. -1.
<mgrwt>
<rscale>  1 0.30000000E+03</rscale>
<asrwt>0</asrwt>
<pdfrwt beam="1">  1        1 0.11865807E+00 0.30000000E+03</pdfrwt>
<pdfrwt beam="2">0</pdfrwt>
<totfact> 0.26455588E+01</totfact>
</mgrwt>
</event>
<event>
 6    1  0.1839160E-004  0.3000000E+03  0.7818608E-02  0.1093470E+00
          1   -1    0    0  502    0  0.00000000000E+00  0.00000000000E+00  0.30822287000E+02  0.30822287000E+02  0.00000000000E+00 0.  1.
         13   -1    0    0    0    0 -0.00000000000E+00 -0.00000000000E+00 -0.10000000000E+04  0.10000000000E+04  0.00000000000E+00 0.  1.
    9000005    2    1    2  501    0 -0.35847025312E-01 -0.10512709680E+02 -0.96787756133E+03  0.10202294241E+04  0.32244470183E+03 0.  0.
         13    1    3    3    0    0  0.14006563768E+03  0.74593885263E+02 -0.47666077505E+03  0.50238244899E+03  0.00000000000E+00 0.  1.
          3    1    3    3  501    0 -0.14010148470E+03 -0.85106594943E+02 -0.49121678628E+03  0.51784697512E+03  0.00000000000E+00 0.  1.
         21    1    1    2  502  501  0.35847025312E-01  0.10512709680E+02 -0.13001516662E+01  0.10592862889E+02  0.00000000000E+00 0. -1.
<mgrwt>
<rscale>  1 0.30000000E+03</rscale>
<asrwt>0</asrwt>
<pdfrwt beam="1">  1        1 0.11208128E+00 0.30000000E+03</pdfrwt>
<pdfrwt beam="2">0</pdfrwt>
<totfact> 0.28877883E+01</totfact>
</mgrwt>
</event>
<event>
 6    1  0.1839160E-004  0.3000000E+03  0.7818608E-02  0.1093470E+00
          1   -1    0    0  502    0  0.00000000000E+00  0.00000000000E+00  0.26439481541E+02  0.26439481541E+02  0.00000000000E+00 0.  1.
         13   -1    0    0    0    0 -0.00000000000E+00 -0.00000000000E+00 -0.10000000000E+04  0.10000000000E+04  0.00000000000E+00 0.  1.
    9000005    2    1    2  501    0 -0.32370973820E+01  0.84183703071E+01 -0.95055972858E+03  0.10017335290E+04  0.31595081528E+03 0.  0.
         13    1    3    3    0    0  0.14759969966E+03 -0.86756324008E+01 -0.31031656467E+03  0.34374017549E+03  0.00000000000E+00 0.  1.
          1    1    3    3  501    0 -0.15083679704E+03  0.17094002708E+02 -0.64024316391E+03  0.65799335346E+03  0.00000000000E+00 0.  1.
         21    1    1    2  502  501  0.32370973820E+01 -0.84183703071E+01 -0.23000789880E+02  0.24705952586E+02  0.00000000000E+00 0. -1.
<mgrwt>
<rscale>  1 0.30000000E+03</rscale>
<asrwt>0</asrwt>
<pdfrwt beam="1">  1        1 0.96143772E-01 0.30000000E+03</pdfrwt>
<pdfrwt beam="2">0</pdfrwt>
<totfact> 0.36240149E+01</totfact>
</mgrwt>
</event>
<event>
 6    1  0.1839160E-004  0.3000000E+03  0.7818608E-02  0.1093470E+00
          1   -1    0    0  502    0  0.00000000000E+00  0.00000000000E+00  0.32530831395E+02  0.32530831395E+02  0.00000000000E+00 0.  1.
         13   -1    0    0    0    0 -0.00000000000E+00 -0.00000000000E+00 -0.10000000000E+04  0.10000000000E+04  0.00000000000E+00 0.  1.
    9000005    2    1    2  501    0  0.17763003817E+02  0.49357914296E+01 -0.95933343286E+03  0.10123794906E+04  0.32288033564E+03 0.  0.
         13    1    3    3    0    0 -0.62332789434E+02  0.76724331798E+02 -0.86096638135E+03  0.86662281850E+03  0.00000000000E+00 0.  1.
          3    1    3    3  501    0  0.80095793251E+02 -0.71788540369E+02 -0.98367051506E+02  0.14575667205E+03  0.00000000000E+00 0.  1.
         21    1    1    2  502  501 -0.17763003817E+02 -0.49357914296E+01 -0.81357357460E+01  0.20151340843E+02  0.00000000000E+00 0.  1.
<mgrwt>
<rscale>  1 0.30000000E+03</rscale>
<asrwt>0</asrwt>
<pdfrwt beam="1">  1        1 0.11829418E+00 0.30000000E+03</pdfrwt>
<pdfrwt beam="2">0</pdfrwt>
<totfact> 0.26582099E+01</totfact>
</mgrwt>
</event>
<event>
 6    1  0.1839160E-004  0.3000000E+03  0.7818608E-02  0.1093470E+00
          1   -1    0    0  502    0  0.00000000000E+00  0.00000000000E+00  0.32925026054E+02  0.32925026054E+02  0.00000000000E+00 0.  1.
         13   -1    0    0    0    0 -0.00000000000E+00 -0.00000000000E+00 -0.10000000000E+04  0.10000000000E+04  0.00000000000E+00 0.  1.
    9000005    2    1    2  501    0 -0.82803848551E+01  0.76856075644E+01 -0.96781540257E+03  0.10216032960E+04  0.32692355008E+03 0.  0.
         13    1    3    3    0    0 -0.70292784498E+02 -0.13963210512E+03 -0.60996007083E+03  0.62967411280E+03  0.00000000000E+00 0.  1.
          3    1    3    3  501    0  0.62012399643E+02  0.14731771268E+03 -0.35785533174E+03  0.39192918319E+03  0.00000000000E+00 0.  1.
         21    1    1    2  502  501  0.82803848551E+01 -0.76856075644E+01  0.74042862386E+00  0.11321730059E+02  0.00000000000E+00 0.  1.
<mgrwt>
<rscale>  1 0.30000000E+03</rscale>
<asrwt>0</asrwt>
<pdfrwt beam="1">  1        1 0.11972762E+00 0.30000000E+03</pdfrwt>
<pdfrwt beam="2">0</pdfrwt>
<totfact> 0.26088427E+01</totfact>
</mgrwt>
</event>
<event>
 6    1  0.1839160E-004  0.3000000E+03  0.7818608E-02  0.1093470E+00
          1   -1    0    0  502    0  0.00000000000E+00  0.00000000000E+00  0.30462549364E+02  0.30462549364E+02  0.00000000000E+00 0.  1.
         13   -1    0    0    0    0 -0.00000000000E+00 -0.00000000000E+00 -0.10000000000E+04  0.10000000000E+04  0.00000000000E+00 0.  1.
    9000005    2    1    2  501    0  0.54479689384E+01 -0.15854979104E+02 -0.95359078413E+03  0.10073247686E+04  0.32417085779E+03 0.  0.
         13    1    3    3    0    0  0.14484169402E+03 -0.77647520808E+02 -0.38422691049E+03  0.41789780157E+03  0.00000000000E+00 0.  1.
          3    1    3    3  501    0 -0.13939372508E+03  0.61792541704E+02 -0.56936387364E+03  0.58942696699E+03  0.00000000000E+00 0.  1.
         21    1    1    2  502  501 -0.54479689384E+01  0.15854979104E+02 -0.15946666502E+02  0.23137780802E+02  0.00000000000E+00 0.  1.
<mgrwt>
<rscale>  1 0.30000000E+03</rscale>
<asrwt>0</asrwt>
<pdfrwt beam="1">  1        1 0.11077314E+00 0.30000000E+03</pdfrwt>
<pdfrwt beam="2">0</pdfrwt>
<totfact> 0.29396756E+01</totfact>
</mgrwt>
</event>
<event>
 6    1  0.1839160E-004  0.3000000E+03  0.7818608E-02  0.1093470E+00
          1   -1    0    0  502    0  0.00000000000E+00  0.00000000000E+00  0.45562486387E+02  0.45562486387E+02  0.00000000000E+00 0.  1.
         13   -1    0    0    0    0 -0.00000000000E+00 -0.00000000000E+00 -0.10000000000E+04  0.10000000000E+04  0.00000000000E+00 0.  1.
    9000005    2    1    2  501    0  0.16314014135E+02 -0.13323110381E+02 -0.96687219078E+03  0.10211028559E+04  0.32766683797E+03 0.  0.
         13    1    3    3    0    0 -0.49799601123E+02  0.11794860249E+03 -0.18160475822E+03  0.22219847278E+03  0.00000000000E+00 0.  1.
          1    1    3    3  501    0  0.66113615258E+02 -0.13127171287E+03 -0.78526743256E+03  0.79890438312E+03  0.00000000000E+00 0.  1.
         21    1    1    2  502  501 -0.16314014135E+02  0.13323110381E+02  0.12434677162E+02  0.24459630486E+02  0.00000000000E+00 0. -1.
<mgrwt>
<rscale>  1 0.30000000E+03</rscale>
<asrwt>0</asrwt>
<pdfrwt beam="1">  1        1 0.16568212E+00 0.30000000E+03</pdfrwt>
<pdfrwt beam="2">0</pdfrwt>
<totfact> 0.15000896E+01</totfact>
</mgrwt>
</event>
<event>
 6    1  0.1839160E-004  0.3000000E+03  0.7818608E-02  0.1093470E+00
          1   -1    0    0  502    0  0.00000000000E+00  0.00000000000E+00  0.30205165478E+02  0.30205165478E+02  0.00000000000E+00 0.  1.
         13   -1    0    0    0    0 -0.00000000000E+00 -0.00000000000E+00 -0.10000000000E+04  0.10000000000E+04  0.00000000000E+00 0.  1.
    9000005    2    1    2  501    0  0.99045127164E+01 -0.26438642404E+02 -0.91169923331E+03  0.96561259575E+03  0.31688340421E+03 0.  0.
         13    1    3    3    0    0  0.97913066264E+02 -0.10548449254E+03 -0.75862153772E+03  0.77215321291E+03  0.00000000000E+00 0.  1.
          3    1    3    3  501    0 -0.88008553547E+02  0.79045850134E+02 -0.15307769559E+03  0.19345938284E+03  0.00000000000E+00 0.  1.
         21    1    1    2  502  501 -0.99045127164E+01  0.26438642404E+02 -0.58095601212E+02  0.64592569731E+02  0.00000000000E+00 0.  1.
<mgrwt>
<rscale>  1 0.30000000E+03</rscale>
<asrwt>0</asrwt>
<pdfrwt beam="1">  1        1 0.10983720E+00 0.30000000E+03</pdfrwt>
<pdfrwt beam="2">0</pdfrwt>
<totfact> 0.29776129E+01</totfact>
</mgrwt>
</event>
<event>
 6    1  0.1839160E-004  0.3000000E+03  0.7818608E-02  0.1093470E+00
          1   -1    0    0  502    0  0.00000000000E+00  0.00000000000E+00  0.31821804461E+02  0.31821804461E+02  0.00000000000E+00 0.  1.
         13   -1    0    0    0    0 -0.00000000000E+00 -0.00000000000E+00 -0.10000000000E+04  0.10000000000E+04  0.00000000000E+00 0.  1.
    9000005    2    1    2  501    0 -0.13654429164E+02  0.10366500102E+02 -0.95902152242E+03  0.10123859504E+04  0.32389678041E+03 0.  0.
         13    1    3    3    0    0 -0.12697325912E+03  0.10099610049E+03 -0.66504535925E+03  0.68454930480E+03  0.00000000000E+00 0.  1.
          3    1    3    3  501    0  0.11331882996E+03 -0.90629600391E+02 -0.29397616317E+03  0.32783664561E+03  0.00000000000E+00 0.  1.
         21    1    1    2  502  501  0.13654429164E+02 -0.10366500102E+02 -0.91566731206E+01  0.19435854053E+02  0.00000000000E+00 0.  1.
<mgrwt>
<rscale>  1 0.30000000E+03</rscale>
<asrwt>0</asrwt>
<pdfrwt beam="1">  1        1 0.11571590E+00 0.30000000E+03</pdfrwt>
<pdfrwt beam="2">0</pdfrwt>
<totfact> 0.27502688E+01</totfact>
</mgrwt>
</event>
<event>
 6    1  0.1839160E-004  0.3000000E+03  0.7818608E-02  0.1093470E+00
          1   -1    0    0  502    0  0.00000000000E+00  0.00000000000E+00  0.30852327953E+02  0.30852327953E+02  0.00000000000E+00 0.  1.
         13   -1    0    0    0    0 -0.00000000000E+00 -0.00000000000E+00 -0.10000000000E+04  0.10000000000E+04  0.00000000000E+00 0.  1.
    9000005    2    1    2  501    0  0.74187100761E+01  0.65090113626E+01 -0.95837301785E+03  0.10162407688E+04  0.33788911542E+03 0.  0.
         13    1    3    3    0    0 -0.59107205895E+02 -0.12935363779E+03 -0.72004906282E+03  0.73395958898E+03  0.00000000000E+00 0.  1.
          3    1    3    3  501    0  0.66525915971E+02  0.13586264915E+03 -0.23832395503E+03  0.28228117980E+03  0.00000000000E+00 0.  1.
         21    1    1    2  502  501 -0.74187100761E+01 -0.65090113626E+01 -0.10774654198E+02  0.14611559164E+02  0.00000000000E+00 0.  1.
<mgrwt>
<rscale>  1 0.30000000E+03</rscale>
<asrwt>0</asrwt>
<pdfrwt beam="1">  1        1 0.11219052E+00 0.30000000E+03</pdfrwt>
<pdfrwt beam="2">0</pdfrwt>
<totfact> 0.28835139E+01</totfact>
</mgrwt>
</event>
<event>
 6    1  0.1839160E-004  0.3000000E+03  0.7818608E-02  0.1093470E+00
          1   -1    0    0  502    0  0.00000000000E+00  0.00000000000E+00  0.31795487543E+02  0.31795487543E+02  0.00000000000E+00 0.  1.
         13   -1    0    0    0    0 -0.00000000000E+00 -0.00000000000E+00 -0.10000000000E+04  0.10000000000E+04  0.00000000000E+00 0.  1.
    9000005    2    1    2  501    0 -0.12904108979E+02  0.11191969099E+02 -0.95737487266E+03  0.10115703226E+04  0.32621479804E+03 0.  0.
         13    1    3    3    0    0  0.15162987323E+03  0.32853866392E+02 -0.55598928142E+03  0.57723052245E+03  0.00000000000E+00 0.  1.
          1    1    3    3  501    0 -0.16453398221E+03 -0.21661897293E+02 -0.40138559124E+03  0.43433980010E+03  0.00000000000E+00 0.  1.
         21    1    1    2  502  501  0.12904108979E+02 -0.11191969099E+02 -0.10829639795E+02  0.20225164992E+02  0.00000000000E+00 0.  1.
<mgrwt>
<rscale>  1 0.30000000E+03</rscale>
<asrwt>0</asrwt>
<pdfrwt beam="1">  1        1 0.11562020E+00 0.30000000E+03</pdfrwt>
<pdfrwt beam="2">0</pdfrwt>
<totfact> 0.27537701E+01</totfact>
</mgrwt>
</event>
<event>
 6    1  0.1839160E-004  0.3000000E+03  0.7818608E-02  0.1093470E+00
          1   -1    0    0  502    0  0.00000000000E+00  0.00000000000E+00  0.28215974099E+02  0.28215974099E+02  0.00000000000E+00 0.  1.
         13   -1    0    0    0    0 -0.00000000000E+00 -0.00000000000E+00 -0.10000000000E+04  0.10000000000E+04  0.00000000000E+00 0.  1.
    9000005    2    1    2  501    0  0.10480813155E+02 -0.54020173416E+01 -0.96031342829E+03  0.10117659332E+04  0.31832278242E+03 0.  0.
         13    1    3    3    0    0 -0.10643593872E+02 -0.11767782065E+03 -0.13851907963E+03  0.18206836898E+03  0.00000000000E+00 0.  1.
          1    1    3    3  501    0  0.21124407027E+02  0.11227580331E+03 -0.82179434867E+03  0.82969756423E+03  0.00000000000E+00 0.  1.
         21    1    1    2  502  501 -0.10480813155E+02  0.54020173416E+01 -0.11470597608E+02  0.16450040889E+02  0.00000000000E+00 0.  1.
<mgrwt>
<rscale>  1 0.30000000E+03</rscale>
<asrwt>0</asrwt>
<pdfrwt beam="1">  1        1 0.10260376E+00 0.30000000E+03</pdfrwt>
<pdfrwt beam="2">0</pdfrwt>
<totfact> 0.32959500E+01</totfact>
</mgrwt>
</event>
<event>
 6    1  0.1839160E-004  0.3000000E+03  0.7818608E-02  0.1093470E+00
          1   -1    0    0  502    0  0.00000000000E+00  0.00000000000E+00  0.30751898469E+02  0.30751898469E+02  0.00000000000E+00 0.  1.
         13   -1    0    0    0    0 -0.00000000000E+00 -0.00000000000E+00 -0.10000000000E+04  0.10000000000E+04  0.00000000000E+00 0.  1.
    9000005    2    1    2  501    0  0.72274571189E+01  0.14178586019E+02 -0.93952245820E+03  0.99703421306E+03  0.33334892247E+03 0.  0.
         13    1    3    3    0    0 -0.78312353336E+02 -0.10535765447E+03 -0.72622284138E+03  0.73799232746E+03  0.00000000000E+00 0.  1.
          3    1    3    3  501    0  0.85539810455E+02  0.11953624049E+03 -0.21329961682E+03  0.25904188560E+03  0.00000000000E+00 0.  1.
         21    1    1    2  502  501 -0.72274571189E+01 -0.14178586019E+02 -0.29725643328E+02  0.33717685407E+02  0.00000000000E+00 0.  1.
<mgrwt>
<rscale>  1 0.30000000E+03</rscale>
<asrwt>0</asrwt>
<pdfrwt beam="1">  1        1 0.11182532E+00 0.30000000E+03</pdfrwt>
<pdfrwt beam="2">0</pdfrwt>
<totfact> 0.28978386E+01</totfact>
</mgrwt>
</event>
<event>
 6    1  0.1839160E-004  0.3000000E+03  0.7818608E-02  0.1093470E+00
          1   -1    0    0  502    0  0.00000000000E+00  0.00000000000E+00  0.30442117249E+02  0.30442117249E+02  0.00000000000E+00 0.  1.
         13   -1    0    0    0    0 -0.00000000000E+00 -0.00000000000E+00 -0.10000000000E+04  0.10000000000E+04  0.00000000000E+00 0.  1.
    9000005    2    1    2  501    0 -0.13911378305E+02  0.22204071622E+02 -0.91553891700E+03  0.97040383026E+03  0.32060183720E+03 0.  0.
         13    1    3    3    0    0  0.12342531377E+03  0.80667247281E+02 -0.26799491324E+03  0.30587952920E+03  0.00000000000E+00 0.  1.
          3    1    3    3  501    0 -0.13733669208E+03 -0.58463175659E+02 -0.64754400376E+03  0.66452430106E+03  0.00000000000E+00 0.  1.
         21    1    1    2  502  501  0.13911378305E+02 -0.22204071622E+02 -0.54018965754E+02  0.60038286985E+02  0.00000000000E+00 0.  1.
<mgrwt>
<rscale>  1 0.30000000E+03</rscale>
<asrwt>0</asrwt>
<pdfrwt beam="1">  1        1 0.11069884E+00 0.30000000E+03</pdfrwt>
<pdfrwt beam="2">0</pdfrwt>
<totfact> 0.29426621E+01</totfact>
</mgrwt>
</event>
<event>
 6    1  0.1839160E-004  0.3000000E+03  0.7818608E-02  0.1093470E+00
          1   -1    0    0  502    0  0.00000000000E+00  0.00000000000E+00  0.41934993950E+02  0.41934993950E+02  0.00000000000E+00 0.  1.
         13   -1    0    0    0    0 -0.00000000000E+00 -0.00000000000E+00 -0.10000000000E+04  0.10000000000E+04  0.00000000000E+00 0.  1.
    9000005    2    1    2  501    0 -0.10699463596E+02 -0.11416326653E+02 -0.96905931923E+03  0.10228120769E+04  0.32683905727E+03 0.  0.
         13    1    3    3    0    0 -0.13503938553E+03  0.90742334217E+02 -0.41154464675E+03  0.44253678167E+03  0.00000000000E+00 0.  1.
          3    1    3    3  501    0  0.12433992194E+03 -0.10215866087E+03 -0.55751467248E+03  0.58027529519E+03  0.00000000000E+00 0.  1.
         21    1    1    2  502  501  0.10699463596E+02  0.11416326653E+02  0.10994313183E+02  0.19122917085E+02  0.00000000000E+00 0.  1.
<mgrwt>
<rscale>  1 0.30000000E+03</rscale>
<asrwt>0</asrwt>
<pdfrwt beam="1">  1        1 0.15249121E+00 0.30000000E+03</pdfrwt>
<pdfrwt beam="2">0</pdfrwt>
<totfact> 0.17450237E+01</totfact>
</mgrwt>
</event>
<event>
 6    1  0.1839160E-004  0.3000000E+03  0.7818608E-02  0.1093470E+00
          3   -1    0    0  502    0  0.00000000000E+00  0.00000000000E+00  0.34849805115E+02  0.34849805115E+02  0.00000000000E+00 0.  1.
         13   -1    0    0    0    0 -0.00000000000E+00 -0.00000000000E+00 -0.10000000000E+04  0.10000000000E+04  0.00000000000E+00 0.  1.
    9000005    2    1    2  501    0  0.14035630792E+02  0.63969565800E+01 -0.96300634392E+03  0.10192768773E+04  0.33362585943E+03 0.  0.
         13    1    3    3    0    0  0.54435585444E+02 -0.15154319638E+03 -0.35533473500E+03  0.39011709426E+03  0.00000000000E+00 0.  1.
          3    1    3    3  501    0 -0.40399954652E+02  0.15794015296E+03 -0.60767160892E+03  0.62915978300E+03  0.00000000000E+00 0.  1.
         21    1    1    2  502  501 -0.14035630792E+02 -0.63969565800E+01 -0.21438509616E+01  0.15572927861E+02  0.00000000000E+00 0.  1.
<mgrwt>
<rscale>  1 0.30000000E+03</rscale>
<asrwt>0</asrwt>
<pdfrwt beam="1">  1        3 0.12672683E+00 0.30000000E+03</pdfrwt>
<pdfrwt beam="2">0</pdfrwt>
<totfact> 0.19320283E+00</totfact>
</mgrwt>
</event>
<event>
 6    1  0.1839160E-004  0.3000000E+03  0.7818608E-02  0.1093470E+00
          1   -1    0    0  502    0  0.00000000000E+00  0.00000000000E+00  0.27198064223E+02  0.27198064223E+02  0.00000000000E+00 0.  1.
         13   -1    0    0    0    0 -0.00000000000E+00 -0.00000000000E+00 -0.10000000000E+04  0.10000000000E+04  0.00000000000E+00 0.  1.
    9000005    2    1    2  501    0  0.20944153257E+02 -0.25725394348E+01 -0.94707288308E+03  0.99392255270E+03  0.30081509167E+03 0.  0.
         13    1    3    3    0    0  0.11772580509E+03  0.16787954796E+02 -0.83970012541E+03  0.84807871169E+03  0.00000000000E+00 0.  1.
          1    1    3    3  501    0 -0.96781651837E+02 -0.19360494230E+02 -0.10737275767E+03  0.14584384101E+03  0.00000000000E+00 0.  1.
         21    1    1    2  502  501 -0.20944153257E+02  0.25725394348E+01 -0.25729052695E+02  0.33275511527E+02  0.00000000000E+00 0.  1.
<mgrwt>
<rscale>  1 0.30000000E+03</rscale>
<asrwt>0</asrwt>
<pdfrwt beam="1">  1        1 0.98902260E-01 0.30000000E+03</pdfrwt>
<pdfrwt beam="2">0</pdfrwt>
<totfact> 0.34782863E+01</totfact>
</mgrwt>
</event>
<event>
 6    1  0.1839160E-004  0.3000000E+03  0.7818608E-02  0.1093470E+00
          1   -1    0    0  502    0  0.00000000000E+00  0.00000000000E+00  0.62272269135E+02  0.62272269135E+02  0.00000000000E+00 0.  1.
         13   -1    0    0    0    0 -0.00000000000E+00 -0.00000000000E+00 -0.10000000000E+04  0.10000000000E+04  0.00000000000E+00 0.  1.
    9000005    2    1    2  501    0  0.81760980420E+02  0.82108076865E+02 -0.82362889526E+03  0.89965265626E+03  0.34290487106E+03 0.  0.
         13    1    3    3    0    0  0.49963381938E+01 -0.12022404270E+03 -0.46917377368E+03  0.48435814616E+03  0.00000000000E+00 0.  1.
          3    1    3    3  501    0  0.76764642226E+02  0.20233211957E+03 -0.35445512158E+03  0.41529451010E+03  0.00000000000E+00 0.  1.
         21    1    1    2  502  501 -0.81760980420E+02 -0.82108076865E+02 -0.11409883560E+03  0.16261961287E+03  0.00000000000E+00 0.  1.
<mgrwt>
<rscale>  1 0.30000000E+03</rscale>
<asrwt>0</asrwt>
<pdfrwt beam="1">  1        1 0.22644509E+00 0.30000000E+03</pdfrwt>
<pdfrwt beam="2">0</pdfrwt>
<totfact> 0.76895848E+00</totfact>
</mgrwt>
</event>
<event>
 6    1  0.1839160E-004  0.3000000E+03  0.7818608E-02  0.1093470E+00
          1   -1    0    0  502    0  0.00000000000E+00  0.00000000000E+00  0.36922037542E+02  0.36922037542E+02  0.00000000000E+00 0.  1.
         13   -1    0    0    0    0 -0.00000000000E+00 -0.00000000000E+00 -0.10000000000E+04  0.10000000000E+04  0.00000000000E+00 0.  1.
    9000005    2    1    2  501    0 -0.27002786461E+02  0.21567280148E+01 -0.95362587961E+03  0.10082315544E+04  0.32618207659E+03 0.  0.
         13    1    3    3    0    0  0.54369572179E+02  0.11653176722E+03 -0.17562324806E+03  0.21766770180E+03  0.00000000000E+00 0.  1.
          3    1    3    3  501    0 -0.81372358640E+02 -0.11437503920E+03 -0.77800263155E+03  0.79056385260E+03  0.00000000000E+00 0.  1.
         21    1    1    2  502  501  0.27002786461E+02 -0.21567280148E+01 -0.94520828507E+01  0.28690483137E+02  0.00000000000E+00 0. -1.
<mgrwt>
<rscale>  1 0.30000000E+03</rscale>
<asrwt>0</asrwt>
<pdfrwt beam="1">  1        1 0.13426224E+00 0.30000000E+03</pdfrwt>
<pdfrwt beam="2">0</pdfrwt>
<totfact> 0.21698718E+01</totfact>
</mgrwt>
</event>
<event>
 6    1  0.1839160E-004  0.3000000E+03  0.7818608E-02  0.1093470E+00
          1   -1    0    0  502    0  0.00000000000E+00  0.00000000000E+00  0.33309434505E+02  0.33309434505E+02  0.00000000000E+00 0.  1.
         13   -1    0    0    0    0 -0.00000000000E+00 -0.00000000000E+00 -0.10000000000E+04  0.10000000000E+04  0.00000000000E+00 0.  1.
    9000005    2    1    2  501    0  0.13942835272E+02  0.25978429609E+02 -0.94368143019E+03  0.99591021302E+03  0.31691202130E+03 0.  0.
         13    1    3    3    0    0 -0.69997111451E+02  0.49081278601E-01 -0.89043151605E+03  0.89317852795E+03  0.00000000000E+00 0.  1.
          3    1    3    3  501    0  0.83939946723E+02  0.25929348331E+02 -0.53249914145E+02  0.10273168507E+03  0.00000000000E+00 0.  1.
         21    1    1    2  502  501 -0.13942835272E+02 -0.25978429609E+02 -0.23009135304E+02  0.37399221487E+02  0.00000000000E+00 0. -1.
<mgrwt>
<rscale>  1 0.30000000E+03</rscale>
<asrwt>0</asrwt>
<pdfrwt beam="1">  1        1 0.12112547E+00 0.30000000E+03</pdfrwt>
<pdfrwt beam="2">0</pdfrwt>
<totfact> 0.25618804E+01</totfact>
</mgrwt>
</event>
<event>
 6    1  0.1839160E-004  0.3000000E+03  0.7818608E-02  0.1093470E+00
          1   -1    0    0  502    0  0.00000000000E+00  0.00000000000E+00  0.43220868687E+02  0.43220868687E+02  0.00000000000E+00 0.  1.
         13   -1    0    0    0    0 -0.00000000000E+00 -0.00000000000E+00 -0.10000000000E+04  0.10000000000E+04  0.00000000000E+00 0.  1.
    9000005    2    1    2  501    0 -0.39682474962E+02  0.12261559215E+02 -0.94398627006E+03  0.99976166998E+03  0.32663171008E+03 0.  0.
         13    1    3    3    0    0 -0.76943495032E+02  0.13607806202E+03 -0.25775616375E+03  0.30145610019E+03  0.00000000000E+00 0.  1.
          1    1    3    3  501    0  0.37261020070E+02 -0.12381650280E+03 -0.68623010632E+03  0.69830556979E+03  0.00000000000E+00 0.  1.
         21    1    1    2  502  501  0.39682474962E+02 -0.12261559215E+02 -0.12792861249E+02  0.43459198709E+02  0.00000000000E+00 0.  1.
<mgrwt>
<rscale>  1 0.30000000E+03</rscale>
<asrwt>0</asrwt>
<pdfrwt beam="1">  1        1 0.15716713E+00 0.30000000E+03</pdfrwt>
<pdfrwt beam="2">0</pdfrwt>
<totfact> 0.16531607E+01</totfact>
</mgrwt>
</event>
<event>
 6    1  0.1839160E-004  0.3000000E+03  0.7818608E-02  0.1093470E+00
          1   -1    0    0  502    0  0.00000000000E+00  0.00000000000E+00  0.31596505039E+02  0.31596505039E+02  0.00000000000E+00 0.  1.
         13   -1    0    0    0    0 -0.00000000000E+00 -0.00000000000E+00 -0.10000000000E+04  0.10000000000E+04  0.00000000000E+00 0.  1.
    9000005    2    1    2  501    0  0.23379676413E+02  0.24595577351E+02 -0.96748046852E+03  0.99764943341E+03  0.24111072832E+03 0.  0.
         13    1    3    3    0    0  0.78442184899E+02 -0.40134348530E+02 -0.13737194538E+03  0.16320230905E+03  0.00000000000E+00 0.  1.
          3    1    3    3  501    0 -0.55062508486E+02  0.64729925880E+02 -0.83010852315E+03  0.83444712436E+03  0.00000000000E+00 0.  1.
         21    1    1    2  502  501 -0.23379676413E+02 -0.24595577351E+02 -0.92302643654E+00  0.33947071629E+02  0.00000000000E+00 0.  1.
<mgrwt>
<rscale>  1 0.30000000E+03</rscale>
<asrwt>0</asrwt>
<pdfrwt beam="1">  1        1 0.11489662E+00 0.30000000E+03</pdfrwt>
<pdfrwt beam="2">0</pdfrwt>
<totfact> 0.27804462E+01</totfact>
</mgrwt>
</event>
<event>
 6    1  0.1839160E-004  0.3000000E+03  0.7818608E-02  0.1093470E+00
          1   -1    0    0  502    0  0.00000000000E+00  0.00000000000E+00  0.59185597101E+02  0.59185597101E+02  0.00000000000E+00 0.  1.
         13   -1    0    0    0    0 -0.00000000000E+00 -0.00000000000E+00 -0.10000000000E+04  0.10000000000E+04  0.00000000000E+00 0.  1.
    9000005    2    1    2  501    0 -0.25485274880E+02  0.63744554294E+02 -0.92028990937E+03  0.98753280740E+03  0.35153187758E+03 0.  0.
         13    1    3    3    0    0  0.20216502750E+02 -0.12335500180E+03 -0.15897363888E+03  0.20223199874E+03  0.00000000000E+00 0.  1.
          3    1    3    3  501    0 -0.45701777629E+02  0.18709955610E+03 -0.76131627049E+03  0.78530080866E+03  0.00000000000E+00 0.  1.
         21    1    1    2  502  501  0.25485274880E+02 -0.63744554294E+02 -0.20524493528E+02  0.71652789704E+02  0.00000000000E+00 0.  1.
<mgrwt>
<rscale>  1 0.30000000E+03</rscale>
<asrwt>0</asrwt>
<pdfrwt beam="1">  1        1 0.21522081E+00 0.30000000E+03</pdfrwt>
<pdfrwt beam="2">0</pdfrwt>
<totfact> 0.86801796E+00</totfact>
</mgrwt>
</event>
<event>
 6    1  0.1839160E-004  0.3000000E+03  0.7818608E-02  0.1093470E+00
          3   -1    0    0  502    0  0.00000000000E+00  0.00000000000E+00  0.27536704464E+02  0.27536704464E+02  0.00000000000E+00 0.  1.
         13   -1    0    0    0    0 -0.00000000000E+00 -0.00000000000E+00 -0.10000000000E+04  0.10000000000E+04  0.00000000000E+00 0.  1.
    9000005    2    1    2  501    0  0.93134226087E+01  0.76763802749E+00 -0.95276913640E+03  0.10057378739E+04  0.32195079540E+03 0.  0.
         13    1    3    3    0    0 -0.59530376143E+02 -0.41476147242E+02 -0.91269025726E+03  0.91556957254E+03  0.00000000000E+00 0.  1.
          3    1    3    3  501    0  0.68843798751E+02  0.42243785269E+02 -0.40078879140E+02  0.90168301379E+02  0.00000000000E+00 0.  1.
         21    1    1    2  502  501 -0.93134226087E+01 -0.76763802749E+00 -0.19694159139E+02  0.21798830542E+02  0.00000000000E+00 0.  1.
<mgrwt>
<rscale>  1 0.30000000E+03</rscale>
<asrwt>0</asrwt>
<pdfrwt beam="1">  1        3 0.10013368E+00 0.30000000E+03</pdfrwt>
<pdfrwt beam="2">0</pdfrwt>
<totfact> 0.39033414E+00</totfact>
</mgrwt>
</event>
<event>
 6    1  0.1839160E-004  0.3000000E+03  0.7818608E-02  0.1093470E+00
          1   -1    0    0  502    0  0.00000000000E+00  0.00000000000E+00  0.33109992832E+02  0.33109992832E+02  0.00000000000E+00 0.  1.
         13   -1    0    0    0    0 -0.00000000000E+00 -0.00000000000E+00 -0.10000000000E+04  0.10000000000E+04  0.00000000000E+00 0.  1.
    9000005    2    1    2  501    0 -0.15644510027E+02 -0.17156299295E+02 -0.95276993089E+03  0.10059352646E+04  0.32186352090E+03 0.  0.
         13    1    3    3    0    0  0.75168540151E+02 -0.71333888372E+01 -0.89425907024E+03  0.89744107293E+03  0.00000000000E+00 0.  1.
          3    1    3    3  501    0 -0.90813050178E+02 -0.10022910458E+02 -0.58510860653E+02  0.10849419169E+03  0.00000000000E+00 0.  1.
         21    1    1    2  502  501  0.15644510027E+02  0.17156299295E+02 -0.14120076273E+02  0.27174728213E+02  0.00000000000E+00 0.  1.
<mgrwt>
<rscale>  1 0.30000000E+03</rscale>
<asrwt>0</asrwt>
<pdfrwt beam="1">  1        1 0.12040023E+00 0.30000000E+03</pdfrwt>
<pdfrwt beam="2">0</pdfrwt>
<totfact> 0.25861036E+01</totfact>
</mgrwt>
</event>
<event>
 6    1  0.1839160E-004  0.3000000E+03  0.7818608E-02  0.1093470E+00
          1   -1    0    0  502    0  0.00000000000E+00  0.00000000000E+00  0.27622220052E+02  0.27622220052E+02  0.00000000000E+00 0.  1.
         13   -1    0    0    0    0 -0.00000000000E+00 -0.00000000000E+00 -0.10000000000E+04  0.10000000000E+04  0.00000000000E+00 0.  1.
    9000005    2    1    2  501    0 -0.26577811849E+01  0.74206689401E+01 -0.95111519729E+03  0.10049456341E+04  0.32439710062E+03 0.  0.
         13    1    3    3    0    0 -0.76353442223E+02 -0.76378287364E+02 -0.84190672870E+03  0.84880529614E+03  0.00000000000E+00 0.  1.
          1    1    3    3  501    0  0.73695661038E+02  0.83798956305E+02 -0.10920846859E+03  0.15614033799E+03  0.00000000000E+00 0.  1.
         21    1    1    2  502  501  0.26577811849E+01 -0.74206689401E+01 -0.21262582654E+02  0.22676585931E+02  0.00000000000E+00 0. -1.
<mgrwt>
<rscale>  1 0.30000000E+03</rscale>
<asrwt>0</asrwt>
<pdfrwt beam="1">  1        1 0.10044465E+00 0.30000000E+03</pdfrwt>
<pdfrwt beam="2">0</pdfrwt>
<totfact> 0.34005492E+01</totfact>
</mgrwt>
</event>
<event>
 6    1  0.1839160E-004  0.3000000E+03  0.7818608E-02  0.1093470E+00
          1   -1    0    0  502    0  0.00000000000E+00  0.00000000000E+00  0.42033884675E+02  0.42033884675E+02  0.00000000000E+00 0.  1.
         13   -1    0    0    0    0 -0.00000000000E+00 -0.00000000000E+00 -0.10000000000E+04  0.10000000000E+04  0.00000000000E+00 0.  1.
    9000005    2    1    2  501    0 -0.50744443135E+01  0.94111431124E+01 -0.96961126014E+03  0.10262247418E+04  0.33597158414E+03 0.  0.
         13    1    3    3    0    0 -0.56952297989E+02 -0.16326295446E+01 -0.18444587864E+01  0.57005541430E+02  0.00000000000E+00 0.  1.
          3    1    3    3  501    0  0.51877853676E+02  0.11043772657E+02 -0.96776680135E+03  0.96921920040E+03  0.00000000000E+00 0.  1.
         21    1    1    2  502  501  0.50744443135E+01 -0.94111431124E+01  0.11645144816E+02  0.15809142847E+02  0.00000000000E+00 0.  1.
<mgrwt>
<rscale>  1 0.30000000E+03</rscale>
<asrwt>0</asrwt>
<pdfrwt beam="1">  1        1 0.15285081E+00 0.30000000E+03</pdfrwt>
<pdfrwt beam="2">0</pdfrwt>
<totfact> 0.17377438E+01</totfact>
</mgrwt>
</event>
<event>
 6    1  0.1839160E-004  0.3000000E+03  0.7818608E-02  0.1093470E+00
          1   -1    0    0  502    0  0.00000000000E+00  0.00000000000E+00  0.33176236013E+02  0.33176236013E+02  0.00000000000E+00 0.  1.
         13   -1    0    0    0    0 -0.00000000000E+00 -0.00000000000E+00 -0.10000000000E+04  0.10000000000E+04  0.00000000000E+00 0.  1.
    9000005    2    1    2  501    0  0.62527186086E+01 -0.99645434321E+01 -0.96790981901E+03  0.10213623403E+04  0.32587301805E+03 0.  0.
         13    1    3    3    0    0  0.39775419675E+02  0.14329106873E+03 -0.65073690416E+03  0.66751249639E+03  0.00000000000E+00 0.  1.
          3    1    3    3  501    0 -0.33522701066E+02 -0.15325561217E+03 -0.31717291484E+03  0.35384984394E+03  0.00000000000E+00 0.  1.
         21    1    1    2  502  501 -0.62527186086E+01  0.99645434321E+01  0.10860550194E+01  0.11813895687E+02  0.00000000000E+00 0. -1.
<mgrwt>
<rscale>  1 0.30000000E+03</rscale>
<asrwt>0</asrwt>
<pdfrwt beam="1">  1        1 0.12064111E+00 0.30000000E+03</pdfrwt>
<pdfrwt beam="2">0</pdfrwt>
<totfact> 0.25780243E+01</totfact>
</mgrwt>
</event>
<event>
 6    1  0.1839160E-004  0.3000000E+03  0.7818608E-02  0.1093470E+00
          1   -1    0    0  502    0  0.00000000000E+00  0.00000000000E+00  0.41322789697E+02  0.41322789697E+02  0.00000000000E+00 0.  1.
         13   -1    0    0    0    0 -0.00000000000E+00 -0.00000000000E+00 -0.10000000000E+04  0.10000000000E+04  0.00000000000E+00 0.  1.
    9000005    2    1    2  501    0 -0.19372293895E+02  0.47198555762E+01 -0.96649671429E+03  0.10199053330E+04  0.32510525498E+03 0.  0.
         13    1    3    3    0    0 -0.67040547046E+02 -0.14849987655E+03 -0.42611368672E+03  0.45620118620E+03  0.00000000000E+00 0.  1.
          1    1    3    3  501    0  0.47668253151E+02  0.15321973213E+03 -0.54038302757E+03  0.56370414683E+03  0.00000000000E+00 0.  1.
         21    1    1    2  502  501  0.19372293895E+02 -0.47198555762E+01  0.78195039818E+01  0.21417456664E+02  0.00000000000E+00 0.  1.
<mgrwt>
<rscale>  1 0.30000000E+03</rscale>
<asrwt>0</asrwt>
<pdfrwt beam="1">  1        1 0.15026501E+00 0.30000000E+03</pdfrwt>
<pdfrwt beam="2">0</pdfrwt>
<totfact> 0.17909321E+01</totfact>
</mgrwt>
</event>
<event>
 6    1  0.1839160E-004  0.3000000E+03  0.7818608E-02  0.1093470E+00
          1   -1    0    0  502    0  0.00000000000E+00  0.00000000000E+00  0.34932804271E+02  0.34932804271E+02  0.00000000000E+00 0.  1.
         13   -1    0    0    0    0 -0.00000000000E+00 -0.00000000000E+00 -0.10000000000E+04  0.10000000000E+04  0.00000000000E+00 0.  1.
    9000005    2    1    2  501    0  0.39968864065E+02 -0.11834771703E+01 -0.90798051433E+03  0.96523488532E+03  0.32503978022E+03 0.  0.
         13    1    3    3    0    0  0.15822478870E+03 -0.45668980975E+02 -0.28143682363E+03  0.32607886359E+03  0.00000000000E+00 0.  1.
          1    1    3    3  501    0 -0.11825592464E+03  0.44485503804E+02 -0.62654369071E+03  0.63915602174E+03  0.00000000000E+00 0.  1.
         21    1    1    2  502  501 -0.39968864065E+02  0.11834771703E+01 -0.57086681395E+02  0.69697918947E+02  0.00000000000E+00 0.  1.
<mgrwt>
<rscale>  1 0.30000000E+03</rscale>
<asrwt>0</asrwt>
<pdfrwt beam="1">  1        1 0.12702865E+00 0.30000000E+03</pdfrwt>
<pdfrwt beam="2">0</pdfrwt>
<totfact> 0.23753058E+01</totfact>
</mgrwt>
</event>
<event>
 6    1  0.1839160E-004  0.3000000E+03  0.7818608E-02  0.1093470E+00
          1   -1    0    0  502    0  0.00000000000E+00  0.00000000000E+00  0.44618222431E+02  0.44618222431E+02  0.00000000000E+00 0.  1.
         13   -1    0    0    0    0 -0.00000000000E+00 -0.00000000000E+00 -0.10000000000E+04  0.10000000000E+04  0.00000000000E+00 0.  1.
    9000005    2    1    2  501    0 -0.81222174197E+02 -0.17950219822E+02 -0.78171941832E+03  0.85206208258E+03  0.32864158535E+03 0.  0.
         13    1    3    3    0    0  0.28972147220E+02 -0.15779715573E+03 -0.39427015648E+03  0.42566217117E+03  0.00000000000E+00 0.  1.
          3    1    3    3  501    0 -0.11019432142E+03  0.13984693591E+03 -0.38744926184E+03  0.42639991142E+03  0.00000000000E+00 0.  1.
         21    1    1    2  502  501  0.81222174197E+02  0.17950219822E+02 -0.17366235925E+03  0.19255613985E+03  0.00000000000E+00 0. -1.
<mgrwt>
<rscale>  1 0.30000000E+03</rscale>
<asrwt>0</asrwt>
<pdfrwt beam="1">  1        1 0.16224842E+00 0.30000000E+03</pdfrwt>
<pdfrwt beam="2">0</pdfrwt>
<totfact> 0.15597537E+01</totfact>
</mgrwt>
</event>
<event>
 6    1  0.1839160E-004  0.3000000E+03  0.7818608E-02  0.1093470E+00
          1   -1    0    0  502    0  0.00000000000E+00  0.00000000000E+00  0.41721295802E+02  0.41721295802E+02  0.00000000000E+00 0.  1.
         13   -1    0    0    0    0 -0.00000000000E+00 -0.00000000000E+00 -0.10000000000E+04  0.10000000000E+04  0.00000000000E+00 0.  1.
    9000005    2    1    2  501    0 -0.15885242165E+02 -0.22887618045E+02 -0.95820703478E+03  0.10138611250E+04  0.33011736607E+03 0.  0.
         13    1    3    3    0    0  0.50408540617E+02 -0.47228158635E+02 -0.18508751569E+02  0.71512892682E+02  0.00000000000E+00 0.  1.
          1    1    3    3  501    0 -0.66293782782E+02  0.24340540589E+02 -0.93969828321E+03  0.94234823236E+03  0.00000000000E+00 0.  1.
         21    1    1    2  502  501  0.15885242165E+02  0.22887618045E+02 -0.71669415389E-01  0.27860170762E+02  0.00000000000E+00 0. -1.
<mgrwt>
<rscale>  1 0.30000000E+03</rscale>
<asrwt>0</asrwt>
<pdfrwt beam="1">  1        1 0.15171412E+00 0.30000000E+03</pdfrwt>
<pdfrwt beam="2">0</pdfrwt>
<totfact> 0.17608828E+01</totfact>
</mgrwt>
</event>
<event>
 6    1  0.1839160E-004  0.3000000E+03  0.7818608E-02  0.1093470E+00
          1   -1    0    0  502    0  0.00000000000E+00  0.00000000000E+00  0.36588125804E+02  0.36588125804E+02  0.00000000000E+00 0.  1.
         13   -1    0    0    0    0 -0.00000000000E+00 -0.00000000000E+00 -0.10000000000E+04  0.10000000000E+04  0.00000000000E+00 0.  1.
    9000005    2    1    2  501    0  0.27297373679E+02 -0.10100493307E+02 -0.95381466606E+03  0.10059405651E+04  0.31828734926E+03 0.  0.
         13    1    3    3    0    0 -0.42303278813E+02  0.14065054262E+03 -0.55115375328E+03  0.57038811549E+03  0.00000000000E+00 0.  1.
          3    1    3    3  501    0  0.69600652492E+02 -0.15075103592E+03 -0.40266091278E+03  0.43555244958E+03  0.00000000000E+00 0.  1.
         21    1    1    2  502  501 -0.27297373679E+02  0.10100493307E+02 -0.95972081397E+01  0.30647560733E+02  0.00000000000E+00 0.  1.
<mgrwt>
<rscale>  1 0.30000000E+03</rscale>
<asrwt>0</asrwt>
<pdfrwt beam="1">  1        1 0.13304801E+00 0.30000000E+03</pdfrwt>
<pdfrwt beam="2">0</pdfrwt>
<totfact> 0.22026844E+01</totfact>
</mgrwt>
</event>
<event>
 6    1  0.1839160E-004  0.3000000E+03  0.7818608E-02  0.1093470E+00
          1   -1    0    0  502    0  0.00000000000E+00  0.00000000000E+00  0.28629723095E+02  0.28629723095E+02  0.00000000000E+00 0.  1.
         13   -1    0    0    0    0 -0.00000000000E+00 -0.00000000000E+00 -0.10000000000E+04  0.10000000000E+04  0.00000000000E+00 0.  1.
    9000005    2    1    2  501    0  0.13284299091E+02 -0.14595296332E+01 -0.96953426647E+03  0.10151399580E+04  0.30055588091E+03 0.  0.
         13    1    3    3    0    0  0.12128408105E+02  0.12395717724E+03 -0.20115777697E+03  0.23659444480E+03  0.00000000000E+00 0.  1.
          1    1    3    3  501    0  0.11558909861E+01 -0.12541670687E+03 -0.76837648950E+03  0.77854551316E+03  0.00000000000E+00 0.  1.
         21    1    1    2  502  501 -0.13284299091E+02  0.14595296332E+01 -0.18360104314E+01  0.13489765135E+02  0.00000000000E+00 0.  1.
<mgrwt>
<rscale>  1 0.30000000E+03</rscale>
<asrwt>0</asrwt>
<pdfrwt beam="1">  1        1 0.10410830E+00 0.30000000E+03</pdfrwt>
<pdfrwt beam="2">0</pdfrwt>
<totfact> 0.32258184E+01</totfact>
</mgrwt>
</event>
<event>
 6    1  0.1839160E-004  0.3000000E+03  0.7818608E-02  0.1093470E+00
          1   -1    0    0  502    0  0.00000000000E+00  0.00000000000E+00  0.28810294666E+02  0.28810294666E+02  0.00000000000E+00 0.  1.
         13   -1    0    0    0    0 -0.00000000000E+00 -0.00000000000E+00 -0.10000000000E+04  0.10000000000E+04  0.00000000000E+00 0.  1.
    9000005    2    1    2  501    0  0.15860828679E+02 -0.48127528645E+01 -0.95594640479E+03  0.10062917093E+04  0.31387058934E+03 0.  0.
         13    1    3    3    0    0  0.55560319817E+02 -0.48201263195E+02 -0.94326689455E+03  0.94613040605E+03  0.00000000000E+00 0.  1.
          1    1    3    3  501    0 -0.39699491138E+02  0.43388510330E+02 -0.12679510240E+02  0.60161303221E+02  0.00000000000E+00 0.  1.
         21    1    1    2  502  501 -0.15860828679E+02  0.48127528645E+01 -0.15243300548E+02  0.22518585393E+02  0.00000000000E+00 0.  1.
<mgrwt>
<rscale>  1 0.30000000E+03</rscale>
<asrwt>0</asrwt>
<pdfrwt beam="1">  1        1 0.10476493E+00 0.30000000E+03</pdfrwt>
<pdfrwt beam="2">0</pdfrwt>
<totfact> 0.31958895E+01</totfact>
</mgrwt>
</event>
<event>
 6    1  0.1839160E-004  0.3000000E+03  0.7818608E-02  0.1093470E+00
          1   -1    0    0  502    0  0.00000000000E+00  0.00000000000E+00  0.46431953167E+02  0.46431953167E+02  0.00000000000E+00 0.  1.
         13   -1    0    0    0    0 -0.00000000000E+00 -0.00000000000E+00 -0.10000000000E+04  0.10000000000E+04  0.00000000000E+00 0.  1.
    9000005    2    1    2  501    0 -0.68561141211E+01 -0.23434258765E+02 -0.95466211075E+03  0.10219908452E+04  0.36399089426E+03 0.  0.
         13    1    3    3    0    0  0.14602331864E+03 -0.10629271976E+03 -0.60646344268E+03  0.63278658264E+03  0.00000000000E+00 0.  1.
          1    1    3    3  501    0 -0.15287943276E+03  0.82858460995E+02 -0.34819866807E+03  0.38920426252E+03  0.00000000000E+00 0.  1.
         21    1    1    2  502  501  0.68561141211E+01  0.23434258765E+02  0.10940639168E+01  0.24441108006E+02  0.00000000000E+00 0.  1.
<mgrwt>
<rscale>  1 0.30000000E+03</rscale>
<asrwt>0</asrwt>
<pdfrwt beam="1">  1        1 0.16884382E+00 0.30000000E+03</pdfrwt>
<pdfrwt beam="2">0</pdfrwt>
<totfact> 0.14474458E+01</totfact>
</mgrwt>
</event>
<event>
 6    1  0.1839160E-004  0.3000000E+03  0.7818608E-02  0.1093470E+00
          1   -1    0    0  502    0  0.00000000000E+00  0.00000000000E+00  0.32551725742E+02  0.32551725742E+02  0.00000000000E+00 0.  1.
         13   -1    0    0    0    0 -0.00000000000E+00 -0.00000000000E+00 -0.10000000000E+04  0.10000000000E+04  0.00000000000E+00 0.  1.
    9000005    2    1    2  501    0 -0.17854421292E+02 -0.72713413877E+01 -0.92259777183E+03  0.98373348803E+03  0.34084200757E+03 0.  0.
         13    1    3    3    0    0 -0.93063641300E+02 -0.68318201025E+02 -0.92312696690E+02  0.14781695401E+03  0.00000000000E+00 0.  1.
          3    1    3    3  501    0  0.75209220008E+02  0.61046859637E+02 -0.83028507514E+03  0.83591653402E+03  0.00000000000E+00 0.  1.
         21    1    1    2  502  501  0.17854421292E+02  0.72713413877E+01 -0.44850502428E+02  0.48818237712E+02  0.00000000000E+00 0. -1.
<mgrwt>
<rscale>  1 0.30000000E+03</rscale>
<asrwt>0</asrwt>
<pdfrwt beam="1">  1        1 0.11837016E+00 0.30000000E+03</pdfrwt>
<pdfrwt beam="2">0</pdfrwt>
<totfact> 0.26555616E+01</totfact>
</mgrwt>
</event>
<event>
 6    1  0.1839160E-004  0.3000000E+03  0.7818608E-02  0.1093470E+00
          1   -1    0    0  502    0  0.00000000000E+00  0.00000000000E+00  0.32144501445E+02  0.32144501445E+02  0.00000000000E+00 0.  1.
         13   -1    0    0    0    0 -0.00000000000E+00 -0.00000000000E+00 -0.10000000000E+04  0.10000000000E+04  0.00000000000E+00 0.  1.
    9000005    2    1    2  501    0 -0.54899902240E+01  0.15212857504E+02 -0.86442328168E+03  0.92745546422E+03  0.33568505655E+03 0.  0.
         13    1    3    3    0    0  0.14241343003E+03  0.86090805112E+02 -0.51993889009E+03  0.54592092945E+03  0.00000000000E+00 0.  1.
          1    1    3    3  501    0 -0.14790342026E+03 -0.70877947609E+02 -0.34448439158E+03  0.38153453477E+03  0.00000000000E+00 0.  1.
         21    1    1    2  502  501  0.54899902240E+01 -0.15212857504E+02 -0.10343221688E+03  0.10468903722E+03  0.00000000000E+00 0.  1.
<mgrwt>
<rscale>  1 0.30000000E+03</rscale>
<asrwt>0</asrwt>
<pdfrwt beam="1">  1        1 0.11688934E+00 0.30000000E+03</pdfrwt>
<pdfrwt beam="2">0</pdfrwt>
<totfact> 0.27078343E+01</totfact>
</mgrwt>
</event>
<event>
 6    1  0.1839160E-004  0.3000000E+03  0.7818608E-02  0.1093470E+00
          1   -1    0    0  502    0  0.00000000000E+00  0.00000000000E+00  0.42255905969E+02  0.42255905969E+02  0.00000000000E+00 0.  1.
         13   -1    0    0    0    0 -0.00000000000E+00 -0.00000000000E+00 -0.10000000000E+04  0.10000000000E+04  0.00000000000E+00 0.  1.
    9000005    2    1    2  501    0  0.11664841644E+02 -0.19476928620E+02 -0.96568348838E+03  0.10182048507E+04  0.32199549515E+03 0.  0.
         13    1    3    3    0    0  0.78657931113E+02 -0.52027549571E+02 -0.65212348092E+02  0.11465856438E+03  0.00000000000E+00 0.  1.
          3    1    3    3  501    0 -0.66993089468E+02  0.32550620951E+02 -0.90047114029E+03  0.90354628628E+03  0.00000000000E+00 0.  1.
         21    1    1    2  502  501 -0.11664841644E+02  0.19476928620E+02  0.79393943475E+01  0.24051055313E+02  0.00000000000E+00 0.  1.
<mgrwt>
<rscale>  1 0.30000000E+03</rscale>
<asrwt>0</asrwt>
<pdfrwt beam="1">  1        1 0.15365816E+00 0.30000000E+03</pdfrwt>
<pdfrwt beam="2">0</pdfrwt>
<totfact> 0.17215335E+01</totfact>
</mgrwt>
</event>
<event>
 6    1  0.1839160E-004  0.3000000E+03  0.7818608E-02  0.1093470E+00
          1   -1    0    0  502    0  0.00000000000E+00  0.00000000000E+00  0.38629130812E+02  0.38629130812E+02  0.00000000000E+00 0.  1.
         13   -1    0    0    0    0 -0.00000000000E+00 -0.00000000000E+00 -0.10000000000E+04  0.10000000000E+04  0.00000000000E+00 0.  1.
    9000005    2    1    2  501    0 -0.95487680091E+01 -0.99863006971E+01 -0.97378874736E+03  0.10200520247E+04  0.30339858851E+03 0.  0.
         13    1    3    3    0    0  0.51582493507E+02  0.95780888573E+02 -0.13968511522E+03  0.17704989033E+03  0.00000000000E+00 0.  1.
          3    1    3    3  501    0 -0.61131261516E+02 -0.10576718927E+03 -0.83410363214E+03  0.84300213440E+03  0.00000000000E+00 0.  1.
         21    1    1    2  502  501  0.95487680091E+01  0.99863006971E+01  0.12417878168E+02  0.18577106080E+02  0.00000000000E+00 0.  1.
<mgrwt>
<rscale>  1 0.30000000E+03</rscale>
<asrwt>0</asrwt>
<pdfrwt beam="1">  1        1 0.14046986E+00 0.30000000E+03</pdfrwt>
<pdfrwt beam="2">0</pdfrwt>
<totfact> 0.20117866E+01</totfact>
</mgrwt>
</event>
<event>
 6    1  0.1839160E-004  0.3000000E+03  0.7818608E-02  0.1093470E+00
          1   -1    0    0  502    0  0.00000000000E+00  0.00000000000E+00  0.35204620734E+02  0.35204620734E+02  0.00000000000E+00 0.  1.
         13   -1    0    0    0    0 -0.00000000000E+00 -0.00000000000E+00 -0.10000000000E+04  0.10000000000E+04  0.00000000000E+00 0.  1.
    9000005    2    1    2  501    0 -0.34908407698E+02  0.11020173364E+02 -0.92553758026E+03  0.98152766169E+03  0.32471017392E+03 0.  0.
         13    1    3    3    0    0 -0.15378134057E+03 -0.50971722666E+02 -0.29173240579E+03  0.33369838748E+03  0.00000000000E+00 0.  1.
          1    1    3    3  501    0  0.11887293287E+03  0.61991896030E+02 -0.63380517447E+03  0.64782927421E+03  0.00000000000E+00 0.  1.
         21    1    1    2  502  501  0.34908407698E+02 -0.11020173364E+02 -0.39257799008E+02  0.53676959041E+02  0.00000000000E+00 0. -1.
<mgrwt>
<rscale>  1 0.30000000E+03</rscale>
<asrwt>0</asrwt>
<pdfrwt beam="1">  1        1 0.12801707E+00 0.30000000E+03</pdfrwt>
<pdfrwt beam="2">0</pdfrwt>
<totfact> 0.23457864E+01</totfact>
</mgrwt>
</event>
<event>
 6    1  0.1839160E-004  0.3000000E+03  0.7818608E-02  0.1093470E+00
          1   -1    0    0  502    0  0.00000000000E+00  0.00000000000E+00  0.28170800721E+02  0.28170800721E+02  0.00000000000E+00 0.  1.
         13   -1    0    0    0    0 -0.00000000000E+00 -0.00000000000E+00 -0.10000000000E+04  0.10000000000E+04  0.00000000000E+00 0.  1.
    9000005    2    1    2  501    0  0.43679288388E+01  0.12920608807E+02 -0.93881005331E+03  0.99244567043E+03  0.32155570530E+03 0.  0.
         13    1    3    3    0    0 -0.11152761566E+03 -0.81583307233E+02 -0.67681267515E+03  0.69077466826E+03  0.00000000000E+00 0.  1.
          1    1    3    3  501    0  0.11589554449E+03  0.94503916040E+02 -0.26199737817E+03  0.30167100217E+03  0.00000000000E+00 0.  1.
         21    1    1    2  502  501 -0.43679288388E+01 -0.12920608807E+02 -0.33019145964E+02  0.35725130294E+02  0.00000000000E+00 0.  1.
<mgrwt>
<rscale>  1 0.30000000E+03</rscale>
<asrwt>0</asrwt>
<pdfrwt beam="1">  1        1 0.10243949E+00 0.30000000E+03</pdfrwt>
<pdfrwt beam="2">0</pdfrwt>
<totfact> 0.33037412E+01</totfact>
</mgrwt>
</event>
<event>
 6    1  0.1839160E-004  0.3000000E+03  0.7818608E-02  0.1093470E+00
          1   -1    0    0  502    0  0.00000000000E+00  0.00000000000E+00  0.27713100604E+02  0.27713100604E+02  0.00000000000E+00 0.  1.
         13   -1    0    0    0    0 -0.00000000000E+00 -0.00000000000E+00 -0.10000000000E+04  0.10000000000E+04  0.00000000000E+00 0.  1.
    9000005    2    1    2  501    0  0.78582032694E+01 -0.63530285147E+01 -0.95981811171E+03  0.10116637082E+04  0.31954739650E+03 0.  0.
         13    1    3    3    0    0  0.14327418790E+03  0.69237846843E+02 -0.39249993142E+03  0.42352989094E+03  0.00000000000E+00 0.  1.
          1    1    3    3  501    0 -0.13541598463E+03 -0.75590875357E+02 -0.56731818029E+03  0.58813381727E+03  0.00000000000E+00 0.  1.
         21    1    1    2  502  501 -0.78582032694E+01  0.63530285147E+01 -0.12468787687E+02  0.16049392397E+02  0.00000000000E+00 0.  1.
<mgrwt>
<rscale>  1 0.30000000E+03</rscale>
<asrwt>0</asrwt>
<pdfrwt beam="1">  1        1 0.10077512E+00 0.30000000E+03</pdfrwt>
<pdfrwt beam="2">0</pdfrwt>
<totfact> 0.33842261E+01</totfact>
</mgrwt>
</event>
<event>
 6    1  0.1839160E-004  0.3000000E+03  0.7818608E-02  0.1093470E+00
          1   -1    0    0  502    0  0.00000000000E+00  0.00000000000E+00  0.39183956067E+02  0.39183956067E+02  0.00000000000E+00 0.  1.
         13   -1    0    0    0    0 -0.00000000000E+00 -0.00000000000E+00 -0.10000000000E+04  0.10000000000E+04  0.00000000000E+00 0.  1.
    9000005    2    1    2  501    0 -0.43894376152E+02  0.38999802726E+02 -0.89956142820E+03  0.95433215103E+03  0.31319545096E+03 0.  0.
         13    1    3    3    0    0  0.14057461514E+02 -0.12043918398E+03 -0.57992939804E+03  0.59247051908E+03  0.00000000000E+00 0.  1.
          3    1    3    3  501    0 -0.57951837665E+02  0.15943898671E+03 -0.31963203016E+03  0.36186163195E+03  0.00000000000E+00 0.  1.
         21    1    1    2  502  501  0.43894376152E+02 -0.38999802726E+02 -0.61254615731E+02  0.84851805041E+02  0.00000000000E+00 0.  1.
<mgrwt>
<rscale>  1 0.30000000E+03</rscale>
<asrwt>0</asrwt>
<pdfrwt beam="1">  1        1 0.14248741E+00 0.30000000E+03</pdfrwt>
<pdfrwt beam="2">0</pdfrwt>
<totfact> 0.19636023E+01</totfact>
</mgrwt>
</event>
<event>
 6    1  0.1839160E-004  0.3000000E+03  0.7818608E-02  0.1093470E+00
          1   -1    0    0  502    0  0.00000000000E+00  0.00000000000E+00  0.37789754868E+02  0.37789754868E+02  0.00000000000E+00 0.  1.
         13   -1    0    0    0    0 -0.00000000000E+00 -0.00000000000E+00 -0.10000000000E+04  0.10000000000E+04  0.00000000000E+00 0.  1.
    9000005    2    1    2  501    0 -0.38316029087E+02 -0.79856808512E+01 -0.93638781528E+03  0.99089959527E+03  0.32175763878E+03 0.  0.
         13    1    3    3    0    0 -0.74506037065E+02 -0.14587498278E+03 -0.65863795925E+03  0.67870068625E+03  0.00000000000E+00 0.  1.
          1    1    3    3  501    0  0.36190007978E+02  0.13788930193E+03 -0.27774985604E+03  0.31219890902E+03  0.00000000000E+00 0.  1.
         21    1    1    2  502  501  0.38316029087E+02  0.79856808512E+01 -0.25822429849E+02  0.46890159596E+02  0.00000000000E+00 0.  1.
<mgrwt>
<rscale>  1 0.30000000E+03</rscale>
<asrwt>0</asrwt>
<pdfrwt beam="1">  1        1 0.13741758E+00 0.30000000E+03</pdfrwt>
<pdfrwt beam="2">0</pdfrwt>
<totfact> 0.20875836E+01</totfact>
</mgrwt>
</event>
<event>
 6    1  0.1839160E-004  0.3000000E+03  0.7818608E-02  0.1093470E+00
          1   -1    0    0  502    0  0.00000000000E+00  0.00000000000E+00  0.38143441345E+02  0.38143441345E+02  0.00000000000E+00 0.  1.
         13   -1    0    0    0    0 -0.00000000000E+00 -0.00000000000E+00 -0.10000000000E+04  0.10000000000E+04  0.00000000000E+00 0.  1.
    9000005    2    1    2  501    0  0.11059138693E+02 -0.43808468639E+01 -0.97051422588E+03  0.10234311482E+04  0.32461046825E+03 0.  0.
         13    1    3    3    0    0 -0.76646600441E+01 -0.84368411516E+02 -0.48204755372E+02  0.97470376606E+02  0.00000000000E+00 0.  1.
          1    1    3    3  501    0  0.18723798737E+02  0.79987564652E+02 -0.92230947051E+03  0.92596077159E+03  0.00000000000E+00 0.  1.
         21    1    1    2  502  501 -0.11059138693E+02  0.43808468639E+01  0.86576672245E+01  0.14712293147E+02  0.00000000000E+00 0. -1.
<mgrwt>
<rscale>  1 0.30000000E+03</rscale>
<asrwt>0</asrwt>
<pdfrwt beam="1">  1        1 0.13870372E+00 0.30000000E+03</pdfrwt>
<pdfrwt beam="2">0</pdfrwt>
<totfact> 0.20552080E+01</totfact>
</mgrwt>
</event>
<event>
 6    1  0.1839160E-004  0.3000000E+03  0.7818608E-02  0.1093470E+00
          1   -1    0    0  502    0  0.00000000000E+00  0.00000000000E+00  0.40217429484E+02  0.40217429484E+02  0.00000000000E+00 0.  1.
         13   -1    0    0    0    0 -0.00000000000E+00 -0.00000000000E+00 -0.10000000000E+04  0.10000000000E+04  0.00000000000E+00 0.  1.
    9000005    2    1    2  501    0 -0.28598429126E+02  0.42128805361E+02 -0.91100304768E+03  0.96970396809E+03  0.32833904193E+03 0.  0.
         13    1    3    3    0    0  0.10534910518E+02 -0.10181718953E+03 -0.72055898412E+03  0.72779322203E+03  0.00000000000E+00 0.  1.
          3    1    3    3  501    0 -0.39133339644E+02  0.14394599489E+03 -0.19044406356E+03  0.24191074607E+03  0.00000000000E+00 0.  1.
         21    1    1    2  502  501  0.28598429126E+02 -0.42128805361E+02 -0.48779522834E+02  0.70513461393E+02  0.00000000000E+00 0. -1.
<mgrwt>
<rscale>  1 0.30000000E+03</rscale>
<asrwt>0</asrwt>
<pdfrwt beam="1">  1        1 0.14624551E+00 0.30000000E+03</pdfrwt>
<pdfrwt beam="2">0</pdfrwt>
<totfact> 0.18776769E+01</totfact>
</mgrwt>
</event>
<event>
 6    1  0.1839160E-004  0.3000000E+03  0.7818608E-02  0.1093470E+00
          1   -1    0    0  502    0  0.00000000000E+00  0.00000000000E+00  0.33650121100E+02  0.33650121100E+02  0.00000000000E+00 0.  1.
         13   -1    0    0    0    0 -0.00000000000E+00 -0.00000000000E+00 -0.10000000000E+04  0.10000000000E+04  0.00000000000E+00 0.  1.
    9000005    2    1    2  501    0  0.10981259524E+02 -0.18025596757E+02 -0.95785509873E+03  0.10108977259E+04  0.32246288434E+03 0.  0.
         13    1    3    3    0    0  0.10677240855E+03 -0.10776685675E+03 -0.26182958471E+03  0.30260332793E+03  0.00000000000E+00 0.  1.
          1    1    3    3  501    0 -0.95791149024E+02  0.89741259993E+02 -0.69602551402E+03  0.70829439793E+03  0.00000000000E+00 0.  1.
         21    1    1    2  502  501 -0.10981259524E+02  0.18025596757E+02 -0.84947801704E+01  0.22752395244E+02  0.00000000000E+00 0. -1.
<mgrwt>
<rscale>  1 0.30000000E+03</rscale>
<asrwt>0</asrwt>
<pdfrwt beam="1">  1        1 0.12236433E+00 0.30000000E+03</pdfrwt>
<pdfrwt beam="2">0</pdfrwt>
<totfact> 0.25211927E+01</totfact>
</mgrwt>
</event>
<event>
 6    1  0.1839160E-004  0.3000000E+03  0.7818608E-02  0.1093470E+00
          1   -1    0    0  502    0  0.00000000000E+00  0.00000000000E+00  0.35120051078E+02  0.35120051078E+02  0.00000000000E+00 0.  1.
         13   -1    0    0    0    0 -0.00000000000E+00 -0.00000000000E+00 -0.10000000000E+04  0.10000000000E+04  0.00000000000E+00 0.  1.
    9000005    2    1    2  501    0 -0.26387185218E+02 -0.32999217682E+02 -0.88792306091E+03  0.94732714406E+03  0.32746927162E+03 0.  0.
         13    1    3    3    0    0  0.45354889318E+02 -0.49518331294E+02 -0.11875956194E+02  0.68192150976E+02  0.00000000000E+00 0.  1.
          1    1    3    3  501    0 -0.71742074536E+02  0.16519113612E+02 -0.87604710472E+03  0.87913499308E+03  0.00000000000E+00 0.  1.
         21    1    1    2  502  501  0.26387185218E+02  0.32999217682E+02 -0.76956888010E+02  0.87792907023E+02  0.00000000000E+00 0. -1.
<mgrwt>
<rscale>  1 0.30000000E+03</rscale>
<asrwt>0</asrwt>
<pdfrwt beam="1">  1        1 0.12770955E+00 0.30000000E+03</pdfrwt>
<pdfrwt beam="2">0</pdfrwt>
<totfact> 0.23549199E+01</totfact>
</mgrwt>
</event>
<event>
 6    1  0.1839160E-004  0.3000000E+03  0.7818608E-02  0.1093470E+00
          1   -1    0    0  502    0  0.00000000000E+00  0.00000000000E+00  0.94978889098E+02  0.94978889098E+02  0.00000000000E+00 0.  1.
         13   -1    0    0    0    0 -0.00000000000E+00 -0.00000000000E+00 -0.10000000000E+04  0.10000000000E+04  0.00000000000E+00 0.  1.
    9000005    2    1    2  501    0  0.16023338139E+02 -0.19349542820E+01 -0.97357666852E+03  0.10245490950E+04  0.31873002244E+03 0.  0.
         13    1    3    3    0    0 -0.13567639661E+03 -0.11572041310E+02 -0.68482404976E+03  0.69823060365E+03  0.00000000000E+00 0.  1.
          3    1    3    3  501    0  0.15169973475E+03  0.96370870284E+01 -0.28875261876E+03  0.32631849137E+03  0.00000000000E+00 0.  1.
         21    1    1    2  502  501 -0.16023338139E+02  0.19349542820E+01  0.68555557620E+02  0.70429794077E+02  0.00000000000E+00 0.  1.
<mgrwt>
<rscale>  1 0.30000000E+03</rscale>
<asrwt>0</asrwt>
<pdfrwt beam="1">  1        1 0.34537851E+00 0.30000000E+03</pdfrwt>
<pdfrwt beam="2">0</pdfrwt>
<totfact> 0.20789850E+00</totfact>
</mgrwt>
</event>
<event>
 6    1  0.1839160E-004  0.3000000E+03  0.7818608E-02  0.1093470E+00
          1   -1    0    0  502    0  0.00000000000E+00  0.00000000000E+00  0.33459991086E+02  0.33459991086E+02  0.00000000000E+00 0.  1.
         13   -1    0    0    0    0 -0.00000000000E+00 -0.00000000000E+00 -0.10000000000E+04  0.10000000000E+04  0.00000000000E+00 0.  1.
    9000005    2    1    2  501    0  0.25942338199E+02 -0.24952750567E+01 -0.94779802873E+03  0.10013586962E+04  0.32205419418E+03 0.  0.
         13    1    3    3    0    0 -0.12102210393E+03  0.83074043278E+02 -0.34264428104E+03  0.37276366459E+03  0.00000000000E+00 0.  1.
          3    1    3    3  501    0  0.14696444213E+03 -0.85569318335E+02 -0.60515374768E+03  0.62859503166E+03  0.00000000000E+00 0.  1.
         21    1    1    2  502  501 -0.25942338199E+02  0.24952750567E+01 -0.18741980187E+02  0.32101294837E+02  0.00000000000E+00 0.  1.
<mgrwt>
<rscale>  1 0.30000000E+03</rscale>
<asrwt>0</asrwt>
<pdfrwt beam="1">  1        1 0.12167295E+00 0.30000000E+03</pdfrwt>
<pdfrwt beam="2">0</pdfrwt>
<totfact> 0.25437937E+01</totfact>
</mgrwt>
</event>
<event>
 6    1  0.1839160E-004  0.3000000E+03  0.7818608E-02  0.1093470E+00
          1   -1    0    0  502    0  0.00000000000E+00  0.00000000000E+00  0.56341115341E+02  0.56341115341E+02  0.00000000000E+00 0.  1.
         13   -1    0    0    0    0 -0.00000000000E+00 -0.00000000000E+00 -0.10000000000E+04  0.10000000000E+04  0.00000000000E+00 0.  1.
    9000005    2    1    2  501    0  0.29586411750E+02  0.20762594196E+02 -0.95952577724E+03  0.10168670814E+04  0.33469762908E+03 0.  0.
         13    1    3    3    0    0 -0.13964826519E+02  0.16762857720E+03 -0.34907141069E+03  0.38748574946E+03  0.00000000000E+00 0.  1.
          1    1    3    3  501    0  0.43551238269E+02 -0.14686598301E+03 -0.61045436655E+03  0.62938133191E+03  0.00000000000E+00 0.  1.
         21    1    1    2  502  501 -0.29586411750E+02 -0.20762594196E+02  0.15866892577E+02  0.39474033972E+02  0.00000000000E+00 0. -1.
<mgrwt>
<rscale>  1 0.30000000E+03</rscale>
<asrwt>0</asrwt>
<pdfrwt beam="1">  1        1 0.20487722E+00 0.30000000E+03</pdfrwt>
<pdfrwt beam="2">0</pdfrwt>
<totfact> 0.97117635E+00</totfact>
</mgrwt>
</event>
<event>
 6    1  0.1839160E-004  0.3000000E+03  0.7818608E-02  0.1093470E+00
          1   -1    0    0  502    0  0.00000000000E+00  0.00000000000E+00  0.44604520313E+02  0.44604520313E+02  0.00000000000E+00 0.  1.
         13   -1    0    0    0    0 -0.00000000000E+00 -0.00000000000E+00 -0.10000000000E+04  0.10000000000E+04  0.00000000000E+00 0.  1.
    9000005    2    1    2  501    0  0.27807518330E+02  0.13486942155E+02 -0.96179204602E+03  0.10130439160E+04  0.31663682706E+03 0.  0.
         13    1    3    3    0    0  0.15253327770E+03  0.72866183960E+02 -0.65717553861E+03  0.67856876595E+03  0.00000000000E+00 0.  1.
          1    1    3    3  501    0 -0.12472575937E+03 -0.59379241805E+02 -0.30461650741E+03  0.33447515004E+03  0.00000000000E+00 0.  1.
         21    1    1    2  502  501 -0.27807518330E+02 -0.13486942155E+02  0.63965663329E+01  0.31560604323E+02  0.00000000000E+00 0.  1.
<mgrwt>
<rscale>  1 0.30000000E+03</rscale>
<asrwt>0</asrwt>
<pdfrwt beam="1">  1        1 0.16219860E+00 0.30000000E+03</pdfrwt>
<pdfrwt beam="2">0</pdfrwt>
<totfact> 0.15606393E+01</totfact>
</mgrwt>
</event>
<event>
 6    1  0.1839160E-004  0.3000000E+03  0.7818608E-02  0.1093470E+00
          1   -1    0    0  502    0  0.00000000000E+00  0.00000000000E+00  0.48620505649E+02  0.48620505649E+02  0.00000000000E+00 0.  1.
         13   -1    0    0    0    0 -0.00000000000E+00 -0.00000000000E+00 -0.10000000000E+04  0.10000000000E+04  0.00000000000E+00 0.  1.
    9000005    2    1    2  501    0 -0.13209070828E+02 -0.35806072922E+02 -0.95503634039E+03  0.10102808795E+04  0.32728655581E+03 0.  0.
         13    1    3    3    0    0  0.30646624232E+02  0.85726144785E+02 -0.67357522827E+02  0.11324850267E+03  0.00000000000E+00 0.  1.
          3    1    3    3  501    0 -0.43855695061E+02 -0.12153221771E+03 -0.88767881756E+03  0.89703237683E+03  0.00000000000E+00 0.  1.
         21    1    1    2  502  501  0.13209070828E+02  0.35806072922E+02  0.36568460366E+01  0.38339626149E+02  0.00000000000E+00 0.  1.
<mgrwt>
<rscale>  1 0.30000000E+03</rscale>
<asrwt>0</asrwt>
<pdfrwt beam="1">  1        1 0.17680221E+00 0.30000000E+03</pdfrwt>
<pdfrwt beam="2">0</pdfrwt>
<totfact> 0.13238366E+01</totfact>
</mgrwt>
</event>
<event>
 6    1  0.1839160E-004  0.3000000E+03  0.7818608E-02  0.1093470E+00
          1   -1    0    0  502    0  0.00000000000E+00  0.00000000000E+00  0.29780763643E+02  0.29780763643E+02  0.00000000000E+00 0.  1.
         13   -1    0    0    0    0 -0.00000000000E+00 -0.00000000000E+00 -0.10000000000E+04  0.10000000000E+04  0.00000000000E+00 0.  1.
    9000005    2    1    2  501    0  0.18073900938E+02 -0.90344090569E+01 -0.92706498647E+03  0.98213020514E+03  0.32360773210E+03 0.  0.
         13    1    3    3    0    0  0.11313860353E+02 -0.11502966194E+03 -0.11464974980E+03  0.16280169438E+03  0.00000000000E+00 0.  1.
          1    1    3    3  501    0  0.67600405852E+01  0.10599525288E+03 -0.81241523666E+03  0.81932851076E+03  0.00000000000E+00 0.  1.
         21    1    1    2  502  501 -0.18073900938E+02  0.90344090569E+01 -0.43154249892E+02  0.47650558505E+02  0.00000000000E+00 0. -1.
<mgrwt>
<rscale>  1 0.30000000E+03</rscale>
<asrwt>0</asrwt>
<pdfrwt beam="1">  1        1 0.10829391E+00 0.30000000E+03</pdfrwt>
<pdfrwt beam="2">0</pdfrwt>
<totfact> 0.30417043E+01</totfact>
</mgrwt>
</event>
<event>
 6    1  0.1839160E-004  0.3000000E+03  0.7818608E-02  0.1093470E+00
          1   -1    0    0  502    0  0.00000000000E+00  0.00000000000E+00  0.45125323654E+02  0.45125323654E+02  0.00000000000E+00 0.  1.
         13   -1    0    0    0    0 -0.00000000000E+00 -0.00000000000E+00 -0.10000000000E+04  0.10000000000E+04  0.00000000000E+00 0.  1.
    9000005    2    1    2  501    0  0.24274074555E+01 -0.18586879316E+02 -0.97049032847E+03  0.10207283365E+04  0.31572693100E+03 0.  0.
         13    1    3    3    0    0 -0.14757936128E+02 -0.11954973403E+03 -0.86628680507E+03  0.87462149769E+03  0.00000000000E+00 0.  1.
          1    1    3    3  501    0  0.17185343583E+02  0.10096285472E+03 -0.10420352340E+03  0.14610683884E+03  0.00000000000E+00 0.  1.
         21    1    1    2  502  501 -0.24274074555E+01  0.18586879316E+02  0.15615652120E+02  0.24396987125E+02  0.00000000000E+00 0. -1.
<mgrwt>
<rscale>  1 0.30000000E+03</rscale>
<asrwt>0</asrwt>
<pdfrwt beam="1">  1        1 0.16409243E+00 0.30000000E+03</pdfrwt>
<pdfrwt beam="2">0</pdfrwt>
<totfact> 0.15273804E+01</totfact>
</mgrwt>
</event>
<event>
 6    1  0.1839160E-004  0.3000000E+03  0.7818608E-02  0.1093470E+00
          1   -1    0    0  502    0  0.00000000000E+00  0.00000000000E+00  0.27633525851E+02  0.27633525851E+02  0.00000000000E+00 0.  1.
         13   -1    0    0    0    0 -0.00000000000E+00 -0.00000000000E+00 -0.10000000000E+04  0.10000000000E+04  0.00000000000E+00 0.  1.
    9000005    2    1    2  501    0  0.54554455989E-01  0.85539163377E+01 -0.95620964116E+03  0.10093519583E+04  0.32308098885E+03 0.  0.
         13    1    3    3    0    0 -0.21001906318E+02 -0.15569365386E+03 -0.43755344814E+03  0.46490280048E+03  0.00000000000E+00 0.  1.
          1    1    3    3  501    0  0.21056460774E+02  0.16424757020E+03 -0.51865619303E+03  0.54444915779E+03  0.00000000000E+00 0.  1.
         21    1    1    2  502  501 -0.54554455989E-01 -0.85539163377E+01 -0.16156832988E+02  0.18281567578E+02  0.00000000000E+00 0. -1.
<mgrwt>
<rscale>  1 0.30000000E+03</rscale>
<asrwt>0</asrwt>
<pdfrwt beam="1">  1        1 0.10048576E+00 0.30000000E+03</pdfrwt>
<pdfrwt beam="2">0</pdfrwt>
<totfact> 0.33985122E+01</totfact>
</mgrwt>
</event>
<event>
 6    1  0.1839160E-004  0.3000000E+03  0.7818608E-02  0.1093470E+00
          1   -1    0    0  502    0  0.00000000000E+00  0.00000000000E+00  0.98598154085E+01  0.98598154085E+01  0.00000000000E+00 0.  1.
         13   -1    0    0    0    0 -0.00000000000E+00 -0.00000000000E+00 -0.10000000000E+04  0.10000000000E+04  0.00000000000E+00 0.  1.
    9000005    2    1    2  501    0  0.40241631307E+02 -0.26594784990E+02 -0.79586420508E+03  0.80968532229E+03  0.14093905325E+03 0.  0.
         13    1    3    3    0    0 -0.33978604115E+01 -0.77575269296E+01 -0.72072285528E+03  0.72077261241E+03  0.00000000000E+00 0.  1.
          1    1    3    3  501    0  0.43639491718E+02 -0.18837258060E+02 -0.75141349798E+02  0.88912709879E+02  0.00000000000E+00 0.  1.
         21    1    1    2  502  501 -0.40241631307E+02  0.26594784990E+02 -0.19427597951E+03  0.20017449312E+03  0.00000000000E+00 0.  1.
<mgrwt>
<rscale>  1 0.30000000E+03</rscale>
<asrwt>0</asrwt>
<pdfrwt beam="1">  1        1 0.35853950E-01 0.30000000E+03</pdfrwt>
<pdfrwt beam="2">0</pdfrwt>
<totfact> 0.13635940E+02</totfact>
</mgrwt>
</event>
<event>
 6    1  0.1839160E-004  0.3000000E+03  0.7818608E-02  0.1093470E+00
          1   -1    0    0  502    0  0.00000000000E+00  0.00000000000E+00  0.51813266161E+02  0.51813266161E+02  0.00000000000E+00 0.  1.
         13   -1    0    0    0    0 -0.00000000000E+00 -0.00000000000E+00 -0.10000000000E+04  0.10000000000E+04  0.00000000000E+00 0.  1.
    9000005    2    1    2  501    0 -0.58440003644E+02  0.74218876293E+02 -0.87845524882E+03  0.93439880527E+03  0.30412797879E+03 0.  0.
         13    1    3    3    0    0 -0.43716016009E+02  0.39701979769E+01 -0.85888156760E+03  0.86000255796E+03  0.00000000000E+00 0.  1.
          1    1    3    3  501    0 -0.14723987635E+02  0.70248678316E+02 -0.19573681214E+02  0.74396247307E+02  0.00000000000E+00 0.  1.
         21    1    1    2  502  501  0.58440003644E+02 -0.74218876293E+02 -0.69731485022E+02  0.11741446090E+03  0.00000000000E+00 0. -1.
<mgrwt>
<rscale>  1 0.30000000E+03</rscale>
<asrwt>0</asrwt>
<pdfrwt beam="1">  1        1 0.18841227E+00 0.30000000E+03</pdfrwt>
<pdfrwt beam="2">0</pdfrwt>
<totfact> 0.11636476E+01</totfact>
</mgrwt>
</event>
<event>
 6    1  0.1839160E-004  0.3000000E+03  0.7818608E-02  0.1093470E+00
          1   -1    0    0  502    0  0.00000000000E+00  0.00000000000E+00  0.41615045671E+02  0.41615045671E+02  0.00000000000E+00 0.  1.
         13   -1    0    0    0    0 -0.00000000000E+00 -0.00000000000E+00 -0.10000000000E+04  0.10000000000E+04  0.00000000000E+00 0.  1.
    9000005    2    1    2  501    0 -0.55955647399E+02 -0.34040026892E+01 -0.91740456935E+03  0.97217432517E+03  0.31677934427E+03 0.  0.
         13    1    3    3    0    0 -0.27608142171E+01  0.11029242670E+03 -0.77302268188E+03  0.78085600989E+03  0.00000000000E+00 0.  1.
          3    1    3    3  501    0 -0.53194833182E+02 -0.11369642939E+03 -0.14438188747E+03  0.19131831528E+03  0.00000000000E+00 0.  1.
         21    1    1    2  502  501  0.55955647399E+02  0.34040026892E+01 -0.40980384984E+02  0.69440720500E+02  0.00000000000E+00 0.  1.
<mgrwt>
<rscale>  1 0.30000000E+03</rscale>
<asrwt>0</asrwt>
<pdfrwt beam="1">  1        1 0.15132776E+00 0.30000000E+03</pdfrwt>
<pdfrwt beam="2">0</pdfrwt>
<totfact> 0.17688336E+01</totfact>
</mgrwt>
</event>
<event>
 6    1  0.1839160E-004  0.3000000E+03  0.7818608E-02  0.1093470E+00
          1   -1    0    0  502    0  0.00000000000E+00  0.00000000000E+00  0.51729745705E+02  0.51729745705E+02  0.00000000000E+00 0.  1.
         13   -1    0    0    0    0 -0.00000000000E+00 -0.00000000000E+00 -0.10000000000E+04  0.10000000000E+04  0.00000000000E+00 0.  1.
    9000005    2    1    2  501    0 -0.72376567126E+01 -0.20951176187E+02 -0.96378183268E+03  0.10246752725E+04  0.34726453539E+03 0.  0.
         13    1    3    3    0    0 -0.14192568751E+03 -0.61496266803E+02 -0.76908289111E+03  0.78448274997E+03  0.00000000000E+00 0.  1.
          1    1    3    3  501    0  0.13468803080E+03  0.40545090616E+02 -0.19469894157E+03  0.24019252249E+03  0.00000000000E+00 0.  1.
         21    1    1    2  502  501  0.72376567126E+01  0.20951176187E+02  0.15511578384E+02  0.27054473240E+02  0.00000000000E+00 0.  1.
<mgrwt>
<rscale>  1 0.30000000E+03</rscale>
<asrwt>0</asrwt>
<pdfrwt beam="1">  1        1 0.18810856E+00 0.30000000E+03</pdfrwt>
<pdfrwt beam="2">0</pdfrwt>
<totfact> 0.11675637E+01</totfact>
</mgrwt>
</event>
<event>
 6    1  0.1839160E-004  0.3000000E+03  0.7818608E-02  0.1093470E+00
          1   -1    0    0  502    0  0.00000000000E+00  0.00000000000E+00  0.23748919163E+02  0.23748919163E+02  0.00000000000E+00 0.  1.
         13   -1    0    0    0    0 -0.00000000000E+00 -0.00000000000E+00 -0.10000000000E+04  0.10000000000E+04  0.00000000000E+00 0.  1.
    9000005    2    1    2  501    0 -0.72036713526E+01 -0.94152798626E+01 -0.97963726388E+03  0.10114198230E+04  0.25127743484E+03 0.  0.
         13    1    3    3    0    0 -0.35431990221E+02 -0.44135319001E+01 -0.98200525022E+03  0.98265416941E+03  0.00000000000E+00 0.  1.
          3    1    3    3  501    0  0.28228318868E+02 -0.50017479625E+01  0.23679863422E+01  0.28765653619E+02  0.00000000000E+00 0.  1.
         21    1    1    2  502  501  0.72036713526E+01  0.94152798626E+01  0.33861830436E+01  0.12329096133E+02  0.00000000000E+00 0.  1.
<mgrwt>
<rscale>  1 0.30000000E+03</rscale>
<asrwt>0</asrwt>
<pdfrwt beam="1">  1        1 0.86359888E-01 0.30000000E+03</pdfrwt>
<pdfrwt beam="2">0</pdfrwt>
<totfact> 0.42219814E+01</totfact>
</mgrwt>
</event>
<event>
 6    1  0.1839160E-004  0.3000000E+03  0.7818608E-02  0.1093470E+00
          1   -1    0    0  502    0  0.00000000000E+00  0.00000000000E+00  0.34594320016E+02  0.34594320016E+02  0.00000000000E+00 0.  1.
         13   -1    0    0    0    0 -0.00000000000E+00 -0.00000000000E+00 -0.10000000000E+04  0.10000000000E+04  0.00000000000E+00 0.  1.
    9000005    2    1    2  501    0 -0.25193437096E+01 -0.38555266112E+02 -0.91845844038E+03  0.97379219058E+03  0.32126697323E+03 0.  0.
         13    1    3    3    0    0  0.10576522145E+03 -0.44012644406E+02 -0.81800459296E+03  0.82598723297E+03  0.00000000000E+00 0.  1.
          1    1    3    3  501    0 -0.10828456516E+03  0.54573782944E+01 -0.10045384743E+03  0.14780495761E+03  0.00000000000E+00 0.  1.
         21    1    1    2  502  501  0.25193437096E+01  0.38555266112E+02 -0.46947239602E+02  0.60802129436E+02  0.00000000000E+00 0.  1.
<mgrwt>
<rscale>  1 0.30000000E+03</rscale>
<asrwt>0</asrwt>
<pdfrwt beam="1">  1        1 0.12579779E+00 0.30000000E+03</pdfrwt>
<pdfrwt beam="2">0</pdfrwt>
<totfact> 0.24127335E+01</totfact>
</mgrwt>
</event>
<event>
 6    1  0.1839160E-004  0.3000000E+03  0.7818608E-02  0.1093470E+00
          1   -1    0    0  502    0  0.00000000000E+00  0.00000000000E+00  0.47068966536E+02  0.47068966536E+02  0.00000000000E+00 0.  1.
         13   -1    0    0    0    0 -0.00000000000E+00 -0.00000000000E+00 -0.10000000000E+04  0.10000000000E+04  0.00000000000E+00 0.  1.
    9000005    2    1    2  501    0  0.34598542852E+02 -0.11991486141E+02 -0.90583151199E+03  0.98740976917E+03  0.39128821760E+03 0.  0.
         13    1    3    3    0    0  0.13778780355E+03  0.49512561801E+02 -0.11147365914E+03  0.18401996974E+03  0.00000000000E+00 0.  1.
          1    1    3    3  501    0 -0.10318926070E+03 -0.61504047942E+02 -0.79435785285E+03  0.80338979942E+03  0.00000000000E+00 0.  1.
         21    1    1    2  502  501 -0.34598542852E+02  0.11991486141E+02 -0.47099521476E+02  0.59659197368E+02  0.00000000000E+00 0.  1.
<mgrwt>
<rscale>  1 0.30000000E+03</rscale>
<asrwt>0</asrwt>
<pdfrwt beam="1">  1        1 0.17116024E+00 0.30000000E+03</pdfrwt>
<pdfrwt beam="2">0</pdfrwt>
<totfact> 0.14102004E+01</totfact>
</mgrwt>
</event>
<event>
 6    1  0.1839160E-004  0.3000000E+03  0.7818608E-02  0.1093470E+00
          1   -1    0    0  502    0  0.00000000000E+00  0.00000000000E+00  0.29213890210E+02  0.29213890210E+02  0.00000000000E+00 0.  1.
         13   -1    0    0    0    0 -0.00000000000E+00 -0.00000000000E+00 -0.10000000000E+04  0.10000000000E+04  0.00000000000E+00 0.  1.
    9000005    2    1    2  501    0 -0.60651149407E+01  0.87144316559E+01 -0.94000698778E+03  0.99665500064E+03  0.33105184834E+03 0.  0.
         13    1    3    3    0    0  0.95828801885E+02  0.17029227834E+02 -0.68132727805E+02  0.11880750174E+03  0.00000000000E+00 0.  1.
          1    1    3    3  501    0 -0.10189391683E+03 -0.83147961784E+01 -0.87187425997E+03  0.87784749890E+03  0.00000000000E+00 0.  1.
         21    1    1    2  502  501  0.60651149407E+01 -0.87144316559E+01 -0.30779122014E+02  0.32558889574E+02  0.00000000000E+00 0.  1.
<mgrwt>
<rscale>  1 0.30000000E+03</rscale>
<asrwt>0</asrwt>
<pdfrwt beam="1">  1        1 0.10623255E+00 0.30000000E+03</pdfrwt>
<pdfrwt beam="2">0</pdfrwt>
<totfact> 0.31304313E+01</totfact>
</mgrwt>
</event>
<event>
 6    1  0.1839160E-004  0.3000000E+03  0.7818608E-02  0.1093470E+00
          1   -1    0    0  502    0  0.00000000000E+00  0.00000000000E+00  0.29896367923E+02  0.29896367923E+02  0.00000000000E+00 0.  1.
         13   -1    0    0    0    0 -0.00000000000E+00 -0.00000000000E+00 -0.10000000000E+04  0.10000000000E+04  0.00000000000E+00 0.  1.
    9000005    2    1    2  501    0 -0.36913338649E+01 -0.16638545552E+02 -0.94583351747E+03  0.10002399081E+04  0.32494363192E+03 0.  0.
         13    1    3    3    0    0  0.13699908332E+03  0.15145980538E+02 -0.71413242949E+03  0.72731236509E+03  0.00000000000E+00 0.  1.
          3    1    3    3  501    0 -0.14069041719E+03 -0.31784526090E+02 -0.23170108798E+03  0.27292754305E+03  0.00000000000E+00 0.  1.
         21    1    1    2  502  501  0.36913338649E+01  0.16638545552E+02 -0.24270114611E+02  0.29656459786E+02  0.00000000000E+00 0.  1.
<mgrwt>
<rscale>  1 0.30000000E+03</rscale>
<asrwt>0</asrwt>
<pdfrwt beam="1">  1        1 0.10871429E+00 0.30000000E+03</pdfrwt>
<pdfrwt beam="2">0</pdfrwt>
<totfact> 0.30240529E+01</totfact>
</mgrwt>
</event>
<event>
 6    1  0.1839160E-004  0.3000000E+03  0.7818608E-02  0.1093470E+00
          1   -1    0    0  502    0  0.00000000000E+00  0.00000000000E+00  0.36387653304E+02  0.36387653304E+02  0.00000000000E+00 0.  1.
         13   -1    0    0    0    0 -0.00000000000E+00 -0.00000000000E+00 -0.10000000000E+04  0.10000000000E+04  0.00000000000E+00 0.  1.
    9000005    2    1    2  501    0 -0.91082469089E+00 -0.11455784770E+02 -0.96762203574E+03  0.10242162847E+04  0.33555108299E+03 0.  0.
         13    1    3    3    0    0 -0.30438722604E+02 -0.16989682474E+03 -0.44473172381E+03  0.47705110109E+03  0.00000000000E+00 0.  1.
          1    1    3    3  501    0  0.29527897913E+02  0.15844103997E+03 -0.52289031192E+03  0.54716518366E+03  0.00000000000E+00 0.  1.
         21    1    1    2  502  501  0.91082469089E+00  0.11455784770E+02  0.40096890396E+01  0.12171368555E+02  0.00000000000E+00 0.  1.
<mgrwt>
<rscale>  1 0.30000000E+03</rscale>
<asrwt>0</asrwt>
<pdfrwt beam="1">  1        1 0.13231902E+00 0.30000000E+03</pdfrwt>
<pdfrwt beam="2">0</pdfrwt>
<totfact> 0.22226995E+01</totfact>
</mgrwt>
</event>
<event>
 6    1  0.1839160E-004  0.3000000E+03  0.7818608E-02  0.1093470E+00
          1   -1    0    0  502    0  0.00000000000E+00  0.00000000000E+00  0.37113398818E+02  0.37113398818E+02  0.00000000000E+00 0.  1.
         13   -1    0    0    0    0 -0.00000000000E+00 -0.00000000000E+00 -0.10000000000E+04  0.10000000000E+04  0.00000000000E+00 0.  1.
    9000005    2    1    2  501    0 -0.13976472955E+02 -0.31617489800E+02 -0.94819794514E+03  0.99955325939E+03  0.31437615643E+03 0.  0.
         13    1    3    3    0    0 -0.12924759019E+03 -0.76726028009E+02 -0.75704406240E+03  0.77182092182E+03  0.00000000000E+00 0.  1.
          1    1    3    3  501    0  0.11527111724E+03  0.45108538209E+02 -0.19115388274E+03  0.22773233757E+03  0.00000000000E+00 0.  1.
         21    1    1    2  502  501  0.13976472955E+02  0.31617489800E+02 -0.14688656040E+02  0.37560139427E+02  0.00000000000E+00 0.  1.
<mgrwt>
<rscale>  1 0.30000000E+03</rscale>
<asrwt>0</asrwt>
<pdfrwt beam="1">  1        1 0.13495810E+00 0.30000000E+03</pdfrwt>
<pdfrwt beam="2">0</pdfrwt>
<totfact> 0.21513590E+01</totfact>
</mgrwt>
</event>
<event>
 6    1  0.1839160E-004  0.3000000E+03  0.7818608E-02  0.1093470E+00
          1   -1    0    0  502    0  0.00000000000E+00  0.00000000000E+00  0.35510425204E+02  0.35510425204E+02  0.00000000000E+00 0.  1.
         13   -1    0    0    0    0 -0.00000000000E+00 -0.00000000000E+00 -0.10000000000E+04  0.10000000000E+04  0.00000000000E+00 0.  1.
    9000005    2    1    2  501    0 -0.30612414015E+02 -0.21762958667E+02 -0.92745282428E+03  0.98276132900E+03  0.32286272972E+03 0.  0.
         13    1    3    3    0    0 -0.92530846985E+02 -0.11814293218E+03 -0.22133476892E+03  0.26741127500E+03  0.00000000000E+00 0.  1.
          3    1    3    3  501    0  0.61918432969E+02  0.96379973514E+02 -0.70611805537E+03  0.71535005400E+03  0.00000000000E+00 0.  1.
         21    1    1    2  502  501  0.30612414015E+02  0.21762958667E+02 -0.37036750512E+02  0.52749096203E+02  0.00000000000E+00 0.  1.
<mgrwt>
<rscale>  1 0.30000000E+03</rscale>
<asrwt>0</asrwt>
<pdfrwt beam="1">  1        1 0.12912909E+00 0.30000000E+03</pdfrwt>
<pdfrwt beam="2">0</pdfrwt>
<totfact> 0.23131380E+01</totfact>
</mgrwt>
</event>
<event>
 6    1  0.1839160E-004  0.3000000E+03  0.7818608E-02  0.1093470E+00
          1   -1    0    0  502    0  0.00000000000E+00  0.00000000000E+00  0.25435864249E+02  0.25435864249E+02  0.00000000000E+00 0.  1.
         13   -1    0    0    0    0 -0.00000000000E+00 -0.00000000000E+00 -0.10000000000E+04  0.10000000000E+04  0.00000000000E+00 0.  1.
    9000005    2    1    2  501    0  0.21950277149E+00  0.21608052536E+02 -0.94295701283E+03  0.98714792444E+03  0.29124927563E+03 0.  0.
         13    1    3    3    0    0  0.10693022220E+03  0.68539547988E+02 -0.21340900066E+03  0.24834480792E+03  0.00000000000E+00 0.  1.
          1    1    3    3  501    0 -0.10671071943E+03 -0.46931495452E+02 -0.72954801217E+03  0.73880311651E+03  0.00000000000E+00 0.  1.
         21    1    1    2  502  501 -0.21950277149E+00 -0.21608052536E+02 -0.31607122917E+02  0.38287939810E+02  0.00000000000E+00 0.  1.
<mgrwt>
<rscale>  1 0.30000000E+03</rscale>
<asrwt>0</asrwt>
<pdfrwt beam="1">  1        1 0.92494247E-01 0.30000000E+03</pdfrwt>
<pdfrwt beam="2">0</pdfrwt>
<totfact> 0.38311980E+01</totfact>
</mgrwt>
</event>
<event>
 6    1  0.1839160E-004  0.3000000E+03  0.7818608E-02  0.1093470E+00
          1   -1    0    0  502    0  0.00000000000E+00  0.00000000000E+00  0.51132076049E+02  0.51132076049E+02  0.00000000000E+00 0.  1.
         13   -1    0    0    0    0 -0.00000000000E+00 -0.00000000000E+00 -0.10000000000E+04  0.10000000000E+04  0.00000000000E+00 0.  1.
    9000005    2    1    2  501    0  0.35271215716E+02 -0.13089957594E+02 -0.96159492497E+03  0.10114158048E+04  0.31125829274E+03 0.  0.
         13    1    3    3    0    0  0.12156780928E+03  0.22661262053E+02 -0.14972600886E+03  0.19419099562E+03  0.00000000000E+00 0.  1.
          1    1    3    3  501    0 -0.86296593568E+02 -0.35751219646E+02 -0.81186891611E+03  0.81722480917E+03  0.00000000000E+00 0.  1.
         21    1    1    2  502  501 -0.35271215716E+02  0.13089957594E+02  0.12727001019E+02  0.39716271261E+02  0.00000000000E+00 0.  1.
<mgrwt>
<rscale>  1 0.30000000E+03</rscale>
<asrwt>0</asrwt>
<pdfrwt beam="1">  1        1 0.18593521E+00 0.30000000E+03</pdfrwt>
<pdfrwt beam="2">0</pdfrwt>
<totfact> 0.11959886E+01</totfact>
</mgrwt>
</event>
<event>
 6    1  0.1839160E-004  0.3000000E+03  0.7818608E-02  0.1093470E+00
          3   -1    0    0  502    0  0.00000000000E+00  0.00000000000E+00  0.31567695526E+02  0.31567695526E+02  0.00000000000E+00 0.  1.
         13   -1    0    0    0    0 -0.00000000000E+00 -0.00000000000E+00 -0.10000000000E+04  0.10000000000E+04  0.00000000000E+00 0.  1.
    9000005    2    1    2  501    0  0.26349883950E+01 -0.22461233907E+02 -0.93364487184E+03  0.99007533886E+03  0.32870196183E+03 0.  0.
         13    1    3    3    0    0  0.15026127973E+03  0.48302733135E+02 -0.35072732822E+03  0.38460533665E+03  0.00000000000E+00 0.  1.
          3    1    3    3  501    0 -0.14762629133E+03 -0.70763967043E+02 -0.58291754362E+03  0.60547000221E+03  0.00000000000E+00 0.  1.
         21    1    1    2  502  501 -0.26349883950E+01  0.22461233907E+02 -0.34787432634E+02  0.41492356667E+02  0.00000000000E+00 0.  1.
<mgrwt>
<rscale>  1 0.30000000E+03</rscale>
<asrwt>0</asrwt>
<pdfrwt beam="1">  1        3 0.11479186E+00 0.30000000E+03</pdfrwt>
<pdfrwt beam="2">0</pdfrwt>
<totfact> 0.26564825E+00</totfact>
</mgrwt>
</event>
<event>
 6    1  0.1839160E-004  0.3000000E+03  0.7818608E-02  0.1093470E+00
          1   -1    0    0  502    0  0.00000000000E+00  0.00000000000E+00  0.29327346106E+02  0.29327346106E+02  0.00000000000E+00 0.  1.
         13   -1    0    0    0    0 -0.00000000000E+00 -0.00000000000E+00 -0.10000000000E+04  0.10000000000E+04  0.00000000000E+00 0.  1.
    9000005    2    1    2  501    0  0.10964546197E+02  0.49072118949E+01 -0.96510860130E+03  0.10160887403E+04  0.31758056286E+03 0.  0.
         13    1    3    3    0    0 -0.12181225597E+03 -0.39670098231E+02 -0.73968792457E+03  0.75069978563E+03  0.00000000000E+00 0.  1.
          1    1    3    3  501    0  0.13277680217E+03  0.44577310126E+02 -0.22542067673E+03  0.26538895469E+03  0.00000000000E+00 0.  1.
         21    1    1    2  502  501 -0.10964546197E+02 -0.49072118949E+01 -0.55640525984E+01  0.13238605788E+02  0.00000000000E+00 0. -1.
<mgrwt>
<rscale>  1 0.30000000E+03</rscale>
<asrwt>0</asrwt>
<pdfrwt beam="1">  1        1 0.10664512E+00 0.30000000E+03</pdfrwt>
<pdfrwt beam="2">0</pdfrwt>
<totfact> 0.31123785E+01</totfact>
</mgrwt>
</event>
<event>
 6    1  0.1839160E-004  0.3000000E+03  0.7818608E-02  0.1093470E+00
          1   -1    0    0  502    0  0.00000000000E+00  0.00000000000E+00  0.37126009675E+02  0.37126009675E+02  0.00000000000E+00 0.  1.
         13   -1    0    0    0    0 -0.00000000000E+00 -0.00000000000E+00 -0.10000000000E+04  0.10000000000E+04  0.00000000000E+00 0.  1.
    9000005    2    1    2  501    0 -0.59503872375E+01  0.12960379980E+02 -0.96837028243E+03  0.10218424308E+04  0.32591037242E+03 0.  0.
         13    1    3    3    0    0  0.15712896951E+03  0.28397466170E+02 -0.54416938904E+03  0.56711220505E+03  0.00000000000E+00 0.  1.
          1    1    3    3  501    0 -0.16307935674E+03 -0.15437086190E+02 -0.42420089339E+03  0.45473022571E+03  0.00000000000E+00 0.  1.
         21    1    1    2  502  501  0.59503872375E+01 -0.12960379980E+02  0.54962921063E+01  0.15283578914E+02  0.00000000000E+00 0. -1.
<mgrwt>
<rscale>  1 0.30000000E+03</rscale>
<asrwt>0</asrwt>
<pdfrwt beam="1">  1        1 0.13500396E+00 0.30000000E+03</pdfrwt>
<pdfrwt beam="2">0</pdfrwt>
<totfact> 0.21501464E+01</totfact>
</mgrwt>
</event>
<event>
 6    1  0.1839160E-004  0.3000000E+03  0.7818608E-02  0.1093470E+00
          1   -1    0    0  502    0  0.00000000000E+00  0.00000000000E+00  0.29890020162E+02  0.29890020162E+02  0.00000000000E+00 0.  1.
         13   -1    0    0    0    0 -0.00000000000E+00 -0.00000000000E+00 -0.10000000000E+04  0.10000000000E+04  0.00000000000E+00 0.  1.
    9000005    2    1    2  501    0  0.11829582375E+02  0.14801016366E+01 -0.96131988744E+03  0.10150780168E+04  0.32573812247E+03 0.  0.
         13    1    3    3    0    0 -0.10345133795E+03 -0.11328710542E+03 -0.59134229714E+03  0.61091886529E+03  0.00000000000E+00 0.  1.
          1    1    3    3  501    0  0.11528092033E+03  0.11476720705E+03 -0.36997759030E+03  0.40415915148E+03  0.00000000000E+00 0.  1.
         21    1    1    2  502  501 -0.11829582375E+02 -0.14801016366E+01 -0.87900923976E+01  0.14812003388E+02  0.00000000000E+00 0.  1.
<mgrwt>
<rscale>  1 0.30000000E+03</rscale>
<asrwt>0</asrwt>
<pdfrwt beam="1">  1        1 0.10869121E+00 0.30000000E+03</pdfrwt>
<pdfrwt beam="2">0</pdfrwt>
<totfact> 0.30250183E+01</totfact>
</mgrwt>
</event>
<event>
 6    1  0.1839160E-004  0.3000000E+03  0.7818608E-02  0.1093470E+00
          1   -1    0    0  502    0  0.00000000000E+00  0.00000000000E+00  0.28460740291E+02  0.28460740291E+02  0.00000000000E+00 0.  1.
         13   -1    0    0    0    0 -0.00000000000E+00 -0.00000000000E+00 -0.10000000000E+04  0.10000000000E+04  0.00000000000E+00 0.  1.
    9000005    2    1    2  501    0  0.56128501556E+01 -0.86688891756E+01 -0.93285790625E+03  0.98842449632E+03  0.32657687905E+03 0.  0.
         13    1    3    3    0    0 -0.14551074433E+03  0.30213401699E+02 -0.63508537373E+03  0.65224202432E+03  0.00000000000E+00 0.  1.
          3    1    3    3  501    0  0.15112359449E+03 -0.38882290875E+02 -0.29777253253E+03  0.33618247200E+03  0.00000000000E+00 0.  1.
         21    1    1    2  502  501 -0.56128501556E+01  0.86688891756E+01 -0.38681353454E+02  0.40036243973E+02  0.00000000000E+00 0. -1.
<mgrwt>
<rscale>  1 0.30000000E+03</rscale>
<asrwt>0</asrwt>
<pdfrwt beam="1">  1        1 0.10349382E+00 0.30000000E+03</pdfrwt>
<pdfrwt beam="2">0</pdfrwt>
<totfact> 0.32541965E+01</totfact>
</mgrwt>
</event>
<event>
 6    1  0.1839160E-004  0.3000000E+03  0.7818608E-02  0.1093470E+00
          1   -1    0    0  502    0  0.00000000000E+00  0.00000000000E+00  0.30611322523E+02  0.30611322523E+02  0.00000000000E+00 0.  1.
         13   -1    0    0    0    0 -0.00000000000E+00 -0.00000000000E+00 -0.10000000000E+04  0.10000000000E+04  0.00000000000E+00 0.  1.
    9000005    2    1    2  501    0  0.10578583384E+02  0.10164926851E+02 -0.95539443486E+03  0.10103364368E+04  0.32830771727E+03 0.  0.
         13    1    3    3    0    0 -0.61885218260E+02  0.98647392381E+02 -0.83940665186E+03  0.84744593659E+03  0.00000000000E+00 0.  1.
          1    1    3    3  501    0  0.72463801644E+02 -0.88482465531E+02 -0.11598778300E+03  0.16289050021E+03  0.00000000000E+00 0.  1.
         21    1    1    2  502  501 -0.10578583384E+02 -0.10164926851E+02 -0.13994242618E+02  0.20274885714E+02  0.00000000000E+00 0.  1.
<mgrwt>
<rscale>  1 0.30000000E+03</rscale>
<asrwt>0</asrwt>
<pdfrwt beam="1">  1        1 0.11131413E+00 0.30000000E+03</pdfrwt>
<pdfrwt beam="2">0</pdfrwt>
<totfact> 0.29180587E+01</totfact>
</mgrwt>
</event>
<event>
 6    1  0.1839160E-004  0.3000000E+03  0.7818608E-02  0.1093470E+00
          1   -1    0    0  502    0  0.00000000000E+00  0.00000000000E+00  0.26525746295E+02  0.26525746295E+02  0.00000000000E+00 0.  1.
         13   -1    0    0    0    0 -0.00000000000E+00 -0.00000000000E+00 -0.10000000000E+04  0.10000000000E+04  0.00000000000E+00 0.  1.
    9000005    2    1    2  501    0  0.15107270320E+02 -0.26082738945E+01 -0.94674035598E+03  0.99570799172E+03  0.30802933372E+03 0.  0.
         13    1    3    3    0    0 -0.14025157026E+02 -0.14448069154E+03 -0.64331240478E+03  0.65948633451E+03  0.00000000000E+00 0.  1.
          3    1    3    3  501    0  0.29132427347E+02  0.14187241765E+03 -0.30342795120E+03  0.33622165722E+03  0.00000000000E+00 0.  1.
         21    1    1    2  502  501 -0.15107270320E+02  0.26082738945E+01 -0.26733897725E+02  0.30817754571E+02  0.00000000000E+00 0. -1.
<mgrwt>
<rscale>  1 0.30000000E+03</rscale>
<asrwt>0</asrwt>
<pdfrwt beam="1">  1        1 0.96457463E-01 0.30000000E+03</pdfrwt>
<pdfrwt beam="2">0</pdfrwt>
<totfact> 0.36069913E+01</totfact>
</mgrwt>
</event>
<event>
 6    1  0.1839160E-004  0.3000000E+03  0.7818608E-02  0.1093470E+00
          1   -1    0    0  502    0  0.00000000000E+00  0.00000000000E+00  0.46879296460E+02  0.46879296460E+02  0.00000000000E+00 0.  1.
         13   -1    0    0    0    0 -0.00000000000E+00 -0.00000000000E+00 -0.10000000000E+04  0.10000000000E+04  0.00000000000E+00 0.  1.
    9000005    2    1    2  501    0  0.89091391897E+01 -0.31933628132E+02 -0.95969283502E+03  0.10130810379E+04  0.32283699055E+03 0.  0.
         13    1    3    3    0    0 -0.41521589091E+02 -0.15788585448E+03 -0.32090792442E+03  0.36004705437E+03  0.00000000000E+00 0.  1.
          3    1    3    3  501    0  0.50430728280E+02  0.12595222635E+03 -0.63878491061E+03  0.65303398357E+03  0.00000000000E+00 0.  1.
         21    1    1    2  502  501 -0.89091391897E+01  0.31933628132E+02  0.65721314838E+01  0.33798258520E+02  0.00000000000E+00 0.  1.
<mgrwt>
<rscale>  1 0.30000000E+03</rscale>
<asrwt>0</asrwt>
<pdfrwt beam="1">  1        1 0.17047053E+00 0.30000000E+03</pdfrwt>
<pdfrwt beam="2">0</pdfrwt>
<totfact> 0.14211764E+01</totfact>
</mgrwt>
</event>
<event>
 6    1  0.1839160E-004  0.3000000E+03  0.7818608E-02  0.1093470E+00
          1   -1    0    0  502    0  0.00000000000E+00  0.00000000000E+00  0.33539153553E+02  0.33539153553E+02  0.00000000000E+00 0.  1.
         13   -1    0    0    0    0 -0.00000000000E+00 -0.00000000000E+00 -0.10000000000E+04  0.10000000000E+04  0.00000000000E+00 0.  1.
    9000005    2    1    2  501    0 -0.18270185870E+02 -0.36360385607E+02 -0.84960381037E+03  0.90979973293E+03  0.32288239674E+03 0.  0.
         13    1    3    3    0    0 -0.68999994511E+02  0.11445569108E+03 -0.59293377257E+03  0.60780882119E+03  0.00000000000E+00 0.  1.
          1    1    3    3  501    0  0.50729808640E+02 -0.15081607669E+03 -0.25667003780E+03  0.30199091174E+03  0.00000000000E+00 0.  1.
         21    1    1    2  502  501  0.18270185870E+02  0.36360385607E+02 -0.11685703608E+03  0.12373942062E+03  0.00000000000E+00 0.  1.
<mgrwt>
<rscale>  1 0.30000000E+03</rscale>
<asrwt>0</asrwt>
<pdfrwt beam="1">  1        1 0.12196082E+00 0.30000000E+03</pdfrwt>
<pdfrwt beam="2">0</pdfrwt>
<totfact> 0.25343513E+01</totfact>
</mgrwt>
</event>
<event>
 6    1  0.1839160E-004  0.3000000E+03  0.7818608E-02  0.1093470E+00
          3   -1    0    0  502    0  0.00000000000E+00  0.00000000000E+00  0.34813969741E+02  0.34813969741E+02  0.00000000000E+00 0.  1.
         13   -1    0    0    0    0 -0.00000000000E+00 -0.00000000000E+00 -0.10000000000E+04  0.10000000000E+04  0.00000000000E+00 0.  1.
    9000005    2    1    2  501    0  0.40477167335E+02 -0.11389986333E+02 -0.91953848250E+03  0.97275084477E+03  0.31452353227E+03 0.  0.
         13    1    3    3    0    0  0.93397457337E+02  0.53443594578E+02 -0.93706674591E+02  0.14268932581E+03  0.00000000000E+00 0.  1.
          3    1    3    3  501    0 -0.52920290001E+02 -0.64833580911E+02 -0.82583180790E+03  0.83006151896E+03  0.00000000000E+00 0.  1.
         21    1    1    2  502  501 -0.40477167335E+02  0.11389986333E+02 -0.45647547764E+02  0.62063124970E+02  0.00000000000E+00 0. -1.
<mgrwt>
<rscale>  1 0.30000000E+03</rscale>
<asrwt>0</asrwt>
<pdfrwt beam="1">  1        3 0.12659652E+00 0.30000000E+03</pdfrwt>
<pdfrwt beam="2">0</pdfrwt>
<totfact> 0.19387824E+00</totfact>
</mgrwt>
</event>
<event>
 6    1  0.1839160E-004  0.3000000E+03  0.7818608E-02  0.1093470E+00
          1   -1    0    0  502    0  0.00000000000E+00  0.00000000000E+00  0.36067021714E+02  0.36067021714E+02  0.00000000000E+00 0.  1.
         13   -1    0    0    0    0 -0.00000000000E+00 -0.00000000000E+00 -0.10000000000E+04  0.10000000000E+04  0.00000000000E+00 0.  1.
    9000005    2    1    2  501    0 -0.11521216347E+02  0.19000026239E+02 -0.95821925538E+03  0.10131239170E+04  0.32824105539E+03 0.  0.
         13    1    3    3    0    0 -0.96048574987E+02 -0.89507367170E+01 -0.90347562242E+03  0.90861083240E+03  0.00000000000E+00 0.  1.
          1    1    3    3  501    0  0.84527358640E+02  0.27950762956E+02 -0.54743632963E+02  0.10451308463E+03  0.00000000000E+00 0.  1.
         21    1    1    2  502  501  0.11521216347E+02 -0.19000026239E+02 -0.57137229012E+01  0.22943104685E+02  0.00000000000E+00 0. -1.
<mgrwt>
<rscale>  1 0.30000000E+03</rscale>
<asrwt>0</asrwt>
<pdfrwt beam="1">  1        1 0.13115308E+00 0.30000000E+03</pdfrwt>
<pdfrwt beam="2">0</pdfrwt>
<totfact> 0.22552108E+01</totfact>
</mgrwt>
</event>
<event>
 6    1  0.1839160E-004  0.3000000E+03  0.7818608E-02  0.1093470E+00
          1   -1    0    0  502    0  0.00000000000E+00  0.00000000000E+00  0.26864906697E+02  0.26864906697E+02  0.00000000000E+00 0.  1.
         13   -1    0    0    0    0 -0.00000000000E+00 -0.00000000000E+00 -0.10000000000E+04  0.10000000000E+04  0.00000000000E+00 0.  1.
    9000005    2    1    2  501    0  0.59618929913E+01 -0.10421621044E+02 -0.96771248493E+03  0.10136907261E+04  0.30159124707E+03 0.  0.
         13    1    3    3    0    0  0.11582316034E+03  0.88573073546E+02 -0.59752043907E+03  0.61505354965E+03  0.00000000000E+00 0.  1.
          3    1    3    3  501    0 -0.10986126735E+03 -0.98994694589E+02 -0.37019204586E+03  0.39863717643E+03  0.00000000000E+00 0.  1.
         21    1    1    2  502  501 -0.59618929913E+01  0.10421621044E+02 -0.54226083765E+01  0.13174180613E+02  0.00000000000E+00 0.  1.
<mgrwt>
<rscale>  1 0.30000000E+03</rscale>
<asrwt>0</asrwt>
<pdfrwt beam="1">  1        1 0.97690776E-01 0.30000000E+03</pdfrwt>
<pdfrwt beam="2">0</pdfrwt>
<totfact> 0.35411989E+01</totfact>
</mgrwt>
</event>
<event>
 6    1  0.1839160E-004  0.3000000E+03  0.7818608E-02  0.1093470E+00
          1   -1    0    0  502    0  0.00000000000E+00  0.00000000000E+00  0.37596343388E+02  0.37596343388E+02  0.00000000000E+00 0.  1.
         13   -1    0    0    0    0 -0.00000000000E+00 -0.00000000000E+00 -0.10000000000E+04  0.10000000000E+04  0.00000000000E+00 0.  1.
    9000005    2    1    2  501    0  0.58606418414E+01 -0.86872689940E+01 -0.96869306755E+03  0.10253745409E+04  0.33603106152E+03 0.  0.
         13    1    3    3    0    0  0.12951832062E+03 -0.73787912746E+02 -0.75820953117E+03  0.77272332992E+03  0.00000000000E+00 0.  1.
          3    1    3    3  501    0 -0.12365767878E+03  0.65100643752E+02 -0.21048353638E+03  0.25265121101E+03  0.00000000000E+00 0.  1.
         21    1    1    2  502  501 -0.58606418414E+01  0.86872689940E+01  0.62894109370E+01  0.12221802457E+02  0.00000000000E+00 0. -1.
<mgrwt>
<rscale>  1 0.30000000E+03</rscale>
<asrwt>0</asrwt>
<pdfrwt beam="1">  1        1 0.13671426E+00 0.30000000E+03</pdfrwt>
<pdfrwt beam="2">0</pdfrwt>
<totfact> 0.21055646E+01</totfact>
</mgrwt>
</event>
<event>
 6    1  0.1839160E-004  0.3000000E+03  0.7818608E-02  0.1093470E+00
          3   -1    0    0  502    0  0.00000000000E+00  0.00000000000E+00  0.43024373724E+02  0.43024373724E+02  0.00000000000E+00 0.  1.
         13   -1    0    0    0    0 -0.00000000000E+00 -0.00000000000E+00 -0.10000000000E+04  0.10000000000E+04  0.00000000000E+00 0.  1.
    9000005    2    1    2  501    0  0.54901568156E+02  0.13065123521E+02 -0.85881737099E+03  0.92979927616E+03  0.35181605646E+03 0.  0.
         13    1    3    3    0    0  0.67393061809E+02  0.14662815577E+03 -0.71559561770E+03  0.73356576318E+03  0.00000000000E+00 0.  1.
          3    1    3    3  501    0 -0.12491493653E+02 -0.13356303225E+03 -0.14322175329E+03  0.19623351297E+03  0.00000000000E+00 0.  1.
         21    1    1    2  502  501 -0.54901568156E+02 -0.13065123521E+02 -0.98158255282E+02  0.11322509756E+03  0.00000000000E+00 0. -1.
<mgrwt>
<rscale>  1 0.30000000E+03</rscale>
<asrwt>0</asrwt>
<pdfrwt beam="1">  1        3 0.15645260E+00 0.30000000E+03</pdfrwt>
<pdfrwt beam="2">0</pdfrwt>
<totfact> 0.80048662E-01</totfact>
</mgrwt>
</event>
<event>
 6    1  0.1839160E-004  0.3000000E+03  0.7818608E-02  0.1093470E+00
          1   -1    0    0  502    0  0.00000000000E+00  0.00000000000E+00  0.95270136365E+02  0.95270136365E+02  0.00000000000E+00 0.  1.
         13   -1    0    0    0    0 -0.00000000000E+00 -0.00000000000E+00 -0.10000000000E+04  0.10000000000E+04  0.00000000000E+00 0.  1.
    9000005    2    1    2  501    0 -0.14511302328E+02 -0.23309747074E+01 -0.97335542966E+03  0.10250883748E+04  0.32119989485E+03 0.  0.
         13    1    3    3    0    0 -0.10306206600E+03  0.10613593147E+03 -0.72536569473E+03  0.74029859955E+03  0.00000000000E+00 0.  1.
          3    1    3    3  501    0  0.88550763676E+02 -0.10846690618E+03 -0.24798973493E+03  0.28478977530E+03  0.00000000000E+00 0.  1.
         21    1    1    2  502  501  0.14511302328E+02  0.23309747074E+01  0.68625566023E+02  0.70181761522E+02  0.00000000000E+00 0.  1.
<mgrwt>
<rscale>  1 0.30000000E+03</rscale>
<asrwt>0</asrwt>
<pdfrwt beam="1">  1        1 0.34643759E+00 0.30000000E+03</pdfrwt>
<pdfrwt beam="2">0</pdfrwt>
<totfact> 0.20533178E+00</totfact>
</mgrwt>
</event>
<event>
 6    1  0.1839160E-004  0.3000000E+03  0.7818608E-02  0.1093470E+00
          1   -1    0    0  502    0  0.00000000000E+00  0.00000000000E+00  0.29747828397E+02  0.29747828397E+02  0.00000000000E+00 0.  1.
         13   -1    0    0    0    0 -0.00000000000E+00 -0.00000000000E+00 -0.10000000000E+04  0.10000000000E+04  0.00000000000E+00 0.  1.
    9000005    2    1    2  501    0  0.65079034370E+01  0.97155751770E+01 -0.94950239262E+03  0.10059297988E+04  0.33196870519E+03 0.  0.
         13    1    3    3    0    0  0.76351317515E+02 -0.12686252454E+02 -0.92553440028E+03  0.92876498146E+03  0.00000000000E+00 0.  1.
          1    1    3    3  501    0 -0.69843414078E+02  0.22401827631E+02 -0.23967992341E+02  0.77164817295E+02  0.00000000000E+00 0.  1.
         21    1    1    2  502  501 -0.65079034370E+01 -0.97155751770E+01 -0.20749778981E+02  0.23818029640E+02  0.00000000000E+00 0.  1.
<mgrwt>
<rscale>  1 0.30000000E+03</rscale>
<asrwt>0</asrwt>
<pdfrwt beam="1">  1        1 0.10817415E+00 0.30000000E+03</pdfrwt>
<pdfrwt beam="2">0</pdfrwt>
<totfact> 0.30467601E+01</totfact>
</mgrwt>
</event>
<event>
 6    1  0.1839160E-004  0.3000000E+03  0.7818608E-02  0.1093470E+00
          1   -1    0    0  502    0  0.00000000000E+00  0.00000000000E+00  0.18528912096E+02  0.18528912096E+02  0.00000000000E+00 0.  1.
         13   -1    0    0    0    0 -0.00000000000E+00 -0.00000000000E+00 -0.10000000000E+04  0.10000000000E+04  0.00000000000E+00 0.  1.
    9000005    2    1    2  501    0 -0.62240792826E+01  0.81917778980E+01 -0.95692430773E+03  0.99191333762E+03  0.26092545722E+03 0.  0.
         13    1    3    3    0    0  0.95207255984E+02  0.89519420314E+02 -0.45107321979E+03  0.46962239919E+03  0.00000000000E+00 0.  1.
          3    1    3    3  501    0 -0.10143133527E+03 -0.81327642416E+02 -0.50585108794E+03  0.52229093843E+03  0.00000000000E+00 0.  1.
         21    1    1    2  502  501  0.62240792826E+01 -0.81917778980E+01 -0.24546780172E+02  0.26615574479E+02  0.00000000000E+00 0.  1.
<mgrwt>
<rscale>  1 0.30000000E+03</rscale>
<asrwt>0</asrwt>
<pdfrwt beam="1">  1        1 0.67378004E-01 0.30000000E+03</pdfrwt>
<pdfrwt beam="2">0</pdfrwt>
<totfact> 0.59374280E+01</totfact>
</mgrwt>
</event>
<event>
 6    1  0.1839160E-004  0.3000000E+03  0.7818608E-02  0.1093470E+00
          1   -1    0    0  502    0  0.00000000000E+00  0.00000000000E+00  0.29681561725E+02  0.29681561725E+02  0.00000000000E+00 0.  1.
         13   -1    0    0    0    0 -0.00000000000E+00 -0.00000000000E+00 -0.10000000000E+04  0.10000000000E+04  0.00000000000E+00 0.  1.
    9000005    2    1    2  501    0 -0.21856337717E+02  0.82855960314E+01 -0.92396265293E+03  0.97776615519E+03  0.31901930919E+03 0.  0.
         13    1    3    3    0    0  0.12777976876E+03 -0.11665926797E+02 -0.67120424861E+03  0.68335854901E+03  0.00000000000E+00 0.  1.
          3    1    3    3  501    0 -0.14963610648E+03  0.19951522829E+02 -0.25275840432E+03  0.29440760618E+03  0.00000000000E+00 0.  1.
         21    1    1    2  502  501  0.21856337717E+02 -0.82855960314E+01 -0.46355785348E+02  0.51915406530E+02  0.00000000000E+00 0.  1.
<mgrwt>
<rscale>  1 0.30000000E+03</rscale>
<asrwt>0</asrwt>
<pdfrwt beam="1">  1        1 0.10793318E+00 0.30000000E+03</pdfrwt>
<pdfrwt beam="2">0</pdfrwt>
<totfact> 0.30569690E+01</totfact>
</mgrwt>
</event>
<event>
 6    1  0.1839160E-004  0.3000000E+03  0.7818608E-02  0.1093470E+00
          1   -1    0    0  502    0  0.00000000000E+00  0.00000000000E+00  0.77540230835E+02  0.77540230835E+02  0.00000000000E+00 0.  1.
         13   -1    0    0    0    0 -0.00000000000E+00 -0.00000000000E+00 -0.10000000000E+04  0.10000000000E+04  0.00000000000E+00 0.  1.
    9000005    2    1    2  501    0 -0.25120207430E+02  0.53765614517E+02 -0.95621039030E+03  0.10092696621E+04  0.31743530717E+03 0.  0.
         13    1    3    3    0    0 -0.70103281222E+02 -0.33127053188E+01 -0.92903421747E+03  0.93168128739E+03  0.00000000000E+00 0.  1.
          3    1    3    3  501    0  0.44983073792E+02  0.57078319836E+02 -0.27176172830E+02  0.77588374727E+02  0.00000000000E+00 0.  1.
         21    1    1    2  502  501  0.25120207430E+02 -0.53765614517E+02  0.33750621131E+02  0.68270568714E+02  0.00000000000E+00 0.  1.
<mgrwt>
<rscale>  1 0.30000000E+03</rscale>
<asrwt>0</asrwt>
<pdfrwt beam="1">  1        1 0.28196507E+00 0.30000000E+03</pdfrwt>
<pdfrwt beam="2">0</pdfrwt>
<totfact> 0.42275234E+00</totfact>
</mgrwt>
</event>
<event>
 6    1  0.1839160E-004  0.3000000E+03  0.7818608E-02  0.1093470E+00
          1   -1    0    0  502    0  0.00000000000E+00  0.00000000000E+00  0.34227313088E+02  0.34227313088E+02  0.00000000000E+00 0.  1.
         13   -1    0    0    0    0 -0.00000000000E+00 -0.00000000000E+00 -0.10000000000E+04  0.10000000000E+04  0.00000000000E+00 0.  1.
    9000005    2    1    2  501    0  0.22885577895E+02  0.29169657812E+01 -0.95263041425E+03  0.10076758970E+04  0.32767933853E+03 0.  0.
         13    1    3    3    0    0  0.83355900954E+02  0.14846473227E+03 -0.52545774656E+03  0.55235480116E+03  0.00000000000E+00 0.  1.
          1    1    3    3  501    0 -0.60470323060E+02 -0.14554776649E+03 -0.42717266769E+03  0.45532109585E+03  0.00000000000E+00 0.  1.
         21    1    1    2  502  501 -0.22885577895E+02 -0.29169657812E+01 -0.13142272663E+02  0.26551416077E+02  0.00000000000E+00 0. -1.
<mgrwt>
<rscale>  1 0.30000000E+03</rscale>
<asrwt>0</asrwt>
<pdfrwt beam="1">  1        1 0.12446322E+00 0.30000000E+03</pdfrwt>
<pdfrwt beam="2">0</pdfrwt>
<totfact> 0.24541670E+01</totfact>
</mgrwt>
</event>
<event>
 6    1  0.1839160E-004  0.3000000E+03  0.7818608E-02  0.1093470E+00
          1   -1    0    0  502    0  0.00000000000E+00  0.00000000000E+00  0.38255157655E+02  0.38255157655E+02  0.00000000000E+00 0.  1.
         13   -1    0    0    0    0 -0.00000000000E+00 -0.00000000000E+00 -0.10000000000E+04  0.10000000000E+04  0.00000000000E+00 0.  1.
    9000005    2    1    2  501    0 -0.22787371092E+02  0.15220355100E+02 -0.96094364929E+03  0.10108404645E+04  0.31246571662E+03 0.  0.
         13    1    3    3    0    0  0.95662794606E+02 -0.59730495504E+02 -0.14890949540E+03  0.18679705615E+03  0.00000000000E+00 0.  1.
          3    1    3    3  501    0 -0.11845016570E+03  0.74950850604E+02 -0.81203415389E+03  0.82404340835E+03  0.00000000000E+00 0.  1.
         21    1    1    2  502  501  0.22787371092E+02 -0.15220355100E+02 -0.80119305395E+00  0.27414693158E+02  0.00000000000E+00 0.  1.
<mgrwt>
<rscale>  1 0.30000000E+03</rscale>
<asrwt>0</asrwt>
<pdfrwt beam="1">  1        1 0.13910996E+00 0.30000000E+03</pdfrwt>
<pdfrwt beam="2">0</pdfrwt>
<totfact> 0.20451153E+01</totfact>
</mgrwt>
</event>
<event>
 6    1  0.1839160E-004  0.3000000E+03  0.7818608E-02  0.1093470E+00
          1   -1    0    0  502    0  0.00000000000E+00  0.00000000000E+00  0.56859837794E+02  0.56859837794E+02  0.00000000000E+00 0.  1.
         13   -1    0    0    0    0 -0.00000000000E+00 -0.00000000000E+00 -0.10000000000E+04  0.10000000000E+04  0.00000000000E+00 0.  1.
    9000005    2    1    2  501    0  0.67023846422E+02 -0.33892961355E+02 -0.91831832365E+03  0.97775830501E+03  0.32720304195E+03 0.  0.
         13    1    3    3    0    0  0.62812721601E+02  0.55588392951E+02 -0.36624045349E+02  0.91525013649E+02  0.00000000000E+00 0.  1.
          3    1    3    3  501    0  0.42111248206E+01 -0.89481354306E+02 -0.88169427830E+03  0.88623329137E+03  0.00000000000E+00 0.  1.
         21    1    1    2  502  501 -0.67023846422E+02  0.33892961355E+02 -0.24821838558E+02  0.79101532779E+02  0.00000000000E+00 0. -1.
<mgrwt>
<rscale>  1 0.30000000E+03</rscale>
<asrwt>0</asrwt>
<pdfrwt beam="1">  1        1 0.20676348E+00 0.30000000E+03</pdfrwt>
<pdfrwt beam="2">0</pdfrwt>
<totfact> 0.95141736E+00</totfact>
</mgrwt>
</event>
<event>
 6    1  0.1839160E-004  0.3000000E+03  0.7818608E-02  0.1093470E+00
          1   -1    0    0  502    0  0.00000000000E+00  0.00000000000E+00  0.34319653019E+02  0.34319653019E+02  0.00000000000E+00 0.  1.
         13   -1    0    0    0    0 -0.00000000000E+00 -0.00000000000E+00 -0.10000000000E+04  0.10000000000E+04  0.00000000000E+00 0.  1.
    9000005    2    1    2  501    0 -0.24805665261E+02  0.70174922320E+00 -0.95171244223E+03  0.10058430689E+04  0.32457340162E+03 0.  0.
         13    1    3    3    0    0 -0.14323873775E+03  0.94153456866E+02 -0.57629445918E+03  0.60124663252E+03  0.00000000000E+00 0.  1.
          3    1    3    3  501    0  0.11843307249E+03 -0.93451707643E+02 -0.37541798305E+03  0.40459643636E+03  0.00000000000E+00 0.  1.
         21    1    1    2  502  501  0.24805665261E+02 -0.70174922320E+00 -0.13967904751E+02  0.28476584138E+02  0.00000000000E+00 0. -1.
<mgrwt>
<rscale>  1 0.30000000E+03</rscale>
<asrwt>0</asrwt>
<pdfrwt beam="1">  1        1 0.12479900E+00 0.30000000E+03</pdfrwt>
<pdfrwt beam="2">0</pdfrwt>
<totfact> 0.24436579E+01</totfact>
</mgrwt>
</event>
<event>
 6    1  0.1839160E-004  0.3000000E+03  0.7818608E-02  0.1093470E+00
          1   -1    0    0  502    0  0.00000000000E+00  0.00000000000E+00  0.31002681010E+02  0.31002681010E+02  0.00000000000E+00 0.  1.
         13   -1    0    0    0    0 -0.00000000000E+00 -0.00000000000E+00 -0.10000000000E+04  0.10000000000E+04  0.00000000000E+00 0.  1.
    9000005    2    1    2  501    0  0.11771842319E+02 -0.19884358293E+02 -0.93771204531E+03  0.99210882127E+03  0.32317498255E+03 0.  0.
         13    1    3    3    0    0 -0.51728439906E+01  0.13280783963E+03 -0.21126661801E+03  0.24959620283E+03  0.00000000000E+00 0.  1.
          1    1    3    3  501    0  0.16944686310E+02 -0.15269219792E+03 -0.72644542730E+03  0.74251261844E+03  0.00000000000E+00 0.  1.
         21    1    1    2  502  501 -0.11771842319E+02  0.19884358293E+02 -0.31285273682E+02  0.38893859742E+02  0.00000000000E+00 0.  1.
<mgrwt>
<rscale>  1 0.30000000E+03</rscale>
<asrwt>0</asrwt>
<pdfrwt beam="1">  1        1 0.11273726E+00 0.30000000E+03</pdfrwt>
<pdfrwt beam="2">0</pdfrwt>
<totfact> 0.28622565E+01</totfact>
</mgrwt>
</event>
<event>
 6    1  0.1839160E-004  0.3000000E+03  0.7818608E-02  0.1093470E+00
          1   -1    0    0  502    0  0.00000000000E+00  0.00000000000E+00  0.46333977611E+02  0.46333977611E+02  0.00000000000E+00 0.  1.
         13   -1    0    0    0    0 -0.00000000000E+00 -0.00000000000E+00 -0.10000000000E+04  0.10000000000E+04  0.00000000000E+00 0.  1.
    9000005    2    1    2  501    0 -0.19596091544E+02  0.48971245412E+00 -0.97017682178E+03  0.10207048317E+04  0.31656127588E+03 0.  0.
         13    1    3    3    0    0  0.24177069112E+02  0.12754541555E+03 -0.19693545208E+03  0.23587271140E+03  0.00000000000E+00 0.  1.
          1    1    3    3  501    0 -0.43773160655E+02 -0.12705570310E+03 -0.77324136970E+03  0.78483212033E+03  0.00000000000E+00 0.  1.
         21    1    1    2  502  501  0.19596091544E+02 -0.48971245412E+00  0.16510799389E+02  0.25629145880E+02  0.00000000000E+00 0.  1.
<mgrwt>
<rscale>  1 0.30000000E+03</rscale>
<asrwt>0</asrwt>
<pdfrwt beam="1">  1        1 0.16848755E+00 0.30000000E+03</pdfrwt>
<pdfrwt beam="2">0</pdfrwt>
<totfact> 0.14532720E+01</totfact>
</mgrwt>
</event>
<event>
 6    1  0.1839160E-004  0.3000000E+03  0.7818608E-02  0.1093470E+00
          1   -1    0    0  502    0  0.00000000000E+00  0.00000000000E+00  0.60769310251E+02  0.60769310251E+02  0.00000000000E+00 0.  1.
         13   -1    0    0    0    0 -0.00000000000E+00 -0.00000000000E+00 -0.10000000000E+04  0.10000000000E+04  0.00000000000E+00 0.  1.
    9000005    2    1    2  501    0  0.18634544554E+02 -0.63501126357E+02 -0.93709272297E+03  0.99455594150E+03  0.32652581833E+03 0.  0.
         13    1    3    3    0    0 -0.70711565052E+02 -0.47515129669E+01 -0.23410082517E+02  0.74637351715E+02  0.00000000000E+00 0.  1.
          3    1    3    3  501    0  0.89346109606E+02 -0.58749613390E+02 -0.91368264045E+03  0.91991858979E+03  0.00000000000E+00 0.  1.
         21    1    1    2  502  501 -0.18634544554E+02  0.63501126357E+02 -0.21379667823E+01  0.66213368751E+02  0.00000000000E+00 0.  1.
<mgrwt>
<rscale>  1 0.30000000E+03</rscale>
<asrwt>0</asrwt>
<pdfrwt beam="1">  1        1 0.22097978E+00 0.30000000E+03</pdfrwt>
<pdfrwt beam="2">0</pdfrwt>
<totfact> 0.81565611E+00</totfact>
</mgrwt>
</event>
<event>
 6    1  0.1839160E-004  0.3000000E+03  0.7818608E-02  0.1093470E+00
          1   -1    0    0  502    0  0.00000000000E+00  0.00000000000E+00  0.28631250839E+02  0.28631250839E+02  0.00000000000E+00 0.  1.
         13   -1    0    0    0    0 -0.00000000000E+00 -0.00000000000E+00 -0.10000000000E+04  0.10000000000E+04  0.00000000000E+00 0.  1.
    9000005    2    1    2  501    0 -0.58536063819E+01  0.12627703551E+02 -0.94118393281E+03  0.99539201585E+03  0.32370410289E+03 0.  0.
         13    1    3    3    0    0 -0.17173170323E+02 -0.13685813193E+03 -0.22681165378E+03  0.26545921032E+03  0.00000000000E+00 0.  1.
          1    1    3    3  501    0  0.11319563941E+02  0.14948583548E+03 -0.71437227903E+03  0.72993280552E+03  0.00000000000E+00 0.  1.
         21    1    1    2  502  501  0.58536063819E+01 -0.12627703551E+02 -0.30184816353E+02  0.33239234993E+02  0.00000000000E+00 0.  1.
<mgrwt>
<rscale>  1 0.30000000E+03</rscale>
<asrwt>0</asrwt>
<pdfrwt beam="1">  1        1 0.10411386E+00 0.30000000E+03</pdfrwt>
<pdfrwt beam="2">0</pdfrwt>
<totfact> 0.32255635E+01</totfact>
</mgrwt>
</event>
<event>
 6    1  0.1839160E-004  0.3000000E+03  0.7818608E-02  0.1093470E+00
          1   -1    0    0  502    0  0.00000000000E+00  0.00000000000E+00  0.30227350030E+02  0.30227350030E+02  0.00000000000E+00 0.  1.
         13   -1    0    0    0    0 -0.00000000000E+00 -0.00000000000E+00 -0.10000000000E+04  0.10000000000E+04  0.00000000000E+00 0.  1.
    9000005    2    1    2  501    0  0.98778713786E+01  0.43381680928E+01 -0.96529579094E+03  0.10185468401E+04  0.32484659370E+03 0.  0.
         13    1    3    3    0    0  0.13804365041E+03 -0.79011589342E+02 -0.34842240543E+03  0.38301051327E+03  0.00000000000E+00 0.  1.
          1    1    3    3  501    0 -0.12816577903E+03  0.83349757435E+02 -0.61687338550E+03  0.63553632683E+03  0.00000000000E+00 0.  1.
         21    1    1    2  502  501 -0.98778713786E+01 -0.43381680928E+01 -0.44768590329E+01  0.11680509928E+02  0.00000000000E+00 0.  1.
<mgrwt>
<rscale>  1 0.30000000E+03</rscale>
<asrwt>0</asrwt>
<pdfrwt beam="1">  1        1 0.10991787E+00 0.30000000E+03</pdfrwt>
<pdfrwt beam="2">0</pdfrwt>
<totfact> 0.29743157E+01</totfact>
</mgrwt>
</event>
<event>
 6    1  0.1839160E-004  0.3000000E+03  0.7818608E-02  0.1093470E+00
          1   -1    0    0  502    0  0.00000000000E+00  0.00000000000E+00  0.31472704691E+02  0.31472704691E+02  0.00000000000E+00 0.  1.
         13   -1    0    0    0    0 -0.00000000000E+00 -0.00000000000E+00 -0.10000000000E+04  0.10000000000E+04  0.00000000000E+00 0.  1.
    9000005    2    1    2  501    0 -0.76678538625E+01 -0.13093825614E+02 -0.95336099243E+03  0.10100190105E+04  0.33318309591E+03 0.  0.
         13    1    3    3    0    0  0.11070706214E+03 -0.84251772055E+02 -0.19711947862E+03  0.24126852997E+03  0.00000000000E+00 0.  1.
          3    1    3    3  501    0 -0.11837491601E+03  0.71157946441E+02 -0.75624151381E+03  0.76875048051E+03  0.00000000000E+00 0.  1.
         21    1    1    2  502  501  0.76678538625E+01  0.13093825614E+02 -0.15166302879E+02  0.21453694206E+02  0.00000000000E+00 0. -1.
<mgrwt>
<rscale>  1 0.30000000E+03</rscale>
<asrwt>0</asrwt>
<pdfrwt beam="1">  1        1 0.11444644E+00 0.30000000E+03</pdfrwt>
<pdfrwt beam="2">0</pdfrwt>
<totfact> 0.27972264E+01</totfact>
</mgrwt>
</event>
<event>
 6    1  0.1839160E-004  0.3000000E+03  0.7818608E-02  0.1093470E+00
          1   -1    0    0  502    0  0.00000000000E+00  0.00000000000E+00  0.42632746941E+02  0.42632746941E+02  0.00000000000E+00 0.  1.
         13   -1    0    0    0    0 -0.00000000000E+00 -0.00000000000E+00 -0.10000000000E+04  0.10000000000E+04  0.00000000000E+00 0.  1.
    9000005    2    1    2  501    0 -0.10065490642E+02  0.27174103009E+01 -0.97085623995E+03  0.10255842518E+04  0.33038238513E+03 0.  0.
         13    1    3    3    0    0  0.13123133157E+03  0.61855749298E+02 -0.25369785869E+03  0.29225057674E+03  0.00000000000E+00 0.  1.
          1    1    3    3  501    0 -0.14129682221E+03 -0.59138338997E+02 -0.71715838126E+03  0.73333367502E+03  0.00000000000E+00 0.  1.
         21    1    1    2  502  501  0.10065490642E+02 -0.27174103009E+01  0.13488986887E+02  0.17048495178E+02  0.00000000000E+00 0. -1.
<mgrwt>
<rscale>  1 0.30000000E+03</rscale>
<asrwt>0</asrwt>
<pdfrwt beam="1">  1        1 0.15502850E+00 0.30000000E+03</pdfrwt>
<pdfrwt beam="2">0</pdfrwt>
<totfact> 0.16944361E+01</totfact>
</mgrwt>
</event>
<event>
 6    1  0.1839160E-004  0.3000000E+03  0.7818608E-02  0.1093470E+00
          1   -1    0    0  502    0  0.00000000000E+00  0.00000000000E+00  0.48925034996E+02  0.48925034996E+02  0.00000000000E+00 0.  1.
         13   -1    0    0    0    0 -0.00000000000E+00 -0.00000000000E+00 -0.10000000000E+04  0.10000000000E+04  0.00000000000E+00 0.  1.
    9000005    2    1    2  501    0  0.55665044243E+02 -0.77922400624E+02 -0.78971892326E+03  0.86129169607E+03  0.33014680112E+03 0.  0.
         13    1    3    3    0    0  0.42693315017E+02  0.97795356031E+02 -0.56875606781E+03  0.57867963113E+03  0.00000000000E+00 0.  1.
          3    1    3    3  501    0  0.12971729226E+02 -0.17571775665E+03 -0.22096285545E+03  0.28261206494E+03  0.00000000000E+00 0.  1.
         21    1    1    2  502  501 -0.55665044243E+02  0.77922400624E+02 -0.16135604174E+03  0.18763333893E+03  0.00000000000E+00 0.  1.
<mgrwt>
<rscale>  1 0.30000000E+03</rscale>
<asrwt>0</asrwt>
<pdfrwt beam="1">  1        1 0.17790959E+00 0.30000000E+03</pdfrwt>
<pdfrwt beam="2">0</pdfrwt>
<totfact> 0.13075672E+01</totfact>
</mgrwt>
</event>
<event>
 6    1  0.1839160E-004  0.3000000E+03  0.7818608E-02  0.1093470E+00
          1   -1    0    0  502    0  0.00000000000E+00  0.00000000000E+00  0.96251776428E+02  0.96251776428E+02  0.00000000000E+00 0.  1.
         13   -1    0    0    0    0 -0.00000000000E+00 -0.00000000000E+00 -0.10000000000E+04  0.10000000000E+04  0.00000000000E+00 0.  1.
    9000005    2    1    2  501    0 -0.33413860798E+02 -0.18644922714E+03 -0.77471270390E+03  0.86705761042E+03  0.34019013186E+03 0.  0.
         13    1    3    3    0    0  0.97023505234E+02 -0.18065054115E+03 -0.66695919595E+03  0.69776983859E+03  0.00000000000E+00 0.  1.
          3    1    3    3  501    0 -0.13043736603E+03 -0.57986859901E+01 -0.10775350795E+03  0.16928777183E+03  0.00000000000E+00 0.  1.
         21    1    1    2  502  501  0.33413860798E+02  0.18644922714E+03 -0.12903551967E+03  0.22919416601E+03  0.00000000000E+00 0.  1.
<mgrwt>
<rscale>  1 0.30000000E+03</rscale>
<asrwt>0</asrwt>
<pdfrwt beam="1">  1        1 0.35000720E+00 0.30000000E+03</pdfrwt>
<pdfrwt beam="2">0</pdfrwt>
<totfact> 0.19688687E+00</totfact>
</mgrwt>
</event>
<event>
 6    1  0.1839160E-004  0.3000000E+03  0.7818608E-02  0.1093470E+00
          1   -1    0    0  502    0  0.00000000000E+00  0.00000000000E+00  0.43080679628E+02  0.43080679628E+02  0.00000000000E+00 0.  1.
         13   -1    0    0    0    0 -0.00000000000E+00 -0.00000000000E+00 -0.10000000000E+04  0.10000000000E+04  0.00000000000E+00 0.  1.
    9000005    2    1    2  501    0  0.86722096321E+01 -0.10909849852E+02 -0.97180332445E+03  0.10226903481E+04  0.31827600375E+03 0.  0.
         13    1    3    3    0    0 -0.82706289648E+02  0.75845412505E+02 -0.80938465268E+03  0.81712690137E+03  0.00000000000E+00 0.  1.
          1    1    3    3  501    0  0.91378499281E+02 -0.86755262357E+02 -0.16241867177E+03  0.20556344670E+03  0.00000000000E+00 0.  1.
         21    1    1    2  502  501 -0.86722096321E+01  0.10909849852E+02  0.14884004083E+02  0.20390331563E+02  0.00000000000E+00 0. -1.
<mgrwt>
<rscale>  1 0.30000000E+03</rscale>
<asrwt>0</asrwt>
<pdfrwt beam="1">  1        1 0.15665735E+00 0.30000000E+03</pdfrwt>
<pdfrwt beam="2">0</pdfrwt>
<totfact> 0.16628896E+01</totfact>
</mgrwt>
</event>
<event>
 6    1  0.1839160E-004  0.3000000E+03  0.7818608E-02  0.1093470E+00
          1   -1    0    0  502    0  0.00000000000E+00  0.00000000000E+00  0.31398338279E+02  0.31398338279E+02  0.00000000000E+00 0.  1.
         13   -1    0    0    0    0 -0.00000000000E+00 -0.00000000000E+00 -0.10000000000E+04  0.10000000000E+04  0.00000000000E+00 0.  1.
    9000005    2    1    2  501    0  0.40953447888E+02 -0.18590977624E+02 -0.89668153638E+03  0.94657314290E+03  0.29990019644E+03 0.  0.
         13    1    3    3    0    0  0.46930117362E+02  0.58954335234E+02 -0.38028768494E+02  0.84405194103E+02  0.00000000000E+00 0.  1.
          1    1    3    3  501    0 -0.59766694744E+01 -0.77545312857E+02 -0.85865276789E+03  0.86216794879E+03  0.00000000000E+00 0.  1.
         21    1    1    2  502  501 -0.40953447888E+02  0.18590977624E+02 -0.71920125337E+02  0.84825195381E+02  0.00000000000E+00 0.  1.
<mgrwt>
<rscale>  1 0.30000000E+03</rscale>
<asrwt>0</asrwt>
<pdfrwt beam="1">  1        1 0.11417602E+00 0.30000000E+03</pdfrwt>
<pdfrwt beam="2">0</pdfrwt>
<totfact> 0.28073750E+01</totfact>
</mgrwt>
</event>
<event>
 6    1  0.1839160E-004  0.3000000E+03  0.7818608E-02  0.1093470E+00
          1   -1    0    0  502    0  0.00000000000E+00  0.00000000000E+00  0.43878942591E+02  0.43878942591E+02  0.00000000000E+00 0.  1.
         13   -1    0    0    0    0 -0.00000000000E+00 -0.00000000000E+00 -0.10000000000E+04  0.10000000000E+04  0.00000000000E+00 0.  1.
    9000005    2    1    2  501    0  0.66750619352E+01  0.11771799916E+02 -0.97180454010E+03  0.10231641326E+04  0.31980876518E+03 0.  0.
         13    1    3    3    0    0  0.31506993912E+02  0.44374479910E+02 -0.97988295396E+03  0.98139308567E+03  0.00000000000E+00 0.  1.
          1    1    3    3  501    0 -0.24831931976E+02 -0.32602679994E+02  0.80784138602E+01  0.41771046898E+02  0.00000000000E+00 0.  1.
         21    1    1    2  502  501 -0.66750619352E+01 -0.11771799916E+02  0.15683482691E+02  0.20714810026E+02  0.00000000000E+00 0.  1.
<mgrwt>
<rscale>  1 0.30000000E+03</rscale>
<asrwt>0</asrwt>
<pdfrwt beam="1">  1        1 0.15956013E+00 0.30000000E+03</pdfrwt>
<pdfrwt beam="2">0</pdfrwt>
<totfact> 0.16083803E+01</totfact>
</mgrwt>
</event>
<event>
 6    1  0.1839160E-004  0.3000000E+03  0.7818608E-02  0.1093470E+00
          1   -1    0    0  502    0  0.00000000000E+00  0.00000000000E+00  0.28754156387E+02  0.28754156387E+02  0.00000000000E+00 0.  1.
         13   -1    0    0    0    0 -0.00000000000E+00 -0.00000000000E+00 -0.10000000000E+04  0.10000000000E+04  0.00000000000E+00 0.  1.
    9000005    2    1    2  501    0  0.16812825824E+01 -0.12490224809E+02 -0.92753498140E+03  0.98326270772E+03  0.32607603137E+03 0.  0.
         13    1    3    3    0    0  0.89188046807E+02 -0.13796742778E+03 -0.36443284552E+03  0.39975094461E+03  0.00000000000E+00 0.  1.
          3    1    3    3  501    0 -0.87506764224E+02  0.12547720297E+03 -0.56310213589E+03  0.58351176311E+03  0.00000000000E+00 0.  1.
         21    1    1    2  502  501 -0.16812825824E+01  0.12490224809E+02 -0.43710862209E+02  0.45491448668E+02  0.00000000000E+00 0.  1.
<mgrwt>
<rscale>  1 0.30000000E+03</rscale>
<asrwt>0</asrwt>
<pdfrwt beam="1">  1        1 0.10456079E+00 0.30000000E+03</pdfrwt>
<pdfrwt beam="2">0</pdfrwt>
<totfact> 0.32051508E+01</totfact>
</mgrwt>
</event>
<event>
 6    1  0.1839160E-004  0.3000000E+03  0.7818608E-02  0.1093470E+00
          1   -1    0    0  502    0  0.00000000000E+00  0.00000000000E+00  0.31080297660E+02  0.31080297660E+02  0.00000000000E+00 0.  1.
         13   -1    0    0    0    0 -0.00000000000E+00 -0.00000000000E+00 -0.10000000000E+04  0.10000000000E+04  0.00000000000E+00 0.  1.
    9000005    2    1    2  501    0  0.33373508861E+02 -0.18024918136E+01 -0.93669702869E+03  0.98465464992E+03  0.30170584349E+03 0.  0.
         13    1    3    3    0    0 -0.89703569232E+02 -0.10601860224E+03 -0.36087874793E+03  0.38667834832E+03  0.00000000000E+00 0.  1.
          1    1    3    3  501    0  0.12307707809E+03  0.10421611042E+03 -0.57581828076E+03  0.59797630160E+03  0.00000000000E+00 0.  1.
         21    1    1    2  502  501 -0.33373508861E+02  0.18024918136E+01 -0.32222673651E+02  0.46425647736E+02  0.00000000000E+00 0. -1.
<mgrwt>
<rscale>  1 0.30000000E+03</rscale>
<asrwt>0</asrwt>
<pdfrwt beam="1">  1        1 0.11301950E+00 0.30000000E+03</pdfrwt>
<pdfrwt beam="2">0</pdfrwt>
<totfact> 0.28513706E+01</totfact>
</mgrwt>
</event>
<event>
 6    1  0.1839160E-004  0.3000000E+03  0.7818608E-02  0.1093470E+00
          3   -1    0    0  502    0  0.00000000000E+00  0.00000000000E+00  0.31753768687E+02  0.31753768687E+02  0.00000000000E+00 0.  1.
         13   -1    0    0    0    0 -0.00000000000E+00 -0.00000000000E+00 -0.10000000000E+04  0.10000000000E+04  0.00000000000E+00 0.  1.
    9000005    2    1    2  501    0 -0.15615057868E+02 -0.32075844681E+01 -0.95904013966E+03  0.10133453262E+04  0.32688934224E+03 0.  0.
         13    1    3    3    0    0  0.79309158837E+02  0.57936668926E+02 -0.78876355244E+02  0.12596856631E+03  0.00000000000E+00 0.  1.
          3    1    3    3  501    0 -0.94924216705E+02 -0.61144253394E+02 -0.88016378442E+03  0.88737675992E+03  0.00000000000E+00 0.  1.
         21    1    1    2  502  501  0.15615057868E+02  0.32075844681E+01 -0.92060916514E+01  0.18408442461E+02  0.00000000000E+00 0.  1.
<mgrwt>
<rscale>  1 0.30000000E+03</rscale>
<asrwt>0</asrwt>
<pdfrwt beam="1">  1        3 0.11546849E+00 0.30000000E+03</pdfrwt>
<pdfrwt beam="2">0</pdfrwt>
<totfact> 0.26093187E+00</totfact>
</mgrwt>
</event>
<event>
 6    1  0.1839160E-004  0.3000000E+03  0.7818608E-02  0.1093470E+00
          1   -1    0    0  502    0  0.00000000000E+00  0.00000000000E+00  0.53190888426E+02  0.53190888426E+02  0.00000000000E+00 0.  1.
         13   -1    0    0    0    0 -0.00000000000E+00 -0.00000000000E+00 -0.10000000000E+04  0.10000000000E+04  0.00000000000E+00 0.  1.
    9000005    2    1    2  501    0 -0.28203820744E+02 -0.13212474880E+02 -0.96222451072E+03  0.10184394924E+04  0.33222427001E+03 0.  0.
         13    1    3    3    0    0  0.88146966571E+02  0.13097335978E+02 -0.57880187775E+02  0.10626167730E+03  0.00000000000E+00 0.  1.
          1    1    3    3  501    0 -0.11635078731E+03 -0.26309810858E+02 -0.90434432295E+03  0.91217781507E+03  0.00000000000E+00 0.  1.
         21    1    1    2  502  501  0.28203820744E+02  0.13212474880E+02  0.15415399149E+02  0.34751396057E+02  0.00000000000E+00 0.  1.
<mgrwt>
<rscale>  1 0.30000000E+03</rscale>
<asrwt>0</asrwt>
<pdfrwt beam="1">  1        1 0.19342182E+00 0.30000000E+03</pdfrwt>
<pdfrwt beam="2">0</pdfrwt>
<totfact> 0.11010305E+01</totfact>
</mgrwt>
</event>
<event>
 6    1  0.1839160E-004  0.3000000E+03  0.7818608E-02  0.1093470E+00
          1   -1    0    0  502    0  0.00000000000E+00  0.00000000000E+00  0.70907435554E+02  0.70907435554E+02  0.00000000000E+00 0.  1.
         13   -1    0    0    0    0 -0.00000000000E+00 -0.00000000000E+00 -0.10000000000E+04  0.10000000000E+04  0.00000000000E+00 0.  1.
    9000005    2    1    2  501    0  0.94533758995E+01 -0.57598784367E+01 -0.97199608968E+03  0.10265988022E+04  0.33016080890E+03 0.  0.
         13    1    3    3    0    0  0.16481228935E+03 -0.38399100075E+02 -0.56263697937E+03  0.58753549013E+03  0.00000000000E+00 0.  1.
          1    1    3    3  501    0 -0.15535891345E+03  0.32639221639E+02 -0.40935911032E+03  0.43906331204E+03  0.00000000000E+00 0.  1.
         21    1    1    2  502  501 -0.94533758995E+01  0.57598784367E+01  0.42903525235E+02  0.44308633392E+02  0.00000000000E+00 0.  1.
<mgrwt>
<rscale>  1 0.30000000E+03</rscale>
<asrwt>0</asrwt>
<pdfrwt beam="1">  1        1 0.25784576E+00 0.30000000E+03</pdfrwt>
<pdfrwt beam="2">0</pdfrwt>
<totfact> 0.54842904E+00</totfact>
</mgrwt>
</event>
<event>
 6    1  0.1839160E-004  0.3000000E+03  0.7818608E-02  0.1093470E+00
          1   -1    0    0  502    0  0.00000000000E+00  0.00000000000E+00  0.31910647670E+02  0.31910647670E+02  0.00000000000E+00 0.  1.
         13   -1    0    0    0    0 -0.00000000000E+00 -0.00000000000E+00 -0.10000000000E+04  0.10000000000E+04  0.00000000000E+00 0.  1.
    9000005    2    1    2  501    0 -0.21461594384E+02 -0.67246976280E+01 -0.95243404572E+03  0.10045079066E+04  0.31843319776E+03 0.  0.
         13    1    3    3    0    0  0.50976555573E+02 -0.21969570883E+02 -0.92328262555E+03  0.92494977047E+03  0.00000000000E+00 0.  1.
          3    1    3    3  501    0 -0.72438149957E+02  0.15244873255E+02 -0.29151420171E+02  0.79558136151E+02  0.00000000000E+00 0.  1.
         21    1    1    2  502  501  0.21461594384E+02  0.67246976280E+01 -0.15655306613E+02  0.27402741046E+02  0.00000000000E+00 0. -1.
<mgrwt>
<rscale>  1 0.30000000E+03</rscale>
<asrwt>0</asrwt>
<pdfrwt beam="1">  1        1 0.11603896E+00 0.30000000E+03</pdfrwt>
<pdfrwt beam="2">0</pdfrwt>
<totfact> 0.27384944E+01</totfact>
</mgrwt>
</event>
<event>
 6    1  0.1839160E-004  0.3000000E+03  0.7818608E-02  0.1093470E+00
          1   -1    0    0  502    0  0.00000000000E+00  0.00000000000E+00  0.26604099749E+02  0.26604099749E+02  0.00000000000E+00 0.  1.
         13   -1    0    0    0    0 -0.00000000000E+00 -0.00000000000E+00 -0.10000000000E+04  0.10000000000E+04  0.00000000000E+00 0.  1.
    9000005    2    1    2  501    0  0.15509933150E+02  0.21142891132E+01 -0.95770229432E+03  0.10044384165E+04  0.30241993955E+03 0.  0.
         13    1    3    3    0    0  0.10790688302E+03 -0.58795952800E+02 -0.81317197843E+03  0.82240472151E+03  0.00000000000E+00 0.  1.
          3    1    3    3  501    0 -0.92396949866E+02  0.60910241914E+02 -0.14453031590E+03  0.18203369503E+03  0.00000000000E+00 0.  1.
         21    1    1    2  502  501 -0.15509933150E+02 -0.21142891132E+01 -0.15693605927E+02  0.22165683201E+02  0.00000000000E+00 0.  1.
<mgrwt>
<rscale>  1 0.30000000E+03</rscale>
<asrwt>0</asrwt>
<pdfrwt beam="1">  1        1 0.96742385E-01 0.30000000E+03</pdfrwt>
<pdfrwt beam="2">0</pdfrwt>
<totfact> 0.35916317E+01</totfact>
</mgrwt>
</event>
<event>
 6    1  0.1839160E-004  0.3000000E+03  0.7818608E-02  0.1093470E+00
          1   -1    0    0  502    0  0.00000000000E+00  0.00000000000E+00  0.37517662720E+02  0.37517662720E+02  0.00000000000E+00 0.  1.
         13   -1    0    0    0    0 -0.00000000000E+00 -0.00000000000E+00 -0.10000000000E+04  0.10000000000E+04  0.00000000000E+00 0.  1.
    9000005    2    1    2  501    0  0.20530140392E+02 -0.34810763741E+01 -0.96055943658E+03  0.10166058932E+04  0.33223411374E+03 0.  0.
         13    1    3    3    0    0  0.64433407519E+02 -0.15885623303E+03 -0.49342436487E+03  0.52235483211E+03  0.00000000000E+00 0.  1.
          3    1    3    3  501    0 -0.43903267126E+02  0.15537515666E+03 -0.46713507171E+03  0.49425106109E+03  0.00000000000E+00 0.  1.
         21    1    1    2  502  501 -0.20530140392E+02  0.34810763741E+01 -0.19229006988E+01  0.20911769518E+02  0.00000000000E+00 0.  1.
<mgrwt>
<rscale>  1 0.30000000E+03</rscale>
<asrwt>0</asrwt>
<pdfrwt beam="1">  1        1 0.13642815E+00 0.30000000E+03</pdfrwt>
<pdfrwt beam="2">0</pdfrwt>
<totfact> 0.21129362E+01</totfact>
</mgrwt>
</event>
<event>
 6    1  0.1839160E-004  0.3000000E+03  0.7818608E-02  0.1093470E+00
          1   -1    0    0  502    0  0.00000000000E+00  0.00000000000E+00  0.42434784494E+02  0.42434784494E+02  0.00000000000E+00 0.  1.
         13   -1    0    0    0    0 -0.00000000000E+00 -0.00000000000E+00 -0.10000000000E+04  0.10000000000E+04  0.00000000000E+00 0.  1.
    9000005    2    1    2  501    0  0.10424247002E+02 -0.39979933578E+01 -0.96699497012E+03  0.10278207793E+04  0.34815461107E+03 0.  0.
         13    1    3    3    0    0  0.79985943847E+02 -0.15225451025E+03 -0.35765520907E+03  0.39685820602E+03  0.00000000000E+00 0.  1.
          1    1    3    3  501    0 -0.69561696845E+02  0.14825651689E+03 -0.60933976104E+03  0.63096257326E+03  0.00000000000E+00 0.  1.
         21    1    1    2  502  501 -0.10424247002E+02  0.39979933578E+01  0.94297546109E+01  0.14614005217E+02  0.00000000000E+00 0. -1.
<mgrwt>
<rscale>  1 0.30000000E+03</rscale>
<asrwt>0</asrwt>
<pdfrwt beam="1">  1        1 0.15430863E+00 0.30000000E+03</pdfrwt>
<pdfrwt beam="2">0</pdfrwt>
<totfact> 0.17086063E+01</totfact>
</mgrwt>
</event>
<event>
 6    1  0.1839160E-004  0.3000000E+03  0.7818608E-02  0.1093470E+00
          1   -1    0    0  502    0  0.00000000000E+00  0.00000000000E+00  0.43358836748E+02  0.43358836748E+02  0.00000000000E+00 0.  1.
         13   -1    0    0    0    0 -0.00000000000E+00 -0.00000000000E+00 -0.10000000000E+04  0.10000000000E+04  0.00000000000E+00 0.  1.
    9000005    2    1    2  501    0 -0.13576723117E+02 -0.18306848036E+02 -0.96284721213E+03  0.10197371700E+04  0.33506667092E+03 0.  0.
         13    1    3    3    0    0 -0.14222317183E+03  0.83359492350E+02 -0.58636154691E+03  0.60909449125E+03  0.00000000000E+00 0.  1.
          3    1    3    3  501    0  0.12864644871E+03 -0.10166634039E+03 -0.37648566521E+03  0.41064267879E+03  0.00000000000E+00 0.  1.
         21    1    1    2  502  501  0.13576723117E+02  0.18306848036E+02  0.62060488738E+01  0.23621666712E+02  0.00000000000E+00 0.  1.
<mgrwt>
<rscale>  1 0.30000000E+03</rscale>
<asrwt>0</asrwt>
<pdfrwt beam="1">  1        1 0.15766883E+00 0.30000000E+03</pdfrwt>
<pdfrwt beam="2">0</pdfrwt>
<totfact> 0.16436518E+01</totfact>
</mgrwt>
</event>
<event>
 6    1  0.1839160E-004  0.3000000E+03  0.7818608E-02  0.1093470E+00
          1   -1    0    0  502    0  0.00000000000E+00  0.00000000000E+00  0.33178595695E+02  0.33178595695E+02  0.00000000000E+00 0.  1.
         13   -1    0    0    0    0 -0.00000000000E+00 -0.00000000000E+00 -0.10000000000E+04  0.10000000000E+04  0.00000000000E+00 0.  1.
    9000005    2    1    2  501    0  0.98943396138E+01 -0.65482108567E+01 -0.95688489575E+03  0.10177024455E+04  0.34633623387E+03 0.  0.
         13    1    3    3    0    0  0.82382384085E+02 -0.15705281552E+03 -0.43613685617E+03  0.47081610144E+03  0.00000000000E+00 0.  1.
          3    1    3    3  501    0 -0.72488044471E+02  0.15050460466E+03 -0.52074803959E+03  0.54688634409E+03  0.00000000000E+00 0.  1.
         21    1    1    2  502  501 -0.98943396138E+01  0.65482108567E+01 -0.99365085508E+01  0.15476150167E+02  0.00000000000E+00 0. -1.
<mgrwt>
<rscale>  1 0.30000000E+03</rscale>
<asrwt>0</asrwt>
<pdfrwt beam="1">  1        1 0.12064969E+00 0.30000000E+03</pdfrwt>
<pdfrwt beam="2">0</pdfrwt>
<totfact> 0.25777371E+01</totfact>
</mgrwt>
</event>
<event>
 6    1  0.1839160E-004  0.3000000E+03  0.7818608E-02  0.1093470E+00
          1   -1    0    0  502    0  0.00000000000E+00  0.00000000000E+00  0.65810418483E+02  0.65810418483E+02  0.00000000000E+00 0.  1.
         13   -1    0    0    0    0 -0.00000000000E+00 -0.00000000000E+00 -0.10000000000E+04  0.10000000000E+04  0.00000000000E+00 0.  1.
    9000005    2    1    2  501    0  0.14617169827E+02 -0.66429726602E+01 -0.97268852302E+03  0.10240975999E+04  0.31999240693E+03 0.  0.
         13    1    3    3    0    0  0.11112539001E+03  0.76186255496E+00 -0.88965940863E+03  0.89657308464E+03  0.00000000000E+00 0.  1.
          3    1    3    3  501    0 -0.96508220180E+02 -0.74048352152E+01 -0.83029114392E+02  0.12752451523E+03  0.00000000000E+00 0.  1.
         21    1    1    2  502  501 -0.14617169827E+02  0.66429726602E+01  0.38498941507E+02  0.41712818614E+02  0.00000000000E+00 0.  1.
<mgrwt>
<rscale>  1 0.30000000E+03</rscale>
<asrwt>0</asrwt>
<pdfrwt beam="1">  1        1 0.23931112E+00 0.30000000E+03</pdfrwt>
<pdfrwt beam="2">0</pdfrwt>
<totfact> 0.66934391E+00</totfact>
</mgrwt>
</event>
<event>
 6    1  0.1839160E-004  0.3000000E+03  0.7818608E-02  0.1093470E+00
          1   -1    0    0  502    0  0.00000000000E+00  0.00000000000E+00  0.44678694663E+02  0.44678694663E+02  0.00000000000E+00 0.  1.
         13   -1    0    0    0    0 -0.00000000000E+00 -0.00000000000E+00 -0.10000000000E+04  0.10000000000E+04  0.00000000000E+00 0.  1.
    9000005    2    1    2  501    0 -0.71527163873E+01  0.21778784715E+02 -0.97996989655E+03  0.10110181857E+04  0.24757079156E+03 0.  0.
         13    1    3    3    0    0 -0.26158877117E+02  0.12976755121E+03 -0.64883438914E+03  0.66220085225E+03  0.00000000000E+00 0.  1.
          1    1    3    3  501    0  0.19006160730E+02 -0.10798876650E+03 -0.33113550742E+03  0.34881733344E+03  0.00000000000E+00 0.  1.
         21    1    1    2  502  501  0.71527163873E+01 -0.21778784715E+02  0.24648591215E+02  0.33660508972E+02  0.00000000000E+00 0.  1.
<mgrwt>
<rscale>  1 0.30000000E+03</rscale>
<asrwt>0</asrwt>
<pdfrwt beam="1">  1        1 0.16246832E+00 0.30000000E+03</pdfrwt>
<pdfrwt beam="2">0</pdfrwt>
<totfact> 0.15558519E+01</totfact>
</mgrwt>
</event>
<event>
 6    1  0.1839160E-004  0.3000000E+03  0.7818608E-02  0.1093470E+00
          1   -1    0    0  502    0  0.00000000000E+00  0.00000000000E+00  0.31390283483E+02  0.31390283483E+02  0.00000000000E+00 0.  1.
         13   -1    0    0    0    0 -0.00000000000E+00 -0.00000000000E+00 -0.10000000000E+04  0.10000000000E+04  0.00000000000E+00 0.  1.
    9000005    2    1    2  501    0  0.25218485853E+01 -0.17458337045E+02 -0.91937013087E+03  0.97908645908E+03  0.33624054420E+03 0.  0.
         13    1    3    3    0    0 -0.47584670515E+02 -0.11561514544E+03 -0.12389862611E+03  0.17601713631E+03  0.00000000000E+00 0.  1.
          1    1    3    3  501    0  0.50106519100E+02  0.98156808391E+02 -0.79547150476E+03  0.80306932277E+03  0.00000000000E+00 0.  1.
         21    1    1    2  502  501 -0.25218485853E+01  0.17458337045E+02 -0.49239585647E+02  0.52303824405E+02  0.00000000000E+00 0. -1.
<mgrwt>
<rscale>  1 0.30000000E+03</rscale>
<asrwt>0</asrwt>
<pdfrwt beam="1">  1        1 0.11414673E+00 0.30000000E+03</pdfrwt>
<pdfrwt beam="2">0</pdfrwt>
<totfact> 0.28084773E+01</totfact>
</mgrwt>
</event>
<event>
 6    1  0.1839160E-004  0.3000000E+03  0.7818608E-02  0.1093470E+00
          1   -1    0    0  502    0  0.00000000000E+00  0.00000000000E+00  0.29965986956E+02  0.29965986956E+02  0.00000000000E+00 0.  1.
         13   -1    0    0    0    0 -0.00000000000E+00 -0.00000000000E+00 -0.10000000000E+04  0.10000000000E+04  0.00000000000E+00 0.  1.
    9000005    2    1    2  501    0 -0.14572857509E+02 -0.46194218327E+01 -0.95061690113E+03  0.10052530052E+04  0.32653851907E+03 0.  0.
         13    1    3    3    0    0 -0.91463663613E+02  0.83960599065E+02 -0.82142915212E+03  0.83075919249E+03  0.00000000000E+00 0.  1.
          3    1    3    3  501    0  0.76890806104E+02 -0.88580020898E+02 -0.12918774900E+03  0.17449381267E+03  0.00000000000E+00 0.  1.
         21    1    1    2  502  501  0.14572857509E+02  0.46194218327E+01 -0.19417111917E+02  0.24712981796E+02  0.00000000000E+00 0.  1.
<mgrwt>
<rscale>  1 0.30000000E+03</rscale>
<asrwt>0</asrwt>
<pdfrwt beam="1">  1        1 0.10896746E+00 0.30000000E+03</pdfrwt>
<pdfrwt beam="2">0</pdfrwt>
<totfact> 0.30134933E+01</totfact>
</mgrwt>
</event>
<event>
 6    1  0.1839160E-004  0.3000000E+03  0.7818608E-02  0.1093470E+00
          1   -1    0    0  502    0  0.00000000000E+00  0.00000000000E+00  0.41884777440E+02  0.41884777440E+02  0.00000000000E+00 0.  1.
         13   -1    0    0    0    0 -0.00000000000E+00 -0.00000000000E+00 -0.10000000000E+04  0.10000000000E+04  0.00000000000E+00 0.  1.
    9000005    2    1    2  501    0 -0.61902900268E+02 -0.15260201258E+02 -0.87410362353E+03  0.93642013135E+03  0.32978883383E+03 0.  0.
         13    1    3    3    0    0  0.12847998115E+03 -0.57544633196E+02 -0.35551183342E+03  0.38237044089E+03  0.00000000000E+00 0.  1.
          3    1    3    3  501    0 -0.19038288142E+03  0.42284431939E+02 -0.51859179011E+03  0.55404969045E+03  0.00000000000E+00 0.  1.
         21    1    1    2  502  501  0.61902900268E+02  0.15260201258E+02 -0.84011599030E+02  0.10546464609E+03  0.00000000000E+00 0.  1.
<mgrwt>
<rscale>  1 0.30000000E+03</rscale>
<asrwt>0</asrwt>
<pdfrwt beam="1">  1        1 0.15230860E+00 0.30000000E+03</pdfrwt>
<pdfrwt beam="2">0</pdfrwt>
<totfact> 0.17487347E+01</totfact>
</mgrwt>
</event>
<event>
 6    1  0.1839160E-004  0.3000000E+03  0.7818608E-02  0.1093470E+00
          1   -1    0    0  502    0  0.00000000000E+00  0.00000000000E+00  0.21367511719E+02  0.21367511719E+02  0.00000000000E+00 0.  1.
         13   -1    0    0    0    0 -0.00000000000E+00 -0.00000000000E+00 -0.10000000000E+04  0.10000000000E+04  0.00000000000E+00 0.  1.
    9000005    2    1    2  501    0  0.30701507702E+02  0.14436034255E+01 -0.94581107300E+03  0.97640183740E+03  0.24053543544E+03 0.  0.
         13    1    3    3    0    0  0.48329991256E+02  0.40968968763E+02 -0.92708237932E+03  0.92924484529E+03  0.00000000000E+00 0.  1.
          3    1    3    3  501    0 -0.17628483554E+02 -0.39525365337E+02 -0.18728693674E+02  0.47156992103E+02  0.00000000000E+00 0.  1.
         21    1    1    2  502  501 -0.30701507702E+02 -0.14436034255E+01 -0.32821415286E+02  0.44965674323E+02  0.00000000000E+00 0. -1.
<mgrwt>
<rscale>  1 0.30000000E+03</rscale>
<asrwt>0</asrwt>
<pdfrwt beam="1">  1        1 0.77700206E-01 0.30000000E+03</pdfrwt>
<pdfrwt beam="2">0</pdfrwt>
<totfact> 0.48893721E+01</totfact>
</mgrwt>
</event>
<event>
 6    1  0.1839160E-004  0.3000000E+03  0.7818608E-02  0.1093470E+00
          1   -1    0    0  502    0  0.00000000000E+00  0.00000000000E+00  0.38559801577E+02  0.38559801577E+02  0.00000000000E+00 0.  1.
         13   -1    0    0    0    0 -0.00000000000E+00 -0.00000000000E+00 -0.10000000000E+04  0.10000000000E+04  0.00000000000E+00 0.  1.
    9000005    2    1    2  501    0  0.10140511060E+02 -0.11596857220E+02 -0.95638543012E+03  0.10223466050E+04  0.36094621853E+03 0.  0.
         13    1    3    3    0    0  0.14639096449E+03  0.71649989817E+02 -0.71205991128E+03  0.73047474479E+03  0.00000000000E+00 0.  1.
          3    1    3    3  501    0 -0.13625045343E+03 -0.83246847038E+02 -0.24432551883E+03  0.29187186016E+03  0.00000000000E+00 0.  1.
         21    1    1    2  502  501 -0.10140511060E+02  0.11596857220E+02 -0.50547683061E+01  0.16213196618E+02  0.00000000000E+00 0.  1.
<mgrwt>
<rscale>  1 0.30000000E+03</rscale>
<asrwt>0</asrwt>
<pdfrwt beam="1">  1        1 0.14021776E+00 0.30000000E+03</pdfrwt>
<pdfrwt beam="2">0</pdfrwt>
<totfact> 0.20179127E+01</totfact>
</mgrwt>
</event>
<event>
 6    1  0.1839160E-004  0.3000000E+03  0.7818608E-02  0.1093470E+00
          1   -1    0    0  502    0  0.00000000000E+00  0.00000000000E+00  0.40427104956E+02  0.40427104956E+02  0.00000000000E+00 0.  1.
         13   -1    0    0    0    0 -0.00000000000E+00 -0.00000000000E+00 -0.10000000000E+04  0.10000000000E+04  0.00000000000E+00 0.  1.
    9000005    2    1    2  501    0 -0.62638220359E+01 -0.80371015663E+01 -0.96979104425E+03  0.10259965457E+04  0.33476919174E+03 0.  0.
         13    1    3    3    0    0 -0.81344144765E+02 -0.28123006734E+02 -0.43474322885E+02  0.96425049368E+02  0.00000000000E+00 0.  1.
          1    1    3    3  501    0  0.75080322729E+02  0.20085905168E+02 -0.92631672137E+03  0.92957149630E+03  0.00000000000E+00 0.  1.
         21    1    1    2  502  501  0.62638220359E+01  0.80371015663E+01  0.10218149209E+02  0.14430559287E+02  0.00000000000E+00 0. -1.
<mgrwt>
<rscale>  1 0.30000000E+03</rscale>
<asrwt>0</asrwt>
<pdfrwt beam="1">  1        1 0.14700796E+00 0.30000000E+03</pdfrwt>
<pdfrwt beam="2">0</pdfrwt>
<totfact> 0.18608252E+01</totfact>
</mgrwt>
</event>
<event>
 6    1  0.1839160E-004  0.3000000E+03  0.7818608E-02  0.1093470E+00
          1   -1    0    0  502    0  0.00000000000E+00  0.00000000000E+00  0.48945096525E+02  0.48945096525E+02  0.00000000000E+00 0.  1.
         13   -1    0    0    0    0 -0.00000000000E+00 -0.00000000000E+00 -0.10000000000E+04  0.10000000000E+04  0.00000000000E+00 0.  1.
    9000005    2    1    2  501    0 -0.57529029133E+01 -0.87827596318E+01 -0.97296783419E+03  0.10246467573E+04  0.32112978379E+03 0.  0.
         13    1    3    3    0    0  0.16793935475E+02  0.12429193727E+02 -0.98938552523E+03  0.98960610278E+03  0.00000000000E+00 0.  1.
          3    1    3    3  501    0 -0.22546838388E+02 -0.21211953359E+02  0.16417691046E+02  0.35040654473E+02  0.00000000000E+00 0.  1.
         21    1    1    2  502  501  0.57529029133E+01  0.87827596318E+01  0.21912930714E+02  0.24298339267E+02  0.00000000000E+00 0.  1.
<mgrwt>
<rscale>  1 0.30000000E+03</rscale>
<asrwt>0</asrwt>
<pdfrwt beam="1">  1        1 0.17798254E+00 0.30000000E+03</pdfrwt>
<pdfrwt beam="2">0</pdfrwt>
<totfact> 0.13065030E+01</totfact>
</mgrwt>
</event>
<event>
 6    1  0.1839160E-004  0.3000000E+03  0.7818608E-02  0.1093470E+00
          1   -1    0    0  502    0  0.00000000000E+00  0.00000000000E+00  0.33198239684E+02  0.33198239684E+02  0.00000000000E+00 0.  1.
         13   -1    0    0    0    0 -0.00000000000E+00 -0.00000000000E+00 -0.10000000000E+04  0.10000000000E+04  0.00000000000E+00 0.  1.
    9000005    2    1    2  501    0  0.20125876420E+01 -0.17429541531E+02 -0.96085321611E+03  0.10146719177E+04  0.32559539046E+03 0.  0.
         13    1    3    3    0    0  0.53185965717E+02 -0.64376469543E+02 -0.93778416037E+03  0.94149466713E+03  0.00000000000E+00 0.  1.
          3    1    3    3  501    0 -0.51173378075E+02  0.46946928012E+02 -0.23069055742E+02  0.73177250606E+02  0.00000000000E+00 0.  1.
         21    1    1    2  502  501 -0.20125876420E+01  0.17429541531E+02 -0.59485442023E+01  0.18526321953E+02  0.00000000000E+00 0. -1.
<mgrwt>
<rscale>  1 0.30000000E+03</rscale>
<asrwt>0</asrwt>
<pdfrwt beam="1">  1        1 0.12072113E+00 0.30000000E+03</pdfrwt>
<pdfrwt beam="2">0</pdfrwt>
<totfact> 0.25753481E+01</totfact>
</mgrwt>
</event>
<event>
 6    1  0.1839160E-004  0.3000000E+03  0.7818608E-02  0.1093470E+00
          3   -1    0    0  502    0  0.00000000000E+00  0.00000000000E+00  0.31078125585E+02  0.31078125585E+02  0.00000000000E+00 0.  1.
         13   -1    0    0    0    0 -0.00000000000E+00 -0.00000000000E+00 -0.10000000000E+04  0.10000000000E+04  0.00000000000E+00 0.  1.
    9000005    2    1    2  501    0  0.87842772527E+01 -0.69509413619E+01 -0.96912318705E+03  0.10198745708E+04  0.31751993545E+03 0.  0.
         13    1    3    3    0    0  0.12775857832E+03  0.66564559371E+02 -0.71915778131E+03  0.73344461912E+03  0.00000000000E+00 0.  1.
          3    1    3    3  501    0 -0.11897430107E+03 -0.73515500733E+02 -0.24996540574E+03  0.28642995170E+03  0.00000000000E+00 0.  1.
         21    1    1    2  502  501 -0.87842772527E+01  0.69509413619E+01  0.20131263414E+00  0.11203554768E+02  0.00000000000E+00 0.  1.
<mgrwt>
<rscale>  1 0.30000000E+03</rscale>
<asrwt>0</asrwt>
<pdfrwt beam="1">  1        3 0.11301160E+00 0.30000000E+03</pdfrwt>
<pdfrwt beam="2">0</pdfrwt>
<totfact> 0.27843172E+00</totfact>
</mgrwt>
</event>
<event>
 6    1  0.1839160E-004  0.3000000E+03  0.7818608E-02  0.1093470E+00
          1   -1    0    0  502    0  0.00000000000E+00  0.00000000000E+00  0.77662300879E+02  0.77662300879E+02  0.00000000000E+00 0.  1.
         13   -1    0    0    0    0 -0.00000000000E+00 -0.00000000000E+00 -0.10000000000E+04  0.10000000000E+04  0.00000000000E+00 0.  1.
    9000005    2    1    2  501    0 -0.21821277168E+01  0.29744201607E+02 -0.96863888353E+03  0.10225870897E+04  0.32639483771E+03 0.  0.
         13    1    3    3    0    0 -0.47748624899E+01 -0.91783014060E+02 -0.84218194537E+03  0.84718200529E+03  0.00000000000E+00 0.  1.
          3    1    3    3  501    0  0.25927347731E+01  0.12152721567E+03 -0.12645693816E+03  0.17540508439E+03  0.00000000000E+00 0.  1.
         21    1    1    2  502  501  0.21821277168E+01 -0.29744201607E+02  0.46301184410E+02  0.55075211197E+02  0.00000000000E+00 0.  1.
<mgrwt>
<rscale>  1 0.30000000E+03</rscale>
<asrwt>0</asrwt>
<pdfrwt beam="1">  1        1 0.28240896E+00 0.30000000E+03</pdfrwt>
<pdfrwt beam="2">0</pdfrwt>
<totfact> 0.42073083E+00</totfact>
</mgrwt>
</event>
<event>
 6    1  0.1839160E-004  0.3000000E+03  0.7818608E-02  0.1093470E+00
          1   -1    0    0  502    0  0.00000000000E+00  0.00000000000E+00  0.41872346707E+02  0.41872346707E+02  0.00000000000E+00 0.  1.
         13   -1    0    0    0    0 -0.00000000000E+00 -0.00000000000E+00 -0.10000000000E+04  0.10000000000E+04  0.00000000000E+00 0.  1.
    9000005    2    1    2  501    0  0.39173147434E+02  0.15414310728E+02 -0.90845446577E+03  0.97676042757E+03  0.35636958348E+03 0.  0.
         13    1    3    3    0    0 -0.34189744993E+02 -0.15310125351E+03 -0.26882292779E+03  0.31124700641E+03  0.00000000000E+00 0.  1.
          1    1    3    3  501    0  0.73362892426E+02  0.16851556424E+03 -0.63963153798E+03  0.66551342117E+03  0.00000000000E+00 0.  1.
         21    1    1    2  502  501 -0.39173147434E+02 -0.15414310728E+02 -0.49673187520E+02  0.65111919135E+02  0.00000000000E+00 0.  1.
<mgrwt>
<rscale>  1 0.30000000E+03</rscale>
<asrwt>0</asrwt>
<pdfrwt beam="1">  1        1 0.15226340E+00 0.30000000E+03</pdfrwt>
<pdfrwt beam="2">0</pdfrwt>
<totfact> 0.17496548E+01</totfact>
</mgrwt>
</event>
<event>
 6    1  0.1839160E-004  0.3000000E+03  0.7818608E-02  0.1093470E+00
          1   -1    0    0  502    0  0.00000000000E+00  0.00000000000E+00  0.24556917628E+02  0.24556917628E+02  0.00000000000E+00 0.  1.
         13   -1    0    0    0    0 -0.00000000000E+00 -0.00000000000E+00 -0.10000000000E+04  0.10000000000E+04  0.00000000000E+00 0.  1.
    9000005    2    1    2  501    0  0.89623691408E+01 -0.17653047451E+02 -0.93261103969E+03  0.97737071175E+03  0.29171596235E+03 0.  0.
         13    1    3    3    0    0  0.52878708706E+02  0.85160407020E+02 -0.11672730421E+03  0.15386265404E+03  0.00000000000E+00 0.  1.
          3    1    3    3  501    0 -0.43916339565E+02 -0.10281345447E+03 -0.81588373548E+03  0.82350805772E+03  0.00000000000E+00 0.  1.
         21    1    1    2  502  501 -0.89623691408E+01  0.17653047451E+02 -0.42832042678E+02  0.47186205875E+02  0.00000000000E+00 0. -1.
<mgrwt>
<rscale>  1 0.30000000E+03</rscale>
<asrwt>0</asrwt>
<pdfrwt beam="1">  1        1 0.89298071E-01 0.30000000E+03</pdfrwt>
<pdfrwt beam="2">0</pdfrwt>
<totfact> 0.40276007E+01</totfact>
</mgrwt>
</event>
<event>
 6    1  0.1839160E-004  0.3000000E+03  0.7818608E-02  0.1093470E+00
          1   -1    0    0  502    0  0.00000000000E+00  0.00000000000E+00  0.57028174916E+02  0.57028174916E+02  0.00000000000E+00 0.  1.
         13   -1    0    0    0    0 -0.00000000000E+00 -0.00000000000E+00 -0.10000000000E+04  0.10000000000E+04  0.00000000000E+00 0.  1.
    9000005    2    1    2  501    0 -0.20928331570E+02 -0.99725148565E+02 -0.86362269948E+03  0.92787948521E+03  0.32362489351E+03 0.  0.
         13    1    3    3    0    0 -0.31555308034E+02 -0.43485571341E+02 -0.86875518412E+03  0.87041501728E+03  0.00000000000E+00 0.  1.
          1    1    3    3  501    0  0.10626976464E+02 -0.56239577224E+02  0.51324846431E+01  0.57464467923E+02  0.00000000000E+00 0.  1.
         21    1    1    2  502  501  0.20928331570E+02  0.99725148565E+02 -0.79349125609E+02  0.12914868971E+03  0.00000000000E+00 0.  1.
<mgrwt>
<rscale>  1 0.30000000E+03</rscale>
<asrwt>0</asrwt>
<pdfrwt beam="1">  1        1 0.20737562E+00 0.30000000E+03</pdfrwt>
<pdfrwt beam="2">0</pdfrwt>
<totfact> 0.94509966E+00</totfact>
</mgrwt>
</event>
<event>
 6    1  0.1839160E-004  0.3000000E+03  0.7818608E-02  0.1093470E+00
          1   -1    0    0  502    0  0.00000000000E+00  0.00000000000E+00  0.28002796465E+02  0.28002796465E+02  0.00000000000E+00 0.  1.
         13   -1    0    0    0    0 -0.00000000000E+00 -0.00000000000E+00 -0.10000000000E+04  0.10000000000E+04  0.00000000000E+00 0.  1.
    9000005    2    1    2  501    0 -0.86271790819E+00 -0.10379025902E+02 -0.95036333114E+03  0.10039925300E+04  0.32357699340E+03 0.  0.
         13    1    3    3    0    0 -0.80441652911E+00  0.94654567544E+01 -0.97348000849E+03  0.97352635757E+03  0.00000000000E+00 0.  1.
          1    1    3    3  501    0 -0.58301379072E-01 -0.19844482657E+02  0.23116677348E+02  0.30466172431E+02  0.00000000000E+00 0.  1.
         21    1    1    2  502  501  0.86271790819E+00  0.10379025902E+02 -0.21633872398E+02  0.24010266466E+02  0.00000000000E+00 0.  1.
<mgrwt>
<rscale>  1 0.30000000E+03</rscale>
<asrwt>0</asrwt>
<pdfrwt beam="1">  1        1 0.10182857E+00 0.30000000E+03</pdfrwt>
<pdfrwt beam="2">0</pdfrwt>
<totfact> 0.33329552E+01</totfact>
</mgrwt>
</event>
<event>
 6    1  0.1839160E-004  0.3000000E+03  0.7818608E-02  0.1093470E+00
          1   -1    0    0  502    0  0.00000000000E+00  0.00000000000E+00  0.54159411492E+02  0.54159411492E+02  0.00000000000E+00 0.  1.
         13   -1    0    0    0    0 -0.00000000000E+00 -0.00000000000E+00 -0.10000000000E+04  0.10000000000E+04  0.00000000000E+00 0.  1.
    9000005    2    1    2  501    0  0.15400982173E+02 -0.92581351141E+01 -0.96341994350E+03  0.10290210536E+04  0.36108646862E+03 0.  0.
         13    1    3    3    0    0 -0.14796912426E+03 -0.62648777133E+02 -0.66972225386E+03  0.68872899484E+03  0.00000000000E+00 0.  1.
          1    1    3    3  501    0  0.16337010644E+03  0.53390642019E+02 -0.29369768963E+03  0.34029205872E+03  0.00000000000E+00 0.  1.
         21    1    1    2  502  501 -0.15400982173E+02  0.92581351141E+01  0.17579354990E+02  0.25138357932E+02  0.00000000000E+00 0.  1.
<mgrwt>
<rscale>  1 0.30000000E+03</rscale>
<asrwt>0</asrwt>
<pdfrwt beam="1">  1        1 0.19694373E+00 0.30000000E+03</pdfrwt>
<pdfrwt beam="2">0</pdfrwt>
<totfact> 0.10592183E+01</totfact>
</mgrwt>
</event>
<event>
 6    1  0.1839160E-004  0.3000000E+03  0.7818608E-02  0.1093470E+00
          1   -1    0    0  502    0  0.00000000000E+00  0.00000000000E+00  0.36479998689E+02  0.36479998689E+02  0.00000000000E+00 0.  1.
         13   -1    0    0    0    0 -0.00000000000E+00 -0.00000000000E+00 -0.10000000000E+04  0.10000000000E+04  0.00000000000E+00 0.  1.
    9000005    2    1    2  501    0  0.34459782303E+02  0.31645702000E+02 -0.89596243315E+03  0.95430365132E+03  0.32520432077E+03 0.  0.
         13    1    3    3    0    0 -0.79335229843E+02 -0.10503753148E+03 -0.23002328216E+03  0.26502390845E+03  0.00000000000E+00 0.  1.
          1    1    3    3  501    0  0.11379501215E+03  0.13668323349E+03 -0.66593915099E+03  0.68927974287E+03  0.00000000000E+00 0.  1.
         21    1    1    2  502  501 -0.34459782303E+02 -0.31645702000E+02 -0.67557568157E+02  0.82176347368E+02  0.00000000000E+00 0. -1.
<mgrwt>
<rscale>  1 0.30000000E+03</rscale>
<asrwt>0</asrwt>
<pdfrwt beam="1">  1        1 0.13265482E+00 0.30000000E+03</pdfrwt>
<pdfrwt beam="2">0</pdfrwt>
<totfact> 0.22134501E+01</totfact>
</mgrwt>
</event>
<event>
 6    1  0.1839160E-004  0.3000000E+03  0.7818608E-02  0.1093470E+00
          1   -1    0    0  502    0  0.00000000000E+00  0.00000000000E+00  0.35864495678E+02  0.35864495678E+02  0.00000000000E+00 0.  1.
         13   -1    0    0    0    0 -0.00000000000E+00 -0.00000000000E+00 -0.10000000000E+04  0.10000000000E+04  0.00000000000E+00 0.  1.
    9000005    2    1    2  501    0 -0.94285102994E+01 -0.25024953201E+02 -0.95619009112E+03  0.10079669209E+04  0.31777771810E+03 0.  0.
         13    1    3    3    0    0 -0.44044057131E+02 -0.29922856017E+02 -0.96920204389E+03  0.97066361741E+03  0.00000000000E+00 0.  1.
          3    1    3    3  501    0  0.34615546831E+02  0.48979028158E+01  0.13011952766E+02  0.37303303463E+02  0.00000000000E+00 0.  1.
         21    1    1    2  502  501  0.94285102994E+01  0.25024953201E+02 -0.79454131994E+01  0.27897574807E+02  0.00000000000E+00 0.  1.
<mgrwt>
<rscale>  1 0.30000000E+03</rscale>
<asrwt>0</asrwt>
<pdfrwt beam="1">  1        1 0.13041662E+00 0.30000000E+03</pdfrwt>
<pdfrwt beam="2">0</pdfrwt>
<totfact> 0.22760676E+01</totfact>
</mgrwt>
</event>
<event>
 6    1  0.1839160E-004  0.3000000E+03  0.7818608E-02  0.1093470E+00
          1   -1    0    0  502    0  0.00000000000E+00  0.00000000000E+00  0.28899904492E+02  0.28899904492E+02  0.00000000000E+00 0.  1.
         13   -1    0    0    0    0 -0.00000000000E+00 -0.00000000000E+00 -0.10000000000E+04  0.10000000000E+04  0.00000000000E+00 0.  1.
    9000005    2    1    2  501    0  0.21264718859E+02  0.25988503553E+01 -0.92073537352E+03  0.97416830930E+03  0.31747649441E+03 0.  0.
         13    1    3    3    0    0 -0.32669381452E+02 -0.91500882641E+02 -0.78306774037E+02  0.12478642101E+03  0.00000000000E+00 0.  1.
          1    1    3    3  501    0  0.53934100311E+02  0.94099732997E+02 -0.84242859948E+03  0.84938188828E+03  0.00000000000E+00 0.  1.
         21    1    1    2  502  501 -0.21264718859E+02 -0.25988503553E+01 -0.50364721993E+02  0.54731595197E+02  0.00000000000E+00 0.  1.
<mgrwt>
<rscale>  1 0.30000000E+03</rscale>
<asrwt>0</asrwt>
<pdfrwt beam="1">  1        1 0.10509078E+00 0.30000000E+03</pdfrwt>
<pdfrwt beam="2">0</pdfrwt>
<totfact> 0.31811862E+01</totfact>
</mgrwt>
</event>
<event>
 6    1  0.1839160E-004  0.3000000E+03  0.7818608E-02  0.1093470E+00
          1   -1    0    0  502    0  0.00000000000E+00  0.00000000000E+00  0.30279102900E+02  0.30279102900E+02  0.00000000000E+00 0.  1.
         13   -1    0    0    0    0 -0.00000000000E+00 -0.00000000000E+00 -0.10000000000E+04  0.10000000000E+04  0.00000000000E+00 0.  1.
    9000005    2    1    2  501    0 -0.12344304066E+02 -0.76722851572E+01 -0.95332916146E+03  0.10083716886E+04  0.32827690530E+03 0.  0.
         13    1    3    3    0    0  0.38544670757E+02  0.11958816134E+03 -0.76611554386E+03  0.77635046630E+03  0.00000000000E+00 0.  1.
          3    1    3    3  501    0 -0.50888974823E+02 -0.12726044650E+03 -0.18721361760E+03  0.23202122234E+03  0.00000000000E+00 0.  1.
         21    1    1    2  502  501  0.12344304066E+02  0.76722851572E+01 -0.16391735644E+02  0.21907414266E+02  0.00000000000E+00 0.  1.
<mgrwt>
<rscale>  1 0.30000000E+03</rscale>
<asrwt>0</asrwt>
<pdfrwt beam="1">  1        1 0.11010606E+00 0.30000000E+03</pdfrwt>
<pdfrwt beam="2">0</pdfrwt>
<totfact> 0.29666441E+01</totfact>
</mgrwt>
</event>
<event>
 6    1  0.1839160E-004  0.3000000E+03  0.7818608E-02  0.1093470E+00
          1   -1    0    0  502    0  0.00000000000E+00  0.00000000000E+00  0.32280953207E+02  0.32280953207E+02  0.00000000000E+00 0.  1.
         13   -1    0    0    0    0 -0.00000000000E+00 -0.00000000000E+00 -0.10000000000E+04  0.10000000000E+04  0.00000000000E+00 0.  1.
    9000005    2    1    2  501    0 -0.14642832596E+02  0.36912017389E+01 -0.96156314100E+03  0.10159735103E+04  0.32767432317E+03 0.  0.
         13    1    3    3    0    0  0.14940218661E+03 -0.41707672377E+02 -0.52376729364E+03  0.54625334890E+03  0.00000000000E+00 0.  1.
          3    1    3    3  501    0 -0.16404501920E+03  0.45398874116E+02 -0.43779584736E+03  0.46972016144E+03  0.00000000000E+00 0.  1.
         21    1    1    2  502  501  0.14642832596E+02 -0.36912017389E+01 -0.61559057902E+01  0.16307442865E+02  0.00000000000E+00 0.  1.
<mgrwt>
<rscale>  1 0.30000000E+03</rscale>
<asrwt>0</asrwt>
<pdfrwt beam="1">  1        1 0.11738553E+00 0.30000000E+03</pdfrwt>
<pdfrwt beam="2">0</pdfrwt>
<totfact> 0.26901630E+01</totfact>
</mgrwt>
</event>
<event>
 6    1  0.1839160E-004  0.3000000E+03  0.7818608E-02  0.1093470E+00
          1   -1    0    0  502    0  0.00000000000E+00  0.00000000000E+00  0.29215522403E+02  0.29215522403E+02  0.00000000000E+00 0.  1.
         13   -1    0    0    0    0 -0.00000000000E+00 -0.00000000000E+00 -0.10000000000E+04  0.10000000000E+04  0.00000000000E+00 0.  1.
    9000005    2    1    2  501    0  0.96141446642E+01 -0.67441678378E+01 -0.82017543267E+03  0.87814931178E+03  0.31356109110E+03 0.  0.
         13    1    3    3    0    0  0.12795167412E+03 -0.94363529068E+02 -0.32937896856E+03  0.36574118097E+03  0.00000000000E+00 0.  1.
          1    1    3    3  501    0 -0.11833752945E+03  0.87619361231E+02 -0.49079646412E+03  0.51240813082E+03  0.00000000000E+00 0.  1.
         21    1    1    2  502  501 -0.96141446642E+01  0.67441678378E+01 -0.15060904492E+03  0.15106621062E+03  0.00000000000E+00 0. -1.
<mgrwt>
<rscale>  1 0.30000000E+03</rscale>
<asrwt>0</asrwt>
<pdfrwt beam="1">  1        1 0.10623849E+00 0.30000000E+03</pdfrwt>
<pdfrwt beam="2">0</pdfrwt>
<totfact> 0.31301706E+01</totfact>
</mgrwt>
</event>
<event>
 6    1  0.1839160E-004  0.3000000E+03  0.7818608E-02  0.1093470E+00
          1   -1    0    0  502    0  0.00000000000E+00  0.00000000000E+00  0.41535194667E+02  0.41535194667E+02  0.00000000000E+00 0.  1.
         13   -1    0    0    0    0 -0.00000000000E+00 -0.00000000000E+00 -0.10000000000E+04  0.10000000000E+04  0.00000000000E+00 0.  1.
    9000005    2    1    2  501    0  0.95271619714E+01 -0.52158251809E+02 -0.86594053288E+03  0.93489565679E+03  0.34837570601E+03 0.  0.
         13    1    3    3    0    0  0.17039647660E+03 -0.68960265927E+02 -0.55091974014E+03  0.58077795894E+03  0.00000000000E+00 0.  1.
          3    1    3    3  501    0 -0.16086931463E+03  0.16802014118E+02 -0.31502079274E+03  0.35411769785E+03  0.00000000000E+00 0.  1.
         21    1    1    2  502  501 -0.95271619714E+01  0.52158251809E+02 -0.92524272450E+02  0.10663953788E+03  0.00000000000E+00 0.  1.
<mgrwt>
<rscale>  1 0.30000000E+03</rscale>
<asrwt>0</asrwt>
<pdfrwt beam="1">  1        1 0.15103739E+00 0.30000000E+03</pdfrwt>
<pdfrwt beam="2">0</pdfrwt>
<totfact> 0.17748379E+01</totfact>
</mgrwt>
</event>
<event>
 6    1  0.1839160E-004  0.3000000E+03  0.7818608E-02  0.1093470E+00
          1   -1    0    0  502    0  0.00000000000E+00  0.00000000000E+00  0.28493466024E+02  0.28493466024E+02  0.00000000000E+00 0.  1.
         13   -1    0    0    0    0 -0.00000000000E+00 -0.00000000000E+00 -0.10000000000E+04  0.10000000000E+04  0.00000000000E+00 0.  1.
    9000005    2    1    2  501    0  0.77716831494E+01 -0.47269175018E+01 -0.91969628179E+03  0.97589075659E+03  0.32624955978E+03 0.  0.
         13    1    3    3    0    0  0.51133856305E+02 -0.56612656361E+01  0.36039527185E+01  0.51572373074E+02  0.00000000000E+00 0.  1.
          3    1    3    3  501    0 -0.43362173156E+02  0.93434813430E+00 -0.92330023451E+03  0.92431838352E+03  0.00000000000E+00 0.  1.
         21    1    1    2  502  501 -0.77716831494E+01  0.47269175018E+01 -0.51810252188E+02  0.52602709435E+02  0.00000000000E+00 0. -1.
<mgrwt>
<rscale>  1 0.30000000E+03</rscale>
<asrwt>0</asrwt>
<pdfrwt beam="1">  1        1 0.10361282E+00 0.30000000E+03</pdfrwt>
<pdfrwt beam="2">0</pdfrwt>
<totfact> 0.32486725E+01</totfact>
</mgrwt>
</event>
<event>
 6    1  0.1839160E-004  0.3000000E+03  0.7818608E-02  0.1093470E+00
          1   -1    0    0  502    0  0.00000000000E+00  0.00000000000E+00  0.40614708703E+02  0.40614708703E+02  0.00000000000E+00 0.  1.
         13   -1    0    0    0    0 -0.00000000000E+00 -0.00000000000E+00 -0.10000000000E+04  0.10000000000E+04  0.00000000000E+00 0.  1.
    9000005    2    1    2  501    0 -0.17850741934E+02  0.15868095478E+02 -0.96360193850E+03  0.10163613470E+04  0.32232165036E+03 0.  0.
         13    1    3    3    0    0  0.68227125355E+02 -0.11736158065E+03 -0.24146191772E+03  0.27700638793E+03  0.00000000000E+00 0.  1.
          3    1    3    3  501    0 -0.86077867289E+02  0.13322967613E+03 -0.72214002078E+03  0.73935495904E+03  0.00000000000E+00 0.  1.
         21    1    1    2  502  501  0.17850741934E+02 -0.15868095478E+02  0.42166472038E+01  0.24253361733E+02  0.00000000000E+00 0.  1.
<mgrwt>
<rscale>  1 0.30000000E+03</rscale>
<asrwt>0</asrwt>
<pdfrwt beam="1">  1        1 0.14769016E+00 0.30000000E+03</pdfrwt>
<pdfrwt beam="2">0</pdfrwt>
<totfact> 0.18459078E+01</totfact>
</mgrwt>
</event>
<event>
 6    1  0.1839160E-004  0.3000000E+03  0.7818608E-02  0.1093470E+00
          1   -1    0    0  502    0  0.00000000000E+00  0.00000000000E+00  0.30065507784E+02  0.30065507784E+02  0.00000000000E+00 0.  1.
         13   -1    0    0    0    0 -0.00000000000E+00 -0.00000000000E+00 -0.10000000000E+04  0.10000000000E+04  0.00000000000E+00 0.  1.
    9000005    2    1    2  501    0 -0.35887940956E+01  0.14310390165E+02 -0.97302482414E+03  0.10149917935E+04  0.28846726998E+03 0.  0.
         13    1    3    3    0    0 -0.37579124995E+02  0.52002089417E+01 -0.97862403656E+03  0.97935909540E+03  0.00000000000E+00 0.  1.
          3    1    3    3  501    0  0.33990330900E+02  0.91101812236E+01  0.55992124251E+01  0.35632698135E+02  0.00000000000E+00 0.  1.
         21    1    1    2  502  501  0.35887940956E+01 -0.14310390165E+02  0.30903319232E+01  0.15073714245E+02  0.00000000000E+00 0.  1.
<mgrwt>
<rscale>  1 0.30000000E+03</rscale>
<asrwt>0</asrwt>
<pdfrwt beam="1">  1        1 0.10932935E+00 0.30000000E+03</pdfrwt>
<pdfrwt beam="2">0</pdfrwt>
<totfact> 0.29984893E+01</totfact>
</mgrwt>
</event>
<event>
 6    1  0.1839160E-004  0.3000000E+03  0.7818608E-02  0.1093470E+00
          1   -1    0    0  502    0  0.00000000000E+00  0.00000000000E+00  0.28729136341E+02  0.28729136341E+02  0.00000000000E+00 0.  1.
         13   -1    0    0    0    0 -0.00000000000E+00 -0.00000000000E+00 -0.10000000000E+04  0.10000000000E+04  0.00000000000E+00 0.  1.
    9000005    2    1    2  501    0 -0.44032151829E+01  0.12161565911E+02 -0.94754713400E+03  0.10017086379E+04  0.32466495348E+03 0.  0.
         13    1    3    3    0    0  0.10522193666E+02  0.11205618020E+03 -0.86208358480E+03  0.86939945437E+03  0.00000000000E+00 0.  1.
          3    1    3    3  501    0 -0.14925408849E+02 -0.99894614289E+02 -0.85463549203E+02  0.13230918349E+03  0.00000000000E+00 0.  1.
         21    1    1    2  502  501  0.44032151829E+01 -0.12161565911E+02 -0.23723729656E+02  0.27020498481E+02  0.00000000000E+00 0.  1.
<mgrwt>
<rscale>  1 0.30000000E+03</rscale>
<asrwt>0</asrwt>
<pdfrwt beam="1">  1        1 0.10446981E+00 0.30000000E+03</pdfrwt>
<pdfrwt beam="2">0</pdfrwt>
<totfact> 0.32092911E+01</totfact>
</mgrwt>
</event>
<event>
 6    1  0.1839160E-004  0.3000000E+03  0.7818608E-02  0.1093470E+00
          1   -1    0    0  502    0  0.00000000000E+00  0.00000000000E+00  0.34634728240E+02  0.34634728240E+02  0.00000000000E+00 0.  1.
         13   -1    0    0    0    0 -0.00000000000E+00 -0.00000000000E+00 -0.10000000000E+04  0.10000000000E+04  0.00000000000E+00 0.  1.
    9000005    2    1    2  501    0  0.74074263390E+01 -0.12263014110E+02 -0.95723177896E+03  0.10181603486E+04  0.34663030059E+03 0.  0.
         13    1    3    3    0    0  0.51835710044E+02 -0.49181912497E+02 -0.13569804366E+02  0.72731980195E+02  0.00000000000E+00 0.  1.
          1    1    3    3  501    0 -0.44428283705E+02  0.36918898388E+02 -0.94366197460E+03  0.94542836839E+03  0.00000000000E+00 0.  1.
         21    1    1    2  502  501 -0.74074263390E+01  0.12263014110E+02 -0.81334927966E+01  0.16474379657E+02  0.00000000000E+00 0.  1.
<mgrwt>
<rscale>  1 0.30000000E+03</rscale>
<asrwt>0</asrwt>
<pdfrwt beam="1">  1        1 0.12594473E+00 0.30000000E+03</pdfrwt>
<pdfrwt beam="2">0</pdfrwt>
<totfact> 0.24082260E+01</totfact>
</mgrwt>
</event>
<event>
 6    1  0.1839160E-004  0.3000000E+03  0.7818608E-02  0.1093470E+00
          1   -1    0    0  502    0  0.00000000000E+00  0.00000000000E+00  0.34758472791E+02  0.34758472791E+02  0.00000000000E+00 0.  1.
         13   -1    0    0    0    0 -0.00000000000E+00 -0.00000000000E+00 -0.10000000000E+04  0.10000000000E+04  0.00000000000E+00 0.  1.
    9000005    2    1    2  501    0  0.73441435420E+01  0.18501283618E+02 -0.95754412079E+03  0.10134164015E+04  0.33124888786E+03 0.  0.
         13    1    3    3    0    0  0.50753172391E+02 -0.51927309039E+02 -0.91948983024E+03  0.92235236100E+03  0.00000000000E+00 0.  1.
          1    1    3    3  501    0 -0.43409028849E+02  0.70428592656E+02 -0.38054290546E+02  0.91064040533E+02  0.00000000000E+00 0.  1.
         21    1    1    2  502  501 -0.73441435420E+01 -0.18501283618E+02 -0.76974064227E+01  0.21342071256E+02  0.00000000000E+00 0.  1.
<mgrwt>
<rscale>  1 0.30000000E+03</rscale>
<asrwt>0</asrwt>
<pdfrwt beam="1">  1        1 0.12639471E+00 0.30000000E+03</pdfrwt>
<pdfrwt beam="2">0</pdfrwt>
<totfact> 0.23944891E+01</totfact>
</mgrwt>
</event>
<event>
 6    1  0.1839160E-004  0.3000000E+03  0.7818608E-02  0.1093470E+00
          1   -1    0    0  502    0  0.00000000000E+00  0.00000000000E+00  0.29850253036E+02  0.29850253036E+02  0.00000000000E+00 0.  1.
         13   -1    0    0    0    0 -0.00000000000E+00 -0.00000000000E+00 -0.10000000000E+04  0.10000000000E+04  0.00000000000E+00 0.  1.
    9000005    2    1    2  501    0  0.60604604609E+01  0.75629824161E+01 -0.96045770319E+03  0.10161439189E+04  0.33162559662E+03 0.  0.
         13    1    3    3    0    0 -0.92881932259E+02  0.54038192220E+02 -0.93855888090E+02  0.14267483060E+03  0.00000000000E+00 0.  1.
          1    1    3    3  501    0  0.98942392720E+02 -0.46475209803E+02 -0.86660181510E+03  0.87346908826E+03  0.00000000000E+00 0.  1.
         21    1    1    2  502  501 -0.60604604609E+01 -0.75629824161E+01 -0.96920437705E+01  0.13706334173E+02  0.00000000000E+00 0. -1.
<mgrwt>
<rscale>  1 0.30000000E+03</rscale>
<asrwt>0</asrwt>
<pdfrwt beam="1">  1        1 0.10854660E+00 0.30000000E+03</pdfrwt>
<pdfrwt beam="2">0</pdfrwt>
<totfact> 0.30310765E+01</totfact>
</mgrwt>
</event>
<event>
 6    1  0.1839160E-004  0.3000000E+03  0.7818608E-02  0.1093470E+00
          3   -1    0    0  502    0  0.00000000000E+00  0.00000000000E+00  0.40143534310E+02  0.40143534310E+02  0.00000000000E+00 0.  1.
         13   -1    0    0    0    0 -0.00000000000E+00 -0.00000000000E+00 -0.10000000000E+04  0.10000000000E+04  0.00000000000E+00 0.  1.
    9000005    2    1    2  501    0 -0.11585427310E+02  0.11597084882E+01 -0.96563107476E+03  0.10271468748E+04  0.34993108280E+03 0.  0.
         13    1    3    3    0    0 -0.11296036266E+03  0.38469704889E+02 -0.10257888987E+03  0.15736070149E+03  0.00000000000E+00 0.  1.
          1    1    3    3  501    0  0.10137493535E+03 -0.37309996401E+02 -0.86305218490E+03  0.86978617326E+03  0.00000000000E+00 0.  1.
         21    1    1    2  502  501  0.11585427310E+02 -0.11597084882E+01  0.57746090733E+01  0.12996659558E+02  0.00000000000E+00 0. -1.
<mgrwt>
<rscale>  1 0.30000000E+03</rscale>
<asrwt>0</asrwt>
<pdfrwt beam="1">  1        3 0.14597680E+00 0.30000000E+03</pdfrwt>
<pdfrwt beam="2">0</pdfrwt>
<totfact> 0.11214433E+00</totfact>
</mgrwt>
</event>
<event>
 6    1  0.1839160E-004  0.3000000E+03  0.7818608E-02  0.1093470E+00
          1   -1    0    0  502    0  0.00000000000E+00  0.00000000000E+00  0.37713713938E+02  0.37713713938E+02  0.00000000000E+00 0.  1.
         13   -1    0    0    0    0 -0.00000000000E+00 -0.00000000000E+00 -0.10000000000E+04  0.10000000000E+04  0.00000000000E+00 0.  1.
    9000005    2    1    2  501    0 -0.46832263470E+01  0.16755530781E+02 -0.96537043676E+03  0.10200447466E+04  0.32901143521E+03 0.  0.
         13    1    3    3    0    0  0.10987556827E+03  0.12523033338E+03 -0.40602399655E+03  0.43887442700E+03  0.00000000000E+00 0.  1.
          3    1    3    3  501    0 -0.11455879462E+03 -0.10847480259E+03 -0.55934644021E+03  0.58117031962E+03  0.00000000000E+00 0.  1.
         21    1    1    2  502  501  0.46832263470E+01 -0.16755530781E+02  0.30841507012E+01  0.17668967324E+02  0.00000000000E+00 0.  1.
<mgrwt>
<rscale>  1 0.30000000E+03</rscale>
<asrwt>0</asrwt>
<pdfrwt beam="1">  1        1 0.13714107E+00 0.30000000E+03</pdfrwt>
<pdfrwt beam="2">0</pdfrwt>
<totfact> 0.20946293E+01</totfact>
</mgrwt>
</event>
<event>
 6    1  0.1839160E-004  0.3000000E+03  0.7818608E-02  0.1093470E+00
          3   -1    0    0  502    0  0.00000000000E+00  0.00000000000E+00  0.30743880634E+02  0.30743880634E+02  0.00000000000E+00 0.  1.
         13   -1    0    0    0    0 -0.00000000000E+00 -0.00000000000E+00 -0.10000000000E+04  0.10000000000E+04  0.00000000000E+00 0.  1.
    9000005    2    1    2  501    0 -0.63104281290E+01 -0.11553894468E+02 -0.95827335808E+03  0.10135993472E+04  0.33003407990E+03 0.  0.
         13    1    3    3    0    0  0.73515533985E+02  0.13931459174E+03 -0.51703249701E+03  0.54049578368E+03  0.00000000000E+00 0.  1.
          3    1    3    3  501    0 -0.79825962114E+02 -0.15086848621E+03 -0.44124086107E+03  0.47310356354E+03  0.00000000000E+00 0.  1.
         21    1    1    2  502  501  0.63104281290E+01  0.11553894468E+02 -0.10982761282E+02  0.17144533412E+02  0.00000000000E+00 0.  1.
<mgrwt>
<rscale>  1 0.30000000E+03</rscale>
<asrwt>0</asrwt>
<pdfrwt beam="1">  1        3 0.11179617E+00 0.30000000E+03</pdfrwt>
<pdfrwt beam="2">0</pdfrwt>
<totfact> 0.28747726E+00</totfact>
</mgrwt>
</event>
<event>
 6    1  0.1839160E-004  0.3000000E+03  0.7818608E-02  0.1093470E+00
          1   -1    0    0  502    0  0.00000000000E+00  0.00000000000E+00  0.44227107028E+02  0.44227107028E+02  0.00000000000E+00 0.  1.
         13   -1    0    0    0    0 -0.00000000000E+00 -0.00000000000E+00 -0.10000000000E+04  0.10000000000E+04  0.00000000000E+00 0.  1.
    9000005    2    1    2  501    0 -0.13276451474E+02  0.22246299240E+02 -0.96673874752E+03  0.10160950620E+04  0.31175985471E+03 0.  0.
         13    1    3    3    0    0 -0.15249798436E+03 -0.32139823229E+02 -0.38229636278E+03  0.41284272122E+03  0.00000000000E+00 0.  1.
          1    1    3    3  501    0  0.13922153289E+03  0.54386122469E+02 -0.58444238473E+03  0.60325234074E+03  0.00000000000E+00 0.  1.
         21    1    1    2  502  501  0.13276451474E+02 -0.22246299240E+02  0.10965854543E+02  0.28132045064E+02  0.00000000000E+00 0. -1.
<mgrwt>
<rscale>  1 0.30000000E+03</rscale>
<asrwt>0</asrwt>
<pdfrwt beam="1">  1        1 0.16082618E+00 0.30000000E+03</pdfrwt>
<pdfrwt beam="2">0</pdfrwt>
<totfact> 0.15852637E+01</totfact>
</mgrwt>
</event>
<event>
 6    1  0.1839160E-004  0.3000000E+03  0.7818608E-02  0.1093470E+00
          1   -1    0    0  502    0  0.00000000000E+00  0.00000000000E+00  0.43552329967E+02  0.43552329967E+02  0.00000000000E+00 0.  1.
         13   -1    0    0    0    0 -0.00000000000E+00 -0.00000000000E+00 -0.10000000000E+04  0.10000000000E+04  0.00000000000E+00 0.  1.
    9000005    2    1    2  501    0  0.44203725104E+02 -0.45087899744E+02 -0.91323171717E+03  0.96703758238E+03  0.31174128452E+03 0.  0.
         13    1    3    3    0    0 -0.48084742417E+02  0.89581393967E+02 -0.64548773445E+03  0.65344577734E+03  0.00000000000E+00 0.  1.
          1    1    3    3  501    0  0.92288467521E+02 -0.13466929371E+03 -0.26774398271E+03  0.31359180504E+03  0.00000000000E+00 0.  1.
         21    1    1    2  502  501 -0.44203725104E+02  0.45087899744E+02 -0.43215952866E+02  0.76514747588E+02  0.00000000000E+00 0.  1.
<mgrwt>
<rscale>  1 0.30000000E+03</rscale>
<asrwt>0</asrwt>
<pdfrwt beam="1">  1        1 0.15837244E+00 0.30000000E+03</pdfrwt>
<pdfrwt beam="2">0</pdfrwt>
<totfact> 0.16304246E+01</totfact>
</mgrwt>
</event>
<event>
 6    1  0.1839160E-004  0.3000000E+03  0.7818608E-02  0.1093470E+00
          1   -1    0    0  502    0  0.00000000000E+00  0.00000000000E+00  0.28450952623E+02  0.28450952623E+02  0.00000000000E+00 0.  1.
         13   -1    0    0    0    0 -0.00000000000E+00 -0.00000000000E+00 -0.10000000000E+04  0.10000000000E+04  0.00000000000E+00 0.  1.
    9000005    2    1    2  501    0 -0.10905916246E+02  0.50533513587E+01 -0.95376503106E+03  0.10069859438E+04  0.32281338431E+03 0.  0.
         13    1    3    3    0    0 -0.10840656124E+02  0.37215329409E+02 -0.97012706355E+03  0.97090113812E+03  0.00000000000E+00 0.  1.
          1    1    3    3  501    0 -0.65260121976E-01 -0.32161978051E+02  0.16362032490E+02  0.36084805642E+02  0.00000000000E+00 0.  1.
         21    1    1    2  502  501  0.10905916246E+02 -0.50533513587E+01 -0.17784016314E+02  0.21465008860E+02  0.00000000000E+00 0.  1.
<mgrwt>
<rscale>  1 0.30000000E+03</rscale>
<asrwt>0</asrwt>
<pdfrwt beam="1">  1        1 0.10345823E+00 0.30000000E+03</pdfrwt>
<pdfrwt beam="2">0</pdfrwt>
<totfact> 0.32558513E+01</totfact>
</mgrwt>
</event>
<event>
 6    1  0.1839160E-004  0.3000000E+03  0.7818608E-02  0.1093470E+00
          1   -1    0    0  502    0  0.00000000000E+00  0.00000000000E+00  0.58849571593E+02  0.58849571593E+02  0.00000000000E+00 0.  1.
         13   -1    0    0    0    0 -0.00000000000E+00 -0.00000000000E+00 -0.10000000000E+04  0.10000000000E+04  0.00000000000E+00 0.  1.
    9000005    2    1    2  501    0  0.16710637131E+02 -0.92666446470E+01 -0.96933994752E+03  0.10247942477E+04  0.33199126526E+03 0.  0.
         13    1    3    3    0    0  0.13217970517E+03 -0.97996536716E+02 -0.32591972381E+03  0.36510061906E+03  0.00000000000E+00 0.  1.
          3    1    3    3  501    0 -0.11546906804E+03  0.88729892069E+02 -0.64342022370E+03  0.65969362866E+03  0.00000000000E+00 0.  1.
         21    1    1    2  502  501 -0.16710637131E+02  0.92666446470E+01  0.28189519112E+02  0.34055323873E+02  0.00000000000E+00 0.  1.
<mgrwt>
<rscale>  1 0.30000000E+03</rscale>
<asrwt>0</asrwt>
<pdfrwt beam="1">  1        1 0.21399889E+00 0.30000000E+03</pdfrwt>
<pdfrwt beam="2">0</pdfrwt>
<totfact> 0.87957239E+00</totfact>
</mgrwt>
</event>
<event>
 6    1  0.1839160E-004  0.3000000E+03  0.7818608E-02  0.1093470E+00
          1   -1    0    0  502    0  0.00000000000E+00  0.00000000000E+00  0.37579109727E+02  0.37579109727E+02  0.00000000000E+00 0.  1.
         13   -1    0    0    0    0 -0.00000000000E+00 -0.00000000000E+00 -0.10000000000E+04  0.10000000000E+04  0.00000000000E+00 0.  1.
    9000005    2    1    2  501    0 -0.18738074490E+01  0.39891171013E+02 -0.92617792570E+03  0.98364981194E+03  0.32888688905E+03 0.  0.
         13    1    3    3    0    0  0.64804468103E+02  0.16146345246E+03 -0.67149727610E+03  0.69367042417E+03  0.00000000000E+00 0.  1.
          1    1    3    3  501    0 -0.66678275552E+02 -0.12157228145E+03 -0.25468064960E+03  0.28997938776E+03  0.00000000000E+00 0.  1.
         21    1    1    2  502  501  0.18738074490E+01 -0.39891171013E+02 -0.36242964573E+02  0.53929297790E+02  0.00000000000E+00 0.  1.
<mgrwt>
<rscale>  1 0.30000000E+03</rscale>
<asrwt>0</asrwt>
<pdfrwt beam="1">  1        1 0.13665160E+00 0.30000000E+03</pdfrwt>
<pdfrwt beam="2">0</pdfrwt>
<totfact> 0.21071763E+01</totfact>
</mgrwt>
</event>
<event>
 6    1  0.1839160E-004  0.3000000E+03  0.7818608E-02  0.1093470E+00
          1   -1    0    0  502    0  0.00000000000E+00  0.00000000000E+00  0.30257834083E+02  0.30257834083E+02  0.00000000000E+00 0.  1.
         13   -1    0    0    0    0 -0.00000000000E+00 -0.00000000000E+00 -0.10000000000E+04  0.10000000000E+04  0.00000000000E+00 0.  1.
    9000005    2    1    2  501    0  0.11797047555E+02  0.14148752518E+02 -0.95371627449E+03  0.10058408989E+04  0.31906398120E+03 0.  0.
         13    1    3    3    0    0 -0.68960387741E+02  0.94593662966E+02 -0.13271930163E+03  0.17696866721E+03  0.00000000000E+00 0.  1.
          3    1    3    3  501    0  0.80757435296E+02 -0.80444910448E+02 -0.82099697286E+03  0.82887223167E+03  0.00000000000E+00 0.  1.
         21    1    1    2  502  501 -0.11797047555E+02 -0.14148752518E+02 -0.16025891426E+02  0.24416935206E+02  0.00000000000E+00 0.  1.
<mgrwt>
<rscale>  1 0.30000000E+03</rscale>
<asrwt>0</asrwt>
<pdfrwt beam="1">  1        1 0.11002872E+00 0.30000000E+03</pdfrwt>
<pdfrwt beam="2">0</pdfrwt>
<totfact> 0.29697935E+01</totfact>
</mgrwt>
</event>
<event>
 6    1  0.1839160E-004  0.3000000E+03  0.7818608E-02  0.1093470E+00
          1   -1    0    0  502    0  0.00000000000E+00  0.00000000000E+00  0.35616852341E+02  0.35616852341E+02  0.00000000000E+00 0.  1.
         13   -1    0    0    0    0 -0.00000000000E+00 -0.00000000000E+00 -0.10000000000E+04  0.10000000000E+04  0.00000000000E+00 0.  1.
    9000005    2    1    2  501    0  0.91762676745E+01  0.30224959940E+02 -0.93686539436E+03  0.99372438478E+03  0.32980848028E+03 0.  0.
         13    1    3    3    0    0 -0.28529044843E+02 -0.14716602154E+03 -0.41472870907E+03  0.44098939491E+03  0.00000000000E+00 0.  1.
          3    1    3    3  501    0  0.37705312517E+02  0.17739098148E+03 -0.52213668529E+03  0.55273498987E+03  0.00000000000E+00 0.  1.
         21    1    1    2  502  501 -0.91762676745E+01 -0.30224959940E+02 -0.27517753298E+02  0.41892467562E+02  0.00000000000E+00 0.  1.
<mgrwt>
<rscale>  1 0.30000000E+03</rscale>
<asrwt>0</asrwt>
<pdfrwt beam="1">  1        1 0.12951610E+00 0.30000000E+03</pdfrwt>
<pdfrwt beam="2">0</pdfrwt>
<totfact> 0.23019134E+01</totfact>
</mgrwt>
</event>
<event>
 6    1  0.1839160E-004  0.3000000E+03  0.7818608E-02  0.1093470E+00
          1   -1    0    0  502    0  0.00000000000E+00  0.00000000000E+00  0.28805483771E+02  0.28805483771E+02  0.00000000000E+00 0.  1.
         13   -1    0    0    0    0 -0.00000000000E+00 -0.00000000000E+00 -0.10000000000E+04  0.10000000000E+04  0.00000000000E+00 0.  1.
    9000005    2    1    2  501    0 -0.97684225700E+01 -0.26987714494E+02 -0.91582037537E+03  0.96643518404E+03  0.30732107996E+03 0.  0.
         13    1    3    3    0    0  0.14531301382E+03 -0.11282481958E+02 -0.34071953443E+03  0.37058462937E+03  0.00000000000E+00 0.  1.
          1    1    3    3  501    0 -0.15508143639E+03 -0.15705232536E+02 -0.57510084094E+03  0.59585055467E+03  0.00000000000E+00 0.  1.
         21    1    1    2  502  501  0.97684225700E+01  0.26987714494E+02 -0.55374140858E+02  0.62370299734E+02  0.00000000000E+00 0.  1.
<mgrwt>
<rscale>  1 0.30000000E+03</rscale>
<asrwt>0</asrwt>
<pdfrwt beam="1">  1        1 0.10474743E+00 0.30000000E+03</pdfrwt>
<pdfrwt beam="2">0</pdfrwt>
<totfact> 0.31966816E+01</totfact>
</mgrwt>
</event>
<event>
 6    1  0.1839160E-004  0.3000000E+03  0.7818608E-02  0.1093470E+00
          1   -1    0    0  502    0  0.00000000000E+00  0.00000000000E+00  0.32225517682E+02  0.32225517682E+02  0.00000000000E+00 0.  1.
         13   -1    0    0    0    0 -0.00000000000E+00 -0.00000000000E+00 -0.10000000000E+04  0.10000000000E+04  0.00000000000E+00 0.  1.
    9000005    2    1    2  501    0  0.11418037014E+02 -0.64543712073E+01 -0.96255525132E+03  0.10181091850E+04  0.33145387342E+03 0.  0.
         13    1    3    3    0    0 -0.15783977578E+03  0.10146798135E+01 -0.38167127639E+03  0.41302226044E+03  0.00000000000E+00 0.  1.
          1    1    3    3  501    0  0.16925781279E+03 -0.74690510208E+01 -0.58088397493E+03  0.60508692454E+03  0.00000000000E+00 0.  1.
         21    1    1    2  502  501 -0.11418037014E+02  0.64543712073E+01 -0.52192309949E+01  0.14116332707E+02  0.00000000000E+00 0. -1.
<mgrwt>
<rscale>  1 0.30000000E+03</rscale>
<asrwt>0</asrwt>
<pdfrwt beam="1">  1        1 0.11718395E+00 0.30000000E+03</pdfrwt>
<pdfrwt beam="2">0</pdfrwt>
<totfact> 0.26973230E+01</totfact>
</mgrwt>
</event>
<event>
 6    1  0.1839160E-004  0.3000000E+03  0.7818608E-02  0.1093470E+00
          1   -1    0    0  502    0  0.00000000000E+00  0.00000000000E+00  0.33764627543E+02  0.33764627543E+02  0.00000000000E+00 0.  1.
         13   -1    0    0    0    0 -0.00000000000E+00 -0.00000000000E+00 -0.10000000000E+04  0.10000000000E+04  0.00000000000E+00 0.  1.
    9000005    2    1    2  501    0 -0.57948912166E+01 -0.13232037811E+02 -0.96703679510E+03  0.10192970822E+04  0.32186598330E+03 0.  0.
         13    1    3    3    0    0 -0.45936484511E+02 -0.11692600483E+03 -0.15422539950E+03  0.19891537162E+03  0.00000000000E+00 0.  1.
          3    1    3    3  501    0  0.40141593294E+02  0.10369396702E+03 -0.81281139560E+03  0.82038171062E+03  0.00000000000E+00 0.  1.
         21    1    1    2  502  501  0.57948912166E+01  0.13232037811E+02  0.80142263923E+00  0.14467545303E+02  0.00000000000E+00 0. -1.
<mgrwt>
<rscale>  1 0.30000000E+03</rscale>
<asrwt>0</asrwt>
<pdfrwt beam="1">  1        1 0.12278072E+00 0.30000000E+03</pdfrwt>
<pdfrwt beam="2">0</pdfrwt>
<totfact> 0.25077082E+01</totfact>
</mgrwt>
</event>
<event>
 6    1  0.1839160E-004  0.3000000E+03  0.7818608E-02  0.1093470E+00
          1   -1    0    0  502    0  0.00000000000E+00  0.00000000000E+00  0.28722557163E+02  0.28722557163E+02  0.00000000000E+00 0.  1.
         13   -1    0    0    0    0 -0.00000000000E+00 -0.00000000000E+00 -0.10000000000E+04  0.10000000000E+04  0.00000000000E+00 0.  1.
    9000005    2    1    2  501    0 -0.12918148839E+01  0.97186939543E+01 -0.95788278745E+03  0.10121232020E+04  0.32673815174E+03 0.  0.
         13    1    3    3    0    0  0.13839823137E+03 -0.67572991911E+02 -0.61348407921E+03  0.63252106299E+03  0.00000000000E+00 0.  1.
          3    1    3    3  501    0 -0.13969004626E+03  0.77291685866E+02 -0.34439870824E+03  0.37960213904E+03  0.00000000000E+00 0.  1.
         21    1    1    2  502  501  0.12918148839E+01 -0.97186939543E+01 -0.13394655389E+02  0.16599355134E+02  0.00000000000E+00 0. -1.
<mgrwt>
<rscale>  1 0.30000000E+03</rscale>
<asrwt>0</asrwt>
<pdfrwt beam="1">  1        1 0.10444588E+00 0.30000000E+03</pdfrwt>
<pdfrwt beam="2">0</pdfrwt>
<totfact> 0.32103810E+01</totfact>
</mgrwt>
</event>
<event>
 6    1  0.1839160E-004  0.3000000E+03  0.7818608E-02  0.1093470E+00
          1   -1    0    0  502    0  0.00000000000E+00  0.00000000000E+00  0.37604642903E+02  0.37604642903E+02  0.00000000000E+00 0.  1.
         13   -1    0    0    0    0 -0.00000000000E+00 -0.00000000000E+00 -0.10000000000E+04  0.10000000000E+04  0.00000000000E+00 0.  1.
    9000005    2    1    2  501    0 -0.31331942110E+02  0.29948642481E+02 -0.92968302739E+03  0.98330263283E+03  0.31732463587E+03 0.  0.
         13    1    3    3    0    0 -0.14645907982E+03  0.10667114607E+03 -0.49391223371E+03  0.52609722492E+03  0.00000000000E+00 0.  1.
          3    1    3    3  501    0  0.11512713771E+03 -0.76722503585E+02 -0.43577079369E+03  0.45720540791E+03  0.00000000000E+00 0.  1.
         21    1    1    2  502  501  0.31331942110E+02 -0.29948642481E+02 -0.32712329703E+02  0.54302010069E+02  0.00000000000E+00 0.  1.
<mgrwt>
<rscale>  1 0.30000000E+03</rscale>
<asrwt>0</asrwt>
<pdfrwt beam="1">  1        1 0.13674444E+00 0.30000000E+03</pdfrwt>
<pdfrwt beam="2">0</pdfrwt>
<totfact> 0.21047889E+01</totfact>
</mgrwt>
</event>
<event>
 6    1  0.1839160E-004  0.3000000E+03  0.7818608E-02  0.1093470E+00
          1   -1    0    0  502    0  0.00000000000E+00  0.00000000000E+00  0.32569376531E+02  0.32569376531E+02  0.00000000000E+00 0.  1.
         13   -1    0    0    0    0 -0.00000000000E+00 -0.00000000000E+00 -0.10000000000E+04  0.10000000000E+04  0.00000000000E+00 0.  1.
    9000005    2    1    2  501    0  0.23612642340E+02 -0.67903774964E+01 -0.94533441041E+03  0.99952533416E+03  0.32371295929E+03 0.  0.
         13    1    3    3    0    0 -0.75007274587E+02  0.12335450655E+03 -0.60582342777E+03  0.62278764532E+03  0.00000000000E+00 0.  1.
          1    1    3    3  501    0  0.98619916926E+02 -0.13014488404E+03 -0.33951098264E+03  0.37673768884E+03  0.00000000000E+00 0.  1.
         21    1    1    2  502  501 -0.23612642340E+02  0.67903774964E+01 -0.22096213055E+02  0.33044042370E+02  0.00000000000E+00 0.  1.
<mgrwt>
<rscale>  1 0.30000000E+03</rscale>
<asrwt>0</asrwt>
<pdfrwt beam="1">  1        1 0.11843435E+00 0.30000000E+03</pdfrwt>
<pdfrwt beam="2">0</pdfrwt>
<totfact> 0.26533271E+01</totfact>
</mgrwt>
</event>
<event>
 6    1  0.1839160E-004  0.3000000E+03  0.7818608E-02  0.1093470E+00
          1   -1    0    0  502    0  0.00000000000E+00  0.00000000000E+00  0.41923246002E+02  0.41923246002E+02  0.00000000000E+00 0.  1.
         13   -1    0    0    0    0 -0.00000000000E+00 -0.00000000000E+00 -0.10000000000E+04  0.10000000000E+04  0.00000000000E+00 0.  1.
    9000005    2    1    2  501    0  0.35233599194E+01 -0.14858508773E+02 -0.97195656252E+03  0.10212873929E+04  0.31320151685E+03 0.  0.
         13    1    3    3    0    0 -0.42371830836E+02  0.14157005881E+02 -0.96558382734E+03  0.96661673919E+03  0.00000000000E+00 0.  1.
          1    1    3    3  501    0  0.45895190755E+02 -0.29015514654E+02 -0.63727351786E+01  0.54670653725E+02  0.00000000000E+00 0.  1.
         21    1    1    2  502  501 -0.35233599194E+01  0.14858508773E+02  0.13879808520E+02  0.20635853087E+02  0.00000000000E+00 0. -1.
<mgrwt>
<rscale>  1 0.30000000E+03</rscale>
<asrwt>0</asrwt>
<pdfrwt beam="1">  1        1 0.15244849E+00 0.30000000E+03</pdfrwt>
<pdfrwt beam="2">0</pdfrwt>
<totfact> 0.17458910E+01</totfact>
</mgrwt>
</event>
<event>
 6    1  0.1839160E-004  0.3000000E+03  0.7818608E-02  0.1093470E+00
          1   -1    0    0  502    0  0.00000000000E+00  0.00000000000E+00  0.38476634439E+02  0.38476634439E+02  0.00000000000E+00 0.  1.
         13   -1    0    0    0    0 -0.00000000000E+00 -0.00000000000E+00 -0.10000000000E+04  0.10000000000E+04  0.00000000000E+00 0.  1.
    9000005    2    1    2  501    0  0.31202873153E+02 -0.25696329846E+02 -0.94045600265E+03  0.99289424266E+03  0.31582837668E+03 0.  0.
         13    1    3    3    0    0  0.11221971486E+03  0.26698471067E+02 -0.85875133821E+03  0.86646404059E+03  0.00000000000E+00 0.  1.
          3    1    3    3  501    0 -0.81016841707E+02 -0.52394800913E+02 -0.81704664445E+02  0.12643020207E+03  0.00000000000E+00 0.  1.
         21    1    1    2  502  501 -0.31202873153E+02  0.25696329846E+02 -0.21067362907E+02  0.45582391781E+02  0.00000000000E+00 0. -1.
<mgrwt>
<rscale>  1 0.30000000E+03</rscale>
<asrwt>0</asrwt>
<pdfrwt beam="1">  1        1 0.13991533E+00 0.30000000E+03</pdfrwt>
<pdfrwt beam="2">0</pdfrwt>
<totfact> 0.20252929E+01</totfact>
</mgrwt>
</event>
<event>
 6    1  0.1839160E-004  0.3000000E+03  0.7818608E-02  0.1093470E+00
          1   -1    0    0  502    0  0.00000000000E+00  0.00000000000E+00  0.54203230361E+02  0.54203230361E+02  0.00000000000E+00 0.  1.
         13   -1    0    0    0    0 -0.00000000000E+00 -0.00000000000E+00 -0.10000000000E+04  0.10000000000E+04  0.00000000000E+00 0.  1.
    9000005    2    1    2  501    0 -0.49123346888E+02 -0.24775079603E+01 -0.95756198269E+03  0.10036299025E+04  0.29652788939E+03 0.  0.
         13    1    3    3    0    0  0.15927687919E+02 -0.11437881942E+03 -0.75126761132E+03  0.76009159276E+03  0.00000000000E+00 0.  1.
          1    1    3    3  501    0 -0.65051034807E+02  0.11190131146E+03 -0.20629437138E+03  0.24353830971E+03  0.00000000000E+00 0.  1.
         21    1    1    2  502  501  0.49123346888E+02  0.24775079603E+01  0.11765213055E+02  0.50573327885E+02  0.00000000000E+00 0.  1.
<mgrwt>
<rscale>  1 0.30000000E+03</rscale>
<asrwt>0</asrwt>
<pdfrwt beam="1">  1        1 0.19710307E+00 0.30000000E+03</pdfrwt>
<pdfrwt beam="2">0</pdfrwt>
<totfact> 0.10573692E+01</totfact>
</mgrwt>
</event>
<event>
 6    1  0.1839160E-004  0.3000000E+03  0.7818608E-02  0.1093470E+00
          1   -1    0    0  502    0  0.00000000000E+00  0.00000000000E+00  0.32276282939E+02  0.32276282939E+02  0.00000000000E+00 0.  1.
         13   -1    0    0    0    0 -0.00000000000E+00 -0.00000000000E+00 -0.10000000000E+04  0.10000000000E+04  0.00000000000E+00 0.  1.
    9000005    2    1    2  501    0 -0.11030808891E+02  0.18123937954E+01 -0.96821671989E+03  0.10210867089E+04  0.32411338578E+03 0.  0.
         13    1    3    3    0    0 -0.30294072885E+02 -0.14406267819E+01  0.17607499744E+02  0.35068936464E+02  0.00000000000E+00 0.  1.
          1    1    3    3  501    0  0.19263263994E+02  0.32530205773E+01 -0.98582421963E+03  0.98601777241E+03  0.00000000000E+00 0.  1.
         21    1    1    2  502  501  0.11030808891E+02 -0.18123937954E+01  0.49300282912E+00  0.11189574069E+02  0.00000000000E+00 0.  1.
<mgrwt>
<rscale>  1 0.30000000E+03</rscale>
<asrwt>0</asrwt>
<pdfrwt beam="1">  1        1 0.11736855E+00 0.30000000E+03</pdfrwt>
<pdfrwt beam="2">0</pdfrwt>
<totfact> 0.26907652E+01</totfact>
</mgrwt>
</event>
<event>
 6    1  0.1839160E-004  0.3000000E+03  0.7818608E-02  0.1093470E+00
          1   -1    0    0  502    0  0.00000000000E+00  0.00000000000E+00  0.31478614100E+02  0.31478614100E+02  0.00000000000E+00 0.  1.
         13   -1    0    0    0    0 -0.00000000000E+00 -0.00000000000E+00 -0.10000000000E+04  0.10000000000E+04  0.00000000000E+00 0.  1.
    9000005    2    1    2  501    0  0.10630560927E+02 -0.46529004953E+00 -0.96204557822E+03  0.10190222340E+04  0.33579963292E+03 0.  0.
         13    1    3    3    0    0  0.91156268542E+02 -0.36980669097E+02 -0.91226530415E+03  0.91755382422E+03  0.00000000000E+00 0.  1.
          1    1    3    3  501    0 -0.80525707616E+02  0.36515379048E+02 -0.49780274064E+02  0.10146840976E+03  0.00000000000E+00 0.  1.
         21    1    1    2  502  501 -0.10630560927E+02  0.46529004953E+00 -0.64758076837E+01  0.12456380116E+02  0.00000000000E+00 0. -1.
<mgrwt>
<rscale>  1 0.30000000E+03</rscale>
<asrwt>0</asrwt>
<pdfrwt beam="1">  1        1 0.11446793E+00 0.30000000E+03</pdfrwt>
<pdfrwt beam="2">0</pdfrwt>
<totfact> 0.27964222E+01</totfact>
</mgrwt>
</event>
<event>
 6    1  0.1839160E-004  0.3000000E+03  0.7818608E-02  0.1093470E+00
          1   -1    0    0  502    0  0.00000000000E+00  0.00000000000E+00  0.26846369164E+02  0.26846369164E+02  0.00000000000E+00 0.  1.
         13   -1    0    0    0    0 -0.00000000000E+00 -0.00000000000E+00 -0.10000000000E+04  0.10000000000E+04  0.00000000000E+00 0.  1.
    9000005    2    1    2  501    0 -0.22138703718E+01 -0.87943218077E+01 -0.96159901578E+03  0.10121579231E+04  0.31576692808E+03 0.  0.
         13    1    3    3    0    0 -0.98909037307E+02 -0.42557103344E+02 -0.10824521892E+03  0.15267983536E+03  0.00000000000E+00 0.  1.
          3    1    3    3  501    0  0.96695166935E+02  0.33762781536E+02 -0.85335379687E+03  0.85947808777E+03  0.00000000000E+00 0.  1.
         21    1    1    2  502  501  0.22138703718E+01  0.87943218077E+01 -0.11554615051E+02  0.14688446040E+02  0.00000000000E+00 0.  1.
<mgrwt>
<rscale>  1 0.30000000E+03</rscale>
<asrwt>0</asrwt>
<pdfrwt beam="1">  1        1 0.97623366E-01 0.30000000E+03</pdfrwt>
<pdfrwt beam="2">0</pdfrwt>
<totfact> 0.35447488E+01</totfact>
</mgrwt>
</event>
<event>
 6    1  0.1839160E-004  0.3000000E+03  0.7818608E-02  0.1093470E+00
          3   -1    0    0  502    0  0.00000000000E+00  0.00000000000E+00  0.31296622339E+02  0.31296622339E+02  0.00000000000E+00 0.  1.
         13   -1    0    0    0    0 -0.00000000000E+00 -0.00000000000E+00 -0.10000000000E+04  0.10000000000E+04  0.00000000000E+00 0.  1.
    9000005    2    1    2  501    0  0.11663974621E+02  0.35603688018E+01 -0.96747734705E+03  0.10190398821E+04  0.31981422694E+03 0.  0.
         13    1    3    3    0    0  0.66677293469E+02 -0.23811422775E+02 -0.95336907135E+03  0.95599447254E+03  0.00000000000E+00 0.  1.
          1    1    3    3  501    0 -0.55013318847E+02  0.27371791577E+02 -0.14108275697E+02  0.63045409570E+02  0.00000000000E+00 0.  1.
         21    1    1    2  502  501 -0.11663974621E+02 -0.35603688018E+01 -0.12260306140E+01  0.12256740229E+02  0.00000000000E+00 0.  1.
<mgrwt>
<rscale>  1 0.30000000E+03</rscale>
<asrwt>0</asrwt>
<pdfrwt beam="1">  1        3 0.11380614E+00 0.30000000E+03</pdfrwt>
<pdfrwt beam="2">0</pdfrwt>
<totfact> 0.27265886E+00</totfact>
</mgrwt>
</event>
<event>
 6    1  0.1839160E-004  0.3000000E+03  0.7818608E-02  0.1093470E+00
          1   -1    0    0  502    0  0.00000000000E+00  0.00000000000E+00  0.28513961104E+02  0.28513961104E+02  0.00000000000E+00 0.  1.
         13   -1    0    0    0    0 -0.00000000000E+00 -0.00000000000E+00 -0.10000000000E+04  0.10000000000E+04  0.00000000000E+00 0.  1.
    9000005    2    1    2  501    0 -0.76380065679E+01 -0.38170057715E+01 -0.95301485615E+03  0.10081646793E+04  0.32876404288E+03 0.  0.
         13    1    3    3    0    0  0.30863978913E+02  0.58903794569E+02 -0.92808056017E+03  0.93045997677E+03  0.00000000000E+00 0.  1.
          1    1    3    3  501    0 -0.38501985481E+02 -0.62720800341E+02 -0.24934295986E+02  0.77704702545E+02  0.00000000000E+00 0.  1.
         21    1    1    2  502  501  0.76380065679E+01  0.38170057715E+01 -0.18471182741E+02  0.20349281787E+02  0.00000000000E+00 0. -1.
<mgrwt>
<rscale>  1 0.30000000E+03</rscale>
<asrwt>0</asrwt>
<pdfrwt beam="1">  1        1 0.10368735E+00 0.30000000E+03</pdfrwt>
<pdfrwt beam="2">0</pdfrwt>
<totfact> 0.32452199E+01</totfact>
</mgrwt>
</event>
<event>
 6    1  0.1839160E-004  0.3000000E+03  0.7818608E-02  0.1093470E+00
          1   -1    0    0  502    0  0.00000000000E+00  0.00000000000E+00  0.27438373699E+02  0.27438373699E+02  0.00000000000E+00 0.  1.
         13   -1    0    0    0    0 -0.00000000000E+00 -0.00000000000E+00 -0.10000000000E+04  0.10000000000E+04  0.00000000000E+00 0.  1.
    9000005    2    1    2  501    0 -0.11596955924E+02 -0.41961693608E+01 -0.94808782547E+03  0.10000328241E+04  0.31787265872E+03 0.  0.
         13    1    3    3    0    0  0.14560697599E+03  0.40893503843E+02 -0.38381049613E+03  0.41253383747E+03  0.00000000000E+00 0.  1.
          3    1    3    3  501    0 -0.15720393192E+03 -0.45089673204E+02 -0.56427732933E+03  0.58749898658E+03  0.00000000000E+00 0.  1.
         21    1    1    2  502  501  0.11596955924E+02  0.41961693608E+01 -0.24473800836E+02  0.27405549645E+02  0.00000000000E+00 0. -1.
<mgrwt>
<rscale>  1 0.30000000E+03</rscale>
<asrwt>0</asrwt>
<pdfrwt beam="1">  1        1 0.99776115E-01 0.30000000E+03</pdfrwt>
<pdfrwt beam="2">0</pdfrwt>
<totfact> 0.34339261E+01</totfact>
</mgrwt>
</event>
<event>
 6    1  0.1839160E-004  0.3000000E+03  0.7818608E-02  0.1093470E+00
          1   -1    0    0  502    0  0.00000000000E+00  0.00000000000E+00  0.44625299719E+02  0.44625299719E+02  0.00000000000E+00 0.  1.
         13   -1    0    0    0    0 -0.00000000000E+00 -0.00000000000E+00 -0.10000000000E+04  0.10000000000E+04  0.00000000000E+00 0.  1.
    9000005    2    1    2  501    0  0.10619739372E+02  0.62869764987E+01 -0.96491014648E+03  0.10290294775E+04  0.35734824719E+03 0.  0.
         13    1    3    3    0    0  0.91710523002E+02  0.51933917121E+02 -0.63954011701E+02  0.12328044204E+03  0.00000000000E+00 0.  1.
          1    1    3    3  501    0 -0.81090783629E+02 -0.45646940622E+02 -0.90095613477E+03  0.90574903542E+03  0.00000000000E+00 0.  1.
         21    1    1    2  502  501 -0.10619739372E+02 -0.62869764987E+01  0.95354461940E+01  0.15595822260E+02  0.00000000000E+00 0.  1.
<mgrwt>
<rscale>  1 0.30000000E+03</rscale>
<asrwt>0</asrwt>
<pdfrwt beam="1">  1        1 0.16227416E+00 0.30000000E+03</pdfrwt>
<pdfrwt beam="2">0</pdfrwt>
<totfact> 0.15592964E+01</totfact>
</mgrwt>
</event>
<event>
 6    1  0.1839160E-004  0.3000000E+03  0.7818608E-02  0.1093470E+00
          1   -1    0    0  502    0  0.00000000000E+00  0.00000000000E+00  0.36082717443E+02  0.36082717443E+02  0.00000000000E+00 0.  1.
         13   -1    0    0    0    0 -0.00000000000E+00 -0.00000000000E+00 -0.10000000000E+04  0.10000000000E+04  0.00000000000E+00 0.  1.
    9000005    2    1    2  501    0  0.78375917857E+01 -0.51699227522E+01 -0.95702437906E+03  0.10244350539E+04  0.36535374871E+03 0.  0.
         13    1    3    3    0    0 -0.45169265528E+02  0.34650007384E+01  0.17402330149E+02  0.48529474271E+02  0.00000000000E+00 0.  1.
          3    1    3    3  501    0  0.53006857314E+02 -0.86349234906E+01 -0.97442670921E+03  0.97590557967E+03  0.00000000000E+00 0.  1.
         21    1    1    2  502  501 -0.78375917857E+01  0.51699227522E+01 -0.68929035010E+01  0.11647663497E+02  0.00000000000E+00 0.  1.
<mgrwt>
<rscale>  1 0.30000000E+03</rscale>
<asrwt>0</asrwt>
<pdfrwt beam="1">  1        1 0.13121016E+00 0.30000000E+03</pdfrwt>
<pdfrwt beam="2">0</pdfrwt>
<totfact> 0.22536049E+01</totfact>
</mgrwt>
</event>
<event>
 6    1  0.1839160E-004  0.3000000E+03  0.7818608E-02  0.1093470E+00
          1   -1    0    0  502    0  0.00000000000E+00  0.00000000000E+00  0.44258951018E+02  0.44258951018E+02  0.00000000000E+00 0.  1.
         13   -1    0    0    0    0 -0.00000000000E+00 -0.00000000000E+00 -0.10000000000E+04  0.10000000000E+04  0.00000000000E+00 0.  1.
    9000005    2    1    2  501    0  0.14844190210E+02  0.28243395463E+02 -0.95527901626E+03  0.10123488767E+04  0.33357789170E+03 0.  0.
         13    1    3    3    0    0 -0.33724209918E+02  0.90500894227E+02 -0.60225949330E+02  0.11381959042E+03  0.00000000000E+00 0.  1.
          3    1    3    3  501    0  0.48568400129E+02 -0.62257498764E+02 -0.89505306693E+03  0.89852928626E+03  0.00000000000E+00 0.  1.
         21    1    1    2  502  501 -0.14844190210E+02 -0.28243395463E+02 -0.46203272441E+00  0.31910074342E+02  0.00000000000E+00 0.  1.
<mgrwt>
<rscale>  1 0.30000000E+03</rscale>
<asrwt>0</asrwt>
<pdfrwt beam="1">  1        1 0.16094198E+00 0.30000000E+03</pdfrwt>
<pdfrwt beam="2">0</pdfrwt>
<totfact> 0.15831688E+01</totfact>
</mgrwt>
</event>
<event>
 6    1  0.1839160E-004  0.3000000E+03  0.7818608E-02  0.1093470E+00
          1   -1    0    0  502    0  0.00000000000E+00  0.00000000000E+00  0.31109639266E+02  0.31109639266E+02  0.00000000000E+00 0.  1.
         13   -1    0    0    0    0 -0.00000000000E+00 -0.00000000000E+00 -0.10000000000E+04  0.10000000000E+04  0.00000000000E+00 0.  1.
    9000005    2    1    2  501    0  0.13843673714E+02 -0.88331618825E+01 -0.96100431990E+03  0.10128925679E+04  0.31961285816E+03 0.  0.
         13    1    3    3    0    0  0.72774455717E+02  0.14867351090E+02 -0.94429714936E+03  0.94721394934E+03  0.00000000000E+00 0.  1.
          3    1    3    3  501    0 -0.58930782003E+02 -0.23700512972E+02 -0.16707170537E+02  0.65678618515E+02  0.00000000000E+00 0.  1.
         21    1    1    2  502  501 -0.13843673714E+02  0.88331618825E+01 -0.78860408367E+01  0.18217071412E+02  0.00000000000E+00 0.  1.
<mgrwt>
<rscale>  1 0.30000000E+03</rscale>
<asrwt>0</asrwt>
<pdfrwt beam="1">  1        1 0.11312620E+00 0.30000000E+03</pdfrwt>
<pdfrwt beam="2">0</pdfrwt>
<totfact> 0.28472708E+01</totfact>
</mgrwt>
</event>
<event>
 6    1  0.1839160E-004  0.3000000E+03  0.7818608E-02  0.1093470E+00
          1   -1    0    0  502    0  0.00000000000E+00  0.00000000000E+00  0.73872190651E+02  0.73872190651E+02  0.00000000000E+00 0.  1.
         13   -1    0    0    0    0 -0.00000000000E+00 -0.00000000000E+00 -0.10000000000E+04  0.10000000000E+04  0.00000000000E+00 0.  1.
    9000005    2    1    2  501    0  0.43574995830E+01 -0.11995415287E+02 -0.95310541220E+03  0.10440281151E+04  0.42593649824E+03 0.  0.
         13    1    3    3    0    0 -0.12188988626E+03  0.16431286283E+03 -0.38576659163E+03  0.43665973536E+03  0.00000000000E+00 0.  1.
          3    1    3    3  501    0  0.12624738585E+03 -0.17630827812E+03 -0.56733882057E+03  0.60736837973E+03  0.00000000000E+00 0.  1.
         21    1    1    2  502  501 -0.43574995830E+01  0.11995415287E+02  0.26977602854E+02  0.29844075564E+02  0.00000000000E+00 0. -1.
<mgrwt>
<rscale>  1 0.30000000E+03</rscale>
<asrwt>0</asrwt>
<pdfrwt beam="1">  1        1 0.26862671E+00 0.30000000E+03</pdfrwt>
<pdfrwt beam="2">0</pdfrwt>
<totfact> 0.48800179E+00</totfact>
</mgrwt>
</event>
<event>
 6    1  0.1839160E-004  0.3000000E+03  0.7818608E-02  0.1093470E+00
          1   -1    0    0  502    0  0.00000000000E+00  0.00000000000E+00  0.34721567603E+02  0.34721567603E+02  0.00000000000E+00 0.  1.
         13   -1    0    0    0    0 -0.00000000000E+00 -0.00000000000E+00 -0.10000000000E+04  0.10000000000E+04  0.00000000000E+00 0.  1.
    9000005    2    1    2  501    0  0.50086112040E+01 -0.16730557978E+02 -0.96468350150E+03  0.10172472522E+04  0.32229290447E+03 0.  0.
         13    1    3    3    0    0  0.79511017348E+02 -0.10489210207E+03 -0.82777741800E+03  0.83817647826E+03  0.00000000000E+00 0.  1.
          1    1    3    3  501    0 -0.74502406144E+02  0.88161544090E+02 -0.13690608350E+03  0.17907077393E+03  0.00000000000E+00 0.  1.
         21    1    1    2  502  501 -0.50086112040E+01  0.16730557978E+02 -0.59493090085E+00  0.17474315415E+02  0.00000000000E+00 0. -1.
<mgrwt>
<rscale>  1 0.30000000E+03</rscale>
<asrwt>0</asrwt>
<pdfrwt beam="1">  1        1 0.12626051E+00 0.30000000E+03</pdfrwt>
<pdfrwt beam="2">0</pdfrwt>
<totfact> 0.23985754E+01</totfact>
</mgrwt>
</event>
<event>
 6    1  0.1839160E-004  0.3000000E+03  0.7818608E-02  0.1093470E+00
          1   -1    0    0  502    0  0.00000000000E+00  0.00000000000E+00  0.52519055900E+02  0.52519055900E+02  0.00000000000E+00 0.  1.
         13   -1    0    0    0    0 -0.00000000000E+00 -0.00000000000E+00 -0.10000000000E+04  0.10000000000E+04  0.00000000000E+00 0.  1.
    9000005    2    1    2  501    0  0.15657124737E+02 -0.15402916169E+01 -0.97795472302E+03  0.10182237318E+04  0.28308410356E+03 0.  0.
         13    1    3    3    0    0  0.14810964112E+02  0.83059423708E+02 -0.79921182979E+02  0.11621371698E+03  0.00000000000E+00 0.  1.
          3    1    3    3  501    0  0.84616062564E+00 -0.84599715325E+02 -0.89803354004E+03  0.90201001483E+03  0.00000000000E+00 0.  1.
         21    1    1    2  502  501 -0.15657124737E+02  0.15402916169E+01  0.30473778916E+02  0.34295324094E+02  0.00000000000E+00 0.  1.
<mgrwt>
<rscale>  1 0.30000000E+03</rscale>
<asrwt>0</asrwt>
<pdfrwt beam="1">  1        1 0.19097879E+00 0.30000000E+03</pdfrwt>
<pdfrwt beam="2">0</pdfrwt>
<totfact> 0.11311030E+01</totfact>
</mgrwt>
</event>
<event>
 6    1  0.1839160E-004  0.3000000E+03  0.7818608E-02  0.1093470E+00
          1   -1    0    0  502    0  0.00000000000E+00  0.00000000000E+00  0.30385702242E+02  0.30385702242E+02  0.00000000000E+00 0.  1.
         13   -1    0    0    0    0 -0.00000000000E+00 -0.00000000000E+00 -0.10000000000E+04  0.10000000000E+04  0.00000000000E+00 0.  1.
    9000005    2    1    2  501    0  0.14139915825E+02  0.17045327137E+02 -0.93294584627E+03  0.98754815176E+03  0.32306797980E+03 0.  0.
         13    1    3    3    0    0 -0.23929093423E+02  0.11141816340E+03 -0.11017828832E+03  0.15851139979E+03  0.00000000000E+00 0.  1.
          1    1    3    3  501    0  0.38069009248E+02 -0.94372836265E+02 -0.82276755795E+03  0.82903675197E+03  0.00000000000E+00 0.  1.
         21    1    1    2  502  501 -0.14139915825E+02 -0.17045327137E+02 -0.36668451488E+02  0.42837550482E+02  0.00000000000E+00 0. -1.
<mgrwt>
<rscale>  1 0.30000000E+03</rscale>
<asrwt>0</asrwt>
<pdfrwt beam="1">  1        1 0.11049370E+00 0.30000000E+03</pdfrwt>
<pdfrwt beam="2">0</pdfrwt>
<totfact> 0.29509304E+01</totfact>
</mgrwt>
</event>
<event>
 6    1  0.1839160E-004  0.3000000E+03  0.7818608E-02  0.1093470E+00
          1   -1    0    0  502    0  0.00000000000E+00  0.00000000000E+00  0.50737795855E+02  0.50737795855E+02  0.00000000000E+00 0.  1.
         13   -1    0    0    0    0 -0.00000000000E+00 -0.00000000000E+00 -0.10000000000E+04  0.10000000000E+04  0.00000000000E+00 0.  1.
    9000005    2    1    2  501    0  0.44724872120E+02  0.94338210272E+01 -0.95222913183E+03  0.10049326234E+04  0.31789927158E+03 0.  0.
         13    1    3    3    0    0 -0.34747070374E+02 -0.13917565139E+03 -0.32098851603E+03  0.35158334469E+03  0.00000000000E+00 0.  1.
          3    1    3    3  501    0  0.79471942494E+02  0.14860947242E+03 -0.63124061580E+03  0.65334927869E+03  0.00000000000E+00 0.  1.
         21    1    1    2  502  501 -0.44724872120E+02 -0.94338210272E+01  0.29669276840E+01  0.45805172472E+02  0.00000000000E+00 0.  1.
<mgrwt>
<rscale>  1 0.30000000E+03</rscale>
<asrwt>0</asrwt>
<pdfrwt beam="1">  1        1 0.18450146E+00 0.30000000E+03</pdfrwt>
<pdfrwt beam="2">0</pdfrwt>
<totfact> 0.12151299E+01</totfact>
</mgrwt>
</event>
<event>
 6    1  0.1839160E-004  0.3000000E+03  0.7818608E-02  0.1093470E+00
          1   -1    0    0  502    0  0.00000000000E+00  0.00000000000E+00  0.33220175147E+02  0.33220175147E+02  0.00000000000E+00 0.  1.
         13   -1    0    0    0    0 -0.00000000000E+00 -0.00000000000E+00 -0.10000000000E+04  0.10000000000E+04  0.00000000000E+00 0.  1.
    9000005    2    1    2  501    0  0.39206578771E+01 -0.11564343545E+02 -0.96949616540E+03  0.10207108144E+04  0.31902765767E+03 0.  0.
         13    1    3    3    0    0  0.78820272375E+02 -0.98065987472E+02 -0.16185203325E+03  0.20500159488E+03  0.00000000000E+00 0.  1.
          3    1    3    3  501    0 -0.74899614498E+02  0.86501643927E+02 -0.80764413214E+03  0.81570921954E+03  0.00000000000E+00 0.  1.
         21    1    1    2  502  501 -0.39206578771E+01  0.11564343545E+02  0.27163405439E+01  0.12509360726E+02  0.00000000000E+00 0. -1.
<mgrwt>
<rscale>  1 0.30000000E+03</rscale>
<asrwt>0</asrwt>
<pdfrwt beam="1">  1        1 0.12080089E+00 0.30000000E+03</pdfrwt>
<pdfrwt beam="2">0</pdfrwt>
<totfact> 0.25726839E+01</totfact>
</mgrwt>
</event>
<event>
 6    1  0.1839160E-004  0.3000000E+03  0.7818608E-02  0.1093470E+00
          1   -1    0    0  502    0  0.00000000000E+00  0.00000000000E+00  0.12875377341E+03  0.12875377341E+03  0.00000000000E+00 0.  1.
         13   -1    0    0    0    0 -0.00000000000E+00 -0.00000000000E+00 -0.10000000000E+04  0.10000000000E+04  0.00000000000E+00 0.  1.
    9000005    2    1    2  501    0  0.10967058798E+02  0.74372467639E+01 -0.97313608118E+03  0.10260058708E+04  0.32483630559E+03 0.  0.
         13    1    3    3    0    0 -0.13049523617E+03 -0.63907884658E+02 -0.65096945615E+03  0.66698909828E+03  0.00000000000E+00 0.  1.
          3    1    3    3  501    0  0.14146229497E+03  0.71345131422E+02 -0.32216662504E+03  0.35901677254E+03  0.00000000000E+00 0.  1.
         21    1    1    2  502  501 -0.10967058798E+02 -0.74372467639E+01  0.10188985459E+03  0.10274790259E+03  0.00000000000E+00 0.  1.
<mgrwt>
<rscale>  1 0.30000000E+03</rscale>
<asrwt>0</asrwt>
<pdfrwt beam="1">  1        1 0.46819653E+00 0.30000000E+03</pdfrwt>
<pdfrwt beam="2">0</pdfrwt>
<totfact> 0.38711840E-01</totfact>
</mgrwt>
</event>
<event>
 6    1  0.1839160E-004  0.3000000E+03  0.7818608E-02  0.1093470E+00
          1   -1    0    0  502    0  0.00000000000E+00  0.00000000000E+00  0.31250303184E+02  0.31250303184E+02  0.00000000000E+00 0.  1.
         13   -1    0    0    0    0 -0.00000000000E+00 -0.00000000000E+00 -0.10000000000E+04  0.10000000000E+04  0.00000000000E+00 0.  1.
    9000005    2    1    2  501    0 -0.20127958940E+02 -0.15380389640E+02 -0.88414981517E+03  0.94293931242E+03  0.32675978962E+03 0.  0.
         13    1    3    3    0    0 -0.76273106860E+02  0.71544815276E+02 -0.78730905521E+02  0.13089997291E+03  0.00000000000E+00 0.  1.
          3    1    3    3  501    0  0.56145147920E+02 -0.86925204916E+02 -0.80541890965E+03  0.81203933951E+03  0.00000000000E+00 0.  1.
         21    1    1    2  502  501  0.20127958940E+02  0.15380389640E+02 -0.84599881643E+02  0.88310990769E+02  0.00000000000E+00 0.  1.
<mgrwt>
<rscale>  1 0.30000000E+03</rscale>
<asrwt>0</asrwt>
<pdfrwt beam="1">  1        1 0.11363771E+00 0.30000000E+03</pdfrwt>
<pdfrwt beam="2">0</pdfrwt>
<totfact> 0.28277323E+01</totfact>
</mgrwt>
</event>
<event>
 6    1  0.1839160E-004  0.3000000E+03  0.7818608E-02  0.1093470E+00
          1   -1    0    0  502    0  0.00000000000E+00  0.00000000000E+00  0.10605348576E+03  0.10605348576E+03  0.00000000000E+00 0.  1.
         13   -1    0    0    0    0 -0.00000000000E+00 -0.00000000000E+00 -0.10000000000E+04  0.10000000000E+04  0.00000000000E+00 0.  1.
    9000005    2    1    2  501    0 -0.15822295258E+02  0.44391354010E+02 -0.96307081436E+03  0.10223928247E+04  0.33994228515E+03 0.  0.
         13    1    3    3    0    0 -0.41312187469E+02  0.19788916862E+01  0.14306263339E+02  0.43763935112E+02  0.00000000000E+00 0.  1.
          3    1    3    3  501    0  0.25489892211E+02  0.42412462324E+02 -0.97737707770E+03  0.97862888961E+03  0.00000000000E+00 0.  1.
         21    1    1    2  502  501  0.15822295258E+02 -0.44391354010E+02  0.69124300124E+02  0.83660661041E+02  0.00000000000E+00 0.  1.
<mgrwt>
<rscale>  1 0.30000000E+03</rscale>
<asrwt>0</asrwt>
<pdfrwt beam="1">  1        1 0.38564985E+00 0.30000000E+03</pdfrwt>
<pdfrwt beam="2">0</pdfrwt>
<totfact> 0.12680370E+00</totfact>
</mgrwt>
</event>
<event>
 6    1  0.1839160E-004  0.3000000E+03  0.7818608E-02  0.1093470E+00
          1   -1    0    0  502    0  0.00000000000E+00  0.00000000000E+00  0.28142970551E+02  0.28142970551E+02  0.00000000000E+00 0.  1.
         13   -1    0    0    0    0 -0.00000000000E+00 -0.00000000000E+00 -0.10000000000E+04  0.10000000000E+04  0.00000000000E+00 0.  1.
    9000005    2    1    2  501    0  0.97493622551E+01 -0.12809722250E+02 -0.97006253092E+03  0.10119454623E+04  0.28766849971E+03 0.  0.
         13    1    3    3    0    0  0.12138713513E+03 -0.85947616663E+02 -0.40829483974E+03  0.43454171899E+03  0.00000000000E+00 0.  1.
          1    1    3    3  501    0 -0.11163777288E+03  0.73137894413E+02 -0.56176769119E+03  0.57740374331E+03  0.00000000000E+00 0.  1.
         21    1    1    2  502  501 -0.97493622551E+01  0.12809722250E+02 -0.17944985252E+01  0.16197508249E+02  0.00000000000E+00 0. -1.
<mgrwt>
<rscale>  1 0.30000000E+03</rscale>
<asrwt>0</asrwt>
<pdfrwt beam="1">  1        1 0.10233829E+00 0.30000000E+03</pdfrwt>
<pdfrwt beam="2">0</pdfrwt>
<totfact> 0.33085546E+01</totfact>
</mgrwt>
</event>
<event>
 6    1  0.1839160E-004  0.3000000E+03  0.7818608E-02  0.1093470E+00
          1   -1    0    0  502    0  0.00000000000E+00  0.00000000000E+00  0.38017951439E+02  0.38017951439E+02  0.00000000000E+00 0.  1.
         13   -1    0    0    0    0 -0.00000000000E+00 -0.00000000000E+00 -0.10000000000E+04  0.10000000000E+04  0.00000000000E+00 0.  1.
    9000005    2    1    2  501    0  0.55268763762E+02 -0.59975938160E+01 -0.84757594047E+03  0.91081981879E+03  0.32881173956E+03 0.  0.
         13    1    3    3    0    0  0.18928677128E+03 -0.81018429630E+01 -0.60117610546E+03  0.63032359262E+03  0.00000000000E+00 0.  1.
          1    1    3    3  501    0 -0.13401800752E+03  0.21042491470E+01 -0.24639983501E+03  0.28049622617E+03  0.00000000000E+00 0.  1.
         21    1    1    2  502  501 -0.55268763762E+02  0.59975938160E+01 -0.11440610809E+03  0.12719813265E+03  0.00000000000E+00 0.  1.
<mgrwt>
<rscale>  1 0.30000000E+03</rscale>
<asrwt>0</asrwt>
<pdfrwt beam="1">  1        1 0.13824739E+00 0.30000000E+03</pdfrwt>
<pdfrwt beam="2">0</pdfrwt>
<totfact> 0.20666210E+01</totfact>
</mgrwt>
</event>
<event>
 6    1  0.1839160E-004  0.3000000E+03  0.7818608E-02  0.1093470E+00
          1   -1    0    0  502    0  0.00000000000E+00  0.00000000000E+00  0.33312379658E+02  0.33312379658E+02  0.00000000000E+00 0.  1.
         13   -1    0    0    0    0 -0.00000000000E+00 -0.00000000000E+00 -0.10000000000E+04  0.10000000000E+04  0.00000000000E+00 0.  1.
    9000005    2    1    2  501    0  0.14961617087E+02 -0.51237731253E+00 -0.94666461736E+03  0.10083117164E+04  0.34683498540E+03 0.  0.
         13    1    3    3    0    0  0.75888145853E+02  0.15732275216E+03 -0.55010005338E+03  0.57716507843E+03  0.00000000000E+00 0.  1.
          3    1    3    3  501    0 -0.60926528766E+02 -0.15783512948E+03 -0.39656456398E+03  0.43114663794E+03  0.00000000000E+00 0.  1.
         21    1    1    2  502  501 -0.14961617087E+02  0.51237731253E+00 -0.20023002982E+02  0.25000663287E+02  0.00000000000E+00 0. -1.
<mgrwt>
<rscale>  1 0.30000000E+03</rscale>
<asrwt>0</asrwt>
<pdfrwt beam="1">  1        1 0.12113618E+00 0.30000000E+03</pdfrwt>
<pdfrwt beam="2">0</pdfrwt>
<totfact> 0.25615250E+01</totfact>
</mgrwt>
</event>
<event>
 6    1  0.1839160E-004  0.3000000E+03  0.7818608E-02  0.1093470E+00
          1   -1    0    0  502    0  0.00000000000E+00  0.00000000000E+00  0.29831040071E+02  0.29831040071E+02  0.00000000000E+00 0.  1.
         13   -1    0    0    0    0 -0.00000000000E+00 -0.00000000000E+00 -0.10000000000E+04  0.10000000000E+04  0.00000000000E+00 0.  1.
    9000005    2    1    2  501    0  0.86544138086E+01 -0.52165155888E+01 -0.96933094706E+03  0.10196913567E+04  0.31633189390E+03 0.  0.
         13    1    3    3    0    0 -0.44591980227E+02 -0.14315446336E+03 -0.31502846964E+03  0.34889050110E+03  0.00000000000E+00 0.  1.
          1    1    3    3  501    0  0.53246394035E+02  0.13793794777E+03 -0.65430247742E+03  0.67080085560E+03  0.00000000000E+00 0.  1.
         21    1    1    2  502  501 -0.86544138086E+01  0.52165155888E+01 -0.83801287318E+00  0.10139683370E+02  0.00000000000E+00 0. -1.
<mgrwt>
<rscale>  1 0.30000000E+03</rscale>
<asrwt>0</asrwt>
<pdfrwt beam="1">  1        1 0.10847674E+00 0.30000000E+03</pdfrwt>
<pdfrwt beam="2">0</pdfrwt>
<totfact> 0.30340097E+01</totfact>
</mgrwt>
</event>
<event>
 6    1  0.1839160E-004  0.3000000E+03  0.7818608E-02  0.1093470E+00
          1   -1    0    0  502    0  0.00000000000E+00  0.00000000000E+00  0.28967560637E+02  0.28967560637E+02  0.00000000000E+00 0.  1.
         13   -1    0    0    0    0 -0.00000000000E+00 -0.00000000000E+00 -0.10000000000E+04  0.10000000000E+04  0.00000000000E+00 0.  1.
    9000005    2    1    2  501    0 -0.19237511292E+02  0.34453695664E+00 -0.91440803428E+03  0.96916351565E+03  0.32057084452E+03 0.  0.
         13    1    3    3    0    0  0.11006122765E+03  0.52404945455E+02 -0.71827928442E+03  0.72854984907E+03  0.00000000000E+00 0.  1.
          1    1    3    3  501    0 -0.12929873894E+03 -0.52060408499E+02 -0.19612874986E+03  0.24061366658E+03  0.00000000000E+00 0.  1.
         21    1    1    2  502  501  0.19237511292E+02 -0.34453695664E+00 -0.56624405082E+02  0.59804044991E+02  0.00000000000E+00 0.  1.
<mgrwt>
<rscale>  1 0.30000000E+03</rscale>
<asrwt>0</asrwt>
<pdfrwt beam="1">  1        1 0.10533681E+00 0.30000000E+03</pdfrwt>
<pdfrwt beam="2">0</pdfrwt>
<totfact> 0.31701499E+01</totfact>
</mgrwt>
</event>
<event>
 6    1  0.1839160E-004  0.3000000E+03  0.7818608E-02  0.1093470E+00
          1   -1    0    0  502    0  0.00000000000E+00  0.00000000000E+00  0.56895734324E+02  0.56895734324E+02  0.00000000000E+00 0.  1.
         13   -1    0    0    0    0 -0.00000000000E+00 -0.00000000000E+00 -0.10000000000E+04  0.10000000000E+04  0.00000000000E+00 0.  1.
    9000005    2    1    2  501    0  0.98563462065E+01  0.70402968699E+01 -0.97147327893E+03  0.10260491097E+04  0.32995413378E+03 0.  0.
         13    1    3    3    0    0  0.14319859243E+03  0.20444136781E+02 -0.77396724867E+03  0.78736846623E+03  0.00000000000E+00 0.  1.
          1    1    3    3  501    0 -0.13334224623E+03 -0.13403839911E+02 -0.19750603026E+03  0.23868064342E+03  0.00000000000E+00 0.  1.
         21    1    1    2  502  501 -0.98563462065E+01 -0.70402968699E+01  0.28369013256E+02  0.30846624672E+02  0.00000000000E+00 0.  1.
<mgrwt>
<rscale>  1 0.30000000E+03</rscale>
<asrwt>0</asrwt>
<pdfrwt beam="1">  1        1 0.20689402E+00 0.30000000E+03</pdfrwt>
<pdfrwt beam="2">0</pdfrwt>
<totfact> 0.95006630E+00</totfact>
</mgrwt>
</event>
<event>
 6    1  0.1839160E-004  0.3000000E+03  0.7818608E-02  0.1093470E+00
          1   -1    0    0  502    0  0.00000000000E+00  0.00000000000E+00  0.20448014255E+02  0.20448014255E+02  0.00000000000E+00 0.  1.
         13   -1    0    0    0    0 -0.00000000000E+00 -0.00000000000E+00 -0.10000000000E+04  0.10000000000E+04  0.00000000000E+00 0.  1.
    9000005    2    1    2  501    0  0.14694212381E+02 -0.13521077884E+02 -0.91456493636E+03  0.95246230978E+03  0.26524835403E+03 0.  0.
         13    1    3    3    0    0 -0.29186560587E+01 -0.13069237761E+03 -0.64331357832E+03  0.65646125260E+03  0.00000000000E+00 0.  1.
          3    1    3    3  501    0  0.17612868440E+02  0.11717129973E+03 -0.27125135804E+03  0.29600105718E+03  0.00000000000E+00 0.  1.
         21    1    1    2  502  501 -0.14694212381E+02  0.13521077884E+02 -0.64987049384E+02  0.67985704470E+02  0.00000000000E+00 0.  1.
<mgrwt>
<rscale>  1 0.30000000E+03</rscale>
<asrwt>0</asrwt>
<pdfrwt beam="1">  1        1 0.74356572E-01 0.30000000E+03</pdfrwt>
<pdfrwt beam="2">0</pdfrwt>
<totfact> 0.51933702E+01</totfact>
</mgrwt>
</event>
<event>
 6    1  0.1839160E-004  0.3000000E+03  0.7818608E-02  0.1093470E+00
          3   -1    0    0  502    0  0.00000000000E+00  0.00000000000E+00  0.27788483254E+02  0.27788483254E+02  0.00000000000E+00 0.  1.
         13   -1    0    0    0    0 -0.00000000000E+00 -0.00000000000E+00 -0.10000000000E+04  0.10000000000E+04  0.00000000000E+00 0.  1.
    9000005    2    1    2  501    0 -0.85851269082E+01 -0.17033720381E+01 -0.94681165249E+03  0.10009229108E+04  0.32452698215E+03 0.  0.
         13    1    3    3    0    0  0.14397438450E+03 -0.58569986320E+02 -0.36399937666E+03  0.39579617595E+03  0.00000000000E+00 0.  1.
          3    1    3    3  501    0 -0.15255951141E+03  0.56866614282E+02 -0.58281227583E+03  0.60512673483E+03  0.00000000000E+00 0.  1.
         21    1    1    2  502  501  0.85851269082E+01  0.17033720381E+01 -0.25399864253E+02  0.26865572475E+02  0.00000000000E+00 0. -1.
<mgrwt>
<rscale>  1 0.30000000E+03</rscale>
<asrwt>0</asrwt>
<pdfrwt beam="1">  1        3 0.10104924E+00 0.30000000E+03</pdfrwt>
<pdfrwt beam="2">0</pdfrwt>
<totfact> 0.38107087E+00</totfact>
</mgrwt>
</event>
<event>
 6    1  0.1839160E-004  0.3000000E+03  0.7818608E-02  0.1093470E+00
          1   -1    0    0  502    0  0.00000000000E+00  0.00000000000E+00  0.30184623535E+02  0.30184623535E+02  0.00000000000E+00 0.  1.
         13   -1    0    0    0    0 -0.00000000000E+00 -0.00000000000E+00 -0.10000000000E+04  0.10000000000E+04  0.00000000000E+00 0.  1.
    9000005    2    1    2  501    0 -0.11944535851E+02 -0.24156011498E+00 -0.95496796845E+03  0.10111274513E+04  0.33207253991E+03 0.  0.
         13    1    3    3    0    0  0.11166892025E+03 -0.88744963661E+02 -0.69908323615E+03  0.71348650119E+03  0.00000000000E+00 0.  1.
          3    1    3    3  501    0 -0.12361345610E+03  0.88503403546E+02 -0.25588473231E+03  0.29764095013E+03  0.00000000000E+00 0.  1.
         21    1    1    2  502  501  0.11944535851E+02  0.24156011498E+00 -0.14847408013E+02  0.19057172211E+02  0.00000000000E+00 0.  1.
<mgrwt>
<rscale>  1 0.30000000E+03</rscale>
<asrwt>0</asrwt>
<pdfrwt beam="1">  1        1 0.10976250E+00 0.30000000E+03</pdfrwt>
<pdfrwt beam="2">0</pdfrwt>
<totfact> 0.29806706E+01</totfact>
</mgrwt>
</event>
<event>
 6    1  0.1839160E-004  0.3000000E+03  0.7818608E-02  0.1093470E+00
          1   -1    0    0  502    0  0.00000000000E+00  0.00000000000E+00  0.28054723857E+02  0.28054723857E+02  0.00000000000E+00 0.  1.
         13   -1    0    0    0    0 -0.00000000000E+00 -0.00000000000E+00 -0.10000000000E+04  0.10000000000E+04  0.00000000000E+00 0.  1.
    9000005    2    1    2  501    0 -0.95095129155E+01 -0.65030915535E+00 -0.92214950017E+03  0.97735489109E+03  0.32368507648E+03 0.  0.
         13    1    3    3    0    0  0.13557332170E+03 -0.60751529136E+02 -0.28811716459E+03  0.32416411643E+03  0.00000000000E+00 0.  1.
          3    1    3    3  501    0 -0.14508283461E+03  0.60101219981E+02 -0.63403233558E+03  0.65319077466E+03  0.00000000000E+00 0.  1.
         21    1    1    2  502  501  0.95095129155E+01  0.65030915535E+00 -0.49795775973E+02  0.50699832768E+02  0.00000000000E+00 0. -1.
<mgrwt>
<rscale>  1 0.30000000E+03</rscale>
<asrwt>0</asrwt>
<pdfrwt beam="1">  1        1 0.10201739E+00 0.30000000E+03</pdfrwt>
<pdfrwt beam="2">0</pdfrwt>
<totfact> 0.33238854E+01</totfact>
</mgrwt>
</event>
<event>
 6    1  0.1839160E-004  0.3000000E+03  0.7818608E-02  0.1093470E+00
          1   -1    0    0  502    0  0.00000000000E+00  0.00000000000E+00  0.77721876055E+02  0.77721876055E+02  0.00000000000E+00 0.  1.
         13   -1    0    0    0    0 -0.00000000000E+00 -0.00000000000E+00 -0.10000000000E+04  0.10000000000E+04  0.00000000000E+00 0.  1.
    9000005    2    1    2  501    0 -0.15543732088E+02  0.20764849922E+02 -0.96949175091E+03  0.10238524676E+04  0.32815672117E+03 0.  0.
         13    1    3    3    0    0 -0.13947750564E+03  0.91717885721E+02 -0.34531424010E+03  0.38354669801E+03  0.00000000000E+00 0.  1.
          3    1    3    3  501    0  0.12393377355E+03 -0.70953035799E+02 -0.62417751082E+03  0.64030576956E+03  0.00000000000E+00 0.  1.
         21    1    1    2  502  501  0.15543732088E+02 -0.20764849922E+02  0.47213626969E+02  0.53869408490E+02  0.00000000000E+00 0.  1.
<mgrwt>
<rscale>  1 0.30000000E+03</rscale>
<asrwt>0</asrwt>
<pdfrwt beam="1">  1        1 0.28262560E+00 0.30000000E+03</pdfrwt>
<pdfrwt beam="2">0</pdfrwt>
<totfact> 0.41974719E+00</totfact>
</mgrwt>
</event>
<event>
 6    1  0.1839160E-004  0.3000000E+03  0.7818608E-02  0.1093470E+00
          1   -1    0    0  502    0  0.00000000000E+00  0.00000000000E+00  0.44075855869E+02  0.44075855869E+02  0.00000000000E+00 0.  1.
         13   -1    0    0    0    0 -0.00000000000E+00 -0.00000000000E+00 -0.10000000000E+04  0.10000000000E+04  0.00000000000E+00 0.  1.
    9000005    2    1    2  501    0  0.18588545415E+02 -0.10870807285E+01 -0.97115343601E+03  0.10200207712E+04  0.31137864685E+03 0.  0.
         13    1    3    3    0    0 -0.58528819937E+02  0.11456245515E+02 -0.16096745583E+02  0.61773566700E+02  0.00000000000E+00 0.  1.
          3    1    3    3  501    0  0.77117365352E+02 -0.12543326243E+02 -0.95505669043E+03  0.95824720454E+03  0.00000000000E+00 0.  1.
         21    1    1    2  502  501 -0.18588545415E+02  0.10870807285E+01  0.15229291884E+02  0.24055084628E+02  0.00000000000E+00 0.  1.
<mgrwt>
<rscale>  1 0.30000000E+03</rscale>
<asrwt>0</asrwt>
<pdfrwt beam="1">  1        1 0.16027618E+00 0.30000000E+03</pdfrwt>
<pdfrwt beam="2">0</pdfrwt>
<totfact> 0.15952583E+01</totfact>
</mgrwt>
</event>
<event>
 6    1  0.1839160E-004  0.3000000E+03  0.7818608E-02  0.1093470E+00
          1   -1    0    0  502    0  0.00000000000E+00  0.00000000000E+00  0.74396847266E+02  0.74396847266E+02  0.00000000000E+00 0.  1.
         13   -1    0    0    0    0 -0.00000000000E+00 -0.00000000000E+00 -0.10000000000E+04  0.10000000000E+04  0.00000000000E+00 0.  1.
    9000005    2    1    2  501    0 -0.13949386177E+02  0.86528216788E+01 -0.96885213565E+03  0.10281374566E+04  0.34368984900E+03 0.  0.
         13    1    3    3    0    0 -0.13341033265E+03  0.65415731255E+01 -0.84705345571E+03  0.85752006732E+03  0.00000000000E+00 0.  1.
          1    1    3    3  501    0  0.11946094648E+03  0.21112485533E+01 -0.12179867994E+03  0.17061738932E+03  0.00000000000E+00 0.  1.
         21    1    1    2  502  501  0.13949386177E+02 -0.86528216788E+01  0.43248982913E+02  0.46259390622E+02  0.00000000000E+00 0.  1.
<mgrwt>
<rscale>  1 0.30000000E+03</rscale>
<asrwt>0</asrwt>
<pdfrwt beam="1">  1        1 0.27053456E+00 0.30000000E+03</pdfrwt>
<pdfrwt beam="2">0</pdfrwt>
<totfact> 0.47804880E+00</totfact>
</mgrwt>
</event>
<event>
 6    1  0.1839160E-004  0.3000000E+03  0.7818608E-02  0.1093470E+00
          1   -1    0    0  502    0  0.00000000000E+00  0.00000000000E+00  0.29873823191E+02  0.29873823191E+02  0.00000000000E+00 0.  1.
         13   -1    0    0    0    0 -0.00000000000E+00 -0.00000000000E+00 -0.10000000000E+04  0.10000000000E+04  0.00000000000E+00 0.  1.
    9000005    2    1    2  501    0  0.13797873015E+02 -0.17371851265E+02 -0.90153301144E+03  0.95778231987E+03  0.32263452856E+03 0.  0.
         13    1    3    3    0    0 -0.67846297227E+02 -0.14209920707E+03 -0.30930514199E+03  0.34708064705E+03  0.00000000000E+00 0.  1.
          3    1    3    3  501    0  0.81644170242E+02  0.12472735581E+03 -0.59222786945E+03  0.61070167281E+03  0.00000000000E+00 0.  1.
         21    1    1    2  502  501 -0.13797873015E+02  0.17371851265E+02 -0.68593165371E+02  0.72091503326E+02  0.00000000000E+00 0.  1.
<mgrwt>
<rscale>  1 0.30000000E+03</rscale>
<asrwt>0</asrwt>
<pdfrwt beam="1">  1        1 0.10863231E+00 0.30000000E+03</pdfrwt>
<pdfrwt beam="2">0</pdfrwt>
<totfact> 0.30274837E+01</totfact>
</mgrwt>
</event>
<event>
 6    1  0.1839160E-004  0.3000000E+03  0.7818608E-02  0.1093470E+00
          1   -1    0    0  502    0  0.00000000000E+00  0.00000000000E+00  0.31099375982E+02  0.31099375982E+02  0.00000000000E+00 0.  1.
         13   -1    0    0    0    0 -0.00000000000E+00 -0.00000000000E+00 -0.10000000000E+04  0.10000000000E+04  0.00000000000E+00 0.  1.
    9000005    2    1    2  501    0  0.12946619624E+00  0.12244933024E+02 -0.95830504875E+03  0.10149061255E+04  0.33396994169E+03 0.  0.
         13    1    3    3    0    0 -0.86435096908E+02 -0.13040094350E+03 -0.33628189426E+03  0.37089209273E+03  0.00000000000E+00 0.  1.
          3    1    3    3  501    0  0.86564563104E+02  0.14264587652E+03 -0.62202315448E+03  0.64401403276E+03  0.00000000000E+00 0.  1.
         21    1    1    2  502  501 -0.12946619624E+00 -0.12244933024E+02 -0.10595575271E+02  0.16193250494E+02  0.00000000000E+00 0.  1.
<mgrwt>
<rscale>  1 0.30000000E+03</rscale>
<asrwt>0</asrwt>
<pdfrwt beam="1">  1        1 0.11308888E+00 0.30000000E+03</pdfrwt>
<pdfrwt beam="2">0</pdfrwt>
<totfact> 0.28487039E+01</totfact>
</mgrwt>
</event>
<event>
 6    1  0.1839160E-004  0.3000000E+03  0.7818608E-02  0.1093470E+00
          1   -1    0    0  502    0  0.00000000000E+00  0.00000000000E+00  0.41388754787E+02  0.41388754787E+02  0.00000000000E+00 0.  1.
         13   -1    0    0    0    0 -0.00000000000E+00 -0.00000000000E+00 -0.10000000000E+04  0.10000000000E+04  0.00000000000E+00 0.  1.
    9000005    2    1    2  501    0  0.13803412671E+02 -0.17048271657E+02 -0.96539034196E+03  0.10184293576E+04  0.32363353695E+03 0.  0.
         13    1    3    3    0    0  0.59275427642E+02  0.13772430184E+03 -0.60974036653E+03  0.62790514747E+03  0.00000000000E+00 0.  1.
          3    1    3    3  501    0 -0.45472014971E+02 -0.15477257350E+03 -0.35564997543E+03  0.39052421010E+03  0.00000000000E+00 0.  1.
         21    1    1    2  502  501 -0.13803412671E+02  0.17048271657E+02  0.67790967480E+01  0.22959397217E+02  0.00000000000E+00 0.  1.
<mgrwt>
<rscale>  1 0.30000000E+03</rscale>
<asrwt>0</asrwt>
<pdfrwt beam="1">  1        1 0.15050488E+00 0.30000000E+03</pdfrwt>
<pdfrwt beam="2">0</pdfrwt>
<totfact> 0.17859146E+01</totfact>
</mgrwt>
</event>
<event>
 6    1  0.1839160E-004  0.3000000E+03  0.7818608E-02  0.1093470E+00
          1   -1    0    0  502    0  0.00000000000E+00  0.00000000000E+00  0.26391295037E+02  0.26391295037E+02  0.00000000000E+00 0.  1.
         13   -1    0    0    0    0 -0.00000000000E+00 -0.00000000000E+00 -0.10000000000E+04  0.10000000000E+04  0.00000000000E+00 0.  1.
    9000005    2    1    2  501    0 -0.11849187015E+02  0.59090727227E+01 -0.94997313119E+03  0.99929958558E+03  0.30979895319E+03 0.  0.
         13    1    3    3    0    0 -0.11969850202E+02 -0.66495085637E+02 -0.91743601004E+03  0.91992048909E+03  0.00000000000E+00 0.  1.
          3    1    3    3  501    0  0.12066318751E+00  0.72404158360E+02 -0.32537121143E+02  0.79379096491E+02  0.00000000000E+00 0.  1.
         21    1    1    2  502  501  0.11849187015E+02 -0.59090727227E+01 -0.23635573778E+02  0.27091709455E+02  0.00000000000E+00 0. -1.
<mgrwt>
<rscale>  1 0.30000000E+03</rscale>
<asrwt>0</asrwt>
<pdfrwt beam="1">  1        1 0.95968548E-01 0.30000000E+03</pdfrwt>
<pdfrwt beam="2">0</pdfrwt>
<totfact> 0.36335761E+01</totfact>
</mgrwt>
</event>
<event>
 6    1  0.1839160E-004  0.3000000E+03  0.7818608E-02  0.1093470E+00
          1   -1    0    0  502    0  0.00000000000E+00  0.00000000000E+00  0.37341215182E+02  0.37341215182E+02  0.00000000000E+00 0.  1.
         13   -1    0    0    0    0 -0.00000000000E+00 -0.00000000000E+00 -0.10000000000E+04  0.10000000000E+04  0.00000000000E+00 0.  1.
    9000005    2    1    2  501    0 -0.30740168035E+02 -0.17098210191E+02 -0.93277491783E+03  0.99118547634E+03  0.33338010504E+03 0.  0.
         13    1    3    3    0    0  0.23097907905E+01 -0.14027205383E+03 -0.18271717412E+03  0.23036308284E+03  0.00000000000E+00 0.  1.
          1    1    3    3  501    0 -0.33049958825E+02  0.12317384364E+03 -0.75005774372E+03  0.76082239350E+03  0.00000000000E+00 0.  1.
         21    1    1    2  502  501  0.30740168035E+02  0.17098210191E+02 -0.29883866984E+02  0.46155738846E+02  0.00000000000E+00 0. -1.
<mgrwt>
<rscale>  1 0.30000000E+03</rscale>
<asrwt>0</asrwt>
<pdfrwt beam="1">  1        1 0.13578652E+00 0.30000000E+03</pdfrwt>
<pdfrwt beam="2">0</pdfrwt>
<totfact> 0.21295927E+01</totfact>
</mgrwt>
</event>
<event>
 6    1  0.1839160E-004  0.3000000E+03  0.7818608E-02  0.1093470E+00
          1   -1    0    0  502    0  0.00000000000E+00  0.00000000000E+00  0.46352523914E+02  0.46352523914E+02  0.00000000000E+00 0.  1.
         13   -1    0    0    0    0 -0.00000000000E+00 -0.00000000000E+00 -0.10000000000E+04  0.10000000000E+04  0.00000000000E+00 0.  1.
    9000005    2    1    2  501    0  0.92493012652E+01 -0.88957967263E+01 -0.97483679828E+03  0.10215801169E+04  0.30521216759E+03 0.  0.
         13    1    3    3    0    0  0.35764401242E+02  0.56986413670E+02 -0.94013179697E+03  0.94253612102E+03  0.00000000000E+00 0.  1.
          3    1    3    3  501    0 -0.26515099976E+02 -0.65882210397E+02 -0.34705001302E+02  0.79043995906E+02  0.00000000000E+00 0.  1.
         21    1    1    2  502  501 -0.92493012652E+01  0.88957967263E+01  0.21189322190E+02  0.24772406991E+02  0.00000000000E+00 0. -1.
<mgrwt>
<rscale>  1 0.30000000E+03</rscale>
<asrwt>0</asrwt>
<pdfrwt beam="1">  1        1 0.16855499E+00 0.30000000E+03</pdfrwt>
<pdfrwt beam="2">0</pdfrwt>
<totfact> 0.14521671E+01</totfact>
</mgrwt>
</event>
<event>
 6    1  0.1839160E-004  0.3000000E+03  0.7818608E-02  0.1093470E+00
          1   -1    0    0  502    0  0.00000000000E+00  0.00000000000E+00  0.30449871947E+02  0.30449871947E+02  0.00000000000E+00 0.  1.
         13   -1    0    0    0    0 -0.00000000000E+00 -0.00000000000E+00 -0.10000000000E+04  0.10000000000E+04  0.00000000000E+00 0.  1.
    9000005    2    1    2  501    0  0.13161876201E+02 -0.61466655827E+01 -0.96098427725E+03  0.10135859969E+04  0.32195461704E+03 0.  0.
         13    1    3    3    0    0 -0.11329692635E+03 -0.10915762623E+03 -0.41769317554E+03  0.44633974703E+03  0.00000000000E+00 0.  1.
          3    1    3    3  501    0  0.12645880255E+03  0.10301096064E+03 -0.54329110170E+03  0.56724624983E+03  0.00000000000E+00 0.  1.
         21    1    1    2  502  501 -0.13161876201E+02  0.61466655827E+01 -0.85658508064E+01  0.16863875087E+02  0.00000000000E+00 0. -1.
<mgrwt>
<rscale>  1 0.30000000E+03</rscale>
<asrwt>0</asrwt>
<pdfrwt beam="1">  1        1 0.11072704E+00 0.30000000E+03</pdfrwt>
<pdfrwt beam="2">0</pdfrwt>
<totfact> 0.29415281E+01</totfact>
</mgrwt>
</event>
<event>
 6    1  0.1839160E-004  0.3000000E+03  0.7818608E-02  0.1093470E+00
          1   -1    0    0  502    0  0.00000000000E+00  0.00000000000E+00  0.34543770305E+02  0.34543770305E+02  0.00000000000E+00 0.  1.
         13   -1    0    0    0    0 -0.00000000000E+00 -0.00000000000E+00 -0.10000000000E+04  0.10000000000E+04  0.00000000000E+00 0.  1.
    9000005    2    1    2  501    0  0.14724362110E+01  0.10569942923E+02 -0.96936696127E+03  0.10231777867E+04  0.32727142532E+03 0.  0.
         13    1    3    3    0    0 -0.26466908835E+02  0.16546518710E+03 -0.43678950984E+03  0.46782935063E+03  0.00000000000E+00 0.  1.
          1    1    3    3  501    0  0.27939345046E+02 -0.15489524418E+03 -0.53257745143E+03  0.55534843607E+03  0.00000000000E+00 0.  1.
         21    1    1    2  502  501 -0.14724362110E+01 -0.10569942923E+02  0.39107315784E+01  0.11365983603E+02  0.00000000000E+00 0. -1.
<mgrwt>
<rscale>  1 0.30000000E+03</rscale>
<asrwt>0</asrwt>
<pdfrwt beam="1">  1        1 0.12561398E+00 0.30000000E+03</pdfrwt>
<pdfrwt beam="2">0</pdfrwt>
<totfact> 0.24183873E+01</totfact>
</mgrwt>
</event>
<event>
 6    1  0.1839160E-004  0.3000000E+03  0.7818608E-02  0.1093470E+00
          1   -1    0    0  502    0  0.00000000000E+00  0.00000000000E+00  0.32096418379E+02  0.32096418379E+02  0.00000000000E+00 0.  1.
         13   -1    0    0    0    0 -0.00000000000E+00 -0.00000000000E+00 -0.10000000000E+04  0.10000000000E+04  0.00000000000E+00 0.  1.
    9000005    2    1    2  501    0  0.26310810852E+02  0.23492768603E+02 -0.92831529122E+03  0.97907376585E+03  0.30914719814E+03 0.  0.
         13    1    3    3    0    0 -0.13254220385E+03 -0.66879990042E+01 -0.58099949209E+03  0.59596356847E+03  0.00000000000E+00 0.  1.
          1    1    3    3  501    0  0.15885301470E+03  0.30180767607E+02 -0.34731579912E+03  0.38311019738E+03  0.00000000000E+00 0.  1.
         21    1    1    2  502  501 -0.26310810852E+02 -0.23492768603E+02 -0.39588290406E+02  0.53022652532E+02  0.00000000000E+00 0.  1.
<mgrwt>
<rscale>  1 0.30000000E+03</rscale>
<asrwt>0</asrwt>
<pdfrwt beam="1">  1        1 0.11671449E+00 0.30000000E+03</pdfrwt>
<pdfrwt beam="2">0</pdfrwt>
<totfact> 0.27140995E+01</totfact>
</mgrwt>
</event>
<event>
 6    1  0.1839160E-004  0.3000000E+03  0.7818608E-02  0.1093470E+00
          1   -1    0    0  502    0  0.00000000000E+00  0.00000000000E+00  0.30731256832E+02  0.30731256832E+02  0.00000000000E+00 0.  1.
         13   -1    0    0    0    0 -0.00000000000E+00 -0.00000000000E+00 -0.10000000000E+04  0.10000000000E+04  0.00000000000E+00 0.  1.
    9000005    2    1    2  501    0 -0.10281353105E+02 -0.10238468463E+02 -0.96242728760E+03  0.10146894997E+04  0.32111985984E+03 0.  0.
         13    1    3    3    0    0 -0.12609672842E+03  0.15092716725E+02 -0.16356809487E+03  0.20708137694E+03  0.00000000000E+00 0.  1.
          1    1    3    3  501    0  0.11581537532E+03 -0.25331185188E+02 -0.79885919273E+03  0.80760812274E+03  0.00000000000E+00 0.  1.
         21    1    1    2  502  501  0.10281353105E+02  0.10238468463E+02 -0.68414555636E+01  0.16041757148E+02  0.00000000000E+00 0.  1.
<mgrwt>
<rscale>  1 0.30000000E+03</rscale>
<asrwt>0</asrwt>
<pdfrwt beam="1">  1        1 0.11175026E+00 0.30000000E+03</pdfrwt>
<pdfrwt beam="2">0</pdfrwt>
<totfact> 0.29007952E+01</totfact>
</mgrwt>
</event>
<event>
 6    1  0.1839160E-004  0.3000000E+03  0.7818608E-02  0.1093470E+00
          1   -1    0    0  502    0  0.00000000000E+00  0.00000000000E+00  0.67581015398E+02  0.67581015398E+02  0.00000000000E+00 0.  1.
         13   -1    0    0    0    0 -0.00000000000E+00 -0.00000000000E+00 -0.10000000000E+04  0.10000000000E+04  0.00000000000E+00 0.  1.
    9000005    2    1    2  501    0  0.18588632760E+02 -0.46741638502E+02 -0.95675982338E+03  0.10116990463E+04  0.32498504982E+03 0.  0.
         13    1    3    3    0    0 -0.11078598735E+03 -0.46034289978E+02 -0.13832885749E+03  0.18310533488E+03  0.00000000000E+00 0.  1.
          3    1    3    3  501    0  0.12937462011E+03 -0.70734852328E+00 -0.81843096589E+03  0.82859371142E+03  0.00000000000E+00 0.  1.
         21    1    1    2  502  501 -0.18588632760E+02  0.46741638502E+02  0.24340838782E+02  0.55881969098E+02  0.00000000000E+00 0.  1.
<mgrwt>
<rscale>  1 0.30000000E+03</rscale>
<asrwt>0</asrwt>
<pdfrwt beam="1">  1        1 0.24574967E+00 0.30000000E+03</pdfrwt>
<pdfrwt beam="2">0</pdfrwt>
<totfact> 0.62445684E+00</totfact>
</mgrwt>
</event>
<event>
 6    1  0.1839160E-004  0.3000000E+03  0.7818608E-02  0.1093470E+00
          1   -1    0    0  502    0  0.00000000000E+00  0.00000000000E+00  0.40999068865E+02  0.40999068865E+02  0.00000000000E+00 0.  1.
         13   -1    0    0    0    0 -0.00000000000E+00 -0.00000000000E+00 -0.10000000000E+04  0.10000000000E+04  0.00000000000E+00 0.  1.
    9000005    2    1    2  501    0 -0.68888450559E+01  0.99081899902E+01 -0.97226339811E+03  0.10230680498E+04  0.31816110817E+03 0.  0.
         13    1    3    3    0    0  0.40688535040E+02  0.87203053777E+01 -0.97453370246E+03  0.97542172307E+03  0.00000000000E+00 0.  1.
          3    1    3    3  501    0 -0.47577380096E+02  0.11878846125E+01  0.22703043473E+01  0.47646326705E+02  0.00000000000E+00 0.  1.
         21    1    1    2  502  501  0.68888450559E+01 -0.99081899902E+01  0.13262466979E+02  0.17931019086E+02  0.00000000000E+00 0.  1.
<mgrwt>
<rscale>  1 0.30000000E+03</rscale>
<asrwt>0</asrwt>
<pdfrwt beam="1">  1        1 0.14908784E+00 0.30000000E+03</pdfrwt>
<pdfrwt beam="2">0</pdfrwt>
<totfact> 0.18158094E+01</totfact>
</mgrwt>
</event>
<event>
 6    1  0.1839160E-004  0.3000000E+03  0.7818608E-02  0.1093470E+00
          1   -1    0    0  502    0  0.00000000000E+00  0.00000000000E+00  0.30744588470E+02  0.30744588470E+02  0.00000000000E+00 0.  1.
         13   -1    0    0    0    0 -0.00000000000E+00 -0.00000000000E+00 -0.10000000000E+04  0.10000000000E+04  0.00000000000E+00 0.  1.
    9000005    2    1    2  501    0 -0.93006382230E+01 -0.76432679076E+01 -0.98329537364E+03  0.10122502123E+04  0.24007452797E+03 0.  0.
         13    1    3    3    0    0 -0.44916558312E+02 -0.74394596503E+02 -0.87962732170E+03  0.88390965504E+03  0.00000000000E+00 0.  1.
          1    1    3    3  501    0  0.35615920089E+02  0.66751328596E+02 -0.10366805194E+03  0.12834055722E+03  0.00000000000E+00 0.  1.
         21    1    1    2  502  501  0.93006382230E+01  0.76432679076E+01  0.14039962106E+02  0.18494376215E+02  0.00000000000E+00 0.  1.
<mgrwt>
<rscale>  1 0.30000000E+03</rscale>
<asrwt>0</asrwt>
<pdfrwt beam="1">  1        1 0.11179874E+00 0.30000000E+03</pdfrwt>
<pdfrwt beam="2">0</pdfrwt>
<totfact> 0.28988852E+01</totfact>
</mgrwt>
</event>
<event>
 6    1  0.1839160E-004  0.3000000E+03  0.7818608E-02  0.1093470E+00
          1   -1    0    0  502    0  0.00000000000E+00  0.00000000000E+00  0.29725684439E+02  0.29725684439E+02  0.00000000000E+00 0.  1.
         13   -1    0    0    0    0 -0.00000000000E+00 -0.00000000000E+00 -0.10000000000E+04  0.10000000000E+04  0.00000000000E+00 0.  1.
    9000005    2    1    2  501    0 -0.15071872346E+02 -0.24811786131E+02 -0.90259705533E+03  0.95608467942E+03  0.31396446276E+03 0.  0.
         13    1    3    3    0    0  0.96346756020E+02  0.31390999269E+02 -0.94988690377E+02  0.13889184112E+03  0.00000000000E+00 0.  1.
          3    1    3    3  501    0 -0.11141862837E+03 -0.56202785401E+02 -0.80760836495E+03  0.81719283830E+03  0.00000000000E+00 0.  1.
         21    1    1    2  502  501  0.15071872346E+02  0.24811786131E+02 -0.67677260232E+02  0.73641005014E+02  0.00000000000E+00 0.  1.
<mgrwt>
<rscale>  1 0.30000000E+03</rscale>
<asrwt>0</asrwt>
<pdfrwt beam="1">  1        1 0.10809363E+00 0.30000000E+03</pdfrwt>
<pdfrwt beam="2">0</pdfrwt>
<totfact> 0.30501661E+01</totfact>
</mgrwt>
</event>
<event>
 6    1  0.1839160E-004  0.3000000E+03  0.7818608E-02  0.1093470E+00
          1   -1    0    0  502    0  0.00000000000E+00  0.00000000000E+00  0.12556695483E+02  0.12556695483E+02  0.00000000000E+00 0.  1.
         13   -1    0    0    0    0 -0.00000000000E+00 -0.00000000000E+00 -0.10000000000E+04  0.10000000000E+04  0.00000000000E+00 0.  1.
    9000005    2    1    2  501    0 -0.21375710735E+02  0.23913622712E+02 -0.90848977504E+03  0.92733673199E+03  0.18322379973E+03 0.  0.
         13    1    3    3    0    0 -0.10290758820E+03  0.12610542312E+02 -0.49948644865E+03  0.51013303154E+03  0.00000000000E+00 0.  1.
          1    1    3    3  501    0  0.81531877463E+02  0.11303080400E+02 -0.40900332639E+03  0.41720370045E+03  0.00000000000E+00 0.  1.
         21    1    1    2  502  501  0.21375710735E+02 -0.23913622712E+02 -0.78953529477E+02  0.85219963492E+02  0.00000000000E+00 0.  1.
<mgrwt>
<rscale>  1 0.30000000E+03</rscale>
<asrwt>0</asrwt>
<pdfrwt beam="1">  1        1 0.45660807E-01 0.30000000E+03</pdfrwt>
<pdfrwt beam="2">0</pdfrwt>
<totfact> 0.99404776E+01</totfact>
</mgrwt>
</event>
<event>
 6    1  0.1839160E-004  0.3000000E+03  0.7818608E-02  0.1093470E+00
          1   -1    0    0  502    0  0.00000000000E+00  0.00000000000E+00  0.52852550034E+02  0.52852550034E+02  0.00000000000E+00 0.  1.
         13   -1    0    0    0    0 -0.00000000000E+00 -0.00000000000E+00 -0.10000000000E+04  0.10000000000E+04  0.00000000000E+00 0.  1.
    9000005    2    1    2  501    0  0.12091045200E+02  0.41243248549E+01 -0.97083827473E+03  0.10259367813E+04  0.33144550090E+03 0.  0.
         13    1    3    3    0    0  0.10079272634E+03  0.13551702784E+03 -0.41837911491E+03  0.45118191709E+03  0.00000000000E+00 0.  1.
          1    1    3    3  501    0 -0.88701681137E+02 -0.13139270299E+03 -0.55245915983E+03  0.57475486419E+03  0.00000000000E+00 0.  1.
         21    1    1    2  502  501 -0.12091045200E+02 -0.41243248549E+01  0.23690824766E+02  0.26915768755E+02  0.00000000000E+00 0.  1.
<mgrwt>
<rscale>  1 0.30000000E+03</rscale>
<asrwt>0</asrwt>
<pdfrwt beam="1">  1        1 0.19219150E+00 0.30000000E+03</pdfrwt>
<pdfrwt beam="2">0</pdfrwt>
<totfact> 0.11160651E+01</totfact>
</mgrwt>
</event>
<event>
 6    1  0.1839160E-004  0.3000000E+03  0.7818608E-02  0.1093470E+00
          1   -1    0    0  502    0  0.00000000000E+00  0.00000000000E+00  0.52534725039E+02  0.52534725039E+02  0.00000000000E+00 0.  1.
         13   -1    0    0    0    0 -0.00000000000E+00 -0.00000000000E+00 -0.10000000000E+04  0.10000000000E+04  0.00000000000E+00 0.  1.
    9000005    2    1    2  501    0  0.80999334212E+01 -0.20509831725E+02 -0.96741300917E+03  0.10227996579E+04  0.33127775013E+03 0.  0.
         13    1    3    3    0    0  0.76495840648E+02 -0.11452497132E+03 -0.17895036994E+03  0.22581146470E+03  0.00000000000E+00 0.  1.
          3    1    3    3  501    0 -0.68395907227E+02  0.94015139591E+02 -0.78846263923E+03  0.79698819318E+03  0.00000000000E+00 0.  1.
         21    1    1    2  502  501 -0.80999334212E+01  0.20509831725E+02  0.19947734209E+02  0.29735067158E+02  0.00000000000E+00 0.  1.
<mgrwt>
<rscale>  1 0.30000000E+03</rscale>
<asrwt>0</asrwt>
<pdfrwt beam="1">  1        1 0.19103577E+00 0.30000000E+03</pdfrwt>
<pdfrwt beam="2">0</pdfrwt>
<totfact> 0.11303916E+01</totfact>
</mgrwt>
</event>
<event>
 6    1  0.1839160E-004  0.3000000E+03  0.7818608E-02  0.1093470E+00
          1   -1    0    0  502    0  0.00000000000E+00  0.00000000000E+00  0.31465766393E+02  0.31465766393E+02  0.00000000000E+00 0.  1.
         13   -1    0    0    0    0 -0.00000000000E+00 -0.00000000000E+00 -0.10000000000E+04  0.10000000000E+04  0.00000000000E+00 0.  1.
    9000005    2    1    2  501    0 -0.20920538691E+02  0.49900341211E+01 -0.93240605371E+03  0.98942037708E+03  0.33031661207E+03 0.  0.
         13    1    3    3    0    0  0.11540657958E+03  0.71617970362E+02 -0.20198319366E+03  0.24340300493E+03  0.00000000000E+00 0.  1.
          1    1    3    3  501    0 -0.13632711827E+03 -0.66627936241E+02 -0.73042286005E+03  0.74601737215E+03  0.00000000000E+00 0.  1.
         21    1    1    2  502  501  0.20920538691E+02 -0.49900341211E+01 -0.36128179901E+02  0.42045389314E+02  0.00000000000E+00 0. -1.
<mgrwt>
<rscale>  1 0.30000000E+03</rscale>
<asrwt>0</asrwt>
<pdfrwt beam="1">  1        1 0.11442121E+00 0.30000000E+03</pdfrwt>
<pdfrwt beam="2">0</pdfrwt>
<totfact> 0.27981711E+01</totfact>
</mgrwt>
</event>
<event>
 6    1  0.1839160E-004  0.3000000E+03  0.7818608E-02  0.1093470E+00
          1   -1    0    0  502    0  0.00000000000E+00  0.00000000000E+00  0.31063783947E+02  0.31063783947E+02  0.00000000000E+00 0.  1.
         13   -1    0    0    0    0 -0.00000000000E+00 -0.00000000000E+00 -0.10000000000E+04  0.10000000000E+04  0.00000000000E+00 0.  1.
    9000005    2    1    2  501    0 -0.18748289620E+02  0.90138844346E+01 -0.93502616810E+03  0.99128137794E+03  0.32853019150E+03 0.  0.
         13    1    3    3    0    0 -0.15262929984E+03  0.94624608614E+01 -0.73394844560E+03  0.74971031881E+03  0.00000000000E+00 0.  1.
          1    1    3    3  501    0  0.13388101022E+03 -0.44857642681E+00 -0.20107772250E+03  0.24157105912E+03  0.00000000000E+00 0.  1.
         21    1    1    2  502  501  0.18748289620E+02 -0.90138844346E+01 -0.33910047948E+02  0.39782406012E+02  0.00000000000E+00 0. -1.
<mgrwt>
<rscale>  1 0.30000000E+03</rscale>
<asrwt>0</asrwt>
<pdfrwt beam="1">  1        1 0.11295945E+00 0.30000000E+03</pdfrwt>
<pdfrwt beam="2">0</pdfrwt>
<totfact> 0.28536817E+01</totfact>
</mgrwt>
</event>
<event>
 6    1  0.1839160E-004  0.3000000E+03  0.7818608E-02  0.1093470E+00
          1   -1    0    0  502    0  0.00000000000E+00  0.00000000000E+00  0.36851592538E+02  0.36851592538E+02  0.00000000000E+00 0.  1.
         13   -1    0    0    0    0 -0.00000000000E+00 -0.00000000000E+00 -0.10000000000E+04  0.10000000000E+04  0.00000000000E+00 0.  1.
    9000005    2    1    2  501    0 -0.11127189046E+02  0.47445529218E+01 -0.96842677233E+03  0.10236536285E+04  0.33146645788E+03 0.  0.
         13    1    3    3    0    0 -0.12482333944E+03  0.10698497730E+03 -0.35125989990E+03  0.38782749865E+03  0.00000000000E+00 0.  1.
          3    1    3    3  501    0  0.11369615040E+03 -0.10224042438E+03 -0.61716687243E+03  0.63582612987E+03  0.00000000000E+00 0.  1.
         21    1    1    2  502  501  0.11127189046E+02 -0.47445529218E+01  0.52783648676E+01  0.13197964016E+02  0.00000000000E+00 0. -1.
<mgrwt>
<rscale>  1 0.30000000E+03</rscale>
<asrwt>0</asrwt>
<pdfrwt beam="1">  1        1 0.13400607E+00 0.30000000E+03</pdfrwt>
<pdfrwt beam="2">0</pdfrwt>
<totfact> 0.21767401E+01</totfact>
</mgrwt>
</event>
<event>
 6    1  0.1839160E-004  0.3000000E+03  0.7818608E-02  0.1093470E+00
          1   -1    0    0  502    0  0.00000000000E+00  0.00000000000E+00  0.92131119101E+02  0.92131119101E+02  0.00000000000E+00 0.  1.
         13   -1    0    0    0    0 -0.00000000000E+00 -0.00000000000E+00 -0.10000000000E+04  0.10000000000E+04  0.00000000000E+00 0.  1.
    9000005    2    1    2  501    0  0.14502833641E+03  0.12492724349E+03 -0.77336533889E+03  0.85818403675E+03  0.31897626716E+03 0.  0.
         13    1    3    3    0    0 -0.87897031886E+02 -0.23147199874E+02 -0.25832727223E+03  0.27385153031E+03  0.00000000000E+00 0.  1.
          3    1    3    3  501    0  0.23292536829E+03  0.14807444337E+03 -0.51503806666E+03  0.58433250644E+03  0.00000000000E+00 0.  1.
         21    1    1    2  502  501 -0.14502833641E+03 -0.12492724349E+03 -0.13450354201E+03  0.23394708235E+03  0.00000000000E+00 0.  1.
<mgrwt>
<rscale>  1 0.30000000E+03</rscale>
<asrwt>0</asrwt>
<pdfrwt beam="1">  1        1 0.33502296E+00 0.30000000E+03</pdfrwt>
<pdfrwt beam="2">0</pdfrwt>
<totfact> 0.23464790E+00</totfact>
</mgrwt>
</event>
<event>
 6    1  0.1839160E-004  0.3000000E+03  0.7818608E-02  0.1093470E+00
          3   -1    0    0  502    0  0.00000000000E+00  0.00000000000E+00  0.22158010153E+02  0.22158010153E+02  0.00000000000E+00 0.  1.
         13   -1    0    0    0    0 -0.00000000000E+00 -0.00000000000E+00 -0.10000000000E+04  0.10000000000E+04  0.00000000000E+00 0.  1.
    9000005    2    1    2  501    0  0.45307292284E+01 -0.19294688993E+02 -0.96942487130E+03  0.10006252348E+04  0.24713046524E+03 0.  0.
         13    1    3    3    0    0  0.74795678652E+02 -0.10783565992E+03 -0.60512316348E+03  0.61919057331E+03  0.00000000000E+00 0.  1.
          3    1    3    3  501    0 -0.70264949423E+02  0.88540970924E+02 -0.36430170782E+03  0.38143466147E+03  0.00000000000E+00 0.  1.
         21    1    1    2  502  501 -0.45307292284E+01  0.19294688993E+02 -0.84171185458E+01  0.21532775374E+02  0.00000000000E+00 0. -1.
<mgrwt>
<rscale>  1 0.30000000E+03</rscale>
<asrwt>0</asrwt>
<pdfrwt beam="1">  1        3 0.80574752E-01 0.30000000E+03</pdfrwt>
<pdfrwt beam="2">0</pdfrwt>
<totfact> 0.65907800E+00</totfact>
</mgrwt>
</event>
<event>
 6    1  0.1839160E-004  0.3000000E+03  0.7818608E-02  0.1093470E+00
          1   -1    0    0  502    0  0.00000000000E+00  0.00000000000E+00  0.78093451805E+02  0.78093451805E+02  0.00000000000E+00 0.  1.
         13   -1    0    0    0    0 -0.00000000000E+00 -0.00000000000E+00 -0.10000000000E+04  0.10000000000E+04  0.00000000000E+00 0.  1.
    9000005    2    1    2  501    0 -0.81174092228E+01 -0.17710543146E+02 -0.97312175847E+03  0.10232978915E+04  0.31590039912E+03 0.  0.
         13    1    3    3    0    0  0.36785916292E+02 -0.48594104333E+02 -0.13878365112E+02  0.62507596591E+02  0.00000000000E+00 0.  1.
          1    1    3    3  501    0 -0.44903325515E+02  0.30883561187E+02 -0.95924339336E+03  0.96079029486E+03  0.00000000000E+00 0.  1.
         21    1    1    2  502  501  0.81174092228E+01  0.17710543146E+02  0.51215210275E+02  0.54795560355E+02  0.00000000000E+00 0.  1.
<mgrwt>
<rscale>  1 0.30000000E+03</rscale>
<asrwt>0</asrwt>
<pdfrwt beam="1">  1        1 0.28397679E+00 0.30000000E+03</pdfrwt>
<pdfrwt beam="2">0</pdfrwt>
<totfact> 0.41365680E+00</totfact>
</mgrwt>
</event>
<event>
 6    1  0.1839160E-004  0.3000000E+03  0.7818608E-02  0.1093470E+00
          1   -1    0    0  502    0  0.00000000000E+00  0.00000000000E+00  0.27069277986E+02  0.27069277986E+02  0.00000000000E+00 0.  1.
         13   -1    0    0    0    0 -0.00000000000E+00 -0.00000000000E+00 -0.10000000000E+04  0.10000000000E+04  0.00000000000E+00 0.  1.
    9000005    2    1    2  501    0 -0.12475286981E+02  0.80888334483E+01 -0.92444355637E+03  0.97635372570E+03  0.31376686689E+03 0.  0.
         13    1    3    3    0    0 -0.14645593859E+02 -0.15255839044E+03 -0.46863107940E+03  0.49305541727E+03  0.00000000000E+00 0.  1.
          3    1    3    3  501    0  0.21703068777E+01  0.16064722389E+03 -0.45581247697E+03  0.48329830843E+03  0.00000000000E+00 0.  1.
         21    1    1    2  502  501  0.12475286981E+02 -0.80888334483E+01 -0.48487165644E+02  0.50715552290E+02  0.00000000000E+00 0. -1.
<mgrwt>
<rscale>  1 0.30000000E+03</rscale>
<asrwt>0</asrwt>
<pdfrwt beam="1">  1        1 0.98433946E-01 0.30000000E+03</pdfrwt>
<pdfrwt beam="2">0</pdfrwt>
<totfact> 0.35024086E+01</totfact>
</mgrwt>
</event>
<event>
 6    1  0.1839160E-004  0.3000000E+03  0.7818608E-02  0.1093470E+00
          1   -1    0    0  502    0  0.00000000000E+00  0.00000000000E+00  0.41932372198E+02  0.41932372198E+02  0.00000000000E+00 0.  1.
         13   -1    0    0    0    0 -0.00000000000E+00 -0.00000000000E+00 -0.10000000000E+04  0.10000000000E+04  0.00000000000E+00 0.  1.
    9000005    2    1    2  501    0 -0.15188538036E+02  0.22827341709E+02 -0.96205896435E+03  0.10142247923E+04  0.31991045496E+03 0.  0.
         13    1    3    3    0    0  0.15195085719E+03  0.24328806901E+02 -0.45213881006E+03  0.47760910524E+03  0.00000000000E+00 0.  1.
          1    1    3    3  501    0 -0.16713939523E+03 -0.15014651919E+01 -0.50992015428E+03  0.53661568704E+03  0.00000000000E+00 0.  1.
         21    1    1    2  502  501  0.15188538036E+02 -0.22827341709E+02  0.39913365438E+01  0.27707579912E+02  0.00000000000E+00 0.  1.
<mgrwt>
<rscale>  1 0.30000000E+03</rscale>
<asrwt>0</asrwt>
<pdfrwt beam="1">  1        1 0.15248167E+00 0.30000000E+03</pdfrwt>
<pdfrwt beam="2">0</pdfrwt>
<totfact> 0.17452172E+01</totfact>
</mgrwt>
</event>
<event>
 6    1  0.1839160E-004  0.3000000E+03  0.7818608E-02  0.1093470E+00
          1   -1    0    0  502    0  0.00000000000E+00  0.00000000000E+00  0.59166181990E+02  0.59166181990E+02  0.00000000000E+00 0.  1.
         13   -1    0    0    0    0 -0.00000000000E+00 -0.00000000000E+00 -0.10000000000E+04  0.10000000000E+04  0.00000000000E+00 0.  1.
    9000005    2    1    2  501    0  0.41160997175E+02  0.34656462900E+02 -0.94305775614E+03  0.10053122684E+04  0.34409232404E+03 0.  0.
         13    1    3    3    0    0  0.17687946950E+03  0.73453591069E+02 -0.68383493145E+03  0.71014927321E+03  0.00000000000E+00 0.  1.
          3    1    3    3  501    0 -0.13571847233E+03 -0.38797128169E+02 -0.25922282469E+03  0.29516299518E+03  0.00000000000E+00 0.  1.
         21    1    1    2  502  501 -0.41160997175E+02 -0.34656462900E+02  0.22239381250E+01  0.53853913599E+02  0.00000000000E+00 0.  1.
<mgrwt>
<rscale>  1 0.30000000E+03</rscale>
<asrwt>0</asrwt>
<pdfrwt beam="1">  1        1 0.21515021E+00 0.30000000E+03</pdfrwt>
<pdfrwt beam="2">0</pdfrwt>
<totfact> 0.86868121E+00</totfact>
</mgrwt>
</event>
<event>
 6    1  0.1839160E-004  0.3000000E+03  0.7818608E-02  0.1093470E+00
          1   -1    0    0  502    0  0.00000000000E+00  0.00000000000E+00  0.43341791084E+02  0.43341791084E+02  0.00000000000E+00 0.  1.
         13   -1    0    0    0    0 -0.00000000000E+00 -0.00000000000E+00 -0.10000000000E+04  0.10000000000E+04  0.00000000000E+00 0.  1.
    9000005    2    1    2  501    0 -0.97439096679E+01 -0.26224520723E+02 -0.95833072651E+03  0.10153156144E+04  0.33419357603E+03 0.  0.
         13    1    3    3    0    0  0.64127210561E+02 -0.12041414792E+03 -0.17011237654E+03  0.21805982392E+03  0.00000000000E+00 0.  1.
          1    1    3    3  501    0 -0.73871120229E+02  0.94189627196E+02 -0.78821834997E+03  0.79725579051E+03  0.00000000000E+00 0.  1.
         21    1    1    2  502  501  0.97439096679E+01  0.26224520723E+02  0.16725175975E+01  0.28026176654E+02  0.00000000000E+00 0.  1.
<mgrwt>
<rscale>  1 0.30000000E+03</rscale>
<asrwt>0</asrwt>
<pdfrwt beam="1">  1        1 0.15760685E+00 0.30000000E+03</pdfrwt>
<pdfrwt beam="2">0</pdfrwt>
<totfact> 0.16448231E+01</totfact>
</mgrwt>
</event>
<event>
 6    1  0.1839160E-004  0.3000000E+03  0.7818608E-02  0.1093470E+00
          1   -1    0    0  502    0  0.00000000000E+00  0.00000000000E+00  0.42127102943E+02  0.42127102943E+02  0.00000000000E+00 0.  1.
         13   -1    0    0    0    0 -0.00000000000E+00 -0.00000000000E+00 -0.10000000000E+04  0.10000000000E+04  0.00000000000E+00 0.  1.
    9000005    2    1    2  501    0  0.55146335649E+02 -0.30119727860E+01 -0.90838589298E+03  0.96797082277E+03  0.32977627699E+03 0.  0.
         13    1    3    3    0    0 -0.21887416314E+02 -0.15741862920E+03 -0.49917901019E+03  0.52386960975E+03  0.00000000000E+00 0.  1.
          1    1    3    3  501    0  0.77033751963E+02  0.15440665641E+03 -0.40920688279E+03  0.44410121302E+03  0.00000000000E+00 0.  1.
         21    1    1    2  502  501 -0.55146335649E+02  0.30119727860E+01 -0.49487004082E+02  0.74156280169E+02  0.00000000000E+00 0.  1.
<mgrwt>
<rscale>  1 0.30000000E+03</rscale>
<asrwt>0</asrwt>
<pdfrwt beam="1">  1        1 0.15318979E+00 0.30000000E+03</pdfrwt>
<pdfrwt beam="2">0</pdfrwt>
<totfact> 0.17309152E+01</totfact>
</mgrwt>
</event>
<event>
 6    1  0.1839160E-004  0.3000000E+03  0.7818608E-02  0.1093470E+00
          1   -1    0    0  502    0  0.00000000000E+00  0.00000000000E+00  0.35987484929E+02  0.35987484929E+02  0.00000000000E+00 0.  1.
         13   -1    0    0    0    0 -0.00000000000E+00 -0.00000000000E+00 -0.10000000000E+04  0.10000000000E+04  0.00000000000E+00 0.  1.
    9000005    2    1    2  501    0 -0.35306754330E+02 -0.17466447024E+02 -0.92051367831E+03  0.97730365008E+03  0.32592230490E+03 0.  0.
         13    1    3    3    0    0 -0.59873156601E+02  0.12379707307E+03 -0.20033996545E+03  0.24299508624E+03  0.00000000000E+00 0.  1.
          3    1    3    3  501    0  0.24566402271E+02 -0.14126352009E+03 -0.72017371286E+03  0.73430856384E+03  0.00000000000E+00 0.  1.
         21    1    1    2  502  501  0.35306754330E+02  0.17466447024E+02 -0.43498836762E+02  0.58683834849E+02  0.00000000000E+00 0.  1.
<mgrwt>
<rscale>  1 0.30000000E+03</rscale>
<asrwt>0</asrwt>
<pdfrwt beam="1">  1        1 0.13086386E+00 0.30000000E+03</pdfrwt>
<pdfrwt beam="2">0</pdfrwt>
<totfact> 0.22633719E+01</totfact>
</mgrwt>
</event>
<event>
 6    1  0.1839160E-004  0.3000000E+03  0.7818608E-02  0.1093470E+00
          1   -1    0    0  502    0  0.00000000000E+00  0.00000000000E+00  0.22451022430E+02  0.22451022430E+02  0.00000000000E+00 0.  1.
         13   -1    0    0    0    0 -0.00000000000E+00 -0.00000000000E+00 -0.10000000000E+04  0.10000000000E+04  0.00000000000E+00 0.  1.
    9000005    2    1    2  501    0 -0.80479958294E+01  0.12290385208E+02 -0.96047812434E+03  0.99992908123E+03  0.27771229060E+03 0.  0.
         13    1    3    3    0    0  0.10961431058E+03  0.85280998408E+02 -0.44412835524E+03  0.46533658968E+03  0.00000000000E+00 0.  1.
          1    1    3    3  501    0 -0.11766230641E+03 -0.72990613200E+02 -0.51634976910E+03  0.53459249154E+03  0.00000000000E+00 0.  1.
         21    1    1    2  502  501  0.80479958294E+01 -0.12290385208E+02 -0.17070853233E+02  0.22521941202E+02  0.00000000000E+00 0.  1.
<mgrwt>
<rscale>  1 0.30000000E+03</rscale>
<asrwt>0</asrwt>
<pdfrwt beam="1">  1        1 0.81640254E-01 0.30000000E+03</pdfrwt>
<pdfrwt beam="2">0</pdfrwt>
<totfact> 0.45663901E+01</totfact>
</mgrwt>
</event>
<event>
 6    1  0.1839160E-004  0.3000000E+03  0.7818608E-02  0.1093470E+00
          1   -1    0    0  502    0  0.00000000000E+00  0.00000000000E+00  0.45671164715E+02  0.45671164715E+02  0.00000000000E+00 0.  1.
         13   -1    0    0    0    0 -0.00000000000E+00 -0.00000000000E+00 -0.10000000000E+04  0.10000000000E+04  0.00000000000E+00 0.  1.
    9000005    2    1    2  501    0  0.82443195088E+01 -0.70868589784E+01 -0.97068273877E+03  0.10260333814E+04  0.33226695297E+03 0.  0.
         13    1    3    3    0    0  0.87964860311E+02 -0.14403028424E+03 -0.40965186204E+03  0.44305438436E+03  0.00000000000E+00 0.  1.
          3    1    3    3  501    0 -0.79720540802E+02  0.13694342526E+03 -0.56103087672E+03  0.58297899704E+03  0.00000000000E+00 0.  1.
         21    1    1    2  502  501 -0.82443195088E+01  0.70868589784E+01  0.16353903483E+02  0.19637783314E+02  0.00000000000E+00 0.  1.
<mgrwt>
<rscale>  1 0.30000000E+03</rscale>
<asrwt>0</asrwt>
<pdfrwt beam="1">  1        1 0.16607731E+00 0.30000000E+03</pdfrwt>
<pdfrwt beam="2">0</pdfrwt>
<totfact> 0.14933919E+01</totfact>
</mgrwt>
</event>
<event>
 6    1  0.1839160E-004  0.3000000E+03  0.7818608E-02  0.1093470E+00
          1   -1    0    0  502    0  0.00000000000E+00  0.00000000000E+00  0.35287542192E+02  0.35287542192E+02  0.00000000000E+00 0.  1.
         13   -1    0    0    0    0 -0.00000000000E+00 -0.00000000000E+00 -0.10000000000E+04  0.10000000000E+04  0.00000000000E+00 0.  1.
    9000005    2    1    2  501    0  0.19285854489E+02  0.98623604951E+00 -0.95744223706E+03  0.10146532757E+04  0.33533970192E+03 0.  0.
         13    1    3    3    0    0 -0.12557720537E+03  0.65701978621E+02 -0.23040300629E+03  0.27050310499E+03  0.00000000000E+00 0.  1.
          3    1    3    3  501    0  0.14486305986E+03 -0.64715742571E+02 -0.72703923077E+03  0.74415017068E+03  0.00000000000E+00 0.  1.
         21    1    1    2  502  501 -0.19285854489E+02 -0.98623604951E+00 -0.72702207469E+01  0.20634266515E+02  0.00000000000E+00 0. -1.
<mgrwt>
<rscale>  1 0.30000000E+03</rscale>
<asrwt>0</asrwt>
<pdfrwt beam="1">  1        1 0.12831861E+00 0.30000000E+03</pdfrwt>
<pdfrwt beam="2">0</pdfrwt>
<totfact> 0.23368750E+01</totfact>
</mgrwt>
</event>
<event>
 6    1  0.1839160E-004  0.3000000E+03  0.7818608E-02  0.1093470E+00
          1   -1    0    0  502    0  0.00000000000E+00  0.00000000000E+00  0.35695212480E+02  0.35695212480E+02  0.00000000000E+00 0.  1.
         13   -1    0    0    0    0 -0.00000000000E+00 -0.00000000000E+00 -0.10000000000E+04  0.10000000000E+04  0.00000000000E+00 0.  1.
    9000005    2    1    2  501    0  0.30625730328E+00 -0.29451955534E+02 -0.94325195952E+03  0.99949116512E+03  0.32922760902E+03 0.  0.
         13    1    3    3    0    0  0.15854857754E+03 -0.35075365750E+02 -0.35633043936E+03  0.39158564164E+03  0.00000000000E+00 0.  1.
          3    1    3    3  501    0 -0.15824232024E+03  0.56234102156E+01 -0.58692152016E+03  0.60790552348E+03  0.00000000000E+00 0.  1.
         21    1    1    2  502  501 -0.30625730328E+00  0.29451955534E+02 -0.21052828002E+02  0.36204047360E+02  0.00000000000E+00 0.  1.
<mgrwt>
<rscale>  1 0.30000000E+03</rscale>
<asrwt>0</asrwt>
<pdfrwt beam="1">  1        1 0.12980105E+00 0.30000000E+03</pdfrwt>
<pdfrwt beam="2">0</pdfrwt>
<totfact> 0.22936942E+01</totfact>
</mgrwt>
</event>
<event>
 6    1  0.1839160E-004  0.3000000E+03  0.7818608E-02  0.1093470E+00
          1   -1    0    0  502    0  0.00000000000E+00  0.00000000000E+00  0.32460927581E+02  0.32460927581E+02  0.00000000000E+00 0.  1.
         13   -1    0    0    0    0 -0.00000000000E+00 -0.00000000000E+00 -0.10000000000E+04  0.10000000000E+04  0.00000000000E+00 0.  1.
    9000005    2    1    2  501    0  0.17550692939E+02  0.30314394655E+01 -0.94849346621E+03  0.10063850467E+04  0.33593718212E+03 0.  0.
         13    1    3    3    0    0  0.93944448420E+02 -0.13125803488E+03 -0.65632597107E+03  0.67588313443E+03  0.00000000000E+00 0.  1.
          3    1    3    3  501    0 -0.76393755481E+02  0.13428947434E+03 -0.29216749514E+03  0.33050191227E+03  0.00000000000E+00 0.  1.
         21    1    1    2  502  501 -0.17550692939E+02 -0.30314394655E+01 -0.19045606212E+02  0.26075880884E+02  0.00000000000E+00 0. -1.
<mgrwt>
<rscale>  1 0.30000000E+03</rscale>
<asrwt>0</asrwt>
<pdfrwt beam="1">  1        1 0.11803999E+00 0.30000000E+03</pdfrwt>
<pdfrwt beam="2">0</pdfrwt>
<totfact> 0.26670963E+01</totfact>
</mgrwt>
</event>
<event>
 6    1  0.1839160E-004  0.3000000E+03  0.7818608E-02  0.1093470E+00
          1   -1    0    0  502    0  0.00000000000E+00  0.00000000000E+00  0.39433222124E+02  0.39433222124E+02  0.00000000000E+00 0.  1.
         13   -1    0    0    0    0 -0.00000000000E+00 -0.00000000000E+00 -0.10000000000E+04  0.10000000000E+04  0.00000000000E+00 0.  1.
    9000005    2    1    2  501    0  0.77156577417E+01  0.14772615832E+02 -0.97088791705E+03  0.10198299707E+04  0.31169225223E+03 0.  0.
         13    1    3    3    0    0  0.23022923418E+02  0.15874288803E+03 -0.40231296397E+03  0.43311093323E+03  0.00000000000E+00 0.  1.
          3    1    3    3  501    0 -0.15307265676E+02 -0.14397027219E+03 -0.56857495308E+03  0.58671903746E+03  0.00000000000E+00 0.  1.
         21    1    1    2  502  501 -0.77156577417E+01 -0.14772615832E+02  0.10321139172E+02  0.19603251432E+02  0.00000000000E+00 0.  1.
<mgrwt>
<rscale>  1 0.30000000E+03</rscale>
<asrwt>0</asrwt>
<pdfrwt beam="1">  1        1 0.14339384E+00 0.30000000E+03</pdfrwt>
<pdfrwt beam="2">0</pdfrwt>
<totfact> 0.19424311E+01</totfact>
</mgrwt>
</event>
<event>
 6    1  0.1839160E-004  0.3000000E+03  0.7818608E-02  0.1093470E+00
          1   -1    0    0  502    0  0.00000000000E+00  0.00000000000E+00  0.43821934632E+02  0.43821934632E+02  0.00000000000E+00 0.  1.
         13   -1    0    0    0    0 -0.00000000000E+00 -0.00000000000E+00 -0.10000000000E+04  0.10000000000E+04  0.00000000000E+00 0.  1.
    9000005    2    1    2  501    0  0.25739957707E+02 -0.69491908116E+02 -0.71766808021E+03  0.79406468502E+03  0.33166184574E+03 0.  0.
         13    1    3    3    0    0  0.16819150877E+02 -0.19615376414E+03 -0.31138239723E+03  0.36839948470E+03  0.00000000000E+00 0.  1.
          3    1    3    3  501    0  0.89208068294E+01  0.12666185602E+03 -0.40628568298E+03  0.42566520031E+03  0.00000000000E+00 0.  1.
         21    1    1    2  502  501 -0.25739957707E+02  0.69491908116E+02 -0.23850998516E+03  0.24975724962E+03  0.00000000000E+00 0.  1.
<mgrwt>
<rscale>  1 0.30000000E+03</rscale>
<asrwt>0</asrwt>
<pdfrwt beam="1">  1        1 0.15935283E+00 0.30000000E+03</pdfrwt>
<pdfrwt beam="2">0</pdfrwt>
<totfact> 0.16122027E+01</totfact>
</mgrwt>
</event>
<event>
 6    1  0.1839160E-004  0.3000000E+03  0.7818608E-02  0.1093470E+00
          3   -1    0    0  502    0  0.00000000000E+00  0.00000000000E+00  0.33872830909E+02  0.33872830909E+02  0.00000000000E+00 0.  1.
         13   -1    0    0    0    0 -0.00000000000E+00 -0.00000000000E+00 -0.10000000000E+04  0.10000000000E+04  0.00000000000E+00 0.  1.
    9000005    2    1    2  501    0 -0.23155634733E+02 -0.18097688933E+01 -0.96037333050E+03  0.10099444933E+04  0.31165924804E+03 0.  0.
         13    1    3    3    0    0  0.73375508503E+02 -0.13122009293E+03 -0.42859287226E+03  0.45419657439E+03  0.00000000000E+00 0.  1.
          3    1    3    3  501    0 -0.96531143236E+02  0.12941032404E+03 -0.53178045823E+03  0.55574791888E+03  0.00000000000E+00 0.  1.
         21    1    1    2  502  501  0.23155634733E+02  0.18097688933E+01 -0.57538385946E+01  0.23928337633E+02  0.00000000000E+00 0.  1.
<mgrwt>
<rscale>  1 0.30000000E+03</rscale>
<asrwt>0</asrwt>
<pdfrwt beam="1">  1        3 0.12317419E+00 0.30000000E+03</pdfrwt>
<pdfrwt beam="2">0</pdfrwt>
<totfact> 0.21248015E+00</totfact>
</mgrwt>
</event>
<event>
 6    1  0.1839160E-004  0.3000000E+03  0.7818608E-02  0.1093470E+00
          1   -1    0    0  502    0  0.00000000000E+00  0.00000000000E+00  0.38700283100E+02  0.38700283100E+02  0.00000000000E+00 0.  1.
         13   -1    0    0    0    0 -0.00000000000E+00 -0.00000000000E+00 -0.10000000000E+04  0.10000000000E+04  0.00000000000E+00 0.  1.
    9000005    2    1    2  501    0 -0.10137747499E+02  0.32393937789E+02 -0.91117086319E+03  0.97816068363E+03  0.35413816504E+03 0.  0.
         13    1    3    3    0    0 -0.85667149020E+02  0.33035266848E+02 -0.34255052874E+02  0.97997948573E+02  0.00000000000E+00 0.  1.
          1    1    3    3  501    0  0.75529401521E+02 -0.64132905909E+00 -0.87691581032E+03  0.88016273506E+03  0.00000000000E+00 0.  1.
         21    1    1    2  502  501  0.10137747499E+02 -0.32393937789E+02 -0.50128853705E+02  0.60539599467E+02  0.00000000000E+00 0.  1.
<mgrwt>
<rscale>  1 0.30000000E+03</rscale>
<asrwt>0</asrwt>
<pdfrwt beam="1">  1        1 0.14072860E+00 0.30000000E+03</pdfrwt>
<pdfrwt beam="2">0</pdfrwt>
<totfact> 0.20055240E+01</totfact>
</mgrwt>
</event>
<event>
 6    1  0.1839160E-004  0.3000000E+03  0.7818608E-02  0.1093470E+00
          1   -1    0    0  502    0  0.00000000000E+00  0.00000000000E+00  0.56990053084E+02  0.56990053084E+02  0.00000000000E+00 0.  1.
         13   -1    0    0    0    0 -0.00000000000E+00 -0.00000000000E+00 -0.10000000000E+04  0.10000000000E+04  0.00000000000E+00 0.  1.
    9000005    2    1    2  501    0 -0.21050752201E+02  0.91914045969E+02 -0.88586838943E+03  0.94673360835E+03  0.32039100449E+03 0.  0.
         13    1    3    3    0    0 -0.13438936255E+03 -0.40111649476E+02 -0.24134598557E+03  0.27913675849E+03  0.00000000000E+00 0.  1.
          1    1    3    3  501    0  0.11333861035E+03  0.13202569545E+03 -0.64452240386E+03  0.66759684985E+03  0.00000000000E+00 0.  1.
         21    1    1    2  502  501  0.21050752201E+02 -0.91914045969E+02 -0.57141557482E+02  0.11025644474E+03  0.00000000000E+00 0.  1.
<mgrwt>
<rscale>  1 0.30000000E+03</rscale>
<asrwt>0</asrwt>
<pdfrwt beam="1">  1        1 0.20723699E+00 0.30000000E+03</pdfrwt>
<pdfrwt beam="2">0</pdfrwt>
<totfact> 0.94652634E+00</totfact>
</mgrwt>
</event>
<event>
 6    1  0.1839160E-004  0.3000000E+03  0.7818608E-02  0.1093470E+00
          1   -1    0    0  502    0  0.00000000000E+00  0.00000000000E+00  0.51768295195E+02  0.51768295195E+02  0.00000000000E+00 0.  1.
         13   -1    0    0    0    0 -0.00000000000E+00 -0.00000000000E+00 -0.10000000000E+04  0.10000000000E+04  0.00000000000E+00 0.  1.
    9000005    2    1    2  501    0  0.40427787364E+02  0.26435561852E+02 -0.94725989068E+03  0.10034548463E+04  0.32754707013E+03 0.  0.
         13    1    3    3    0    0  0.12338858993E+03  0.82466072483E+01 -0.89549120343E+03  0.90398962720E+03  0.00000000000E+00 0.  1.
          1    1    3    3  501    0 -0.82960802564E+02  0.18188954604E+02 -0.51768687247E+02  0.99465219102E+02  0.00000000000E+00 0.  1.
         21    1    1    2  502  501 -0.40427787364E+02 -0.26435561852E+02 -0.97181412690E+00  0.48313448897E+02  0.00000000000E+00 0.  1.
<mgrwt>
<rscale>  1 0.30000000E+03</rscale>
<asrwt>0</asrwt>
<pdfrwt beam="1">  1        1 0.18824874E+00 0.30000000E+03</pdfrwt>
<pdfrwt beam="2">0</pdfrwt>
<totfact> 0.11657545E+01</totfact>
</mgrwt>
</event>
<event>
 6    1  0.1839160E-004  0.3000000E+03  0.7818608E-02  0.1093470E+00
          1   -1    0    0  502    0  0.00000000000E+00  0.00000000000E+00  0.19530160799E+02  0.19530160799E+02  0.00000000000E+00 0.  1.
         13   -1    0    0    0    0 -0.00000000000E+00 -0.00000000000E+00 -0.10000000000E+04  0.10000000000E+04  0.00000000000E+00 0.  1.
    9000005    2    1    2  501    0  0.11290005638E+01  0.10228237268E+02 -0.97514672121E+03  0.10079445203E+04  0.25482373652E+03 0.  0.
         13    1    3    3    0    0 -0.78461302685E+02 -0.84002994618E+02 -0.65204832789E+03  0.66210248529E+03  0.00000000000E+00 0.  1.
          1    1    3    3  501    0  0.79590303248E+02  0.94231231886E+02 -0.32309839333E+03  0.34584203504E+03  0.00000000000E+00 0.  1.
         21    1    1    2  502  501 -0.11290005638E+01 -0.10228237268E+02 -0.53231179866E+01  0.11585640465E+02  0.00000000000E+00 0.  1.
<mgrwt>
<rscale>  1 0.30000000E+03</rscale>
<asrwt>0</asrwt>
<pdfrwt beam="1">  1        1 0.71018916E-01 0.30000000E+03</pdfrwt>
<pdfrwt beam="2">0</pdfrwt>
<totfact> 0.55288390E+01</totfact>
</mgrwt>
</event>
<event>
 6    1  0.1839160E-004  0.3000000E+03  0.7818608E-02  0.1093470E+00
          1   -1    0    0  502    0  0.00000000000E+00  0.00000000000E+00  0.29849636074E+02  0.29849636074E+02  0.00000000000E+00 0.  1.
         13   -1    0    0    0    0 -0.00000000000E+00 -0.00000000000E+00 -0.10000000000E+04  0.10000000000E+04  0.00000000000E+00 0.  1.
    9000005    2    1    2  501    0 -0.78386463182E+01  0.11290326878E+02 -0.94210464911E+03  0.99861699327E+03  0.33088640575E+03 0.  0.
         13    1    3    3    0    0  0.60326236322E+02 -0.35566214914E+01 -0.92475699548E+03  0.92672941306E+03  0.00000000000E+00 0.  1.
          3    1    3    3  501    0 -0.68164882640E+02  0.14846948370E+02 -0.17347653628E+02  0.71887580204E+02  0.00000000000E+00 0.  1.
         21    1    1    2  502  501  0.78386463182E+01 -0.11290326878E+02 -0.28045714816E+02  0.31232642806E+02  0.00000000000E+00 0. -1.
<mgrwt>
<rscale>  1 0.30000000E+03</rscale>
<asrwt>0</asrwt>
<pdfrwt beam="1">  1        1 0.10854436E+00 0.30000000E+03</pdfrwt>
<pdfrwt beam="2">0</pdfrwt>
<totfact> 0.30311706E+01</totfact>
</mgrwt>
</event>
<event>
 6    1  0.1839160E-004  0.3000000E+03  0.7818608E-02  0.1093470E+00
          1   -1    0    0  502    0  0.00000000000E+00  0.00000000000E+00  0.59913254698E+02  0.59913254698E+02  0.00000000000E+00 0.  1.
         13   -1    0    0    0    0 -0.00000000000E+00 -0.00000000000E+00 -0.10000000000E+04  0.10000000000E+04  0.00000000000E+00 0.  1.
    9000005    2    1    2  501    0  0.13218042618E+02  0.77864550357E+02 -0.91499882319E+03  0.97704583837E+03  0.33340383769E+03 0.  0.
         13    1    3    3    0    0 -0.51453312373E+02 -0.98412231255E+02 -0.13520768469E+03  0.17496722154E+03  0.00000000000E+00 0.  1.
          3    1    3    3  501    0  0.64671354991E+02  0.17627678161E+03 -0.77979113850E+03  0.80207861683E+03  0.00000000000E+00 0.  1.
         21    1    1    2  502  501 -0.13218042618E+02 -0.77864550357E+02 -0.25087922112E+02  0.82867416328E+02  0.00000000000E+00 0.  1.
<mgrwt>
<rscale>  1 0.30000000E+03</rscale>
<asrwt>0</asrwt>
<pdfrwt beam="1">  1        1 0.21786684E+00 0.30000000E+03</pdfrwt>
<pdfrwt beam="2">0</pdfrwt>
<totfact> 0.84353813E+00</totfact>
</mgrwt>
</event>
<event>
 6    1  0.1839160E-004  0.3000000E+03  0.7818608E-02  0.1093470E+00
          1   -1    0    0  502    0  0.00000000000E+00  0.00000000000E+00  0.30050569150E+02  0.30050569150E+02  0.00000000000E+00 0.  1.
         13   -1    0    0    0    0 -0.00000000000E+00 -0.00000000000E+00 -0.10000000000E+04  0.10000000000E+04  0.00000000000E+00 0.  1.
    9000005    2    1    2  501    0  0.28509872339E+01  0.10266641398E+02 -0.95942185549E+03  0.10150718544E+04  0.33131109349E+03 0.  0.
         13    1    3    3    0    0  0.10258213518E+03  0.12131859805E+03 -0.30562203928E+03  0.34445047189E+03  0.00000000000E+00 0.  1.
          1    1    3    3  501    0 -0.99731147949E+02 -0.11105195666E+03 -0.65379981622E+03  0.67062138247E+03  0.00000000000E+00 0.  1.
         21    1    1    2  502  501 -0.28509872339E+01 -0.10266641398E+02 -0.10527575356E+02  0.14978714787E+02  0.00000000000E+00 0. -1.
<mgrwt>
<rscale>  1 0.30000000E+03</rscale>
<asrwt>0</asrwt>
<pdfrwt beam="1">  1        1 0.10927503E+00 0.30000000E+03</pdfrwt>
<pdfrwt beam="2">0</pdfrwt>
<totfact> 0.30007347E+01</totfact>
</mgrwt>
</event>
<event>
 6    1  0.1839160E-004  0.3000000E+03  0.7818608E-02  0.1093470E+00
          1   -1    0    0  502    0  0.00000000000E+00  0.00000000000E+00  0.56051740542E+02  0.56051740542E+02  0.00000000000E+00 0.  1.
         13   -1    0    0    0    0 -0.00000000000E+00 -0.00000000000E+00 -0.10000000000E+04  0.10000000000E+04  0.00000000000E+00 0.  1.
    9000005    2    1    2  501    0  0.23483078626E+02  0.12492123772E+02 -0.96680461119E+03  0.10209815117E+04  0.32708497798E+03 0.  0.
         13    1    3    3    0    0  0.10745520502E+03 -0.46335105018E+02 -0.11863245767E+03  0.16663499949E+03  0.00000000000E+00 0.  1.
          3    1    3    3  501    0 -0.83972126399E+02  0.58827228790E+02 -0.84817215353E+03  0.85434651218E+03  0.00000000000E+00 0.  1.
         21    1    1    2  502  501 -0.23483078626E+02 -0.12492123772E+02  0.22856351736E+02  0.35070228867E+02  0.00000000000E+00 0.  1.
<mgrwt>
<rscale>  1 0.30000000E+03</rscale>
<asrwt>0</asrwt>
<pdfrwt beam="1">  1        1 0.20382494E+00 0.30000000E+03</pdfrwt>
<pdfrwt beam="2">0</pdfrwt>
<totfact> 0.98239191E+00</totfact>
</mgrwt>
</event>
<event>
 6    1  0.1839160E-004  0.3000000E+03  0.7818608E-02  0.1093470E+00
          1   -1    0    0  502    0  0.00000000000E+00  0.00000000000E+00  0.35515787527E+02  0.35515787527E+02  0.00000000000E+00 0.  1.
         13   -1    0    0    0    0 -0.00000000000E+00 -0.00000000000E+00 -0.10000000000E+04  0.10000000000E+04  0.00000000000E+00 0.  1.
    9000005    2    1    2  501    0  0.40667035902E+01  0.23444017710E+02 -0.95805957690E+03  0.10108695710E+04  0.32157888106E+03 0.  0.
         13    1    3    3    0    0 -0.32808116674E+02 -0.44444406641E+02 -0.58722384865E+01  0.55553226605E+02  0.00000000000E+00 0.  1.
          1    1    3    3  501    0  0.36874820265E+02  0.67888424351E+02 -0.95218733841E+03  0.95531634444E+03  0.00000000000E+00 0.  1.
         21    1    1    2  502  501 -0.40667035902E+01 -0.23444017710E+02 -0.64246355759E+01  0.24646216479E+02  0.00000000000E+00 0.  1.
<mgrwt>
<rscale>  1 0.30000000E+03</rscale>
<asrwt>0</asrwt>
<pdfrwt beam="1">  1        1 0.12914859E+00 0.30000000E+03</pdfrwt>
<pdfrwt beam="2">0</pdfrwt>
<totfact> 0.23125707E+01</totfact>
</mgrwt>
</event>
<event>
 6    1  0.1839160E-004  0.3000000E+03  0.7818608E-02  0.1093470E+00
          1   -1    0    0  502    0  0.00000000000E+00  0.00000000000E+00  0.30254641367E+02  0.30254641367E+02  0.00000000000E+00 0.  1.
         13   -1    0    0    0    0 -0.00000000000E+00 -0.00000000000E+00 -0.10000000000E+04  0.10000000000E+04  0.00000000000E+00 0.  1.
    9000005    2    1    2  501    0  0.21135889602E+02  0.11143383355E+02 -0.94445875449E+03  0.99546508588E+03  0.31365187303E+03 0.  0.
         13    1    3    3    0    0  0.75928040641E+00 -0.94544074030E+02 -0.84057658982E+03  0.84587715526E+03  0.00000000000E+00 0.  1.
          1    1    3    3  501    0  0.20376609196E+02  0.10568745738E+03 -0.10388216468E+03  0.14958793062E+03  0.00000000000E+00 0.  1.
         21    1    1    2  502  501 -0.21135889602E+02 -0.11143383355E+02 -0.25286604141E+02  0.34789555485E+02  0.00000000000E+00 0.  1.
<mgrwt>
<rscale>  1 0.30000000E+03</rscale>
<asrwt>0</asrwt>
<pdfrwt beam="1">  1        1 0.11001711E+00 0.30000000E+03</pdfrwt>
<pdfrwt beam="2">0</pdfrwt>
<totfact> 0.29702666E+01</totfact>
</mgrwt>
</event>
<event>
 6    1  0.1839160E-004  0.3000000E+03  0.7818608E-02  0.1093470E+00
          1   -1    0    0  502    0  0.00000000000E+00  0.00000000000E+00  0.42422177602E+02  0.42422177602E+02  0.00000000000E+00 0.  1.
         13   -1    0    0    0    0 -0.00000000000E+00 -0.00000000000E+00 -0.10000000000E+04  0.10000000000E+04  0.00000000000E+00 0.  1.
    9000005    2    1    2  501    0  0.49324580615E+02 -0.24993697667E+02 -0.78943363585E+03  0.86541916450E+03  0.35026742027E+03 0.  0.
         13    1    3    3    0    0 -0.10321427255E+03 -0.59215344103E+02 -0.91267556489E+02  0.14996469552E+03  0.00000000000E+00 0.  1.
          3    1    3    3  501    0  0.15253885317E+03  0.34221646436E+02 -0.69816607936E+03  0.71545446898E+03  0.00000000000E+00 0.  1.
         21    1    1    2  502  501 -0.49324580615E+02  0.24993697667E+02 -0.16814418655E+03  0.17700301310E+03  0.00000000000E+00 0.  1.
<mgrwt>
<rscale>  1 0.30000000E+03</rscale>
<asrwt>0</asrwt>
<pdfrwt beam="1">  1        1 0.15426279E+00 0.30000000E+03</pdfrwt>
<pdfrwt beam="2">0</pdfrwt>
<totfact> 0.17095135E+01</totfact>
</mgrwt>
</event>
<event>
 6    1  0.1839160E-004  0.3000000E+03  0.7818608E-02  0.1093470E+00
          1   -1    0    0  502    0  0.00000000000E+00  0.00000000000E+00  0.27269372912E+02  0.27269372912E+02  0.00000000000E+00 0.  1.
         13   -1    0    0    0    0 -0.00000000000E+00 -0.00000000000E+00 -0.10000000000E+04  0.10000000000E+04  0.00000000000E+00 0.  1.
    9000005    2    1    2  501    0 -0.14553112041E+01  0.11085533020E+02 -0.93187066268E+03  0.98490731837E+03  0.31864476593E+03 0.  0.
         13    1    3    3    0    0 -0.13067319387E+03  0.70530786167E+01 -0.18309674428E+03  0.22505476507E+03  0.00000000000E+00 0.  1.
          1    1    3    3  501    0  0.12921788267E+03  0.40324544037E+01 -0.74877391840E+03  0.75985255330E+03  0.00000000000E+00 0.  1.
         21    1    1    2  502  501  0.14553112041E+01 -0.11085533020E+02 -0.40859964413E+02  0.42362054540E+02  0.00000000000E+00 0. -1.
<mgrwt>
<rscale>  1 0.30000000E+03</rscale>
<asrwt>0</asrwt>
<pdfrwt beam="1">  1        1 0.99161565E-01 0.30000000E+03</pdfrwt>
<pdfrwt beam="2">0</pdfrwt>
<totfact> 0.34650353E+01</totfact>
</mgrwt>
</event>
<event>
 6    1  0.1839160E-004  0.3000000E+03  0.7818608E-02  0.1093470E+00
          1   -1    0    0  502    0  0.00000000000E+00  0.00000000000E+00  0.31716102707E+02  0.31716102707E+02  0.00000000000E+00 0.  1.
         13   -1    0    0    0    0 -0.00000000000E+00 -0.00000000000E+00 -0.10000000000E+04  0.10000000000E+04  0.00000000000E+00 0.  1.
    9000005    2    1    2  501    0  0.14483429908E+02  0.86905158347E+01 -0.96492564371E+03  0.10144948172E+04  0.31278257852E+03 0.  0.
         13    1    3    3    0    0 -0.52482945927E+02 -0.98076001488E+02 -0.13440001724E+03  0.17446124588E+03  0.00000000000E+00 0.  1.
          1    1    3    3  501    0  0.66966375835E+02  0.10676651732E+03 -0.83052562647E+03  0.84003357132E+03  0.00000000000E+00 0.  1.
         21    1    1    2  502  501 -0.14483429908E+02 -0.86905158347E+01 -0.33582535810E+01  0.17221285506E+02  0.00000000000E+00 0.  1.
<mgrwt>
<rscale>  1 0.30000000E+03</rscale>
<asrwt>0</asrwt>
<pdfrwt beam="1">  1        1 0.11533153E+00 0.30000000E+03</pdfrwt>
<pdfrwt beam="2">0</pdfrwt>
<totfact> 0.27643695E+01</totfact>
</mgrwt>
</event>
<event>
 6    1  0.1839160E-004  0.3000000E+03  0.7818608E-02  0.1093470E+00
          3   -1    0    0  502    0  0.00000000000E+00  0.00000000000E+00  0.26058697873E+02  0.26058697873E+02  0.00000000000E+00 0.  1.
         13   -1    0    0    0    0 -0.00000000000E+00 -0.00000000000E+00 -0.10000000000E+04  0.10000000000E+04  0.00000000000E+00 0.  1.
    9000005    2    1    2  501    0 -0.27214574751E+02 -0.12417391925E+01 -0.90564209957E+03  0.95252669080E+03  0.29390016871E+03 0.  0.
         13    1    3    3    0    0 -0.12461023550E+03 -0.73329629335E+02 -0.69173144278E+03  0.70668050366E+03  0.00000000000E+00 0.  1.
          3    1    3    3  501    0  0.97395660751E+02  0.72087890142E+02 -0.21391065680E+03  0.24584618714E+03  0.00000000000E+00 0.  1.
         21    1    1    2  502  501  0.27214574751E+02  0.12417391925E+01 -0.68299202554E+02  0.73532007076E+02  0.00000000000E+00 0. -1.
<mgrwt>
<rscale>  1 0.30000000E+03</rscale>
<asrwt>0</asrwt>
<pdfrwt beam="1">  1        3 0.94759101E-01 0.30000000E+03</pdfrwt>
<pdfrwt beam="2">0</pdfrwt>
<totfact> 0.44960419E+00</totfact>
</mgrwt>
</event>
<event>
 6    1  0.1839160E-004  0.3000000E+03  0.7818608E-02  0.1093470E+00
          1   -1    0    0  502    0  0.00000000000E+00  0.00000000000E+00  0.48570199288E+02  0.48570199288E+02  0.00000000000E+00 0.  1.
         13   -1    0    0    0    0 -0.00000000000E+00 -0.00000000000E+00 -0.10000000000E+04  0.10000000000E+04  0.00000000000E+00 0.  1.
    9000005    2    1    2  501    0 -0.24179376529E+02  0.11299803051E+02 -0.96051265965E+03  0.10203775385E+04  0.34332699257E+03 0.  0.
         13    1    3    3    0    0  0.15990202785E+03  0.10969851142E+02 -0.44484870309E+03  0.47284179678E+03  0.00000000000E+00 0.  1.
          1    1    3    3  501    0 -0.18408140438E+03  0.32995190857E+00 -0.51566395657E+03  0.54753574167E+03  0.00000000000E+00 0.  1.
         21    1    1    2  502  501  0.24179376529E+02 -0.11299803051E+02  0.90828589414E+01  0.28192660834E+02  0.00000000000E+00 0. -1.
<mgrwt>
<rscale>  1 0.30000000E+03</rscale>
<asrwt>0</asrwt>
<pdfrwt beam="1">  1        1 0.17661928E+00 0.30000000E+03</pdfrwt>
<pdfrwt beam="2">0</pdfrwt>
<totfact> 0.13265453E+01</totfact>
</mgrwt>
</event>
<event>
 6    1  0.1839160E-004  0.3000000E+03  0.7818608E-02  0.1093470E+00
          3   -1    0    0  502    0  0.00000000000E+00  0.00000000000E+00  0.38855261084E+02  0.38855261084E+02  0.00000000000E+00 0.  1.
         13   -1    0    0    0    0 -0.00000000000E+00 -0.00000000000E+00 -0.10000000000E+04  0.10000000000E+04  0.00000000000E+00 0.  1.
    9000005    2    1    2  501    0  0.33598342664E+01 -0.17034367819E+02 -0.96777554242E+03  0.10202696288E+04  0.32258201549E+03 0.  0.
         13    1    3    3    0    0 -0.35263314356E+02  0.61464982824E+02 -0.27623695615E+02  0.76055992613E+02  0.00000000000E+00 0.  1.
          1    1    3    3  501    0  0.38623148622E+02 -0.78499350643E+02 -0.94015184680E+03  0.94421363616E+03  0.00000000000E+00 0.  1.
         21    1    1    2  502  501 -0.33598342664E+01  0.17034367819E+02  0.66308035035E+01  0.18585632311E+02  0.00000000000E+00 0.  1.
<mgrwt>
<rscale>  1 0.30000000E+03</rscale>
<asrwt>0</asrwt>
<pdfrwt beam="1">  1        3 0.14129216E+00 0.30000000E+03</pdfrwt>
<pdfrwt beam="2">0</pdfrwt>
<totfact> 0.12898055E+00</totfact>
</mgrwt>
</event>
<event>
 6    1  0.1839160E-004  0.3000000E+03  0.7818608E-02  0.1093470E+00
          1   -1    0    0  502    0  0.00000000000E+00  0.00000000000E+00  0.28346781203E+02  0.28346781203E+02  0.00000000000E+00 0.  1.
         13   -1    0    0    0    0 -0.00000000000E+00 -0.00000000000E+00 -0.10000000000E+04  0.10000000000E+04  0.00000000000E+00 0.  1.
    9000005    2    1    2  501    0  0.12521199592E+02  0.36077866775E+01 -0.96502611307E+03  0.10137277835E+04  0.31015935185E+03 0.  0.
         13    1    3    3    0    0 -0.37192717945E+02 -0.36526416805E+02 -0.94547508337E+03  0.94691108910E+03  0.00000000000E+00 0.  1.
          1    1    3    3  501    0  0.49713917537E+02  0.40134203482E+02 -0.19551029703E+02  0.66816694384E+02  0.00000000000E+00 0.  1.
         21    1    1    2  502  501 -0.12521199592E+02 -0.36077866775E+01 -0.66271057236E+01  0.14618997716E+02  0.00000000000E+00 0.  1.
<mgrwt>
<rscale>  1 0.30000000E+03</rscale>
<asrwt>0</asrwt>
<pdfrwt beam="1">  1        1 0.10307942E+00 0.30000000E+03</pdfrwt>
<pdfrwt beam="2">0</pdfrwt>
<totfact> 0.32735397E+01</totfact>
</mgrwt>
</event>
<event>
 6    1  0.1839160E-004  0.3000000E+03  0.7818608E-02  0.1093470E+00
          1   -1    0    0  502    0  0.00000000000E+00  0.00000000000E+00  0.37238730354E+02  0.37238730354E+02  0.00000000000E+00 0.  1.
         13   -1    0    0    0    0 -0.00000000000E+00 -0.00000000000E+00 -0.10000000000E+04  0.10000000000E+04  0.00000000000E+00 0.  1.
    9000005    2    1    2  501    0  0.18181359933E+01 -0.31226183676E+02 -0.94597993573E+03  0.10017423456E+04  0.32807210780E+03 0.  0.
         13    1    3    3    0    0  0.93156927121E+02 -0.85934206830E+02 -0.14034325037E+03  0.18910084320E+03  0.00000000000E+00 0.  1.
          3    1    3    3  501    0 -0.91338791127E+02  0.54708023153E+02 -0.80563668536E+03  0.81264150236E+03  0.00000000000E+00 0.  1.
         21    1    1    2  502  501 -0.18181359933E+01  0.31226183676E+02 -0.16781333916E+02  0.35496384795E+02  0.00000000000E+00 0.  1.
<mgrwt>
<rscale>  1 0.30000000E+03</rscale>
<asrwt>0</asrwt>
<pdfrwt beam="1">  1        1 0.13541385E+00 0.30000000E+03</pdfrwt>
<pdfrwt beam="2">0</pdfrwt>
<totfact> 0.21393479E+01</totfact>
</mgrwt>
</event>
<event>
 6    1  0.1839160E-004  0.3000000E+03  0.7818608E-02  0.1093470E+00
          1   -1    0    0  502    0  0.00000000000E+00  0.00000000000E+00  0.27743721966E+02  0.27743721966E+02  0.00000000000E+00 0.  1.
         13   -1    0    0    0    0 -0.00000000000E+00 -0.00000000000E+00 -0.10000000000E+04  0.10000000000E+04  0.00000000000E+00 0.  1.
    9000005    2    1    2  501    0 -0.16025436072E+02 -0.10046352256E+02 -0.94916865567E+03  0.99789774902E+03  0.30744273741E+03 0.  0.
         13    1    3    3    0    0  0.12797504227E+02 -0.52702677064E+02 -0.74158417263E+01  0.54738861814E+02  0.00000000000E+00 0.  1.
          1    1    3    3  501    0 -0.28822940300E+02  0.42656324808E+02 -0.94175281395E+03  0.94315888720E+03  0.00000000000E+00 0.  1.
         21    1    1    2  502  501  0.16025436072E+02  0.10046352256E+02 -0.23087622360E+02  0.29845972947E+02  0.00000000000E+00 0. -1.
<mgrwt>
<rscale>  1 0.30000000E+03</rscale>
<asrwt>0</asrwt>
<pdfrwt beam="1">  1        1 0.10088647E+00 0.30000000E+03</pdfrwt>
<pdfrwt beam="2">0</pdfrwt>
<totfact> 0.33787522E+01</totfact>
</mgrwt>
</event>
<event>
 6    1  0.1839160E-004  0.3000000E+03  0.7818608E-02  0.1093470E+00
          1   -1    0    0  502    0  0.00000000000E+00  0.00000000000E+00  0.32805128252E+02  0.32805128252E+02  0.00000000000E+00 0.  1.
         13   -1    0    0    0    0 -0.00000000000E+00 -0.00000000000E+00 -0.10000000000E+04  0.10000000000E+04  0.00000000000E+00 0.  1.
    9000005    2    1    2  501    0  0.19039820116E+02  0.24024855500E+02 -0.92496542911E+03  0.98062242750E+03  0.32422151663E+03 0.  0.
         13    1    3    3    0    0  0.28557936423E+02 -0.13870598662E+03 -0.60707994211E+03  0.62337866708E+03  0.00000000000E+00 0.  1.
          3    1    3    3  501    0 -0.95181163075E+01  0.16273084212E+03 -0.31788548700E+03  0.35724376042E+03  0.00000000000E+00 0.  1.
         21    1    1    2  502  501 -0.19039820116E+02 -0.24024855500E+02 -0.42229442639E+02  0.52182700749E+02  0.00000000000E+00 0.  1.
<mgrwt>
<rscale>  1 0.30000000E+03</rscale>
<asrwt>0</asrwt>
<pdfrwt beam="1">  1        1 0.11929163E+00 0.30000000E+03</pdfrwt>
<pdfrwt beam="2">0</pdfrwt>
<totfact> 0.26237261E+01</totfact>
</mgrwt>
</event>
<event>
 6    1  0.1839160E-004  0.3000000E+03  0.7818608E-02  0.1093470E+00
          1   -1    0    0  502    0  0.00000000000E+00  0.00000000000E+00  0.33896873068E+02  0.33896873068E+02  0.00000000000E+00 0.  1.
         13   -1    0    0    0    0 -0.00000000000E+00 -0.00000000000E+00 -0.10000000000E+04  0.10000000000E+04  0.00000000000E+00 0.  1.
    9000005    2    1    2  501    0 -0.24113131978E+02  0.31207275410E+01 -0.94857991732E+03  0.10039261382E+04  0.32783021417E+03 0.  0.
         13    1    3    3    0    0 -0.16289956955E+03  0.42169621136E+02 -0.35171253682E+03  0.38989262017E+03  0.00000000000E+00 0.  1.
          3    1    3    3  501    0  0.13878643757E+03 -0.39048893595E+02 -0.59686738050E+03  0.61403351802E+03  0.00000000000E+00 0.  1.
         21    1    1    2  502  501  0.24113131978E+02 -0.31207275410E+01 -0.17523209615E+02  0.29970734882E+02  0.00000000000E+00 0. -1.
<mgrwt>
<rscale>  1 0.30000000E+03</rscale>
<asrwt>0</asrwt>
<pdfrwt beam="1">  1        1 0.12326162E+00 0.30000000E+03</pdfrwt>
<pdfrwt beam="2">0</pdfrwt>
<totfact> 0.24922517E+01</totfact>
</mgrwt>
</event>
<event>
 6    1  0.1839160E-004  0.3000000E+03  0.7818608E-02  0.1093470E+00
          1   -1    0    0  502    0  0.00000000000E+00  0.00000000000E+00  0.32003214629E+02  0.32003214629E+02  0.00000000000E+00 0.  1.
         13   -1    0    0    0    0 -0.00000000000E+00 -0.00000000000E+00 -0.10000000000E+04  0.10000000000E+04  0.00000000000E+00 0.  1.
    9000005    2    1    2  501    0 -0.10185733940E+02 -0.63508316257E+01 -0.96653332110E+03  0.10199109044E+04  0.32540361083E+03 0.  0.
         13    1    3    3    0    0  0.29825112120E+02 -0.15296995515E+03 -0.32243905339E+03  0.35812887016E+03  0.00000000000E+00 0.  1.
          3    1    3    3  501    0 -0.40010846060E+02  0.14661912353E+03 -0.64409426771E+03  0.66178203427E+03  0.00000000000E+00 0.  1.
         21    1    1    2  502  501  0.10185733940E+02  0.63508316257E+01 -0.14634642721E+01  0.12092310197E+02  0.00000000000E+00 0. -1.
<mgrwt>
<rscale>  1 0.30000000E+03</rscale>
<asrwt>0</asrwt>
<pdfrwt beam="1">  1        1 0.11637557E+00 0.30000000E+03</pdfrwt>
<pdfrwt beam="2">0</pdfrwt>
<totfact> 0.27263009E+01</totfact>
</mgrwt>
</event>
<event>
 6    1  0.1839160E-004  0.3000000E+03  0.7818608E-02  0.1093470E+00
          1   -1    0    0  502    0  0.00000000000E+00  0.00000000000E+00  0.29415817776E+02  0.29415817776E+02  0.00000000000E+00 0.  1.
         13   -1    0    0    0    0 -0.00000000000E+00 -0.00000000000E+00 -0.10000000000E+04  0.10000000000E+04  0.00000000000E+00 0.  1.
    9000005    2    1    2  501    0  0.10094141203E+02 -0.14238745807E+02 -0.93091126004E+03  0.98607329450E+03  0.32471546699E+03 0.  0.
         13    1    3    3    0    0  0.15292681188E+03  0.55858380861E+02 -0.54043184048E+03  0.56442301752E+03  0.00000000000E+00 0.  1.
          3    1    3    3  501    0 -0.14283267068E+03 -0.70097126669E+02 -0.39047941956E+03  0.42165027699E+03  0.00000000000E+00 0.  1.
         21    1    1    2  502  501 -0.10094141203E+02  0.14238745807E+02 -0.39672922186E+02  0.43342523272E+02  0.00000000000E+00 0.  1.
<mgrwt>
<rscale>  1 0.30000000E+03</rscale>
<asrwt>0</asrwt>
<pdfrwt beam="1">  1        1 0.10696684E+00 0.30000000E+03</pdfrwt>
<pdfrwt beam="2">0</pdfrwt>
<totfact> 0.30984048E+01</totfact>
</mgrwt>
</event>
<event>
 6    1  0.1839160E-004  0.3000000E+03  0.7818608E-02  0.1093470E+00
          1   -1    0    0  502    0  0.00000000000E+00  0.00000000000E+00  0.49471448299E+02  0.49471448299E+02  0.00000000000E+00 0.  1.
         13   -1    0    0    0    0 -0.00000000000E+00 -0.00000000000E+00 -0.10000000000E+04  0.10000000000E+04  0.00000000000E+00 0.  1.
    9000005    2    1    2  501    0  0.38839788572E+02 -0.12571912955E+02 -0.95595755493E+03  0.10082882448E+04  0.31799961584E+03 0.  0.
         13    1    3    3    0    0  0.13354081716E+03  0.10459320418E+03 -0.48334525955E+03  0.51224557405E+03  0.00000000000E+00 0.  1.
          1    1    3    3  501    0 -0.94701028589E+02 -0.11716511714E+03 -0.47261229538E+03  0.49604267078E+03  0.00000000000E+00 0.  1.
         21    1    1    2  502  501 -0.38839788572E+02  0.12571912955E+02  0.54290032274E+01  0.41183203466E+02  0.00000000000E+00 0.  1.
<mgrwt>
<rscale>  1 0.30000000E+03</rscale>
<asrwt>0</asrwt>
<pdfrwt beam="1">  1        1 0.17989655E+00 0.30000000E+03</pdfrwt>
<pdfrwt beam="2">0</pdfrwt>
<totfact> 0.12789177E+01</totfact>
</mgrwt>
</event>
<event>
 6    1  0.1839160E-004  0.3000000E+03  0.7818608E-02  0.1093470E+00
          1   -1    0    0  502    0  0.00000000000E+00  0.00000000000E+00  0.26528846673E+02  0.26528846673E+02  0.00000000000E+00 0.  1.
         13   -1    0    0    0    0 -0.00000000000E+00 -0.00000000000E+00 -0.10000000000E+04  0.10000000000E+04  0.00000000000E+00 0.  1.
    9000005    2    1    2  501    0  0.72539418959E+01 -0.25848227253E+01 -0.95147081565E+03  0.10032197103E+04  0.31795246984E+03 0.  0.
         13    1    3    3    0    0 -0.10046446431E+03 -0.10477538778E+03 -0.66384812886E+03  0.67953316966E+03  0.00000000000E+00 0.  1.
          3    1    3    3  501    0  0.10771840621E+03  0.10219056506E+03 -0.28762268680E+03  0.32368654063E+03  0.00000000000E+00 0.  1.
         21    1    1    2  502  501 -0.72539418959E+01  0.25848227253E+01 -0.22000337673E+02  0.23309136390E+02  0.00000000000E+00 0.  1.
<mgrwt>
<rscale>  1 0.30000000E+03</rscale>
<asrwt>0</asrwt>
<pdfrwt beam="1">  1        1 0.96468737E-01 0.30000000E+03</pdfrwt>
<pdfrwt beam="2">0</pdfrwt>
<totfact> 0.36063817E+01</totfact>
</mgrwt>
</event>
<event>
 6    1  0.1839160E-004  0.3000000E+03  0.7818608E-02  0.1093470E+00
          1   -1    0    0  502    0  0.00000000000E+00  0.00000000000E+00  0.45500610456E+02  0.45500610456E+02  0.00000000000E+00 0.  1.
         13   -1    0    0    0    0 -0.00000000000E+00 -0.00000000000E+00 -0.10000000000E+04  0.10000000000E+04  0.00000000000E+00 0.  1.
    9000005    2    1    2  501    0  0.60220697303E+02  0.19415199663E+02 -0.91157520931E+03  0.96904168285E+03  0.32259717686E+03 0.  0.
         13    1    3    3    0    0  0.64909218508E+02 -0.13567556727E+03 -0.27096213010E+03  0.30990569880E+03  0.00000000000E+00 0.  1.
          1    1    3    3  501    0 -0.46885212050E+01  0.15509076693E+03 -0.64061307921E+03  0.65913598405E+03  0.00000000000E+00 0.  1.
         21    1    1    2  502  501 -0.60220697303E+02 -0.19415199663E+02 -0.42924180233E+02  0.76458927603E+02  0.00000000000E+00 0.  1.
<mgrwt>
<rscale>  1 0.30000000E+03</rscale>
<asrwt>0</asrwt>
<pdfrwt beam="1">  1        1 0.16545711E+00 0.30000000E+03</pdfrwt>
<pdfrwt beam="2">0</pdfrwt>
<totfact> 0.15039183E+01</totfact>
</mgrwt>
</event>
<event>
 6    1  0.1839160E-004  0.3000000E+03  0.7818608E-02  0.1093470E+00
          1   -1    0    0  502    0  0.00000000000E+00  0.00000000000E+00  0.28686897554E+02  0.28686897554E+02  0.00000000000E+00 0.  1.
         13   -1    0    0    0    0 -0.00000000000E+00 -0.00000000000E+00 -0.10000000000E+04  0.10000000000E+04  0.00000000000E+00 0.  1.
    9000005    2    1    2  501    0 -0.96977675614E+01 -0.34755206598E+01 -0.95984239639E+03  0.10132692766E+04  0.32451667905E+03 0.  0.
         13    1    3    3    0    0  0.52617819394E+02  0.12384439170E+03 -0.73685479407E+03  0.74904008959E+03  0.00000000000E+00 0.  1.
          3    1    3    3  501    0 -0.62315586956E+02 -0.12731991236E+03 -0.22298760232E+03  0.26422918697E+03  0.00000000000E+00 0.  1.
         21    1    1    2  502  501  0.96977675614E+01  0.34755206598E+01 -0.11470706060E+02  0.15417620992E+02  0.00000000000E+00 0. -1.
<mgrwt>
<rscale>  1 0.30000000E+03</rscale>
<asrwt>0</asrwt>
<pdfrwt beam="1">  1        1 0.10431621E+00 0.30000000E+03</pdfrwt>
<pdfrwt beam="2">0</pdfrwt>
<totfact> 0.32162982E+01</totfact>
</mgrwt>
</event>
<event>
 6    1  0.1839160E-004  0.3000000E+03  0.7818608E-02  0.1093470E+00
          1   -1    0    0  502    0  0.00000000000E+00  0.00000000000E+00  0.37314936227E+02  0.37314936227E+02  0.00000000000E+00 0.  1.
         13   -1    0    0    0    0 -0.00000000000E+00 -0.00000000000E+00 -0.10000000000E+04  0.10000000000E+04  0.00000000000E+00 0.  1.
    9000005    2    1    2  501    0  0.42994723712E+02  0.13214936818E+02 -0.91057482536E+03  0.96847702683E+03  0.32676912049E+03 0.  0.
         13    1    3    3    0    0 -0.21934169815E+02 -0.96761902197E+02 -0.77833993222E+03  0.78463814820E+03  0.00000000000E+00 0.  1.
          1    1    3    3  501    0  0.64928893528E+02  0.10997683901E+03 -0.13223489314E+03  0.18383887864E+03  0.00000000000E+00 0.  1.
         21    1    1    2  502  501 -0.42994723712E+02 -0.13214936818E+02 -0.52110238415E+02  0.68837909395E+02  0.00000000000E+00 0.  1.
<mgrwt>
<rscale>  1 0.30000000E+03</rscale>
<asrwt>0</asrwt>
<pdfrwt beam="1">  1        1 0.13569096E+00 0.30000000E+03</pdfrwt>
<pdfrwt beam="2">0</pdfrwt>
<totfact> 0.21320885E+01</totfact>
</mgrwt>
</event>
<event>
 6    1  0.1839160E-004  0.3000000E+03  0.7818608E-02  0.1093470E+00
          1   -1    0    0  502    0  0.00000000000E+00  0.00000000000E+00  0.31368820897E+02  0.31368820897E+02  0.00000000000E+00 0.  1.
         13   -1    0    0    0    0 -0.00000000000E+00 -0.00000000000E+00 -0.10000000000E+04  0.10000000000E+04  0.00000000000E+00 0.  1.
    9000005    2    1    2  501    0 -0.61072543910E+01  0.27916981169E+02 -0.87359037209E+03  0.93212462010E+03  0.32385106577E+03 0.  0.
         13    1    3    3    0    0  0.12094791995E+03 -0.87007478899E+02 -0.32766211677E+03  0.35994605636E+03  0.00000000000E+00 0.  1.
          1    1    3    3  501    0 -0.12705517434E+03  0.11492446007E+03 -0.54592825532E+03  0.57217856374E+03  0.00000000000E+00 0.  1.
         21    1    1    2  502  501  0.61072543910E+01 -0.27916981169E+02 -0.95040807012E+02  0.99244200794E+02  0.00000000000E+00 0. -1.
<mgrwt>
<rscale>  1 0.30000000E+03</rscale>
<asrwt>0</asrwt>
<pdfrwt beam="1">  1        1 0.11406868E+00 0.30000000E+03</pdfrwt>
<pdfrwt beam="2">0</pdfrwt>
<totfact> 0.28114175E+01</totfact>
</mgrwt>
</event>
<event>
 6    1  0.1839160E-004  0.3000000E+03  0.7818608E-02  0.1093470E+00
          1   -1    0    0  502    0  0.00000000000E+00  0.00000000000E+00  0.40669064168E+02  0.40669064168E+02  0.00000000000E+00 0.  1.
         13   -1    0    0    0    0 -0.00000000000E+00 -0.00000000000E+00 -0.10000000000E+04  0.10000000000E+04  0.00000000000E+00 0.  1.
    9000005    2    1    2  501    0 -0.41545122921E+01 -0.30231706941E+02 -0.95316663880E+03  0.10095368520E+04  0.33122016566E+03 0.  0.
         13    1    3    3    0    0  0.93872067333E+01 -0.89861255156E+02 -0.94327731702E+03  0.94759446053E+03  0.00000000000E+00 0.  1.
          3    1    3    3  501    0 -0.13541719025E+02  0.59629548215E+02 -0.98893217757E+01  0.61942391459E+02  0.00000000000E+00 0.  1.
         21    1    1    2  502  501  0.41545122921E+01  0.30231706941E+02 -0.61642970361E+01  0.31132212175E+02  0.00000000000E+00 0.  1.
<mgrwt>
<rscale>  1 0.30000000E+03</rscale>
<asrwt>0</asrwt>
<pdfrwt beam="1">  1        1 0.14788782E+00 0.30000000E+03</pdfrwt>
<pdfrwt beam="2">0</pdfrwt>
<totfact> 0.18416137E+01</totfact>
</mgrwt>
</event>
<event>
 6    1  0.1839160E-004  0.3000000E+03  0.7818608E-02  0.1093470E+00
          1   -1    0    0  502    0  0.00000000000E+00  0.00000000000E+00  0.28910900917E+02  0.28910900917E+02  0.00000000000E+00 0.  1.
         13   -1    0    0    0    0 -0.00000000000E+00 -0.00000000000E+00 -0.10000000000E+04  0.10000000000E+04  0.00000000000E+00 0.  1.
    9000005    2    1    2  501    0  0.55049468192E+01 -0.55358085212E+01 -0.95302662016E+03  0.10092334326E+04  0.33201119421E+03 0.  0.
         13    1    3    3    0    0 -0.11284927559E+03  0.57246469856E+02 -0.78103223605E+03  0.79121645020E+03  0.00000000000E+00 0.  1.
          1    1    3    3  501    0  0.11835422241E+03 -0.62782278377E+02 -0.17199438411E+03  0.21801698238E+03  0.00000000000E+00 0.  1.
         21    1    1    2  502  501 -0.55049468192E+01  0.55358085212E+01 -0.18062478922E+02  0.19677468340E+02  0.00000000000E+00 0. -1.
<mgrwt>
<rscale>  1 0.30000000E+03</rscale>
<asrwt>0</asrwt>
<pdfrwt beam="1">  1        1 0.10513077E+00 0.30000000E+03</pdfrwt>
<pdfrwt beam="2">0</pdfrwt>
<totfact> 0.31793886E+01</totfact>
</mgrwt>
</event>
<event>
 6    1  0.1839160E-004  0.3000000E+03  0.7818608E-02  0.1093470E+00
          1   -1    0    0  502    0  0.00000000000E+00  0.00000000000E+00  0.30445139382E+02  0.30445139382E+02  0.00000000000E+00 0.  1.
         13   -1    0    0    0    0 -0.00000000000E+00 -0.00000000000E+00 -0.10000000000E+04  0.10000000000E+04  0.00000000000E+00 0.  1.
    9000005    2    1    2  501    0  0.22347830447E+02  0.19358614072E+02 -0.92089869743E+03  0.97351005634E+03  0.31431391539E+03 0.  0.
         13    1    3    3    0    0 -0.17365549463E+02 -0.83117705112E+02 -0.56134175602E+02  0.10178978771E+03  0.00000000000E+00 0.  1.
          1    1    3    3  501    0  0.39713379910E+02  0.10247631918E+03 -0.86476452182E+03  0.87172026863E+03  0.00000000000E+00 0.  1.
         21    1    1    2  502  501 -0.22347830447E+02 -0.19358614072E+02 -0.48656163193E+02  0.56935083043E+02  0.00000000000E+00 0. -1.
<mgrwt>
<rscale>  1 0.30000000E+03</rscale>
<asrwt>0</asrwt>
<pdfrwt beam="1">  1        1 0.11070983E+00 0.30000000E+03</pdfrwt>
<pdfrwt beam="2">0</pdfrwt>
<totfact> 0.29422201E+01</totfact>
</mgrwt>
</event>
<event>
 6    1  0.1839160E-004  0.3000000E+03  0.7818608E-02  0.1093470E+00
          1   -1    0    0  502    0  0.00000000000E+00  0.00000000000E+00  0.39279649808E+02  0.39279649808E+02  0.00000000000E+00 0.  1.
         13   -1    0    0    0    0 -0.00000000000E+00 -0.00000000000E+00 -0.10000000000E+04  0.10000000000E+04  0.00000000000E+00 0.  1.
    9000005    2    1    2  501    0 -0.10523912246E+02 -0.14035168371E+02 -0.93075884057E+03  0.10045603362E+04  0.37752047765E+03 0.  0.
         13    1    3    3    0    0 -0.18194270803E+03  0.34688240893E+02 -0.61144916028E+03  0.63888692166E+03  0.00000000000E+00 0.  1.
          3    1    3    3  501    0  0.17141879578E+03 -0.48723409264E+02 -0.31930968029E+03  0.36567341452E+03  0.00000000000E+00 0.  1.
         21    1    1    2  502  501  0.10523912246E+02  0.14035168371E+02 -0.29961509627E+02  0.34719313635E+02  0.00000000000E+00 0.  1.
<mgrwt>
<rscale>  1 0.30000000E+03</rscale>
<asrwt>0</asrwt>
<pdfrwt beam="1">  1        1 0.14283539E+00 0.30000000E+03</pdfrwt>
<pdfrwt beam="2">0</pdfrwt>
<totfact> 0.19554403E+01</totfact>
</mgrwt>
</event>
<event>
 6    1  0.1839160E-004  0.3000000E+03  0.7818608E-02  0.1093470E+00
          1   -1    0    0  502    0  0.00000000000E+00  0.00000000000E+00  0.32581820777E+02  0.32581820777E+02  0.00000000000E+00 0.  1.
         13   -1    0    0    0    0 -0.00000000000E+00 -0.00000000000E+00 -0.10000000000E+04  0.10000000000E+04  0.00000000000E+00 0.  1.
    9000005    2    1    2  501    0  0.12672156061E+02  0.33365354414E+01 -0.96581758872E+03  0.10193803853E+04  0.32582363219E+03 0.  0.
         13    1    3    3    0    0  0.89368979179E+02 -0.96606890021E+02 -0.17699149402E+03  0.22055768995E+03  0.00000000000E+00 0.  1.
          3    1    3    3  501    0 -0.76696823117E+02  0.99943425463E+02 -0.78882609470E+03  0.79882269538E+03  0.00000000000E+00 0.  1.
         21    1    1    2  502  501 -0.12672156061E+02 -0.33365354414E+01 -0.16005904991E+01  0.13201435450E+02  0.00000000000E+00 0.  1.
<mgrwt>
<rscale>  1 0.30000000E+03</rscale>
<asrwt>0</asrwt>
<pdfrwt beam="1">  1        1 0.11847960E+00 0.30000000E+03</pdfrwt>
<pdfrwt beam="2">0</pdfrwt>
<totfact> 0.26517533E+01</totfact>
</mgrwt>
</event>
<event>
 6    1  0.1839160E-004  0.3000000E+03  0.7818608E-02  0.1093470E+00
          1   -1    0    0  502    0  0.00000000000E+00  0.00000000000E+00  0.42998428074E+02  0.42998428074E+02  0.00000000000E+00 0.  1.
         13   -1    0    0    0    0 -0.00000000000E+00 -0.00000000000E+00 -0.10000000000E+04  0.10000000000E+04  0.00000000000E+00 0.  1.
    9000005    2    1    2  501    0  0.36643074158E+02 -0.18635918534E+02 -0.94584956093E+03  0.10004028920E+04  0.32324068755E+03 0.  0.
         13    1    3    3    0    0 -0.80768228802E+02  0.11908859694E+03 -0.38092861104E+03  0.40720045114E+03  0.00000000000E+00 0.  1.
          1    1    3    3  501    0  0.11741130296E+03 -0.13772451547E+03 -0.56492094989E+03  0.59320244087E+03  0.00000000000E+00 0.  1.
         21    1    1    2  502  501 -0.36643074158E+02  0.18635918534E+02 -0.11152011000E+02  0.42595536066E+02  0.00000000000E+00 0.  1.
<mgrwt>
<rscale>  1 0.30000000E+03</rscale>
<asrwt>0</asrwt>
<pdfrwt beam="1">  1        1 0.15635825E+00 0.30000000E+03</pdfrwt>
<pdfrwt beam="2">0</pdfrwt>
<totfact> 0.16686294E+01</totfact>
</mgrwt>
</event>
<event>
 6    1  0.1839160E-004  0.3000000E+03  0.7818608E-02  0.1093470E+00
          1   -1    0    0  502    0  0.00000000000E+00  0.00000000000E+00  0.53249349691E+02  0.53249349691E+02  0.00000000000E+00 0.  1.
         13   -1    0    0    0    0 -0.00000000000E+00 -0.00000000000E+00 -0.10000000000E+04  0.10000000000E+04  0.00000000000E+00 0.  1.
    9000005    2    1    2  501    0  0.86157824611E+02 -0.93783967571E+01 -0.88207940473E+03  0.94511288464E+03  0.32812065374E+03 0.  0.
         13    1    3    3    0    0 -0.31522929248E+02  0.52519961155E+02 -0.76647371576E+03  0.76891741971E+03  0.00000000000E+00 0.  1.
          1    1    3    3  501    0  0.11768075386E+03 -0.61898357912E+02 -0.11560568897E+03  0.17619546493E+03  0.00000000000E+00 0.  1.
         21    1    1    2  502  501 -0.86157824611E+02  0.93783967571E+01 -0.64671245584E+02  0.10813646505E+03  0.00000000000E+00 0.  1.
<mgrwt>
<rscale>  1 0.30000000E+03</rscale>
<asrwt>0</asrwt>
<pdfrwt beam="1">  1        1 0.19363441E+00 0.30000000E+03</pdfrwt>
<pdfrwt beam="2">0</pdfrwt>
<totfact> 0.10984553E+01</totfact>
</mgrwt>
</event>
<event>
 6    1  0.1839160E-004  0.3000000E+03  0.7818608E-02  0.1093470E+00
          1   -1    0    0  502    0  0.00000000000E+00  0.00000000000E+00  0.82007111006E+02  0.82007111006E+02  0.00000000000E+00 0.  1.
         13   -1    0    0    0    0 -0.00000000000E+00 -0.00000000000E+00 -0.10000000000E+04  0.10000000000E+04  0.00000000000E+00 0.  1.
    9000005    2    1    2  501    0  0.37607816429E+02 -0.11457177124E+02 -0.96657909459E+03  0.10195072379E+04  0.32182953136E+03 0.  0.
         13    1    3    3    0    0 -0.13207829372E+03 -0.24442409865E+02 -0.25909879799E+03  0.29184635374E+03  0.00000000000E+00 0.  1.
          3    1    3    3  501    0  0.16968611015E+03  0.12985232741E+02 -0.70748029660E+03  0.72766088416E+03  0.00000000000E+00 0.  1.
         21    1    1    2  502  501 -0.37607816429E+02  0.11457177124E+02  0.48586205599E+02  0.62499873110E+02  0.00000000000E+00 0.  1.
<mgrwt>
<rscale>  1 0.30000000E+03</rscale>
<asrwt>0</asrwt>
<pdfrwt beam="1">  1        1 0.29820831E+00 0.30000000E+03</pdfrwt>
<pdfrwt beam="2">0</pdfrwt>
<totfact> 0.35430261E+00</totfact>
</mgrwt>
</event>
<event>
 6    1  0.1839160E-004  0.3000000E+03  0.7818608E-02  0.1093470E+00
          1   -1    0    0  502    0  0.00000000000E+00  0.00000000000E+00  0.41018433192E+02  0.41018433192E+02  0.00000000000E+00 0.  1.
         13   -1    0    0    0    0 -0.00000000000E+00 -0.00000000000E+00 -0.10000000000E+04  0.10000000000E+04  0.00000000000E+00 0.  1.
    9000005    2    1    2  501    0  0.74009730090E-01  0.18222027813E+02 -0.96548546727E+03  0.10216703455E+04  0.33364061451E+03 0.  0.
         13    1    3    3    0    0  0.27575438474E+02 -0.10149950528E+03 -0.92446701480E+02  0.14003194990E+03  0.00000000000E+00 0.  1.
          1    1    3    3  501    0 -0.27501428744E+02  0.11972153309E+03 -0.87303876579E+03  0.88163839562E+03  0.00000000000E+00 0.  1.
         21    1    1    2  502  501 -0.74009730090E-01 -0.18222027813E+02  0.65039004615E+01  0.19348087665E+02  0.00000000000E+00 0.  1.
<mgrwt>
<rscale>  1 0.30000000E+03</rscale>
<asrwt>0</asrwt>
<pdfrwt beam="1">  1        1 0.14915825E+00 0.30000000E+03</pdfrwt>
<pdfrwt beam="2">0</pdfrwt>
<totfact> 0.18143093E+01</totfact>
</mgrwt>
</event>
<event>
 6    1  0.1839160E-004  0.3000000E+03  0.7818608E-02  0.1093470E+00
          1   -1    0    0  502    0  0.00000000000E+00  0.00000000000E+00  0.70442049067E+02  0.70442049067E+02  0.00000000000E+00 0.  1.
         13   -1    0    0    0    0 -0.00000000000E+00 -0.00000000000E+00 -0.10000000000E+04  0.10000000000E+04  0.00000000000E+00 0.  1.
    9000005    2    1    2  501    0  0.26625735795E+02  0.20905416759E+02 -0.96580761571E+03  0.10208436171E+04  0.32892457153E+03 0.  0.
         13    1    3    3    0    0  0.58602782357E+02  0.16887307853E+03 -0.49412644480E+03  0.52546488580E+03  0.00000000000E+00 0.  1.
          1    1    3    3  501    0 -0.31977046562E+02 -0.14796766178E+03 -0.47168117091E+03  0.49537873130E+03  0.00000000000E+00 0.  1.
         21    1    1    2  502  501 -0.26625735795E+02 -0.20905416759E+02  0.36249664780E+02  0.49598431963E+02  0.00000000000E+00 0.  1.
<mgrwt>
<rscale>  1 0.30000000E+03</rscale>
<asrwt>0</asrwt>
<pdfrwt beam="1">  1        1 0.25615345E+00 0.30000000E+03</pdfrwt>
<pdfrwt beam="2">0</pdfrwt>
<totfact> 0.55850134E+00</totfact>
</mgrwt>
</event>
<event>
 6    1  0.1839160E-004  0.3000000E+03  0.7818608E-02  0.1093470E+00
          1   -1    0    0  502    0  0.00000000000E+00  0.00000000000E+00  0.55473911214E+02  0.55473911214E+02  0.00000000000E+00 0.  1.
         13   -1    0    0    0    0 -0.00000000000E+00 -0.00000000000E+00 -0.10000000000E+04  0.10000000000E+04  0.00000000000E+00 0.  1.
    9000005    2    1    2  501    0  0.25173380357E+02  0.11154237569E+02 -0.96387018754E+03  0.10218240932E+04  0.33811332858E+03 0.  0.
         13    1    3    3    0    0  0.17531123690E+02  0.86932101819E+02 -0.93680898462E+03  0.94099713298E+03  0.00000000000E+00 0.  1.
          3    1    3    3  501    0  0.76422566675E+01 -0.75777864251E+02 -0.27061202924E+02  0.80826960236E+02  0.00000000000E+00 0.  1.
         21    1    1    2  502  501 -0.25173380357E+02 -0.11154237569E+02  0.19344098755E+02  0.33649817994E+02  0.00000000000E+00 0. -1.
<mgrwt>
<rscale>  1 0.30000000E+03</rscale>
<asrwt>0</asrwt>
<pdfrwt beam="1">  1        1 0.20172374E+00 0.30000000E+03</pdfrwt>
<pdfrwt beam="2">0</pdfrwt>
<totfact> 0.10052055E+01</totfact>
</mgrwt>
</event>
<event>
 6    1  0.1839160E-004  0.3000000E+03  0.7818608E-02  0.1093470E+00
          1   -1    0    0  502    0  0.00000000000E+00  0.00000000000E+00  0.74033333747E+02  0.74033333747E+02  0.00000000000E+00 0.  1.
         13   -1    0    0    0    0 -0.00000000000E+00 -0.00000000000E+00 -0.10000000000E+04  0.10000000000E+04  0.00000000000E+00 0.  1.
    9000005    2    1    2  501    0  0.62114894293E+01  0.41422680652E+02 -0.96459101826E+03  0.10170573595E+04  0.31971146201E+03 0.  0.
         13    1    3    3    0    0 -0.11911262989E+03 -0.36173761305E+02 -0.18070240816E+03  0.21943044438E+03  0.00000000000E+00 0.  1.
          1    1    3    3  501    0  0.12532411932E+03  0.77596441957E+02 -0.78388861009E+03  0.79762691512E+03  0.00000000000E+00 0.  1.
         21    1    1    2  502  501 -0.62114894293E+01 -0.41422680652E+02  0.38624352004E+02  0.56975974244E+02  0.00000000000E+00 0.  1.
<mgrwt>
<rscale>  1 0.30000000E+03</rscale>
<asrwt>0</asrwt>
<pdfrwt beam="1">  1        1 0.26921269E+00 0.30000000E+03</pdfrwt>
<pdfrwt beam="2">0</pdfrwt>
<totfact> 0.48491934E+00</totfact>
</mgrwt>
</event>
<event>
 6    1  0.1839160E-004  0.3000000E+03  0.7818608E-02  0.1093470E+00
          1   -1    0    0  502    0  0.00000000000E+00  0.00000000000E+00  0.42042886739E+02  0.42042886739E+02  0.00000000000E+00 0.  1.
         13   -1    0    0    0    0 -0.00000000000E+00 -0.00000000000E+00 -0.10000000000E+04  0.10000000000E+04  0.00000000000E+00 0.  1.
    9000005    2    1    2  501    0 -0.23520879287E+02 -0.18930685274E+01 -0.96206746883E+03  0.10180906323E+04  0.33223170452E+03 0.  0.
         13    1    3    3    0    0  0.16492311754E+02 -0.12759233274E+03 -0.16029595707E+03  0.20553976154E+03  0.00000000000E+00 0.  1.
          1    1    3    3  501    0 -0.40013191041E+02  0.12569926421E+03 -0.80177151175E+03  0.81255087074E+03  0.00000000000E+00 0.  1.
         21    1    1    2  502  501  0.23520879287E+02  0.18930685274E+01  0.41103555647E+01  0.23952254461E+02  0.00000000000E+00 0.  1.
<mgrwt>
<rscale>  1 0.30000000E+03</rscale>
<asrwt>0</asrwt>
<pdfrwt beam="1">  1        1 0.15288355E+00 0.30000000E+03</pdfrwt>
<pdfrwt beam="2">0</pdfrwt>
<totfact> 0.17370829E+01</totfact>
</mgrwt>
</event>
<event>
 6    1  0.1839160E-004  0.3000000E+03  0.7818608E-02  0.1093470E+00
          1   -1    0    0  502    0  0.00000000000E+00  0.00000000000E+00  0.35110051928E+02  0.35110051928E+02  0.00000000000E+00 0.  1.
         13   -1    0    0    0    0 -0.00000000000E+00 -0.00000000000E+00 -0.10000000000E+04  0.10000000000E+04  0.00000000000E+00 0.  1.
    9000005    2    1    2  501    0 -0.13242593255E+02 -0.20548988914E+01 -0.96759322217E+03  0.10214390397E+04  0.32698850021E+03 0.  0.
         13    1    3    3    0    0  0.55142616921E+02  0.10029088347E+03 -0.12334396196E+03  0.16826378832E+03  0.00000000000E+00 0.  1.
          3    1    3    3  501    0 -0.68385210176E+02 -0.10234578236E+03 -0.84424926021E+03  0.85317525134E+03  0.00000000000E+00 0.  1.
         21    1    1    2  502  501  0.13242593255E+02  0.20548988914E+01  0.27032740969E+01  0.13671012267E+02  0.00000000000E+00 0.  1.
<mgrwt>
<rscale>  1 0.30000000E+03</rscale>
<asrwt>0</asrwt>
<pdfrwt beam="1">  1        1 0.12767319E+00 0.30000000E+03</pdfrwt>
<pdfrwt beam="2">0</pdfrwt>
<totfact> 0.23560029E+01</totfact>
</mgrwt>
</event>
<event>
 6    1  0.1839160E-004  0.3000000E+03  0.7818608E-02  0.1093470E+00
          1   -1    0    0  502    0  0.00000000000E+00  0.00000000000E+00  0.29088145371E+02  0.29088145371E+02  0.00000000000E+00 0.  1.
         13   -1    0    0    0    0 -0.00000000000E+00 -0.00000000000E+00 -0.10000000000E+04  0.10000000000E+04  0.00000000000E+00 0.  1.
    9000005    2    1    2  501    0 -0.13899346292E+02 -0.71095022414E+01 -0.94091472609E+03  0.99527151381E+03  0.32403877481E+03 0.  0.
         13    1    3    3    0    0 -0.16203408799E+03 -0.26160521813E+02 -0.61910332623E+03  0.64049070807E+03  0.00000000000E+00 0.  1.
          3    1    3    3  501    0  0.14813474170E+03  0.19051019571E+02 -0.32181139985E+03  0.35478080574E+03  0.00000000000E+00 0.  1.
         21    1    1    2  502  501  0.13899346292E+02  0.71095022414E+01 -0.29997128543E+02  0.33816631563E+02  0.00000000000E+00 0.  1.
<mgrwt>
<rscale>  1 0.30000000E+03</rscale>
<asrwt>0</asrwt>
<pdfrwt beam="1">  1        1 0.10577530E+00 0.30000000E+03</pdfrwt>
<pdfrwt beam="2">0</pdfrwt>
<totfact> 0.31506163E+01</totfact>
</mgrwt>
</event>
<event>
 6    1  0.1839160E-004  0.3000000E+03  0.7818608E-02  0.1093470E+00
          1   -1    0    0  502    0  0.00000000000E+00  0.00000000000E+00  0.31750010469E+02  0.31750010469E+02  0.00000000000E+00 0.  1.
         13   -1    0    0    0    0 -0.00000000000E+00 -0.00000000000E+00 -0.10000000000E+04  0.10000000000E+04  0.00000000000E+00 0.  1.
    9000005    2    1    2  501    0 -0.76513582524E+01 -0.14797240653E+02 -0.93422758681E+03  0.99386828003E+03  0.33869672641E+03 0.  0.
         13    1    3    3    0    0  0.34103326972E+02 -0.14313151701E+03 -0.20547216539E+03  0.25272213758E+03  0.00000000000E+00 0.  1.
          1    1    3    3  501    0 -0.41754685224E+02  0.12833427636E+03 -0.72875542141E+03  0.74114614245E+03  0.00000000000E+00 0.  1.
         21    1    1    2  502  501  0.76513582524E+01  0.14797240653E+02 -0.34022402723E+02  0.37881730439E+02  0.00000000000E+00 0. -1.
<mgrwt>
<rscale>  1 0.30000000E+03</rscale>
<asrwt>0</asrwt>
<pdfrwt beam="1">  1        1 0.11545483E+00 0.30000000E+03</pdfrwt>
<pdfrwt beam="2">0</pdfrwt>
<totfact> 0.27598352E+01</totfact>
</mgrwt>
</event>
<event>
 6    1  0.1839160E-004  0.3000000E+03  0.7818608E-02  0.1093470E+00
          1   -1    0    0  502    0  0.00000000000E+00  0.00000000000E+00  0.33313870343E+02  0.33313870343E+02  0.00000000000E+00 0.  1.
         13   -1    0    0    0    0 -0.00000000000E+00 -0.00000000000E+00 -0.10000000000E+04  0.10000000000E+04  0.00000000000E+00 0.  1.
    9000005    2    1    2  501    0 -0.60583693251E+01 -0.92712814894E+01 -0.96696060655E+03  0.10222352496E+04  0.33140523603E+03 0.  0.
         13    1    3    3    0    0  0.11370450506E+03  0.11149277035E+03 -0.52739030864E+03  0.55090824096E+03  0.00000000000E+00 0.  1.
          3    1    3    3  501    0 -0.11976287438E+03 -0.12076405184E+03 -0.43957029791E+03  0.47132700867E+03  0.00000000000E+00 0.  1.
         21    1    1    2  502  501  0.60583693251E+01  0.92712814894E+01  0.27447689366E+00  0.11078620713E+02  0.00000000000E+00 0. -1.
<mgrwt>
<rscale>  1 0.30000000E+03</rscale>
<asrwt>0</asrwt>
<pdfrwt beam="1">  1        1 0.12114160E+00 0.30000000E+03</pdfrwt>
<pdfrwt beam="2">0</pdfrwt>
<totfact> 0.25613451E+01</totfact>
</mgrwt>
</event>
<event>
 6    1  0.1839160E-004  0.3000000E+03  0.7818608E-02  0.1093470E+00
          1   -1    0    0  502    0  0.00000000000E+00  0.00000000000E+00  0.41928379280E+02  0.41928379280E+02  0.00000000000E+00 0.  1.
         13   -1    0    0    0    0 -0.00000000000E+00 -0.00000000000E+00 -0.10000000000E+04  0.10000000000E+04  0.00000000000E+00 0.  1.
    9000005    2    1    2  501    0  0.40413111590E+02  0.60695710137E+02 -0.89124091654E+03  0.94301664166E+03  0.29942081811E+03 0.  0.
         13    1    3    3    0    0  0.58712081872E+02  0.15619184395E+03 -0.76861592584E+03  0.78651982946E+03  0.00000000000E+00 0.  1.
          1    1    3    3  501    0 -0.18298970282E+02 -0.95496133812E+02 -0.12262499070E+03  0.15649681221E+03  0.00000000000E+00 0.  1.
         21    1    1    2  502  501 -0.40413111590E+02 -0.60695710137E+02 -0.66830704176E+02  0.98911737616E+02  0.00000000000E+00 0.  1.
<mgrwt>
<rscale>  1 0.30000000E+03</rscale>
<asrwt>0</asrwt>
<pdfrwt beam="1">  1        1 0.15246716E+00 0.30000000E+03</pdfrwt>
<pdfrwt beam="2">0</pdfrwt>
<totfact> 0.17455120E+01</totfact>
</mgrwt>
</event>
<event>
 6    1  0.1839160E-004  0.3000000E+03  0.7818608E-02  0.1093470E+00
          1   -1    0    0  502    0  0.00000000000E+00  0.00000000000E+00  0.31528880128E+02  0.31528880128E+02  0.00000000000E+00 0.  1.
         13   -1    0    0    0    0 -0.00000000000E+00 -0.00000000000E+00 -0.10000000000E+04  0.10000000000E+04  0.00000000000E+00 0.  1.
    9000005    2    1    2  501    0 -0.14056559102E+02  0.51839722004E-01 -0.95674972044E+03  0.10132264009E+04  0.33325684146E+03 0.  0.
         13    1    3    3    0    0 -0.28892770503E+02  0.15396161759E+03 -0.29903687161E+03  0.33758261575E+03  0.00000000000E+00 0.  1.
          1    1    3    3  501    0  0.14836211401E+02 -0.15390977787E+03 -0.65771284884E+03  0.67564378515E+03  0.00000000000E+00 0.  1.
         21    1    1    2  502  501  0.14056559102E+02 -0.51839722004E-01 -0.11721399428E+02  0.18302479223E+02  0.00000000000E+00 0.  1.
<mgrwt>
<rscale>  1 0.30000000E+03</rscale>
<asrwt>0</asrwt>
<pdfrwt beam="1">  1        1 0.11465071E+00 0.30000000E+03</pdfrwt>
<pdfrwt beam="2">0</pdfrwt>
<totfact> 0.27895947E+01</totfact>
</mgrwt>
</event>
<event>
 6    1  0.1839160E-004  0.3000000E+03  0.7818608E-02  0.1093470E+00
          1   -1    0    0  502    0  0.00000000000E+00  0.00000000000E+00  0.42256561220E+02  0.42256561220E+02  0.00000000000E+00 0.  1.
         13   -1    0    0    0    0 -0.00000000000E+00 -0.00000000000E+00 -0.10000000000E+04  0.10000000000E+04  0.00000000000E+00 0.  1.
    9000005    2    1    2  501    0  0.59066425980E+02  0.47018185382E+02 -0.82414055064E+03  0.88879880106E+03  0.32412360160E+03 0.  0.
         13    1    3    3    0    0 -0.13444568338E+03  0.37793175232E+01 -0.33749940825E+03  0.36331222879E+03  0.00000000000E+00 0.  1.
          3    1    3    3  501    0  0.19351210936E+03  0.43238867858E+02 -0.48664114239E+03  0.52548657227E+03  0.00000000000E+00 0.  1.
         21    1    1    2  502  501 -0.59066425980E+02 -0.47018185382E+02 -0.13360288814E+03  0.15345776016E+03  0.00000000000E+00 0.  1.
<mgrwt>
<rscale>  1 0.30000000E+03</rscale>
<asrwt>0</asrwt>
<pdfrwt beam="1">  1        1 0.15366055E+00 0.30000000E+03</pdfrwt>
<pdfrwt beam="2">0</pdfrwt>
<totfact> 0.17214859E+01</totfact>
</mgrwt>
</event>
<event>
 6    1  0.1839160E-004  0.3000000E+03  0.7818608E-02  0.1093470E+00
          1   -1    0    0  502    0  0.00000000000E+00  0.00000000000E+00  0.72750429497E+02  0.72750429497E+02  0.00000000000E+00 0.  1.
         13   -1    0    0    0    0 -0.00000000000E+00 -0.00000000000E+00 -0.10000000000E+04  0.10000000000E+04  0.00000000000E+00 0.  1.
    9000005    2    1    2  501    0  0.25988869433E+02 -0.65213792963E+01 -0.96645802612E+03  0.10252609284E+04  0.34117576897E+03 0.  0.
         13    1    3    3    0    0  0.17380835143E+02  0.58640446013E+02 -0.95688714432E+03  0.95883982099E+03  0.00000000000E+00 0.  1.
          3    1    3    3  501    0  0.86080342898E+01 -0.65161825309E+02 -0.95708817971E+01  0.66421107416E+02  0.00000000000E+00 0.  1.
         21    1    1    2  502  501 -0.25988869433E+02  0.65213792963E+01  0.39208455617E+02  0.47489501094E+02  0.00000000000E+00 0.  1.
<mgrwt>
<rscale>  1 0.30000000E+03</rscale>
<asrwt>0</asrwt>
<pdfrwt beam="1">  1        1 0.26454757E+00 0.30000000E+03</pdfrwt>
<pdfrwt beam="2">0</pdfrwt>
<totfact> 0.51006495E+00</totfact>
</mgrwt>
</event>
<event>
 6    1  0.1839160E-004  0.3000000E+03  0.7818608E-02  0.1093470E+00
          1   -1    0    0  502    0  0.00000000000E+00  0.00000000000E+00  0.35317881873E+02  0.35317881873E+02  0.00000000000E+00 0.  1.
         13   -1    0    0    0    0 -0.00000000000E+00 -0.00000000000E+00 -0.10000000000E+04  0.10000000000E+04  0.00000000000E+00 0.  1.
    9000005    2    1    2  501    0 -0.91259272669E+01  0.29430467878E+02 -0.93764049110E+03  0.99432172863E+03  0.32947924745E+03 0.  0.
         13    1    3    3    0    0  0.78838987724E+02 -0.21857568507E+02 -0.86591473701E+03  0.86977104520E+03  0.00000000000E+00 0.  1.
          3    1    3    3  501    0 -0.87964914991E+02  0.51288036385E+02 -0.71725754081E+02  0.12455068343E+03  0.00000000000E+00 0.  1.
         21    1    1    2  502  501  0.91259272669E+01 -0.29430467878E+02 -0.27041627032E+02  0.40996153240E+02  0.00000000000E+00 0.  1.
<mgrwt>
<rscale>  1 0.30000000E+03</rscale>
<asrwt>0</asrwt>
<pdfrwt beam="1">  1        1 0.12842893E+00 0.30000000E+03</pdfrwt>
<pdfrwt beam="2">0</pdfrwt>
<totfact> 0.23336254E+01</totfact>
</mgrwt>
</event>
<event>
 6    1  0.1839160E-004  0.3000000E+03  0.7818608E-02  0.1093470E+00
          1   -1    0    0  502    0  0.00000000000E+00  0.00000000000E+00  0.29686149034E+02  0.29686149034E+02  0.00000000000E+00 0.  1.
         13   -1    0    0    0    0 -0.00000000000E+00 -0.00000000000E+00 -0.10000000000E+04  0.10000000000E+04  0.00000000000E+00 0.  1.
    9000005    2    1    2  501    0 -0.12179351246E+02 -0.33502153271E+01 -0.96125176717E+03  0.10141400273E+04  0.32297906196E+03 0.  0.
         13    1    3    3    0    0 -0.64644433493E+02  0.93056315562E+02 -0.11732524872E+03  0.16310608399E+03  0.00000000000E+00 0.  1.
          3    1    3    3  501    0  0.52465082246E+02 -0.96406530889E+02 -0.84392651845E+03  0.85103394327E+03  0.00000000000E+00 0.  1.
         21    1    1    2  502  501  0.12179351246E+02  0.33502153271E+01 -0.90620837999E+01  0.15546121777E+02  0.00000000000E+00 0.  1.
<mgrwt>
<rscale>  1 0.30000000E+03</rscale>
<asrwt>0</asrwt>
<pdfrwt beam="1">  1        1 0.10794986E+00 0.30000000E+03</pdfrwt>
<pdfrwt beam="2">0</pdfrwt>
<totfact> 0.30562607E+01</totfact>
</mgrwt>
</event>
<event>
 6    1  0.1839160E-004  0.3000000E+03  0.7818608E-02  0.1093470E+00
          1   -1    0    0  502    0  0.00000000000E+00  0.00000000000E+00  0.37997018623E+02  0.37997018623E+02  0.00000000000E+00 0.  1.
         13   -1    0    0    0    0 -0.00000000000E+00 -0.00000000000E+00 -0.10000000000E+04  0.10000000000E+04  0.00000000000E+00 0.  1.
    9000005    2    1    2  501    0  0.69432159455E+00  0.15221218317E+02 -0.96884197985E+03  0.10212955376E+04  0.32273460546E+03 0.  0.
         13    1    3    3    0    0  0.13634821301E+03 -0.59970742330E+02 -0.30307131771E+03  0.33769742188E+03  0.00000000000E+00 0.  1.
          1    1    3    3  501    0 -0.13565389142E+03  0.75191960648E+02 -0.66577066214E+03  0.68359811568E+03  0.00000000000E+00 0.  1.
         21    1    1    2  502  501 -0.69432159455E+00 -0.15221218317E+02  0.68389984691E+01  0.16701481060E+02  0.00000000000E+00 0.  1.
<mgrwt>
<rscale>  1 0.30000000E+03</rscale>
<asrwt>0</asrwt>
<pdfrwt beam="1">  1        1 0.13817127E+00 0.30000000E+03</pdfrwt>
<pdfrwt beam="2">0</pdfrwt>
<totfact> 0.20685327E+01</totfact>
</mgrwt>
</event>
<event>
 6    1  0.1839160E-004  0.3000000E+03  0.7818608E-02  0.1093470E+00
          1   -1    0    0  502    0  0.00000000000E+00  0.00000000000E+00  0.43485599587E+02  0.43485599587E+02  0.00000000000E+00 0.  1.
         13   -1    0    0    0    0 -0.00000000000E+00 -0.00000000000E+00 -0.10000000000E+04  0.10000000000E+04  0.00000000000E+00 0.  1.
    9000005    2    1    2  501    0 -0.29865543005E+02  0.53015984670E+02 -0.90435428925E+03  0.96333996660E+03  0.32628908269E+03 0.  0.
         13    1    3    3    0    0  0.26795933526E+02 -0.10519657755E+03 -0.64654071899E+03  0.65559075901E+03  0.00000000000E+00 0.  1.
          3    1    3    3  501    0 -0.56661476531E+02  0.15821256222E+03 -0.25781357026E+03  0.30774920760E+03  0.00000000000E+00 0.  1.
         21    1    1    2  502  501  0.29865543005E+02 -0.53015984670E+02 -0.52160111164E+02  0.80145632982E+02  0.00000000000E+00 0.  1.
<mgrwt>
<rscale>  1 0.30000000E+03</rscale>
<asrwt>0</asrwt>
<pdfrwt beam="1">  1        1 0.15812979E+00 0.30000000E+03</pdfrwt>
<pdfrwt beam="2">0</pdfrwt>
<totfact> 0.16349721E+01</totfact>
</mgrwt>
</event>
<event>
 6    1  0.1839160E-004  0.3000000E+03  0.7818608E-02  0.1093470E+00
          1   -1    0    0  502    0  0.00000000000E+00  0.00000000000E+00  0.31614256618E+02  0.31614256618E+02  0.00000000000E+00 0.  1.
         13   -1    0    0    0    0 -0.00000000000E+00 -0.00000000000E+00 -0.10000000000E+04  0.10000000000E+04  0.00000000000E+00 0.  1.
    9000005    2    1    2  501    0 -0.18470625885E+02  0.23444843304E+02 -0.91531643750E+03  0.97072767415E+03  0.32189627506E+03 0.  0.
         13    1    3    3    0    0 -0.62738485601E+02 -0.13226989507E+03 -0.58269717487E+03  0.60080565936E+03  0.00000000000E+00 0.  1.
          3    1    3    3  501    0  0.44267859717E+02  0.15571473838E+03 -0.33261926263E+03  0.36992201479E+03  0.00000000000E+00 0.  1.
         21    1    1    2  502  501  0.18470625885E+02 -0.23444843304E+02 -0.53069305881E+02  0.60886582469E+02  0.00000000000E+00 0. -1.
<mgrwt>
<rscale>  1 0.30000000E+03</rscale>
<asrwt>0</asrwt>
<pdfrwt beam="1">  1        1 0.11496118E+00 0.30000000E+03</pdfrwt>
<pdfrwt beam="2">0</pdfrwt>
<totfact> 0.27780517E+01</totfact>
</mgrwt>
</event>
<event>
 6    1  0.1839160E-004  0.3000000E+03  0.7818608E-02  0.1093470E+00
          1   -1    0    0  502    0  0.00000000000E+00  0.00000000000E+00  0.29759663396E+02  0.29759663396E+02  0.00000000000E+00 0.  1.
         13   -1    0    0    0    0 -0.00000000000E+00 -0.00000000000E+00 -0.10000000000E+04  0.10000000000E+04  0.00000000000E+00 0.  1.
    9000005    2    1    2  501    0 -0.10899591801E+02 -0.97374141444E+01 -0.97212910080E+03  0.10150224396E+04  0.29158522921E+03 0.  0.
         13    1    3    3    0    0  0.10291142685E+02 -0.11841704079E+03 -0.81009682524E+03  0.81877064519E+03  0.00000000000E+00 0.  1.
          3    1    3    3  501    0 -0.21190734486E+02  0.10867962665E+03 -0.16203227556E+03  0.19625179439E+03  0.00000000000E+00 0.  1.
         21    1    1    2  502  501  0.10899591801E+02  0.97374141444E+01  0.18887641937E+01  0.14737223817E+02  0.00000000000E+00 0.  1.
<mgrwt>
<rscale>  1 0.30000000E+03</rscale>
<asrwt>0</asrwt>
<pdfrwt beam="1">  1        1 0.10821719E+00 0.30000000E+03</pdfrwt>
<pdfrwt beam="2">0</pdfrwt>
<totfact> 0.30449420E+01</totfact>
</mgrwt>
</event>
<event>
 6    1  0.1839160E-004  0.3000000E+03  0.7818608E-02  0.1093470E+00
          1   -1    0    0  502    0  0.00000000000E+00  0.00000000000E+00  0.30641242923E+02  0.30641242923E+02  0.00000000000E+00 0.  1.
         13   -1    0    0    0    0 -0.00000000000E+00 -0.00000000000E+00 -0.10000000000E+04  0.10000000000E+04  0.00000000000E+00 0.  1.
    9000005    2    1    2  501    0  0.28895303453E+02  0.57449691087E+01 -0.89507086254E+03  0.95072482092E+03  0.31915183362E+03 0.  0.
         13    1    3    3    0    0 -0.11228872221E+03 -0.88085847985E+02 -0.51800108512E+03  0.53730158937E+03  0.00000000000E+00 0.  1.
          1    1    3    3  501    0  0.14118402567E+03  0.93830817093E+02 -0.37706977742E+03  0.41342323155E+03  0.00000000000E+00 0.  1.
         21    1    1    2  502  501 -0.28895303453E+02 -0.57449691087E+01 -0.74287894536E+02  0.79916422007E+02  0.00000000000E+00 0. -1.
<mgrwt>
<rscale>  1 0.30000000E+03</rscale>
<asrwt>0</asrwt>
<pdfrwt beam="1">  1        1 0.11142294E+00 0.30000000E+03</pdfrwt>
<pdfrwt beam="2">0</pdfrwt>
<totfact> 0.29137384E+01</totfact>
</mgrwt>
</event>
<event>
 6    1  0.1839160E-004  0.3000000E+03  0.7818608E-02  0.1093470E+00
          1   -1    0    0  502    0  0.00000000000E+00  0.00000000000E+00  0.32679097111E+02  0.32679097111E+02  0.00000000000E+00 0.  1.
         13   -1    0    0    0    0 -0.00000000000E+00 -0.00000000000E+00 -0.10000000000E+04  0.10000000000E+04  0.00000000000E+00 0.  1.
    9000005    2    1    2  501    0  0.12778965092E+01 -0.11985178947E+02 -0.96698326244E+03  0.10206212559E+04  0.32629103664E+03 0.  0.
         13    1    3    3    0    0 -0.27863433188E+01 -0.10372142169E+02  0.25738770921E+02  0.27889592517E+02  0.00000000000E+00 0.  1.
          3    1    3    3  501    0  0.40642398280E+01 -0.16130367780E+01 -0.99272203336E+03  0.99273166337E+03  0.00000000000E+00 0.  1.
         21    1    1    2  502  501 -0.12778965092E+01  0.11985178947E+02 -0.33764044496E+00  0.12057841223E+02  0.00000000000E+00 0.  1.
<mgrwt>
<rscale>  1 0.30000000E+03</rscale>
<asrwt>0</asrwt>
<pdfrwt beam="1">  1        1 0.11883333E+00 0.30000000E+03</pdfrwt>
<pdfrwt beam="2">0</pdfrwt>
<totfact> 0.26394946E+01</totfact>
</mgrwt>
</event>
<event>
 6    1  0.1839160E-004  0.3000000E+03  0.7818608E-02  0.1093470E+00
          1   -1    0    0  502    0  0.00000000000E+00  0.00000000000E+00  0.44157104711E+02  0.44157104711E+02  0.00000000000E+00 0.  1.
         13   -1    0    0    0    0 -0.00000000000E+00 -0.00000000000E+00 -0.10000000000E+04  0.10000000000E+04  0.00000000000E+00 0.  1.
    9000005    2    1    2  501    0  0.29250464791E+02  0.72821865936E+02 -0.81063218348E+03  0.87909722263E+03  0.33095131982E+03 0.  0.
         13    1    3    3    0    0  0.45008863654E+02  0.52771705873E+02 -0.13078221492E+01  0.69371183837E+02  0.00000000000E+00 0.  1.
          1    1    3    3  501    0 -0.15758398864E+02  0.20050160063E+02 -0.80932436133E+03  0.80972603879E+03  0.00000000000E+00 0.  1.
         21    1    1    2  502  501 -0.29250464791E+02 -0.72821865936E+02 -0.14521071181E+03  0.16505988208E+03  0.00000000000E+00 0.  1.
<mgrwt>
<rscale>  1 0.30000000E+03</rscale>
<asrwt>0</asrwt>
<pdfrwt beam="1">  1        1 0.16057163E+00 0.30000000E+03</pdfrwt>
<pdfrwt beam="2">0</pdfrwt>
<totfact> 0.15898804E+01</totfact>
</mgrwt>
</event>
<event>
 6    1  0.1839160E-004  0.3000000E+03  0.7818608E-02  0.1093470E+00
          1   -1    0    0  502    0  0.00000000000E+00  0.00000000000E+00  0.42786533218E+02  0.42786533218E+02  0.00000000000E+00 0.  1.
         13   -1    0    0    0    0 -0.00000000000E+00 -0.00000000000E+00 -0.10000000000E+04  0.10000000000E+04  0.00000000000E+00 0.  1.
    9000005    2    1    2  501    0 -0.42749534172E+02  0.53910033665E+02 -0.86695053125E+03  0.92929110629E+03  0.32748270520E+03 0.  0.
         13    1    3    3    0    0 -0.18526904754E+03  0.44173660076E+02 -0.53568758202E+03  0.56853946015E+03  0.00000000000E+00 0.  1.
          3    1    3    3  501    0  0.14251951337E+03  0.97363735886E+01 -0.33126294923E+03  0.36075164614E+03  0.00000000000E+00 0.  1.
         21    1    1    2  502  501  0.42749534172E+02 -0.53910033665E+02 -0.90262935534E+02  0.11349542692E+03  0.00000000000E+00 0.  1.
<mgrwt>
<rscale>  1 0.30000000E+03</rscale>
<asrwt>0</asrwt>
<pdfrwt beam="1">  1        1 0.15558772E+00 0.30000000E+03</pdfrwt>
<pdfrwt beam="2">0</pdfrwt>
<totfact> 0.16835254E+01</totfact>
</mgrwt>
</event>
<event>
 6    1  0.1839160E-004  0.3000000E+03  0.7818608E-02  0.1093470E+00
          3   -1    0    0  502    0  0.00000000000E+00  0.00000000000E+00  0.17565583796E+02  0.17565583796E+02  0.00000000000E+00 0.  1.
         13   -1    0    0    0    0 -0.00000000000E+00 -0.00000000000E+00 -0.10000000000E+04  0.10000000000E+04  0.00000000000E+00 0.  1.
    9000005    2    1    2  501    0 -0.10247626410E+02  0.18227192283E+01 -0.98361095666E+03  0.10070908332E+04  0.21594697525E+03 0.  0.
         13    1    3    3    0    0  0.16215010224E+02 -0.33596267143E+02 -0.95202211560E+03  0.95275271939E+03  0.00000000000E+00 0.  1.
          1    1    3    3  501    0 -0.26462636635E+02  0.35418986372E+02 -0.31588841060E+02  0.54338113813E+02  0.00000000000E+00 0.  1.
         21    1    1    2  502  501  0.10247626410E+02 -0.18227192283E+01  0.11765404555E+01  0.10474750588E+02  0.00000000000E+00 0.  1.
<mgrwt>
<rscale>  1 0.30000000E+03</rscale>
<asrwt>0</asrwt>
<pdfrwt beam="1">  1        3 0.63874985E-01 0.30000000E+03</pdfrwt>
<pdfrwt beam="2">0</pdfrwt>
<totfact> 0.10765945E+01</totfact>
</mgrwt>
</event>
<event>
 6    1  0.1839160E-004  0.3000000E+03  0.7818608E-02  0.1093470E+00
          1   -1    0    0  502    0  0.00000000000E+00  0.00000000000E+00  0.35152654926E+02  0.35152654926E+02  0.00000000000E+00 0.  1.
         13   -1    0    0    0    0 -0.00000000000E+00 -0.00000000000E+00 -0.10000000000E+04  0.10000000000E+04  0.00000000000E+00 0.  1.
    9000005    2    1    2  501    0 -0.17067599568E+02 -0.11425697890E+02 -0.95928493996E+03  0.10138737950E+04  0.32755247932E+03 0.  0.
         13    1    3    3    0    0  0.11651133564E+03  0.92210672498E+02 -0.57787827681E+03  0.59667495528E+03  0.00000000000E+00 0.  1.
          3    1    3    3  501    0 -0.13357893521E+03 -0.10363637039E+03 -0.38140666316E+03  0.41719883976E+03  0.00000000000E+00 0.  1.
         21    1    1    2  502  501  0.17067599568E+02  0.11425697890E+02 -0.55624051109E+01  0.21278859883E+02  0.00000000000E+00 0.  1.
<mgrwt>
<rscale>  1 0.30000000E+03</rscale>
<asrwt>0</asrwt>
<pdfrwt beam="1">  1        1 0.12782811E+00 0.30000000E+03</pdfrwt>
<pdfrwt beam="2">0</pdfrwt>
<totfact> 0.23513933E+01</totfact>
</mgrwt>
</event>
<event>
 6    1  0.1839160E-004  0.3000000E+03  0.7818608E-02  0.1093470E+00
          1   -1    0    0  502    0  0.00000000000E+00  0.00000000000E+00  0.47850144981E+02  0.47850144981E+02  0.00000000000E+00 0.  1.
         13   -1    0    0    0    0 -0.00000000000E+00 -0.00000000000E+00 -0.10000000000E+04  0.10000000000E+04  0.00000000000E+00 0.  1.
    9000005    2    1    2  501    0  0.20984291158E+02  0.57553744480E+01 -0.96890483238E+03  0.10203875508E+04  0.31928156053E+03 0.  0.
         13    1    3    3    0    0 -0.36803475727E+02  0.12835259495E+03 -0.75811967572E+03  0.76978849509E+03  0.00000000000E+00 0.  1.
          1    1    3    3  501    0  0.57787766884E+02 -0.12259722050E+03 -0.21078515666E+03  0.25059905575E+03  0.00000000000E+00 0.  1.
         21    1    1    2  502  501 -0.20984291158E+02 -0.57553744480E+01  0.16754977361E+02  0.27462594138E+02  0.00000000000E+00 0.  1.
<mgrwt>
<rscale>  1 0.30000000E+03</rscale>
<asrwt>0</asrwt>
<pdfrwt beam="1">  1        1 0.17400089E+00 0.30000000E+03</pdfrwt>
<pdfrwt beam="2">0</pdfrwt>
<totfact> 0.13659786E+01</totfact>
</mgrwt>
</event>
<event>
 6    1  0.1839160E-004  0.3000000E+03  0.7818608E-02  0.1093470E+00
          1   -1    0    0  502    0  0.00000000000E+00  0.00000000000E+00  0.32035149503E+02  0.32035149503E+02  0.00000000000E+00 0.  1.
         13   -1    0    0    0    0 -0.00000000000E+00 -0.00000000000E+00 -0.10000000000E+04  0.10000000000E+04  0.00000000000E+00 0.  1.
    9000005    2    1    2  501    0 -0.72906526554E+01  0.30623793295E+02 -0.89631238192E+03  0.95377247267E+03  0.32452283942E+03 0.  0.
         13    1    3    3    0    0  0.66330731184E+02  0.13210338224E+03 -0.73369011775E+03  0.74843320235E+03  0.00000000000E+00 0.  1.
          1    1    3    3  501    0 -0.73621383840E+02 -0.10147958894E+03 -0.16262226417E+03  0.20533927031E+03  0.00000000000E+00 0.  1.
         21    1    1    2  502  501  0.72906526554E+01 -0.30623793295E+02 -0.71652468581E+02  0.78262676837E+02  0.00000000000E+00 0.  1.
<mgrwt>
<rscale>  1 0.30000000E+03</rscale>
<asrwt>0</asrwt>
<pdfrwt beam="1">  1        1 0.11649170E+00 0.30000000E+03</pdfrwt>
<pdfrwt beam="2">0</pdfrwt>
<totfact> 0.27221118E+01</totfact>
</mgrwt>
</event>
<event>
 6    1  0.1839160E-004  0.3000000E+03  0.7818608E-02  0.1093470E+00
          1   -1    0    0  502    0  0.00000000000E+00  0.00000000000E+00  0.37948444981E+02  0.37948444981E+02  0.00000000000E+00 0.  1.
         13   -1    0    0    0    0 -0.00000000000E+00 -0.00000000000E+00 -0.10000000000E+04  0.10000000000E+04  0.00000000000E+00 0.  1.
    9000005    2    1    2  501    0  0.97563063637E+01 -0.52783274147E+01 -0.96633166979E+03  0.10260587168E+04  0.34478478505E+03 0.  0.
         13    1    3    3    0    0 -0.40917999993E+02  0.12420195217E+02  0.13435374533E+02  0.44822463804E+02  0.00000000000E+00 0.  1.
          1    1    3    3  501    0  0.50674306357E+02 -0.17698522631E+02 -0.97976704432E+03  0.98123625298E+03  0.00000000000E+00 0.  1.
         21    1    1    2  502  501 -0.97563063637E+01  0.52783274147E+01  0.42801147680E+01  0.11889728196E+02  0.00000000000E+00 0.  1.
<mgrwt>
<rscale>  1 0.30000000E+03</rscale>
<asrwt>0</asrwt>
<pdfrwt beam="1">  1        1 0.13799464E+00 0.30000000E+03</pdfrwt>
<pdfrwt beam="2">0</pdfrwt>
<totfact> 0.20729773E+01</totfact>
</mgrwt>
</event>
<event>
 6    1  0.1839160E-004  0.3000000E+03  0.7818608E-02  0.1093470E+00
          1   -1    0    0  502    0  0.00000000000E+00  0.00000000000E+00  0.30215392697E+02  0.30215392697E+02  0.00000000000E+00 0.  1.
         13   -1    0    0    0    0 -0.00000000000E+00 -0.00000000000E+00 -0.10000000000E+04  0.10000000000E+04  0.00000000000E+00 0.  1.
    9000005    2    1    2  501    0 -0.20314806248E+02 -0.11231503178E+02 -0.91879048683E+03  0.97418648642E+03  0.32299305504E+03 0.  0.
         13    1    3    3    0    0 -0.14584253408E+03 -0.79669338854E+02 -0.63540806181E+03  0.65678052142E+03  0.00000000000E+00 0.  1.
          1    1    3    3  501    0  0.12552772783E+03  0.68437835677E+02 -0.28338242502E+03  0.31740596500E+03  0.00000000000E+00 0.  1.
         21    1    1    2  502  501  0.20314806248E+02  0.11231503178E+02 -0.50994120470E+02  0.56028906281E+02  0.00000000000E+00 0.  1.
<mgrwt>
<rscale>  1 0.30000000E+03</rscale>
<asrwt>0</asrwt>
<pdfrwt beam="1">  1        1 0.10987439E+00 0.30000000E+03</pdfrwt>
<pdfrwt beam="2">0</pdfrwt>
<totfact> 0.29760922E+01</totfact>
</mgrwt>
</event>
<event>
 6    1  0.1839160E-004  0.3000000E+03  0.7818608E-02  0.1093470E+00
          1   -1    0    0  502    0  0.00000000000E+00  0.00000000000E+00  0.30690167948E+02  0.30690167948E+02  0.00000000000E+00 0.  1.
         13   -1    0    0    0    0 -0.00000000000E+00 -0.00000000000E+00 -0.10000000000E+04  0.10000000000E+04  0.00000000000E+00 0.  1.
    9000005    2    1    2  501    0 -0.22100226881E+01 -0.18908580354E+02 -0.93764956037E+03  0.99374708451E+03  0.32860942057E+03 0.  0.
         13    1    3    3    0    0  0.46103585883E+02 -0.30215423565E+02 -0.94229970968E+03  0.94391061829E+03  0.00000000000E+00 0.  1.
          3    1    3    3  501    0 -0.48313608571E+02  0.11306843211E+02  0.46501493096E+01  0.49836466218E+02  0.00000000000E+00 0.  1.
         21    1    1    2  502  501  0.22100226881E+01  0.18908580354E+02 -0.31660271680E+02  0.36943083441E+02  0.00000000000E+00 0.  1.
<mgrwt>
<rscale>  1 0.30000000E+03</rscale>
<asrwt>0</asrwt>
<pdfrwt beam="1">  1        1 0.11160085E+00 0.30000000E+03</pdfrwt>
<pdfrwt beam="2">0</pdfrwt>
<totfact> 0.29066933E+01</totfact>
</mgrwt>
</event>
<event>
 6    1  0.1839160E-004  0.3000000E+03  0.7818608E-02  0.1093470E+00
          1   -1    0    0  502    0  0.00000000000E+00  0.00000000000E+00  0.43695312555E+02  0.43695312555E+02  0.00000000000E+00 0.  1.
         13   -1    0    0    0    0 -0.00000000000E+00 -0.00000000000E+00 -0.10000000000E+04  0.10000000000E+04  0.00000000000E+00 0.  1.
    9000005    2    1    2  501    0 -0.67289315934E+02 -0.10319206895E+02 -0.89663794097E+03  0.95317206303E+03  0.31613770178E+03 0.  0.
         13    1    3    3    0    0 -0.11146250958E+03  0.67889144297E+02 -0.14067356238E+03  0.19189027622E+03  0.00000000000E+00 0.  1.
          3    1    3    3  501    0  0.44173193645E+02 -0.78208351192E+02 -0.75596437859E+03  0.76128178681E+03  0.00000000000E+00 0.  1.
         21    1    1    2  502  501  0.67289315934E+02  0.10319206895E+02 -0.59666746478E+02  0.90523249528E+02  0.00000000000E+00 0.  1.
<mgrwt>
<rscale>  1 0.30000000E+03</rscale>
<asrwt>0</asrwt>
<pdfrwt beam="1">  1        1 0.15889238E+00 0.30000000E+03</pdfrwt>
<pdfrwt beam="2">0</pdfrwt>
<totfact> 0.16207309E+01</totfact>
</mgrwt>
</event>
<event>
 6    1  0.1839160E-004  0.3000000E+03  0.7818608E-02  0.1093470E+00
          1   -1    0    0  502    0  0.00000000000E+00  0.00000000000E+00  0.27138884844E+02  0.27138884844E+02  0.00000000000E+00 0.  1.
         13   -1    0    0    0    0 -0.00000000000E+00 -0.00000000000E+00 -0.10000000000E+04  0.10000000000E+04  0.00000000000E+00 0.  1.
    9000005    2    1    2  501    0 -0.10524646881E+02  0.12785319241E+02 -0.94916498918E+03  0.99822973463E+03  0.30866518078E+03 0.  0.
         13    1    3    3    0    0  0.98880952044E+02  0.34732923377E+02 -0.82362717142E+03  0.83026835189E+03  0.00000000000E+00 0.  1.
          1    1    3    3  501    0 -0.10940559893E+03 -0.21947604135E+02 -0.12553781776E+03  0.16796138273E+03  0.00000000000E+00 0.  1.
         21    1    1    2  502  501  0.10524646881E+02 -0.12785319241E+02 -0.23696125976E+02  0.28909150218E+02  0.00000000000E+00 0.  1.
<mgrwt>
<rscale>  1 0.30000000E+03</rscale>
<asrwt>0</asrwt>
<pdfrwt beam="1">  1        1 0.98687062E-01 0.30000000E+03</pdfrwt>
<pdfrwt beam="2">0</pdfrwt>
<totfact> 0.34893403E+01</totfact>
</mgrwt>
</event>
<event>
 6    1  0.1839160E-004  0.3000000E+03  0.7818608E-02  0.1093470E+00
          1   -1    0    0  502    0  0.00000000000E+00  0.00000000000E+00  0.31034491707E+02  0.31034491707E+02  0.00000000000E+00 0.  1.
         13   -1    0    0    0    0 -0.00000000000E+00 -0.00000000000E+00 -0.10000000000E+04  0.10000000000E+04  0.00000000000E+00 0.  1.
    9000005    2    1    2  501    0 -0.13708897309E+02 -0.22471605192E+00 -0.96268692931E+03  0.10159545409E+04  0.32436017159E+03 0.  0.
         13    1    3    3    0    0 -0.11366212033E+03 -0.11999632863E+03 -0.42201241344E+03  0.45322474952E+03  0.00000000000E+00 0.  1.
          1    1    3    3  501    0  0.99953223022E+02  0.11977161258E+03 -0.54067451587E+03  0.56272979136E+03  0.00000000000E+00 0.  1.
         21    1    1    2  502  501  0.13708897309E+02  0.22471605192E+00 -0.62785789803E+01  0.15079950821E+02  0.00000000000E+00 0.  1.
<mgrwt>
<rscale>  1 0.30000000E+03</rscale>
<asrwt>0</asrwt>
<pdfrwt beam="1">  1        1 0.11285294E+00 0.30000000E+03</pdfrwt>
<pdfrwt beam="2">0</pdfrwt>
<totfact> 0.28577878E+01</totfact>
</mgrwt>
</event>
<event>
 6    1  0.1839160E-004  0.3000000E+03  0.7818608E-02  0.1093470E+00
          1   -1    0    0  502    0  0.00000000000E+00  0.00000000000E+00  0.33843305517E+02  0.33843305517E+02  0.00000000000E+00 0.  1.
         13   -1    0    0    0    0 -0.00000000000E+00 -0.00000000000E+00 -0.10000000000E+04  0.10000000000E+04  0.00000000000E+00 0.  1.
    9000005    2    1    2  501    0 -0.45348777734E+02 -0.23588305717E+01 -0.82252004900E+03  0.88319948172E+03  0.31849649570E+03 0.  0.
         13    1    3    3    0    0 -0.33138426215E+02  0.14885063483E+03 -0.26847497774E+03  0.30876120296E+03  0.00000000000E+00 0.  1.
          3    1    3    3  501    0 -0.12210351519E+02 -0.15120946540E+03 -0.55404507127E+03  0.57443827876E+03  0.00000000000E+00 0.  1.
         21    1    1    2  502  501  0.45348777734E+02  0.23588305717E+01 -0.14363664548E+03  0.15064382380E+03  0.00000000000E+00 0.  1.
<mgrwt>
<rscale>  1 0.30000000E+03</rscale>
<asrwt>0</asrwt>
<pdfrwt beam="1">  1        1 0.12306683E+00 0.30000000E+03</pdfrwt>
<pdfrwt beam="2">0</pdfrwt>
<totfact> 0.24984975E+01</totfact>
</mgrwt>
</event>
<event>
 6    1  0.1839160E-004  0.3000000E+03  0.7818608E-02  0.1093470E+00
          1   -1    0    0  502    0  0.00000000000E+00  0.00000000000E+00  0.45331785673E+02  0.45331785673E+02  0.00000000000E+00 0.  1.
         13   -1    0    0    0    0 -0.00000000000E+00 -0.00000000000E+00 -0.10000000000E+04  0.10000000000E+04  0.00000000000E+00 0.  1.
    9000005    2    1    2  501    0 -0.85716300036E+01  0.13723459680E+02 -0.96661255674E+03  0.10252202591E+04  0.34128424894E+03 0.  0.
         13    1    3    3    0    0 -0.18452003833E+02 -0.93908676237E+02 -0.61685857285E+02  0.11386158662E+03  0.00000000000E+00 0.  1.
          1    1    3    3  501    0  0.98803738296E+01  0.10763213592E+03 -0.90492669946E+03  0.91135867245E+03  0.00000000000E+00 0.  1.
         21    1    1    2  502  501  0.85716300036E+01 -0.13723459680E+02  0.11944342414E+02  0.20111526601E+02  0.00000000000E+00 0. -1.
<mgrwt>
<rscale>  1 0.30000000E+03</rscale>
<asrwt>0</asrwt>
<pdfrwt beam="1">  1        1 0.16484320E+00 0.30000000E+03</pdfrwt>
<pdfrwt beam="2">0</pdfrwt>
<totfact> 0.15144214E+01</totfact>
</mgrwt>
</event>
<event>
 6    1  0.1839160E-004  0.3000000E+03  0.7818608E-02  0.1093470E+00
          3   -1    0    0  502    0  0.00000000000E+00  0.00000000000E+00  0.34319990578E+02  0.34319990578E+02  0.00000000000E+00 0.  1.
         13   -1    0    0    0    0 -0.00000000000E+00 -0.00000000000E+00 -0.10000000000E+04  0.10000000000E+04  0.00000000000E+00 0.  1.
    9000005    2    1    2  501    0 -0.88980486300E+01 -0.11827832710E+02 -0.96301950435E+03  0.10192816668E+04  0.33363075029E+03 0.  0.
         13    1    3    3    0    0  0.80697322839E+02  0.68308633493E+02 -0.92430546719E+02  0.14043337670E+03  0.00000000000E+00 0.  1.
          1    1    3    3  501    0 -0.89595371469E+02 -0.80136466204E+02 -0.87058895763E+03  0.87884829006E+03  0.00000000000E+00 0.  1.
         21    1    1    2  502  501  0.88980486300E+01  0.11827832710E+02 -0.26605050753E+01  0.15038323819E+02  0.00000000000E+00 0.  1.
<mgrwt>
<rscale>  1 0.30000000E+03</rscale>
<asrwt>0</asrwt>
<pdfrwt beam="1">  1        3 0.12480023E+00 0.30000000E+03</pdfrwt>
<pdfrwt beam="2">0</pdfrwt>
<totfact> 0.20342850E+00</totfact>
</mgrwt>
</event>
<event>
 6    1  0.1839160E-004  0.3000000E+03  0.7818608E-02  0.1093470E+00
          1   -1    0    0  502    0  0.00000000000E+00  0.00000000000E+00  0.55514087610E+02  0.55514087610E+02  0.00000000000E+00 0.  1.
         13   -1    0    0    0    0 -0.00000000000E+00 -0.00000000000E+00 -0.10000000000E+04  0.10000000000E+04  0.00000000000E+00 0.  1.
    9000005    2    1    2  501    0  0.29042268973E+01  0.23986321403E+02 -0.96882087694E+03  0.10212216883E+04  0.32201873699E+03 0.  0.
         13    1    3    3    0    0  0.15409682779E+03  0.61277772014E+02 -0.45260868441E+03  0.48203259110E+03  0.00000000000E+00 0.  1.
          1    1    3    3  501    0 -0.15119260090E+03 -0.37291450612E+02 -0.51621219253E+03  0.53918909723E+03  0.00000000000E+00 0.  1.
         21    1    1    2  502  501 -0.29042268973E+01 -0.23986321403E+02  0.24334964555E+02  0.34292399277E+02  0.00000000000E+00 0.  1.
<mgrwt>
<rscale>  1 0.30000000E+03</rscale>
<asrwt>0</asrwt>
<pdfrwt beam="1">  1        1 0.20186984E+00 0.30000000E+03</pdfrwt>
<pdfrwt beam="2">0</pdfrwt>
<totfact> 0.10036011E+01</totfact>
</mgrwt>
</event>
<event>
 6    1  0.1839160E-004  0.3000000E+03  0.7818608E-02  0.1093470E+00
          3   -1    0    0  502    0  0.00000000000E+00  0.00000000000E+00  0.30716695558E+02  0.30716695558E+02  0.00000000000E+00 0.  1.
         13   -1    0    0    0    0 -0.00000000000E+00 -0.00000000000E+00 -0.10000000000E+04  0.10000000000E+04  0.00000000000E+00 0.  1.
    9000005    2    1    2  501    0 -0.14699022168E+02 -0.56064448799E+01 -0.95605834433E+03  0.10101644926E+04  0.32578712505E+03 0.  0.
         13    1    3    3    0    0  0.33003215663E+02 -0.55951521409E+02 -0.93560351250E+03  0.93785591516E+03  0.00000000000E+00 0.  1.
          1    1    3    3  501    0 -0.47702237830E+02  0.50345076529E+02 -0.20454831827E+02  0.72308577429E+02  0.00000000000E+00 0.  1.
         21    1    1    2  502  501  0.14699022168E+02  0.56064448799E+01 -0.13224960112E+02  0.20552202968E+02  0.00000000000E+00 0.  1.
<mgrwt>
<rscale>  1 0.30000000E+03</rscale>
<asrwt>0</asrwt>
<pdfrwt beam="1">  1        3 0.11169731E+00 0.30000000E+03</pdfrwt>
<pdfrwt beam="2">0</pdfrwt>
<totfact> 0.28822496E+00</totfact>
</mgrwt>
</event>
<event>
 6    1  0.1839160E-004  0.3000000E+03  0.7818608E-02  0.1093470E+00
          1   -1    0    0  502    0  0.00000000000E+00  0.00000000000E+00  0.45582750773E+02  0.45582750773E+02  0.00000000000E+00 0.  1.
         13   -1    0    0    0    0 -0.00000000000E+00 -0.00000000000E+00 -0.10000000000E+04  0.10000000000E+04  0.00000000000E+00 0.  1.
    9000005    2    1    2  501    0 -0.16816972589E+01 -0.22766457776E+02 -0.96895547849E+03  0.10185180170E+04  0.31302251023E+03 0.  0.
         13    1    3    3    0    0 -0.11931026092E+03  0.73106217656E+02 -0.27961719207E+03  0.31267432181E+03  0.00000000000E+00 0.  1.
          3    1    3    3  501    0  0.11762856366E+03 -0.95872675432E+02 -0.68933828642E+03  0.70584369517E+03  0.00000000000E+00 0.  1.
         21    1    1    2  502  501  0.16816972589E+01  0.22766457776E+02  0.14538229261E+02  0.27064733795E+02  0.00000000000E+00 0.  1.
<mgrwt>
<rscale>  1 0.30000000E+03</rscale>
<asrwt>0</asrwt>
<pdfrwt beam="1">  1        1 0.16575581E+00 0.30000000E+03</pdfrwt>
<pdfrwt beam="2">0</pdfrwt>
<totfact> 0.14988382E+01</totfact>
</mgrwt>
</event>
<event>
 6    1  0.1839160E-004  0.3000000E+03  0.7818608E-02  0.1093470E+00
          1   -1    0    0  502    0  0.00000000000E+00  0.00000000000E+00  0.28508666948E+02  0.28508666948E+02  0.00000000000E+00 0.  1.
         13   -1    0    0    0    0 -0.00000000000E+00 -0.00000000000E+00 -0.10000000000E+04  0.10000000000E+04  0.00000000000E+00 0.  1.
    9000005    2    1    2  501    0  0.11503792513E+02  0.42889636921E+01 -0.95593009136E+03  0.10086873477E+04  0.32170964159E+03 0.  0.
         13    1    3    3    0    0  0.64387435900E+02  0.14551013769E+03 -0.62637180169E+03  0.64626664468E+03  0.00000000000E+00 0.  1.
          1    1    3    3  501    0 -0.52883643386E+02 -0.14122117400E+03 -0.32955828967E+03  0.36242070307E+03  0.00000000000E+00 0.  1.
         21    1    1    2  502  501 -0.11503792513E+02 -0.42889636921E+01 -0.15561241696E+02  0.19821319201E+02  0.00000000000E+00 0.  1.
<mgrwt>
<rscale>  1 0.30000000E+03</rscale>
<asrwt>0</asrwt>
<pdfrwt beam="1">  1        1 0.10366810E+00 0.30000000E+03</pdfrwt>
<pdfrwt beam="2">0</pdfrwt>
<totfact> 0.32461112E+01</totfact>
</mgrwt>
</event>
<event>
 6    1  0.1839160E-004  0.3000000E+03  0.7818608E-02  0.1093470E+00
          1   -1    0    0  502    0  0.00000000000E+00  0.00000000000E+00  0.41440566575E+02  0.41440566575E+02  0.00000000000E+00 0.  1.
         13   -1    0    0    0    0 -0.00000000000E+00 -0.00000000000E+00 -0.10000000000E+04  0.10000000000E+04  0.00000000000E+00 0.  1.
    9000005    2    1    2  501    0 -0.22714493353E+02  0.32325605080E+02 -0.95489693219E+03  0.10017630305E+04  0.30023345128E+03 0.  0.
         13    1    3    3    0    0  0.11791745093E+03 -0.51353761823E+02 -0.55439864759E+03  0.56912177479E+03  0.00000000000E+00 0.  1.
          3    1    3    3  501    0 -0.14063194428E+03  0.83679366904E+02 -0.40049828459E+03  0.43264125573E+03  0.00000000000E+00 0.  1.
         21    1    1    2  502  501  0.22714493353E+02 -0.32325605080E+02 -0.36625012381E+01  0.39677536055E+02  0.00000000000E+00 0.  1.
<mgrwt>
<rscale>  1 0.30000000E+03</rscale>
<asrwt>0</asrwt>
<pdfrwt beam="1">  1        1 0.15069329E+00 0.30000000E+03</pdfrwt>
<pdfrwt beam="2">0</pdfrwt>
<totfact> 0.17819859E+01</totfact>
</mgrwt>
</event>
<event>
 6    1  0.1839160E-004  0.3000000E+03  0.7818608E-02  0.1093470E+00
          1   -1    0    0  502    0  0.00000000000E+00  0.00000000000E+00  0.31981993569E+02  0.31981993569E+02  0.00000000000E+00 0.  1.
         13   -1    0    0    0    0 -0.00000000000E+00 -0.00000000000E+00 -0.10000000000E+04  0.10000000000E+04  0.00000000000E+00 0.  1.
    9000005    2    1    2  501    0 -0.13522850002E+02  0.57681737853E+01 -0.96465662008E+03  0.10169009386E+04  0.32141715099E+03 0.  0.
         13    1    3    3    0    0 -0.87202786865E+02  0.85641463121E+02 -0.14311564192E+03  0.18820433897E+03  0.00000000000E+00 0.  1.
          1    1    3    3  501    0  0.73679936863E+02 -0.79873289336E+02 -0.82154097815E+03  0.82869659963E+03  0.00000000000E+00 0.  1.
         21    1    1    2  502  501  0.13522850002E+02 -0.57681737853E+01 -0.33613863542E+01  0.15081054977E+02  0.00000000000E+00 0.  1.
<mgrwt>
<rscale>  1 0.30000000E+03</rscale>
<asrwt>0</asrwt>
<pdfrwt beam="1">  1        1 0.11629840E+00 0.30000000E+03</pdfrwt>
<pdfrwt beam="2">0</pdfrwt>
<totfact> 0.27290896E+01</totfact>
</mgrwt>
</event>
<event>
 6    1  0.1839160E-004  0.3000000E+03  0.7818608E-02  0.1093470E+00
          1   -1    0    0  502    0  0.00000000000E+00  0.00000000000E+00  0.39205379359E+02  0.39205379359E+02  0.00000000000E+00 0.  1.
         13   -1    0    0    0    0 -0.00000000000E+00 -0.00000000000E+00 -0.10000000000E+04  0.10000000000E+04  0.00000000000E+00 0.  1.
    9000005    2    1    2  501    0  0.71162059765E+01  0.93997699541E+01 -0.97097631050E+03  0.10236277393E+04  0.32385144273E+03 0.  0.
         13    1    3    3    0    0 -0.32825451487E+02 -0.14788779605E+03 -0.34189705079E+03  0.37395441410E+03  0.00000000000E+00 0.  1.
          3    1    3    3  501    0  0.39941657464E+02  0.15728756601E+03 -0.62907925971E+03  0.64967332515E+03  0.00000000000E+00 0.  1.
         21    1    1    2  502  501 -0.71162059765E+01 -0.93997699541E+01  0.10181689860E+02  0.15577640100E+02  0.00000000000E+00 0.  1.
<mgrwt>
<rscale>  1 0.30000000E+03</rscale>
<asrwt>0</asrwt>
<pdfrwt beam="1">  1        1 0.14256532E+00 0.30000000E+03</pdfrwt>
<pdfrwt beam="2">0</pdfrwt>
<totfact> 0.19617713E+01</totfact>
</mgrwt>
</event>
<event>
 6    1  0.1839160E-004  0.3000000E+03  0.7818608E-02  0.1093470E+00
          1   -1    0    0  502    0  0.00000000000E+00  0.00000000000E+00  0.12923136046E+02  0.12923136046E+02  0.00000000000E+00 0.  1.
         13   -1    0    0    0    0 -0.00000000000E+00 -0.00000000000E+00 -0.10000000000E+04  0.10000000000E+04  0.00000000000E+00 0.  1.
    9000005    2    1    2  501    0  0.28401155623E+02 -0.13521408471E+02 -0.86037295795E+03  0.88237301569E+03  0.19326421791E+03 0.  0.
         13    1    3    3    0    0 -0.82867974956E+02  0.93634069270E+00 -0.32836542117E+03  0.33866181927E+03  0.00000000000E+00 0.  1.
          3    1    3    3  501    0  0.11126913058E+03 -0.14457749164E+02 -0.53200753678E+03  0.54371119642E+03  0.00000000000E+00 0.  1.
         21    1    1    2  502  501 -0.28401155623E+02  0.13521408471E+02 -0.12670390600E+03  0.13055012035E+03  0.00000000000E+00 0.  1.
<mgrwt>
<rscale>  1 0.30000000E+03</rscale>
<asrwt>0</asrwt>
<pdfrwt beam="1">  1        1 0.46993321E-01 0.30000000E+03</pdfrwt>
<pdfrwt beam="2">0</pdfrwt>
<totfact> 0.95729708E+01</totfact>
</mgrwt>
</event>
<event>
 6    1  0.1839160E-004  0.3000000E+03  0.7818608E-02  0.1093470E+00
          1   -1    0    0  502    0  0.00000000000E+00  0.00000000000E+00  0.52847009830E+02  0.52847009830E+02  0.00000000000E+00 0.  1.
         13   -1    0    0    0    0 -0.00000000000E+00 -0.00000000000E+00 -0.10000000000E+04  0.10000000000E+04  0.00000000000E+00 0.  1.
    9000005    2    1    2  501    0 -0.63749828361E+00 -0.15041256391E+02 -0.97163070662E+03  0.10241101972E+04  0.32327823953E+03 0.  0.
         13    1    3    3    0    0  0.35132563964E+02 -0.11506473236E+03 -0.13527147958E+03  0.18103193881E+03  0.00000000000E+00 0.  1.
          1    1    3    3  501    0 -0.35770062247E+02  0.10002347597E+03 -0.83635922704E+03  0.84307825838E+03  0.00000000000E+00 0.  1.
         21    1    1    2  502  501  0.63749828361E+00  0.15041256391E+02  0.24477716449E+02  0.28736812635E+02  0.00000000000E+00 0. -1.
<mgrwt>
<rscale>  1 0.30000000E+03</rscale>
<asrwt>0</asrwt>
<pdfrwt beam="1">  1        1 0.19217135E+00 0.30000000E+03</pdfrwt>
<pdfrwt beam="2">0</pdfrwt>
<totfact> 0.11163132E+01</totfact>
</mgrwt>
</event>
<event>
 6    1  0.1839160E-004  0.3000000E+03  0.7818608E-02  0.1093470E+00
          1   -1    0    0  502    0  0.00000000000E+00  0.00000000000E+00  0.30076624621E+02  0.30076624621E+02  0.00000000000E+00 0.  1.
         13   -1    0    0    0    0 -0.00000000000E+00 -0.00000000000E+00 -0.10000000000E+04  0.10000000000E+04  0.00000000000E+00 0.  1.
    9000005    2    1    2  501    0 -0.14715809298E+02  0.56706516400E+00 -0.88518781904E+03  0.94407086252E+03  0.32786497507E+03 0.  0.
         13    1    3    3    0    0  0.14201264995E+03 -0.67024070062E+02 -0.39874383604E+03  0.42855159024E+03  0.00000000000E+00 0.  1.
          1    1    3    3  501    0 -0.15672845925E+03  0.67591135226E+02 -0.48644398299E+03  0.51551927228E+03  0.00000000000E+00 0.  1.
         21    1    1    2  502  501  0.14715809298E+02 -0.56706516400E+00 -0.84735556344E+02  0.86005762104E+02  0.00000000000E+00 0.  1.
<mgrwt>
<rscale>  1 0.30000000E+03</rscale>
<asrwt>0</asrwt>
<pdfrwt beam="1">  1        1 0.10936977E+00 0.30000000E+03</pdfrwt>
<pdfrwt beam="2">0</pdfrwt>
<totfact> 0.29968199E+01</totfact>
</mgrwt>
</event>
<event>
 6    1  0.1839160E-004  0.3000000E+03  0.7818608E-02  0.1093470E+00
          1   -1    0    0  502    0  0.00000000000E+00  0.00000000000E+00  0.10528224745E+03  0.10528224745E+03  0.00000000000E+00 0.  1.
         13   -1    0    0    0    0 -0.00000000000E+00 -0.00000000000E+00 -0.10000000000E+04  0.10000000000E+04  0.00000000000E+00 0.  1.
    9000005    2    1    2  501    0 -0.43358371184E+02  0.19425374028E+02 -0.97049796973E+03  0.10158398927E+04  0.29632260262E+03 0.  0.
         13    1    3    3    0    0  0.35000761254E+02  0.11719613400E+03 -0.19428548331E+03  0.22957969452E+03  0.00000000000E+00 0.  1.
          1    1    3    3  501    0 -0.78359132438E+02 -0.97770759974E+02 -0.77621248643E+03  0.78626019817E+03  0.00000000000E+00 0.  1.
         21    1    1    2  502  501  0.43358371184E+02 -0.19425374028E+02  0.75780217180E+02  0.89442354753E+02  0.00000000000E+00 0.  1.
<mgrwt>
<rscale>  1 0.30000000E+03</rscale>
<asrwt>0</asrwt>
<pdfrwt beam="1">  1        1 0.38284534E+00 0.30000000E+03</pdfrwt>
<pdfrwt beam="2">0</pdfrwt>
<totfact> 0.13141650E+00</totfact>
</mgrwt>
</event>
<event>
 6    1  0.1839160E-004  0.3000000E+03  0.7818608E-02  0.1093470E+00
          1   -1    0    0  502    0  0.00000000000E+00  0.00000000000E+00  0.44325436523E+02  0.44325436523E+02  0.00000000000E+00 0.  1.
         13   -1    0    0    0    0 -0.00000000000E+00 -0.00000000000E+00 -0.10000000000E+04  0.10000000000E+04  0.00000000000E+00 0.  1.
    9000005    2    1    2  501    0  0.87678191553E+01 -0.66054082605E+01 -0.97190223954E+03  0.10247335111E+04  0.32459867449E+03 0.  0.
         13    1    3    3    0    0  0.16044212702E+03  0.40881203808E+02 -0.51719230978E+03  0.54304772741E+03  0.00000000000E+00 0.  1.
          3    1    3    3  501    0 -0.15167430786E+03 -0.47486612069E+02 -0.45470992976E+03  0.48168578370E+03  0.00000000000E+00 0.  1.
         21    1    1    2  502  501 -0.87678191553E+01  0.66054082605E+01  0.16227676067E+02  0.19591925417E+02  0.00000000000E+00 0.  1.
<mgrwt>
<rscale>  1 0.30000000E+03</rscale>
<asrwt>0</asrwt>
<pdfrwt beam="1">  1        1 0.16118375E+00 0.30000000E+03</pdfrwt>
<pdfrwt beam="2">0</pdfrwt>
<totfact> 0.15788052E+01</totfact>
</mgrwt>
</event>
<event>
 6    1  0.1839160E-004  0.3000000E+03  0.7818608E-02  0.1093470E+00
          1   -1    0    0  502    0  0.00000000000E+00  0.00000000000E+00  0.34254244889E+02  0.34254244889E+02  0.00000000000E+00 0.  1.
         13   -1    0    0    0    0 -0.00000000000E+00 -0.00000000000E+00 -0.10000000000E+04  0.10000000000E+04  0.00000000000E+00 0.  1.
    9000005    2    1    2  501    0  0.80149715156E+01 -0.12450879104E+02 -0.96648237811E+03  0.10194283631E+04  0.32392396645E+03 0.  0.
         13    1    3    3    0    0 -0.15607759009E+03  0.14999181651E+02 -0.51081350050E+03  0.53433661850E+03  0.00000000000E+00 0.  1.
          1    1    3    3  501    0  0.16409256161E+03 -0.27450060755E+02 -0.45566887761E+03  0.48509174455E+03  0.00000000000E+00 0.  1.
         21    1    1    2  502  501 -0.80149715156E+01  0.12450879104E+02  0.73662299641E+00  0.14825881839E+02  0.00000000000E+00 0. -1.
<mgrwt>
<rscale>  1 0.30000000E+03</rscale>
<asrwt>0</asrwt>
<pdfrwt beam="1">  1        1 0.12456115E+00 0.30000000E+03</pdfrwt>
<pdfrwt beam="2">0</pdfrwt>
<totfact> 0.24510961E+01</totfact>
</mgrwt>
</event>
<event>
 6    1  0.1839160E-004  0.3000000E+03  0.7818608E-02  0.1093470E+00
          1   -1    0    0  502    0  0.00000000000E+00  0.00000000000E+00  0.31368576757E+02  0.31368576757E+02  0.00000000000E+00 0.  1.
         13   -1    0    0    0    0 -0.00000000000E+00 -0.00000000000E+00 -0.10000000000E+04  0.10000000000E+04  0.00000000000E+00 0.  1.
    9000005    2    1    2  501    0 -0.12345066756E+02  0.18572940749E+02 -0.94798305152E+03  0.10009759781E+04  0.32059895175E+03 0.  0.
         13    1    3    3    0    0  0.13107059142E+03  0.88533258703E+02 -0.54700478673E+03  0.56941362342E+03  0.00000000000E+00 0.  1.
          1    1    3    3  501    0 -0.14341565818E+03 -0.69960317954E+02 -0.40097826479E+03  0.43156235463E+03  0.00000000000E+00 0.  1.
         21    1    1    2  502  501  0.12345066756E+02 -0.18572940749E+02 -0.20648371719E+02  0.30392598703E+02  0.00000000000E+00 0.  1.
<mgrwt>
<rscale>  1 0.30000000E+03</rscale>
<asrwt>0</asrwt>
<pdfrwt beam="1">  1        1 0.11406779E+00 0.30000000E+03</pdfrwt>
<pdfrwt beam="2">0</pdfrwt>
<totfact> 0.28114510E+01</totfact>
</mgrwt>
</event>
<event>
 6    1  0.1839160E-004  0.3000000E+03  0.7818608E-02  0.1093470E+00
          1   -1    0    0  502    0  0.00000000000E+00  0.00000000000E+00  0.64969654693E+02  0.64969654693E+02  0.00000000000E+00 0.  1.
         13   -1    0    0    0    0 -0.00000000000E+00 -0.00000000000E+00 -0.10000000000E+04  0.10000000000E+04  0.00000000000E+00 0.  1.
    9000005    2    1    2  501    0 -0.57158631380E+00  0.59010129511E+02 -0.94816574830E+03  0.10045125550E+04  0.32641180240E+03 0.  0.
         13    1    3    3    0    0  0.51449899103E+02  0.11833190468E+03 -0.13217229781E+03  0.18471342153E+03  0.00000000000E+00 0.  1.
          3    1    3    3  501    0 -0.52021485417E+02 -0.59321775172E+02 -0.81599345048E+03  0.81979913344E+03  0.00000000000E+00 0.  1.
         21    1    1    2  502  501  0.57158631380E+00 -0.59010129511E+02  0.13135402988E+02  0.60457099727E+02  0.00000000000E+00 0.  1.
<mgrwt>
<rscale>  1 0.30000000E+03</rscale>
<asrwt>0</asrwt>
<pdfrwt beam="1">  1        1 0.23625379E+00 0.30000000E+03</pdfrwt>
<pdfrwt beam="2">0</pdfrwt>
<totfact> 0.69180291E+00</totfact>
</mgrwt>
</event>
<event>
 6    1  0.1839160E-004  0.3000000E+03  0.7818608E-02  0.1093470E+00
          1   -1    0    0  502    0  0.00000000000E+00  0.00000000000E+00  0.32571417645E+02  0.32571417645E+02  0.00000000000E+00 0.  1.
         13   -1    0    0    0    0 -0.00000000000E+00 -0.00000000000E+00 -0.10000000000E+04  0.10000000000E+04  0.00000000000E+00 0.  1.
    9000005    2    1    2  501    0 -0.78372252992E+01 -0.19956869968E+02 -0.97768324092E+03  0.10088047018E+04  0.24771497343E+03 0.  0.
         13    1    3    3    0    0  0.52074921111E+02  0.12165323000E+02 -0.35534572115E+02  0.64206684293E+02  0.00000000000E+00 0.  1.
          3    1    3    3  501    0 -0.59912146411E+02 -0.32122192968E+02 -0.94214866880E+03  0.94459801752E+03  0.00000000000E+00 0.  1.
         21    1    1    2  502  501  0.78372252992E+01  0.19956869968E+02  0.10254658565E+02  0.23766715835E+02  0.00000000000E+00 0.  1.
<mgrwt>
<rscale>  1 0.30000000E+03</rscale>
<asrwt>0</asrwt>
<pdfrwt beam="1">  1        1 0.11844177E+00 0.30000000E+03</pdfrwt>
<pdfrwt beam="2">0</pdfrwt>
<totfact> 0.26530689E+01</totfact>
</mgrwt>
</event>
<event>
 6    1  0.1839160E-004  0.3000000E+03  0.7818608E-02  0.1093470E+00
          1   -1    0    0  502    0  0.00000000000E+00  0.00000000000E+00  0.30098766235E+02  0.30098766235E+02  0.00000000000E+00 0.  1.
         13   -1    0    0    0    0 -0.00000000000E+00 -0.00000000000E+00 -0.10000000000E+04  0.10000000000E+04  0.00000000000E+00 0.  1.
    9000005    2    1    2  501    0 -0.17696882399E+02  0.11471054648E+02 -0.94279543565E+03  0.99575507638E+03  0.31971889827E+03 0.  0.
         13    1    3    3    0    0 -0.34423707725E+02 -0.15188746807E+03 -0.43224565462E+03  0.45944651544E+03  0.00000000000E+00 0.  1.
          3    1    3    3  501    0  0.16726825327E+02  0.16335852272E+03 -0.51054978103E+03  0.53630856095E+03  0.00000000000E+00 0.  1.
         21    1    1    2  502  501  0.17696882399E+02 -0.11471054648E+02 -0.27105798111E+02  0.34343689852E+02  0.00000000000E+00 0. -1.
<mgrwt>
<rscale>  1 0.30000000E+03</rscale>
<asrwt>0</asrwt>
<pdfrwt beam="1">  1        1 0.10945029E+00 0.30000000E+03</pdfrwt>
<pdfrwt beam="2">0</pdfrwt>
<totfact> 0.29934989E+01</totfact>
</mgrwt>
</event>
<event>
 6    1  0.1839160E-004  0.3000000E+03  0.7818608E-02  0.1093470E+00
          1   -1    0    0  502    0  0.00000000000E+00  0.00000000000E+00  0.36245568283E+02  0.36245568283E+02  0.00000000000E+00 0.  1.
         13   -1    0    0    0    0 -0.00000000000E+00 -0.00000000000E+00 -0.10000000000E+04  0.10000000000E+04  0.00000000000E+00 0.  1.
    9000005    2    1    2  501    0 -0.38312857048E+00  0.16376041376E+02 -0.96527871071E+03  0.10197942782E+04  0.32855602109E+03 0.  0.
         13    1    3    3    0    0 -0.75018985928E+01  0.12317930332E+03 -0.13603541216E+03  0.18367104457E+03  0.00000000000E+00 0.  1.
          1    1    3    3  501    0  0.71187700224E+01 -0.10680326195E+03 -0.82924329855E+03  0.83612323364E+03  0.00000000000E+00 0.  1.
         21    1    1    2  502  501  0.38312857048E+00 -0.16376041376E+02  0.15242789951E+01  0.16451290075E+02  0.00000000000E+00 0.  1.
<mgrwt>
<rscale>  1 0.30000000E+03</rscale>
<asrwt>0</asrwt>
<pdfrwt beam="1">  1        1 0.13180234E+00 0.30000000E+03</pdfrwt>
<pdfrwt beam="2">0</pdfrwt>
<totfact> 0.22370302E+01</totfact>
</mgrwt>
</event>
<event>
 6    1  0.1839160E-004  0.3000000E+03  0.7818608E-02  0.1093470E+00
          3   -1    0    0  502    0  0.00000000000E+00  0.00000000000E+00  0.30532706647E+02  0.30532706647E+02  0.00000000000E+00 0.  1.
         13   -1    0    0    0    0 -0.00000000000E+00 -0.00000000000E+00 -0.10000000000E+04  0.10000000000E+04  0.00000000000E+00 0.  1.
    9000005    2    1    2  501    0 -0.13501305446E+02 -0.16930722652E+02 -0.93017132761E+03  0.98566503965E+03  0.32534279930E+03 0.  0.
         13    1    3    3    0    0 -0.20024635462E+01  0.44314076232E+02 -0.92171169764E+03  0.92277852206E+03  0.00000000000E+00 0.  1.
          3    1    3    3  501    0 -0.11498841899E+02 -0.61244798884E+02 -0.84596299757E+01  0.62886517591E+02  0.00000000000E+00 0.  1.
         21    1    1    2  502  501  0.13501305446E+02  0.16930722652E+02 -0.39295965740E+02  0.44867666996E+02  0.00000000000E+00 0.  1.
<mgrwt>
<rscale>  1 0.30000000E+03</rscale>
<asrwt>0</asrwt>
<pdfrwt beam="1">  1        3 0.11102826E+00 0.30000000E+03</pdfrwt>
<pdfrwt beam="2">0</pdfrwt>
<totfact> 0.29333532E+00</totfact>
</mgrwt>
</event>
<event>
 6    1  0.1839160E-004  0.3000000E+03  0.7818608E-02  0.1093470E+00
          1   -1    0    0  502    0  0.00000000000E+00  0.00000000000E+00  0.91412589003E+02  0.91412589003E+02  0.00000000000E+00 0.  1.
         13   -1    0    0    0    0 -0.00000000000E+00 -0.00000000000E+00 -0.10000000000E+04  0.10000000000E+04  0.00000000000E+00 0.  1.
    9000005    2    1    2  501    0 -0.13914379644E+03 -0.15899586720E+03 -0.58741062298E+03  0.70697116169E+03  0.33183776397E+03 0.  0.
         13    1    3    3    0    0 -0.11217645420E+03 -0.23446558156E+03 -0.56780038907E+03  0.62446372804E+03  0.00000000000E+00 0.  1.
          3    1    3    3  501    0 -0.26967342241E+02  0.75469714361E+02 -0.19610233913E+02  0.82507433649E+02  0.00000000000E+00 0.  1.
         21    1    1    2  502  501  0.13914379644E+03  0.15899586720E+03 -0.32117678801E+03  0.38444142731E+03  0.00000000000E+00 0.  1.
<mgrwt>
<rscale>  1 0.30000000E+03</rscale>
<asrwt>0</asrwt>
<pdfrwt beam="1">  1        1 0.33241012E+00 0.30000000E+03</pdfrwt>
<pdfrwt beam="2">0</pdfrwt>
<totfact> 0.24184567E+00</totfact>
</mgrwt>
</event>
<event>
 6    1  0.1839160E-004  0.3000000E+03  0.7818608E-02  0.1093470E+00
          3   -1    0    0  502    0  0.00000000000E+00  0.00000000000E+00  0.32498040332E+02  0.32498040332E+02  0.00000000000E+00 0.  1.
         13   -1    0    0    0    0 -0.00000000000E+00 -0.00000000000E+00 -0.10000000000E+04  0.10000000000E+04  0.00000000000E+00 0.  1.
    9000005    2    1    2  501    0  0.12827094982E+02  0.13691080064E+01 -0.96703644943E+03  0.10195896895E+04  0.32285791225E+03 0.  0.
         13    1    3    3    0    0 -0.78416547293E+02 -0.55056983641E+02 -0.76481855091E+02  0.12259649463E+03  0.00000000000E+00 0.  1.
          3    1    3    3  501    0  0.91243642274E+02  0.56426091648E+02 -0.89055459434E+03  0.89699319483E+03  0.00000000000E+00 0.  1.
         21    1    1    2  502  501 -0.12827094982E+02 -0.13691080064E+01 -0.46551023398E+00  0.12908350870E+02  0.00000000000E+00 0.  1.
<mgrwt>
<rscale>  1 0.30000000E+03</rscale>
<asrwt>0</asrwt>
<pdfrwt beam="1">  1        3 0.11817494E+00 0.30000000E+03</pdfrwt>
<pdfrwt beam="2">0</pdfrwt>
<totfact> 0.24283152E+00</totfact>
</mgrwt>
</event>
<event>
 6    1  0.1839160E-004  0.3000000E+03  0.7818608E-02  0.1093470E+00
          3   -1    0    0  502    0  0.00000000000E+00  0.00000000000E+00  0.30702189872E+02  0.30702189872E+02  0.00000000000E+00 0.  1.
         13   -1    0    0    0    0 -0.00000000000E+00 -0.00000000000E+00 -0.10000000000E+04  0.10000000000E+04  0.00000000000E+00 0.  1.
    9000005    2    1    2  501    0 -0.14601677190E+02 -0.24383645208E+01 -0.95110934958E+03  0.10072506506E+04  0.33124873377E+03 0.  0.
         13    1    3    3    0    0  0.14959603140E+03  0.93957356031E+01 -0.29618448088E+03  0.33195255561E+03  0.00000000000E+00 0.  1.
          1    1    3    3  501    0 -0.16419770859E+03 -0.11834100124E+02 -0.65492486870E+03  0.67529809497E+03  0.00000000000E+00 0.  1.
         21    1    1    2  502  501  0.14601677190E+02  0.24383645208E+01 -0.18188460545E+02  0.23451539295E+02  0.00000000000E+00 0. -1.
<mgrwt>
<rscale>  1 0.30000000E+03</rscale>
<asrwt>0</asrwt>
<pdfrwt beam="1">  1        3 0.11164456E+00 0.30000000E+03</pdfrwt>
<pdfrwt beam="2">0</pdfrwt>
<totfact> 0.28862469E+00</totfact>
</mgrwt>
</event>
<event>
 6    1  0.1839160E-004  0.3000000E+03  0.7818608E-02  0.1093470E+00
          1   -1    0    0  502    0  0.00000000000E+00  0.00000000000E+00  0.29900570086E+02  0.29900570086E+02  0.00000000000E+00 0.  1.
         13   -1    0    0    0    0 -0.00000000000E+00 -0.00000000000E+00 -0.10000000000E+04  0.10000000000E+04  0.00000000000E+00 0.  1.
    9000005    2    1    2  501    0  0.14584019896E+02  0.33333938703E+01 -0.95408250162E+03  0.10079837468E+04  0.32485998332E+03 0.  0.
         13    1    3    3    0    0 -0.13174525509E+03 -0.10398953840E+02 -0.20004304760E+03  0.23975439803E+03  0.00000000000E+00 0.  1.
          1    1    3    3  501    0  0.14632927499E+03  0.13732347710E+02 -0.75403945402E+03  0.76822934877E+03  0.00000000000E+00 0.  1.
         21    1    1    2  502  501 -0.14584019896E+02 -0.33333938703E+01 -0.16016928295E+02  0.21916823288E+02  0.00000000000E+00 0.  1.
<mgrwt>
<rscale>  1 0.30000000E+03</rscale>
<asrwt>0</asrwt>
<pdfrwt beam="1">  1        1 0.10872958E+00 0.30000000E+03</pdfrwt>
<pdfrwt beam="2">0</pdfrwt>
<totfact> 0.30234140E+01</totfact>
</mgrwt>
</event>
<event>
 6    1  0.1839160E-004  0.3000000E+03  0.7818608E-02  0.1093470E+00
          1   -1    0    0  502    0  0.00000000000E+00  0.00000000000E+00  0.18080821827E+02  0.18080821827E+02  0.00000000000E+00 0.  1.
         13   -1    0    0    0    0 -0.00000000000E+00 -0.00000000000E+00 -0.10000000000E+04  0.10000000000E+04  0.00000000000E+00 0.  1.
    9000005    2    1    2  501    0  0.87778863803E+01  0.13338280793E+02 -0.96473999877E+03  0.99462692601E+03  0.24146323882E+03 0.  0.
         13    1    3    3    0    0  0.87760995671E+02  0.81929169997E+02 -0.69535552173E+03  0.70564416164E+03  0.00000000000E+00 0.  1.
          3    1    3    3  501    0 -0.78983109291E+02 -0.68590889204E+02 -0.26938447704E+03  0.28898276437E+03  0.00000000000E+00 0.  1.
         21    1    1    2  502  501 -0.87778863803E+01 -0.13338280793E+02 -0.17179179407E+02  0.23453895816E+02  0.00000000000E+00 0.  1.
<mgrwt>
<rscale>  1 0.30000000E+03</rscale>
<asrwt>0</asrwt>
<pdfrwt beam="1">  1        1 0.65748582E-01 0.30000000E+03</pdfrwt>
<pdfrwt beam="2">0</pdfrwt>
<totfact> 0.61364106E+01</totfact>
</mgrwt>
</event>
<event>
 6    1  0.1839160E-004  0.3000000E+03  0.7818608E-02  0.1093470E+00
          1   -1    0    0  502    0  0.00000000000E+00  0.00000000000E+00  0.32237667456E+02  0.32237667456E+02  0.00000000000E+00 0.  1.
         13   -1    0    0    0    0 -0.00000000000E+00 -0.00000000000E+00 -0.10000000000E+04  0.10000000000E+04  0.00000000000E+00 0.  1.
    9000005    2    1    2  501    0 -0.10403193826E+01 -0.95562767456E+01 -0.96131425085E+03  0.10206625887E+04  0.34283323421E+03 0.  0.
         13    1    3    3    0    0 -0.87016970883E+02  0.10056849990E+03 -0.16373294046E+03  0.21093708110E+03  0.00000000000E+00 0.  1.
          1    1    3    3  501    0  0.85976651500E+02 -0.11012477664E+03 -0.79758131039E+03  0.80972550764E+03  0.00000000000E+00 0.  1.
         21    1    1    2  502  501  0.10403193826E+01  0.95562767456E+01 -0.64480816932E+01  0.11575078712E+02  0.00000000000E+00 0.  1.
<mgrwt>
<rscale>  1 0.30000000E+03</rscale>
<asrwt>0</asrwt>
<pdfrwt beam="1">  1        1 0.11722813E+00 0.30000000E+03</pdfrwt>
<pdfrwt beam="2">0</pdfrwt>
<totfact> 0.26957515E+01</totfact>
</mgrwt>
</event>
<event>
 6    1  0.1839160E-004  0.3000000E+03  0.7818608E-02  0.1093470E+00
          1   -1    0    0  502    0  0.00000000000E+00  0.00000000000E+00  0.44908018582E+02  0.44908018582E+02  0.00000000000E+00 0.  1.
         13   -1    0    0    0    0 -0.00000000000E+00 -0.00000000000E+00 -0.10000000000E+04  0.10000000000E+04  0.00000000000E+00 0.  1.
    9000005    2    1    2  501    0 -0.36950595025E+02 -0.23229701602E+02 -0.94288211428E+03  0.99958643030E+03  0.32900058465E+03 0.  0.
         13    1    3    3    0    0 -0.18272733115E+03 -0.32751819762E+02 -0.51236982934E+03  0.54496311918E+03  0.00000000000E+00 0.  1.
          1    1    3    3  501    0  0.14577673613E+03  0.95221181601E+01 -0.43051228493E+03  0.45462331112E+03  0.00000000000E+00 0.  1.
         21    1    1    2  502  501  0.36950595025E+02  0.23229701602E+02 -0.12209867142E+02  0.45321588287E+02  0.00000000000E+00 0. -1.
<mgrwt>
<rscale>  1 0.30000000E+03</rscale>
<asrwt>0</asrwt>
<pdfrwt beam="1">  1        1 0.16330223E+00 0.30000000E+03</pdfrwt>
<pdfrwt beam="2">0</pdfrwt>
<totfact> 0.15411575E+01</totfact>
</mgrwt>
</event>
<event>
 6    1  0.1839160E-004  0.3000000E+03  0.7818608E-02  0.1093470E+00
          1   -1    0    0  502    0  0.00000000000E+00  0.00000000000E+00  0.28625429090E+02  0.28625429090E+02  0.00000000000E+00 0.  1.
         13   -1    0    0    0    0 -0.00000000000E+00 -0.00000000000E+00 -0.10000000000E+04  0.10000000000E+04  0.00000000000E+00 0.  1.
    9000005    2    1    2  501    0  0.55883723697E+01 -0.10497693793E+02 -0.93919327174E+03  0.99431701180E+03  0.32625279584E+03 0.  0.
         13    1    3    3    0    0 -0.41104544653E+02 -0.14264683533E+03 -0.24782698293E+03  0.28888737717E+03  0.00000000000E+00 0.  1.
          1    1    3    3  501    0  0.46692917023E+02  0.13214914154E+03 -0.69136628880E+03  0.70542963462E+03  0.00000000000E+00 0.  1.
         21    1    1    2  502  501 -0.55883723697E+01  0.10497693793E+02 -0.32181299173E+02  0.34308417293E+02  0.00000000000E+00 0.  1.
<mgrwt>
<rscale>  1 0.30000000E+03</rscale>
<asrwt>0</asrwt>
<pdfrwt beam="1">  1        1 0.10409269E+00 0.30000000E+03</pdfrwt>
<pdfrwt beam="2">0</pdfrwt>
<totfact> 0.32265350E+01</totfact>
</mgrwt>
</event>
<event>
 6    1  0.1839160E-004  0.3000000E+03  0.7818608E-02  0.1093470E+00
          1   -1    0    0  502    0  0.00000000000E+00  0.00000000000E+00  0.29284542606E+02  0.29284542606E+02  0.00000000000E+00 0.  1.
         13   -1    0    0    0    0 -0.00000000000E+00 -0.00000000000E+00 -0.10000000000E+04  0.10000000000E+04  0.00000000000E+00 0.  1.
    9000005    2    1    2  501    0  0.99887882497E+01 -0.51234887010E+01 -0.95834454780E+03  0.10125792910E+04  0.32675146860E+03 0.  0.
         13    1    3    3    0    0 -0.57593498483E+02 -0.85558530136E+02 -0.87018497175E+02  0.13494255073E+03  0.00000000000E+00 0.  1.
          1    1    3    3  501    0  0.67582286732E+02  0.80435041435E+02 -0.87132605063E+03  0.87763674027E+03  0.00000000000E+00 0.  1.
         21    1    1    2  502  501 -0.99887882497E+01  0.51234887010E+01 -0.12370909594E+02  0.16705251610E+02  0.00000000000E+00 0. -1.
<mgrwt>
<rscale>  1 0.30000000E+03</rscale>
<asrwt>0</asrwt>
<pdfrwt beam="1">  1        1 0.10648947E+00 0.30000000E+03</pdfrwt>
<pdfrwt beam="2">0</pdfrwt>
<totfact> 0.31191716E+01</totfact>
</mgrwt>
</event>
<event>
 6    1  0.1839160E-004  0.3000000E+03  0.7818608E-02  0.1093470E+00
          1   -1    0    0  502    0  0.00000000000E+00  0.00000000000E+00  0.42679416439E+02  0.42679416439E+02  0.00000000000E+00 0.  1.
         13   -1    0    0    0    0 -0.00000000000E+00 -0.00000000000E+00 -0.10000000000E+04  0.10000000000E+04  0.00000000000E+00 0.  1.
    9000005    2    1    2  501    0  0.23676845251E+02 -0.52687682847E+02 -0.91179625747E+03  0.96913317798E+03  0.32328024469E+03 0.  0.
         13    1    3    3    0    0 -0.49298454066E+02  0.11236070459E+03 -0.19848696040E+03  0.23335024954E+03  0.00000000000E+00 0.  1.
          1    1    3    3  501    0  0.72975299317E+02 -0.16504838744E+03 -0.71330929707E+03  0.73578292844E+03  0.00000000000E+00 0.  1.
         21    1    1    2  502  501 -0.23676845251E+02  0.52687682847E+02 -0.45524326092E+02  0.73546238456E+02  0.00000000000E+00 0.  1.
<mgrwt>
<rscale>  1 0.30000000E+03</rscale>
<asrwt>0</asrwt>
<pdfrwt beam="1">  1        1 0.15519821E+00 0.30000000E+03</pdfrwt>
<pdfrwt beam="2">0</pdfrwt>
<totfact> 0.16911161E+01</totfact>
</mgrwt>
</event>
<event>
 6    1  0.1839160E-004  0.3000000E+03  0.7818608E-02  0.1093470E+00
          1   -1    0    0  502    0  0.00000000000E+00  0.00000000000E+00  0.55908648618E+02  0.55908648618E+02  0.00000000000E+00 0.  1.
         13   -1    0    0    0    0 -0.00000000000E+00 -0.00000000000E+00 -0.10000000000E+04  0.10000000000E+04  0.00000000000E+00 0.  1.
    9000005    2    1    2  501    0 -0.83974398487E+01 -0.30227441286E+02 -0.96483502090E+03  0.10182986097E+04  0.32410064137E+03 0.  0.
         13    1    3    3    0    0  0.14390813515E+03 -0.44574399773E+02 -0.29530540200E+03  0.33151426656E+03  0.00000000000E+00 0.  1.
          1    1    3    3  501    0 -0.15230557500E+03  0.14346958487E+02 -0.66952961890E+03  0.68678434314E+03  0.00000000000E+00 0.  1.
         21    1    1    2  502  501  0.83974398487E+01  0.30227441286E+02  0.20743669522E+02  0.37610038925E+02  0.00000000000E+00 0.  1.
<mgrwt>
<rscale>  1 0.30000000E+03</rscale>
<asrwt>0</asrwt>
<pdfrwt beam="1">  1        1 0.20330461E+00 0.30000000E+03</pdfrwt>
<pdfrwt beam="2">0</pdfrwt>
<totfact> 0.98798930E+00</totfact>
</mgrwt>
</event>
<event>
 6    1  0.1839160E-004  0.3000000E+03  0.7818608E-02  0.1093470E+00
          1   -1    0    0  502    0  0.00000000000E+00  0.00000000000E+00  0.40137699485E+02  0.40137699485E+02  0.00000000000E+00 0.  1.
         13   -1    0    0    0    0 -0.00000000000E+00 -0.00000000000E+00 -0.10000000000E+04  0.10000000000E+04  0.00000000000E+00 0.  1.
    9000005    2    1    2  501    0  0.24423616285E+02 -0.12634002043E+02 -0.95403718789E+03  0.10120296405E+04  0.33654257745E+03 0.  0.
         13    1    3    3    0    0  0.41282745743E+02  0.14521998713E+03 -0.66842712933E+03  0.68526486630E+03  0.00000000000E+00 0.  1.
          3    1    3    3  501    0 -0.16859129458E+02 -0.15785398917E+03 -0.28561005856E+03  0.32676477425E+03  0.00000000000E+00 0.  1.
         21    1    1    2  502  501 -0.24423616285E+02  0.12634002043E+02 -0.58251126271E+01  0.28108058937E+02  0.00000000000E+00 0. -1.
<mgrwt>
<rscale>  1 0.30000000E+03</rscale>
<asrwt>0</asrwt>
<pdfrwt beam="1">  1        1 0.14595558E+00 0.30000000E+03</pdfrwt>
<pdfrwt beam="2">0</pdfrwt>
<totfact> 0.18841351E+01</totfact>
</mgrwt>
</event>
<event>
 6    1  0.1839160E-004  0.3000000E+03  0.7818608E-02  0.1093470E+00
          1   -1    0    0  502    0  0.00000000000E+00  0.00000000000E+00  0.39661821866E+02  0.39661821866E+02  0.00000000000E+00 0.  1.
         13   -1    0    0    0    0 -0.00000000000E+00 -0.00000000000E+00 -0.10000000000E+04  0.10000000000E+04  0.00000000000E+00 0.  1.
    9000005    2    1    2  501    0 -0.30405732127E+02 -0.41016547794E+02 -0.88573649923E+03  0.94926117898E+03  0.33758076679E+03 0.  0.
         13    1    3    3    0    0  0.74850598522E+02  0.11089716451E+03 -0.21244689471E+03  0.25106667694E+03  0.00000000000E+00 0.  1.
          1    1    3    3  501    0 -0.10525633065E+03 -0.15191371230E+03 -0.67328960452E+03  0.69819450204E+03  0.00000000000E+00 0.  1.
         21    1    1    2  502  501  0.30405732127E+02  0.41016547794E+02 -0.74601678902E+02  0.90400642886E+02  0.00000000000E+00 0. -1.
<mgrwt>
<rscale>  1 0.30000000E+03</rscale>
<asrwt>0</asrwt>
<pdfrwt beam="1">  1        1 0.14422511E+00 0.30000000E+03</pdfrwt>
<pdfrwt beam="2">0</pdfrwt>
<totfact> 0.19232682E+01</totfact>
</mgrwt>
</event>
<event>
 6    1  0.1839160E-004  0.3000000E+03  0.7818608E-02  0.1093470E+00
          1   -1    0    0  502    0  0.00000000000E+00  0.00000000000E+00  0.31018611049E+02  0.31018611049E+02  0.00000000000E+00 0.  1.
         13   -1    0    0    0    0 -0.00000000000E+00 -0.00000000000E+00 -0.10000000000E+04  0.10000000000E+04  0.00000000000E+00 0.  1.
    9000005    2    1    2  501    0 -0.32040993996E+01 -0.20034600821E+02 -0.92065783591E+03  0.97860852364E+03  0.33113764547E+03 0.  0.
         13    1    3    3    0    0 -0.48632299225E+02 -0.74258794783E+02 -0.90076170153E+03  0.90512491518E+03  0.00000000000E+00 0.  1.
          3    1    3    3  501    0  0.45428199825E+02  0.54224193962E+02 -0.19896134378E+02  0.73483608467E+02  0.00000000000E+00 0.  1.
         21    1    1    2  502  501  0.32040993996E+01  0.20034600821E+02 -0.48323553043E+02  0.52410087405E+02  0.00000000000E+00 0.  1.
<mgrwt>
<rscale>  1 0.30000000E+03</rscale>
<asrwt>0</asrwt>
<pdfrwt beam="1">  1        1 0.11279519E+00 0.30000000E+03</pdfrwt>
<pdfrwt beam="2">0</pdfrwt>
<totfact> 0.28600175E+01</totfact>
</mgrwt>
</event>
<event>
 6    1  0.1839160E-004  0.3000000E+03  0.7818608E-02  0.1093470E+00
          1   -1    0    0  502    0  0.00000000000E+00  0.00000000000E+00  0.48506873780E+02  0.48506873780E+02  0.00000000000E+00 0.  1.
         13   -1    0    0    0    0 -0.00000000000E+00 -0.00000000000E+00 -0.10000000000E+04  0.10000000000E+04  0.00000000000E+00 0.  1.
    9000005    2    1    2  501    0  0.15561682767E+02 -0.23028096717E+02 -0.96559573100E+03  0.10173405030E+04  0.31911459387E+03 0.  0.
         13    1    3    3    0    0  0.44858088484E+02  0.37658417362E+02 -0.10054975883E+02  0.59426484337E+02  0.00000000000E+00 0.  1.
          3    1    3    3  501    0 -0.29296405717E+02 -0.60686514080E+02 -0.95554075511E+03  0.95791401862E+03  0.00000000000E+00 0.  1.
         21    1    1    2  502  501 -0.15561682767E+02  0.23028096717E+02  0.14102604778E+02  0.31166370826E+02  0.00000000000E+00 0.  1.
<mgrwt>
<rscale>  1 0.30000000E+03</rscale>
<asrwt>0</asrwt>
<pdfrwt beam="1">  1        1 0.17638900E+00 0.30000000E+03</pdfrwt>
<pdfrwt beam="2">0</pdfrwt>
<totfact> 0.13299635E+01</totfact>
</mgrwt>
</event>
<event>
 6    1  0.1839160E-004  0.3000000E+03  0.7818608E-02  0.1093470E+00
          1   -1    0    0  502    0  0.00000000000E+00  0.00000000000E+00  0.49218616062E+02  0.49218616062E+02  0.00000000000E+00 0.  1.
         13   -1    0    0    0    0 -0.00000000000E+00 -0.00000000000E+00 -0.10000000000E+04  0.10000000000E+04  0.00000000000E+00 0.  1.
    9000005    2    1    2  501    0 -0.99215740782E+02  0.65929000391E+01 -0.67876476525E+03  0.75959770799E+03  0.32615922782E+03 0.  0.
         13    1    3    3    0    0 -0.89638897008E+02 -0.14717240533E+03 -0.46654586693E+03  0.49735288749E+03  0.00000000000E+00 0.  1.
          1    1    3    3  501    0 -0.95768437737E+01  0.15376530537E+03 -0.21221889832E+03  0.26224482050E+03  0.00000000000E+00 0.  1.
         21    1    1    2  502  501  0.99215740782E+02 -0.65929000391E+01 -0.27201661869E+03  0.28962090807E+03  0.00000000000E+00 0.  1.
<mgrwt>
<rscale>  1 0.30000000E+03</rscale>
<asrwt>0</asrwt>
<pdfrwt beam="1">  1        1 0.17897716E+00 0.30000000E+03</pdfrwt>
<pdfrwt beam="2">0</pdfrwt>
<totfact> 0.12920882E+01</totfact>
</mgrwt>
</event>
<event>
 6    1  0.1839160E-004  0.3000000E+03  0.7818608E-02  0.1093470E+00
          1   -1    0    0  502    0  0.00000000000E+00  0.00000000000E+00  0.36640511258E+02  0.36640511258E+02  0.00000000000E+00 0.  1.
         13   -1    0    0    0    0 -0.00000000000E+00 -0.00000000000E+00 -0.10000000000E+04  0.10000000000E+04  0.00000000000E+00 0.  1.
    9000005    2    1    2  501    0 -0.96442128507E+01  0.27861919876E+01 -0.97003938151E+03  0.10245825398E+04  0.32968500962E+03 0.  0.
         13    1    3    3    0    0 -0.15672227095E+03 -0.54383746009E+02 -0.39826452598E+03  0.43143260736E+03  0.00000000000E+00 0.  1.
          1    1    3    3  501    0  0.14707805810E+03  0.57169937997E+02 -0.57177485553E+03  0.59314993248E+03  0.00000000000E+00 0.  1.
         21    1    1    2  502  501  0.96442128507E+01 -0.27861919876E+01  0.66798927662E+01  0.12057971416E+02  0.00000000000E+00 0. -1.
<mgrwt>
<rscale>  1 0.30000000E+03</rscale>
<asrwt>0</asrwt>
<pdfrwt beam="1">  1        1 0.13323850E+00 0.30000000E+03</pdfrwt>
<pdfrwt beam="2">0</pdfrwt>
<totfact> 0.21974934E+01</totfact>
</mgrwt>
</event>
<event>
 6    1  0.1839160E-004  0.3000000E+03  0.7818608E-02  0.1093470E+00
          1   -1    0    0  502    0  0.00000000000E+00  0.00000000000E+00  0.29906623811E+02  0.29906623811E+02  0.00000000000E+00 0.  1.
         13   -1    0    0    0    0 -0.00000000000E+00 -0.00000000000E+00 -0.10000000000E+04  0.10000000000E+04  0.00000000000E+00 0.  1.
    9000005    2    1    2  501    0 -0.67799045413E+01  0.12204594438E+02 -0.95107325318E+03  0.10063124654E+04  0.32852629409E+03 0.  0.
         13    1    3    3    0    0  0.48932115706E+02 -0.35328561896E+02 -0.92737894293E+03  0.92934071417E+03  0.00000000000E+00 0.  1.
          3    1    3    3  501    0 -0.55712020247E+02  0.47533156334E+02 -0.23694310247E+02  0.76971751241E+02  0.00000000000E+00 0.  1.
         21    1    1    2  502  501  0.67799045413E+01 -0.12204594438E+02 -0.19020123014E+02  0.23594158397E+02  0.00000000000E+00 0. -1.
<mgrwt>
<rscale>  1 0.30000000E+03</rscale>
<asrwt>0</asrwt>
<pdfrwt beam="1">  1        1 0.10875159E+00 0.30000000E+03</pdfrwt>
<pdfrwt beam="2">0</pdfrwt>
<totfact> 0.30224940E+01</totfact>
</mgrwt>
</event>
<event>
 6    1  0.1839160E-004  0.3000000E+03  0.7818608E-02  0.1093470E+00
          1   -1    0    0  502    0  0.00000000000E+00  0.00000000000E+00  0.28468024798E+02  0.28468024798E+02  0.00000000000E+00 0.  1.
         13   -1    0    0    0    0 -0.00000000000E+00 -0.00000000000E+00 -0.10000000000E+04  0.10000000000E+04  0.00000000000E+00 0.  1.
    9000005    2    1    2  501    0 -0.68648991410E+01 -0.88157214305E+01 -0.94544760808E+03  0.10000913091E+04  0.32586285945E+03 0.  0.
         13    1    3    3    0    0  0.13850534531E+03 -0.74967051213E+02 -0.35389003513E+03  0.38735248342E+03  0.00000000000E+00 0.  1.
          1    1    3    3  501    0 -0.14537024445E+03  0.66151329783E+02 -0.59155757295E+03  0.61273882570E+03  0.00000000000E+00 0.  1.
         21    1    1    2  502  501  0.68648991410E+01  0.88157214305E+01 -0.26084367125E+02  0.28376715681E+02  0.00000000000E+00 0. -1.
<mgrwt>
<rscale>  1 0.30000000E+03</rscale>
<asrwt>0</asrwt>
<pdfrwt beam="1">  1        1 0.10352031E+00 0.30000000E+03</pdfrwt>
<pdfrwt beam="2">0</pdfrwt>
<totfact> 0.32529657E+01</totfact>
</mgrwt>
</event>
<event>
 6    1  0.1839160E-004  0.3000000E+03  0.7818608E-02  0.1093470E+00
          3   -1    0    0  502    0  0.00000000000E+00  0.00000000000E+00  0.38129956867E+02  0.38129956867E+02  0.00000000000E+00 0.  1.
         13   -1    0    0    0    0 -0.00000000000E+00 -0.00000000000E+00 -0.10000000000E+04  0.10000000000E+04  0.00000000000E+00 0.  1.
    9000005    2    1    2  501    0  0.68755607857E+00  0.20673144793E+02 -0.96596856197E+03  0.10170432429E+04  0.31757494168E+03 0.  0.
         13    1    3    3    0    0  0.28824896817E+02 -0.11116467991E+03 -0.14445189600E+03  0.18453945647E+03  0.00000000000E+00 0.  1.
          1    1    3    3  501    0 -0.28137340739E+02  0.13183782470E+03 -0.82151666597E+03  0.83250378644E+03  0.00000000000E+00 0.  1.
         21    1    1    2  502  501 -0.68755607857E+00 -0.20673144793E+02  0.40985188358E+01  0.21086713960E+02  0.00000000000E+00 0. -1.
<mgrwt>
<rscale>  1 0.30000000E+03</rscale>
<asrwt>0</asrwt>
<pdfrwt beam="1">  1        3 0.13865468E+00 0.30000000E+03</pdfrwt>
<pdfrwt beam="2">0</pdfrwt>
<totfact> 0.13922045E+00</totfact>
</mgrwt>
</event>
<event>
 6    1  0.1839160E-004  0.3000000E+03  0.7818608E-02  0.1093470E+00
          1   -1    0    0  502    0  0.00000000000E+00  0.00000000000E+00  0.49564725537E+02  0.49564725537E+02  0.00000000000E+00 0.  1.
         13   -1    0    0    0    0 -0.00000000000E+00 -0.00000000000E+00 -0.10000000000E+04  0.10000000000E+04  0.00000000000E+00 0.  1.
    9000005    2    1    2  501    0  0.71508864341E+02  0.60124599037E+01 -0.89938741430E+03  0.96149911715E+03  0.33231485661E+03 0.  0.
         13    1    3    3    0    0 -0.13102777283E+03 -0.29182832178E+02 -0.34075977982E+03  0.36624737882E+03  0.00000000000E+00 0.  1.
          3    1    3    3  501    0  0.20253663717E+03  0.35195292082E+02 -0.55862763448E+03  0.59525173833E+03  0.00000000000E+00 0.  1.
         21    1    1    2  502  501 -0.71508864341E+02 -0.60124599037E+01 -0.51047860162E+02  0.88065608387E+02  0.00000000000E+00 0. -1.
<mgrwt>
<rscale>  1 0.30000000E+03</rscale>
<asrwt>0</asrwt>
<pdfrwt beam="1">  1        1 0.18023575E+00 0.30000000E+03</pdfrwt>
<pdfrwt beam="2">0</pdfrwt>
<totfact> 0.12740958E+01</totfact>
</mgrwt>
</event>
<event>
 6    1  0.1839160E-004  0.3000000E+03  0.7818608E-02  0.1093470E+00
          1   -1    0    0  502    0  0.00000000000E+00  0.00000000000E+00  0.38025396206E+02  0.38025396206E+02  0.00000000000E+00 0.  1.
         13   -1    0    0    0    0 -0.00000000000E+00 -0.00000000000E+00 -0.10000000000E+04  0.10000000000E+04  0.00000000000E+00 0.  1.
    9000005    2    1    2  501    0 -0.11838779374E+02 -0.16241201204E+02 -0.96509362971E+03  0.10176867228E+04  0.32229895799E+03 0.  0.
         13    1    3    3    0    0 -0.22285166110E+02 -0.10613899376E+03 -0.98895402544E+02  0.14677334659E+03  0.00000000000E+00 0.  1.
          3    1    3    3  501    0  0.10446386737E+02  0.89897792552E+02 -0.86619822717E+03  0.87091337620E+03  0.00000000000E+00 0.  1.
         21    1    1    2  502  501  0.11838779374E+02  0.16241201204E+02  0.31190259187E+01  0.20338673415E+02  0.00000000000E+00 0.  1.
<mgrwt>
<rscale>  1 0.30000000E+03</rscale>
<asrwt>0</asrwt>
<pdfrwt beam="1">  1        1 0.13827446E+00 0.30000000E+03</pdfrwt>
<pdfrwt beam="2">0</pdfrwt>
<totfact> 0.20659417E+01</totfact>
</mgrwt>
</event>
<event>
 6    1  0.1839160E-004  0.3000000E+03  0.7818608E-02  0.1093470E+00
          1   -1    0    0  502    0  0.00000000000E+00  0.00000000000E+00  0.35785502324E+02  0.35785502324E+02  0.00000000000E+00 0.  1.
         13   -1    0    0    0    0 -0.00000000000E+00 -0.00000000000E+00 -0.10000000000E+04  0.10000000000E+04  0.00000000000E+00 0.  1.
    9000005    2    1    2  501    0 -0.82883735855E+01 -0.58501818513E+01 -0.97117991012E+03  0.10234794577E+04  0.32282636305E+03 0.  0.
         13    1    3    3    0    0  0.53729497190E+01 -0.14071101882E+03 -0.75717328673E+03  0.77015572811E+03  0.00000000000E+00 0.  1.
          1    1    3    3  501    0 -0.13661323305E+02  0.13486083697E+03 -0.21400662340E+03  0.25332372956E+03  0.00000000000E+00 0.  1.
         21    1    1    2  502  501  0.82883735855E+01  0.58501818513E+01  0.69654124488E+01  0.12306044652E+02  0.00000000000E+00 0.  1.
<mgrwt>
<rscale>  1 0.30000000E+03</rscale>
<asrwt>0</asrwt>
<pdfrwt beam="1">  1        1 0.13012937E+00 0.30000000E+03</pdfrwt>
<pdfrwt beam="2">0</pdfrwt>
<totfact> 0.22842708E+01</totfact>
</mgrwt>
</event>
<event>
 6    1  0.1839160E-004  0.3000000E+03  0.7818608E-02  0.1093470E+00
          1   -1    0    0  502    0  0.00000000000E+00  0.00000000000E+00  0.54348683068E+02  0.54348683068E+02  0.00000000000E+00 0.  1.
         13   -1    0    0    0    0 -0.00000000000E+00 -0.00000000000E+00 -0.10000000000E+04  0.10000000000E+04  0.00000000000E+00 0.  1.
    9000005    2    1    2  501    0 -0.99266839544E+01  0.66002877559E+01 -0.97227079335E+03  0.10251819318E+04  0.32487750751E+03 0.  0.
         13    1    3    3    0    0 -0.14314487467E+03 -0.27076821707E+02 -0.24497837419E+03  0.28502282933E+03  0.00000000000E+00 0.  1.
          3    1    3    3  501    0  0.13321819072E+03  0.33677109463E+02 -0.72729241917E+03  0.74015910250E+03  0.00000000000E+00 0.  1.
         21    1    1    2  502  501  0.99266839544E+01 -0.66002877559E+01  0.26619476423E+02  0.29166751239E+02  0.00000000000E+00 0.  1.
<mgrwt>
<rscale>  1 0.30000000E+03</rscale>
<asrwt>0</asrwt>
<pdfrwt beam="1">  1        1 0.19763199E+00 0.30000000E+03</pdfrwt>
<pdfrwt beam="2">0</pdfrwt>
<totfact> 0.10512571E+01</totfact>
</mgrwt>
</event>
<event>
 6    1  0.1839160E-004  0.3000000E+03  0.7818608E-02  0.1093470E+00
          1   -1    0    0  502    0  0.00000000000E+00  0.00000000000E+00  0.31517988140E+02  0.31517988140E+02  0.00000000000E+00 0.  1.
         13   -1    0    0    0    0 -0.00000000000E+00 -0.00000000000E+00 -0.10000000000E+04  0.10000000000E+04  0.00000000000E+00 0.  1.
    9000005    2    1    2  501    0 -0.17621969343E+02 -0.26842125488E+01 -0.94620467235E+03  0.10029869760E+04  0.33220754531E+03 0.  0.
         13    1    3    3    0    0  0.59213586405E+02  0.53317226241E+02 -0.35327064495E+02  0.87160638563E+02  0.00000000000E+00 0.  1.
          3    1    3    3  501    0 -0.76835555748E+02 -0.56001438789E+02 -0.91087760785E+03  0.91582633739E+03  0.00000000000E+00 0.  1.
         21    1    1    2  502  501  0.17621969343E+02  0.26842125488E+01 -0.22277339514E+02  0.28531012186E+02  0.00000000000E+00 0. -1.
<mgrwt>
<rscale>  1 0.30000000E+03</rscale>
<asrwt>0</asrwt>
<pdfrwt beam="1">  1        1 0.11461111E+00 0.30000000E+03</pdfrwt>
<pdfrwt beam="2">0</pdfrwt>
<totfact> 0.27910721E+01</totfact>
</mgrwt>
</event>
<event>
 6    1  0.1839160E-004  0.3000000E+03  0.7818608E-02  0.1093470E+00
          1   -1    0    0  502    0  0.00000000000E+00  0.00000000000E+00  0.36247479681E+02  0.36247479681E+02  0.00000000000E+00 0.  1.
         13   -1    0    0    0    0 -0.00000000000E+00 -0.00000000000E+00 -0.10000000000E+04  0.10000000000E+04  0.00000000000E+00 0.  1.
    9000005    2    1    2  501    0 -0.14069976853E+02 -0.10091169149E+02 -0.96519707056E+03  0.10188727086E+04  0.32587791493E+03 0.  0.
         13    1    3    3    0    0 -0.11108710693E+03  0.57713640171E+01 -0.88511445716E+03  0.89207693403E+03  0.00000000000E+00 0.  1.
          1    1    3    3  501    0  0.97017130077E+02 -0.15862533166E+02 -0.80082613406E+02  0.12679577460E+03  0.00000000000E+00 0.  1.
         21    1    1    2  502  501  0.14069976853E+02  0.10091169149E+02  0.14445502438E+01  0.17374771044E+02  0.00000000000E+00 0.  1.
<mgrwt>
<rscale>  1 0.30000000E+03</rscale>
<asrwt>0</asrwt>
<pdfrwt beam="1">  1        1 0.13180929E+00 0.30000000E+03</pdfrwt>
<pdfrwt beam="2">0</pdfrwt>
<totfact> 0.22368367E+01</totfact>
</mgrwt>
</event>
<event>
 6    1  0.1839160E-004  0.3000000E+03  0.7818608E-02  0.1093470E+00
          1   -1    0    0  502    0  0.00000000000E+00  0.00000000000E+00  0.43916427653E+02  0.43916427653E+02  0.00000000000E+00 0.  1.
         13   -1    0    0    0    0 -0.00000000000E+00 -0.00000000000E+00 -0.10000000000E+04  0.10000000000E+04  0.00000000000E+00 0.  1.
    9000005    2    1    2  501    0 -0.14305328192E+02  0.40215449646E+01 -0.96969980427E+03  0.10237616017E+04  0.32794708632E+03 0.  0.
         13    1    3    3    0    0 -0.26331995312E+02 -0.41787792772E+02  0.34007308885E+01  0.49509176649E+02  0.00000000000E+00 0.  1.
          3    1    3    3  501    0  0.12026667120E+02  0.45809337736E+02 -0.97310053516E+03  0.97425242502E+03  0.00000000000E+00 0.  1.
         21    1    1    2  502  501  0.14305328192E+02 -0.40215449646E+01  0.13616231920E+02  0.20154825980E+02  0.00000000000E+00 0. -1.
<mgrwt>
<rscale>  1 0.30000000E+03</rscale>
<asrwt>0</asrwt>
<pdfrwt beam="1">  1        1 0.15969644E+00 0.30000000E+03</pdfrwt>
<pdfrwt beam="2">0</pdfrwt>
<totfact> 0.16058727E+01</totfact>
</mgrwt>
</event>
<event>
 6    1  0.1839160E-004  0.3000000E+03  0.7818608E-02  0.1093470E+00
          3   -1    0    0  502    0  0.00000000000E+00  0.00000000000E+00  0.23526136148E+02  0.23526136148E+02  0.00000000000E+00 0.  1.
         13   -1    0    0    0    0 -0.00000000000E+00 -0.00000000000E+00 -0.10000000000E+04  0.10000000000E+04  0.00000000000E+00 0.  1.
    9000005    2    1    2  501    0  0.15009172396E+02  0.85346365782E+01 -0.94597910312E+03  0.98848265302E+03  0.28622259958E+03 0.  0.
         13    1    3    3    0    0 -0.22534916086E+02 -0.28251411179E+01  0.14667289609E+02  0.27035777219E+02  0.00000000000E+00 0.  1.
          1    1    3    3  501    0  0.37544088482E+02  0.11359777696E+02 -0.96064639273E+03  0.96144687580E+03  0.00000000000E+00 0.  1.
         21    1    1    2  502  501 -0.15009172396E+02 -0.85346365782E+01 -0.30494760733E+02  0.35043483127E+02  0.00000000000E+00 0. -1.
<mgrwt>
<rscale>  1 0.30000000E+03</rscale>
<asrwt>0</asrwt>
<pdfrwt beam="1">  1        3 0.85549766E-01 0.30000000E+03</pdfrwt>
<pdfrwt beam="2">0</pdfrwt>
<totfact> 0.57527307E+00</totfact>
</mgrwt>
</event>
<event>
 6    1  0.1839160E-004  0.3000000E+03  0.7818608E-02  0.1093470E+00
          1   -1    0    0  502    0  0.00000000000E+00  0.00000000000E+00  0.46235790213E+02  0.46235790213E+02  0.00000000000E+00 0.  1.
         13   -1    0    0    0    0 -0.00000000000E+00 -0.00000000000E+00 -0.10000000000E+04  0.10000000000E+04  0.00000000000E+00 0.  1.
    9000005    2    1    2  501    0 -0.72447561159E+02  0.31479871128E+02 -0.86228164150E+03  0.92536936930E+03  0.32640344508E+03 0.  0.
         13    1    3    3    0    0 -0.14778937792E+03  0.85618139065E+02 -0.78862858095E+03  0.80691214184E+03  0.00000000000E+00 0.  1.
          1    1    3    3  501    0  0.75341816762E+02 -0.54138267936E+02 -0.73653060553E+02  0.11845722746E+03  0.00000000000E+00 0.  1.
         21    1    1    2  502  501  0.72447561159E+02 -0.31479871128E+02 -0.91482568284E+02  0.12086642091E+03  0.00000000000E+00 0. -1.
<mgrwt>
<rscale>  1 0.30000000E+03</rscale>
<asrwt>0</asrwt>
<pdfrwt beam="1">  1        1 0.16813050E+00 0.30000000E+03</pdfrwt>
<pdfrwt beam="2">0</pdfrwt>
<totfact> 0.14591374E+01</totfact>
</mgrwt>
</event>
<event>
 6    1  0.1839160E-004  0.3000000E+03  0.7818608E-02  0.1093470E+00
          1   -1    0    0  502    0  0.00000000000E+00  0.00000000000E+00  0.37674661042E+02  0.37674661042E+02  0.00000000000E+00 0.  1.
         13   -1    0    0    0    0 -0.00000000000E+00 -0.00000000000E+00 -0.10000000000E+04  0.10000000000E+04  0.00000000000E+00 0.  1.
    9000005    2    1    2  501    0 -0.16293996472E+02 -0.14555812213E+02 -0.90668356820E+03  0.97789696752E+03  0.36569115418E+03 0.  0.
         13    1    3    3    0    0  0.48647183866E+01  0.17287041879E+03 -0.35547638492E+03  0.39531165858E+03  0.00000000000E+00 0.  1.
          3    1    3    3  501    0 -0.21158714859E+02 -0.18742623100E+03 -0.55120718328E+03  0.58258530893E+03  0.00000000000E+00 0.  1.
         21    1    1    2  502  501  0.16293996472E+02  0.14555812213E+02 -0.55641770755E+02  0.59777693523E+02  0.00000000000E+00 0.  1.
<mgrwt>
<rscale>  1 0.30000000E+03</rscale>
<asrwt>0</asrwt>
<pdfrwt beam="1">  1        1 0.13699906E+00 0.30000000E+03</pdfrwt>
<pdfrwt beam="2">0</pdfrwt>
<totfact> 0.20982597E+01</totfact>
</mgrwt>
</event>
<event>
 6    1  0.1839160E-004  0.3000000E+03  0.7818608E-02  0.1093470E+00
          1   -1    0    0  502    0  0.00000000000E+00  0.00000000000E+00  0.30359294052E+02  0.30359294052E+02  0.00000000000E+00 0.  1.
         13   -1    0    0    0    0 -0.00000000000E+00 -0.00000000000E+00 -0.10000000000E+04  0.10000000000E+04  0.00000000000E+00 0.  1.
    9000005    2    1    2  501    0 -0.88990073191E+01  0.12147373179E+02 -0.95158529199E+03  0.10068486799E+04  0.32863801546E+03 0.  0.
         13    1    3    3    0    0  0.15438440013E+03  0.91564064553E+01 -0.33455329422E+03  0.36857060308E+03  0.00000000000E+00 0.  1.
          3    1    3    3  501    0 -0.16328340744E+03  0.29909667234E+01 -0.61703199777E+03  0.63827807678E+03  0.00000000000E+00 0.  1.
         21    1    1    2  502  501  0.88990073191E+01 -0.12147373179E+02 -0.18055413957E+02  0.23510614189E+02  0.00000000000E+00 0.  1.
<mgrwt>
<rscale>  1 0.30000000E+03</rscale>
<asrwt>0</asrwt>
<pdfrwt beam="1">  1        1 0.11039767E+00 0.30000000E+03</pdfrwt>
<pdfrwt beam="2">0</pdfrwt>
<totfact> 0.29548122E+01</totfact>
</mgrwt>
</event>
<event>
 6    1  0.1839160E-004  0.3000000E+03  0.7818608E-02  0.1093470E+00
          1   -1    0    0  502    0  0.00000000000E+00  0.00000000000E+00  0.55113021438E+02  0.55113021438E+02  0.00000000000E+00 0.  1.
         13   -1    0    0    0    0 -0.00000000000E+00 -0.00000000000E+00 -0.10000000000E+04  0.10000000000E+04  0.00000000000E+00 0.  1.
    9000005    2    1    2  501    0 -0.15405896591E+02 -0.12734442368E+02 -0.96766676530E+03  0.10248074715E+04  0.33682618267E+03 0.  0.
         13    1    3    3    0    0  0.14008266796E+03  0.46074276465E+02 -0.27039154584E+03  0.30798957917E+03  0.00000000000E+00 0.  1.
          3    1    3    3  501    0 -0.15548856455E+03 -0.58808718833E+02 -0.69727521946E+03  0.71681789234E+03  0.00000000000E+00 0.  1.
         21    1    1    2  502  501  0.15405896591E+02  0.12734442368E+02  0.22779786740E+02  0.30305549922E+02  0.00000000000E+00 0.  1.
<mgrwt>
<rscale>  1 0.30000000E+03</rscale>
<asrwt>0</asrwt>
<pdfrwt beam="1">  1        1 0.20041141E+00 0.30000000E+03</pdfrwt>
<pdfrwt beam="2">0</pdfrwt>
<totfact> 0.10197397E+01</totfact>
</mgrwt>
</event>
<event>
 6    1  0.1839160E-004  0.3000000E+03  0.7818608E-02  0.1093470E+00
          1   -1    0    0  502    0  0.00000000000E+00  0.00000000000E+00  0.58839244635E+02  0.58839244635E+02  0.00000000000E+00 0.  1.
         13   -1    0    0    0    0 -0.00000000000E+00 -0.00000000000E+00 -0.10000000000E+04  0.10000000000E+04  0.00000000000E+00 0.  1.
    9000005    2    1    2  501    0 -0.36302939574E+02  0.21842394917E+02 -0.95814805155E+03  0.10131931948E+04  0.32667685500E+03 0.  0.
         13    1    3    3    0    0  0.12172751530E+03 -0.64669557324E+02 -0.28856241620E+03  0.31979369548E+03  0.00000000000E+00 0.  1.
          3    1    3    3  501    0 -0.15803045487E+03  0.86511952240E+02 -0.66958563535E+03  0.69339949928E+03  0.00000000000E+00 0.  1.
         21    1    1    2  502  501  0.36302939574E+02 -0.21842394917E+02  0.16987296181E+02  0.45646049873E+02  0.00000000000E+00 0.  1.
<mgrwt>
<rscale>  1 0.30000000E+03</rscale>
<asrwt>0</asrwt>
<pdfrwt beam="1">  1        1 0.21396134E+00 0.30000000E+03</pdfrwt>
<pdfrwt beam="2">0</pdfrwt>
<totfact> 0.87993003E+00</totfact>
</mgrwt>
</event>
<event>
 6    1  0.1839160E-004  0.3000000E+03  0.7818608E-02  0.1093470E+00
          1   -1    0    0  502    0  0.00000000000E+00  0.00000000000E+00  0.30911621228E+02  0.30911621228E+02  0.00000000000E+00 0.  1.
         13   -1    0    0    0    0 -0.00000000000E+00 -0.00000000000E+00 -0.10000000000E+04  0.10000000000E+04  0.00000000000E+00 0.  1.
    9000005    2    1    2  501    0  0.15198814664E+02  0.24880357872E+02 -0.91486307072E+03  0.96934523260E+03  0.31907006382E+03 0.  0.
         13    1    3    3    0    0 -0.12360295372E+03  0.89528036866E+02 -0.60168594657E+03  0.62074063654E+03  0.00000000000E+00 0.  1.
          3    1    3    3  501    0  0.13880176838E+03 -0.64647678994E+02 -0.31317712415E+03  0.34860459606E+03  0.00000000000E+00 0.  1.
         21    1    1    2  502  501 -0.15198814664E+02 -0.24880357872E+02 -0.54225308055E+02  0.61566388628E+02  0.00000000000E+00 0. -1.
<mgrwt>
<rscale>  1 0.30000000E+03</rscale>
<asrwt>0</asrwt>
<pdfrwt beam="1">  1        1 0.11240613E+00 0.30000000E+03</pdfrwt>
<pdfrwt beam="2">0</pdfrwt>
<totfact> 0.28751039E+01</totfact>
</mgrwt>
</event>
<event>
 6    1  0.1839160E-004  0.3000000E+03  0.7818608E-02  0.1093470E+00
          1   -1    0    0  502    0  0.00000000000E+00  0.00000000000E+00  0.40974075037E+02  0.40974075037E+02  0.00000000000E+00 0.  1.
         13   -1    0    0    0    0 -0.00000000000E+00 -0.00000000000E+00 -0.10000000000E+04  0.10000000000E+04  0.00000000000E+00 0.  1.
    9000005    2    1    2  501    0  0.36989121984E+02 -0.44819763815E+02 -0.94800043648E+03  0.98182538300E+03  0.24879559633E+03 0.  0.
         13    1    3    3    0    0  0.88692939346E+01  0.60374117002E+02 -0.77507551397E+03  0.77747395502E+03  0.00000000000E+00 0.  1.
          1    1    3    3  501    0  0.28119828050E+02 -0.10519388082E+03 -0.17292492252E+03  0.20435142798E+03  0.00000000000E+00 0.  1.
         21    1    1    2  502  501 -0.36989121984E+02  0.44819763815E+02 -0.11025488479E+02  0.59148692038E+02  0.00000000000E+00 0.  1.
<mgrwt>
<rscale>  1 0.30000000E+03</rscale>
<asrwt>0</asrwt>
<pdfrwt beam="1">  1        1 0.14899695E+00 0.30000000E+03</pdfrwt>
<pdfrwt beam="2">0</pdfrwt>
<totfact> 0.18177479E+01</totfact>
</mgrwt>
</event>
<event>
 6    1  0.1839160E-004  0.3000000E+03  0.7818608E-02  0.1093470E+00
          1   -1    0    0  502    0  0.00000000000E+00  0.00000000000E+00  0.50655640205E+02  0.50655640205E+02  0.00000000000E+00 0.  1.
         13   -1    0    0    0    0 -0.00000000000E+00 -0.00000000000E+00 -0.10000000000E+04  0.10000000000E+04  0.00000000000E+00 0.  1.
    9000005    2    1    2  501    0 -0.13594756739E+02 -0.10583878757E+01 -0.97177654269E+03  0.10244041560E+04  0.32383373548E+03 0.  0.
         13    1    3    3    0    0  0.15386333043E+03 -0.19661476045E+02 -0.43695023017E+03  0.46366582982E+03  0.00000000000E+00 0.  1.
          3    1    3    3  501    0 -0.16745808717E+03  0.18603088169E+02 -0.53482631252E+03  0.56073832614E+03  0.00000000000E+00 0.  1.
         21    1    1    2  502  501  0.13594756739E+02  0.10583878757E+01  0.22432182893E+02  0.26251484244E+02  0.00000000000E+00 0.  1.
<mgrwt>
<rscale>  1 0.30000000E+03</rscale>
<asrwt>0</asrwt>
<pdfrwt beam="1">  1        1 0.18420272E+00 0.30000000E+03</pdfrwt>
<pdfrwt beam="2">0</pdfrwt>
<totfact> 0.12191600E+01</totfact>
</mgrwt>
</event>
<event>
 6    1  0.1839160E-004  0.3000000E+03  0.7818608E-02  0.1093470E+00
          1   -1    0    0  502    0  0.00000000000E+00  0.00000000000E+00  0.49104345745E+02  0.49104345745E+02  0.00000000000E+00 0.  1.
         13   -1    0    0    0    0 -0.00000000000E+00 -0.00000000000E+00 -0.10000000000E+04  0.10000000000E+04  0.00000000000E+00 0.  1.
    9000005    2    1    2  501    0 -0.20185166680E+02  0.28269600880E+01 -0.96389460666E+03  0.10249298670E+04  0.34781171191E+03 0.  0.
         13    1    3    3    0    0  0.15860950889E+03 -0.10833506408E+02 -0.57700150790E+03  0.59850236532E+03  0.00000000000E+00 0.  1.
          3    1    3    3  501    0 -0.17879467557E+03  0.13660466496E+02 -0.38689309876E+03  0.42642750172E+03  0.00000000000E+00 0.  1.
         21    1    1    2  502  501  0.20185166680E+02 -0.28269600880E+01  0.12998952404E+02  0.24174478709E+02  0.00000000000E+00 0. -1.
<mgrwt>
<rscale>  1 0.30000000E+03</rscale>
<asrwt>0</asrwt>
<pdfrwt beam="1">  1        1 0.17856163E+00 0.30000000E+03</pdfrwt>
<pdfrwt beam="2">0</pdfrwt>
<totfact> 0.12980892E+01</totfact>
</mgrwt>
</event>
<event>
 6    1  0.1839160E-004  0.3000000E+03  0.7818608E-02  0.1093470E+00
          1   -1    0    0  502    0  0.00000000000E+00  0.00000000000E+00  0.29230232933E+02  0.29230232933E+02  0.00000000000E+00 0.  1.
         13   -1    0    0    0    0 -0.00000000000E+00 -0.00000000000E+00 -0.10000000000E+04  0.10000000000E+04  0.00000000000E+00 0.  1.
    9000005    2    1    2  501    0 -0.10922683362E+02 -0.97082352826E+01 -0.95888442947E+03  0.10103936702E+04  0.31815478144E+03 0.  0.
         13    1    3    3    0    0 -0.91611804572E+02  0.12633961928E+03 -0.55859842779E+03  0.57998847029E+03  0.00000000000E+00 0.  1.
          3    1    3    3  501    0  0.80689121210E+02 -0.13604785456E+03 -0.40028600167E+03  0.43040519995E+03  0.00000000000E+00 0.  1.
         21    1    1    2  502  501  0.10922683362E+02  0.97082352826E+01 -0.11885337601E+02  0.18836562691E+02  0.00000000000E+00 0. -1.
<mgrwt>
<rscale>  1 0.30000000E+03</rscale>
<asrwt>0</asrwt>
<pdfrwt beam="1">  1        1 0.10629198E+00 0.30000000E+03</pdfrwt>
<pdfrwt beam="2">0</pdfrwt>
<totfact> 0.31278217E+01</totfact>
</mgrwt>
</event>
<event>
 6    1  0.1839160E-004  0.3000000E+03  0.7818608E-02  0.1093470E+00
          1   -1    0    0  502    0  0.00000000000E+00  0.00000000000E+00  0.49764335262E+02  0.49764335262E+02  0.00000000000E+00 0.  1.
         13   -1    0    0    0    0 -0.00000000000E+00 -0.00000000000E+00 -0.10000000000E+04  0.10000000000E+04  0.00000000000E+00 0.  1.
    9000005    2    1    2  501    0  0.93312032835E+01  0.43329367700E+01 -0.96944964768E+03  0.10279693166E+04  0.34173447423E+03 0.  0.
         13    1    3    3    0    0 -0.54201301357E+02 -0.99048692605E+01 -0.96069648957E+03  0.96227523744E+03  0.00000000000E+00 0.  1.
          1    1    3    3  501    0  0.63532504640E+02  0.14237806030E+02 -0.87531581108E+01  0.65694079211E+02  0.00000000000E+00 0.  1.
         21    1    1    2  502  501 -0.93312032835E+01 -0.43329367700E+01  0.19213982946E+02  0.21795018615E+02  0.00000000000E+00 0.  1.
<mgrwt>
<rscale>  1 0.30000000E+03</rscale>
<asrwt>0</asrwt>
<pdfrwt beam="1">  1        1 0.18096160E+00 0.30000000E+03</pdfrwt>
<pdfrwt beam="2">0</pdfrwt>
<totfact> 0.12638439E+01</totfact>
</mgrwt>
</event>
<event>
 6    1  0.1839160E-004  0.3000000E+03  0.7818608E-02  0.1093470E+00
          1   -1    0    0  502    0  0.00000000000E+00  0.00000000000E+00  0.30503949175E+02  0.30503949175E+02  0.00000000000E+00 0.  1.
         13   -1    0    0    0    0 -0.00000000000E+00 -0.00000000000E+00 -0.10000000000E+04  0.10000000000E+04  0.00000000000E+00 0.  1.
    9000005    2    1    2  501    0  0.10653923667E+02  0.12228880070E+02 -0.95053332240E+03  0.10055512606E+04  0.32765330630E+03 0.  0.
         13    1    3    3    0    0 -0.12157819954E+03 -0.19158502295E+02 -0.76896634017E+03  0.77875383731E+03  0.00000000000E+00 0.  1.
          1    1    3    3  501    0  0.13223212321E+03  0.31387382365E+02 -0.18156698223E+03  0.22679742330E+03  0.00000000000E+00 0.  1.
         21    1    1    2  502  501 -0.10653923667E+02 -0.12228880070E+02 -0.18962728427E+02  0.24952688565E+02  0.00000000000E+00 0.  1.
<mgrwt>
<rscale>  1 0.30000000E+03</rscale>
<asrwt>0</asrwt>
<pdfrwt beam="1">  1        1 0.11092369E+00 0.30000000E+03</pdfrwt>
<pdfrwt beam="2">0</pdfrwt>
<totfact> 0.29336375E+01</totfact>
</mgrwt>
</event>
<event>
 6    1  0.1839160E-004  0.3000000E+03  0.7818608E-02  0.1093470E+00
          1   -1    0    0  502    0  0.00000000000E+00  0.00000000000E+00  0.53061557174E+02  0.53061557174E+02  0.00000000000E+00 0.  1.
         13   -1    0    0    0    0 -0.00000000000E+00 -0.00000000000E+00 -0.10000000000E+04  0.10000000000E+04  0.00000000000E+00 0.  1.
    9000005    2    1    2  501    0 -0.18631861994E+02  0.64664144864E+01 -0.96943303490E+03  0.10231455502E+04  0.32655389608E+03 0.  0.
         13    1    3    3    0    0  0.13668006096E+03 -0.25075890725E+02 -0.24580069985E+03  0.28236186607E+03  0.00000000000E+00 0.  1.
          3    1    3    3  501    0 -0.15531192295E+03  0.31542305211E+02 -0.72363233505E+03  0.74078368418E+03  0.00000000000E+00 0.  1.
         21    1    1    2  502  501  0.18631861994E+02 -0.64664144864E+01  0.22494592074E+02  0.29916006924E+02  0.00000000000E+00 0.  1.
<mgrwt>
<rscale>  1 0.30000000E+03</rscale>
<asrwt>0</asrwt>
<pdfrwt beam="1">  1        1 0.19295152E+00 0.30000000E+03</pdfrwt>
<pdfrwt beam="2">0</pdfrwt>
<totfact> 0.11067513E+01</totfact>
</mgrwt>
</event>
<event>
 6    1  0.1839160E-004  0.3000000E+03  0.7818608E-02  0.1093470E+00
          1   -1    0    0  502    0  0.00000000000E+00  0.00000000000E+00  0.39836749439E+02  0.39836749439E+02  0.00000000000E+00 0.  1.
         13   -1    0    0    0    0 -0.00000000000E+00 -0.00000000000E+00 -0.10000000000E+04  0.10000000000E+04  0.00000000000E+00 0.  1.
    9000005    2    1    2  501    0 -0.45719792004E+02  0.52488863338E+01 -0.92614676409E+03  0.98260938238E+03  0.32504694971E+03 0.  0.
         13    1    3    3    0    0  0.93237245630E+02 -0.11248740377E+03 -0.40332811584E+03  0.42897572076E+03  0.00000000000E+00 0.  1.
          1    1    3    3  501    0 -0.13895703763E+03  0.11773629010E+03 -0.52281864826E+03  0.55363366162E+03  0.00000000000E+00 0.  1.
         21    1    1    2  502  501  0.45719792004E+02 -0.52488863338E+01 -0.34016486467E+02  0.57227367056E+02  0.00000000000E+00 0. -1.
<mgrwt>
<rscale>  1 0.30000000E+03</rscale>
<asrwt>0</asrwt>
<pdfrwt beam="1">  1        1 0.14486121E+00 0.30000000E+03</pdfrwt>
<pdfrwt beam="2">0</pdfrwt>
<totfact> 0.19087654E+01</totfact>
</mgrwt>
</event>
<event>
 6    1  0.1839160E-004  0.3000000E+03  0.7818608E-02  0.1093470E+00
          1   -1    0    0  502    0  0.00000000000E+00  0.00000000000E+00  0.28273856901E+02  0.28273856901E+02  0.00000000000E+00 0.  1.
         13   -1    0    0    0    0 -0.00000000000E+00 -0.00000000000E+00 -0.10000000000E+04  0.10000000000E+04  0.00000000000E+00 0.  1.
    9000005    2    1    2  501    0 -0.13763600717E+01 -0.88046381771E+01 -0.95910504559E+03  0.10128236749E+04  0.32534580374E+03 0.  0.
         13    1    3    3    0    0 -0.77262628084E+01 -0.14929695494E+02 -0.98516622117E+03  0.98530963371E+03  0.00000000000E+00 0.  1.
          1    1    3    3  501    0  0.63499027367E+01  0.61250573165E+01  0.26061175581E+02  0.27514041225E+02  0.00000000000E+00 0.  1.
         21    1    1    2  502  501  0.13763600717E+01  0.88046381771E+01 -0.12621097506E+02  0.15450181964E+02  0.00000000000E+00 0. -1.
<mgrwt>
<rscale>  1 0.30000000E+03</rscale>
<asrwt>0</asrwt>
<pdfrwt beam="1">  1        1 0.10281424E+00 0.30000000E+03</pdfrwt>
<pdfrwt beam="2">0</pdfrwt>
<totfact> 0.32860058E+01</totfact>
</mgrwt>
</event>
<event>
 6    1  0.1839160E-004  0.3000000E+03  0.7818608E-02  0.1093470E+00
          1   -1    0    0  502    0  0.00000000000E+00  0.00000000000E+00  0.27712622313E+02  0.27712622313E+02  0.00000000000E+00 0.  1.
         13   -1    0    0    0    0 -0.00000000000E+00 -0.00000000000E+00 -0.10000000000E+04  0.10000000000E+04  0.00000000000E+00 0.  1.
    9000005    2    1    2  501    0  0.12717803526E+02 -0.30366103209E+00 -0.95175954447E+03  0.10035625359E+04  0.31800895941E+03 0.  0.
         13    1    3    3    0    0 -0.77446005179E+02 -0.12956962952E+03 -0.58919475178E+03  0.60822415944E+03  0.00000000000E+00 0.  1.
          1    1    3    3  501    0  0.90163808704E+02  0.12926596848E+03 -0.36256479270E+03  0.39533837647E+03  0.00000000000E+00 0.  1.
         21    1    1    2  502  501 -0.12717803526E+02  0.30366103209E+00 -0.20527833214E+02  0.24150086398E+02  0.00000000000E+00 0. -1.
<mgrwt>
<rscale>  1 0.30000000E+03</rscale>
<asrwt>0</asrwt>
<pdfrwt beam="1">  1        1 0.10077338E+00 0.30000000E+03</pdfrwt>
<pdfrwt beam="2">0</pdfrwt>
<totfact> 0.33843117E+01</totfact>
</mgrwt>
</event>
<event>
 6    1  0.1839160E-004  0.3000000E+03  0.7818608E-02  0.1093470E+00
          1   -1    0    0  502    0  0.00000000000E+00  0.00000000000E+00  0.32374444523E+02  0.32374444523E+02  0.00000000000E+00 0.  1.
         13   -1    0    0    0    0 -0.00000000000E+00 -0.00000000000E+00 -0.10000000000E+04  0.10000000000E+04  0.00000000000E+00 0.  1.
    9000005    2    1    2  501    0  0.15263828027E+02 -0.18302392211E+02 -0.96088692364E+03  0.10076081132E+04  0.30232841053E+03 0.  0.
         13    1    3    3    0    0 -0.35373695611E+02  0.75631999744E+02 -0.84861238970E+03  0.85271008302E+03  0.00000000000E+00 0.  1.
          1    1    3    3  501    0  0.50637523637E+02 -0.93934391955E+02 -0.11227453394E+03  0.15489803021E+03  0.00000000000E+00 0.  1.
         21    1    1    2  502  501 -0.15263828027E+02  0.18302392211E+02 -0.67386318359E+01  0.24766331293E+02  0.00000000000E+00 0.  1.
<mgrwt>
<rscale>  1 0.30000000E+03</rscale>
<asrwt>0</asrwt>
<pdfrwt beam="1">  1        1 0.11772550E+00 0.30000000E+03</pdfrwt>
<pdfrwt beam="2">0</pdfrwt>
<totfact> 0.26781466E+01</totfact>
</mgrwt>
</event>
<event>
 6    1  0.1839160E-004  0.3000000E+03  0.7818608E-02  0.1093470E+00
          1   -1    0    0  502    0  0.00000000000E+00  0.00000000000E+00  0.33875879749E+02  0.33875879749E+02  0.00000000000E+00 0.  1.
         13   -1    0    0    0    0 -0.00000000000E+00 -0.00000000000E+00 -0.10000000000E+04  0.10000000000E+04  0.00000000000E+00 0.  1.
    9000005    2    1    2  501    0 -0.36262848443E+02  0.60775757574E+01 -0.87742051652E+03  0.93785369263E+03  0.32916691034E+03 0.  0.
         13    1    3    3    0    0  0.42616472365E+02 -0.13800654137E+03 -0.58386865338E+03  0.60146868046E+03  0.00000000000E+00 0.  1.
          1    1    3    3  501    0 -0.78879320808E+02  0.14408411712E+03 -0.29355186314E+03  0.33638501217E+03  0.00000000000E+00 0.  1.
         21    1    1    2  502  501  0.36262848443E+02 -0.60775757574E+01 -0.88703603732E+02  0.96022187120E+02  0.00000000000E+00 0. -1.
<mgrwt>
<rscale>  1 0.30000000E+03</rscale>
<asrwt>0</asrwt>
<pdfrwt beam="1">  1        1 0.12318528E+00 0.30000000E+03</pdfrwt>
<pdfrwt beam="2">0</pdfrwt>
<totfact> 0.24946970E+01</totfact>
</mgrwt>
</event>
<event>
 6    1  0.1839160E-004  0.3000000E+03  0.7818608E-02  0.1093470E+00
          1   -1    0    0  502    0  0.00000000000E+00  0.00000000000E+00  0.18085117638E+02  0.18085117638E+02  0.00000000000E+00 0.  1.
         13   -1    0    0    0    0 -0.00000000000E+00 -0.00000000000E+00 -0.10000000000E+04  0.10000000000E+04  0.00000000000E+00 0.  1.
    9000005    2    1    2  501    0 -0.28301517884E-01 -0.10219069715E+02 -0.95589402905E+03  0.99012952797E+03  0.25791211137E+03 0.  0.
         13    1    3    3    0    0  0.67427975574E+02  0.78434663250E+02 -0.73995380101E+03  0.74714801473E+03  0.00000000000E+00 0.  1.
          3    1    3    3  501    0 -0.67456277092E+02 -0.88653732966E+02 -0.21594022805E+03  0.24298151324E+03  0.00000000000E+00 0.  1.
         21    1    1    2  502  501  0.28301517884E-01  0.10219069715E+02 -0.26020853309E+02  0.27955589669E+02  0.00000000000E+00 0. -1.
<mgrwt>
<rscale>  1 0.30000000E+03</rscale>
<asrwt>0</asrwt>
<pdfrwt beam="1">  1        1 0.65764203E-01 0.30000000E+03</pdfrwt>
<pdfrwt beam="2">0</pdfrwt>
<totfact> 0.61344517E+01</totfact>
</mgrwt>
</event>
<event>
 6    1  0.1839160E-004  0.3000000E+03  0.7818608E-02  0.1093470E+00
          1   -1    0    0  502    0  0.00000000000E+00  0.00000000000E+00  0.35327495370E+02  0.35327495370E+02  0.00000000000E+00 0.  1.
         13   -1    0    0    0    0 -0.00000000000E+00 -0.00000000000E+00 -0.10000000000E+04  0.10000000000E+04  0.00000000000E+00 0.  1.
    9000005    2    1    2  501    0  0.10912794044E+02 -0.23207855154E+01 -0.96973896315E+03  0.10230741643E+04  0.32582604864E+03 0.  0.
         13    1    3    3    0    0 -0.12189870445E+03 -0.10164416495E+03 -0.52262015511E+03  0.54618921350E+03  0.00000000000E+00 0.  1.
          3    1    3    3  501    0  0.13281149850E+03  0.99323379438E+02 -0.44711880804E+03  0.47688495084E+03  0.00000000000E+00 0.  1.
         21    1    1    2  502  501 -0.10912794044E+02  0.23207855154E+01  0.50664585224E+01  0.12253331025E+02  0.00000000000E+00 0.  1.
<mgrwt>
<rscale>  1 0.30000000E+03</rscale>
<asrwt>0</asrwt>
<pdfrwt beam="1">  1        1 0.12846389E+00 0.30000000E+03</pdfrwt>
<pdfrwt beam="2">0</pdfrwt>
<totfact> 0.23325970E+01</totfact>
</mgrwt>
</event>
<event>
 6    1  0.1839160E-004  0.3000000E+03  0.7818608E-02  0.1093470E+00
          1   -1    0    0  502    0  0.00000000000E+00  0.00000000000E+00  0.49557673315E+02  0.49557673315E+02  0.00000000000E+00 0.  1.
         13   -1    0    0    0    0 -0.00000000000E+00 -0.00000000000E+00 -0.10000000000E+04  0.10000000000E+04  0.00000000000E+00 0.  1.
    9000005    2    1    2  501    0 -0.34967656489E+00 -0.33170508159E+02 -0.96421309490E+03  0.10136405612E+04  0.31090173697E+03 0.  0.
         13    1    3    3    0    0  0.94008047258E+02 -0.96762529176E+02 -0.20153976660E+03  0.24252582857E+03  0.00000000000E+00 0.  1.
          3    1    3    3  501    0 -0.94357723823E+02  0.63592021017E+02 -0.76267332830E+03  0.77111473263E+03  0.00000000000E+00 0.  1.
         21    1    1    2  502  501  0.34967656489E+00  0.33170508159E+02  0.13770768217E+02  0.35917112113E+02  0.00000000000E+00 0. -1.
<mgrwt>
<rscale>  1 0.30000000E+03</rscale>
<asrwt>0</asrwt>
<pdfrwt beam="1">  1        1 0.18021010E+00 0.30000000E+03</pdfrwt>
<pdfrwt beam="2">0</pdfrwt>
<totfact> 0.12744596E+01</totfact>
</mgrwt>
</event>
<event>
 6    1  0.1839160E-004  0.3000000E+03  0.7818608E-02  0.1093470E+00
          1   -1    0    0  502    0  0.00000000000E+00  0.00000000000E+00  0.60651803447E+02  0.60651803447E+02  0.00000000000E+00 0.  1.
         13   -1    0    0    0    0 -0.00000000000E+00 -0.00000000000E+00 -0.10000000000E+04  0.10000000000E+04  0.00000000000E+00 0.  1.
    9000005    2    1    2  501    0  0.35076406663E+02 -0.37125986423E+02 -0.95231771025E+03  0.10079554899E+04  0.32627680771E+03 0.  0.
         13    1    3    3    0    0  0.76433348653E+02  0.35628114209E+02 -0.91050910792E+03  0.91440595739E+03  0.00000000000E+00 0.  1.
          1    1    3    3  501    0 -0.41356941989E+02 -0.72754100632E+02 -0.41808602333E+02  0.93549532541E+02  0.00000000000E+00 0.  1.
         21    1    1    2  502  501 -0.35076406663E+02  0.37125986423E+02  0.12969513701E+02  0.52696313514E+02  0.00000000000E+00 0.  1.
<mgrwt>
<rscale>  1 0.30000000E+03</rscale>
<asrwt>0</asrwt>
<pdfrwt beam="1">  1        1 0.22055248E+00 0.30000000E+03</pdfrwt>
<pdfrwt beam="2">0</pdfrwt>
<totfact> 0.81942607E+00</totfact>
</mgrwt>
</event>
<event>
 6    1  0.1839160E-004  0.3000000E+03  0.7818608E-02  0.1093470E+00
          1   -1    0    0  502    0  0.00000000000E+00  0.00000000000E+00  0.31638680104E+02  0.31638680104E+02  0.00000000000E+00 0.  1.
         13   -1    0    0    0    0 -0.00000000000E+00 -0.00000000000E+00 -0.10000000000E+04  0.10000000000E+04  0.00000000000E+00 0.  1.
    9000005    2    1    2  501    0 -0.35465185108E+02  0.94966880131E+01 -0.92902380501E+03  0.97782969837E+03  0.30284933927E+03 0.  0.
         13    1    3    3    0    0  0.10434311480E+03  0.75709369667E+02 -0.24855049372E+03  0.27999418242E+03  0.00000000000E+00 0.  1.
          3    1    3    3  501    0 -0.13980829991E+03 -0.66212681654E+02 -0.68047331129E+03  0.69783551595E+03  0.00000000000E+00 0.  1.
         21    1    1    2  502  501  0.35465185108E+02 -0.94966880131E+01 -0.39337514881E+02  0.53808981731E+02  0.00000000000E+00 0. -1.
<mgrwt>
<rscale>  1 0.30000000E+03</rscale>
<asrwt>0</asrwt>
<pdfrwt beam="1">  1        1 0.11504999E+00 0.30000000E+03</pdfrwt>
<pdfrwt beam="2">0</pdfrwt>
<totfact> 0.27747620E+01</totfact>
</mgrwt>
</event>
<event>
 6    1  0.1839160E-004  0.3000000E+03  0.7818608E-02  0.1093470E+00
          1   -1    0    0  502    0  0.00000000000E+00  0.00000000000E+00  0.40866794374E+02  0.40866794374E+02  0.00000000000E+00 0.  1.
         13   -1    0    0    0    0 -0.00000000000E+00 -0.00000000000E+00 -0.10000000000E+04  0.10000000000E+04  0.00000000000E+00 0.  1.
    9000005    2    1    2  501    0  0.13839854968E+02 -0.69225932543E+01 -0.93592358595E+03  0.10129714484E+04  0.38719340465E+03 0.  0.
         13    1    3    3    0    0  0.14236737014E+03 -0.13510835017E+03 -0.37275527142E+03  0.42127096593E+03  0.00000000000E+00 0.  1.
          1    1    3    3  501    0 -0.12852751517E+03  0.12818575692E+03 -0.56316831453E+03  0.59170048245E+03  0.00000000000E+00 0.  1.
         21    1    1    2  502  501 -0.13839854968E+02  0.69225932543E+01 -0.23209619676E+02  0.27895345999E+02  0.00000000000E+00 0.  1.
<mgrwt>
<rscale>  1 0.30000000E+03</rscale>
<asrwt>0</asrwt>
<pdfrwt beam="1">  1        1 0.14860684E+00 0.30000000E+03</pdfrwt>
<pdfrwt beam="2">0</pdfrwt>
<totfact> 0.18260979E+01</totfact>
</mgrwt>
</event>
<event>
 6    1  0.1839160E-004  0.3000000E+03  0.7818608E-02  0.1093470E+00
          1   -1    0    0  502    0  0.00000000000E+00  0.00000000000E+00  0.56233797725E+02  0.56233797725E+02  0.00000000000E+00 0.  1.
         13   -1    0    0    0    0 -0.00000000000E+00 -0.00000000000E+00 -0.10000000000E+04  0.10000000000E+04  0.00000000000E+00 0.  1.
    9000005    2    1    2  501    0  0.92814063602E+02  0.80631437118E+02 -0.79651629832E+03  0.86440467254E+03  0.31247615168E+03 0.  0.
         13    1    3    3    0    0 -0.97497461779E+02  0.10549853498E+03 -0.32580951942E+03  0.35607237871E+03  0.00000000000E+00 0.  1.
          3    1    3    3  501    0  0.19031152538E+03 -0.24867097859E+02 -0.47070677890E+03  0.50833229383E+03  0.00000000000E+00 0.  1.
         21    1    1    2  502  501 -0.92814063602E+02 -0.80631437118E+02 -0.14724990395E+03  0.19182912518E+03  0.00000000000E+00 0. -1.
<mgrwt>
<rscale>  1 0.30000000E+03</rscale>
<asrwt>0</asrwt>
<pdfrwt beam="1">  1        1 0.20448697E+00 0.30000000E+03</pdfrwt>
<pdfrwt beam="2">0</pdfrwt>
<totfact> 0.97531956E+00</totfact>
</mgrwt>
</event>
<event>
 6    1  0.1839160E-004  0.3000000E+03  0.7818608E-02  0.1093470E+00
          1   -1    0    0  502    0  0.00000000000E+00  0.00000000000E+00  0.29732150616E+02  0.29732150616E+02  0.00000000000E+00 0.  1.
         13   -1    0    0    0    0 -0.00000000000E+00 -0.00000000000E+00 -0.10000000000E+04  0.10000000000E+04  0.00000000000E+00 0.  1.
    9000005    2    1    2  501    0 -0.34401649174E+01 -0.11642475312E+02 -0.96166298480E+03  0.10148517722E+04  0.32400777972E+03 0.  0.
         13    1    3    3    0    0 -0.14670624629E+02  0.15306008504E+03 -0.55638814664E+03  0.57724378436E+03  0.00000000000E+00 0.  1.
          3    1    3    3  501    0  0.11230459711E+02 -0.16470256035E+03 -0.40527483816E+03  0.43760798788E+03  0.00000000000E+00 0.  1.
         21    1    1    2  502  501  0.34401649174E+01  0.11642475312E+02 -0.86048645829E+01  0.14880378373E+02  0.00000000000E+00 0.  1.
<mgrwt>
<rscale>  1 0.30000000E+03</rscale>
<asrwt>0</asrwt>
<pdfrwt beam="1">  1        1 0.10811714E+00 0.30000000E+03</pdfrwt>
<pdfrwt beam="2">0</pdfrwt>
<totfact> 0.30491710E+01</totfact>
</mgrwt>
</event>
<event>
 6    1  0.1839160E-004  0.3000000E+03  0.7818608E-02  0.1093470E+00
          1   -1    0    0  502    0  0.00000000000E+00  0.00000000000E+00  0.45158207648E+02  0.45158207648E+02  0.00000000000E+00 0.  1.
         13   -1    0    0    0    0 -0.00000000000E+00 -0.00000000000E+00 -0.10000000000E+04  0.10000000000E+04  0.00000000000E+00 0.  1.
    9000005    2    1    2  501    0  0.16139249270E+02 -0.24999852535E+02 -0.84651744910E+03  0.93282107516E+03  0.39074019328E+03 0.  0.
         13    1    3    3    0    0  0.15252618531E+03 -0.10272428523E+03 -0.21900500347E+03  0.28597151524E+03  0.00000000000E+00 0.  1.
          1    1    3    3  501    0 -0.13638693604E+03  0.77724432693E+02 -0.62751244563E+03  0.64684955993E+03  0.00000000000E+00 0.  1.
         21    1    1    2  502  501 -0.16139249270E+02  0.24999852535E+02 -0.10832434325E+03  0.11233713248E+03  0.00000000000E+00 0.  1.
<mgrwt>
<rscale>  1 0.30000000E+03</rscale>
<asrwt>0</asrwt>
<pdfrwt beam="1">  1        1 0.16421201E+00 0.30000000E+03</pdfrwt>
<pdfrwt beam="2">0</pdfrwt>
<totfact> 0.15253079E+01</totfact>
</mgrwt>
</event>
<event>
 6    1  0.1839160E-004  0.3000000E+03  0.7818608E-02  0.1093470E+00
          3   -1    0    0  502    0  0.00000000000E+00  0.00000000000E+00  0.35188732625E+02  0.35188732625E+02  0.00000000000E+00 0.  1.
         13   -1    0    0    0    0 -0.00000000000E+00 -0.00000000000E+00 -0.10000000000E+04  0.10000000000E+04  0.00000000000E+00 0.  1.
    9000005    2    1    2  501    0  0.23571547443E+02  0.16501247574E+00 -0.91527062310E+03  0.98032599014E+03  0.35037563892E+03 0.  0.
         13    1    3    3    0    0  0.43862301096E+02 -0.13854165871E+03 -0.74844519140E+03  0.76242238765E+03  0.00000000000E+00 0.  1.
          3    1    3    3  501    0 -0.20290753653E+02  0.13870667119E+03 -0.16682543170E+03  0.21790360249E+03  0.00000000000E+00 0.  1.
         21    1    1    2  502  501 -0.23571547443E+02 -0.16501247574E+00 -0.49540644271E+02  0.54862742483E+02  0.00000000000E+00 0. -1.
<mgrwt>
<rscale>  1 0.30000000E+03</rscale>
<asrwt>0</asrwt>
<pdfrwt beam="1">  1        3 0.12795930E+00 0.30000000E+03</pdfrwt>
<pdfrwt beam="2">0</pdfrwt>
<totfact> 0.18692474E+00</totfact>
</mgrwt>
</event>
<event>
 6    1  0.1839160E-004  0.3000000E+03  0.7818608E-02  0.1093470E+00
          1   -1    0    0  502    0  0.00000000000E+00  0.00000000000E+00  0.11903664767E+03  0.11903664767E+03  0.00000000000E+00 0.  1.
         13   -1    0    0    0    0 -0.00000000000E+00 -0.00000000000E+00 -0.10000000000E+04  0.10000000000E+04  0.00000000000E+00 0.  1.
    9000005    2    1    2  501    0  0.41305241412E+02 -0.13147025399E+02 -0.96839426933E+03  0.10214501092E+04  0.32201536835E+03 0.  0.
         13    1    3    3    0    0 -0.48324857486E+01 -0.15741900743E+03 -0.33467521648E+03  0.36988051766E+03  0.00000000000E+00 0.  1.
          3    1    3    3  501    0  0.46137727161E+02  0.14427198203E+03 -0.63371905285E+03  0.65156959153E+03  0.00000000000E+00 0.  1.
         21    1    1    2  502  501 -0.41305241412E+02  0.13147025399E+02  0.87430916997E+02  0.97586538477E+02  0.00000000000E+00 0.  1.
<mgrwt>
<rscale>  1 0.30000000E+03</rscale>
<asrwt>0</asrwt>
<pdfrwt beam="1">  1        1 0.43286145E+00 0.30000000E+03</pdfrwt>
<pdfrwt beam="2">0</pdfrwt>
<totfact> 0.66625735E-01</totfact>
</mgrwt>
</event>
<event>
 6    1  0.1839160E-004  0.3000000E+03  0.7818608E-02  0.1093470E+00
          1   -1    0    0  502    0  0.00000000000E+00  0.00000000000E+00  0.18970973995E+02  0.18970973995E+02  0.00000000000E+00 0.  1.
         13   -1    0    0    0    0 -0.00000000000E+00 -0.00000000000E+00 -0.10000000000E+04  0.10000000000E+04  0.00000000000E+00 0.  1.
    9000005    2    1    2  501    0  0.12306465742E+02 -0.33210326901E+01 -0.96863051593E+03  0.10011889210E+04  0.25292627534E+03 0.  0.
         13    1    3    3    0    0  0.11395412889E+03 -0.68027301482E+02 -0.49914637686E+03  0.51648849239E+03  0.00000000000E+00 0.  1.
          1    1    3    3  501    0 -0.10164766314E+03  0.64706268792E+02 -0.46948413907E+03  0.48470042859E+03  0.00000000000E+00 0.  1.
         21    1    1    2  502  501 -0.12306465742E+02  0.33210326901E+01 -0.12398510075E+02  0.17782053011E+02  0.00000000000E+00 0.  1.
<mgrwt>
<rscale>  1 0.30000000E+03</rscale>
<asrwt>0</asrwt>
<pdfrwt beam="1">  1        1 0.68985505E-01 0.30000000E+03</pdfrwt>
<pdfrwt beam="2">0</pdfrwt>
<totfact> 0.57511434E+01</totfact>
</mgrwt>
</event>
<event>
 6    1  0.1839160E-004  0.3000000E+03  0.7818608E-02  0.1093470E+00
          1   -1    0    0  502    0  0.00000000000E+00  0.00000000000E+00  0.34897081277E+02  0.34897081277E+02  0.00000000000E+00 0.  1.
         13   -1    0    0    0    0 -0.00000000000E+00 -0.00000000000E+00 -0.10000000000E+04  0.10000000000E+04  0.00000000000E+00 0.  1.
    9000005    2    1    2  501    0 -0.20221431045E+02  0.13756431081E+02 -0.94706321114E+03  0.10045066762E+04  0.33392632573E+03 0.  0.
         13    1    3    3    0    0 -0.91300533032E+02  0.15254142733E+03 -0.54521194659E+03  0.57346380975E+03  0.00000000000E+00 0.  1.
          3    1    3    3  501    0  0.71079101987E+02 -0.13878499625E+03 -0.40185126454E+03  0.43104286647E+03  0.00000000000E+00 0.  1.
         21    1    1    2  502  501  0.20221431045E+02 -0.13756431081E+02 -0.18039707587E+02  0.30390405055E+02  0.00000000000E+00 0.  1.
<mgrwt>
<rscale>  1 0.30000000E+03</rscale>
<asrwt>0</asrwt>
<pdfrwt beam="1">  1        1 0.12689874E+00 0.30000000E+03</pdfrwt>
<pdfrwt beam="2">0</pdfrwt>
<totfact> 0.23792206E+01</totfact>
</mgrwt>
</event>
<event>
 6    1  0.1839160E-004  0.3000000E+03  0.7818608E-02  0.1093470E+00
          1   -1    0    0  502    0  0.00000000000E+00  0.00000000000E+00  0.30559813811E+02  0.30559813811E+02  0.00000000000E+00 0.  1.
         13   -1    0    0    0    0 -0.00000000000E+00 -0.00000000000E+00 -0.10000000000E+04  0.10000000000E+04  0.00000000000E+00 0.  1.
    9000005    2    1    2  501    0  0.10711345444E+02 -0.13546529222E+02 -0.95380798843E+03  0.10072658879E+04  0.32332127809E+03 0.  0.
         13    1    3    3    0    0  0.77750938818E+02 -0.16109532684E+02 -0.36296645251E+02  0.87305051325E+02  0.00000000000E+00 0.  1.
          3    1    3    3  501    0 -0.67039593374E+02  0.25630034615E+01 -0.91751134318E+03  0.91996083662E+03  0.00000000000E+00 0.  1.
         21    1    1    2  502  501 -0.10711345444E+02  0.13546529222E+02 -0.15632197762E+02  0.23293925862E+02  0.00000000000E+00 0.  1.
<mgrwt>
<rscale>  1 0.30000000E+03</rscale>
<asrwt>0</asrwt>
<pdfrwt beam="1">  1        1 0.11112683E+00 0.30000000E+03</pdfrwt>
<pdfrwt beam="2">0</pdfrwt>
<totfact> 0.29255175E+01</totfact>
</mgrwt>
</event>
<event>
 6    1  0.1839160E-004  0.3000000E+03  0.7818608E-02  0.1093470E+00
          1   -1    0    0  502    0  0.00000000000E+00  0.00000000000E+00  0.53612640213E+02  0.53612640213E+02  0.00000000000E+00 0.  1.
         13   -1    0    0    0    0 -0.00000000000E+00 -0.00000000000E+00 -0.10000000000E+04  0.10000000000E+04  0.00000000000E+00 0.  1.
    9000005    2    1    2  501    0  0.20070792319E+02 -0.18270401282E+01 -0.97600433786E+03  0.10177889027E+04  0.28792986671E+03 0.  0.
         13    1    3    3    0    0  0.91222365924E+02 -0.31369945096E+02 -0.91350598421E+03  0.91858520382E+03  0.00000000000E+00 0.  1.
          1    1    3    3  501    0 -0.71151573605E+02  0.29542904968E+02 -0.62498353652E+02  0.99203698871E+02  0.00000000000E+00 0.  1.
         21    1    1    2  502  501 -0.20070792319E+02  0.18270401282E+01  0.29616978070E+02  0.35823737521E+02  0.00000000000E+00 0.  1.
<mgrwt>
<rscale>  1 0.30000000E+03</rscale>
<asrwt>0</asrwt>
<pdfrwt beam="1">  1        1 0.19495547E+00 0.30000000E+03</pdfrwt>
<pdfrwt beam="2">0</pdfrwt>
<totfact> 0.10826006E+01</totfact>
</mgrwt>
</event>
<event>
 6    1  0.1839160E-004  0.3000000E+03  0.7818608E-02  0.1093470E+00
          1   -1    0    0  502    0  0.00000000000E+00  0.00000000000E+00  0.46520103917E+02  0.46520103917E+02  0.00000000000E+00 0.  1.
         13   -1    0    0    0    0 -0.00000000000E+00 -0.00000000000E+00 -0.10000000000E+04  0.10000000000E+04  0.00000000000E+00 0.  1.
    9000005    2    1    2  501    0  0.25991219646E+01 -0.34890666781E+02 -0.95638502059E+03  0.10114123582E+04  0.32719800820E+03 0.  0.
         13    1    3    3    0    0 -0.10622992451E+03  0.10547868786E+03 -0.38600325539E+03  0.41401577702E+03  0.00000000000E+00 0.  1.
          3    1    3    3  501    0  0.10882904648E+03 -0.14036935464E+03 -0.57038176521E+03  0.59739658114E+03  0.00000000000E+00 0.  1.
         21    1    1    2  502  501 -0.25991219646E+01  0.34890666781E+02  0.29051245082E+01  0.35107745752E+02  0.00000000000E+00 0.  1.
<mgrwt>
<rscale>  1 0.30000000E+03</rscale>
<asrwt>0</asrwt>
<pdfrwt beam="1">  1        1 0.16916437E+00 0.30000000E+03</pdfrwt>
<pdfrwt beam="2">0</pdfrwt>
<totfact> 0.14422263E+01</totfact>
</mgrwt>
</event>
<event>
 6    1  0.1839160E-004  0.3000000E+03  0.7818608E-02  0.1093470E+00
          1   -1    0    0  502    0  0.00000000000E+00  0.00000000000E+00  0.27770947230E+02  0.27770947230E+02  0.00000000000E+00 0.  1.
         13   -1    0    0    0    0 -0.00000000000E+00 -0.00000000000E+00 -0.10000000000E+04  0.10000000000E+04  0.00000000000E+00 0.  1.
    9000005    2    1    2  501    0 -0.12810275917E+02 -0.24767794967E+01 -0.93445349525E+03  0.98780558283E+03  0.31997858847E+03 0.  0.
         13    1    3    3    0    0 -0.30626687117E+02 -0.13226964278E+03 -0.19981388194E+03  0.24157574336E+03  0.00000000000E+00 0.  1.
          1    1    3    3  501    0  0.17816411200E+02  0.12979286328E+03 -0.73463961331E+03  0.74622983947E+03  0.00000000000E+00 0.  1.
         21    1    1    2  502  501  0.12810275917E+02  0.24767794967E+01 -0.37775557519E+02  0.39965364400E+02  0.00000000000E+00 0.  1.
<mgrwt>
<rscale>  1 0.30000000E+03</rscale>
<asrwt>0</asrwt>
<pdfrwt beam="1">  1        1 0.10098548E+00 0.30000000E+03</pdfrwt>
<pdfrwt beam="2">0</pdfrwt>
<totfact> 0.33738963E+01</totfact>
</mgrwt>
</event>
<event>
 6    1  0.1839160E-004  0.3000000E+03  0.7818608E-02  0.1093470E+00
          1   -1    0    0  502    0  0.00000000000E+00  0.00000000000E+00  0.30604034590E+02  0.30604034590E+02  0.00000000000E+00 0.  1.
         13   -1    0    0    0    0 -0.00000000000E+00 -0.00000000000E+00 -0.10000000000E+04  0.10000000000E+04  0.00000000000E+00 0.  1.
    9000005    2    1    2  501    0 -0.10187120726E+02 -0.16368162716E+02 -0.93658506610E+03  0.99254816391E+03  0.32800697777E+03 0.  0.
         13    1    3    3    0    0 -0.27359519047E+02  0.13534624364E+03 -0.68076960500E+03  0.69463256765E+03  0.00000000000E+00 0.  1.
          3    1    3    3  501    0  0.17172398321E+02 -0.15171440635E+03 -0.25581546111E+03  0.29791559627E+03  0.00000000000E+00 0.  1.
         21    1    1    2  502  501  0.10187120726E+02  0.16368162716E+02 -0.32810899309E+02  0.38055870676E+02  0.00000000000E+00 0. -1.
<mgrwt>
<rscale>  1 0.30000000E+03</rscale>
<asrwt>0</asrwt>
<pdfrwt beam="1">  1        1 0.11128763E+00 0.30000000E+03</pdfrwt>
<pdfrwt beam="2">0</pdfrwt>
<totfact> 0.29191124E+01</totfact>
</mgrwt>
</event>
<event>
 6    1  0.1839160E-004  0.3000000E+03  0.7818608E-02  0.1093470E+00
          1   -1    0    0  502    0  0.00000000000E+00  0.00000000000E+00  0.30836630038E+02  0.30836630038E+02  0.00000000000E+00 0.  1.
         13   -1    0    0    0    0 -0.00000000000E+00 -0.00000000000E+00 -0.10000000000E+04  0.10000000000E+04  0.00000000000E+00 0.  1.
    9000005    2    1    2  501    0  0.92102451868E+01  0.27852747371E+02 -0.92126604474E+03  0.97466939835E+03  0.31684176923E+03 0.  0.
         13    1    3    3    0    0 -0.65240268499E+02  0.15645628380E+03 -0.47972326148E+03  0.50879197024E+03  0.00000000000E+00 0.  1.
          1    1    3    3  501    0  0.74450513686E+02 -0.12860353643E+03 -0.44154278326E+03  0.46587742811E+03  0.00000000000E+00 0.  1.
         21    1    1    2  502  501 -0.92102451868E+01 -0.27852747371E+02 -0.47897325217E+02  0.56167231687E+02  0.00000000000E+00 0.  1.
<mgrwt>
<rscale>  1 0.30000000E+03</rscale>
<asrwt>0</asrwt>
<pdfrwt beam="1">  1        1 0.11213344E+00 0.30000000E+03</pdfrwt>
<pdfrwt beam="2">0</pdfrwt>
<totfact> 0.28857464E+01</totfact>
</mgrwt>
</event>
<event>
 6    1  0.1839160E-004  0.3000000E+03  0.7818608E-02  0.1093470E+00
          1   -1    0    0  502    0  0.00000000000E+00  0.00000000000E+00  0.25978619480E+02  0.25978619480E+02  0.00000000000E+00 0.  1.
         13   -1    0    0    0    0 -0.00000000000E+00 -0.00000000000E+00 -0.10000000000E+04  0.10000000000E+04  0.00000000000E+00 0.  1.
    9000005    2    1    2  501    0  0.64399100559E+01 -0.10312058415E+02 -0.96095886138E+03  0.10081337211E+04  0.30453875855E+03 0.  0.
         13    1    3    3    0    0 -0.12771533241E+03 -0.82877407456E+02 -0.48384858440E+03  0.50723694998E+03  0.00000000000E+00 0.  1.
          1    1    3    3  501    0  0.13415524247E+03  0.72565349041E+02 -0.47711027698E+03  0.50089677116E+03  0.00000000000E+00 0.  1.
         21    1    1    2  502  501 -0.64399100559E+01  0.10312058415E+02 -0.13062519141E+02  0.17844898335E+02  0.00000000000E+00 0. -1.
<mgrwt>
<rscale>  1 0.30000000E+03</rscale>
<asrwt>0</asrwt>
<pdfrwt beam="1">  1        1 0.94467906E-01 0.30000000E+03</pdfrwt>
<pdfrwt beam="2">0</pdfrwt>
<totfact> 0.37170206E+01</totfact>
</mgrwt>
</event>
<event>
 6    1  0.1839160E-004  0.3000000E+03  0.7818608E-02  0.1093470E+00
          1   -1    0    0  502    0  0.00000000000E+00  0.00000000000E+00  0.48585294160E+02  0.48585294160E+02  0.00000000000E+00 0.  1.
         13   -1    0    0    0    0 -0.00000000000E+00 -0.00000000000E+00 -0.10000000000E+04  0.10000000000E+04  0.00000000000E+00 0.  1.
    9000005    2    1    2  501    0  0.32944217873E+02  0.10280961691E+03 -0.66511384389E+03  0.74260600994E+03  0.31214118895E+03 0.  0.
         13    1    3    3    0    0  0.89989924614E+02  0.13819310401E+02 -0.25824337687E+02  0.94636442711E+02  0.00000000000E+00 0.  1.
          3    1    3    3  501    0 -0.57045706741E+02  0.88990306508E+02 -0.63928950620E+03  0.64796956723E+03  0.00000000000E+00 0.  1.
         21    1    1    2  502  501 -0.32944217873E+02 -0.10280961691E+03 -0.28630086195E+03  0.30597928422E+03  0.00000000000E+00 0.  1.
<mgrwt>
<rscale>  1 0.30000000E+03</rscale>
<asrwt>0</asrwt>
<pdfrwt beam="1">  1        1 0.17667417E+00 0.30000000E+03</pdfrwt>
<pdfrwt beam="2">0</pdfrwt>
<totfact> 0.13257319E+01</totfact>
</mgrwt>
</event>
<event>
 6    1  0.1839160E-004  0.3000000E+03  0.7818608E-02  0.1093470E+00
          1   -1    0    0  502    0  0.00000000000E+00  0.00000000000E+00  0.55492872791E+02  0.55492872791E+02  0.00000000000E+00 0.  1.
         13   -1    0    0    0    0 -0.00000000000E+00 -0.00000000000E+00 -0.10000000000E+04  0.10000000000E+04  0.00000000000E+00 0.  1.
    9000005    2    1    2  501    0  0.46711828832E+02 -0.30111572373E+02 -0.86592083376E+03  0.95924056236E+03  0.40894359563E+03 0.  0.
         13    1    3    3    0    0  0.12278268424E+03  0.15119386740E+03 -0.27897671364E+03  0.34023988573E+03  0.00000000000E+00 0.  1.
          1    1    3    3  501    0 -0.76070855410E+02 -0.18130543977E+03 -0.58694412011E+03  0.61900067663E+03  0.00000000000E+00 0.  1.
         21    1    1    2  502  501 -0.46711828832E+02  0.30111572373E+02 -0.78586293453E+02  0.96252310426E+02  0.00000000000E+00 0. -1.
<mgrwt>
<rscale>  1 0.30000000E+03</rscale>
<asrwt>0</asrwt>
<pdfrwt beam="1">  1        1 0.20179269E+00 0.30000000E+03</pdfrwt>
<pdfrwt beam="2">0</pdfrwt>
<totfact> 0.10044480E+01</totfact>
</mgrwt>
</event>
<event>
 6    1  0.1839160E-004  0.3000000E+03  0.7818608E-02  0.1093470E+00
          1   -1    0    0  502    0  0.00000000000E+00  0.00000000000E+00  0.34435486293E+02  0.34435486293E+02  0.00000000000E+00 0.  1.
         13   -1    0    0    0    0 -0.00000000000E+00 -0.00000000000E+00 -0.10000000000E+04  0.10000000000E+04  0.00000000000E+00 0.  1.
    9000005    2    1    2  501    0 -0.98978136942E+01 -0.22195634017E+02 -0.90307893241E+03  0.96739027203E+03  0.34597943201E+03 0.  0.
         13    1    3    3    0    0 -0.24843008315E+02  0.15349679389E+03 -0.56609680571E+03  0.58706390984E+03  0.00000000000E+00 0.  1.
          3    1    3    3  501    0  0.14945194621E+02 -0.17569242791E+03 -0.33698212670E+03  0.38032636219E+03  0.00000000000E+00 0.  1.
         21    1    1    2  502  501  0.98978136942E+01  0.22195634017E+02 -0.62485581299E+02  0.67045214264E+02  0.00000000000E+00 0.  1.
<mgrwt>
<rscale>  1 0.30000000E+03</rscale>
<asrwt>0</asrwt>
<pdfrwt beam="1">  1        1 0.12522021E+00 0.30000000E+03</pdfrwt>
<pdfrwt beam="2">0</pdfrwt>
<totfact> 0.24305554E+01</totfact>
</mgrwt>
</event>
<event>
 6    1  0.1839160E-004  0.3000000E+03  0.7818608E-02  0.1093470E+00
          1   -1    0    0  502    0  0.00000000000E+00  0.00000000000E+00  0.29056266007E+02  0.29056266007E+02  0.00000000000E+00 0.  1.
         13   -1    0    0    0    0 -0.00000000000E+00 -0.00000000000E+00 -0.10000000000E+04  0.10000000000E+04  0.00000000000E+00 0.  1.
    9000005    2    1    2  501    0  0.11247188857E+01 -0.13638761726E+02 -0.96043847715E+03  0.10118039840E+04  0.31799049166E+03 0.  0.
         13    1    3    3    0    0  0.93315808764E+02 -0.13193198438E+03 -0.39410811426E+03  0.42595198602E+03  0.00000000000E+00 0.  1.
          3    1    3    3  501    0 -0.92191089879E+02  0.11829322265E+03 -0.56633036289E+03  0.58585199795E+03  0.00000000000E+00 0.  1.
         21    1    1    2  502  501 -0.11247188857E+01  0.13638761726E+02 -0.10505256845E+02  0.17252282034E+02  0.00000000000E+00 0. -1.
<mgrwt>
<rscale>  1 0.30000000E+03</rscale>
<asrwt>0</asrwt>
<pdfrwt beam="1">  1        1 0.10565937E+00 0.30000000E+03</pdfrwt>
<pdfrwt beam="2">0</pdfrwt>
<totfact> 0.31557636E+01</totfact>
</mgrwt>
</event>
<event>
 6    1  0.1839160E-004  0.3000000E+03  0.7818608E-02  0.1093470E+00
          1   -1    0    0  502    0  0.00000000000E+00  0.00000000000E+00  0.28484619508E+02  0.28484619508E+02  0.00000000000E+00 0.  1.
         13   -1    0    0    0    0 -0.00000000000E+00 -0.00000000000E+00 -0.10000000000E+04  0.10000000000E+04  0.00000000000E+00 0.  1.
    9000005    2    1    2  501    0  0.13925036007E+02 -0.37631299840E+01 -0.93765390635E+03  0.99167881553E+03  0.32252745203E+03 0.  0.
         13    1    3    3    0    0  0.24490976849E+02  0.81149613258E+01  0.20770783936E+02  0.33122288714E+02  0.00000000000E+00 0.  1.
          3    1    3    3  501    0 -0.10565940842E+02 -0.11878091310E+02 -0.95842469029E+03  0.95855652682E+03  0.00000000000E+00 0.  1.
         21    1    1    2  502  501 -0.13925036007E+02  0.37631299840E+01 -0.33861474143E+02  0.36805803974E+02  0.00000000000E+00 0. -1.
<mgrwt>
<rscale>  1 0.30000000E+03</rscale>
<asrwt>0</asrwt>
<pdfrwt beam="1">  1        1 0.10358065E+00 0.30000000E+03</pdfrwt>
<pdfrwt beam="2">0</pdfrwt>
<totfact> 0.32501644E+01</totfact>
</mgrwt>
</event>
<event>
 6    1  0.1839160E-004  0.3000000E+03  0.7818608E-02  0.1093470E+00
          1   -1    0    0  502    0  0.00000000000E+00  0.00000000000E+00  0.52854814978E+02  0.52854814978E+02  0.00000000000E+00 0.  1.
         13   -1    0    0    0    0 -0.00000000000E+00 -0.00000000000E+00 -0.10000000000E+04  0.10000000000E+04  0.00000000000E+00 0.  1.
    9000005    2    1    2  501    0 -0.35610846004E+02  0.17251176548E+02 -0.95817536451E+03  0.10117768366E+04  0.32253155279E+03 0.  0.
         13    1    3    3    0    0 -0.12066398490E+03  0.60826550754E+02 -0.87412589842E+03  0.88450876356E+03  0.00000000000E+00 0.  1.
          1    1    3    3  501    0  0.85053138895E+02 -0.43575374205E+02 -0.84049466093E+02  0.12726807307E+03  0.00000000000E+00 0.  1.
         21    1    1    2  502  501  0.35610846004E+02 -0.17251176548E+02  0.11030179489E+02  0.41077978346E+02  0.00000000000E+00 0.  1.
<mgrwt>
<rscale>  1 0.30000000E+03</rscale>
<asrwt>0</asrwt>
<pdfrwt beam="1">  1        1 0.19219973E+00 0.30000000E+03</pdfrwt>
<pdfrwt beam="2">0</pdfrwt>
<totfact> 0.11159637E+01</totfact>
</mgrwt>
</event>
<event>
 6    1  0.1839160E-004  0.3000000E+03  0.7818608E-02  0.1093470E+00
          1   -1    0    0  502    0  0.00000000000E+00  0.00000000000E+00  0.42253871616E+02  0.42253871616E+02  0.00000000000E+00 0.  1.
         13   -1    0    0    0    0 -0.00000000000E+00 -0.00000000000E+00 -0.10000000000E+04  0.10000000000E+04  0.00000000000E+00 0.  1.
    9000005    2    1    2  501    0  0.15215397375E+02 -0.13142586542E+02 -0.97170327031E+03  0.10177786248E+04  0.30209575895E+03 0.  0.
         13    1    3    3    0    0 -0.57969910962E+02 -0.13904361880E+03 -0.38891730130E+03  0.41707350163E+03  0.00000000000E+00 0.  1.
          1    1    3    3  501    0  0.73185308337E+02  0.12590103226E+03 -0.58278596900E+03  0.60070512312E+03  0.00000000000E+00 0.  1.
         21    1    1    2  502  501 -0.15215397375E+02  0.13142586542E+02  0.13957141925E+02  0.24475246863E+02  0.00000000000E+00 0.  1.
<mgrwt>
<rscale>  1 0.30000000E+03</rscale>
<asrwt>0</asrwt>
<pdfrwt beam="1">  1        1 0.15365077E+00 0.30000000E+03</pdfrwt>
<pdfrwt beam="2">0</pdfrwt>
<totfact> 0.17216812E+01</totfact>
</mgrwt>
</event>
<event>
 6    1  0.1839160E-004  0.3000000E+03  0.7818608E-02  0.1093470E+00
          1   -1    0    0  502    0  0.00000000000E+00  0.00000000000E+00  0.30186015714E+02  0.30186015714E+02  0.00000000000E+00 0.  1.
         13   -1    0    0    0    0 -0.00000000000E+00 -0.00000000000E+00 -0.10000000000E+04  0.10000000000E+04  0.00000000000E+00 0.  1.
    9000005    2    1    2  501    0  0.25664139585E+02 -0.15983298305E+02 -0.94896425516E+03  0.99345966155E+03  0.29242918403E+03 0.  0.
         13    1    3    3    0    0 -0.74553993106E+02 -0.94868150337E+02 -0.19895085012E+03  0.23267940304E+03  0.00000000000E+00 0.  1.
          3    1    3    3  501    0  0.10021813269E+03  0.78884852032E+02 -0.75001340504E+03  0.76078025851E+03  0.00000000000E+00 0.  1.
         21    1    1    2  502  501 -0.25664139585E+02  0.15983298305E+02 -0.20849729124E+02  0.36726354160E+02  0.00000000000E+00 0.  1.
<mgrwt>
<rscale>  1 0.30000000E+03</rscale>
<asrwt>0</asrwt>
<pdfrwt beam="1">  1        1 0.10976756E+00 0.30000000E+03</pdfrwt>
<pdfrwt beam="2">0</pdfrwt>
<totfact> 0.29804632E+01</totfact>
</mgrwt>
</event>
<event>
 6    1  0.1839160E-004  0.3000000E+03  0.7818608E-02  0.1093470E+00
          1   -1    0    0  502    0  0.00000000000E+00  0.00000000000E+00  0.31553954915E+02  0.31553954915E+02  0.00000000000E+00 0.  1.
         13   -1    0    0    0    0 -0.00000000000E+00 -0.00000000000E+00 -0.10000000000E+04  0.10000000000E+04  0.00000000000E+00 0.  1.
    9000005    2    1    2  501    0 -0.75142965761E+01  0.10365706720E+02 -0.95485610121E+03  0.10128831461E+04  0.33766578302E+03 0.  0.
         13    1    3    3    0    0 -0.56176930976E+02  0.59460238741E+02 -0.32627780219E+02  0.88067812549E+02  0.00000000000E+00 0.  1.
          3    1    3    3  501    0  0.48662634400E+02 -0.49094532022E+02 -0.92222832099E+03  0.92481533351E+03  0.00000000000E+00 0.  1.
         21    1    1    2  502  501  0.75142965761E+01 -0.10365706720E+02 -0.13589943879E+02  0.18670808859E+02  0.00000000000E+00 0.  1.
<mgrwt>
<rscale>  1 0.30000000E+03</rscale>
<asrwt>0</asrwt>
<pdfrwt beam="1">  1        1 0.11474190E+00 0.30000000E+03</pdfrwt>
<pdfrwt beam="2">0</pdfrwt>
<totfact> 0.27861975E+01</totfact>
</mgrwt>
</event>
<event>
 6    1  0.1839160E-004  0.3000000E+03  0.7818608E-02  0.1093470E+00
          1   -1    0    0  502    0  0.00000000000E+00  0.00000000000E+00  0.55063801045E+02  0.55063801045E+02  0.00000000000E+00 0.  1.
         13   -1    0    0    0    0 -0.00000000000E+00 -0.00000000000E+00 -0.10000000000E+04  0.10000000000E+04  0.00000000000E+00 0.  1.
    9000005    2    1    2  501    0 -0.33230047790E+02  0.50493646708E+02 -0.93772054328E+03  0.99418761423E+03  0.32470810057E+03 0.  0.
         13    1    3    3    0    0  0.11992967149E+03 -0.81271432982E+01 -0.16433239843E+03  0.20360332447E+03  0.00000000000E+00 0.  1.
          1    1    3    3  501    0 -0.15315971928E+03  0.58620790007E+02 -0.77338814484E+03  0.79058428976E+03  0.00000000000E+00 0.  1.
         21    1    1    2  502  501  0.33230047790E+02 -0.50493646708E+02 -0.72156556801E+01  0.60876186813E+02  0.00000000000E+00 0.  1.
<mgrwt>
<rscale>  1 0.30000000E+03</rscale>
<asrwt>0</asrwt>
<pdfrwt beam="1">  1        1 0.20023243E+00 0.30000000E+03</pdfrwt>
<pdfrwt beam="2">0</pdfrwt>
<totfact> 0.10217391E+01</totfact>
</mgrwt>
</event>
<event>
 6    1  0.1839160E-004  0.3000000E+03  0.7818608E-02  0.1093470E+00
          1   -1    0    0  502    0  0.00000000000E+00  0.00000000000E+00  0.49754328173E+02  0.49754328173E+02  0.00000000000E+00 0.  1.
         13   -1    0    0    0    0 -0.00000000000E+00 -0.00000000000E+00 -0.10000000000E+04  0.10000000000E+04  0.00000000000E+00 0.  1.
    9000005    2    1    2  501    0 -0.27671943175E+02 -0.54027414683E+01 -0.96242696688E+03  0.10190409760E+04  0.33374229290E+03 0.  0.
         13    1    3    3    0    0 -0.11264600386E+03 -0.13346329906E+03 -0.61115559786E+03  0.63561996443E+03  0.00000000000E+00 0.  1.
          1    1    3    3  501    0  0.84974060681E+02  0.12806055759E+03 -0.35127136902E+03  0.38342101154E+03  0.00000000000E+00 0.  1.
         21    1    1    2  502  501  0.27671943175E+02  0.54027414683E+01  0.12181295054E+02  0.30713352205E+02  0.00000000000E+00 0.  1.
<mgrwt>
<rscale>  1 0.30000000E+03</rscale>
<asrwt>0</asrwt>
<pdfrwt beam="1">  1        1 0.18092521E+00 0.30000000E+03</pdfrwt>
<pdfrwt beam="2">0</pdfrwt>
<totfact> 0.12643557E+01</totfact>
</mgrwt>
</event>
<event>
 6    1  0.1839160E-004  0.3000000E+03  0.7818608E-02  0.1093470E+00
          1   -1    0    0  502    0  0.00000000000E+00  0.00000000000E+00  0.58467894588E+02  0.58467894588E+02  0.00000000000E+00 0.  1.
         13   -1    0    0    0    0 -0.00000000000E+00 -0.00000000000E+00 -0.10000000000E+04  0.10000000000E+04  0.00000000000E+00 0.  1.
    9000005    2    1    2  501    0  0.17757355131E+02 -0.39752429827E+02 -0.95672070800E+03  0.10123563669E+04  0.32810870322E+03 0.  0.
         13    1    3    3    0    0 -0.14990103826E+03  0.23495534836E+02 -0.42892537123E+03  0.45497179639E+03  0.00000000000E+00 0.  1.
          3    1    3    3  501    0  0.16765839339E+03 -0.63247964663E+02 -0.52779533677E+03  0.55738457049E+03  0.00000000000E+00 0.  1.
         21    1    1    2  502  501 -0.17757355131E+02  0.39752429827E+02  0.15188602586E+02  0.46111527701E+02  0.00000000000E+00 0.  1.
<mgrwt>
<rscale>  1 0.30000000E+03</rscale>
<asrwt>0</asrwt>
<pdfrwt beam="1">  1        1 0.21261097E+00 0.30000000E+03</pdfrwt>
<pdfrwt beam="2">0</pdfrwt>
<totfact> 0.89289286E+00</totfact>
</mgrwt>
</event>
<event>
 6    1  0.1839160E-004  0.3000000E+03  0.7818608E-02  0.1093470E+00
          1   -1    0    0  502    0  0.00000000000E+00  0.00000000000E+00  0.31304538114E+02  0.31304538114E+02  0.00000000000E+00 0.  1.
         13   -1    0    0    0    0 -0.00000000000E+00 -0.00000000000E+00 -0.10000000000E+04  0.10000000000E+04  0.00000000000E+00 0.  1.
    9000005    2    1    2  501    0 -0.13621911655E+02 -0.81392945710E+00 -0.93591972014E+03  0.99580146493E+03  0.33983616061E+03 0.  0.
         13    1    3    3    0    0  0.94144117025E+02  0.15778939840E+02 -0.59193019156E+02  0.11232053788E+03  0.00000000000E+00 0.  1.
          3    1    3    3  501    0 -0.10776602868E+03 -0.16592869297E+02 -0.87672670098E+03  0.88348092705E+03  0.00000000000E+00 0.  1.
         21    1    1    2  502  501  0.13621911655E+02  0.81392945710E+00 -0.32775741747E+02  0.35503073182E+02  0.00000000000E+00 0.  1.
<mgrwt>
<rscale>  1 0.30000000E+03</rscale>
<asrwt>0</asrwt>
<pdfrwt beam="1">  1        1 0.11383492E+00 0.30000000E+03</pdfrwt>
<pdfrwt beam="2">0</pdfrwt>
<totfact> 0.28202499E+01</totfact>
</mgrwt>
</event>
<event>
 6    1  0.1839160E-004  0.3000000E+03  0.7818608E-02  0.1093470E+00
          1   -1    0    0  502    0  0.00000000000E+00  0.00000000000E+00  0.26736134230E+02  0.26736134230E+02  0.00000000000E+00 0.  1.
         13   -1    0    0    0    0 -0.00000000000E+00 -0.00000000000E+00 -0.10000000000E+04  0.10000000000E+04  0.00000000000E+00 0.  1.
    9000005    2    1    2  501    0  0.80008650276E+01 -0.51083289431E+01 -0.92798760694E+03  0.98047547622E+03  0.31635589448E+03 0.  0.
         13    1    3    3    0    0 -0.10038512870E+03  0.70099958661E+02 -0.74441201513E+03  0.75441396232E+03  0.00000000000E+00 0.  1.
          3    1    3    3  501    0  0.10838599373E+03 -0.75208287604E+02 -0.18357559181E+03  0.22606151390E+03  0.00000000000E+00 0.  1.
         21    1    1    2  502  501 -0.80008650276E+01  0.51083289431E+01 -0.45276258830E+02  0.46260658009E+02  0.00000000000E+00 0. -1.
<mgrwt>
<rscale>  1 0.30000000E+03</rscale>
<asrwt>0</asrwt>
<pdfrwt beam="1">  1        1 0.97222511E-01 0.30000000E+03</pdfrwt>
<pdfrwt beam="2">0</pdfrwt>
<totfact> 0.35659677E+01</totfact>
</mgrwt>
</event>
<event>
 6    1  0.1839160E-004  0.3000000E+03  0.7818608E-02  0.1093470E+00
          1   -1    0    0  502    0  0.00000000000E+00  0.00000000000E+00  0.38598724557E+02  0.38598724557E+02  0.00000000000E+00 0.  1.
         13   -1    0    0    0    0 -0.00000000000E+00 -0.00000000000E+00 -0.10000000000E+04  0.10000000000E+04  0.00000000000E+00 0.  1.
    9000005    2    1    2  501    0 -0.13693132565E+02  0.21995279229E+01 -0.96916967498E+03  0.10227025667E+04  0.32624889467E+03 0.  0.
         13    1    3    3    0    0 -0.16975282997E+03  0.92300623728E+01 -0.48234030033E+03  0.51142290001E+03  0.00000000000E+00 0.  1.
          3    1    3    3  501    0  0.15605969740E+03 -0.70305344499E+01 -0.48682937465E+03  0.51127966671E+03  0.00000000000E+00 0.  1.
         21    1    1    2  502  501  0.13693132565E+02 -0.21995279229E+01  0.77683995371E+01  0.15896157835E+02  0.00000000000E+00 0. -1.
<mgrwt>
<rscale>  1 0.30000000E+03</rscale>
<asrwt>0</asrwt>
<pdfrwt beam="1">  1        1 0.14035929E+00 0.30000000E+03</pdfrwt>
<pdfrwt beam="2">0</pdfrwt>
<totfact> 0.20144704E+01</totfact>
</mgrwt>
</event>
<event>
 6    1  0.1839160E-004  0.3000000E+03  0.7818608E-02  0.1093470E+00
          1   -1    0    0  502    0  0.00000000000E+00  0.00000000000E+00  0.30120935919E+02  0.30120935919E+02  0.00000000000E+00 0.  1.
         13   -1    0    0    0    0 -0.00000000000E+00 -0.00000000000E+00 -0.10000000000E+04  0.10000000000E+04  0.00000000000E+00 0.  1.
    9000005    2    1    2  501    0 -0.19001339221E+02  0.46102883270E+01 -0.94141998329E+03  0.99559232560E+03  0.32334221533E+03 0.  0.
         13    1    3    3    0    0 -0.15627480069E+03 -0.41361464521E+01 -0.28642552209E+03  0.32631043616E+03  0.00000000000E+00 0.  1.
          1    1    3    3  501    0  0.13727346147E+03  0.87464347791E+01 -0.65499446120E+03  0.66928188945E+03  0.00000000000E+00 0.  1.
         21    1    1    2  502  501  0.19001339221E+02 -0.46102883270E+01 -0.28459080792E+02  0.34528610314E+02  0.00000000000E+00 0. -1.
<mgrwt>
<rscale>  1 0.30000000E+03</rscale>
<asrwt>0</asrwt>
<pdfrwt beam="1">  1        1 0.10953091E+00 0.30000000E+03</pdfrwt>
<pdfrwt beam="2">0</pdfrwt>
<totfact> 0.29901789E+01</totfact>
</mgrwt>
</event>
<event>
 6    1  0.1839160E-004  0.3000000E+03  0.7818608E-02  0.1093470E+00
          1   -1    0    0  502    0  0.00000000000E+00  0.00000000000E+00  0.35460627344E+02  0.35460627344E+02  0.00000000000E+00 0.  1.
         13   -1    0    0    0    0 -0.00000000000E+00 -0.00000000000E+00 -0.10000000000E+04  0.10000000000E+04  0.00000000000E+00 0.  1.
    9000005    2    1    2  501    0 -0.14622315498E+02  0.59055293537E+01 -0.96417265202E+03  0.10196865387E+04  0.33148611882E+03 0.  0.
         13    1    3    3    0    0 -0.61871679477E+02  0.13238849337E+03 -0.22504916190E+03  0.26833177816E+03  0.00000000000E+00 0.  1.
          1    1    3    3  501    0  0.47249363979E+02 -0.12648296402E+03 -0.73912349013E+03  0.75135476058E+03  0.00000000000E+00 0.  1.
         21    1    1    2  502  501  0.14622315498E+02 -0.59055293537E+01 -0.36672063102E+00  0.15774088611E+02  0.00000000000E+00 0. -1.
<mgrwt>
<rscale>  1 0.30000000E+03</rscale>
<asrwt>0</asrwt>
<pdfrwt beam="1">  1        1 0.12894801E+00 0.30000000E+03</pdfrwt>
<pdfrwt beam="2">0</pdfrwt>
<totfact> 0.23184143E+01</totfact>
</mgrwt>
</event>
<event>
 6    1  0.1839160E-004  0.3000000E+03  0.7818608E-02  0.1093470E+00
          1   -1    0    0  502    0  0.00000000000E+00  0.00000000000E+00  0.28172194722E+02  0.28172194722E+02  0.00000000000E+00 0.  1.
         13   -1    0    0    0    0 -0.00000000000E+00 -0.00000000000E+00 -0.10000000000E+04  0.10000000000E+04  0.00000000000E+00 0.  1.
    9000005    2    1    2  501    0 -0.24019811385E+01 -0.15020038660E+02 -0.91508152836E+03  0.96942263286E+03  0.31964772248E+03 0.  0.
         13    1    3    3    0    0 -0.56302620490E+02  0.21012945003E+02 -0.90109352279E+03  0.90309526948E+03  0.00000000000E+00 0.  1.
          3    1    3    3  501    0  0.53900639351E+02 -0.36032983662E+02 -0.13988005569E+02  0.66327363387E+02  0.00000000000E+00 0.  1.
         21    1    1    2  502  501  0.24019811385E+01  0.15020038660E+02 -0.56746276915E+02  0.58749561858E+02  0.00000000000E+00 0. -1.
<mgrwt>
<rscale>  1 0.30000000E+03</rscale>
<asrwt>0</asrwt>
<pdfrwt beam="1">  1        1 0.10244456E+00 0.30000000E+03</pdfrwt>
<pdfrwt beam="2">0</pdfrwt>
<totfact> 0.33035004E+01</totfact>
</mgrwt>
</event>
<event>
 6    1  0.1839160E-004  0.3000000E+03  0.7818608E-02  0.1093470E+00
          3   -1    0    0  502    0  0.00000000000E+00  0.00000000000E+00  0.45909320141E+02  0.45909320141E+02  0.00000000000E+00 0.  1.
         13   -1    0    0    0    0 -0.00000000000E+00 -0.00000000000E+00 -0.10000000000E+04  0.10000000000E+04  0.00000000000E+00 0.  1.
    9000005    2    1    2  501    0  0.39642405575E+02 -0.27748797795E+02 -0.94808236575E+03  0.99714851685E+03  0.30512862258E+03 0.  0.
         13    1    3    3    0    0  0.12734445386E+03  0.35633123774E+02 -0.81484973521E+03  0.82550979425E+03  0.00000000000E+00 0.  1.
          3    1    3    3  501    0 -0.87702048283E+02 -0.63381921569E+02 -0.13323263054E+03  0.17163872260E+03  0.00000000000E+00 0.  1.
         21    1    1    2  502  501 -0.39642405575E+02  0.27748797795E+02 -0.60083141091E+01  0.48760803288E+02  0.00000000000E+00 0.  1.
<mgrwt>
<rscale>  1 0.30000000E+03</rscale>
<asrwt>0</asrwt>
<pdfrwt beam="1">  1        3 0.16694333E+00 0.30000000E+03</pdfrwt>
<pdfrwt beam="2">0</pdfrwt>
<totfact> 0.55029140E-01</totfact>
</mgrwt>
</event>
<event>
 6    1  0.1839160E-004  0.3000000E+03  0.7818608E-02  0.1093470E+00
          3   -1    0    0  502    0  0.00000000000E+00  0.00000000000E+00  0.35181996264E+02  0.35181996264E+02  0.00000000000E+00 0.  1.
         13   -1    0    0    0    0 -0.00000000000E+00 -0.00000000000E+00 -0.10000000000E+04  0.10000000000E+04  0.00000000000E+00 0.  1.
    9000005    2    1    2  501    0 -0.71398095976E+01 -0.79818620012E+01 -0.97044231353E+03  0.10230857215E+04  0.32377681000E+03 0.  0.
         13    1    3    3    0    0 -0.55827125971E+02 -0.65820283201E+02 -0.93606302242E+03  0.94003348856E+03  0.00000000000E+00 0.  1.
          1    1    3    3  501    0  0.48687316373E+02  0.57838421200E+02 -0.34379291108E+02  0.83052232960E+02  0.00000000000E+00 0.  1.
         21    1    1    2  502  501  0.71398095976E+01  0.79818620012E+01  0.56243097889E+01  0.12096274745E+02  0.00000000000E+00 0. -1.
<mgrwt>
<rscale>  1 0.30000000E+03</rscale>
<asrwt>0</asrwt>
<pdfrwt beam="1">  1        3 0.12793480E+00 0.30000000E+03</pdfrwt>
<pdfrwt beam="2">0</pdfrwt>
<totfact> 0.18704764E+00</totfact>
</mgrwt>
</event>
<event>
 6    1  0.1839160E-004  0.3000000E+03  0.7818608E-02  0.1093470E+00
          1   -1    0    0  502    0  0.00000000000E+00  0.00000000000E+00  0.81007856485E+02  0.81007856485E+02  0.00000000000E+00 0.  1.
         13   -1    0    0    0    0 -0.00000000000E+00 -0.00000000000E+00 -0.10000000000E+04  0.10000000000E+04  0.00000000000E+00 0.  1.
    9000005    2    1    2  501    0 -0.49053007901E+01  0.52509770219E+02 -0.95655966882E+03  0.10162571275E+04  0.33910295086E+03 0.  0.
         13    1    3    3    0    0 -0.14455499105E+03 -0.38152509199E+02 -0.25854029902E+03  0.29865506125E+03  0.00000000000E+00 0.  1.
          3    1    3    3  501    0  0.13964969026E+03  0.90662279419E+02 -0.69801936980E+03  0.71760206627E+03  0.00000000000E+00 0.  1.
         21    1    1    2  502  501  0.49053007901E+01 -0.52509770219E+02  0.37567525301E+02  0.64750728965E+02  0.00000000000E+00 0.  1.
<mgrwt>
<rscale>  1 0.30000000E+03</rscale>
<asrwt>0</asrwt>
<pdfrwt beam="1">  1        1 0.29457464E+00 0.30000000E+03</pdfrwt>
<pdfrwt beam="2">0</pdfrwt>
<totfact> 0.36862045E+00</totfact>
</mgrwt>
</event>
<event>
 6    1  0.1839160E-004  0.3000000E+03  0.7818608E-02  0.1093470E+00
          1   -1    0    0  502    0  0.00000000000E+00  0.00000000000E+00  0.48813475574E+02  0.48813475574E+02  0.00000000000E+00 0.  1.
         13   -1    0    0    0    0 -0.00000000000E+00 -0.00000000000E+00 -0.10000000000E+04  0.10000000000E+04  0.00000000000E+00 0.  1.
    9000005    2    1    2  501    0  0.22745473548E+02  0.20557899223E+02 -0.96385870808E+03  0.10156386655E+04  0.31868213921E+03 0.  0.
         13    1    3    3    0    0  0.88843414905E+02 -0.25536288938E+02 -0.91855328502E+03  0.92319304149E+03  0.00000000000E+00 0.  1.
          3    1    3    3  501    0 -0.66097941357E+02  0.46094188161E+02 -0.45305423058E+02  0.92445623976E+02  0.00000000000E+00 0.  1.
         21    1    1    2  502  501 -0.22745473548E+02 -0.20557899223E+02  0.12672183654E+02  0.33174810111E+02  0.00000000000E+00 0.  1.
<mgrwt>
<rscale>  1 0.30000000E+03</rscale>
<asrwt>0</asrwt>
<pdfrwt beam="1">  1        1 0.17750392E+00 0.30000000E+03</pdfrwt>
<pdfrwt beam="2">0</pdfrwt>
<totfact> 0.13135019E+01</totfact>
</mgrwt>
</event>
<event>
 6    1  0.1839160E-004  0.3000000E+03  0.7818608E-02  0.1093470E+00
          1   -1    0    0  502    0  0.00000000000E+00  0.00000000000E+00  0.31007419229E+02  0.31007419229E+02  0.00000000000E+00 0.  1.
         13   -1    0    0    0    0 -0.00000000000E+00 -0.00000000000E+00 -0.10000000000E+04  0.10000000000E+04  0.00000000000E+00 0.  1.
    9000005    2    1    2  501    0 -0.10691935186E+02 -0.29228678236E+01 -0.95896688028E+03  0.10160616739E+04  0.33562030180E+03 0.  0.
         13    1    3    3    0    0  0.41487623615E+02 -0.16212485407E+03 -0.44165332076E+03  0.47229582569E+03  0.00000000000E+00 0.  1.
          3    1    3    3  501    0 -0.52179558801E+02  0.15920198624E+03 -0.51731355951E+03  0.54376584817E+03  0.00000000000E+00 0.  1.
         21    1    1    2  502  501  0.10691935186E+02  0.29228678236E+01 -0.10025700494E+02  0.14945745372E+02  0.00000000000E+00 0. -1.
<mgrwt>
<rscale>  1 0.30000000E+03</rscale>
<asrwt>0</asrwt>
<pdfrwt beam="1">  1        1 0.11275449E+00 0.30000000E+03</pdfrwt>
<pdfrwt beam="2">0</pdfrwt>
<totfact> 0.28615903E+01</totfact>
</mgrwt>
</event>
<event>
 6    1  0.1839160E-004  0.3000000E+03  0.7818608E-02  0.1093470E+00
          1   -1    0    0  502    0  0.00000000000E+00  0.00000000000E+00  0.55224494826E+02  0.55224494826E+02  0.00000000000E+00 0.  1.
         13   -1    0    0    0    0 -0.00000000000E+00 -0.00000000000E+00 -0.10000000000E+04  0.10000000000E+04  0.00000000000E+00 0.  1.
    9000005    2    1    2  501    0  0.88667378421E+01 -0.29189546043E+02 -0.96066142269E+03  0.10208295677E+04  0.34393602394E+03 0.  0.
         13    1    3    3    0    0  0.15237463076E+03 -0.83863002008E+02 -0.66862523196E+03  0.69087678498E+03  0.00000000000E+00 0.  1.
          3    1    3    3  501    0 -0.14350789292E+03  0.54673455966E+02 -0.29203619073E+03  0.32995278270E+03  0.00000000000E+00 0.  1.
         21    1    1    2  502  501 -0.88667378421E+01  0.29189546043E+02  0.15885917516E+02  0.34394927147E+02  0.00000000000E+00 0.  1.
<mgrwt>
<rscale>  1 0.30000000E+03</rscale>
<asrwt>0</asrwt>
<pdfrwt beam="1">  1        1 0.20081677E+00 0.30000000E+03</pdfrwt>
<pdfrwt beam="2">0</pdfrwt>
<totfact> 0.10152267E+01</totfact>
</mgrwt>
</event>
<event>
 6    1  0.1839160E-004  0.3000000E+03  0.7818608E-02  0.1093470E+00
          1   -1    0    0  502    0  0.00000000000E+00  0.00000000000E+00  0.20673855950E+02  0.20673855950E+02  0.00000000000E+00 0.  1.
         13   -1    0    0    0    0 -0.00000000000E+00 -0.00000000000E+00 -0.10000000000E+04  0.10000000000E+04  0.00000000000E+00 0.  1.
    9000005    2    1    2  501    0  0.79256997595E+01 -0.92461196638E+01 -0.92419351646E+03  0.96421224005E+03  0.27463299245E+03 0.  0.
         13    1    3    3    0    0  0.98160931537E+02 -0.17219624715E+02 -0.12483311949E+03  0.15973538017E+03  0.00000000000E+00 0.  1.
          3    1    3    3  501    0 -0.90235231778E+02  0.79735050511E+01 -0.79936039697E+03  0.80447685988E+03  0.00000000000E+00 0.  1.
         21    1    1    2  502  501 -0.79256997595E+01  0.92461196638E+01 -0.55132627588E+02  0.56461615902E+02  0.00000000000E+00 0. -1.
<mgrwt>
<rscale>  1 0.30000000E+03</rscale>
<asrwt>0</asrwt>
<pdfrwt beam="1">  1        1 0.75177817E-01 0.30000000E+03</pdfrwt>
<pdfrwt beam="2">0</pdfrwt>
<totfact> 0.51159147E+01</totfact>
</mgrwt>
</event>
<event>
 6    1  0.1839160E-004  0.3000000E+03  0.7818608E-02  0.1093470E+00
          1   -1    0    0  502    0  0.00000000000E+00  0.00000000000E+00  0.30757748350E+02  0.30757748350E+02  0.00000000000E+00 0.  1.
         13   -1    0    0    0    0 -0.00000000000E+00 -0.00000000000E+00 -0.10000000000E+04  0.10000000000E+04  0.00000000000E+00 0.  1.
    9000005    2    1    2  501    0 -0.84770536495E+01  0.10278289689E+02 -0.96030454446E+03  0.10147144854E+04  0.32754108905E+03 0.  0.
         13    1    3    3    0    0 -0.71728085256E+02  0.77192095464E+02 -0.89654704132E+03  0.90271819252E+03  0.00000000000E+00 0.  1.
          3    1    3    3  501    0  0.63251031607E+02 -0.66913805775E+02 -0.63757503141E+02  0.11199629284E+03  0.00000000000E+00 0.  1.
         21    1    1    2  502  501  0.84770536495E+01 -0.10278289689E+02 -0.89377071916E+01  0.16043262990E+02  0.00000000000E+00 0.  1.
<mgrwt>
<rscale>  1 0.30000000E+03</rscale>
<asrwt>0</asrwt>
<pdfrwt beam="1">  1        1 0.11184659E+00 0.30000000E+03</pdfrwt>
<pdfrwt beam="2">0</pdfrwt>
<totfact> 0.28970015E+01</totfact>
</mgrwt>
</event>
<event>
 6    1  0.1839160E-004  0.3000000E+03  0.7818608E-02  0.1093470E+00
          1   -1    0    0  502    0  0.00000000000E+00  0.00000000000E+00  0.72129054202E+02  0.72129054202E+02  0.00000000000E+00 0.  1.
         13   -1    0    0    0    0 -0.00000000000E+00 -0.00000000000E+00 -0.10000000000E+04  0.10000000000E+04  0.00000000000E+00 0.  1.
    9000005    2    1    2  501    0 -0.14368421636E+02 -0.93310262272E+01 -0.94604664324E+03  0.10471515530E+04  0.44858511356E+03 0.  0.
         13    1    3    3    0    0  0.19229786320E+03 -0.51595059223E+02 -0.67466067397E+03  0.70342557768E+03  0.00000000000E+00 0.  1.
          1    1    3    3  501    0 -0.20666628483E+03  0.42264032996E+02 -0.27138596926E+03  0.34372597528E+03  0.00000000000E+00 0.  1.
         21    1    1    2  502  501  0.14368421636E+02  0.93310262272E+01  0.18175697437E+02  0.24977501238E+02  0.00000000000E+00 0.  1.
<mgrwt>
<rscale>  1 0.30000000E+03</rscale>
<asrwt>0</asrwt>
<pdfrwt beam="1">  1        1 0.26228802E+00 0.30000000E+03</pdfrwt>
<pdfrwt beam="2">0</pdfrwt>
<totfact> 0.52272114E+00</totfact>
</mgrwt>
</event>
<event>
 6    1  0.1839160E-004  0.3000000E+03  0.7818608E-02  0.1093470E+00
          1   -1    0    0  502    0  0.00000000000E+00  0.00000000000E+00  0.60293308464E+02  0.60293308464E+02  0.00000000000E+00 0.  1.
         13   -1    0    0    0    0 -0.00000000000E+00 -0.00000000000E+00 -0.10000000000E+04  0.10000000000E+04  0.00000000000E+00 0.  1.
    9000005    2    1    2  501    0  0.95669455783E+01 -0.44194953226E+02 -0.94782539045E+03  0.10143516758E+04  0.35845729330E+03 0.  0.
         13    1    3    3    0    0  0.15876559920E+03 -0.26600353140E+02 -0.74357512123E+03  0.76080093007E+03  0.00000000000E+00 0.  1.
          3    1    3    3  501    0 -0.14919865362E+03 -0.17594600086E+02 -0.20425026922E+03  0.25355074575E+03  0.00000000000E+00 0.  1.
         21    1    1    2  502  501 -0.95669455783E+01  0.44194953226E+02  0.81186989093E+01  0.45941632648E+02  0.00000000000E+00 0.  1.
<mgrwt>
<rscale>  1 0.30000000E+03</rscale>
<asrwt>0</asrwt>
<pdfrwt beam="1">  1        1 0.21924886E+00 0.30000000E+03</pdfrwt>
<pdfrwt beam="2">0</pdfrwt>
<totfact> 0.83103952E+00</totfact>
</mgrwt>
</event>
<event>
 6    1  0.1839160E-004  0.3000000E+03  0.7818608E-02  0.1093470E+00
          3   -1    0    0  502    0  0.00000000000E+00  0.00000000000E+00  0.20975952548E+02  0.20975952548E+02  0.00000000000E+00 0.  1.
         13   -1    0    0    0    0 -0.00000000000E+00 -0.00000000000E+00 -0.10000000000E+04  0.10000000000E+04  0.00000000000E+00 0.  1.
    9000005    2    1    2  501    0  0.91708121017E+01 -0.93018032761E+01 -0.96178773189E+03  0.99934916561E+03  0.27109497647E+03 0.  0.
         13    1    3    3    0    0 -0.61380509230E+02 -0.91330758349E+02 -0.18646404480E+03  0.21651261935E+03  0.00000000000E+00 0.  1.
          3    1    3    3  501    0  0.70551321332E+02  0.82028955073E+02 -0.77532368709E+03  0.78283654627E+03  0.00000000000E+00 0.  1.
         21    1    1    2  502  501 -0.91708121017E+01  0.93018032761E+01 -0.17236315567E+02  0.21626786935E+02  0.00000000000E+00 0. -1.
<mgrwt>
<rscale>  1 0.30000000E+03</rscale>
<asrwt>0</asrwt>
<pdfrwt beam="1">  1        3 0.76276352E-01 0.30000000E+03</pdfrwt>
<pdfrwt beam="2">0</pdfrwt>
<totfact> 0.74326517E+00</totfact>
</mgrwt>
</event>
<event>
 6    1  0.1839160E-004  0.3000000E+03  0.7818608E-02  0.1093470E+00
          1   -1    0    0  502    0  0.00000000000E+00  0.00000000000E+00  0.33796151129E+02  0.33796151129E+02  0.00000000000E+00 0.  1.
         13   -1    0    0    0    0 -0.00000000000E+00 -0.00000000000E+00 -0.10000000000E+04  0.10000000000E+04  0.00000000000E+00 0.  1.
    9000005    2    1    2  501    0  0.31526656047E+02  0.21844617074E+02 -0.88730380864E+03  0.94606740051E+03  0.32598214697E+03 0.  0.
         13    1    3    3    0    0  0.11240957800E+03 -0.28723163405E+02 -0.10048280915E+03  0.15348527055E+03  0.00000000000E+00 0.  1.
          1    1    3    3  501    0 -0.80882921954E+02  0.50567780479E+02 -0.78682099949E+03  0.79258212996E+03  0.00000000000E+00 0.  1.
         21    1    1    2  502  501 -0.31526656047E+02 -0.21844617074E+02 -0.78900040232E+02  0.87728750620E+02  0.00000000000E+00 0. -1.
<mgrwt>
<rscale>  1 0.30000000E+03</rscale>
<asrwt>0</asrwt>
<pdfrwt beam="1">  1        1 0.12289535E+00 0.30000000E+03</pdfrwt>
<pdfrwt beam="2">0</pdfrwt>
<totfact> 0.25040125E+01</totfact>
</mgrwt>
</event>
<event>
 6    1  0.1839160E-004  0.3000000E+03  0.7818608E-02  0.1093470E+00
          1   -1    0    0  502    0  0.00000000000E+00  0.00000000000E+00  0.39881748403E+02  0.39881748403E+02  0.00000000000E+00 0.  1.
         13   -1    0    0    0    0 -0.00000000000E+00 -0.00000000000E+00 -0.10000000000E+04  0.10000000000E+04  0.00000000000E+00 0.  1.
    9000005    2    1    2  501    0 -0.37571411526E+02 -0.38835338052E+02 -0.89906026226E+03  0.95834726179E+03  0.32741460651E+03 0.  0.
         13    1    3    3    0    0  0.78325632248E+02 -0.11297313268E+03 -0.71748438117E+03  0.73053519463E+03  0.00000000000E+00 0.  1.
          3    1    3    3  501    0 -0.11589704377E+03  0.74137794629E+02 -0.18157588109E+03  0.22781206716E+03  0.00000000000E+00 0.  1.
         21    1    1    2  502  501  0.37571411526E+02  0.38835338052E+02 -0.61057989336E+02  0.81534486614E+02  0.00000000000E+00 0.  1.
<mgrwt>
<rscale>  1 0.30000000E+03</rscale>
<asrwt>0</asrwt>
<pdfrwt beam="1">  1        1 0.14502485E+00 0.30000000E+03</pdfrwt>
<pdfrwt beam="2">0</pdfrwt>
<totfact> 0.19050569E+01</totfact>
</mgrwt>
</event>
<event>
 6    1  0.1839160E-004  0.3000000E+03  0.7818608E-02  0.1093470E+00
          1   -1    0    0  502    0  0.00000000000E+00  0.00000000000E+00  0.44876831148E+02  0.44876831148E+02  0.00000000000E+00 0.  1.
         13   -1    0    0    0    0 -0.00000000000E+00 -0.00000000000E+00 -0.10000000000E+04  0.10000000000E+04  0.00000000000E+00 0.  1.
    9000005    2    1    2  501    0 -0.17280207184E+02  0.15940840149E+02 -0.96598069416E+03  0.10189808507E+04  0.32349738291E+03 0.  0.
         13    1    3    3    0    0  0.13749142815E+03 -0.62206372219E+02 -0.43977682301E+03  0.46494857739E+03  0.00000000000E+00 0.  1.
          1    1    3    3  501    0 -0.15477163534E+03  0.78147212368E+02 -0.52620387116E+03  0.55403227336E+03  0.00000000000E+00 0.  1.
         21    1    1    2  502  501  0.17280207184E+02 -0.15940840149E+02  0.10857525312E+02  0.25895980400E+02  0.00000000000E+00 0.  1.
<mgrwt>
<rscale>  1 0.30000000E+03</rscale>
<asrwt>0</asrwt>
<pdfrwt beam="1">  1        1 0.16318882E+00 0.30000000E+03</pdfrwt>
<pdfrwt beam="2">0</pdfrwt>
<totfact> 0.15431465E+01</totfact>
</mgrwt>
</event>
<event>
 6    1  0.1839160E-004  0.3000000E+03  0.7818608E-02  0.1093470E+00
          1   -1    0    0  502    0  0.00000000000E+00  0.00000000000E+00  0.34747676529E+02  0.34747676529E+02  0.00000000000E+00 0.  1.
         13   -1    0    0    0    0 -0.00000000000E+00 -0.00000000000E+00 -0.10000000000E+04  0.10000000000E+04  0.00000000000E+00 0.  1.
    9000005    2    1    2  501    0  0.35730547953E+01  0.11654972651E+02 -0.96842857066E+03  0.10221503096E+04  0.32678548586E+03 0.  0.
         13    1    3    3    0    0 -0.36590161572E+02 -0.10717542885E+03 -0.82015521358E+03  0.82793718774E+03  0.00000000000E+00 0.  1.
          3    1    3    3  501    0  0.40163216367E+02  0.11883040151E+03 -0.14827335708E+03  0.19421312183E+03  0.00000000000E+00 0.  1.
         21    1    1    2  502  501 -0.35730547953E+01 -0.11654972651E+02  0.31762471936E+01  0.12597366959E+02  0.00000000000E+00 0.  1.
<mgrwt>
<rscale>  1 0.30000000E+03</rscale>
<asrwt>0</asrwt>
<pdfrwt beam="1">  1        1 0.12635545E+00 0.30000000E+03</pdfrwt>
<pdfrwt beam="2">0</pdfrwt>
<totfact> 0.23956836E+01</totfact>
</mgrwt>
</event>
<event>
 6    1  0.1839160E-004  0.3000000E+03  0.7818608E-02  0.1093470E+00
          1   -1    0    0  502    0  0.00000000000E+00  0.00000000000E+00  0.34688578931E+02  0.34688578931E+02  0.00000000000E+00 0.  1.
         13   -1    0    0    0    0 -0.00000000000E+00 -0.00000000000E+00 -0.10000000000E+04  0.10000000000E+04  0.00000000000E+00 0.  1.
    9000005    2    1    2  501    0  0.42875651974E+02 -0.25583108290E+01 -0.84260686272E+03  0.90468367469E+03  0.32652926311E+03 0.  0.
         13    1    3    3    0    0  0.60186824270E+02 -0.12364503758E+03 -0.71429192791E+03  0.72740876226E+03  0.00000000000E+00 0.  1.
          1    1    3    3  501    0 -0.17311172295E+02  0.12108672675E+03 -0.12831493481E+03  0.17727491243E+03  0.00000000000E+00 0.  1.
         21    1    1    2  502  501 -0.42875651974E+02  0.25583108290E+01 -0.12270455835E+03  0.13000490424E+03  0.00000000000E+00 0.  1.
<mgrwt>
<rscale>  1 0.30000000E+03</rscale>
<asrwt>0</asrwt>
<pdfrwt beam="1">  1        1 0.12614055E+00 0.30000000E+03</pdfrwt>
<pdfrwt beam="2">0</pdfrwt>
<totfact> 0.24022357E+01</totfact>
</mgrwt>
</event>
<event>
 6    1  0.1839160E-004  0.3000000E+03  0.7818608E-02  0.1093470E+00
          1   -1    0    0  502    0  0.00000000000E+00  0.00000000000E+00  0.32201649645E+02  0.32201649645E+02  0.00000000000E+00 0.  1.
         13   -1    0    0    0    0 -0.00000000000E+00 -0.00000000000E+00 -0.10000000000E+04  0.10000000000E+04  0.00000000000E+00 0.  1.
    9000005    2    1    2  501    0  0.18460078919E+02  0.33073754642E+01 -0.94882758606E+03  0.10055257590E+04  0.33235004229E+03 0.  0.
         13    1    3    3    0    0 -0.22873666476E+02 -0.83706937418E+02 -0.88661340056E+03  0.89084980667E+03  0.00000000000E+00 0.  1.
          1    1    3    3  501    0  0.41333745395E+02  0.87014312882E+02 -0.62214185495E+02  0.11467595228E+03  0.00000000000E+00 0.  1.
         21    1    1    2  502  501 -0.18460078919E+02 -0.33073754642E+01 -0.18970764296E+02  0.26675890690E+02  0.00000000000E+00 0.  1.
<mgrwt>
<rscale>  1 0.30000000E+03</rscale>
<asrwt>0</asrwt>
<pdfrwt beam="1">  1        1 0.11709715E+00 0.30000000E+03</pdfrwt>
<pdfrwt beam="2">0</pdfrwt>
<totfact> 0.27004139E+01</totfact>
</mgrwt>
</event>
<event>
 6    1  0.1839160E-004  0.3000000E+03  0.7818608E-02  0.1093470E+00
          1   -1    0    0  502    0  0.00000000000E+00  0.00000000000E+00  0.35686324416E+02  0.35686324416E+02  0.00000000000E+00 0.  1.
         13   -1    0    0    0    0 -0.00000000000E+00 -0.00000000000E+00 -0.10000000000E+04  0.10000000000E+04  0.00000000000E+00 0.  1.
    9000005    2    1    2  501    0 -0.11879690657E+02  0.16718298110E+01 -0.97059388388E+03  0.10221451619E+04  0.32028787457E+03 0.  0.
         13    1    3    3    0    0  0.11664292345E+02 -0.13386636789E+03 -0.21071532456E+03  0.24991440169E+03  0.00000000000E+00 0.  1.
          3    1    3    3  501    0 -0.23543983002E+02  0.13553819770E+03 -0.75987855931E+03  0.77223076025E+03  0.00000000000E+00 0.  1.
         21    1    1    2  502  501  0.11879690657E+02 -0.16718298110E+01  0.62802082928E+01  0.13541162476E+02  0.00000000000E+00 0.  1.
<mgrwt>
<rscale>  1 0.30000000E+03</rscale>
<asrwt>0</asrwt>
<pdfrwt beam="1">  1        1 0.12976873E+00 0.30000000E+03</pdfrwt>
<pdfrwt beam="2">0</pdfrwt>
<totfact> 0.22946245E+01</totfact>
</mgrwt>
</event>
<event>
 6    1  0.1839160E-004  0.3000000E+03  0.7818608E-02  0.1093470E+00
          1   -1    0    0  502    0  0.00000000000E+00  0.00000000000E+00  0.47087129853E+02  0.47087129853E+02  0.00000000000E+00 0.  1.
         13   -1    0    0    0    0 -0.00000000000E+00 -0.00000000000E+00 -0.10000000000E+04  0.10000000000E+04  0.00000000000E+00 0.  1.
    9000005    2    1    2  501    0  0.28575827736E+02 -0.66326649111E+02 -0.91151292965E+03  0.96384196551E+03  0.30482734663E+03 0.  0.
         13    1    3    3    0    0  0.96252999958E+02 -0.16091707824E+03 -0.67062199581E+03  0.69634244976E+03  0.00000000000E+00 0.  1.
          1    1    3    3  501    0 -0.67677172222E+02  0.94590429131E+02 -0.24089093383E+03  0.26749951575E+03  0.00000000000E+00 0.  1.
         21    1    1    2  502  501 -0.28575827736E+02  0.66326649111E+02 -0.41399940502E+02  0.83245164344E+02  0.00000000000E+00 0.  1.
<mgrwt>
<rscale>  1 0.30000000E+03</rscale>
<asrwt>0</asrwt>
<pdfrwt beam="1">  1        1 0.17122629E+00 0.30000000E+03</pdfrwt>
<pdfrwt beam="2">0</pdfrwt>
<totfact> 0.14091544E+01</totfact>
</mgrwt>
</event>
<event>
 6    1  0.1839160E-004  0.3000000E+03  0.7818608E-02  0.1093470E+00
          1   -1    0    0  502    0  0.00000000000E+00  0.00000000000E+00  0.49479027110E+02  0.49479027110E+02  0.00000000000E+00 0.  1.
         13   -1    0    0    0    0 -0.00000000000E+00 -0.00000000000E+00 -0.10000000000E+04  0.10000000000E+04  0.00000000000E+00 0.  1.
    9000005    2    1    2  501    0 -0.16933438483E+02 -0.60946197821E+01 -0.97095864452E+03  0.10222469844E+04  0.31922456357E+03 0.  0.
         13    1    3    3    0    0 -0.91658343609E+02  0.71159701968E+01 -0.63760535043E+02  0.11188071690E+03  0.00000000000E+00 0.  1.
          1    1    3    3  501    0  0.74724905126E+02 -0.13210589979E+02 -0.90719810948E+03  0.91036626749E+03  0.00000000000E+00 0.  1.
         21    1    1    2  502  501  0.16933438483E+02  0.60946197821E+01  0.20437671633E+02  0.27232042724E+02  0.00000000000E+00 0.  1.
<mgrwt>
<rscale>  1 0.30000000E+03</rscale>
<asrwt>0</asrwt>
<pdfrwt beam="1">  1        1 0.17992411E+00 0.30000000E+03</pdfrwt>
<pdfrwt beam="2">0</pdfrwt>
<totfact> 0.12785251E+01</totfact>
</mgrwt>
</event>
<event>
 6    1  0.1839160E-004  0.3000000E+03  0.7818608E-02  0.1093470E+00
          1   -1    0    0  502    0  0.00000000000E+00  0.00000000000E+00  0.41793129354E+02  0.41793129354E+02  0.00000000000E+00 0.  1.
         13   -1    0    0    0    0 -0.00000000000E+00 -0.00000000000E+00 -0.10000000000E+04  0.10000000000E+04  0.00000000000E+00 0.  1.
    9000005    2    1    2  501    0  0.16564097591E+01 -0.18454999520E+02 -0.96113630640E+03  0.10230338038E+04  0.34995975996E+03 0.  0.
         13    1    3    3    0    0  0.14055890636E+03  0.41283268801E+02 -0.74494787004E+03  0.75921567655E+03  0.00000000000E+00 0.  1.
          3    1    3    3  501    0 -0.13890249660E+03 -0.59738268321E+02 -0.21618843635E+03  0.26381812727E+03  0.00000000000E+00 0.  1.
         21    1    1    2  502  501 -0.16564097591E+01  0.18454999520E+02  0.29294357503E+01  0.18759325531E+02  0.00000000000E+00 0.  1.
<mgrwt>
<rscale>  1 0.30000000E+03</rscale>
<asrwt>0</asrwt>
<pdfrwt beam="1">  1        1 0.15197534E+00 0.30000000E+03</pdfrwt>
<pdfrwt beam="2">0</pdfrwt>
<totfact> 0.17555323E+01</totfact>
</mgrwt>
</event>
<event>
 6    1  0.1839160E-004  0.3000000E+03  0.7818608E-02  0.1093470E+00
          1   -1    0    0  502    0  0.00000000000E+00  0.00000000000E+00  0.36443957462E+02  0.36443957462E+02  0.00000000000E+00 0.  1.
         13   -1    0    0    0    0 -0.00000000000E+00 -0.00000000000E+00 -0.10000000000E+04  0.10000000000E+04  0.00000000000E+00 0.  1.
    9000005    2    1    2  501    0  0.15709759553E+02  0.90882931055E+01 -0.96464872057E+03  0.10182618904E+04  0.32554681654E+03 0.  0.
         13    1    3    3    0    0 -0.21712742093E+01  0.69435241309E+02 -0.95141186706E+03  0.95394470907E+03  0.00000000000E+00 0.  1.
          3    1    3    3  501    0  0.17881033762E+02 -0.60346948204E+02 -0.13236853505E+02  0.64317181348E+02  0.00000000000E+00 0.  1.
         21    1    1    2  502  501 -0.15709759553E+02 -0.90882931055E+01  0.10926780319E+01  0.18182067046E+02  0.00000000000E+00 0.  1.
<mgrwt>
<rscale>  1 0.30000000E+03</rscale>
<asrwt>0</asrwt>
<pdfrwt beam="1">  1        1 0.13252376E+00 0.30000000E+03</pdfrwt>
<pdfrwt beam="2">0</pdfrwt>
<totfact> 0.22170540E+01</totfact>
</mgrwt>
</event>
<event>
 6    1  0.1839160E-004  0.3000000E+03  0.7818608E-02  0.1093470E+00
          1   -1    0    0  502    0  0.00000000000E+00  0.00000000000E+00  0.41148540659E+02  0.41148540659E+02  0.00000000000E+00 0.  1.
         13   -1    0    0    0    0 -0.00000000000E+00 -0.00000000000E+00 -0.10000000000E+04  0.10000000000E+04  0.00000000000E+00 0.  1.
    9000005    2    1    2  501    0  0.10772745869E+02 -0.53322583439E+02 -0.87937310534E+03  0.94483572369E+03  0.34125963196E+03 0.  0.
         13    1    3    3    0    0  0.13706367493E+03  0.79029036005E+02 -0.33354970691E+03  0.36917129696E+03  0.00000000000E+00 0.  1.
          1    1    3    3  501    0 -0.12629092906E+03 -0.13235161944E+03 -0.54582339843E+03  0.57566442673E+03  0.00000000000E+00 0.  1.
         21    1    1    2  502  501 -0.10772745869E+02  0.53322583439E+02 -0.79478354002E+02  0.96312816971E+02  0.00000000000E+00 0. -1.
<mgrwt>
<rscale>  1 0.30000000E+03</rscale>
<asrwt>0</asrwt>
<pdfrwt beam="1">  1        1 0.14963137E+00 0.30000000E+03</pdfrwt>
<pdfrwt beam="2">0</pdfrwt>
<totfact> 0.18042699E+01</totfact>
</mgrwt>
</event>
<event>
 6    1  0.1839160E-004  0.3000000E+03  0.7818608E-02  0.1093470E+00
          1   -1    0    0  502    0  0.00000000000E+00  0.00000000000E+00  0.44202684371E+02  0.44202684371E+02  0.00000000000E+00 0.  1.
         13   -1    0    0    0    0 -0.00000000000E+00 -0.00000000000E+00 -0.10000000000E+04  0.10000000000E+04  0.00000000000E+00 0.  1.
    9000005    2    1    2  501    0 -0.41175779265E+02  0.37562467411E+02 -0.91627098015E+03  0.97587468899E+03  0.33116841001E+03 0.  0.
         13    1    3    3    0    0 -0.12712854704E+03 -0.72302967893E+02 -0.20968145617E+03  0.25564760844E+03  0.00000000000E+00 0.  1.
          1    1    3    3  501    0  0.85952767775E+02  0.10986543530E+03 -0.70658952398E+03  0.72022708055E+03  0.00000000000E+00 0.  1.
         21    1    1    2  502  501  0.41175779265E+02 -0.37562467411E+02 -0.39526335475E+02  0.68327995376E+02  0.00000000000E+00 0.  1.
<mgrwt>
<rscale>  1 0.30000000E+03</rscale>
<asrwt>0</asrwt>
<pdfrwt beam="1">  1        1 0.16073737E+00 0.30000000E+03</pdfrwt>
<pdfrwt beam="2">0</pdfrwt>
<totfact> 0.15868726E+01</totfact>
</mgrwt>
</event>
<event>
 6    1  0.1839160E-004  0.3000000E+03  0.7818608E-02  0.1093470E+00
          1   -1    0    0  502    0  0.00000000000E+00  0.00000000000E+00  0.38306232826E+02  0.38306232826E+02  0.00000000000E+00 0.  1.
         13   -1    0    0    0    0 -0.00000000000E+00 -0.00000000000E+00 -0.10000000000E+04  0.10000000000E+04  0.00000000000E+00 0.  1.
    9000005    2    1    2  501    0  0.11263976944E+02 -0.10206512121E+02 -0.95542922916E+03  0.10218655971E+04  0.36212323393E+03 0.  0.
         13    1    3    3    0    0 -0.11733073124E+03  0.12671172278E+03 -0.40548488014E+03  0.44072706884E+03  0.00000000000E+00 0.  1.
          3    1    3    3  501    0  0.12859470818E+03 -0.13691823491E+03 -0.54994434902E+03  0.58113852827E+03  0.00000000000E+00 0.  1.
         21    1    1    2  502  501 -0.11263976944E+02  0.10206512121E+02 -0.62645380137E+01  0.16440635718E+02  0.00000000000E+00 0.  1.
<mgrwt>
<rscale>  1 0.30000000E+03</rscale>
<asrwt>0</asrwt>
<pdfrwt beam="1">  1        1 0.13929569E+00 0.30000000E+03</pdfrwt>
<pdfrwt beam="2">0</pdfrwt>
<totfact> 0.20405221E+01</totfact>
</mgrwt>
</event>
<event>
 6    1  0.1839160E-004  0.3000000E+03  0.7818608E-02  0.1093470E+00
          1   -1    0    0  502    0  0.00000000000E+00  0.00000000000E+00  0.37916380048E+02  0.37916380048E+02  0.00000000000E+00 0.  1.
         13   -1    0    0    0    0 -0.00000000000E+00 -0.00000000000E+00 -0.10000000000E+04  0.10000000000E+04  0.00000000000E+00 0.  1.
    9000005    2    1    2  501    0  0.22288184108E+01 -0.99783146021E+01 -0.97267121155E+03  0.10231979736E+04  0.31739608209E+03 0.  0.
         13    1    3    3    0    0  0.89618030220E+02  0.12553961966E+03 -0.53389851550E+03  0.55573304050E+03  0.00000000000E+00 0.  1.
          3    1    3    3  501    0 -0.87389211809E+02 -0.13551793426E+03 -0.43877269605E+03  0.46746493306E+03  0.00000000000E+00 0.  1.
         21    1    1    2  502  501 -0.22288184108E+01  0.99783146021E+01  0.10587591595E+02  0.14718406490E+02  0.00000000000E+00 0.  1.
<mgrwt>
<rscale>  1 0.30000000E+03</rscale>
<asrwt>0</asrwt>
<pdfrwt beam="1">  1        1 0.13787804E+00 0.30000000E+03</pdfrwt>
<pdfrwt beam="2">0</pdfrwt>
<totfact> 0.20759181E+01</totfact>
</mgrwt>
</event>
<event>
 6    1  0.1839160E-004  0.3000000E+03  0.7818608E-02  0.1093470E+00
          3   -1    0    0  502    0  0.00000000000E+00  0.00000000000E+00  0.29611783767E+02  0.29611783767E+02  0.00000000000E+00 0.  1.
         13   -1    0    0    0    0 -0.00000000000E+00 -0.00000000000E+00 -0.10000000000E+04  0.10000000000E+04  0.00000000000E+00 0.  1.
    9000005    2    1    2  501    0 -0.38503590409E+01 -0.90102104556E+01 -0.96478031912E+03  0.10183220687E+04  0.32570348816E+03 0.  0.
         13    1    3    3    0    0  0.11592810649E+03  0.49791584989E+02 -0.78147575383E+03  0.79159515009E+03  0.00000000000E+00 0.  1.
          1    1    3    3  501    0 -0.11977846553E+03 -0.58801795444E+02 -0.18330456529E+03  0.22672691857E+03  0.00000000000E+00 0.  1.
         21    1    1    2  502  501  0.38503590409E+01  0.90102104556E+01 -0.56078971136E+01  0.11289715109E+02  0.00000000000E+00 0.  1.
<mgrwt>
<rscale>  1 0.30000000E+03</rscale>
<asrwt>0</asrwt>
<pdfrwt beam="1">  1        3 0.10767944E+00 0.30000000E+03</pdfrwt>
<pdfrwt beam="2">0</pdfrwt>
<totfact> 0.32027640E+00</totfact>
</mgrwt>
</event>
<event>
 6    1  0.1839160E-004  0.3000000E+03  0.7818608E-02  0.1093470E+00
          1   -1    0    0  502    0  0.00000000000E+00  0.00000000000E+00  0.34946344212E+02  0.34946344212E+02  0.00000000000E+00 0.  1.
         13   -1    0    0    0    0 -0.00000000000E+00 -0.00000000000E+00 -0.10000000000E+04  0.10000000000E+04  0.00000000000E+00 0.  1.
    9000005    2    1    2  501    0 -0.26046290544E+02 -0.16613815076E+02 -0.93689888369E+03  0.99314778808E+03  0.32803747136E+03 0.  0.
         13    1    3    3    0    0 -0.17747619847E+03 -0.12210001427E+02 -0.49381911964E+03  0.52488494747E+03  0.00000000000E+00 0.  1.
          3    1    3    3  501    0  0.15142990793E+03 -0.44038136493E+01 -0.44307976404E+03  0.46826284061E+03  0.00000000000E+00 0.  1.
         21    1    1    2  502  501  0.26046290544E+02  0.16613815076E+02 -0.28154772102E+02  0.41798556131E+02  0.00000000000E+00 0.  1.
<mgrwt>
<rscale>  1 0.30000000E+03</rscale>
<asrwt>0</asrwt>
<pdfrwt beam="1">  1        1 0.12707788E+00 0.30000000E+03</pdfrwt>
<pdfrwt beam="2">0</pdfrwt>
<totfact> 0.23738241E+01</totfact>
</mgrwt>
</event>
<event>
 6    1  0.1839160E-004  0.3000000E+03  0.7818608E-02  0.1093470E+00
          1   -1    0    0  502    0  0.00000000000E+00  0.00000000000E+00  0.26205819639E+02  0.26205819639E+02  0.00000000000E+00 0.  1.
         13   -1    0    0    0    0 -0.00000000000E+00 -0.00000000000E+00 -0.10000000000E+04  0.10000000000E+04  0.00000000000E+00 0.  1.
    9000005    2    1    2  501    0 -0.60299276097E+01  0.75564773918E+01 -0.95967607279E+03  0.10090949652E+04  0.31177078723E+03 0.  0.
         13    1    3    3    0    0 -0.69872819620E+02 -0.86071955632E+02 -0.82791375166E+03  0.83530340156E+03  0.00000000000E+00 0.  1.
          1    1    3    3  501    0  0.63842892011E+02  0.93628433024E+02 -0.13176232114E+03  0.17379156367E+03  0.00000000000E+00 0.  1.
         21    1    1    2  502  501  0.60299276097E+01 -0.75564773918E+01 -0.14118107567E+02  0.17110854415E+02  0.00000000000E+00 0.  1.
<mgrwt>
<rscale>  1 0.30000000E+03</rscale>
<asrwt>0</asrwt>
<pdfrwt beam="1">  1        1 0.95294091E-01 0.30000000E+03</pdfrwt>
<pdfrwt beam="2">0</pdfrwt>
<totfact> 0.36707308E+01</totfact>
</mgrwt>
</event>
<event>
 6    1  0.1839160E-004  0.3000000E+03  0.7818608E-02  0.1093470E+00
          1   -1    0    0  502    0  0.00000000000E+00  0.00000000000E+00  0.33998161594E+02  0.33998161594E+02  0.00000000000E+00 0.  1.
         13   -1    0    0    0    0 -0.00000000000E+00 -0.00000000000E+00 -0.10000000000E+04  0.10000000000E+04  0.00000000000E+00 0.  1.
    9000005    2    1    2  501    0  0.22142691091E+02  0.28355018128E+02 -0.90472059569E+03  0.96293694481E+03  0.32777110549E+03 0.  0.
         13    1    3    3    0    0 -0.22963832507E+02  0.11951567945E+03 -0.82440504594E+03  0.83333967565E+03  0.00000000000E+00 0.  1.
          1    1    3    3  501    0  0.45106523598E+02 -0.91160661318E+02 -0.80315549745E+02  0.12959726916E+03  0.00000000000E+00 0.  1.
         21    1    1    2  502  501 -0.22142691091E+02 -0.28355018128E+02 -0.61281242718E+02  0.71061216784E+02  0.00000000000E+00 0.  1.
<mgrwt>
<rscale>  1 0.30000000E+03</rscale>
<asrwt>0</asrwt>
<pdfrwt beam="1">  1        1 0.12362994E+00 0.30000000E+03</pdfrwt>
<pdfrwt beam="2">0</pdfrwt>
<totfact> 0.24804970E+01</totfact>
</mgrwt>
</event>
<event>
 6    1  0.1839160E-004  0.3000000E+03  0.7818608E-02  0.1093470E+00
          1   -1    0    0  502    0  0.00000000000E+00  0.00000000000E+00  0.88010750683E+02  0.88010750683E+02  0.00000000000E+00 0.  1.
         13   -1    0    0    0    0 -0.00000000000E+00 -0.00000000000E+00 -0.10000000000E+04  0.10000000000E+04  0.00000000000E+00 0.  1.
    9000005    2    1    2  501    0  0.90945142390E+02  0.56500529681E+02 -0.92335564353E+03  0.98034216800E+03  0.31148321488E+03 0.  0.
         13    1    3    3    0    0  0.12540125648E+03 -0.99829001251E+02 -0.34812683620E+03  0.38325396110E+03  0.00000000000E+00 0.  1.
          3    1    3    3  501    0 -0.34456114090E+02  0.15632953093E+03 -0.57522880733E+03  0.59708820691E+03  0.00000000000E+00 0.  1.
         21    1    1    2  502  501 -0.90945142390E+02 -0.56500529681E+02  0.11366394212E+02  0.10766858268E+03  0.00000000000E+00 0.  1.
<mgrwt>
<rscale>  1 0.30000000E+03</rscale>
<asrwt>0</asrwt>
<pdfrwt beam="1">  1        1 0.32003977E+00 0.30000000E+03</pdfrwt>
<pdfrwt beam="2">0</pdfrwt>
<totfact> 0.27833208E+00</totfact>
</mgrwt>
</event>
<event>
 6    1  0.1839160E-004  0.3000000E+03  0.7818608E-02  0.1093470E+00
          1   -1    0    0  502    0  0.00000000000E+00  0.00000000000E+00  0.48696780942E+02  0.48696780942E+02  0.00000000000E+00 0.  1.
         13   -1    0    0    0    0 -0.00000000000E+00 -0.00000000000E+00 -0.10000000000E+04  0.10000000000E+04  0.00000000000E+00 0.  1.
    9000005    2    1    2  501    0  0.29213601946E+01  0.66500006374E+02 -0.91251430478E+03  0.97165546045E+03  0.32711036698E+03 0.  0.
         13    1    3    3    0    0  0.86324324181E+02 -0.86396428261E+02 -0.17209650806E+03  0.21102947626E+03  0.00000000000E+00 0.  1.
          1    1    3    3  501    0 -0.83402963986E+02  0.15289643464E+03 -0.74041779672E+03  0.76062598419E+03  0.00000000000E+00 0.  1.
         21    1    1    2  502  501 -0.29213601946E+01 -0.66500006374E+02 -0.38788914275E+02  0.77041320496E+02  0.00000000000E+00 0.  1.
<mgrwt>
<rscale>  1 0.30000000E+03</rscale>
<asrwt>0</asrwt>
<pdfrwt beam="1">  1        1 0.17707958E+00 0.30000000E+03</pdfrwt>
<pdfrwt beam="2">0</pdfrwt>
<totfact> 0.13197411E+01</totfact>
</mgrwt>
</event>
<event>
 6    1  0.1839160E-004  0.3000000E+03  0.7818608E-02  0.1093470E+00
          1   -1    0    0  502    0  0.00000000000E+00  0.00000000000E+00  0.29105125501E+02  0.29105125501E+02  0.00000000000E+00 0.  1.
         13   -1    0    0    0    0 -0.00000000000E+00 -0.00000000000E+00 -0.10000000000E+04  0.10000000000E+04  0.00000000000E+00 0.  1.
    9000005    2    1    2  501    0 -0.80463672870E+01  0.85739922315E+01 -0.96284864208E+03  0.10148573458E+04  0.32049909121E+03 0.  0.
         13    1    3    3    0    0 -0.97222252483E+02  0.10622568861E+03 -0.23900736918E+03  0.27903509783E+03  0.00000000000E+00 0.  1.
          1    1    3    3  501    0  0.89175885196E+02 -0.97651696374E+02 -0.72384127290E+03  0.73582224801E+03  0.00000000000E+00 0.  1.
         21    1    1    2  502  501  0.80463672870E+01 -0.85739922315E+01 -0.80462324183E+01  0.14247779667E+02  0.00000000000E+00 0.  1.
<mgrwt>
<rscale>  1 0.30000000E+03</rscale>
<asrwt>0</asrwt>
<pdfrwt beam="1">  1        1 0.10583704E+00 0.30000000E+03</pdfrwt>
<pdfrwt beam="2">0</pdfrwt>
<totfact> 0.31478797E+01</totfact>
</mgrwt>
</event>
<event>
 6    1  0.1839160E-004  0.3000000E+03  0.7818608E-02  0.1093470E+00
          1   -1    0    0  502    0  0.00000000000E+00  0.00000000000E+00  0.51766626791E+02  0.51766626791E+02  0.00000000000E+00 0.  1.
         13   -1    0    0    0    0 -0.00000000000E+00 -0.00000000000E+00 -0.10000000000E+04  0.10000000000E+04  0.00000000000E+00 0.  1.
    9000005    2    1    2  501    0  0.98500866522E+02  0.26065388182E+02 -0.83722966367E+03  0.90108932691E+03  0.31721702379E+03 0.  0.
         13    1    3    3    0    0  0.53257141416E+01  0.16541644826E+03 -0.40848211144E+03  0.44073642912E+03  0.00000000000E+00 0.  1.
          3    1    3    3  501    0  0.93175152380E+02 -0.13935106008E+03 -0.42874755222E+03  0.46035289779E+03  0.00000000000E+00 0.  1.
         21    1    1    2  502  501 -0.98500866522E+02 -0.26065388182E+02 -0.11100370954E+03  0.15067729988E+03  0.00000000000E+00 0. -1.
<mgrwt>
<rscale>  1 0.30000000E+03</rscale>
<asrwt>0</asrwt>
<pdfrwt beam="1">  1        1 0.18824268E+00 0.30000000E+03</pdfrwt>
<pdfrwt beam="2">0</pdfrwt>
<totfact> 0.11658327E+01</totfact>
</mgrwt>
</event>
<event>
 6    1  0.1839160E-004  0.3000000E+03  0.7818608E-02  0.1093470E+00
          1   -1    0    0  502    0  0.00000000000E+00  0.00000000000E+00  0.73691928404E+02  0.73691928404E+02  0.00000000000E+00 0.  1.
         13   -1    0    0    0    0 -0.00000000000E+00 -0.00000000000E+00 -0.10000000000E+04  0.10000000000E+04  0.00000000000E+00 0.  1.
    9000005    2    1    2  501    0  0.37852413361E+02 -0.23344749250E+02 -0.96192855863E+03  0.10167129708E+04  0.32622221038E+03 0.  0.
         13    1    3    3    0    0 -0.42860166474E+02 -0.12278145278E+03 -0.79880068765E+03  0.80931750111E+03  0.00000000000E+00 0.  1.
          1    1    3    3  501    0  0.80712579835E+02  0.99436703527E+02 -0.16312787098E+03  0.20739546967E+03  0.00000000000E+00 0.  1.
         21    1    1    2  502  501 -0.37852413361E+02  0.23344749250E+02  0.35620487032E+02  0.56978957617E+02  0.00000000000E+00 0.  1.
<mgrwt>
<rscale>  1 0.30000000E+03</rscale>
<asrwt>0</asrwt>
<pdfrwt beam="1">  1        1 0.26797121E+00 0.30000000E+03</pdfrwt>
<pdfrwt beam="2">0</pdfrwt>
<totfact> 0.49147640E+00</totfact>
</mgrwt>
</event>
<event>
 6    1  0.1839160E-004  0.3000000E+03  0.7818608E-02  0.1093470E+00
          3   -1    0    0  502    0  0.00000000000E+00  0.00000000000E+00  0.30659431037E+02  0.30659431037E+02  0.00000000000E+00 0.  1.
         13   -1    0    0    0    0 -0.00000000000E+00 -0.00000000000E+00 -0.10000000000E+04  0.10000000000E+04  0.00000000000E+00 0.  1.
    9000005    2    1    2  501    0  0.82947333563E+01 -0.17482010922E+02 -0.94762363409E+03  0.10015725170E+04  0.32370130002E+03 0.  0.
         13    1    3    3    0    0  0.35401810072E+02 -0.11270539995E+03 -0.12123457705E+03  0.16927379598E+03  0.00000000000E+00 0.  1.
          1    1    3    3  501    0 -0.27107076716E+02  0.95223389028E+02 -0.82638905704E+03  0.83229872103E+03  0.00000000000E+00 0.  1.
         21    1    1    2  502  501 -0.82947333563E+01  0.17482010922E+02 -0.21716934870E+02  0.29086914024E+02  0.00000000000E+00 0.  1.
<mgrwt>
<rscale>  1 0.30000000E+03</rscale>
<asrwt>0</asrwt>
<pdfrwt beam="1">  1        3 0.11148908E+00 0.30000000E+03</pdfrwt>
<pdfrwt beam="2">0</pdfrwt>
<totfact> 0.28980614E+00</totfact>
</mgrwt>
</event>
<event>
 6    1  0.1839160E-004  0.3000000E+03  0.7818608E-02  0.1093470E+00
          1   -1    0    0  502    0  0.00000000000E+00  0.00000000000E+00  0.28764135689E+02  0.28764135689E+02  0.00000000000E+00 0.  1.
         13   -1    0    0    0    0 -0.00000000000E+00 -0.00000000000E+00 -0.10000000000E+04  0.10000000000E+04  0.00000000000E+00 0.  1.
    9000005    2    1    2  501    0 -0.61044581091E+01  0.74050190634E+01 -0.94619764718E+03  0.10019497546E+04  0.32942559782E+03 0.  0.
         13    1    3    3    0    0  0.10307318600E+03  0.12961916678E+03 -0.46443090505E+03  0.49307329641E+03  0.00000000000E+00 0.  1.
          1    1    3    3  501    0 -0.10917764411E+03 -0.12221414772E+03 -0.48176674213E+03  0.50887645818E+03  0.00000000000E+00 0.  1.
         21    1    1    2  502  501  0.61044581091E+01 -0.74050190634E+01 -0.25038217135E+02  0.26814381093E+02  0.00000000000E+00 0.  1.
<mgrwt>
<rscale>  1 0.30000000E+03</rscale>
<asrwt>0</asrwt>
<pdfrwt beam="1">  1        1 0.10459708E+00 0.30000000E+03</pdfrwt>
<pdfrwt beam="2">0</pdfrwt>
<totfact> 0.32035017E+01</totfact>
</mgrwt>
</event>
<event>
 6    1  0.1839160E-004  0.3000000E+03  0.7818608E-02  0.1093470E+00
          1   -1    0    0  502    0  0.00000000000E+00  0.00000000000E+00  0.35584961618E+02  0.35584961618E+02  0.00000000000E+00 0.  1.
         13   -1    0    0    0    0 -0.00000000000E+00 -0.00000000000E+00 -0.10000000000E+04  0.10000000000E+04  0.00000000000E+00 0.  1.
    9000005    2    1    2  501    0 -0.25139171197E+02 -0.32265861552E+01 -0.95346481686E+03  0.10079752507E+04  0.32600085921E+03 0.  0.
         13    1    3    3    0    0 -0.81104787905E+02 -0.19618582162E+02 -0.94543268598E+03  0.94910791752E+03  0.00000000000E+00 0.  1.
          3    1    3    3  501    0  0.55965616708E+02  0.16391996007E+02 -0.80321308834E+01  0.58867333158E+02  0.00000000000E+00 0.  1.
         21    1    1    2  502  501  0.25139171197E+02  0.32265861552E+01 -0.10950221520E+02  0.27609710937E+02  0.00000000000E+00 0. -1.
<mgrwt>
<rscale>  1 0.30000000E+03</rscale>
<asrwt>0</asrwt>
<pdfrwt beam="1">  1        1 0.12940013E+00 0.30000000E+03</pdfrwt>
<pdfrwt beam="2">0</pdfrwt>
<totfact> 0.23052694E+01</totfact>
</mgrwt>
</event>
<event>
 6    1  0.1839160E-004  0.3000000E+03  0.7818608E-02  0.1093470E+00
          3   -1    0    0  502    0  0.00000000000E+00  0.00000000000E+00  0.27876724159E+02  0.27876724159E+02  0.00000000000E+00 0.  1.
         13   -1    0    0    0    0 -0.00000000000E+00 -0.00000000000E+00 -0.10000000000E+04  0.10000000000E+04  0.00000000000E+00 0.  1.
    9000005    2    1    2  501    0 -0.14549562935E+02  0.19554605790E+02 -0.90024869401E+03  0.95198187649E+03  0.30858987299E+03 0.  0.
         13    1    3    3    0    0  0.50757644752E+01  0.19081846461E+02 -0.92226967410E+03  0.92248101987E+03  0.00000000000E+00 0.  1.
          3    1    3    3  501    0 -0.19625327410E+02  0.47275932909E+00  0.22020980090E+02  0.29500856623E+02  0.00000000000E+00 0.  1.
         21    1    1    2  502  501  0.14549562935E+02 -0.19554605790E+02 -0.71874581831E+02  0.75894847668E+02  0.00000000000E+00 0. -1.
<mgrwt>
<rscale>  1 0.30000000E+03</rscale>
<asrwt>0</asrwt>
<pdfrwt beam="1">  1        3 0.10137012E+00 0.30000000E+03</pdfrwt>
<pdfrwt beam="2">0</pdfrwt>
<totfact> 0.37787748E+00</totfact>
</mgrwt>
</event>
<event>
 6    1  0.1839160E-004  0.3000000E+03  0.7818608E-02  0.1093470E+00
          1   -1    0    0  502    0  0.00000000000E+00  0.00000000000E+00  0.49613627320E+02  0.49613627320E+02  0.00000000000E+00 0.  1.
         13   -1    0    0    0    0 -0.00000000000E+00 -0.00000000000E+00 -0.10000000000E+04  0.10000000000E+04  0.00000000000E+00 0.  1.
    9000005    2    1    2  501    0  0.94594308939E+01 -0.58705674938E+01 -0.97242786899E+03  0.10249200663E+04  0.32360660924E+03 0.  0.
         13    1    3    3    0    0  0.13411495368E+03 -0.78514026908E+02 -0.69562253906E+03  0.71277064338E+03  0.00000000000E+00 0.  1.
          1    1    3    3  501    0 -0.12465552279E+03  0.72643459414E+02 -0.27680532994E+03  0.31214942293E+03  0.00000000000E+00 0.  1.
         21    1    1    2  502  501 -0.94594308939E+01  0.58705674938E+01  0.22041496312E+02  0.24693561007E+02  0.00000000000E+00 0. -1.
<mgrwt>
<rscale>  1 0.30000000E+03</rscale>
<asrwt>0</asrwt>
<pdfrwt beam="1">  1        1 0.18041357E+00 0.30000000E+03</pdfrwt>
<pdfrwt beam="2">0</pdfrwt>
<totfact> 0.12715758E+01</totfact>
</mgrwt>
</event>
<event>
 6    1  0.1839160E-004  0.3000000E+03  0.7818608E-02  0.1093470E+00
          1   -1    0    0  502    0  0.00000000000E+00  0.00000000000E+00  0.51472840857E+02  0.51472840857E+02  0.00000000000E+00 0.  1.
         13   -1    0    0    0    0 -0.00000000000E+00 -0.00000000000E+00 -0.10000000000E+04  0.10000000000E+04  0.00000000000E+00 0.  1.
    9000005    2    1    2  501    0 -0.22834517260E+02 -0.54236837866E+01 -0.96693570823E+03  0.10216448975E+04  0.32900273747E+03 0.  0.
         13    1    3    3    0    0  0.15923550455E+02 -0.37595186188E+02  0.11102054736E+02  0.42310909975E+02  0.00000000000E+00 0.  1.
          3    1    3    3  501    0 -0.38758067715E+02  0.32171502401E+02 -0.97803776296E+03  0.97933398754E+03  0.00000000000E+00 0.  1.
         21    1    1    2  502  501  0.22834517260E+02  0.54236837866E+01  0.18408549084E+02  0.29827943337E+02  0.00000000000E+00 0. -1.
<mgrwt>
<rscale>  1 0.30000000E+03</rscale>
<asrwt>0</asrwt>
<pdfrwt beam="1">  1        1 0.18717436E+00 0.30000000E+03</pdfrwt>
<pdfrwt beam="2">0</pdfrwt>
<totfact> 0.11796955E+01</totfact>
</mgrwt>
</event>
<event>
 6    1  0.1839160E-004  0.3000000E+03  0.7818608E-02  0.1093470E+00
          1   -1    0    0  502    0  0.00000000000E+00  0.00000000000E+00  0.48275805572E+02  0.48275805572E+02  0.00000000000E+00 0.  1.
         13   -1    0    0    0    0 -0.00000000000E+00 -0.00000000000E+00 -0.10000000000E+04  0.10000000000E+04  0.00000000000E+00 0.  1.
    9000005    2    1    2  501    0 -0.25365476743E+02 -0.33420828549E+02 -0.95319070324E+03  0.10062935493E+04  0.31983406867E+03 0.  0.
         13    1    3    3    0    0 -0.10476706655E+03  0.40163633039E+02 -0.84785699710E+03  0.85524893638E+03  0.00000000000E+00 0.  1.
          1    1    3    3  501    0  0.79401589803E+02 -0.73584461589E+02 -0.10533370615E+03  0.15104461295E+03  0.00000000000E+00 0.  1.
         21    1    1    2  502  501  0.25365476743E+02  0.33420828549E+02  0.14665088137E+01  0.41982256245E+02  0.00000000000E+00 0. -1.
<mgrwt>
<rscale>  1 0.30000000E+03</rscale>
<asrwt>0</asrwt>
<pdfrwt beam="1">  1        1 0.17554875E+00 0.30000000E+03</pdfrwt>
<pdfrwt beam="2">0</pdfrwt>
<totfact> 0.13425172E+01</totfact>
</mgrwt>
</event>
<event>
 6    1  0.1839160E-004  0.3000000E+03  0.7818608E-02  0.1093470E+00
          1   -1    0    0  502    0  0.00000000000E+00  0.00000000000E+00  0.28741565448E+02  0.28741565448E+02  0.00000000000E+00 0.  1.
         13   -1    0    0    0    0 -0.00000000000E+00 -0.00000000000E+00 -0.10000000000E+04  0.10000000000E+04  0.00000000000E+00 0.  1.
    9000005    2    1    2  501    0  0.83972527873E+01 -0.10829529100E+02 -0.91207166891E+03  0.96798906935E+03  0.32394492834E+03 0.  0.
         13    1    3    3    0    0 -0.94499881614E+02  0.60205608443E+02 -0.11278761102E+03  0.15898423856E+03  0.00000000000E+00 0.  1.
          1    1    3    3  501    0  0.10289713440E+03 -0.71035137543E+02 -0.79928405789E+03  0.80900483078E+03  0.00000000000E+00 0.  1.
         21    1    1    2  502  501 -0.83972527873E+01  0.10829529100E+02 -0.59186765646E+02  0.60752496102E+02  0.00000000000E+00 0. -1.
<mgrwt>
<rscale>  1 0.30000000E+03</rscale>
<asrwt>0</asrwt>
<pdfrwt beam="1">  1        1 0.10451500E+00 0.30000000E+03</pdfrwt>
<pdfrwt beam="2">0</pdfrwt>
<totfact> 0.32072334E+01</totfact>
</mgrwt>
</event>
<event>
 6    1  0.1839160E-004  0.3000000E+03  0.7818608E-02  0.1093470E+00
          1   -1    0    0  502    0  0.00000000000E+00  0.00000000000E+00  0.34528972924E+02  0.34528972924E+02  0.00000000000E+00 0.  1.
         13   -1    0    0    0    0 -0.00000000000E+00 -0.00000000000E+00 -0.10000000000E+04  0.10000000000E+04  0.00000000000E+00 0.  1.
    9000005    2    1    2  501    0  0.25800715691E+02 -0.16562062202E+02 -0.93522656640E+03  0.99146267245E+03  0.32773391881E+03 0.  0.
         13    1    3    3    0    0 -0.12092013423E+03  0.64987149849E+02 -0.61245437630E+03  0.62765067638E+03  0.00000000000E+00 0.  1.
          1    1    3    3  501    0  0.14672084992E+03 -0.81549212050E+02 -0.32277219010E+03  0.36381199607E+03  0.00000000000E+00 0.  1.
         21    1    1    2  502  501 -0.25800715691E+02  0.16562062202E+02 -0.30244460678E+02  0.43066300471E+02  0.00000000000E+00 0.  1.
<mgrwt>
<rscale>  1 0.30000000E+03</rscale>
<asrwt>0</asrwt>
<pdfrwt beam="1">  1        1 0.12556017E+00 0.30000000E+03</pdfrwt>
<pdfrwt beam="2">0</pdfrwt>
<totfact> 0.24200456E+01</totfact>
</mgrwt>
</event>
<event>
 6    1  0.1839160E-004  0.3000000E+03  0.7818608E-02  0.1093470E+00
          1   -1    0    0  502    0  0.00000000000E+00  0.00000000000E+00  0.43512533136E+02  0.43512533136E+02  0.00000000000E+00 0.  1.
         13   -1    0    0    0    0 -0.00000000000E+00 -0.00000000000E+00 -0.10000000000E+04  0.10000000000E+04  0.00000000000E+00 0.  1.
    9000005    2    1    2  501    0  0.13070141861E+02  0.33451469381E+02 -0.94878659700E+03  0.10067819899E+04  0.33484942745E+03 0.  0.
         13    1    3    3    0    0 -0.14139235574E+03 -0.61731270104E+02 -0.47594449629E+03  0.50032560550E+03  0.00000000000E+00 0.  1.
          3    1    3    3  501    0  0.15446249760E+03  0.95182739486E+02 -0.47284210071E+03  0.50645638436E+03  0.00000000000E+00 0.  1.
         21    1    1    2  502  501 -0.13070141861E+02 -0.33451469381E+02 -0.77008698627E+01  0.36730543267E+02  0.00000000000E+00 0.  1.
<mgrwt>
<rscale>  1 0.30000000E+03</rscale>
<asrwt>0</asrwt>
<pdfrwt beam="1">  1        1 0.15822773E+00 0.30000000E+03</pdfrwt>
<pdfrwt beam="2">0</pdfrwt>
<totfact> 0.16331349E+01</totfact>
</mgrwt>
</event>
<event>
 6    1  0.1839160E-004  0.3000000E+03  0.7818608E-02  0.1093470E+00
          1   -1    0    0  502    0  0.00000000000E+00  0.00000000000E+00  0.27904817936E+02  0.27904817936E+02  0.00000000000E+00 0.  1.
         13   -1    0    0    0    0 -0.00000000000E+00 -0.00000000000E+00 -0.10000000000E+04  0.10000000000E+04  0.00000000000E+00 0.  1.
    9000005    2    1    2  501    0 -0.70945915421E+01  0.59217792411E+01 -0.95687640844E+03  0.10100999936E+04  0.32342562572E+03 0.  0.
         13    1    3    3    0    0 -0.14843708857E+03  0.73565026716E+02 -0.44828371918E+03  0.47791597097E+03  0.00000000000E+00 0.  1.
          3    1    3    3  501    0  0.14134249703E+03 -0.67643247475E+02 -0.50859268925E+03  0.53218402264E+03  0.00000000000E+00 0.  1.
         21    1    1    2  502  501  0.70945915421E+01 -0.59217792411E+01 -0.15218773628E+02  0.17804824326E+02  0.00000000000E+00 0. -1.
<mgrwt>
<rscale>  1 0.30000000E+03</rscale>
<asrwt>0</asrwt>
<pdfrwt beam="1">  1        1 0.10147228E+00 0.30000000E+03</pdfrwt>
<pdfrwt beam="2">0</pdfrwt>
<totfact> 0.33501673E+01</totfact>
</mgrwt>
</event>
<event>
 6    1  0.1839160E-004  0.3000000E+03  0.7818608E-02  0.1093470E+00
          1   -1    0    0  502    0  0.00000000000E+00  0.00000000000E+00  0.34428031677E+02  0.34428031677E+02  0.00000000000E+00 0.  1.
         13   -1    0    0    0    0 -0.00000000000E+00 -0.00000000000E+00 -0.10000000000E+04  0.10000000000E+04  0.00000000000E+00 0.  1.
    9000005    2    1    2  501    0 -0.96718814841E+01  0.44078168915E+01 -0.97100337172E+03  0.10224917725E+04  0.32020134714E+03 0.  0.
         13    1    3    3    0    0  0.42741635614E+02 -0.15066677489E+03 -0.46386552550E+03  0.48959018599E+03  0.00000000000E+00 0.  1.
          1    1    3    3  501    0 -0.52413517098E+02  0.15507459178E+03 -0.50713784623E+03  0.53290158647E+03  0.00000000000E+00 0.  1.
         21    1    1    2  502  501  0.96718814841E+01 -0.44078168915E+01  0.54314034001E+01  0.11936259217E+02  0.00000000000E+00 0.  1.
<mgrwt>
<rscale>  1 0.30000000E+03</rscale>
<asrwt>0</asrwt>
<pdfrwt beam="1">  1        1 0.12519311E+00 0.30000000E+03</pdfrwt>
<pdfrwt beam="2">0</pdfrwt>
<totfact> 0.24313959E+01</totfact>
</mgrwt>
</event>
<event>
 6    1  0.1839160E-004  0.3000000E+03  0.7818608E-02  0.1093470E+00
          1   -1    0    0  502    0  0.00000000000E+00  0.00000000000E+00  0.74547792210E+02  0.74547792210E+02  0.00000000000E+00 0.  1.
         13   -1    0    0    0    0 -0.00000000000E+00 -0.00000000000E+00 -0.10000000000E+04  0.10000000000E+04  0.00000000000E+00 0.  1.
    9000005    2    1    2  501    0 -0.11453752913E+02  0.37643416243E+01 -0.97400411582E+03  0.10245213342E+04  0.31751313034E+03 0.  0.
         13    1    3    3    0    0 -0.15374078932E+03  0.58688735266E+02 -0.47243631794E+03  0.50027659595E+03  0.00000000000E+00 0.  1.
          3    1    3    3  501    0  0.14228703641E+03 -0.54924393642E+02 -0.50156779789E+03  0.52424473829E+03  0.00000000000E+00 0.  1.
         21    1    1    2  502  501  0.11453752913E+02 -0.37643416243E+01  0.48551908034E+02  0.50026457974E+02  0.00000000000E+00 0.  1.
<mgrwt>
<rscale>  1 0.30000000E+03</rscale>
<asrwt>0</asrwt>
<pdfrwt beam="1">  1        1 0.27108345E+00 0.30000000E+03</pdfrwt>
<pdfrwt beam="2">0</pdfrwt>
<totfact> 0.47522912E+00</totfact>
</mgrwt>
</event>
<event>
 6    1  0.1839160E-004  0.3000000E+03  0.7818608E-02  0.1093470E+00
          1   -1    0    0  502    0  0.00000000000E+00  0.00000000000E+00  0.36741767951E+02  0.36741767951E+02  0.00000000000E+00 0.  1.
         13   -1    0    0    0    0 -0.00000000000E+00 -0.00000000000E+00 -0.10000000000E+04  0.10000000000E+04  0.00000000000E+00 0.  1.
    9000005    2    1    2  501    0  0.20458245936E+02  0.11266804251E+02 -0.95419029308E+03  0.10116876621E+04  0.33539130796E+03 0.  0.
         13    1    3    3    0    0 -0.79000258710E+02  0.11573594817E+03 -0.74198260260E+03  0.75509869099E+03  0.00000000000E+00 0.  1.
          1    1    3    3  501    0  0.99458504646E+02 -0.10446914392E+03 -0.21220769048E+03  0.25658897107E+03  0.00000000000E+00 0.  1.
         21    1    1    2  502  501 -0.20458245936E+02 -0.11266804251E+02 -0.90679389716E+01  0.25054105891E+02  0.00000000000E+00 0. -1.
<mgrwt>
<rscale>  1 0.30000000E+03</rscale>
<asrwt>0</asrwt>
<pdfrwt beam="1">  1        1 0.13360671E+00 0.30000000E+03</pdfrwt>
<pdfrwt beam="2">0</pdfrwt>
<totfact> 0.21875054E+01</totfact>
</mgrwt>
</event>
<event>
 6    1  0.1839160E-004  0.3000000E+03  0.7818608E-02  0.1093470E+00
          1   -1    0    0  502    0  0.00000000000E+00  0.00000000000E+00  0.31303078201E+02  0.31303078201E+02  0.00000000000E+00 0.  1.
         13   -1    0    0    0    0 -0.00000000000E+00 -0.00000000000E+00 -0.10000000000E+04  0.10000000000E+04  0.00000000000E+00 0.  1.
    9000005    2    1    2  501    0  0.24616681673E+02  0.15990760333E+02 -0.91206613346E+03  0.96751646816E+03  0.32149929848E+03 0.  0.
         13    1    3    3    0    0  0.82890194023E+02  0.48544836075E+02 -0.89292375348E+03  0.89807584028E+03  0.00000000000E+00 0.  1.
          1    1    3    3  501    0 -0.58273512349E+02 -0.32554075742E+02 -0.19142379985E+02  0.69440627880E+02  0.00000000000E+00 0.  1.
         21    1    1    2  502  501 -0.24616681673E+02 -0.15990760333E+02 -0.56630788338E+02  0.63786610040E+02  0.00000000000E+00 0.  1.
<mgrwt>
<rscale>  1 0.30000000E+03</rscale>
<asrwt>0</asrwt>
<pdfrwt beam="1">  1        1 0.11382962E+00 0.30000000E+03</pdfrwt>
<pdfrwt beam="2">0</pdfrwt>
<totfact> 0.28204509E+01</totfact>
</mgrwt>
</event>
<event>
 6    1  0.1839160E-004  0.3000000E+03  0.7818608E-02  0.1093470E+00
          1   -1    0    0  502    0  0.00000000000E+00  0.00000000000E+00  0.29581678067E+02  0.29581678067E+02  0.00000000000E+00 0.  1.
         13   -1    0    0    0    0 -0.00000000000E+00 -0.00000000000E+00 -0.10000000000E+04  0.10000000000E+04  0.00000000000E+00 0.  1.
    9000005    2    1    2  501    0 -0.25589954663E+02 -0.36008087347E+02 -0.76352298676E+03  0.81802292063E+03  0.29024596332E+03 0.  0.
         13    1    3    3    0    0  0.53953197712E+02  0.84755444511E+02 -0.55649948856E+03  0.56549634277E+03  0.00000000000E+00 0.  1.
          1    1    3    3  501    0 -0.79543152375E+02 -0.12076353186E+03 -0.20702349820E+03  0.25252657786E+03  0.00000000000E+00 0.  1.
         21    1    1    2  502  501  0.25589954663E+02  0.36008087347E+02 -0.20689533517E+03  0.21155875744E+03  0.00000000000E+00 0. -1.
<mgrwt>
<rscale>  1 0.30000000E+03</rscale>
<asrwt>0</asrwt>
<pdfrwt beam="1">  1        1 0.10756997E+00 0.30000000E+03</pdfrwt>
<pdfrwt beam="2">0</pdfrwt>
<totfact> 0.30724495E+01</totfact>
</mgrwt>
</event>
<event>
 6    1  0.1839160E-004  0.3000000E+03  0.7818608E-02  0.1093470E+00
          1   -1    0    0  502    0  0.00000000000E+00  0.00000000000E+00  0.67091399936E+02  0.67091399936E+02  0.00000000000E+00 0.  1.
         13   -1    0    0    0    0 -0.00000000000E+00 -0.00000000000E+00 -0.10000000000E+04  0.10000000000E+04  0.00000000000E+00 0.  1.
    9000005    2    1    2  501    0 -0.31409020443E+02 -0.98075478805E+00 -0.96775146100E+03  0.10201711122E+04  0.32127670226E+03 0.  0.
         13    1    3    3    0    0 -0.17660859024E+02 -0.14979739521E+03 -0.67300300374E+03  0.68969863607E+03  0.00000000000E+00 0.  1.
          3    1    3    3  501    0 -0.13748161419E+02  0.14881664042E+03 -0.29474845726E+03  0.33047247611E+03  0.00000000000E+00 0.  1.
         21    1    1    2  502  501  0.31409020443E+02  0.98075478805E+00  0.34842860934E+02  0.46920287757E+02  0.00000000000E+00 0.  1.
<mgrwt>
<rscale>  1 0.30000000E+03</rscale>
<asrwt>0</asrwt>
<pdfrwt beam="1">  1        1 0.24396924E+00 0.30000000E+03</pdfrwt>
<pdfrwt beam="2">0</pdfrwt>
<totfact> 0.63653901E+00</totfact>
</mgrwt>
</event>
<event>
 6    1  0.1839160E-004  0.3000000E+03  0.7818608E-02  0.1093470E+00
          1   -1    0    0  502    0  0.00000000000E+00  0.00000000000E+00  0.29973633521E+02  0.29973633521E+02  0.00000000000E+00 0.  1.
         13   -1    0    0    0    0 -0.00000000000E+00 -0.00000000000E+00 -0.10000000000E+04  0.10000000000E+04  0.00000000000E+00 0.  1.
    9000005    2    1    2  501    0  0.10941614020E+02 -0.59826583435E+01 -0.96168073333E+03  0.10149682774E+04  0.32430735461E+03 0.  0.
         13    1    3    3    0    0  0.66304041079E+02  0.13153134906E+03 -0.26985207659E+03  0.30743595250E+03  0.00000000000E+00 0.  1.
          1    1    3    3  501    0 -0.55362427059E+02 -0.13751400741E+03 -0.69182865673E+03  0.70753232494E+03  0.00000000000E+00 0.  1.
         21    1    1    2  502  501 -0.10941614020E+02  0.59826583435E+01 -0.83456331539E+01  0.15005356076E+02  0.00000000000E+00 0. -1.
<mgrwt>
<rscale>  1 0.30000000E+03</rscale>
<asrwt>0</asrwt>
<pdfrwt beam="1">  1        1 0.10899526E+00 0.30000000E+03</pdfrwt>
<pdfrwt beam="2">0</pdfrwt>
<totfact> 0.30123367E+01</totfact>
</mgrwt>
</event>
<event>
 6    1  0.1839160E-004  0.3000000E+03  0.7818608E-02  0.1093470E+00
          1   -1    0    0  502    0  0.00000000000E+00  0.00000000000E+00  0.28916747639E+02  0.28916747639E+02  0.00000000000E+00 0.  1.
         13   -1    0    0    0    0 -0.00000000000E+00 -0.00000000000E+00 -0.10000000000E+04  0.10000000000E+04  0.00000000000E+00 0.  1.
    9000005    2    1    2  501    0 -0.17602254595E+02 -0.88317300004E+01 -0.94154629562E+03  0.99341645700E+03  0.31619454680E+03 0.  0.
         13    1    3    3    0    0 -0.12974494094E+03  0.70629324386E+02 -0.26825400789E+03  0.30623922661E+03  0.00000000000E+00 0.  1.
          3    1    3    3  501    0  0.11214268634E+03 -0.79461054386E+02 -0.67329228772E+03  0.68717723039E+03  0.00000000000E+00 0.  1.
         21    1    1    2  502  501  0.17602254595E+02  0.88317300004E+01 -0.29536956745E+02  0.35500290638E+02  0.00000000000E+00 0.  1.
<mgrwt>
<rscale>  1 0.30000000E+03</rscale>
<asrwt>0</asrwt>
<pdfrwt beam="1">  1        1 0.10515203E+00 0.30000000E+03</pdfrwt>
<pdfrwt beam="2">0</pdfrwt>
<totfact> 0.31784335E+01</totfact>
</mgrwt>
</event>
<event>
 6    1  0.1839160E-004  0.3000000E+03  0.7818608E-02  0.1093470E+00
          1   -1    0    0  502    0  0.00000000000E+00  0.00000000000E+00  0.40197077416E+02  0.40197077416E+02  0.00000000000E+00 0.  1.
         13   -1    0    0    0    0 -0.00000000000E+00 -0.00000000000E+00 -0.10000000000E+04  0.10000000000E+04  0.00000000000E+00 0.  1.
    9000005    2    1    2  501    0  0.11680701383E+02  0.26772838080E+02 -0.95393642581E+03  0.10104037992E+04  0.33176484030E+03 0.  0.
         13    1    3    3    0    0 -0.62208459630E+02 -0.11427490784E+03 -0.19150567753E+03  0.23152337147E+03  0.00000000000E+00 0.  1.
          1    1    3    3  501    0  0.73889161013E+02  0.14104774592E+03 -0.76243074829E+03  0.77888042771E+03  0.00000000000E+00 0.  1.
         21    1    1    2  502  501 -0.11680701383E+02 -0.26772838080E+02 -0.58664967702E+01  0.29793278235E+02  0.00000000000E+00 0.  1.
<mgrwt>
<rscale>  1 0.30000000E+03</rscale>
<asrwt>0</asrwt>
<pdfrwt beam="1">  1        1 0.14617150E+00 0.30000000E+03</pdfrwt>
<pdfrwt beam="2">0</pdfrwt>
<totfact> 0.18793228E+01</totfact>
</mgrwt>
</event>
<event>
 6    1  0.1839160E-004  0.3000000E+03  0.7818608E-02  0.1093470E+00
          1   -1    0    0  502    0  0.00000000000E+00  0.00000000000E+00  0.56037623594E+02  0.56037623594E+02  0.00000000000E+00 0.  1.
         13   -1    0    0    0    0 -0.00000000000E+00 -0.00000000000E+00 -0.10000000000E+04  0.10000000000E+04  0.00000000000E+00 0.  1.
    9000005    2    1    2  501    0 -0.13182575004E+02 -0.37919490223E+01 -0.97051104279E+03  0.10261546711E+04  0.33303688347E+03 0.  0.
         13    1    3    3    0    0  0.54935413085E+02  0.10503851042E+03 -0.13013941641E+03  0.17603197432E+03  0.00000000000E+00 0.  1.
          3    1    3    3  501    0 -0.68117988089E+02 -0.10883045944E+03 -0.84037162638E+03  0.85012269681E+03  0.00000000000E+00 0.  1.
         21    1    1    2  502  501  0.13182575004E+02  0.37919490223E+01  0.26548666382E+02  0.29882952461E+02  0.00000000000E+00 0.  1.
<mgrwt>
<rscale>  1 0.30000000E+03</rscale>
<asrwt>0</asrwt>
<pdfrwt beam="1">  1        1 0.20377361E+00 0.30000000E+03</pdfrwt>
<pdfrwt beam="2">0</pdfrwt>
<totfact> 0.98294261E+00</totfact>
</mgrwt>
</event>
<event>
 6    1  0.1839160E-004  0.3000000E+03  0.7818608E-02  0.1093470E+00
          1   -1    0    0  502    0  0.00000000000E+00  0.00000000000E+00  0.26878115222E+02  0.26878115222E+02  0.00000000000E+00 0.  1.
         13   -1    0    0    0    0 -0.00000000000E+00 -0.00000000000E+00 -0.10000000000E+04  0.10000000000E+04  0.00000000000E+00 0.  1.
    9000005    2    1    2  501    0 -0.19135120346E+02  0.33724324092E+02 -0.89189042717E+03  0.93686682386E+03  0.28416092047E+03 0.  0.
         13    1    3    3    0    0 -0.65421053893E+02  0.12505586034E+03 -0.25194715869E+03  0.28878409456E+03  0.00000000000E+00 0.  1.
          3    1    3    3  501    0  0.46285933546E+02 -0.91331536247E+02 -0.63994326848E+03  0.64808272931E+03  0.00000000000E+00 0.  1.
         21    1    1    2  502  501  0.19135120346E+02 -0.33724324092E+02 -0.81231457613E+02  0.90011291358E+02  0.00000000000E+00 0.  1.
<mgrwt>
<rscale>  1 0.30000000E+03</rscale>
<asrwt>0</asrwt>
<pdfrwt beam="1">  1        1 0.97738807E-01 0.30000000E+03</pdfrwt>
<pdfrwt beam="2">0</pdfrwt>
<totfact> 0.35386727E+01</totfact>
</mgrwt>
</event>
<event>
 6    1  0.1839160E-004  0.3000000E+03  0.7818608E-02  0.1093470E+00
          1   -1    0    0  502    0  0.00000000000E+00  0.00000000000E+00  0.17548885910E+02  0.17548885910E+02  0.00000000000E+00 0.  1.
         13   -1    0    0    0    0 -0.00000000000E+00 -0.00000000000E+00 -0.10000000000E+04  0.10000000000E+04  0.00000000000E+00 0.  1.
    9000005    2    1    2  501    0 -0.49839453753E+01 -0.10058100506E+02 -0.98808240237E+03  0.10049903627E+04  0.18322879185E+03 0.  0.
         13    1    3    3    0    0 -0.67983061203E+02 -0.53126696452E+02 -0.28486973577E+03  0.29764896916E+03  0.00000000000E+00 0.  1.
          3    1    3    3  501    0  0.62999115828E+02  0.43068595946E+02 -0.70321266660E+03  0.70734139355E+03  0.00000000000E+00 0.  1.
         21    1    1    2  502  501  0.49839453753E+01  0.10058100506E+02  0.56312882824E+01  0.12558523202E+02  0.00000000000E+00 0. -1.
<mgrwt>
<rscale>  1 0.30000000E+03</rscale>
<asrwt>0</asrwt>
<pdfrwt beam="1">  1        1 0.63814265E-01 0.30000000E+03</pdfrwt>
<pdfrwt beam="2">0</pdfrwt>
<totfact> 0.63871433E+01</totfact>
</mgrwt>
</event>
<event>
 6    1  0.1839160E-004  0.3000000E+03  0.7818608E-02  0.1093470E+00
          1   -1    0    0  502    0  0.00000000000E+00  0.00000000000E+00  0.28440902728E+02  0.28440902728E+02  0.00000000000E+00 0.  1.
         13   -1    0    0    0    0 -0.00000000000E+00 -0.00000000000E+00 -0.10000000000E+04  0.10000000000E+04  0.00000000000E+00 0.  1.
    9000005    2    1    2  501    0  0.61094120727E+01 -0.64735770970E+01 -0.93496545024E+03  0.99078021873E+03  0.32772826635E+03 0.  0.
         13    1    3    3    0    0  0.78688699513E+02 -0.41934777871E+02 -0.89718135710E+03  0.90160125585E+03  0.00000000000E+00 0.  1.
          3    1    3    3  501    0 -0.72579287440E+02  0.35461200774E+02 -0.37784093146E+02  0.89178962881E+02  0.00000000000E+00 0.  1.
         21    1    1    2  502  501 -0.61094120727E+01  0.64735770970E+01 -0.36593647029E+02  0.37660683998E+02  0.00000000000E+00 0.  1.
<mgrwt>
<rscale>  1 0.30000000E+03</rscale>
<asrwt>0</asrwt>
<pdfrwt beam="1">  1        1 0.10342168E+00 0.30000000E+03</pdfrwt>
<pdfrwt beam="2">0</pdfrwt>
<totfact> 0.32575517E+01</totfact>
</mgrwt>
</event>
<event>
 6    1  0.1839160E-004  0.3000000E+03  0.7818608E-02  0.1093470E+00
          1   -1    0    0  502    0  0.00000000000E+00  0.00000000000E+00  0.42810457644E+02  0.42810457644E+02  0.00000000000E+00 0.  1.
         13   -1    0    0    0    0 -0.00000000000E+00 -0.00000000000E+00 -0.10000000000E+04  0.10000000000E+04  0.00000000000E+00 0.  1.
    9000005    2    1    2  501    0  0.14025832832E+02  0.76094124060E+01 -0.97081323480E+03  0.10218287480E+04  0.31843527793E+03 0.  0.
         13    1    3    3    0    0 -0.49776855306E+02 -0.63239413556E+02 -0.89867170590E+03  0.90226813849E+03  0.00000000000E+00 0.  1.
          3    1    3    3  501    0  0.63802688138E+02  0.70848825962E+02 -0.72141528903E+02  0.11956060951E+03  0.00000000000E+00 0.  1.
         21    1    1    2  502  501 -0.14025832832E+02 -0.76094124060E+01  0.13623692445E+02  0.20981709645E+02  0.00000000000E+00 0. -1.
<mgrwt>
<rscale>  1 0.30000000E+03</rscale>
<asrwt>0</asrwt>
<pdfrwt beam="1">  1        1 0.15567472E+00 0.30000000E+03</pdfrwt>
<pdfrwt beam="2">0</pdfrwt>
<totfact> 0.16818356E+01</totfact>
</mgrwt>
</event>
<event>
 6    1  0.1839160E-004  0.3000000E+03  0.7818608E-02  0.1093470E+00
          3   -1    0    0  502    0  0.00000000000E+00  0.00000000000E+00  0.27725829208E+02  0.27725829208E+02  0.00000000000E+00 0.  1.
         13   -1    0    0    0    0 -0.00000000000E+00 -0.00000000000E+00 -0.10000000000E+04  0.10000000000E+04  0.00000000000E+00 0.  1.
    9000005    2    1    2  501    0  0.14791783169E+01 -0.10418458870E+02 -0.92919635133E+03  0.98338137314E+03  0.32174886709E+03 0.  0.
         13    1    3    3    0    0 -0.50760941007E+02  0.16743273040E+02 -0.92258480571E+03  0.92413188131E+03  0.00000000000E+00 0.  1.
          3    1    3    3  501    0  0.52240119324E+02 -0.27161731910E+02 -0.66115456178E+01  0.59249491835E+02  0.00000000000E+00 0.  1.
         21    1    1    2  502  501 -0.14791783169E+01  0.10418458870E+02 -0.43077819465E+02  0.44344456064E+02  0.00000000000E+00 0. -1.
<mgrwt>
<rscale>  1 0.30000000E+03</rscale>
<asrwt>0</asrwt>
<pdfrwt beam="1">  1        3 0.10082141E+00 0.30000000E+03</pdfrwt>
<pdfrwt beam="2">0</pdfrwt>
<totfact> 0.38335490E+00</totfact>
</mgrwt>
</event>
<event>
 6    1  0.1839160E-004  0.3000000E+03  0.7818608E-02  0.1093470E+00
          3   -1    0    0  502    0  0.00000000000E+00  0.00000000000E+00  0.40105656114E+02  0.40105656114E+02  0.00000000000E+00 0.  1.
         13   -1    0    0    0    0 -0.00000000000E+00 -0.00000000000E+00 -0.10000000000E+04  0.10000000000E+04  0.00000000000E+00 0.  1.
    9000005    2    1    2  501    0 -0.58191964998E+02  0.27288407215E+02 -0.85562019048E+03  0.91761459103E+03  0.32526860491E+03 0.  0.
         13    1    3    3    0    0 -0.28186898131E+02  0.49085094330E+02 -0.87427178511E+03  0.87610216410E+03  0.00000000000E+00 0.  1.
          3    1    3    3  501    0 -0.30005066866E+02 -0.21796687115E+02  0.18651594624E+02  0.41512426921E+02  0.00000000000E+00 0.  1.
         21    1    1    2  502  501  0.58191964998E+02 -0.27288407215E+02 -0.10427415340E+03  0.12249106509E+03  0.00000000000E+00 0. -1.
<mgrwt>
<rscale>  1 0.30000000E+03</rscale>
<asrwt>0</asrwt>
<pdfrwt beam="1">  1        3 0.14583906E+00 0.30000000E+03</pdfrwt>
<pdfrwt beam="2">0</pdfrwt>
<totfact> 0.11261525E+00</totfact>
</mgrwt>
</event>
<event>
 6    1  0.1839160E-004  0.3000000E+03  0.7818608E-02  0.1093470E+00
          1   -1    0    0  502    0  0.00000000000E+00  0.00000000000E+00  0.31145117539E+02  0.31145117539E+02  0.00000000000E+00 0.  1.
         13   -1    0    0    0    0 -0.00000000000E+00 -0.00000000000E+00 -0.10000000000E+04  0.10000000000E+04  0.00000000000E+00 0.  1.
    9000005    2    1    2  501    0  0.14144434953E+02 -0.90223049479E+01 -0.95562460194E+03  0.10097790849E+04  0.32581275836E+03 0.  0.
         13    1    3    3    0    0  0.50189283579E+02 -0.62205658899E+02 -0.94035045564E+03  0.94374121856E+03  0.00000000000E+00 0.  1.
          1    1    3    3  501    0 -0.36044848627E+02  0.53183353951E+02 -0.15274146301E+02  0.66037866374E+02  0.00000000000E+00 0.  1.
         21    1    1    2  502  501 -0.14144434953E+02  0.90223049479E+01 -0.13230280524E+02  0.21366032609E+02  0.00000000000E+00 0.  1.
<mgrwt>
<rscale>  1 0.30000000E+03</rscale>
<asrwt>0</asrwt>
<pdfrwt beam="1">  1        1 0.11325521E+00 0.30000000E+03</pdfrwt>
<pdfrwt beam="2">0</pdfrwt>
<totfact> 0.28423247E+01</totfact>
</mgrwt>
</event>
<event>
 6    1  0.1839160E-004  0.3000000E+03  0.7818608E-02  0.1093470E+00
          1   -1    0    0  502    0  0.00000000000E+00  0.00000000000E+00  0.28750076182E+02  0.28750076182E+02  0.00000000000E+00 0.  1.
         13   -1    0    0    0    0 -0.00000000000E+00 -0.00000000000E+00 -0.10000000000E+04  0.10000000000E+04  0.00000000000E+00 0.  1.
    9000005    2    1    2  501    0  0.39015058249E+01 -0.13377492200E+02 -0.91629728441E+03  0.97205817533E+03  0.32419470037E+03 0.  0.
         13    1    3    3    0    0 -0.10375833426E+03 -0.92323452870E+02 -0.20042261753E+03  0.24384141875E+03  0.00000000000E+00 0.  1.
          1    1    3    3  501    0  0.10765984009E+03  0.78945960670E+02 -0.71587466688E+03  0.72821675657E+03  0.00000000000E+00 0.  1.
         21    1    1    2  502  501 -0.39015058249E+01  0.13377492200E+02 -0.54952639403E+02  0.56691900856E+02  0.00000000000E+00 0.  1.
<mgrwt>
<rscale>  1 0.30000000E+03</rscale>
<asrwt>0</asrwt>
<pdfrwt beam="1">  1        1 0.10454595E+00 0.30000000E+03</pdfrwt>
<pdfrwt beam="2">0</pdfrwt>
<totfact> 0.32058255E+01</totfact>
</mgrwt>
</event>
<event>
 6    1  0.1839160E-004  0.3000000E+03  0.7818608E-02  0.1093470E+00
          1   -1    0    0  502    0  0.00000000000E+00  0.00000000000E+00  0.32666603553E+02  0.32666603553E+02  0.00000000000E+00 0.  1.
         13   -1    0    0    0    0 -0.00000000000E+00 -0.00000000000E+00 -0.10000000000E+04  0.10000000000E+04  0.00000000000E+00 0.  1.
    9000005    2    1    2  501    0  0.16791269872E+01 -0.16487615344E+02 -0.95739373571E+03  0.10133415477E+04  0.33163785406E+03 0.  0.
         13    1    3    3    0    0 -0.12700404915E+03 -0.41261720085E+02 -0.78769143665E+03  0.79893075883E+03  0.00000000000E+00 0.  1.
          3    1    3    3  501    0  0.12868317614E+03  0.24774104741E+02 -0.16970229906E+03  0.21441078889E+03  0.00000000000E+00 0.  1.
         21    1    1    2  502  501 -0.16791269872E+01  0.16487615344E+02 -0.99396607408E+01  0.19325055829E+02  0.00000000000E+00 0. -1.
<mgrwt>
<rscale>  1 0.30000000E+03</rscale>
<asrwt>0</asrwt>
<pdfrwt beam="1">  1        1 0.11878790E+00 0.30000000E+03</pdfrwt>
<pdfrwt beam="2">0</pdfrwt>
<totfact> 0.26410648E+01</totfact>
</mgrwt>
</event>
<event>
 6    1  0.1839160E-004  0.3000000E+03  0.7818608E-02  0.1093470E+00
          1   -1    0    0  502    0  0.00000000000E+00  0.00000000000E+00  0.72405535356E+02  0.72405535356E+02  0.00000000000E+00 0.  1.
         13   -1    0    0    0    0 -0.00000000000E+00 -0.00000000000E+00 -0.10000000000E+04  0.10000000000E+04  0.00000000000E+00 0.  1.
    9000005    2    1    2  501    0  0.61294869750E+01 -0.30901374672E+02 -0.91668045231E+03  0.10390651509E+04  0.48822215302E+03 0.  0.
         13    1    3    3    0    0 -0.12461576197E+03  0.10936839022E+03 -0.86467585256E+02  0.18699512349E+03  0.00000000000E+00 0.  1.
          3    1    3    3  501    0  0.13074524894E+03 -0.14026976489E+03 -0.83021286706E+03  0.85207002746E+03  0.00000000000E+00 0.  1.
         21    1    1    2  502  501 -0.61294869750E+01  0.30901374672E+02 -0.10914012330E+02  0.33340384406E+02  0.00000000000E+00 0. -1.
<mgrwt>
<rscale>  1 0.30000000E+03</rscale>
<asrwt>0</asrwt>
<pdfrwt beam="1">  1        1 0.26329341E+00 0.30000000E+03</pdfrwt>
<pdfrwt beam="2">0</pdfrwt>
<totfact> 0.51705301E+00</totfact>
</mgrwt>
</event>
<event>
 6    1  0.1839160E-004  0.3000000E+03  0.7818608E-02  0.1093470E+00
          1   -1    0    0  502    0  0.00000000000E+00  0.00000000000E+00  0.42976854594E+02  0.42976854594E+02  0.00000000000E+00 0.  1.
         13   -1    0    0    0    0 -0.00000000000E+00 -0.00000000000E+00 -0.10000000000E+04  0.10000000000E+04  0.00000000000E+00 0.  1.
    9000005    2    1    2  501    0 -0.93456233314E+01 -0.12667725003E+02 -0.96744417462E+03  0.10240980363E+04  0.33553054246E+03 0.  0.
         13    1    3    3    0    0  0.14803918655E+02 -0.15939042492E+03 -0.70025973580E+03  0.71832315927E+03  0.00000000000E+00 0.  1.
          1    1    3    3  501    0 -0.24149541987E+02  0.14672269991E+03 -0.26718443882E+03  0.30577487698E+03  0.00000000000E+00 0.  1.
         21    1    1    2  502  501  0.93456233314E+01  0.12667725003E+02  0.10421029210E+02  0.18878818342E+02  0.00000000000E+00 0.  1.
<mgrwt>
<rscale>  1 0.30000000E+03</rscale>
<asrwt>0</asrwt>
<pdfrwt beam="1">  1        1 0.15627980E+00 0.30000000E+03</pdfrwt>
<pdfrwt beam="2">0</pdfrwt>
<totfact> 0.16701388E+01</totfact>
</mgrwt>
</event>
<event>
 6    1  0.1839160E-004  0.3000000E+03  0.7818608E-02  0.1093470E+00
          1   -1    0    0  502    0  0.00000000000E+00  0.00000000000E+00  0.38436366684E+02  0.38436366684E+02  0.00000000000E+00 0.  1.
         13   -1    0    0    0    0 -0.00000000000E+00 -0.00000000000E+00 -0.10000000000E+04  0.10000000000E+04  0.00000000000E+00 0.  1.
    9000005    2    1    2  501    0  0.37400111745E+02 -0.41286594501E+02 -0.86099204450E+03  0.92346682410E+03  0.32921166942E+03 0.  0.
         13    1    3    3    0    0  0.13191895457E+03 -0.77592165635E+02 -0.18576364848E+03  0.24068919344E+03  0.00000000000E+00 0.  1.
          1    1    3    3  501    0 -0.94518842821E+02  0.36305571134E+02 -0.67522839602E+03  0.68277763066E+03  0.00000000000E+00 0.  1.
         21    1    1    2  502  501 -0.37400111745E+02  0.41286594501E+02 -0.10057158882E+03  0.11496954258E+03  0.00000000000E+00 0.  1.
<mgrwt>
<rscale>  1 0.30000000E+03</rscale>
<asrwt>0</asrwt>
<pdfrwt beam="1">  1        1 0.13976890E+00 0.30000000E+03</pdfrwt>
<pdfrwt beam="2">0</pdfrwt>
<totfact> 0.20288787E+01</totfact>
</mgrwt>
</event>
<event>
 6    1  0.1839160E-004  0.3000000E+03  0.7818608E-02  0.1093470E+00
          3   -1    0    0  502    0  0.00000000000E+00  0.00000000000E+00  0.31301073260E+02  0.31301073260E+02  0.00000000000E+00 0.  1.
         13   -1    0    0    0    0 -0.00000000000E+00 -0.00000000000E+00 -0.10000000000E+04  0.10000000000E+04  0.00000000000E+00 0.  1.
    9000005    2    1    2  501    0 -0.23395066452E+02  0.48589365073E+01 -0.93505371883E+03  0.99003439889E+03  0.32445603013E+03 0.  0.
         13    1    3    3    0    0 -0.29617018185E+02 -0.28148712384E+02 -0.95167929932E+03  0.95255603853E+03  0.00000000000E+00 0.  1.
          1    1    3    3  501    0  0.62219517333E+01  0.33007648891E+02  0.16625580494E+02  0.37478360363E+02  0.00000000000E+00 0.  1.
         21    1    1    2  502  501  0.23395066452E+02 -0.48589365073E+01 -0.33645207910E+02  0.41266674370E+02  0.00000000000E+00 0. -1.
<mgrwt>
<rscale>  1 0.30000000E+03</rscale>
<asrwt>0</asrwt>
<pdfrwt beam="1">  1        3 0.11382232E+00 0.30000000E+03</pdfrwt>
<pdfrwt beam="2">0</pdfrwt>
<totfact> 0.27254240E+00</totfact>
</mgrwt>
</event>
<event>
 6    1  0.1839160E-004  0.3000000E+03  0.7818608E-02  0.1093470E+00
          1   -1    0    0  502    0  0.00000000000E+00  0.00000000000E+00  0.32887974052E+02  0.32887974052E+02  0.00000000000E+00 0.  1.
         13   -1    0    0    0    0 -0.00000000000E+00 -0.00000000000E+00 -0.10000000000E+04  0.10000000000E+04  0.00000000000E+00 0.  1.
    9000005    2    1    2  501    0  0.14114014581E+02 -0.22721054272E+02 -0.94072676411E+03  0.99531625920E+03  0.32399407309E+03 0.  0.
         13    1    3    3    0    0 -0.12610976706E+03 -0.74032269507E+02 -0.67359217015E+03  0.68928286063E+03  0.00000000000E+00 0.  1.
          3    1    3    3  501    0  0.14022378164E+03  0.51311215235E+02 -0.26713459397E+03  0.30603339857E+03  0.00000000000E+00 0.  1.
         21    1    1    2  502  501 -0.14114014581E+02  0.22721054272E+02 -0.26385261836E+02  0.37571714853E+02  0.00000000000E+00 0. -1.
<mgrwt>
<rscale>  1 0.30000000E+03</rscale>
<asrwt>0</asrwt>
<pdfrwt beam="1">  1        1 0.11959289E+00 0.30000000E+03</pdfrwt>
<pdfrwt beam="2">0</pdfrwt>
<totfact> 0.26134300E+01</totfact>
</mgrwt>
</event>
<event>
 6    1  0.1839160E-004  0.3000000E+03  0.7818608E-02  0.1093470E+00
          3   -1    0    0  502    0  0.00000000000E+00  0.00000000000E+00  0.27099890871E+02  0.27099890871E+02  0.00000000000E+00 0.  1.
         13   -1    0    0    0    0 -0.00000000000E+00 -0.00000000000E+00 -0.10000000000E+04  0.10000000000E+04  0.00000000000E+00 0.  1.
    9000005    2    1    2  501    0  0.83872389146E+01 -0.57521473621E+01 -0.97289705415E+03  0.10169296900E+04  0.29582745565E+03 0.  0.
         13    1    3    3    0    0 -0.13537550954E+02  0.90067716226E+02 -0.86953034640E+03  0.87428741390E+03  0.00000000000E+00 0.  1.
          1    1    3    3  501    0  0.21924789868E+02 -0.95819863588E+02 -0.10336670775E+03  0.14264227613E+03  0.00000000000E+00 0.  1.
         21    1    1    2  502  501 -0.83872389146E+01  0.57521473621E+01 -0.30549834780E-02  0.10170200845E+02  0.00000000000E+00 0. -1.
<mgrwt>
<rscale>  1 0.30000000E+03</rscale>
<asrwt>0</asrwt>
<pdfrwt beam="1">  1        3 0.98545266E-01 0.30000000E+03</pdfrwt>
<pdfrwt beam="2">0</pdfrwt>
<totfact> 0.40695271E+00</totfact>
</mgrwt>
</event>
<event>
 6    1  0.1839160E-004  0.3000000E+03  0.7818608E-02  0.1093470E+00
          1   -1    0    0  502    0  0.00000000000E+00  0.00000000000E+00  0.30171257228E+02  0.30171257228E+02  0.00000000000E+00 0.  1.
         13   -1    0    0    0    0 -0.00000000000E+00 -0.00000000000E+00 -0.10000000000E+04  0.10000000000E+04  0.00000000000E+00 0.  1.
    9000005    2    1    2  501    0 -0.12984953794E+02 -0.84597498832E+00 -0.94412889525E+03  0.10013648888E+04  0.33344106676E+03 0.  0.
         13    1    3    3    0    0 -0.35793225949E+02 -0.84894270435E+02 -0.89819064766E+03  0.90290344540E+03  0.00000000000E+00 0.  1.
          3    1    3    3  501    0  0.22808272155E+02  0.84048295446E+02 -0.45938247586E+02  0.98461443405E+02  0.00000000000E+00 0.  1.
         21    1    1    2  502  501  0.12984953794E+02  0.84597498832E+00 -0.25699847525E+02  0.28806368420E+02  0.00000000000E+00 0.  1.
<mgrwt>
<rscale>  1 0.30000000E+03</rscale>
<asrwt>0</asrwt>
<pdfrwt beam="1">  1        1 0.10971389E+00 0.30000000E+03</pdfrwt>
<pdfrwt beam="2">0</pdfrwt>
<totfact> 0.29826625E+01</totfact>
</mgrwt>
</event>
<event>
 6    1  0.1839160E-004  0.3000000E+03  0.7818608E-02  0.1093470E+00
          1   -1    0    0  502    0  0.00000000000E+00  0.00000000000E+00  0.46903185866E+02  0.46903185866E+02  0.00000000000E+00 0.  1.
         13   -1    0    0    0    0 -0.00000000000E+00 -0.00000000000E+00 -0.10000000000E+04  0.10000000000E+04  0.00000000000E+00 0.  1.
    9000005    2    1    2  501    0  0.50635002217E+02 -0.58623812278E+02 -0.91568186126E+03  0.96087683226E+03  0.28073183098E+03 0.  0.
         13    1    3    3    0    0 -0.24511383264E+02 -0.13944719666E+03 -0.26073393629E+03  0.29669599610E+03  0.00000000000E+00 0.  1.
          1    1    3    3  501    0  0.75146385480E+02  0.80823384381E+02 -0.65494792497E+03  0.66418083617E+03  0.00000000000E+00 0.  1.
         21    1    1    2  502  501 -0.50635002217E+02  0.58623812278E+02 -0.37414952875E+02  0.86026353602E+02  0.00000000000E+00 0.  1.
<mgrwt>
<rscale>  1 0.30000000E+03</rscale>
<asrwt>0</asrwt>
<pdfrwt beam="1">  1        1 0.17055740E+00 0.30000000E+03</pdfrwt>
<pdfrwt beam="2">0</pdfrwt>
<totfact> 0.14197887E+01</totfact>
</mgrwt>
</event>
<event>
 6    1  0.1839160E-004  0.3000000E+03  0.7818608E-02  0.1093470E+00
          1   -1    0    0  502    0  0.00000000000E+00  0.00000000000E+00  0.42704379113E+02  0.42704379113E+02  0.00000000000E+00 0.  1.
         13   -1    0    0    0    0 -0.00000000000E+00 -0.00000000000E+00 -0.10000000000E+04  0.10000000000E+04  0.00000000000E+00 0.  1.
    9000005    2    1    2  501    0 -0.18621688818E+01 -0.30759539570E+02 -0.95986573095E+03  0.10117815330E+04  0.31844941840E+03 0.  0.
         13    1    3    3    0    0 -0.81828274738E+02  0.11923378804E+03 -0.53432994673E+03  0.55355311825E+03  0.00000000000E+00 0.  1.
          1    1    3    3  501    0  0.79966105856E+02 -0.14999332760E+03 -0.42553578422E+03  0.45822841473E+03  0.00000000000E+00 0.  1.
         21    1    1    2  502  501  0.18621688818E+01  0.30759539570E+02  0.25701100592E+01  0.30922846137E+02  0.00000000000E+00 0.  1.
<mgrwt>
<rscale>  1 0.30000000E+03</rscale>
<asrwt>0</asrwt>
<pdfrwt beam="1">  1        1 0.15528898E+00 0.30000000E+03</pdfrwt>
<pdfrwt beam="2">0</pdfrwt>
<totfact> 0.16893435E+01</totfact>
</mgrwt>
</event>
<event>
 6    1  0.1839160E-004  0.3000000E+03  0.7818608E-02  0.1093470E+00
          1   -1    0    0  502    0  0.00000000000E+00  0.00000000000E+00  0.11434964756E+03  0.11434964756E+03  0.00000000000E+00 0.  1.
         13   -1    0    0    0    0 -0.00000000000E+00 -0.00000000000E+00 -0.10000000000E+04  0.10000000000E+04  0.00000000000E+00 0.  1.
    9000005    2    1    2  501    0 -0.77869435334E+01 -0.52004419466E+02 -0.96394607367E+03  0.10200346641E+04  0.32941400546E+03 0.  0.
         13    1    3    3    0    0  0.13412648941E+03 -0.90701393366E+02 -0.30987223854E+03  0.34962474475E+03  0.00000000000E+00 0.  1.
          1    1    3    3  501    0 -0.14191343294E+03  0.38696973900E+02 -0.65407383513E+03  0.67040991940E+03  0.00000000000E+00 0.  1.
         21    1    1    2  502  501  0.77869435334E+01  0.52004419466E+02  0.78295721230E+02  0.94314983414E+02  0.00000000000E+00 0.  1.
<mgrwt>
<rscale>  1 0.30000000E+03</rscale>
<asrwt>0</asrwt>
<pdfrwt beam="1">  1        1 0.41581778E+00 0.30000000E+03</pdfrwt>
<pdfrwt beam="2">0</pdfrwt>
<totfact> 0.85049298E-01</totfact>
</mgrwt>
</event>
<event>
 6    1  0.1839160E-004  0.3000000E+03  0.7818608E-02  0.1093470E+00
          1   -1    0    0  502    0  0.00000000000E+00  0.00000000000E+00  0.37561144172E+02  0.37561144172E+02  0.00000000000E+00 0.  1.
         13   -1    0    0    0    0 -0.00000000000E+00 -0.00000000000E+00 -0.10000000000E+04  0.10000000000E+04  0.00000000000E+00 0.  1.
    9000005    2    1    2  501    0  0.31403106587E+01 -0.49401902819E+02 -0.89724724708E+03  0.95570544550E+03  0.32537649980E+03 0.  0.
         13    1    3    3    0    0 -0.61626749518E+02 -0.14319712473E+02 -0.87704901591E+03  0.87932808822E+03  0.00000000000E+00 0.  1.
          3    1    3    3  501    0  0.64767060177E+02 -0.35082190346E+02 -0.20198231167E+02  0.76377357284E+02  0.00000000000E+00 0.  1.
         21    1    1    2  502  501 -0.31403106587E+01  0.49401902819E+02 -0.65191608750E+02  0.81855698669E+02  0.00000000000E+00 0. -1.
<mgrwt>
<rscale>  1 0.30000000E+03</rscale>
<asrwt>0</asrwt>
<pdfrwt beam="1">  1        1 0.13658627E+00 0.30000000E+03</pdfrwt>
<pdfrwt beam="2">0</pdfrwt>
<totfact> 0.21088583E+01</totfact>
</mgrwt>
</event>
<event>
 6    1  0.1839160E-004  0.3000000E+03  0.7818608E-02  0.1093470E+00
          1   -1    0    0  502    0  0.00000000000E+00  0.00000000000E+00  0.30197881128E+02  0.30197881128E+02  0.00000000000E+00 0.  1.
         13   -1    0    0    0    0 -0.00000000000E+00 -0.00000000000E+00 -0.10000000000E+04  0.10000000000E+04  0.00000000000E+00 0.  1.
    9000005    2    1    2  501    0  0.12017040263E+02 -0.37137723119E+01 -0.91620055395E+03  0.97514037371E+03  0.33364216162E+03 0.  0.
         13    1    3    3    0    0 -0.89990630586E+02  0.85354791616E+02 -0.75265367191E+03  0.76280489241E+03  0.00000000000E+00 0.  1.
          3    1    3    3  501    0  0.10200767085E+03 -0.89068563928E+02 -0.16354688204E+03  0.21233548130E+03  0.00000000000E+00 0.  1.
         21    1    1    2  502  501 -0.12017040263E+02  0.37137723119E+01 -0.53601564919E+02  0.55057507420E+02  0.00000000000E+00 0.  1.
<mgrwt>
<rscale>  1 0.30000000E+03</rscale>
<asrwt>0</asrwt>
<pdfrwt beam="1">  1        1 0.10981071E+00 0.30000000E+03</pdfrwt>
<pdfrwt beam="2">0</pdfrwt>
<totfact> 0.29786967E+01</totfact>
</mgrwt>
</event>
<event>
 6    1  0.1839160E-004  0.3000000E+03  0.7818608E-02  0.1093470E+00
          1   -1    0    0  502    0  0.00000000000E+00  0.00000000000E+00  0.26814109074E+02  0.26814109074E+02  0.00000000000E+00 0.  1.
         13   -1    0    0    0    0 -0.00000000000E+00 -0.00000000000E+00 -0.10000000000E+04  0.10000000000E+04  0.00000000000E+00 0.  1.
    9000005    2    1    2  501    0 -0.50261300335E+01  0.10055515755E+02 -0.96339590594E+03  0.10119070911E+04  0.30935079435E+03 0.  0.
         13    1    3    3    0    0 -0.60684009218E+01 -0.22351889622E+02  0.18397317110E+02  0.29578602676E+02  0.00000000000E+00 0.  1.
          1    1    3    3  501    0  0.10422708884E+01  0.32407405377E+02 -0.98179322305E+03  0.98232848838E+03  0.00000000000E+00 0.  1.
         21    1    1    2  502  501  0.50261300335E+01 -0.10055515755E+02 -0.97899849850E+01  0.14907018019E+02  0.00000000000E+00 0.  1.
<mgrwt>
<rscale>  1 0.30000000E+03</rscale>
<asrwt>0</asrwt>
<pdfrwt beam="1">  1        1 0.97506057E-01 0.30000000E+03</pdfrwt>
<pdfrwt beam="2">0</pdfrwt>
<totfact> 0.35509391E+01</totfact>
</mgrwt>
</event>
<event>
 6    1  0.1839160E-004  0.3000000E+03  0.7818608E-02  0.1093470E+00
          1   -1    0    0  502    0  0.00000000000E+00  0.00000000000E+00  0.30495056802E+02  0.30495056802E+02  0.00000000000E+00 0.  1.
         13   -1    0    0    0    0 -0.00000000000E+00 -0.00000000000E+00 -0.10000000000E+04  0.10000000000E+04  0.00000000000E+00 0.  1.
    9000005    2    1    2  501    0  0.96285583391E+01 -0.18690178838E+02 -0.84283963236E+03  0.90209672001E+03  0.32087040134E+03 0.  0.
         13    1    3    3    0    0  0.51717119750E+02  0.13424006589E+03 -0.55614059497E+03  0.57444531258E+03  0.00000000000E+00 0.  1.
          3    1    3    3  501    0 -0.42088561411E+02 -0.15293024473E+03 -0.28669903738E+03  0.32765140743E+03  0.00000000000E+00 0.  1.
         21    1    1    2  502  501 -0.96285583391E+01  0.18690178838E+02 -0.12666531084E+03  0.12839833679E+03  0.00000000000E+00 0.  1.
<mgrwt>
<rscale>  1 0.30000000E+03</rscale>
<asrwt>0</asrwt>
<pdfrwt beam="1">  1        1 0.11089135E+00 0.30000000E+03</pdfrwt>
<pdfrwt beam="2">0</pdfrwt>
<totfact> 0.29349330E+01</totfact>
</mgrwt>
</event>
<event>
 6    1  0.1839160E-004  0.3000000E+03  0.7818608E-02  0.1093470E+00
          1   -1    0    0  502    0  0.00000000000E+00  0.00000000000E+00  0.24997577519E+02  0.24997577519E+02  0.00000000000E+00 0.  1.
         13   -1    0    0    0    0 -0.00000000000E+00 -0.00000000000E+00 -0.10000000000E+04  0.10000000000E+04  0.00000000000E+00 0.  1.
    9000005    2    1    2  501    0  0.27230575001E+01  0.11839731572E+02 -0.96649272318E+03  0.10101648681E+04  0.29355967458E+03 0.  0.
         13    1    3    3    0    0 -0.10307467953E+03  0.21177817325E+02 -0.83278790895E+03  0.83940966804E+03  0.00000000000E+00 0.  1.
          1    1    3    3  501    0  0.10579773703E+03 -0.93380857529E+01 -0.13370481423E+03  0.17075520008E+03  0.00000000000E+00 0.  1.
         21    1    1    2  502  501 -0.27230575001E+01 -0.11839731572E+02 -0.85096993010E+01  0.14832709397E+02  0.00000000000E+00 0.  1.
<mgrwt>
<rscale>  1 0.30000000E+03</rscale>
<asrwt>0</asrwt>
<pdfrwt beam="1">  1        1 0.90900474E-01 0.30000000E+03</pdfrwt>
<pdfrwt beam="2">0</pdfrwt>
<totfact> 0.39272843E+01</totfact>
</mgrwt>
</event>
<event>
 6    1  0.1839160E-004  0.3000000E+03  0.7818608E-02  0.1093470E+00
          1   -1    0    0  502    0  0.00000000000E+00  0.00000000000E+00  0.33728761942E+02  0.33728761942E+02  0.00000000000E+00 0.  1.
         13   -1    0    0    0    0 -0.00000000000E+00 -0.00000000000E+00 -0.10000000000E+04  0.10000000000E+04  0.00000000000E+00 0.  1.
    9000005    2    1    2  501    0 -0.41167104640E+02 -0.72135504534E+01 -0.90424709314E+03  0.95893731613E+03  0.31646675179E+03 0.  0.
         13    1    3    3    0    0  0.55496065130E+01  0.30471751058E+02  0.17273506657E+02  0.35464063180E+02  0.00000000000E+00 0.  1.
          1    1    3    3  501    0 -0.46716711153E+02 -0.37685301512E+02 -0.92152059980E+03  0.92347325295E+03  0.00000000000E+00 0.  1.
         21    1    1    2  502  501  0.41167104640E+02  0.72135504534E+01 -0.62024144914E+02  0.74791445814E+02  0.00000000000E+00 0. -1.
<mgrwt>
<rscale>  1 0.30000000E+03</rscale>
<asrwt>0</asrwt>
<pdfrwt beam="1">  1        1 0.12265030E+00 0.30000000E+03</pdfrwt>
<pdfrwt beam="2">0</pdfrwt>
<totfact> 0.25119217E+01</totfact>
</mgrwt>
</event>
<event>
 6    1  0.1839160E-004  0.3000000E+03  0.7818608E-02  0.1093470E+00
          1   -1    0    0  502    0  0.00000000000E+00  0.00000000000E+00  0.44542006139E+02  0.44542006139E+02  0.00000000000E+00 0.  1.
         13   -1    0    0    0    0 -0.00000000000E+00 -0.00000000000E+00 -0.10000000000E+04  0.10000000000E+04  0.00000000000E+00 0.  1.
    9000005    2    1    2  501    0 -0.22204137111E+02  0.80035512732E+01 -0.96076112868E+03  0.10203510207E+04  0.34277861444E+03 0.  0.
         13    1    3    3    0    0 -0.68091096737E+02 -0.88400326876E+02 -0.90791960259E+02  0.14385477154E+03  0.00000000000E+00 0.  1.
          1    1    3    3  501    0  0.45886959626E+02  0.96403878149E+02 -0.86996916842E+03  0.87649624916E+03  0.00000000000E+00 0.  1.
         21    1    1    2  502  501  0.22204137111E+02 -0.80035512732E+01  0.53031348189E+01  0.24190985443E+02  0.00000000000E+00 0.  1.
<mgrwt>
<rscale>  1 0.30000000E+03</rscale>
<asrwt>0</asrwt>
<pdfrwt beam="1">  1        1 0.16197127E+00 0.30000000E+03</pdfrwt>
<pdfrwt beam="2">0</pdfrwt>
<totfact> 0.15646873E+01</totfact>
</mgrwt>
</event>
<event>
 6    1  0.1839160E-004  0.3000000E+03  0.7818608E-02  0.1093470E+00
          1   -1    0    0  502    0  0.00000000000E+00  0.00000000000E+00  0.37079181569E+02  0.37079181569E+02  0.00000000000E+00 0.  1.
         13   -1    0    0    0    0 -0.00000000000E+00 -0.00000000000E+00 -0.10000000000E+04  0.10000000000E+04  0.00000000000E+00 0.  1.
    9000005    2    1    2  501    0  0.10104032240E+02 -0.82469989581E+01 -0.97019028033E+03  0.10221476868E+04  0.32147567427E+03 0.  0.
         13    1    3    3    0    0  0.55479194710E+02  0.94445955438E+02 -0.11205074646E+03  0.15669508392E+03  0.00000000000E+00 0.  1.
          1    1    3    3  501    0 -0.45375162470E+02 -0.10269295440E+03 -0.85813953387E+03  0.86545260289E+03  0.00000000000E+00 0.  1.
         21    1    1    2  502  501 -0.10104032240E+02  0.82469989581E+01  0.72694618996E+01  0.14931494755E+02  0.00000000000E+00 0.  1.
<mgrwt>
<rscale>  1 0.30000000E+03</rscale>
<asrwt>0</asrwt>
<pdfrwt beam="1">  1        1 0.13483367E+00 0.30000000E+03</pdfrwt>
<pdfrwt beam="2">0</pdfrwt>
<totfact> 0.21546538E+01</totfact>
</mgrwt>
</event>
<event>
 6    1  0.1839160E-004  0.3000000E+03  0.7818608E-02  0.1093470E+00
          1   -1    0    0  502    0  0.00000000000E+00  0.00000000000E+00  0.68390841090E+02  0.68390841090E+02  0.00000000000E+00 0.  1.
         13   -1    0    0    0    0 -0.00000000000E+00 -0.00000000000E+00 -0.10000000000E+04  0.10000000000E+04  0.00000000000E+00 0.  1.
    9000005    2    1    2  501    0  0.28557302864E+02 -0.16985369805E+02 -0.97161786603E+03  0.10163839283E+04  0.29646414584E+03 0.  0.
         13    1    3    3    0    0 -0.19111359688E+00 -0.10594915999E+03 -0.12177496888E+03  0.16141376668E+03  0.00000000000E+00 0.  1.
          3    1    3    3  501    0  0.28748416461E+02  0.88963790188E+02 -0.84984289714E+03  0.85497016160E+03  0.00000000000E+00 0.  1.
         21    1    1    2  502  501 -0.28557302864E+02  0.16985369805E+02  0.40008707115E+02  0.52006912803E+02  0.00000000000E+00 0.  1.
<mgrwt>
<rscale>  1 0.30000000E+03</rscale>
<asrwt>0</asrwt>
<pdfrwt beam="1">  1        1 0.24869449E+00 0.30000000E+03</pdfrwt>
<pdfrwt beam="2">0</pdfrwt>
<totfact> 0.60501882E+00</totfact>
</mgrwt>
</event>
<event>
 6    1  0.1839160E-004  0.3000000E+03  0.7818608E-02  0.1093470E+00
          3   -1    0    0  502    0  0.00000000000E+00  0.00000000000E+00  0.28699054678E+02  0.28699054678E+02  0.00000000000E+00 0.  1.
         13   -1    0    0    0    0 -0.00000000000E+00 -0.00000000000E+00 -0.10000000000E+04  0.10000000000E+04  0.00000000000E+00 0.  1.
    9000005    2    1    2  501    0 -0.72110588499E+01 -0.93003536778E+01 -0.96307825860E+03  0.10143425744E+04  0.31817075629E+03 0.  0.
         13    1    3    3    0    0 -0.63915969730E+02 -0.89742630422E+02 -0.87608925809E+03  0.88299002205E+03  0.00000000000E+00 0.  1.
          3    1    3    3  501    0  0.56704910880E+02  0.80442276744E+02 -0.86989000505E+02  0.13135255237E+03  0.00000000000E+00 0.  1.
         21    1    1    2  502  501  0.72110588499E+01  0.93003536778E+01 -0.82226867244E+01  0.14356480252E+02  0.00000000000E+00 0. -1.
<mgrwt>
<rscale>  1 0.30000000E+03</rscale>
<asrwt>0</asrwt>
<pdfrwt beam="1">  1        3 0.10436042E+00 0.30000000E+03</pdfrwt>
<pdfrwt beam="2">0</pdfrwt>
<totfact> 0.34938729E+00</totfact>
</mgrwt>
</event>
<event>
 6    1  0.1839160E-004  0.3000000E+03  0.7818608E-02  0.1093470E+00
          3   -1    0    0  502    0  0.00000000000E+00  0.00000000000E+00  0.27648475526E+02  0.27648475526E+02  0.00000000000E+00 0.  1.
         13   -1    0    0    0    0 -0.00000000000E+00 -0.00000000000E+00 -0.10000000000E+04  0.10000000000E+04  0.00000000000E+00 0.  1.
    9000005    2    1    2  501    0  0.85991072406E+01 -0.86777066106E+01 -0.95649507344E+03  0.10076316257E+04  0.31668504917E+03 0.  0.
         13    1    3    3    0    0  0.16271019252E+02  0.90418463509E+02 -0.69788600333E+02  0.11537197817E+03  0.00000000000E+00 0.  1.
          1    1    3    3  501    0 -0.76719120109E+01 -0.99096170120E+02 -0.88670647311E+03  0.89225964754E+03  0.00000000000E+00 0.  1.
         21    1    1    2  502  501 -0.85991072406E+01  0.86777066106E+01 -0.15856451031E+02  0.20016849818E+02  0.00000000000E+00 0.  1.
<mgrwt>
<rscale>  1 0.30000000E+03</rscale>
<asrwt>0</asrwt>
<pdfrwt beam="1">  1        3 0.10054012E+00 0.30000000E+03</pdfrwt>
<pdfrwt beam="2">0</pdfrwt>
<totfact> 0.38619399E+00</totfact>
</mgrwt>
</event>
<event>
 6    1  0.1839160E-004  0.3000000E+03  0.7818608E-02  0.1093470E+00
          1   -1    0    0  502    0  0.00000000000E+00  0.00000000000E+00  0.33235072249E+02  0.33235072249E+02  0.00000000000E+00 0.  1.
         13   -1    0    0    0    0 -0.00000000000E+00 -0.00000000000E+00 -0.10000000000E+04  0.10000000000E+04  0.00000000000E+00 0.  1.
    9000005    2    1    2  501    0  0.14381296054E+02 -0.22883845423E+02 -0.94455291752E+03  0.99825128377E+03  0.32186164653E+03 0.  0.
         13    1    3    3    0    0  0.12865517174E+03 -0.24329762569E+02 -0.16633656332E+03  0.21168831536E+03  0.00000000000E+00 0.  1.
          3    1    3    3  501    0 -0.11427387569E+03  0.14459171462E+01 -0.77821635420E+03  0.78656296841E+03  0.00000000000E+00 0.  1.
         21    1    1    2  502  501 -0.14381296054E+02  0.22883845423E+02 -0.22212010235E+02  0.34983788477E+02  0.00000000000E+00 0.  1.
<mgrwt>
<rscale>  1 0.30000000E+03</rscale>
<asrwt>0</asrwt>
<pdfrwt beam="1">  1        1 0.12085506E+00 0.30000000E+03</pdfrwt>
<pdfrwt beam="2">0</pdfrwt>
<totfact> 0.25708766E+01</totfact>
</mgrwt>
</event>
<event>
 6    1  0.1839160E-004  0.3000000E+03  0.7818608E-02  0.1093470E+00
          1   -1    0    0  502    0  0.00000000000E+00  0.00000000000E+00  0.36363959860E+02  0.36363959860E+02  0.00000000000E+00 0.  1.
         13   -1    0    0    0    0 -0.00000000000E+00 -0.00000000000E+00 -0.10000000000E+04  0.10000000000E+04  0.00000000000E+00 0.  1.
    9000005    2    1    2  501    0 -0.20898602089E+01  0.20308945853E+02 -0.95744755814E+03  0.10150304626E+04  0.33639885931E+03 0.  0.
         13    1    3    3    0    0  0.14014080138E+02  0.17797153738E+03 -0.51154824459E+03  0.54180427195E+03  0.00000000000E+00 0.  1.
          1    1    3    3  501    0 -0.16103940347E+02 -0.15766259152E+03 -0.44589931355E+03  0.47322619062E+03  0.00000000000E+00 0.  1.
         21    1    1    2  502  501  0.20898602089E+01 -0.20308945853E+02 -0.61884819961E+01  0.21333497293E+02  0.00000000000E+00 0.  1.
<mgrwt>
<rscale>  1 0.30000000E+03</rscale>
<asrwt>0</asrwt>
<pdfrwt beam="1">  1        1 0.13223286E+00 0.30000000E+03</pdfrwt>
<pdfrwt beam="2">0</pdfrwt>
<totfact> 0.22250808E+01</totfact>
</mgrwt>
</event>
<event>
 6    1  0.1839160E-004  0.3000000E+03  0.7818608E-02  0.1093470E+00
          3   -1    0    0  502    0  0.00000000000E+00  0.00000000000E+00  0.37683708057E+02  0.37683708057E+02  0.00000000000E+00 0.  1.
         13   -1    0    0    0    0 -0.00000000000E+00 -0.00000000000E+00 -0.10000000000E+04  0.10000000000E+04  0.00000000000E+00 0.  1.
    9000005    2    1    2  501    0  0.32580003910E+02 -0.65961632615E+01 -0.94449242283E+03  0.99996559126E+03  0.32674191787E+03 0.  0.
         13    1    3    3    0    0 -0.11944617035E+03  0.87669470722E+02 -0.47389043715E+03  0.49651331315E+03  0.00000000000E+00 0.  1.
          1    1    3    3  501    0  0.15202617426E+03 -0.94265633983E+02 -0.47060198568E+03  0.50345227811E+03  0.00000000000E+00 0.  1.
         21    1    1    2  502  501 -0.32580003910E+02  0.65961632615E+01 -0.17823869113E+02  0.37718116797E+02  0.00000000000E+00 0. -1.
<mgrwt>
<rscale>  1 0.30000000E+03</rscale>
<asrwt>0</asrwt>
<pdfrwt beam="1">  1        3 0.13703195E+00 0.30000000E+03</pdfrwt>
<pdfrwt beam="2">0</pdfrwt>
<totfact> 0.14580037E+00</totfact>
</mgrwt>
</event>
<event>
 6    1  0.1839160E-004  0.3000000E+03  0.7818608E-02  0.1093470E+00
          1   -1    0    0  502    0  0.00000000000E+00  0.00000000000E+00  0.36881044897E+02  0.36881044897E+02  0.00000000000E+00 0.  1.
         13   -1    0    0    0    0 -0.00000000000E+00 -0.00000000000E+00 -0.10000000000E+04  0.10000000000E+04  0.00000000000E+00 0.  1.
    9000005    2    1    2  501    0 -0.34057731107E+02  0.19849573666E+02 -0.71952298986E+03  0.79011611849E+03  0.32406205136E+03 0.  0.
         13    1    3    3    0    0  0.11002056715E+03 -0.59705738270E+02 -0.14058192500E+03  0.18823543241E+03  0.00000000000E+00 0.  1.
          3    1    3    3  501    0 -0.14407829826E+03  0.79555311936E+02 -0.57894106486E+03  0.60188068607E+03  0.00000000000E+00 0.  1.
         21    1    1    2  502  501  0.34057731107E+02 -0.19849573666E+02 -0.24359596525E+03  0.24676492641E+03  0.00000000000E+00 0.  1.
<mgrwt>
<rscale>  1 0.30000000E+03</rscale>
<asrwt>0</asrwt>
<pdfrwt beam="1">  1        1 0.13411317E+00 0.30000000E+03</pdfrwt>
<pdfrwt beam="2">0</pdfrwt>
<totfact> 0.21738650E+01</totfact>
</mgrwt>
</event>
<event>
 6    1  0.1839160E-004  0.3000000E+03  0.7818608E-02  0.1093470E+00
          1   -1    0    0  502    0  0.00000000000E+00  0.00000000000E+00  0.42266039418E+02  0.42266039418E+02  0.00000000000E+00 0.  1.
         13   -1    0    0    0    0 -0.00000000000E+00 -0.00000000000E+00 -0.10000000000E+04  0.10000000000E+04  0.00000000000E+00 0.  1.
    9000005    2    1    2  501    0 -0.51034676948E+01  0.10087897813E+02 -0.97084229919E+03  0.10249559381E+04  0.32843887434E+03 0.  0.
         13    1    3    3    0    0 -0.51910220991E+02  0.11602277494E+03 -0.84270078875E+03  0.85223269986E+03  0.00000000000E+00 0.  1.
          1    1    3    3  501    0  0.46806753296E+02 -0.10593487713E+03 -0.12814151044E+03  0.17272323829E+03  0.00000000000E+00 0.  1.
         21    1    1    2  502  501  0.51034676948E+01 -0.10087897813E+02  0.13108338612E+02  0.17310101269E+02  0.00000000000E+00 0.  1.
<mgrwt>
<rscale>  1 0.30000000E+03</rscale>
<asrwt>0</asrwt>
<pdfrwt beam="1">  1        1 0.15369501E+00 0.30000000E+03</pdfrwt>
<pdfrwt beam="2">0</pdfrwt>
<totfact> 0.17207980E+01</totfact>
</mgrwt>
</event>
<event>
 6    1  0.1839160E-004  0.3000000E+03  0.7818608E-02  0.1093470E+00
          1   -1    0    0  502    0  0.00000000000E+00  0.00000000000E+00  0.45344460096E+02  0.45344460096E+02  0.00000000000E+00 0.  1.
         13   -1    0    0    0    0 -0.00000000000E+00 -0.00000000000E+00 -0.10000000000E+04  0.10000000000E+04  0.00000000000E+00 0.  1.
    9000005    2    1    2  501    0 -0.18332681056E+02  0.79241543081E+01 -0.96603350253E+03  0.10223588679E+04  0.33406293911E+03 0.  0.
         13    1    3    3    0    0  0.12499326228E+03  0.51455529258E+02 -0.19726153435E+03  0.23912988111E+03  0.00000000000E+00 0.  1.
          3    1    3    3  501    0 -0.14332594334E+03 -0.43531374950E+02 -0.76877196819E+03  0.78322898676E+03  0.00000000000E+00 0.  1.
         21    1    1    2  502  501  0.18332681056E+02 -0.79241543081E+01  0.11377962630E+02  0.22985592222E+02  0.00000000000E+00 0. -1.
<mgrwt>
<rscale>  1 0.30000000E+03</rscale>
<asrwt>0</asrwt>
<pdfrwt beam="1">  1        1 0.16488929E+00 0.30000000E+03</pdfrwt>
<pdfrwt beam="2">0</pdfrwt>
<totfact> 0.15136300E+01</totfact>
</mgrwt>
</event>
<event>
 6    1  0.1839160E-004  0.3000000E+03  0.7818608E-02  0.1093470E+00
          1   -1    0    0  502    0  0.00000000000E+00  0.00000000000E+00  0.30963440158E+02  0.30963440158E+02  0.00000000000E+00 0.  1.
         13   -1    0    0    0    0 -0.00000000000E+00 -0.00000000000E+00 -0.10000000000E+04  0.10000000000E+04  0.00000000000E+00 0.  1.
    9000005    2    1    2  501    0  0.12600246636E+02 -0.13244897254E+02 -0.96555292333E+03  0.10123535169E+04  0.30369886731E+03 0.  0.
         13    1    3    3    0    0  0.85120066015E+02  0.23265199630E+02 -0.68697360478E+02  0.11183032902E+03  0.00000000000E+00 0.  1.
          3    1    3    3  501    0 -0.72519819379E+02 -0.36510096884E+02 -0.89685556285E+03  0.90052318793E+03  0.00000000000E+00 0.  1.
         21    1    1    2  502  501 -0.12600246636E+02  0.13244897254E+02 -0.34836365130E+01  0.18609923211E+02  0.00000000000E+00 0. -1.
<mgrwt>
<rscale>  1 0.30000000E+03</rscale>
<asrwt>0</asrwt>
<pdfrwt beam="1">  1        1 0.11259457E+00 0.30000000E+03</pdfrwt>
<pdfrwt beam="2">0</pdfrwt>
<totfact> 0.28677828E+01</totfact>
</mgrwt>
</event>
<event>
 6    1  0.1839160E-004  0.3000000E+03  0.7818608E-02  0.1093470E+00
          1   -1    0    0  502    0  0.00000000000E+00  0.00000000000E+00  0.29019290705E+02  0.29019290705E+02  0.00000000000E+00 0.  1.
         13   -1    0    0    0    0 -0.00000000000E+00 -0.00000000000E+00 -0.10000000000E+04  0.10000000000E+04  0.00000000000E+00 0.  1.
    9000005    2    1    2  501    0  0.42092479435E+00 -0.14250665238E+02 -0.92805829154E+03  0.98379106298E+03  0.32611256410E+03 0.  0.
         13    1    3    3    0    0 -0.56623701185E+02 -0.52818261475E+02 -0.29914313429E+02  0.83011315066E+02  0.00000000000E+00 0.  1.
          3    1    3    3  501    0  0.57044625979E+02  0.38567596237E+02 -0.89814397811E+03  0.90077974791E+03  0.00000000000E+00 0.  1.
         21    1    1    2  502  501 -0.42092479435E+00  0.14250665238E+02 -0.42922417756E+02  0.45228227728E+02  0.00000000000E+00 0. -1.
<mgrwt>
<rscale>  1 0.30000000E+03</rscale>
<asrwt>0</asrwt>
<pdfrwt beam="1">  1        1 0.10552492E+00 0.30000000E+03</pdfrwt>
<pdfrwt beam="2">0</pdfrwt>
<totfact> 0.31617488E+01</totfact>
</mgrwt>
</event>
<event>
 6    1  0.1839160E-004  0.3000000E+03  0.7818608E-02  0.1093470E+00
          1   -1    0    0  502    0  0.00000000000E+00  0.00000000000E+00  0.49579576642E+02  0.49579576642E+02  0.00000000000E+00 0.  1.
         13   -1    0    0    0    0 -0.00000000000E+00 -0.00000000000E+00 -0.10000000000E+04  0.10000000000E+04  0.00000000000E+00 0.  1.
    9000005    2    1    2  501    0  0.33872109750E+02 -0.44000445226E+02 -0.93361169257E+03  0.99156326489E+03  0.32936842104E+03 0.  0.
         13    1    3    3    0    0  0.52960817910E+02 -0.64567960236E+02 -0.31868908337E+02  0.89383986493E+02  0.00000000000E+00 0.  1.
          1    1    3    3  501    0 -0.19088708160E+02  0.20567515010E+02 -0.90174278423E+03  0.90217927839E+03  0.00000000000E+00 0.  1.
         21    1    1    2  502  501 -0.33872109750E+02  0.44000445226E+02 -0.16808730792E+02  0.58016311757E+02  0.00000000000E+00 0.  1.
<mgrwt>
<rscale>  1 0.30000000E+03</rscale>
<asrwt>0</asrwt>
<pdfrwt beam="1">  1        1 0.18028975E+00 0.30000000E+03</pdfrwt>
<pdfrwt beam="2">0</pdfrwt>
<totfact> 0.12733299E+01</totfact>
</mgrwt>
</event>
<event>
 6    1  0.1839160E-004  0.3000000E+03  0.7818608E-02  0.1093470E+00
          1   -1    0    0  502    0  0.00000000000E+00  0.00000000000E+00  0.42077493254E+02  0.42077493254E+02  0.00000000000E+00 0.  1.
         13   -1    0    0    0    0 -0.00000000000E+00 -0.00000000000E+00 -0.10000000000E+04  0.10000000000E+04  0.00000000000E+00 0.  1.
    9000005    2    1    2  501    0  0.40863285647E+02  0.64983649177E+02 -0.80548969114E+03  0.87140691569E+03  0.32348676541E+03 0.  0.
         13    1    3    3    0    0  0.16452336843E+03 -0.40965053585E+02 -0.40112244348E+03  0.43548282290E+03  0.00000000000E+00 0.  1.
          3    1    3    3  501    0 -0.12366008279E+03  0.10594870276E+03 -0.40436724766E+03  0.43592409279E+03  0.00000000000E+00 0.  1.
         21    1    1    2  502  501 -0.40863285647E+02 -0.64983649177E+02 -0.15243281560E+03  0.17067057757E+03  0.00000000000E+00 0.  1.
<mgrwt>
<rscale>  1 0.30000000E+03</rscale>
<asrwt>0</asrwt>
<pdfrwt beam="1">  1        1 0.15300939E+00 0.30000000E+03</pdfrwt>
<pdfrwt beam="2">0</pdfrwt>
<totfact> 0.17345452E+01</totfact>
</mgrwt>
</event>
<event>
 6    1  0.1839160E-004  0.3000000E+03  0.7818608E-02  0.1093470E+00
          1   -1    0    0  502    0  0.00000000000E+00  0.00000000000E+00  0.66810075336E+02  0.66810075336E+02  0.00000000000E+00 0.  1.
         13   -1    0    0    0    0 -0.00000000000E+00 -0.00000000000E+00 -0.10000000000E+04  0.10000000000E+04  0.00000000000E+00 0.  1.
    9000005    2    1    2  501    0 -0.18808240602E+02 -0.12615881229E+01 -0.97006922551E+03  0.10253923937E+04  0.33172265119E+03 0.  0.
         13    1    3    3    0    0 -0.15276499899E+03 -0.60066532308E+02 -0.69182446933E+03  0.71103180631E+03  0.00000000000E+00 0.  1.
          1    1    3    3  501    0  0.13395675839E+03  0.58804944186E+02 -0.27824475618E+03  0.31436058742E+03  0.00000000000E+00 0.  1.
         21    1    1    2  502  501  0.18808240602E+02  0.12615881229E+01  0.36879300845E+02  0.41417681610E+02  0.00000000000E+00 0.  1.
<mgrwt>
<rscale>  1 0.30000000E+03</rscale>
<asrwt>0</asrwt>
<pdfrwt beam="1">  1        1 0.24294624E+00 0.30000000E+03</pdfrwt>
<pdfrwt beam="2">0</pdfrwt>
<totfact> 0.64359584E+00</totfact>
</mgrwt>
</event>
<event>
 6    1  0.1839160E-004  0.3000000E+03  0.7818608E-02  0.1093470E+00
          1   -1    0    0  502    0  0.00000000000E+00  0.00000000000E+00  0.46185946394E+02  0.46185946394E+02  0.00000000000E+00 0.  1.
         13   -1    0    0    0    0 -0.00000000000E+00 -0.00000000000E+00 -0.10000000000E+04  0.10000000000E+04  0.00000000000E+00 0.  1.
    9000005    2    1    2  501    0  0.86854899082E+01  0.87681223443E+01 -0.97092276381E+03  0.10250903149E+04  0.32858305293E+03 0.  0.
         13    1    3    3    0    0  0.10919549873E+02 -0.13781717156E+03 -0.21882937076E+03  0.25884184912E+03  0.00000000000E+00 0.  1.
          1    1    3    3  501    0 -0.22340599650E+01  0.14658529391E+03 -0.75209339305E+03  0.76624846576E+03  0.00000000000E+00 0.  1.
         21    1    1    2  502  501 -0.86854899082E+01 -0.87681223443E+01  0.17108710200E+02  0.21095631517E+02  0.00000000000E+00 0.  1.
<mgrwt>
<rscale>  1 0.30000000E+03</rscale>
<asrwt>0</asrwt>
<pdfrwt beam="1">  1        1 0.16794925E+00 0.30000000E+03</pdfrwt>
<pdfrwt beam="2">0</pdfrwt>
<totfact> 0.14621252E+01</totfact>
</mgrwt>
</event>
<event>
 6    1  0.1839160E-004  0.3000000E+03  0.7818608E-02  0.1093470E+00
          1   -1    0    0  502    0  0.00000000000E+00  0.00000000000E+00  0.54067743603E+02  0.54067743603E+02  0.00000000000E+00 0.  1.
         13   -1    0    0    0    0 -0.00000000000E+00 -0.00000000000E+00 -0.10000000000E+04  0.10000000000E+04  0.00000000000E+00 0.  1.
    9000005    2    1    2  501    0 -0.14765082372E+01  0.11726858347E+02 -0.97002024357E+03  0.10272362247E+04  0.33783914667E+03 0.  0.
         13    1    3    3    0    0  0.14813866420E+03  0.77310939245E+02 -0.59846653182E+03  0.62135676939E+03  0.00000000000E+00 0.  1.
          3    1    3    3  501    0 -0.14961517244E+03 -0.65584080898E+02 -0.37155371175E+03  0.40587945526E+03  0.00000000000E+00 0.  1.
         21    1    1    2  502  501  0.14765082372E+01 -0.11726858347E+02  0.24087987171E+02  0.26831518951E+02  0.00000000000E+00 0.  1.
<mgrwt>
<rscale>  1 0.30000000E+03</rscale>
<asrwt>0</asrwt>
<pdfrwt beam="1">  1        1 0.19661039E+00 0.30000000E+03</pdfrwt>
<pdfrwt beam="2">0</pdfrwt>
<totfact> 0.10630983E+01</totfact>
</mgrwt>
</event>
<event>
 6    1  0.1839160E-004  0.3000000E+03  0.7818608E-02  0.1093470E+00
          1   -1    0    0  502    0  0.00000000000E+00  0.00000000000E+00  0.32955474380E+02  0.32955474380E+02  0.00000000000E+00 0.  1.
         13   -1    0    0    0    0 -0.00000000000E+00 -0.00000000000E+00 -0.10000000000E+04  0.10000000000E+04  0.00000000000E+00 0.  1.
    9000005    2    1    2  501    0 -0.12413263460E+01  0.22818968577E+02 -0.94923232712E+03  0.10039809919E+04  0.32621093648E+03 0.  0.
         13    1    3    3    0    0 -0.89248726517E+02  0.69704156669E+02 -0.86802366739E+03  0.87537939877E+03  0.00000000000E+00 0.  1.
          1    1    3    3  501    0  0.88007400171E+02 -0.46885188092E+02 -0.81208659731E+02  0.12860159316E+03  0.00000000000E+00 0.  1.
         21    1    1    2  502  501  0.12413263460E+01 -0.22818968577E+02 -0.17812198497E+02  0.28974482451E+02  0.00000000000E+00 0. -1.
<mgrwt>
<rscale>  1 0.30000000E+03</rscale>
<asrwt>0</asrwt>
<pdfrwt beam="1">  1        1 0.11983834E+00 0.30000000E+03</pdfrwt>
<pdfrwt beam="2">0</pdfrwt>
<totfact> 0.26050811E+01</totfact>
</mgrwt>
</event>
<event>
 6    1  0.1839160E-004  0.3000000E+03  0.7818608E-02  0.1093470E+00
          1   -1    0    0  502    0  0.00000000000E+00  0.00000000000E+00  0.27862470337E+02  0.27862470337E+02  0.00000000000E+00 0.  1.
         13   -1    0    0    0    0 -0.00000000000E+00 -0.00000000000E+00 -0.10000000000E+04  0.10000000000E+04  0.00000000000E+00 0.  1.
    9000005    2    1    2  501    0 -0.12083692679E+02 -0.22959237808E+01 -0.95776095365E+03  0.10089423003E+04  0.31702875924E+03 0.  0.
         13    1    3    3    0    0  0.89437500344E+01 -0.11310132903E+03 -0.12592863387E+03  0.16949903280E+03  0.00000000000E+00 0.  1.
          3    1    3    3  501    0 -0.21027442714E+02  0.11080540525E+03 -0.83183231979E+03  0.83944326754E+03  0.00000000000E+00 0.  1.
         21    1    1    2  502  501  0.12083692679E+02  0.22959237808E+01 -0.14376576009E+02  0.18920169992E+02  0.00000000000E+00 0.  1.
<mgrwt>
<rscale>  1 0.30000000E+03</rscale>
<asrwt>0</asrwt>
<pdfrwt beam="1">  1        1 0.10131829E+00 0.30000000E+03</pdfrwt>
<pdfrwt beam="2">0</pdfrwt>
<totfact> 0.33576470E+01</totfact>
</mgrwt>
</event>
<event>
 6    1  0.1839160E-004  0.3000000E+03  0.7818608E-02  0.1093470E+00
          1   -1    0    0  502    0  0.00000000000E+00  0.00000000000E+00  0.36488749414E+02  0.36488749414E+02  0.00000000000E+00 0.  1.
         13   -1    0    0    0    0 -0.00000000000E+00 -0.00000000000E+00 -0.10000000000E+04  0.10000000000E+04  0.00000000000E+00 0.  1.
    9000005    2    1    2  501    0  0.24389120026E+02 -0.13961633920E+02 -0.92348472622E+03  0.98758190889E+03  0.34886133464E+03 0.  0.
         13    1    3    3    0    0  0.16916519506E+03  0.57279267167E+02 -0.36657543456E+03  0.40776871740E+03  0.00000000000E+00 0.  1.
          1    1    3    3  501    0 -0.14477607503E+03 -0.71240901087E+02 -0.55690929166E+03  0.57981319149E+03  0.00000000000E+00 0.  1.
         21    1    1    2  502  501 -0.24389120026E+02  0.13961633920E+02 -0.40026524368E+02  0.48906840527E+02  0.00000000000E+00 0. -1.
<mgrwt>
<rscale>  1 0.30000000E+03</rscale>
<asrwt>0</asrwt>
<pdfrwt beam="1">  1        1 0.13268664E+00 0.30000000E+03</pdfrwt>
<pdfrwt beam="2">0</pdfrwt>
<totfact> 0.22125763E+01</totfact>
</mgrwt>
</event>
<event>
 6    1  0.1839160E-004  0.3000000E+03  0.7818608E-02  0.1093470E+00
          1   -1    0    0  502    0  0.00000000000E+00  0.00000000000E+00  0.45669142147E+02  0.45669142147E+02  0.00000000000E+00 0.  1.
         13   -1    0    0    0    0 -0.00000000000E+00 -0.00000000000E+00 -0.10000000000E+04  0.10000000000E+04  0.00000000000E+00 0.  1.
    9000005    2    1    2  501    0 -0.55778965767E+02  0.82045995165E+02 -0.68370846226E+03  0.75743430848E+03  0.31049417377E+03 0.  0.
         13    1    3    3    0    0  0.91788905734E+01  0.18424974629E+03 -0.27486695050E+03  0.33103483429E+03  0.00000000000E+00 0.  1.
          3    1    3    3  501    0 -0.64957856340E+02 -0.10220375112E+03 -0.40884151177E+03  0.42639947419E+03  0.00000000000E+00 0.  1.
         21    1    1    2  502  501  0.55778965767E+02 -0.82045995165E+02 -0.27062239559E+03  0.28823483367E+03  0.00000000000E+00 0.  1.
<mgrwt>
<rscale>  1 0.30000000E+03</rscale>
<asrwt>0</asrwt>
<pdfrwt beam="1">  1        1 0.16606996E+00 0.30000000E+03</pdfrwt>
<pdfrwt beam="2">0</pdfrwt>
<totfact> 0.14935162E+01</totfact>
</mgrwt>
</event>
<event>
 6    1  0.1839160E-004  0.3000000E+03  0.7818608E-02  0.1093470E+00
          1   -1    0    0  502    0  0.00000000000E+00  0.00000000000E+00  0.33978507452E+02  0.33978507452E+02  0.00000000000E+00 0.  1.
         13   -1    0    0    0    0 -0.00000000000E+00 -0.00000000000E+00 -0.10000000000E+04  0.10000000000E+04  0.00000000000E+00 0.  1.
    9000005    2    1    2  501    0 -0.17475065260E+02  0.20410622356E+02 -0.94603622163E+03  0.10004914582E+04  0.32446364046E+03 0.  0.
         13    1    3    3    0    0  0.13787093060E+03  0.29270064398E+02 -0.24733990732E+03  0.28467904722E+03  0.00000000000E+00 0.  1.
          3    1    3    3  501    0 -0.15534599586E+03 -0.88594420413E+01 -0.69869631431E+03  0.71581241102E+03  0.00000000000E+00 0.  1.
         21    1    1    2  502  501  0.17475065260E+02 -0.20410622356E+02 -0.19985270920E+02  0.33487049206E+02  0.00000000000E+00 0. -1.
<mgrwt>
<rscale>  1 0.30000000E+03</rscale>
<asrwt>0</asrwt>
<pdfrwt beam="1">  1        1 0.12355847E+00 0.30000000E+03</pdfrwt>
<pdfrwt beam="2">0</pdfrwt>
<totfact> 0.24827723E+01</totfact>
</mgrwt>
</event>
<event>
 6    1  0.1839160E-004  0.3000000E+03  0.7818608E-02  0.1093470E+00
          1   -1    0    0  502    0  0.00000000000E+00  0.00000000000E+00  0.47857168017E+02  0.47857168017E+02  0.00000000000E+00 0.  1.
         13   -1    0    0    0    0 -0.00000000000E+00 -0.00000000000E+00 -0.10000000000E+04  0.10000000000E+04  0.00000000000E+00 0.  1.
    9000005    2    1    2  501    0  0.19518297320E+02  0.68890752084E+02 -0.89637237007E+03  0.95709790362E+03  0.32775916711E+03 0.  0.
         13    1    3    3    0    0 -0.67647171630E+02 -0.78869561179E+01 -0.17144438717E+02  0.70230162219E+02  0.00000000000E+00 0.  1.
          3    1    3    3  501    0  0.87165468950E+02  0.76777708202E+02 -0.87922793136E+03  0.88686774140E+03  0.00000000000E+00 0.  1.
         21    1    1    2  502  501 -0.19518297320E+02 -0.68890752084E+02 -0.55770461909E+02  0.90759264400E+02  0.00000000000E+00 0.  1.
<mgrwt>
<rscale>  1 0.30000000E+03</rscale>
<asrwt>0</asrwt>
<pdfrwt beam="1">  1        1 0.17402643E+00 0.30000000E+03</pdfrwt>
<pdfrwt beam="2">0</pdfrwt>
<totfact> 0.13655879E+01</totfact>
</mgrwt>
</event>
<event>
 6    1  0.1839160E-004  0.3000000E+03  0.7818608E-02  0.1093470E+00
          1   -1    0    0  502    0  0.00000000000E+00  0.00000000000E+00  0.44853031723E+02  0.44853031723E+02  0.00000000000E+00 0.  1.
         13   -1    0    0    0    0 -0.00000000000E+00 -0.00000000000E+00 -0.10000000000E+04  0.10000000000E+04  0.00000000000E+00 0.  1.
    9000005    2    1    2  501    0  0.13708339223E+02 -0.11477957624E+02 -0.96941583580E+03  0.10219780966E+04  0.32303638369E+03 0.  0.
         13    1    3    3    0    0  0.42420653221E+01 -0.36630418575E+02  0.13071337149E+02  0.39123426972E+02  0.00000000000E+00 0.  1.
          1    1    3    3  501    0  0.94662739014E+01  0.25152460951E+02 -0.98248717295E+03  0.98285466965E+03  0.00000000000E+00 0.  1.
         21    1    1    2  502  501 -0.13708339223E+02  0.11477957624E+02  0.14268867527E+02  0.22874935103E+02  0.00000000000E+00 0.  1.
<mgrwt>
<rscale>  1 0.30000000E+03</rscale>
<asrwt>0</asrwt>
<pdfrwt beam="1">  1        1 0.16310228E+00 0.30000000E+03</pdfrwt>
<pdfrwt beam="2">0</pdfrwt>
<totfact> 0.15446663E+01</totfact>
</mgrwt>
</event>
<event>
 6    1  0.1839160E-004  0.3000000E+03  0.7818608E-02  0.1093470E+00
          1   -1    0    0  502    0  0.00000000000E+00  0.00000000000E+00  0.35560334474E+02  0.35560334474E+02  0.00000000000E+00 0.  1.
         13   -1    0    0    0    0 -0.00000000000E+00 -0.00000000000E+00 -0.10000000000E+04  0.10000000000E+04  0.00000000000E+00 0.  1.
    9000005    2    1    2  501    0 -0.75212970805E+01 -0.10720540729E+02 -0.96475166279E+03  0.10224608213E+04  0.33839157837E+03 0.  0.
         13    1    3    3    0    0 -0.70554140118E+02  0.72786156754E+02 -0.73802385973E+02  0.12538940736E+03  0.00000000000E+00 0.  1.
          1    1    3    3  501    0  0.63032843038E+02 -0.83506697483E+02 -0.89094927682E+03  0.89707141393E+03  0.00000000000E+00 0.  1.
         21    1    1    2  502  501  0.75212970805E+01  0.10720540729E+02  0.31199726889E+00  0.13099513181E+02  0.00000000000E+00 0. -1.
<mgrwt>
<rscale>  1 0.30000000E+03</rscale>
<asrwt>0</asrwt>
<pdfrwt beam="1">  1        1 0.12931058E+00 0.30000000E+03</pdfrwt>
<pdfrwt beam="2">0</pdfrwt>
<totfact> 0.23078654E+01</totfact>
</mgrwt>
</event>
<event>
 6    1  0.1839160E-004  0.3000000E+03  0.7818608E-02  0.1093470E+00
          1   -1    0    0  502    0  0.00000000000E+00  0.00000000000E+00  0.26926124665E+02  0.26926124665E+02  0.00000000000E+00 0.  1.
         13   -1    0    0    0    0 -0.00000000000E+00 -0.00000000000E+00 -0.10000000000E+04  0.10000000000E+04  0.00000000000E+00 0.  1.
    9000005    2    1    2  501    0 -0.10421687385E+02  0.68709451876E+01 -0.97320610417E+03  0.10144425779E+04  0.28602063068E+03 0.  0.
         13    1    3    3    0    0  0.12093986820E+03  0.70370723310E+02 -0.50535647010E+03  0.52436976676E+03  0.00000000000E+00 0.  1.
          3    1    3    3  501    0 -0.13136155558E+03 -0.63499778122E+02 -0.46784963407E+03  0.49007281113E+03  0.00000000000E+00 0.  1.
         21    1    1    2  502  501  0.10421687385E+02 -0.68709451876E+01  0.13222883585E+00  0.12483546779E+02  0.00000000000E+00 0.  1.
<mgrwt>
<rscale>  1 0.30000000E+03</rscale>
<asrwt>0</asrwt>
<pdfrwt beam="1">  1        1 0.97913387E-01 0.30000000E+03</pdfrwt>
<pdfrwt beam="2">0</pdfrwt>
<totfact> 0.35295131E+01</totfact>
</mgrwt>
</event>
<event>
 6    1  0.1839160E-004  0.3000000E+03  0.7818608E-02  0.1093470E+00
          1   -1    0    0  502    0  0.00000000000E+00  0.00000000000E+00  0.32995839092E+02  0.32995839092E+02  0.00000000000E+00 0.  1.
         13   -1    0    0    0    0 -0.00000000000E+00 -0.00000000000E+00 -0.10000000000E+04  0.10000000000E+04  0.00000000000E+00 0.  1.
    9000005    2    1    2  501    0 -0.47070614937E+01  0.17381873882E+02 -0.95111611297E+03  0.10089809263E+04  0.33629802763E+03 0.  0.
         13    1    3    3    0    0  0.76483433009E+02 -0.89636484848E+02 -0.12411155005E+03  0.17113763992E+03  0.00000000000E+00 0.  1.
          3    1    3    3  501    0 -0.81190494503E+02  0.10701835873E+03 -0.82700456292E+03  0.83784328641E+03  0.00000000000E+00 0.  1.
         21    1    1    2  502  501  0.47070614937E+01 -0.17381873882E+02 -0.15888047941E+02  0.24014912761E+02  0.00000000000E+00 0. -1.
<mgrwt>
<rscale>  1 0.30000000E+03</rscale>
<asrwt>0</asrwt>
<pdfrwt beam="1">  1        1 0.11998512E+00 0.30000000E+03</pdfrwt>
<pdfrwt beam="2">0</pdfrwt>
<totfact> 0.26001057E+01</totfact>
</mgrwt>
</event>
<event>
 6    1  0.1839160E-004  0.3000000E+03  0.7818608E-02  0.1093470E+00
          1   -1    0    0  502    0  0.00000000000E+00  0.00000000000E+00  0.37291430007E+02  0.37291430007E+02  0.00000000000E+00 0.  1.
         13   -1    0    0    0    0 -0.00000000000E+00 -0.00000000000E+00 -0.10000000000E+04  0.10000000000E+04  0.00000000000E+00 0.  1.
    9000005    2    1    2  501    0  0.88950824578E+01 -0.12775834131E+02 -0.95405205343E+03  0.10194790829E+04  0.35899851732E+03 0.  0.
         13    1    3    3    0    0 -0.39788330129E+02  0.14492817621E+03 -0.21563581442E+03  0.26284233284E+03  0.00000000000E+00 0.  1.
          3    1    3    3  501    0  0.48683412587E+02 -0.15770401034E+03 -0.73841623901E+03  0.75663675008E+03  0.00000000000E+00 0.  1.
         21    1    1    2  502  501 -0.88950824578E+01  0.12775834131E+02 -0.86565165667E+01  0.17812347087E+02  0.00000000000E+00 0.  1.
<mgrwt>
<rscale>  1 0.30000000E+03</rscale>
<asrwt>0</asrwt>
<pdfrwt beam="1">  1        1 0.13560549E+00 0.30000000E+03</pdfrwt>
<pdfrwt beam="2">0</pdfrwt>
<totfact> 0.21343242E+01</totfact>
</mgrwt>
</event>
<event>
 6    1  0.1839160E-004  0.3000000E+03  0.7818608E-02  0.1093470E+00
          1   -1    0    0  502    0  0.00000000000E+00  0.00000000000E+00  0.28686456685E+02  0.28686456685E+02  0.00000000000E+00 0.  1.
         13   -1    0    0    0    0 -0.00000000000E+00 -0.00000000000E+00 -0.10000000000E+04  0.10000000000E+04  0.00000000000E+00 0.  1.
    9000005    2    1    2  501    0 -0.13946629446E+02  0.33495528505E+01 -0.94690460528E+03  0.10003752534E+04  0.32236095929E+03 0.  0.
         13    1    3    3    0    0  0.37845215659E+02 -0.99926792810E+01  0.11251796811E+02  0.40727348538E+02  0.00000000000E+00 0.  1.
          1    1    3    3  501    0 -0.51791845104E+02  0.13342232131E+02 -0.95815640209E+03  0.95964790483E+03  0.00000000000E+00 0.  1.
         21    1    1    2  502  501  0.13946629446E+02 -0.33495528505E+01 -0.24408938040E+02  0.28311203320E+02  0.00000000000E+00 0. -1.
<mgrwt>
<rscale>  1 0.30000000E+03</rscale>
<asrwt>0</asrwt>
<pdfrwt beam="1">  1        1 0.10431461E+00 0.30000000E+03</pdfrwt>
<pdfrwt beam="2">0</pdfrwt>
<totfact> 0.32163714E+01</totfact>
</mgrwt>
</event>
<event>
 6    1  0.1839160E-004  0.3000000E+03  0.7818608E-02  0.1093470E+00
          1   -1    0    0  502    0  0.00000000000E+00  0.00000000000E+00  0.31451099235E+02  0.31451099235E+02  0.00000000000E+00 0.  1.
         13   -1    0    0    0    0 -0.00000000000E+00 -0.00000000000E+00 -0.10000000000E+04  0.10000000000E+04  0.00000000000E+00 0.  1.
    9000005    2    1    2  501    0 -0.15644991125E+02 -0.39831885252E+01 -0.96185668889E+03  0.10139749086E+04  0.32049367208E+03 0.  0.
         13    1    3    3    0    0 -0.16198985531E+03 -0.22423885239E+02 -0.62879324196E+03  0.64971107809E+03  0.00000000000E+00 0.  1.
          1    1    3    3  501    0  0.14634486418E+03  0.18440696714E+02 -0.33306344692E+03  0.36426383054E+03  0.00000000000E+00 0.  1.
         21    1    1    2  502  501  0.15644991125E+02  0.39831885252E+01 -0.66922118794E+01  0.17476190602E+02  0.00000000000E+00 0.  1.
<mgrwt>
<rscale>  1 0.30000000E+03</rscale>
<asrwt>0</asrwt>
<pdfrwt beam="1">  1        1 0.11436787E+00 0.30000000E+03</pdfrwt>
<pdfrwt beam="2">0</pdfrwt>
<totfact> 0.28001695E+01</totfact>
</mgrwt>
</event>
<event>
 6    1  0.1839160E-004  0.3000000E+03  0.7818608E-02  0.1093470E+00
          1   -1    0    0  502    0  0.00000000000E+00  0.00000000000E+00  0.33679063874E+02  0.33679063874E+02  0.00000000000E+00 0.  1.
         13   -1    0    0    0    0 -0.00000000000E+00 -0.00000000000E+00 -0.10000000000E+04  0.10000000000E+04  0.00000000000E+00 0.  1.
    9000005    2    1    2  501    0 -0.44749679024E+01 -0.14528110541E+02 -0.96287545266E+03  0.10180918034E+04  0.33037961715E+03 0.  0.
         13    1    3    3    0    0 -0.93252663143E+02  0.11533602548E+03 -0.66380006312E+03  0.68016834810E+03  0.00000000000E+00 0.  1.
          1    1    3    3  501    0  0.88777695240E+02 -0.12986413602E+03 -0.29907538954E+03  0.33792345527E+03  0.00000000000E+00 0.  1.
         21    1    1    2  502  501  0.44749679024E+01  0.14528110541E+02 -0.34454834664E+01  0.15587260501E+02  0.00000000000E+00 0.  1.
<mgrwt>
<rscale>  1 0.30000000E+03</rscale>
<asrwt>0</asrwt>
<pdfrwt beam="1">  1        1 0.12246958E+00 0.30000000E+03</pdfrwt>
<pdfrwt beam="2">0</pdfrwt>
<totfact> 0.25177754E+01</totfact>
</mgrwt>
</event>
<event>
 6    1  0.1839160E-004  0.3000000E+03  0.7818608E-02  0.1093470E+00
          1   -1    0    0  502    0  0.00000000000E+00  0.00000000000E+00  0.34532653468E+02  0.34532653468E+02  0.00000000000E+00 0.  1.
         13   -1    0    0    0    0 -0.00000000000E+00 -0.00000000000E+00 -0.10000000000E+04  0.10000000000E+04  0.00000000000E+00 0.  1.
    9000005    2    1    2  501    0  0.11372856782E+02  0.52053099336E+01 -0.96661516338E+03  0.10219726134E+04  0.33155197383E+03 0.  0.
         13    1    3    3    0    0  0.14367807728E+03 -0.89275028547E+02 -0.48350074214E+03  0.51223665259E+03  0.00000000000E+00 0.  1.
          1    1    3    3  501    0 -0.13230522050E+03  0.94480338480E+02 -0.48311442124E+03  0.50973596081E+03  0.00000000000E+00 0.  1.
         21    1    1    2  502  501 -0.11372856782E+02 -0.52053099336E+01  0.11478168465E+01  0.12560040064E+02  0.00000000000E+00 0.  1.
<mgrwt>
<rscale>  1 0.30000000E+03</rscale>
<asrwt>0</asrwt>
<pdfrwt beam="1">  1        1 0.12557355E+00 0.30000000E+03</pdfrwt>
<pdfrwt beam="2">0</pdfrwt>
<totfact> 0.24196330E+01</totfact>
</mgrwt>
</event>
<event>
 6    1  0.1839160E-004  0.3000000E+03  0.7818608E-02  0.1093470E+00
          1   -1    0    0  502    0  0.00000000000E+00  0.00000000000E+00  0.38569513522E+02  0.38569513522E+02  0.00000000000E+00 0.  1.
         13   -1    0    0    0    0 -0.00000000000E+00 -0.00000000000E+00 -0.10000000000E+04  0.10000000000E+04  0.00000000000E+00 0.  1.
    9000005    2    1    2  501    0 -0.48205480495E+02  0.23613582244E+02 -0.94290979339E+03  0.98178583903E+03  0.26822226909E+03 0.  0.
         13    1    3    3    0    0  0.51330257977E+02  0.31160130749E+02 -0.82548481840E+03  0.82766595589E+03  0.00000000000E+00 0.  1.
          3    1    3    3  501    0 -0.99535738472E+02 -0.75465485047E+01 -0.11742497499E+03  0.15411988314E+03  0.00000000000E+00 0.  1.
         21    1    1    2  502  501  0.48205480495E+02 -0.23613582244E+02 -0.18520693088E+02  0.56783674491E+02  0.00000000000E+00 0.  1.
<mgrwt>
<rscale>  1 0.30000000E+03</rscale>
<asrwt>0</asrwt>
<pdfrwt beam="1">  1        1 0.14025307E+00 0.30000000E+03</pdfrwt>
<pdfrwt beam="2">0</pdfrwt>
<totfact> 0.20170531E+01</totfact>
</mgrwt>
</event>
<event>
 6    1  0.1839160E-004  0.3000000E+03  0.7818608E-02  0.1093470E+00
          1   -1    0    0  502    0  0.00000000000E+00  0.00000000000E+00  0.33625852065E+02  0.33625852065E+02  0.00000000000E+00 0.  1.
         13   -1    0    0    0    0 -0.00000000000E+00 -0.00000000000E+00 -0.10000000000E+04  0.10000000000E+04  0.00000000000E+00 0.  1.
    9000005    2    1    2  501    0 -0.14857565204E+02  0.20025541848E+02 -0.91709038188E+03  0.97839307949E+03  0.33996540983E+03 0.  0.
         13    1    3    3    0    0 -0.15627201645E+02 -0.15777099193E+03 -0.35356301517E+03  0.38748251705E+03  0.00000000000E+00 0.  1.
          1    1    3    3  501    0  0.76963644075E+00  0.17779653378E+03 -0.56352736671E+03  0.59091056244E+03  0.00000000000E+00 0.  1.
         21    1    1    2  502  501  0.14857565204E+02 -0.20025541848E+02 -0.49283766055E+02  0.55232772578E+02  0.00000000000E+00 0. -1.
<mgrwt>
<rscale>  1 0.30000000E+03</rscale>
<asrwt>0</asrwt>
<pdfrwt beam="1">  1        1 0.12227608E+00 0.30000000E+03</pdfrwt>
<pdfrwt beam="2">0</pdfrwt>
<totfact> 0.25240629E+01</totfact>
</mgrwt>
</event>
<event>
 6    1  0.1839160E-004  0.3000000E+03  0.7818608E-02  0.1093470E+00
          3   -1    0    0  502    0  0.00000000000E+00  0.00000000000E+00  0.25804647625E+02  0.25804647625E+02  0.00000000000E+00 0.  1.
         13   -1    0    0    0    0 -0.00000000000E+00 -0.00000000000E+00 -0.10000000000E+04  0.10000000000E+04  0.00000000000E+00 0.  1.
    9000005    2    1    2  501    0  0.98413576795E+01  0.37893349365E+01 -0.93565582958E+03  0.98584834402E+03  0.31037705232E+03 0.  0.
         13    1    3    3    0    0 -0.53635631287E+01  0.30462413333E+02 -0.95101534841E+03  0.95151821808E+03  0.00000000000E+00 0.  1.
          3    1    3    3  501    0  0.15204920808E+02 -0.26673078397E+02  0.15359518833E+02  0.34330125935E+02  0.00000000000E+00 0.  1.
         21    1    1    2  502  501 -0.98413576795E+01 -0.37893349365E+01 -0.38539522800E+02  0.39956303606E+02  0.00000000000E+00 0. -1.
<mgrwt>
<rscale>  1 0.30000000E+03</rscale>
<asrwt>0</asrwt>
<pdfrwt beam="1">  1        3 0.93835280E-01 0.30000000E+03</pdfrwt>
<pdfrwt beam="2">0</pdfrwt>
<totfact> 0.46071986E+00</totfact>
</mgrwt>
</event>
<event>
 6    1  0.1839160E-004  0.3000000E+03  0.7818608E-02  0.1093470E+00
          1   -1    0    0  502    0  0.00000000000E+00  0.00000000000E+00  0.99788339521E+02  0.99788339521E+02  0.00000000000E+00 0.  1.
         13   -1    0    0    0    0 -0.00000000000E+00 -0.00000000000E+00 -0.10000000000E+04  0.10000000000E+04  0.00000000000E+00 0.  1.
    9000005    2    1    2  501    0  0.60217341101E+02  0.11039621663E+02 -0.95858464735E+03  0.10151987006E+04  0.32862725719E+03 0.  0.
         13    1    3    3    0    0 -0.57360834604E+02  0.13692473960E+03 -0.58935922426E+03  0.60776882520E+03  0.00000000000E+00 0.  1.
          1    1    3    3  501    0  0.11757817570E+03 -0.12588511794E+03 -0.36922542308E+03  0.40742987540E+03  0.00000000000E+00 0.  1.
         21    1    1    2  502  501 -0.60217341101E+02 -0.11039621663E+02  0.58372986868E+02  0.84589638914E+02  0.00000000000E+00 0.  1.
<mgrwt>
<rscale>  1 0.30000000E+03</rscale>
<asrwt>0</asrwt>
<pdfrwt beam="1">  1        1 0.36286745E+00 0.30000000E+03</pdfrwt>
<pdfrwt beam="2">0</pdfrwt>
<totfact> 0.16858557E+00</totfact>
</mgrwt>
</event>
<event>
 6    1  0.1839160E-004  0.3000000E+03  0.7818608E-02  0.1093470E+00
          1   -1    0    0  502    0  0.00000000000E+00  0.00000000000E+00  0.75182456000E+02  0.75182456000E+02  0.00000000000E+00 0.  1.
         13   -1    0    0    0    0 -0.00000000000E+00 -0.00000000000E+00 -0.10000000000E+04  0.10000000000E+04  0.00000000000E+00 0.  1.
    9000005    2    1    2  501    0  0.12595347312E+03  0.93494663975E+02 -0.79437130302E+03  0.87116835999E+03  0.32140786364E+03 0.  0.
         13    1    3    3    0    0  0.28361894587E+02  0.20584618213E+03 -0.49512725385E+03  0.53696186575E+03  0.00000000000E+00 0.  1.
          3    1    3    3  501    0  0.97591578536E+02 -0.11235151815E+03 -0.29924404917E+03  0.33420649424E+03  0.00000000000E+00 0.  1.
         21    1    1    2  502  501 -0.12595347312E+03 -0.93494663975E+02 -0.13044624098E+03  0.20401409601E+03  0.00000000000E+00 0.  1.
<mgrwt>
<rscale>  1 0.30000000E+03</rscale>
<asrwt>0</asrwt>
<pdfrwt beam="1">  1        1 0.27339133E+00 0.30000000E+03</pdfrwt>
<pdfrwt beam="2">0</pdfrwt>
<totfact> 0.46357424E+00</totfact>
</mgrwt>
</event>
<event>
 6    1  0.1839160E-004  0.3000000E+03  0.7818608E-02  0.1093470E+00
          1   -1    0    0  502    0  0.00000000000E+00  0.00000000000E+00  0.54310368541E+02  0.54310368541E+02  0.00000000000E+00 0.  1.
         13   -1    0    0    0    0 -0.00000000000E+00 -0.00000000000E+00 -0.10000000000E+04  0.10000000000E+04  0.00000000000E+00 0.  1.
    9000005    2    1    2  501    0 -0.81498426600E+01 -0.13151323246E+02 -0.97025621670E+03  0.10252777257E+04  0.33099533468E+03 0.  0.
         13    1    3    3    0    0 -0.14588339446E+03  0.66451411012E+01 -0.75477851884E+03  0.76877612813E+03  0.00000000000E+00 0.  1.
          1    1    3    3  501    0  0.13773355180E+03 -0.19796464347E+02 -0.21547769786E+03  0.25650159759E+03  0.00000000000E+00 0.  1.
         21    1    1    2  502  501  0.81498426600E+01  0.13151323246E+02  0.24566585241E+02  0.29032642817E+02  0.00000000000E+00 0.  1.
<mgrwt>
<rscale>  1 0.30000000E+03</rscale>
<asrwt>0</asrwt>
<pdfrwt beam="1">  1        1 0.19749267E+00 0.30000000E+03</pdfrwt>
<pdfrwt beam="2">0</pdfrwt>
<totfact> 0.10528635E+01</totfact>
</mgrwt>
</event>
<event>
 6    1  0.1839160E-004  0.3000000E+03  0.7818608E-02  0.1093470E+00
          1   -1    0    0  502    0  0.00000000000E+00  0.00000000000E+00  0.33263754426E+02  0.33263754426E+02  0.00000000000E+00 0.  1.
         13   -1    0    0    0    0 -0.00000000000E+00 -0.00000000000E+00 -0.10000000000E+04  0.10000000000E+04  0.00000000000E+00 0.  1.
    9000005    2    1    2  501    0 -0.22723656634E+02  0.96383466053E+01 -0.94748062851E+03  0.10019581465E+04  0.32494818624E+03 0.  0.
         13    1    3    3    0    0  0.11971101767E+03 -0.90889967029E+02 -0.48250448664E+03  0.50537341984E+03  0.00000000000E+00 0.  1.
          1    1    3    3  501    0 -0.14243467431E+03  0.10052831363E+03 -0.46497614187E+03  0.49658472670E+03  0.00000000000E+00 0.  1.
         21    1    1    2  502  501  0.22723656634E+02 -0.96383466053E+01 -0.19255617068E+02  0.31305607880E+02  0.00000000000E+00 0.  1.
<mgrwt>
<rscale>  1 0.30000000E+03</rscale>
<asrwt>0</asrwt>
<pdfrwt beam="1">  1        1 0.12095936E+00 0.30000000E+03</pdfrwt>
<pdfrwt beam="2">0</pdfrwt>
<totfact> 0.25674017E+01</totfact>
</mgrwt>
</event>
<event>
 6    1  0.1839160E-004  0.3000000E+03  0.7818608E-02  0.1093470E+00
          1   -1    0    0  502    0  0.00000000000E+00  0.00000000000E+00  0.30081871123E+02  0.30081871123E+02  0.00000000000E+00 0.  1.
         13   -1    0    0    0    0 -0.00000000000E+00 -0.00000000000E+00 -0.10000000000E+04  0.10000000000E+04  0.00000000000E+00 0.  1.
    9000005    2    1    2  501    0 -0.16257072166E+02  0.33533780876E+00 -0.95199478343E+03  0.10058816406E+04  0.32440623038E+03 0.  0.
         13    1    3    3    0    0  0.15033434709E+03  0.35065308369E+02 -0.43235017370E+03  0.45908241576E+03  0.00000000000E+00 0.  1.
          3    1    3    3  501    0 -0.16659141926E+03 -0.34729970560E+02 -0.51964460973E+03  0.54679922481E+03  0.00000000000E+00 0.  1.
         21    1    1    2  502  501  0.16257072166E+02 -0.33533780876E+00 -0.17923345446E+02  0.24200230553E+02  0.00000000000E+00 0.  1.
<mgrwt>
<rscale>  1 0.30000000E+03</rscale>
<asrwt>0</asrwt>
<pdfrwt beam="1">  1        1 0.10938885E+00 0.30000000E+03</pdfrwt>
<pdfrwt beam="2">0</pdfrwt>
<totfact> 0.29960325E+01</totfact>
</mgrwt>
</event>
<event>
 6    1  0.1839160E-004  0.3000000E+03  0.7818608E-02  0.1093470E+00
          1   -1    0    0  502    0  0.00000000000E+00  0.00000000000E+00  0.46666317781E+02  0.46666317781E+02  0.00000000000E+00 0.  1.
         13   -1    0    0    0    0 -0.00000000000E+00 -0.00000000000E+00 -0.10000000000E+04  0.10000000000E+04  0.00000000000E+00 0.  1.
    9000005    2    1    2  501    0  0.57878252844E+02 -0.40751993237E+02 -0.87413855182E+03  0.94044727154E+03  0.33957656819E+03 0.  0.
         13    1    3    3    0    0  0.14869116670E+03 -0.89847711622E+02 -0.23079566367E+03  0.28887421607E+03  0.00000000000E+00 0.  1.
          3    1    3    3  501    0 -0.90812913858E+02  0.49095718385E+02 -0.64334288815E+03  0.65157305548E+03  0.00000000000E+00 0.  1.
         21    1    1    2  502  501 -0.57878252844E+02  0.40751993237E+02 -0.79195130395E+02  0.10621904624E+03  0.00000000000E+00 0. -1.
<mgrwt>
<rscale>  1 0.30000000E+03</rscale>
<asrwt>0</asrwt>
<pdfrwt beam="1">  1        1 0.16969606E+00 0.30000000E+03</pdfrwt>
<pdfrwt beam="2">0</pdfrwt>
<totfact> 0.14336156E+01</totfact>
</mgrwt>
</event>
<event>
 6    1  0.1839160E-004  0.3000000E+03  0.7818608E-02  0.1093470E+00
          1   -1    0    0  502    0  0.00000000000E+00  0.00000000000E+00  0.28535793361E+02  0.28535793361E+02  0.00000000000E+00 0.  1.
         13   -1    0    0    0    0 -0.00000000000E+00 -0.00000000000E+00 -0.10000000000E+04  0.10000000000E+04  0.00000000000E+00 0.  1.
    9000005    2    1    2  501    0 -0.35887463227E+01  0.12801664617E+02 -0.95365531346E+03  0.10063115185E+04  0.32097921061E+03 0.  0.
         13    1    3    3    0    0  0.15479132558E+03  0.82020260644E+01 -0.36165897337E+03  0.39347787832E+03  0.00000000000E+00 0.  1.
          1    1    3    3  501    0 -0.15838007190E+03  0.45996385531E+01 -0.59199634009E+03  0.61283364017E+03  0.00000000000E+00 0.  1.
         21    1    1    2  502  501  0.35887463227E+01 -0.12801664617E+02 -0.17808893175E+02  0.22224274865E+02  0.00000000000E+00 0. -1.
<mgrwt>
<rscale>  1 0.30000000E+03</rscale>
<asrwt>0</asrwt>
<pdfrwt beam="1">  1        1 0.10376674E+00 0.30000000E+03</pdfrwt>
<pdfrwt beam="2">0</pdfrwt>
<totfact> 0.32415479E+01</totfact>
</mgrwt>
</event>
<event>
 6    1  0.1839160E-004  0.3000000E+03  0.7818608E-02  0.1093470E+00
          1   -1    0    0  502    0  0.00000000000E+00  0.00000000000E+00  0.35706209108E+02  0.35706209108E+02  0.00000000000E+00 0.  1.
         13   -1    0    0    0    0 -0.00000000000E+00 -0.00000000000E+00 -0.10000000000E+04  0.10000000000E+04  0.00000000000E+00 0.  1.
    9000005    2    1    2  501    0  0.16402097954E+02 -0.13842065481E+02 -0.95935175127E+03  0.10136822369E+04  0.32670363213E+03 0.  0.
         13    1    3    3    0    0 -0.65695276345E+02 -0.10516388351E+03 -0.81405026516E+03  0.82343982532E+03  0.00000000000E+00 0.  1.
          1    1    3    3  501    0  0.82097374298E+02  0.91321818025E+02 -0.14530148611E+03  0.19024241162E+03  0.00000000000E+00 0.  1.
         21    1    1    2  502  501 -0.16402097954E+02  0.13842065481E+02 -0.49420396234E+01  0.22023972160E+02  0.00000000000E+00 0.  1.
<mgrwt>
<rscale>  1 0.30000000E+03</rscale>
<asrwt>0</asrwt>
<pdfrwt beam="1">  1        1 0.12984103E+00 0.30000000E+03</pdfrwt>
<pdfrwt beam="2">0</pdfrwt>
<totfact> 0.22925438E+01</totfact>
</mgrwt>
</event>
<event>
 6    1  0.1839160E-004  0.3000000E+03  0.7818608E-02  0.1093470E+00
          1   -1    0    0  502    0  0.00000000000E+00  0.00000000000E+00  0.67760849052E+02  0.67760849052E+02  0.00000000000E+00 0.  1.
         13   -1    0    0    0    0 -0.00000000000E+00 -0.00000000000E+00 -0.10000000000E+04  0.10000000000E+04  0.00000000000E+00 0.  1.
    9000005    2    1    2  501    0  0.14456829845E+03  0.79409529489E+02 -0.58602511888E+03  0.68426375351E+03  0.31238690452E+03 0.  0.
         13    1    3    3    0    0 -0.79971254735E+02  0.60971507491E+02 -0.73972956571E+02  0.12483959554E+03  0.00000000000E+00 0.  1.
          3    1    3    3  501    0  0.22453955318E+03  0.18438021998E+02 -0.51205216231E+03  0.55942415797E+03  0.00000000000E+00 0.  1.
         21    1    1    2  502  501 -0.14456829845E+03 -0.79409529489E+02 -0.34621403207E+03  0.38349709554E+03  0.00000000000E+00 0. -1.
<mgrwt>
<rscale>  1 0.30000000E+03</rscale>
<asrwt>0</asrwt>
<pdfrwt beam="1">  1        1 0.24640361E+00 0.30000000E+03</pdfrwt>
<pdfrwt beam="2">0</pdfrwt>
<totfact> 0.62008275E+00</totfact>
</mgrwt>
</event>
<event>
 6    1  0.1839160E-004  0.3000000E+03  0.7818608E-02  0.1093470E+00
          3   -1    0    0  502    0  0.00000000000E+00  0.00000000000E+00  0.28826245741E+02  0.28826245741E+02  0.00000000000E+00 0.  1.
         13   -1    0    0    0    0 -0.00000000000E+00 -0.00000000000E+00 -0.10000000000E+04  0.10000000000E+04  0.00000000000E+00 0.  1.
    9000005    2    1    2  501    0 -0.13777033106E+02 -0.11377746010E+02 -0.95471713615E+03  0.10045346829E+04  0.31190681197E+03 0.  0.
         13    1    3    3    0    0  0.80275208774E+02  0.78150899404E+02 -0.77364897617E+03  0.78171888205E+03  0.00000000000E+00 0.  1.
          1    1    3    3  501    0 -0.94052241880E+02 -0.89528645414E+02 -0.18106815998E+03  0.22281580085E+03  0.00000000000E+00 0.  1.
         21    1    1    2  502  501  0.13777033106E+02  0.11377746010E+02 -0.16456618111E+02  0.24291562838E+02  0.00000000000E+00 0. -1.
<mgrwt>
<rscale>  1 0.30000000E+03</rscale>
<asrwt>0</asrwt>
<pdfrwt beam="1">  1        3 0.10482293E+00 0.30000000E+03</pdfrwt>
<pdfrwt beam="2">0</pdfrwt>
<totfact> 0.34517769E+00</totfact>
</mgrwt>
</event>
<event>
 6    1  0.1839160E-004  0.3000000E+03  0.7818608E-02  0.1093470E+00
          1   -1    0    0  502    0  0.00000000000E+00  0.00000000000E+00  0.84892764980E+02  0.84892764980E+02  0.00000000000E+00 0.  1.
         13   -1    0    0    0    0 -0.00000000000E+00 -0.00000000000E+00 -0.10000000000E+04  0.10000000000E+04  0.00000000000E+00 0.  1.
    9000005    2    1    2  501    0 -0.12156780431E+03 -0.54848737514E+02 -0.88746355551E+03  0.94868965169E+03  0.30762538554E+03 0.  0.
         13    1    3    3    0    0 -0.96797802594E+01 -0.10901157264E+03 -0.90279366576E+02  0.14187172074E+03  0.00000000000E+00 0.  1.
          3    1    3    3  501    0 -0.11188802405E+03  0.54162835125E+02 -0.79718418893E+03  0.80681793096E+03  0.00000000000E+00 0.  1.
         21    1    1    2  502  501  0.12156780431E+03  0.54848737514E+02 -0.27643679512E+02  0.13620311329E+03  0.00000000000E+00 0.  1.
<mgrwt>
<rscale>  1 0.30000000E+03</rscale>
<asrwt>0</asrwt>
<pdfrwt beam="1">  1        1 0.30870161E+00 0.30000000E+03</pdfrwt>
<pdfrwt beam="2">0</pdfrwt>
<totfact> 0.31578371E+00</totfact>
</mgrwt>
</event>
<event>
 6    1  0.1839160E-004  0.3000000E+03  0.7818608E-02  0.1093470E+00
          1   -1    0    0  502    0  0.00000000000E+00  0.00000000000E+00  0.30701236316E+02  0.30701236316E+02  0.00000000000E+00 0.  1.
         13   -1    0    0    0    0 -0.00000000000E+00 -0.00000000000E+00 -0.10000000000E+04  0.10000000000E+04  0.00000000000E+00 0.  1.
    9000005    2    1    2  501    0 -0.18452495485E+02 -0.13978897524E+02 -0.93962717543E+03  0.99306737769E+03  0.32054279536E+03 0.  0.
         13    1    3    3    0    0  0.11960339788E+03 -0.89828787610E+02 -0.60503001053E+03  0.62324593662E+03  0.00000000000E+00 0.  1.
          3    1    3    3  501    0 -0.13805589336E+03  0.75849890086E+02 -0.33459716490E+03  0.36982144107E+03  0.00000000000E+00 0.  1.
         21    1    1    2  502  501  0.18452495485E+02  0.13978897524E+02 -0.29671588251E+02  0.37633858624E+02  0.00000000000E+00 0.  1.
<mgrwt>
<rscale>  1 0.30000000E+03</rscale>
<asrwt>0</asrwt>
<pdfrwt beam="1">  1        1 0.11164109E+00 0.30000000E+03</pdfrwt>
<pdfrwt beam="2">0</pdfrwt>
<totfact> 0.29051029E+01</totfact>
</mgrwt>
</event>
<event>
 6    1  0.1839160E-004  0.3000000E+03  0.7818608E-02  0.1093470E+00
          3   -1    0    0  502    0  0.00000000000E+00  0.00000000000E+00  0.36299246813E+02  0.36299246813E+02  0.00000000000E+00 0.  1.
         13   -1    0    0    0    0 -0.00000000000E+00 -0.00000000000E+00 -0.10000000000E+04  0.10000000000E+04  0.00000000000E+00 0.  1.
    9000005    2    1    2  501    0 -0.75545279159E+01 -0.68522376130E+01 -0.96763921190E+03  0.10253660172E+04  0.33903657740E+03 0.  0.
         13    1    3    3    0    0 -0.63202066816E+02  0.65796448608E+02 -0.91551613942E+03  0.92005080047E+03  0.00000000000E+00 0.  1.
          3    1    3    3  501    0  0.55647538900E+02 -0.72648686221E+02 -0.52123072476E+02  0.10531521675E+03  0.00000000000E+00 0.  1.
         21    1    1    2  502  501  0.75545279159E+01  0.68522376130E+01  0.39384587096E+01  0.10933229594E+02  0.00000000000E+00 0.  1.
<mgrwt>
<rscale>  1 0.30000000E+03</rscale>
<asrwt>0</asrwt>
<pdfrwt beam="1">  1        3 0.13199754E+00 0.30000000E+03</pdfrwt>
<pdfrwt beam="2">0</pdfrwt>
<totfact> 0.16761761E+00</totfact>
</mgrwt>
</event>
<event>
 6    1  0.1839160E-004  0.3000000E+03  0.7818608E-02  0.1093470E+00
          1   -1    0    0  502    0  0.00000000000E+00  0.00000000000E+00  0.32843769014E+02  0.32843769014E+02  0.00000000000E+00 0.  1.
         13   -1    0    0    0    0 -0.00000000000E+00 -0.00000000000E+00 -0.10000000000E+04  0.10000000000E+04  0.00000000000E+00 0.  1.
    9000005    2    1    2  501    0  0.38791544610E+02  0.36393193995E+01 -0.92182966993E+03  0.97307315988E+03  0.30916566035E+03 0.  0.
         13    1    3    3    0    0  0.10239791489E+03  0.54130652559E+02 -0.11869548410E+03  0.16584353610E+03  0.00000000000E+00 0.  1.
          3    1    3    3  501    0 -0.63606370283E+02 -0.50491333160E+02 -0.80313418582E+03  0.80722962377E+03  0.00000000000E+00 0.  1.
         21    1    1    2  502  501 -0.38791544610E+02 -0.36393193995E+01 -0.45326561059E+02  0.59770609135E+02  0.00000000000E+00 0.  1.
<mgrwt>
<rscale>  1 0.30000000E+03</rscale>
<asrwt>0</asrwt>
<pdfrwt beam="1">  1        1 0.11943214E+00 0.30000000E+03</pdfrwt>
<pdfrwt beam="2">0</pdfrwt>
<totfact> 0.26189170E+01</totfact>
</mgrwt>
</event>
<event>
 6    1  0.1839160E-004  0.3000000E+03  0.7818608E-02  0.1093470E+00
          1   -1    0    0  502    0  0.00000000000E+00  0.00000000000E+00  0.32331350569E+02  0.32331350569E+02  0.00000000000E+00 0.  1.
         13   -1    0    0    0    0 -0.00000000000E+00 -0.00000000000E+00 -0.10000000000E+04  0.10000000000E+04  0.00000000000E+00 0.  1.
    9000005    2    1    2  501    0 -0.12955481348E+02 -0.16586093804E+02 -0.95264181222E+03  0.10064711719E+04  0.32405995503E+03 0.  0.
         13    1    3    3    0    0 -0.30787383075E+02 -0.75898959454E+02 -0.38972171356E+02  0.90704714007E+02  0.00000000000E+00 0.  1.
          3    1    3    3  501    0  0.17831901728E+02  0.59312865651E+02 -0.91366964087E+03  0.91576645789E+03  0.00000000000E+00 0.  1.
         21    1    1    2  502  501  0.12955481348E+02  0.16586093804E+02 -0.15026837210E+02  0.25860178676E+02  0.00000000000E+00 0.  1.
<mgrwt>
<rscale>  1 0.30000000E+03</rscale>
<asrwt>0</asrwt>
<pdfrwt beam="1">  1        1 0.11756880E+00 0.30000000E+03</pdfrwt>
<pdfrwt beam="2">0</pdfrwt>
<totfact> 0.26836763E+01</totfact>
</mgrwt>
</event>
<event>
 6    1  0.1839160E-004  0.3000000E+03  0.7818608E-02  0.1093470E+00
          1   -1    0    0  502    0  0.00000000000E+00  0.00000000000E+00  0.21969821853E+02  0.21969821853E+02  0.00000000000E+00 0.  1.
         13   -1    0    0    0    0 -0.00000000000E+00 -0.00000000000E+00 -0.10000000000E+04  0.10000000000E+04  0.00000000000E+00 0.  1.
    9000005    2    1    2  501    0 -0.82239536748E+01 -0.45607233871E+01 -0.95547215007E+03  0.99753013604E+03  0.28644529869E+03 0.  0.
         13    1    3    3    0    0  0.42215616322E+02 -0.11084241669E+03 -0.76141747813E+03  0.77060026966E+03  0.00000000000E+00 0.  1.
          1    1    3    3  501    0 -0.50439569997E+02  0.10628169331E+03 -0.19405467194E+03  0.22692986638E+03  0.00000000000E+00 0.  1.
         21    1    1    2  502  501  0.82239536748E+01  0.45607233871E+01 -0.22558028077E+02  0.24439685812E+02  0.00000000000E+00 0.  1.
<mgrwt>
<rscale>  1 0.30000000E+03</rscale>
<asrwt>0</asrwt>
<pdfrwt beam="1">  1        1 0.79890430E-01 0.30000000E+03</pdfrwt>
<pdfrwt beam="2">0</pdfrwt>
<totfact> 0.47054875E+01</totfact>
</mgrwt>
</event>
<event>
 6    1  0.1839160E-004  0.3000000E+03  0.7818608E-02  0.1093470E+00
          1   -1    0    0  502    0  0.00000000000E+00  0.00000000000E+00  0.31959750970E+02  0.31959750970E+02  0.00000000000E+00 0.  1.
         13   -1    0    0    0    0 -0.00000000000E+00 -0.00000000000E+00 -0.10000000000E+04  0.10000000000E+04  0.00000000000E+00 0.  1.
    9000005    2    1    2  501    0  0.12141988137E+02 -0.12617330635E+01 -0.96489581415E+03  0.10193539064E+04  0.32849571460E+03 0.  0.
         13    1    3    3    0    0 -0.92097517130E+02 -0.49533799322E+02 -0.85164462818E+03  0.85804086304E+03  0.00000000000E+00 0.  1.
          1    1    3    3  501    0  0.10423950527E+03  0.48272066258E+02 -0.11325118597E+03  0.16131304337E+03  0.00000000000E+00 0.  1.
         21    1    1    2  502  501 -0.12141988137E+02  0.12617330635E+01 -0.31444348805E+01  0.12605844556E+02  0.00000000000E+00 0.  1.
<mgrwt>
<rscale>  1 0.30000000E+03</rscale>
<asrwt>0</asrwt>
<pdfrwt beam="1">  1        1 0.11621752E+00 0.30000000E+03</pdfrwt>
<pdfrwt beam="2">0</pdfrwt>
<totfact> 0.27320168E+01</totfact>
</mgrwt>
</event>
<event>
 6    1  0.1839160E-004  0.3000000E+03  0.7818608E-02  0.1093470E+00
          1   -1    0    0  502    0  0.00000000000E+00  0.00000000000E+00  0.34725930465E+02  0.34725930465E+02  0.00000000000E+00 0.  1.
         13   -1    0    0    0    0 -0.00000000000E+00 -0.00000000000E+00 -0.10000000000E+04  0.10000000000E+04  0.00000000000E+00 0.  1.
    9000005    2    1    2  501    0  0.14017396141E+02  0.10311079604E+02 -0.96025034811E+03  0.10166139583E+04  0.33334727161E+03 0.  0.
         13    1    3    3    0    0  0.79940502193E+02 -0.12614139099E+03 -0.69737572562E+03  0.71318653738E+03  0.00000000000E+00 0.  1.
          1    1    3    3  501    0 -0.65923106052E+02  0.13645247060E+03 -0.26287462249E+03  0.30342742097E+03  0.00000000000E+00 0.  1.
         21    1    1    2  502  501 -0.14017396141E+02 -0.10311079604E+02 -0.50237214209E+01  0.18111972120E+02  0.00000000000E+00 0.  1.
<mgrwt>
<rscale>  1 0.30000000E+03</rscale>
<asrwt>0</asrwt>
<pdfrwt beam="1">  1        1 0.12627638E+00 0.30000000E+03</pdfrwt>
<pdfrwt beam="2">0</pdfrwt>
<totfact> 0.23980919E+01</totfact>
</mgrwt>
</event>
<event>
 6    1  0.1839160E-004  0.3000000E+03  0.7818608E-02  0.1093470E+00
          1   -1    0    0  502    0  0.00000000000E+00  0.00000000000E+00  0.46772535292E+02  0.46772535292E+02  0.00000000000E+00 0.  1.
         13   -1    0    0    0    0 -0.00000000000E+00 -0.00000000000E+00 -0.10000000000E+04  0.10000000000E+04  0.00000000000E+00 0.  1.
    9000005    2    1    2  501    0 -0.33629948752E+02 -0.67932304967E+01 -0.94455960451E+03  0.10113853450E+04  0.35990324846E+03 0.  0.
         13    1    3    3    0    0 -0.26609063079E+02  0.91916956773E+02 -0.89610523535E+03  0.90119995673E+03  0.00000000000E+00 0.  1.
          1    1    3    3  501    0 -0.70208856728E+01 -0.98710187270E+02 -0.48454369160E+02  0.11018538831E+03  0.00000000000E+00 0.  1.
         21    1    1    2  502  501  0.33629948752E+02  0.67932304967E+01 -0.86678601955E+01  0.35387190253E+02  0.00000000000E+00 0.  1.
<mgrwt>
<rscale>  1 0.30000000E+03</rscale>
<asrwt>0</asrwt>
<pdfrwt beam="1">  1        1 0.17008231E+00 0.30000000E+03</pdfrwt>
<pdfrwt beam="2">0</pdfrwt>
<totfact> 0.14273966E+01</totfact>
</mgrwt>
</event>
<event>
 6    1  0.2488675E-004  0.3000000E+03  0.7818608E-02  0.1093470E+00
          1   -1    0    0  502    0  0.00000000000E+00  0.00000000000E+00  0.48447883006E+02  0.48447883006E+02  0.00000000000E+00 0.  1.
         13   -1    0    0    0    0 -0.00000000000E+00 -0.00000000000E+00 -0.10000000000E+04  0.10000000000E+04  0.00000000000E+00 0.  1.
    9000005    2    1    2  501    0  0.68426099245E+01  0.65266038369E+01 -0.94069184311E+03  0.10340477644E+04  0.42926008132E+03 0.  0.
         13    1    3    3    0    0 -0.20101199171E+02 -0.11752867539E+03 -0.41972872716E+02  0.12640715878E+03  0.00000000000E+00 0.  1.
          1    1    3    3  501    0  0.26943809095E+02  0.12405527922E+03 -0.89871897040E+03  0.90764060558E+03  0.00000000000E+00 0.  1.
         21    1    1    2  502  501 -0.68426099245E+01 -0.65266038369E+01 -0.10860273883E+02  0.14400118646E+02  0.00000000000E+00 0. -1.
<mgrwt>
<rscale>  1 0.30000000E+03</rscale>
<asrwt>0</asrwt>
<pdfrwt beam="1">  1        1 0.17617449E+00 0.30000000E+03</pdfrwt>
<pdfrwt beam="2">0</pdfrwt>
<totfact> 0.13331563E+01</totfact>
</mgrwt>
</event>
<event>
 6    1  0.1839160E-004  0.3000000E+03  0.7818608E-02  0.1093470E+00
          1   -1    0    0  502    0  0.00000000000E+00  0.00000000000E+00  0.40314152533E+02  0.40314152533E+02  0.00000000000E+00 0.  1.
         13   -1    0    0    0    0 -0.00000000000E+00 -0.00000000000E+00 -0.10000000000E+04  0.10000000000E+04  0.00000000000E+00 0.  1.
    9000005    2    1    2  501    0 -0.70036759294E+01  0.35380670657E+02 -0.94436499928E+03  0.10011277809E+04  0.33034941878E+03 0.  0.
         13    1    3    3    0    0  0.49655069404E+02 -0.12848844942E+03 -0.24995803975E+03  0.28540134756E+03  0.00000000000E+00 0.  1.
          3    1    3    3  501    0 -0.56658745334E+02  0.16386912008E+03 -0.69440695953E+03  0.71572643334E+03  0.00000000000E+00 0.  1.
         21    1    1    2  502  501  0.70036759294E+01 -0.35380670657E+02 -0.15320848188E+02  0.39186371634E+02  0.00000000000E+00 0. -1.
<mgrwt>
<rscale>  1 0.30000000E+03</rscale>
<asrwt>0</asrwt>
<pdfrwt beam="1">  1        1 0.14659723E+00 0.30000000E+03</pdfrwt>
<pdfrwt beam="2">0</pdfrwt>
<totfact> 0.18698796E+01</totfact>
</mgrwt>
</event>
<event>
 6    1  0.1839160E-004  0.3000000E+03  0.7818608E-02  0.1093470E+00
          1   -1    0    0  502    0  0.00000000000E+00  0.00000000000E+00  0.48689587641E+02  0.48689587641E+02  0.00000000000E+00 0.  1.
         13   -1    0    0    0    0 -0.00000000000E+00 -0.00000000000E+00 -0.10000000000E+04  0.10000000000E+04  0.00000000000E+00 0.  1.
    9000005    2    1    2  501    0  0.12549759380E+02 -0.22652000998E+01 -0.94548250987E+03  0.10346684593E+04  0.42004644582E+03 0.  0.
         13    1    3    3    0    0 -0.17494582802E+03 -0.44293624823E+02 -0.22196473061E+03  0.28607046260E+03  0.00000000000E+00 0.  1.
          1    1    3    3  501    0  0.18749558739E+03  0.42028424723E+02 -0.72351777926E+03  0.74859799672E+03  0.00000000000E+00 0.  1.
         21    1    1    2  502  501 -0.12549759380E+02  0.22652000998E+01 -0.58279024860E+01  0.14021128320E+02  0.00000000000E+00 0.  1.
<mgrwt>
<rscale>  1 0.30000000E+03</rscale>
<asrwt>0</asrwt>
<pdfrwt beam="1">  1        1 0.17705342E+00 0.30000000E+03</pdfrwt>
<pdfrwt beam="2">0</pdfrwt>
<totfact> 0.13201268E+01</totfact>
</mgrwt>
</event>
<event>
 6    1  0.1839160E-004  0.3000000E+03  0.7818608E-02  0.1093470E+00
          1   -1    0    0  502    0  0.00000000000E+00  0.00000000000E+00  0.32030165760E+02  0.32030165760E+02  0.00000000000E+00 0.  1.
         13   -1    0    0    0    0 -0.00000000000E+00 -0.00000000000E+00 -0.10000000000E+04  0.10000000000E+04  0.00000000000E+00 0.  1.
    9000005    2    1    2  501    0  0.24508012546E+02  0.17252974736E+02 -0.86568255090E+03  0.92544219200E+03  0.32578929386E+03 0.  0.
         13    1    3    3    0    0  0.81217299985E+02  0.77165212380E+02 -0.82660077371E+03  0.83415799398E+03  0.00000000000E+00 0.  1.
          3    1    3    3  501    0 -0.56709287439E+02 -0.59912237643E+02 -0.39081777191E+02  0.91284198028E+02  0.00000000000E+00 0.  1.
         21    1    1    2  502  501 -0.24508012546E+02 -0.17252974736E+02 -0.10228728334E+03  0.10658797376E+03  0.00000000000E+00 0.  1.
<mgrwt>
<rscale>  1 0.30000000E+03</rscale>
<asrwt>0</asrwt>
<pdfrwt beam="1">  1        1 0.11647358E+00 0.30000000E+03</pdfrwt>
<pdfrwt beam="2">0</pdfrwt>
<totfact> 0.27227649E+01</totfact>
</mgrwt>
</event>
<event>
 6    1  0.1839160E-004  0.3000000E+03  0.7818608E-02  0.1093470E+00
          1   -1    0    0  502    0  0.00000000000E+00  0.00000000000E+00  0.27467346040E+02  0.27467346040E+02  0.00000000000E+00 0.  1.
         13   -1    0    0    0    0 -0.00000000000E+00 -0.00000000000E+00 -0.10000000000E+04  0.10000000000E+04  0.00000000000E+00 0.  1.
    9000005    2    1    2  501    0 -0.11446634739E+02  0.12952033427E+01 -0.96712493938E+03  0.10147415307E+04  0.30698049255E+03 0.  0.
         13    1    3    3    0    0  0.11830498783E+03  0.38192731607E+02 -0.19738996770E+03  0.23327570435E+03  0.00000000000E+00 0.  1.
          3    1    3    3  501    0 -0.12975162257E+03 -0.36897528264E+02 -0.76973497168E+03  0.78146582637E+03  0.00000000000E+00 0.  1.
         21    1    1    2  502  501  0.11446634739E+02 -0.12952033427E+01 -0.54077145835E+01  0.12725815320E+02  0.00000000000E+00 0.  1.
<mgrwt>
<rscale>  1 0.30000000E+03</rscale>
<asrwt>0</asrwt>
<pdfrwt beam="1">  1        1 0.99881469E-01 0.30000000E+03</pdfrwt>
<pdfrwt beam="2">0</pdfrwt>
<totfact> 0.34286343E+01</totfact>
</mgrwt>
</event>
<event>
 6    1  0.1839160E-004  0.3000000E+03  0.7818608E-02  0.1093470E+00
          1   -1    0    0  502    0  0.00000000000E+00  0.00000000000E+00  0.28939757856E+02  0.28939757856E+02  0.00000000000E+00 0.  1.
         13   -1    0    0    0    0 -0.00000000000E+00 -0.00000000000E+00 -0.10000000000E+04  0.10000000000E+04  0.00000000000E+00 0.  1.
    9000005    2    1    2  501    0  0.12667257680E+02  0.21447206066E+01 -0.95917426523E+03  0.10114373097E+04  0.32066353264E+03 0.  0.
         13    1    3    3    0    0 -0.57276734232E+01 -0.15682911491E+03 -0.55413350814E+03  0.57592718495E+03  0.00000000000E+00 0.  1.
          1    1    3    3  501    0  0.18394931103E+02  0.15897383551E+03 -0.40504075710E+03  0.43551012477E+03  0.00000000000E+00 0.  1.
         21    1    1    2  502  501 -0.12667257680E+02 -0.21447206066E+01 -0.11885976910E+02  0.17502448136E+02  0.00000000000E+00 0.  1.
<mgrwt>
<rscale>  1 0.30000000E+03</rscale>
<asrwt>0</asrwt>
<pdfrwt beam="1">  1        1 0.10523571E+00 0.30000000E+03</pdfrwt>
<pdfrwt beam="2">0</pdfrwt>
<totfact> 0.31746785E+01</totfact>
</mgrwt>
</event>
<event>
 6    1  0.1839160E-004  0.3000000E+03  0.7818608E-02  0.1093470E+00
          1   -1    0    0  502    0  0.00000000000E+00  0.00000000000E+00  0.47176707820E+02  0.47176707820E+02  0.00000000000E+00 0.  1.
         13   -1    0    0    0    0 -0.00000000000E+00 -0.00000000000E+00 -0.10000000000E+04  0.10000000000E+04  0.00000000000E+00 0.  1.
    9000005    2    1    2  501    0  0.93214010600E+01 -0.60919020010E+01 -0.96603579509E+03  0.10298975290E+04  0.35684697426E+03 0.  0.
         13    1    3    3    0    0  0.17689673574E+03  0.54937878400E+01 -0.62747802624E+03  0.65195959249E+03  0.00000000000E+00 0.  1.
          3    1    3    3  501    0 -0.16757533468E+03 -0.11585689841E+02 -0.33855776885E+03  0.37793793650E+03  0.00000000000E+00 0.  1.
         21    1    1    2  502  501 -0.93214010600E+01  0.60919020010E+01  0.13212502913E+02  0.17279178827E+02  0.00000000000E+00 0.  1.
<mgrwt>
<rscale>  1 0.30000000E+03</rscale>
<asrwt>0</asrwt>
<pdfrwt beam="1">  1        1 0.17155203E+00 0.30000000E+03</pdfrwt>
<pdfrwt beam="2">0</pdfrwt>
<totfact> 0.14040079E+01</totfact>
</mgrwt>
</event>
<event>
 6    1  0.1839160E-004  0.3000000E+03  0.7818608E-02  0.1093470E+00
          1   -1    0    0  502    0  0.00000000000E+00  0.00000000000E+00  0.38248493889E+02  0.38248493889E+02  0.00000000000E+00 0.  1.
         13   -1    0    0    0    0 -0.00000000000E+00 -0.00000000000E+00 -0.10000000000E+04  0.10000000000E+04  0.00000000000E+00 0.  1.
    9000005    2    1    2  501    0  0.43876398636E+01  0.15580094324E+02 -0.97113660206E+03  0.10195383162E+04  0.30998401192E+03 0.  0.
         13    1    3    3    0    0  0.88235100752E+02  0.12579606164E+02 -0.91328948414E+03  0.91762811713E+03  0.00000000000E+00 0.  1.
          1    1    3    3  501    0 -0.83847460889E+02  0.30004881605E+01 -0.57847117914E+02  0.10191019909E+03  0.00000000000E+00 0.  1.
         21    1    1    2  502  501 -0.43876398636E+01 -0.15580094324E+02  0.93850959466E+01  0.18710177675E+02  0.00000000000E+00 0. -1.
<mgrwt>
<rscale>  1 0.30000000E+03</rscale>
<asrwt>0</asrwt>
<pdfrwt beam="1">  1        1 0.13908573E+00 0.30000000E+03</pdfrwt>
<pdfrwt beam="2">0</pdfrwt>
<totfact> 0.20457155E+01</totfact>
</mgrwt>
</event>
<event>
 6    1  0.1839160E-004  0.3000000E+03  0.7818608E-02  0.1093470E+00
          1   -1    0    0  502    0  0.00000000000E+00  0.00000000000E+00  0.31799695531E+02  0.31799695531E+02  0.00000000000E+00 0.  1.
         13   -1    0    0    0    0 -0.00000000000E+00 -0.00000000000E+00 -0.10000000000E+04  0.10000000000E+04  0.00000000000E+00 0.  1.
    9000005    2    1    2  501    0  0.17593144991E+01  0.18883036850E+02 -0.92692679563E+03  0.98637759959E+03  0.33673108000E+03 0.  0.
         13    1    3    3    0    0 -0.58162264195E+01 -0.12341493089E+03 -0.74555165997E+03  0.75571975715E+03  0.00000000000E+00 0.  1.
          3    1    3    3  501    0  0.75755409186E+01  0.14229796774E+03 -0.18137513566E+03  0.23065784244E+03  0.00000000000E+00 0.  1.
         21    1    1    2  502  501 -0.17593144991E+01 -0.18883036850E+02 -0.41273508839E+02  0.45422095945E+02  0.00000000000E+00 0.  1.
<mgrwt>
<rscale>  1 0.30000000E+03</rscale>
<asrwt>0</asrwt>
<pdfrwt beam="1">  1        1 0.11563550E+00 0.30000000E+03</pdfrwt>
<pdfrwt beam="2">0</pdfrwt>
<totfact> 0.27532098E+01</totfact>
</mgrwt>
</event>
<event>
 6    1  0.1839160E-004  0.3000000E+03  0.7818608E-02  0.1093470E+00
          1   -1    0    0  502    0  0.00000000000E+00  0.00000000000E+00  0.33125447514E+02  0.33125447514E+02  0.00000000000E+00 0.  1.
         13   -1    0    0    0    0 -0.00000000000E+00 -0.00000000000E+00 -0.10000000000E+04  0.10000000000E+04  0.00000000000E+00 0.  1.
    9000005    2    1    2  501    0  0.85345819653E+01 -0.19753083217E+02 -0.90551482225E+03  0.96810206803E+03  0.34176234054E+03 0.  0.
         13    1    3    3    0    0 -0.45200755906E+02 -0.84558222903E+02 -0.87237563029E+03  0.87762887470E+03  0.00000000000E+00 0.  1.
          3    1    3    3  501    0  0.53735337871E+02  0.64805139685E+02 -0.33139191968E+02  0.90473193323E+02  0.00000000000E+00 0.  1.
         21    1    1    2  502  501 -0.85345819653E+01  0.19753083217E+02 -0.61359730232E+02  0.65023379489E+02  0.00000000000E+00 0. -1.
<mgrwt>
<rscale>  1 0.30000000E+03</rscale>
<asrwt>0</asrwt>
<pdfrwt beam="1">  1        1 0.12045643E+00 0.30000000E+03</pdfrwt>
<pdfrwt beam="2">0</pdfrwt>
<totfact> 0.25842156E+01</totfact>
</mgrwt>
</event>
<event>
 6    1  0.1839160E-004  0.3000000E+03  0.7818608E-02  0.1093470E+00
          1   -1    0    0  502    0  0.00000000000E+00  0.00000000000E+00  0.25626854290E+02  0.25626854290E+02  0.00000000000E+00 0.  1.
         13   -1    0    0    0    0 -0.00000000000E+00 -0.00000000000E+00 -0.10000000000E+04  0.10000000000E+04  0.00000000000E+00 0.  1.
    9000005    2    1    2  501    0  0.17591736180E+02 -0.11510017004E+01 -0.93566255600E+03  0.98309094308E+03  0.30115210389E+03 0.  0.
         13    1    3    3    0    0 -0.15713362932E+02  0.11453592610E+03 -0.76818268577E+03  0.77683333274E+03  0.00000000000E+00 0.  1.
          1    1    3    3  501    0  0.33305099112E+02 -0.11568692780E+03 -0.16747987023E+03  0.20625761034E+03  0.00000000000E+00 0.  1.
         21    1    1    2  502  501 -0.17591736180E+02  0.11510017004E+01 -0.38710589709E+02  0.42535911209E+02  0.00000000000E+00 0.  1.
<mgrwt>
<rscale>  1 0.30000000E+03</rscale>
<asrwt>0</asrwt>
<pdfrwt beam="1">  1        1 0.93188758E-01 0.30000000E+03</pdfrwt>
<pdfrwt beam="2">0</pdfrwt>
<totfact> 0.37904285E+01</totfact>
</mgrwt>
</event>
<event>
 6    1  0.1839160E-004  0.3000000E+03  0.7818608E-02  0.1093470E+00
          1   -1    0    0  502    0  0.00000000000E+00  0.00000000000E+00  0.28394898950E+02  0.28394898950E+02  0.00000000000E+00 0.  1.
         13   -1    0    0    0    0 -0.00000000000E+00 -0.00000000000E+00 -0.10000000000E+04  0.10000000000E+04  0.00000000000E+00 0.  1.
    9000005    2    1    2  501    0  0.27282228589E+02 -0.11213516966E+02 -0.92470928208E+03  0.97299380874E+03  0.30126339393E+03 0.  0.
         13    1    3    3    0    0 -0.89984743673E+02  0.94383758263E+02 -0.27438238843E+03  0.30379473827E+03  0.00000000000E+00 0.  1.
          3    1    3    3  501    0  0.11726697226E+03 -0.10559727523E+03 -0.65032689365E+03  0.66919907047E+03  0.00000000000E+00 0.  1.
         21    1    1    2  502  501 -0.27282228589E+02  0.11213516966E+02 -0.46895818966E+02  0.55401090206E+02  0.00000000000E+00 0.  1.
<mgrwt>
<rscale>  1 0.30000000E+03</rscale>
<asrwt>0</asrwt>
<pdfrwt beam="1">  1        1 0.10325440E+00 0.30000000E+03</pdfrwt>
<pdfrwt beam="2">0</pdfrwt>
<totfact> 0.32653520E+01</totfact>
</mgrwt>
</event>
<event>
 6    1  0.1839160E-004  0.3000000E+03  0.7818608E-02  0.1093470E+00
          1   -1    0    0  502    0  0.00000000000E+00  0.00000000000E+00  0.42279443565E+02  0.42279443565E+02  0.00000000000E+00 0.  1.
         13   -1    0    0    0    0 -0.00000000000E+00 -0.00000000000E+00 -0.10000000000E+04  0.10000000000E+04  0.00000000000E+00 0.  1.
    9000005    2    1    2  501    0 -0.88344634431E+01 -0.22937394594E+02 -0.96052761174E+03  0.10175397715E+04  0.33491748509E+03 0.  0.
         13    1    3    3    0    0  0.89451690795E+02  0.61539940563E+01 -0.88669254338E+03  0.89121442039E+03  0.00000000000E+00 0.  1.
          3    1    3    3  501    0 -0.98286154238E+02 -0.29091388651E+02 -0.73835068363E+02  0.12632535109E+03  0.00000000000E+00 0.  1.
         21    1    1    2  502  501  0.88344634431E+01  0.22937394594E+02  0.28070553089E+01  0.24739672080E+02  0.00000000000E+00 0.  1.
<mgrwt>
<rscale>  1 0.30000000E+03</rscale>
<asrwt>0</asrwt>
<pdfrwt beam="1">  1        1 0.15374376E+00 0.30000000E+03</pdfrwt>
<pdfrwt beam="2">0</pdfrwt>
<totfact> 0.17198257E+01</totfact>
</mgrwt>
</event>
<event>
 6    1  0.1839160E-004  0.3000000E+03  0.7818608E-02  0.1093470E+00
          1   -1    0    0  502    0  0.00000000000E+00  0.00000000000E+00  0.27538335251E+02  0.27538335251E+02  0.00000000000E+00 0.  1.
         13   -1    0    0    0    0 -0.00000000000E+00 -0.00000000000E+00 -0.10000000000E+04  0.10000000000E+04  0.00000000000E+00 0.  1.
    9000005    2    1    2  501    0 -0.82476751196E+01 -0.73140174967E+01 -0.94169668507E+03  0.99485802051E+03  0.32066854431E+03 0.  0.
         13    1    3    3    0    0 -0.98251922334E+02  0.92823085256E+02 -0.74070678424E+03  0.75293831462E+03  0.00000000000E+00 0.  1.
          1    1    3    3  501    0  0.90004247214E+02 -0.10013710275E+03 -0.20098990082E+03  0.24191970589E+03  0.00000000000E+00 0.  1.
         21    1    1    2  502  501  0.82476751196E+01  0.73140174967E+01 -0.30764979683E+02  0.32680314743E+02  0.00000000000E+00 0. -1.
<mgrwt>
<rscale>  1 0.30000000E+03</rscale>
<asrwt>0</asrwt>
<pdfrwt beam="1">  1        1 0.10013961E+00 0.30000000E+03</pdfrwt>
<pdfrwt beam="2">0</pdfrwt>
<totfact> 0.34157187E+01</totfact>
</mgrwt>
</event>
<event>
 6    1  0.1839160E-004  0.3000000E+03  0.7818608E-02  0.1093470E+00
          1   -1    0    0  502    0  0.00000000000E+00  0.00000000000E+00  0.84512510119E+02  0.84512510119E+02  0.00000000000E+00 0.  1.
         13   -1    0    0    0    0 -0.00000000000E+00 -0.00000000000E+00 -0.10000000000E+04  0.10000000000E+04  0.00000000000E+00 0.  1.
    9000005    2    1    2  501    0  0.20788741396E+02  0.34020558511E+01 -0.95967806141E+03  0.10355579152E+04  0.38852859406E+03 0.  0.
         13    1    3    3    0    0 -0.12689821266E+03  0.11167260533E+03 -0.24406816248E+03  0.29688919666E+03  0.00000000000E+00 0.  1.
          3    1    3    3  501    0  0.14768695406E+03 -0.10827054948E+03 -0.71560989893E+03  0.73866871852E+03  0.00000000000E+00 0.  1.
         21    1    1    2  502  501 -0.20788741396E+02 -0.34020558511E+01  0.44190571529E+02  0.48954594932E+02  0.00000000000E+00 0. -1.
<mgrwt>
<rscale>  1 0.30000000E+03</rscale>
<asrwt>0</asrwt>
<pdfrwt beam="1">  1        1 0.30731887E+00 0.30000000E+03</pdfrwt>
<pdfrwt beam="2">0</pdfrwt>
<totfact> 0.32063836E+00</totfact>
</mgrwt>
</event>
<event>
 6    1  0.1839160E-004  0.3000000E+03  0.7818608E-02  0.1093470E+00
          3   -1    0    0  502    0  0.00000000000E+00  0.00000000000E+00  0.42689366540E+02  0.42689366540E+02  0.00000000000E+00 0.  1.
         13   -1    0    0    0    0 -0.00000000000E+00 -0.00000000000E+00 -0.10000000000E+04  0.10000000000E+04  0.00000000000E+00 0.  1.
    9000005    2    1    2  501    0  0.53467360211E+01  0.95757311429E+01 -0.93137696940E+03  0.10145320026E+04  0.40210924254E+03 0.  0.
         13    1    3    3    0    0 -0.11792252932E+03  0.22523187162E+02 -0.86622411878E+03  0.87450399704E+03  0.00000000000E+00 0.  1.
          1    1    3    3  501    0  0.12326926534E+03 -0.12947456019E+02 -0.65152850623E+02  0.14002800555E+03  0.00000000000E+00 0.  1.
         21    1    1    2  502  501 -0.53467360211E+01 -0.95757311429E+01 -0.25933664059E+02  0.28157363948E+02  0.00000000000E+00 0.  1.
<mgrwt>
<rscale>  1 0.30000000E+03</rscale>
<asrwt>0</asrwt>
<pdfrwt beam="1">  1        3 0.15523439E+00 0.30000000E+03</pdfrwt>
<pdfrwt beam="2">0</pdfrwt>
<totfact> 0.83418898E-01</totfact>
</mgrwt>
</event>
<event>
 6    1  0.1839160E-004  0.3000000E+03  0.7818608E-02  0.1093470E+00
          1   -1    0    0  502    0  0.00000000000E+00  0.00000000000E+00  0.39048293754E+02  0.39048293754E+02  0.00000000000E+00 0.  1.
         13   -1    0    0    0    0 -0.00000000000E+00 -0.00000000000E+00 -0.10000000000E+04  0.10000000000E+04  0.00000000000E+00 0.  1.
    9000005    2    1    2  501    0 -0.18890072354E+02  0.19212213740E+02 -0.91989758373E+03  0.98994243906E+03  0.36475817208E+03 0.  0.
         13    1    3    3    0    0  0.49404611185E+02  0.17190115318E+03 -0.63362404895E+03  0.65838458175E+03  0.00000000000E+00 0.  1.
          1    1    3    3  501    0 -0.68294683539E+02 -0.15268893944E+03 -0.28627353478E+03  0.33155785731E+03  0.00000000000E+00 0.  1.
         21    1    1    2  502  501  0.18890072354E+02 -0.19212213740E+02 -0.41054122514E+02  0.49105854699E+02  0.00000000000E+00 0.  1.
<mgrwt>
<rscale>  1 0.30000000E+03</rscale>
<asrwt>0</asrwt>
<pdfrwt beam="1">  1        1 0.14199409E+00 0.30000000E+03</pdfrwt>
<pdfrwt beam="2">0</pdfrwt>
<totfact> 0.19752475E+01</totfact>
</mgrwt>
</event>
<event>
 6    1  0.1839160E-004  0.3000000E+03  0.7818608E-02  0.1093470E+00
          1   -1    0    0  502    0  0.00000000000E+00  0.00000000000E+00  0.41440059888E+02  0.41440059888E+02  0.00000000000E+00 0.  1.
         13   -1    0    0    0    0 -0.00000000000E+00 -0.00000000000E+00 -0.10000000000E+04  0.10000000000E+04  0.00000000000E+00 0.  1.
    9000005    2    1    2  501    0 -0.10065648636E+02  0.87731531350E+01 -0.97247385936E+03  0.10221558008E+04  0.31451357448E+03 0.  0.
         13    1    3    3    0    0 -0.33346119912E+02 -0.13845294899E+03 -0.28369772286E+03  0.31743594748E+03  0.00000000000E+00 0.  1.
          1    1    3    3  501    0  0.23280471276E+02  0.14722610213E+03 -0.68877613651E+03  0.70471985335E+03  0.00000000000E+00 0.  1.
         21    1    1    2  502  501  0.10065648636E+02 -0.87731531350E+01  0.13913919250E+02  0.19284259055E+02  0.00000000000E+00 0. -1.
<mgrwt>
<rscale>  1 0.30000000E+03</rscale>
<asrwt>0</asrwt>
<pdfrwt beam="1">  1        1 0.15069144E+00 0.30000000E+03</pdfrwt>
<pdfrwt beam="2">0</pdfrwt>
<totfact> 0.17820242E+01</totfact>
</mgrwt>
</event>
<event>
 6    1  0.1839160E-004  0.3000000E+03  0.7818608E-02  0.1093470E+00
          1   -1    0    0  502    0  0.00000000000E+00  0.00000000000E+00  0.34535947252E+02  0.34535947252E+02  0.00000000000E+00 0.  1.
         13   -1    0    0    0    0 -0.00000000000E+00 -0.00000000000E+00 -0.10000000000E+04  0.10000000000E+04  0.00000000000E+00 0.  1.
    9000005    2    1    2  501    0  0.18507032319E+02 -0.21176134345E+02 -0.94788328766E+03  0.10013693645E+04  0.32166277093E+03 0.  0.
         13    1    3    3    0    0 -0.84054536407E+02 -0.92002252813E+02 -0.15564524152E+03  0.19938661144E+03  0.00000000000E+00 0.  1.
          1    1    3    3  501    0  0.10256156873E+03  0.70826118468E+02 -0.79223804614E+03  0.80198275305E+03  0.00000000000E+00 0.  1.
         21    1    1    2  502  501 -0.18507032319E+02  0.21176134345E+02 -0.17580765084E+02  0.33166582760E+02  0.00000000000E+00 0. -1.
<mgrwt>
<rscale>  1 0.30000000E+03</rscale>
<asrwt>0</asrwt>
<pdfrwt beam="1">  1        1 0.12558553E+00 0.30000000E+03</pdfrwt>
<pdfrwt beam="2">0</pdfrwt>
<totfact> 0.24192638E+01</totfact>
</mgrwt>
</event>
<event>
 6    1  0.1839160E-004  0.3000000E+03  0.7818608E-02  0.1093470E+00
          1   -1    0    0  502    0  0.00000000000E+00  0.00000000000E+00  0.29735180610E+02  0.29735180610E+02  0.00000000000E+00 0.  1.
         13   -1    0    0    0    0 -0.00000000000E+00 -0.00000000000E+00 -0.10000000000E+04  0.10000000000E+04  0.00000000000E+00 0.  1.
    9000005    2    1    2  501    0 -0.89602672324E+01  0.70010552503E+01 -0.96415286356E+03  0.10168256040E+04  0.32282234051E+03 0.  0.
         13    1    3    3    0    0  0.14265207872E+02  0.12311857992E+03 -0.15219407969E+03  0.19627714785E+03  0.00000000000E+00 0.  1.
          1    1    3    3  501    0 -0.23225475104E+02 -0.11611752467E+03 -0.81195878387E+03  0.82054845617E+03  0.00000000000E+00 0.  1.
         21    1    1    2  502  501  0.89602672324E+01 -0.70010552503E+01 -0.61119558350E+01  0.12909576586E+02  0.00000000000E+00 0.  1.
<mgrwt>
<rscale>  1 0.30000000E+03</rscale>
<asrwt>0</asrwt>
<pdfrwt beam="1">  1        1 0.10812816E+00 0.30000000E+03</pdfrwt>
<pdfrwt beam="2">0</pdfrwt>
<totfact> 0.30487048E+01</totfact>
</mgrwt>
</event>
<event>
 6    1  0.1839160E-004  0.3000000E+03  0.7818608E-02  0.1093470E+00
          1   -1    0    0  502    0  0.00000000000E+00  0.00000000000E+00  0.27551664100E+02  0.27551664100E+02  0.00000000000E+00 0.  1.
         13   -1    0    0    0    0 -0.00000000000E+00 -0.00000000000E+00 -0.10000000000E+04  0.10000000000E+04  0.00000000000E+00 0.  1.
    9000005    2    1    2  501    0  0.12665573173E+02 -0.79195935860E+00 -0.94628319599E+03  0.99847145623E+03  0.31832737542E+03 0.  0.
         13    1    3    3    0    0  0.54657785425E+02 -0.79806347639E+02 -0.74461301008E+02  0.12206970131E+03  0.00000000000E+00 0.  1.
          3    1    3    3  501    0 -0.41992212252E+02  0.79014388280E+02 -0.87182189498E+03  0.87640175492E+03  0.00000000000E+00 0.  1.
         21    1    1    2  502  501 -0.12665573173E+02  0.79195935860E+00 -0.26165139907E+02  0.29080207871E+02  0.00000000000E+00 0.  1.
<mgrwt>
<rscale>  1 0.30000000E+03</rscale>
<asrwt>0</asrwt>
<pdfrwt beam="1">  1        1 0.10018808E+00 0.30000000E+03</pdfrwt>
<pdfrwt beam="2">0</pdfrwt>
<totfact> 0.34133017E+01</totfact>
</mgrwt>
</event>
<event>
 6    1  0.1839160E-004  0.3000000E+03  0.7818608E-02  0.1093470E+00
          1   -1    0    0  502    0  0.00000000000E+00  0.00000000000E+00  0.27482466552E+02  0.27482466552E+02  0.00000000000E+00 0.  1.
         13   -1    0    0    0    0 -0.00000000000E+00 -0.00000000000E+00 -0.10000000000E+04  0.10000000000E+04  0.00000000000E+00 0.  1.
    9000005    2    1    2  501    0 -0.67976943142E+01  0.30755218880E+01 -0.94817717395E+03  0.10020242541E+04  0.32397065460E+03 0.  0.
         13    1    3    3    0    0 -0.11626289785E+03 -0.70207962127E+02 -0.19636270311E+03  0.23875621570E+03  0.00000000000E+00 0.  1.
          1    1    3    3  501    0  0.10946520354E+03  0.73283484015E+02 -0.75181447084E+03  0.76326803836E+03  0.00000000000E+00 0.  1.
         21    1    1    2  502  501  0.67976943142E+01 -0.30755218880E+01 -0.24340359496E+02  0.25458212491E+02  0.00000000000E+00 0. -1.
<mgrwt>
<rscale>  1 0.30000000E+03</rscale>
<asrwt>0</asrwt>
<pdfrwt beam="1">  1        1 0.99936453E-01 0.30000000E+03</pdfrwt>
<pdfrwt beam="2">0</pdfrwt>
<totfact> 0.34258773E+01</totfact>
</mgrwt>
</event>
<event>
 6    1  0.1839160E-004  0.3000000E+03  0.7818608E-02  0.1093470E+00
          1   -1    0    0  502    0  0.00000000000E+00  0.00000000000E+00  0.43703984985E+02  0.43703984985E+02  0.00000000000E+00 0.  1.
         13   -1    0    0    0    0 -0.00000000000E+00 -0.00000000000E+00 -0.10000000000E+04  0.10000000000E+04  0.00000000000E+00 0.  1.
    9000005    2    1    2  501    0  0.63395215597E+02 -0.33129396882E+02 -0.87518188334E+03  0.93555587980E+03  0.32280793826E+03 0.  0.
         13    1    3    3    0    0 -0.43376822680E+01 -0.16081057178E+03 -0.63657691154E+03  0.65658892756E+03  0.00000000000E+00 0.  1.
          1    1    3    3  501    0  0.67732897865E+02  0.12768117490E+03 -0.23860497180E+03  0.27896695224E+03  0.00000000000E+00 0.  1.
         21    1    1    2  502  501 -0.63395215597E+02  0.33129396882E+02 -0.81114131676E+02  0.10814810519E+03  0.00000000000E+00 0.  1.
<mgrwt>
<rscale>  1 0.30000000E+03</rscale>
<asrwt>0</asrwt>
<pdfrwt beam="1">  1        1 0.15892392E+00 0.30000000E+03</pdfrwt>
<pdfrwt beam="2">0</pdfrwt>
<totfact> 0.16201451E+01</totfact>
</mgrwt>
</event>
<event>
 6    1  0.1839160E-004  0.3000000E+03  0.7818608E-02  0.1093470E+00
          1   -1    0    0  502    0  0.00000000000E+00  0.00000000000E+00  0.31210987690E+02  0.31210987690E+02  0.00000000000E+00 0.  1.
         13   -1    0    0    0    0 -0.00000000000E+00 -0.00000000000E+00 -0.10000000000E+04  0.10000000000E+04  0.00000000000E+00 0.  1.
    9000005    2    1    2  501    0 -0.44196774235E+01  0.13606159523E+02 -0.96445967990E+03  0.10162642742E+04  0.32000928065E+03 0.  0.
         13    1    3    3    0    0 -0.98978663930E+02  0.66319699108E+02 -0.85153149932E+03  0.85982612937E+03  0.00000000000E+00 0.  1.
          3    1    3    3  501    0  0.94558986507E+02 -0.52713539585E+02 -0.11292818058E+03  0.15643814482E+03  0.00000000000E+00 0.  1.
         21    1    1    2  502  501  0.44196774235E+01 -0.13606159523E+02 -0.43293324079E+01  0.14946713505E+02  0.00000000000E+00 0. -1.
<mgrwt>
<rscale>  1 0.30000000E+03</rscale>
<asrwt>0</asrwt>
<pdfrwt beam="1">  1        1 0.11349474E+00 0.30000000E+03</pdfrwt>
<pdfrwt beam="2">0</pdfrwt>
<totfact> 0.28331741E+01</totfact>
</mgrwt>
</event>
<event>
 6    1  0.1839160E-004  0.3000000E+03  0.7818608E-02  0.1093470E+00
          1   -1    0    0  502    0  0.00000000000E+00  0.00000000000E+00  0.35900457443E+02  0.35900457443E+02  0.00000000000E+00 0.  1.
         13   -1    0    0    0    0 -0.00000000000E+00 -0.00000000000E+00 -0.10000000000E+04  0.10000000000E+04  0.00000000000E+00 0.  1.
    9000005    2    1    2  501    0  0.11214624779E+02  0.22811004231E+01 -0.96908607799E+03  0.10234169978E+04  0.32882146173E+03 0.  0.
         13    1    3    3    0    0  0.41584752747E+01 -0.13601124393E+03 -0.19960041715E+03  0.24157126882E+03  0.00000000000E+00 0.  1.
          3    1    3    3  501    0  0.70561495048E+01  0.13829234436E+03 -0.76948566083E+03  0.78184572902E+03  0.00000000000E+00 0.  1.
         21    1    1    2  502  501 -0.11214624779E+02 -0.22811004231E+01  0.49865354289E+01  0.12483459603E+02  0.00000000000E+00 0.  1.
<mgrwt>
<rscale>  1 0.30000000E+03</rscale>
<asrwt>0</asrwt>
<pdfrwt beam="1">  1        1 0.13054739E+00 0.30000000E+03</pdfrwt>
<pdfrwt beam="2">0</pdfrwt>
<totfact> 0.22723458E+01</totfact>
</mgrwt>
</event>
<event>
 6    1  0.1839160E-004  0.3000000E+03  0.7818608E-02  0.1093470E+00
          1   -1    0    0  502    0  0.00000000000E+00  0.00000000000E+00  0.25424089735E+02  0.25424089735E+02  0.00000000000E+00 0.  1.
         13   -1    0    0    0    0 -0.00000000000E+00 -0.00000000000E+00 -0.10000000000E+04  0.10000000000E+04  0.00000000000E+00 0.  1.
    9000005    2    1    2  501    0  0.13320459653E+02  0.21381916914E+02 -0.93161408806E+03  0.97562108598E+03  0.28861232356E+03 0.  0.
         13    1    3    3    0    0 -0.34394969263E+02  0.82697649525E+02 -0.78859752050E+02  0.11933472102E+03  0.00000000000E+00 0.  1.
          3    1    3    3  501    0  0.47715428916E+02 -0.61315732611E+02 -0.85275433602E+03  0.85628636496E+03  0.00000000000E+00 0.  1.
         21    1    1    2  502  501 -0.13320459653E+02 -0.21381916914E+02 -0.42961822200E+02  0.49803003755E+02  0.00000000000E+00 0. -1.
<mgrwt>
<rscale>  1 0.30000000E+03</rscale>
<asrwt>0</asrwt>
<pdfrwt beam="1">  1        1 0.92451430E-01 0.30000000E+03</pdfrwt>
<pdfrwt beam="2">0</pdfrwt>
<totfact> 0.38337330E+01</totfact>
</mgrwt>
</event>
<event>
 6    1  0.1839160E-004  0.3000000E+03  0.7818608E-02  0.1093470E+00
          1   -1    0    0  502    0  0.00000000000E+00  0.00000000000E+00  0.35347523597E+02  0.35347523597E+02  0.00000000000E+00 0.  1.
         13   -1    0    0    0    0 -0.00000000000E+00 -0.00000000000E+00 -0.10000000000E+04  0.10000000000E+04  0.00000000000E+00 0.  1.
    9000005    2    1    2  501    0  0.22146065423E+02 -0.22266195592E+02 -0.93499942928E+03  0.99215568544E+03  0.33039785065E+03 0.  0.
         13    1    3    3    0    0 -0.81699435160E+02 -0.58467084757E+02 -0.84245376314E+03  0.84842297278E+03  0.00000000000E+00 0.  1.
          1    1    3    3  501    0  0.10384550058E+03  0.36200889166E+02 -0.92545666137E+02  0.14373271266E+03  0.00000000000E+00 0.  1.
         21    1    1    2  502  501 -0.22146065423E+02  0.22266195592E+02 -0.29653047121E+02  0.43191838157E+02  0.00000000000E+00 0.  1.
<mgrwt>
<rscale>  1 0.30000000E+03</rscale>
<asrwt>0</asrwt>
<pdfrwt beam="1">  1        1 0.12853672E+00 0.30000000E+03</pdfrwt>
<pdfrwt beam="2">0</pdfrwt>
<totfact> 0.23304562E+01</totfact>
</mgrwt>
</event>
<event>
 6    1  0.1839160E-004  0.3000000E+03  0.7818608E-02  0.1093470E+00
          1   -1    0    0  502    0  0.00000000000E+00  0.00000000000E+00  0.42436332577E+02  0.42436332577E+02  0.00000000000E+00 0.  1.
         13   -1    0    0    0    0 -0.00000000000E+00 -0.00000000000E+00 -0.10000000000E+04  0.10000000000E+04  0.00000000000E+00 0.  1.
    9000005    2    1    2  501    0  0.14327507765E+02  0.18096401675E+02 -0.96280489151E+03  0.10187672037E+04  0.33220565765E+03 0.  0.
         13    1    3    3    0    0  0.39123288543E+02 -0.12266864903E+02  0.12352924620E+02  0.42821751805E+02  0.00000000000E+00 0.  1.
          3    1    3    3  501    0 -0.24795780778E+02  0.30363266578E+02 -0.97515781613E+03  0.97594545189E+03  0.00000000000E+00 0.  1.
         21    1    1    2  502  501 -0.14327507765E+02 -0.18096401675E+02  0.52412240839E+01  0.23669128887E+02  0.00000000000E+00 0.  1.
<mgrwt>
<rscale>  1 0.30000000E+03</rscale>
<asrwt>0</asrwt>
<pdfrwt beam="1">  1        1 0.15431426E+00 0.30000000E+03</pdfrwt>
<pdfrwt beam="2">0</pdfrwt>
<totfact> 0.17084949E+01</totfact>
</mgrwt>
</event>
<event>
 6    1  0.1839160E-004  0.3000000E+03  0.7818608E-02  0.1093470E+00
          1   -1    0    0  502    0  0.00000000000E+00  0.00000000000E+00  0.35879503301E+02  0.35879503301E+02  0.00000000000E+00 0.  1.
         13   -1    0    0    0    0 -0.00000000000E+00 -0.00000000000E+00 -0.10000000000E+04  0.10000000000E+04  0.00000000000E+00 0.  1.
    9000005    2    1    2  501    0 -0.11351958556E+02 -0.90515856690E+01 -0.95128055574E+03  0.10164974949E+04  0.35794086554E+03 0.  0.
         13    1    3    3    0    0  0.92176504423E+01  0.10999919758E+03 -0.78637624298E+02  0.13553104627E+03  0.00000000000E+00 0.  1.
          3    1    3    3  501    0 -0.20569608998E+02 -0.11905078325E+03 -0.87264293144E+03  0.88096644862E+03  0.00000000000E+00 0.  1.
         21    1    1    2  502  501  0.11351958556E+02  0.90515856690E+01 -0.12839940963E+02  0.19382008413E+02  0.00000000000E+00 0.  1.
<mgrwt>
<rscale>  1 0.30000000E+03</rscale>
<asrwt>0</asrwt>
<pdfrwt beam="1">  1        1 0.13047120E+00 0.30000000E+03</pdfrwt>
<pdfrwt beam="2">0</pdfrwt>
<totfact> 0.22745135E+01</totfact>
</mgrwt>
</event>
<event>
 6    1  0.1839160E-004  0.3000000E+03  0.7818608E-02  0.1093470E+00
          1   -1    0    0  502    0  0.00000000000E+00  0.00000000000E+00  0.42253046934E+02  0.42253046934E+02  0.00000000000E+00 0.  1.
         13   -1    0    0    0    0 -0.00000000000E+00 -0.00000000000E+00 -0.10000000000E+04  0.10000000000E+04  0.00000000000E+00 0.  1.
    9000005    2    1    2  501    0 -0.10428597044E+02  0.82431077041E+01 -0.96783926954E+03  0.10255629507E+04  0.33895399348E+03 0.  0.
         13    1    3    3    0    0  0.38257602982E+02 -0.55897217659E+02 -0.93682646034E+03  0.93927203723E+03  0.00000000000E+00 0.  1.
          1    1    3    3  501    0 -0.48686200026E+02  0.64140325363E+02 -0.31012809196E+02  0.86290913455E+02  0.00000000000E+00 0.  1.
         21    1    1    2  502  501  0.10428597044E+02 -0.82431077041E+01  0.10092316473E+02  0.16690096246E+02  0.00000000000E+00 0.  1.
<mgrwt>
<rscale>  1 0.30000000E+03</rscale>
<asrwt>0</asrwt>
<pdfrwt beam="1">  1        1 0.15364777E+00 0.30000000E+03</pdfrwt>
<pdfrwt beam="2">0</pdfrwt>
<totfact> 0.17217411E+01</totfact>
</mgrwt>
</event>
<event>
 6    1  0.1839160E-004  0.3000000E+03  0.7818608E-02  0.1093470E+00
          3   -1    0    0  502    0  0.00000000000E+00  0.00000000000E+00  0.27885948894E+02  0.27885948894E+02  0.00000000000E+00 0.  1.
         13   -1    0    0    0    0 -0.00000000000E+00 -0.00000000000E+00 -0.10000000000E+04  0.10000000000E+04  0.00000000000E+00 0.  1.
    9000005    2    1    2  501    0  0.10395263968E+02 -0.11432088697E+02 -0.93365834161E+03  0.98644206204E+03  0.31798001310E+03 0.  0.
         13    1    3    3    0    0  0.26106714818E+02  0.94455445271E+02 -0.81137697863E+02  0.12722703217E+03  0.00000000000E+00 0.  1.
          3    1    3    3  501    0 -0.15711450850E+02 -0.10588753397E+03 -0.85252064374E+03  0.85921502987E+03  0.00000000000E+00 0.  1.
         21    1    1    2  502  501 -0.10395263968E+02  0.11432088697E+02 -0.38455709499E+02  0.41443886859E+02  0.00000000000E+00 0.  1.
<mgrwt>
<rscale>  1 0.30000000E+03</rscale>
<asrwt>0</asrwt>
<pdfrwt beam="1">  1        3 0.10140366E+00 0.30000000E+03</pdfrwt>
<pdfrwt beam="2">0</pdfrwt>
<totfact> 0.37754522E+00</totfact>
</mgrwt>
</event>
<event>
 6    1  0.1839160E-004  0.3000000E+03  0.7818608E-02  0.1093470E+00
          3   -1    0    0  502    0  0.00000000000E+00  0.00000000000E+00  0.35053463168E+02  0.35053463168E+02  0.00000000000E+00 0.  1.
         13   -1    0    0    0    0 -0.00000000000E+00 -0.00000000000E+00 -0.10000000000E+04  0.10000000000E+04  0.00000000000E+00 0.  1.
    9000005    2    1    2  501    0  0.25910740400E+02  0.12253720526E+02 -0.94945831048E+03  0.10024742475E+04  0.32040913458E+03 0.  0.
         13    1    3    3    0    0  0.15484334025E+03 -0.68302829076E+02 -0.47451320410E+03  0.50379015209E+03  0.00000000000E+00 0.  1.
          3    1    3    3  501    0 -0.12893259985E+03  0.80556549602E+02 -0.47494510638E+03  0.49868409545E+03  0.00000000000E+00 0.  1.
         21    1    1    2  502  501 -0.25910740400E+02 -0.12253720526E+02 -0.15488226353E+02  0.32579215620E+02  0.00000000000E+00 0.  1.
<mgrwt>
<rscale>  1 0.30000000E+03</rscale>
<asrwt>0</asrwt>
<pdfrwt beam="1">  1        3 0.12746741E+00 0.30000000E+03</pdfrwt>
<pdfrwt beam="2">0</pdfrwt>
<totfact> 0.18940694E+00</totfact>
</mgrwt>
</event>
<event>
 6    1  0.1839160E-004  0.3000000E+03  0.7818608E-02  0.1093470E+00
          1   -1    0    0  502    0  0.00000000000E+00  0.00000000000E+00  0.39118810911E+02  0.39118810911E+02  0.00000000000E+00 0.  1.
         13   -1    0    0    0    0 -0.00000000000E+00 -0.00000000000E+00 -0.10000000000E+04  0.10000000000E+04  0.00000000000E+00 0.  1.
    9000005    2    1    2  501    0  0.30065995749E+02  0.24317063019E+01 -0.95603344147E+03  0.10085675760E+04  0.31984173729E+03 0.  0.
         13    1    3    3    0    0  0.24141709062E+02 -0.15815915329E+03 -0.50698523854E+03  0.53163067253E+03  0.00000000000E+00 0.  1.
          3    1    3    3  501    0  0.59242866869E+01  0.16059085959E+03 -0.44904820293E+03  0.47693690349E+03  0.00000000000E+00 0.  1.
         21    1    1    2  502  501 -0.30065995749E+02 -0.24317063019E+01 -0.48477476196E+01  0.30551234883E+02  0.00000000000E+00 0.  1.
<mgrwt>
<rscale>  1 0.30000000E+03</rscale>
<asrwt>0</asrwt>
<pdfrwt beam="1">  1        1 0.14225052E+00 0.30000000E+03</pdfrwt>
<pdfrwt beam="2">0</pdfrwt>
<totfact> 0.19691835E+01</totfact>
</mgrwt>
</event>
<event>
 6    1  0.1839160E-004  0.3000000E+03  0.7818608E-02  0.1093470E+00
          1   -1    0    0  502    0  0.00000000000E+00  0.00000000000E+00  0.47480295718E+02  0.47480295718E+02  0.00000000000E+00 0.  1.
         13   -1    0    0    0    0 -0.00000000000E+00 -0.00000000000E+00 -0.10000000000E+04  0.10000000000E+04  0.00000000000E+00 0.  1.
    9000005    2    1    2  501    0 -0.35084875449E+02 -0.22984091124E+01 -0.95934330152E+03  0.10116642009E+04  0.31920002194E+03 0.  0.
         13    1    3    3    0    0 -0.62529455991E+02 -0.14594290201E+03 -0.65554948927E+03  0.67450307367E+03  0.00000000000E+00 0.  1.
          1    1    3    3  501    0  0.27444580542E+02  0.14364449289E+03 -0.30379381226E+03  0.33716112721E+03  0.00000000000E+00 0.  1.
         21    1    1    2  502  501  0.35084875449E+02  0.22984091124E+01  0.68235972421E+01  0.35816094832E+02  0.00000000000E+00 0.  1.
<mgrwt>
<rscale>  1 0.30000000E+03</rscale>
<asrwt>0</asrwt>
<pdfrwt beam="1">  1        1 0.17265598E+00 0.30000000E+03</pdfrwt>
<pdfrwt beam="2">0</pdfrwt>
<totfact> 0.13867218E+01</totfact>
</mgrwt>
</event>
<event>
 6    1  0.1839160E-004  0.3000000E+03  0.7818608E-02  0.1093470E+00
          1   -1    0    0  502    0  0.00000000000E+00  0.00000000000E+00  0.35960534685E+02  0.35960534685E+02  0.00000000000E+00 0.  1.
         13   -1    0    0    0    0 -0.00000000000E+00 -0.00000000000E+00 -0.10000000000E+04  0.10000000000E+04  0.00000000000E+00 0.  1.
    9000005    2    1    2  501    0  0.19733673121E+02  0.18120413591E+01 -0.95953952789E+03  0.10156393441E+04  0.33228672921E+03 0.  0.
         13    1    3    3    0    0  0.10064935908E+03  0.13717012146E+03 -0.40942782200E+03  0.44337013559E+03  0.00000000000E+00 0.  1.
          3    1    3    3  501    0 -0.80915685961E+02 -0.13535808011E+03 -0.55011170589E+03  0.57226920854E+03  0.00000000000E+00 0.  1.
         21    1    1    2  502  501 -0.19733673121E+02 -0.18120413591E+01 -0.44999374251E+01  0.20321190554E+02  0.00000000000E+00 0. -1.
<mgrwt>
<rscale>  1 0.30000000E+03</rscale>
<asrwt>0</asrwt>
<pdfrwt beam="1">  1        1 0.13076586E+00 0.30000000E+03</pdfrwt>
<pdfrwt beam="2">0</pdfrwt>
<totfact> 0.22661460E+01</totfact>
</mgrwt>
</event>
<event>
 6    1  0.1839160E-004  0.3000000E+03  0.7818608E-02  0.1093470E+00
          1   -1    0    0  502    0  0.00000000000E+00  0.00000000000E+00  0.36681281454E+02  0.36681281454E+02  0.00000000000E+00 0.  1.
         13   -1    0    0    0    0 -0.00000000000E+00 -0.00000000000E+00 -0.10000000000E+04  0.10000000000E+04  0.00000000000E+00 0.  1.
    9000005    2    1    2  501    0 -0.49188065261E+01 -0.34930344325E+02 -0.91458533048E+03  0.97652093967E+03  0.34041518071E+03 0.  0.
         13    1    3    3    0    0 -0.14743926692E+03 -0.84979792936E+02 -0.64944836713E+03  0.67137402706E+03  0.00000000000E+00 0.  1.
          3    1    3    3  501    0  0.14252046040E+03  0.50049448611E+02 -0.26513696335E+03  0.30514691260E+03  0.00000000000E+00 0.  1.
         21    1    1    2  502  501  0.49188065261E+01  0.34930344325E+02 -0.48733388061E+02  0.60160341789E+02  0.00000000000E+00 0.  1.
<mgrwt>
<rscale>  1 0.30000000E+03</rscale>
<asrwt>0</asrwt>
<pdfrwt beam="1">  1        1 0.13338676E+00 0.30000000E+03</pdfrwt>
<pdfrwt beam="2">0</pdfrwt>
<totfact> 0.21934646E+01</totfact>
</mgrwt>
</event>
<event>
 6    1  0.1839160E-004  0.3000000E+03  0.7818608E-02  0.1093470E+00
          1   -1    0    0  502    0  0.00000000000E+00  0.00000000000E+00  0.32622585680E+02  0.32622585680E+02  0.00000000000E+00 0.  1.
         13   -1    0    0    0    0 -0.00000000000E+00 -0.00000000000E+00 -0.10000000000E+04  0.10000000000E+04  0.00000000000E+00 0.  1.
    9000005    2    1    2  501    0  0.26019955939E+01 -0.11798090633E+02 -0.95112669297E+03  0.10123728630E+04  0.34657014061E+03 0.  0.
         13    1    3    3    0    0  0.82006557141E+02 -0.15342263537E+03 -0.36772742158E+03  0.40680097965E+03  0.00000000000E+00 0.  1.
          1    1    3    3  501    0 -0.79404561548E+02  0.14162454474E+03 -0.58339927139E+03  0.60557188337E+03  0.00000000000E+00 0.  1.
         21    1    1    2  502  501 -0.26019955939E+01  0.11798090633E+02 -0.16250721352E+02  0.20249722668E+02  0.00000000000E+00 0.  1.
<mgrwt>
<rscale>  1 0.30000000E+03</rscale>
<asrwt>0</asrwt>
<pdfrwt beam="1">  1        1 0.11862783E+00 0.30000000E+03</pdfrwt>
<pdfrwt beam="2">0</pdfrwt>
<totfact> 0.26466068E+01</totfact>
</mgrwt>
</event>
<event>
 6    1  0.1839160E-004  0.3000000E+03  0.7818608E-02  0.1093470E+00
          1   -1    0    0  502    0  0.00000000000E+00  0.00000000000E+00  0.29316322952E+02  0.29316322952E+02  0.00000000000E+00 0.  1.
         13   -1    0    0    0    0 -0.00000000000E+00 -0.00000000000E+00 -0.10000000000E+04  0.10000000000E+04  0.00000000000E+00 0.  1.
    9000005    2    1    2  501    0 -0.54443551145E+01 -0.10898661659E+02 -0.95160194882E+03  0.10066771052E+04  0.32818303322E+03 0.  0.
         13    1    3    3    0    0 -0.10759614939E+03  0.12010805803E+03 -0.50858040908E+03  0.53353248211E+03  0.00000000000E+00 0.  1.
          1    1    3    3  501    0  0.10215179428E+03 -0.13100671969E+03 -0.44302153974E+03  0.47314462308E+03  0.00000000000E+00 0.  1.
         21    1    1    2  502  501  0.54443551145E+01  0.10898661659E+02 -0.19081728233E+02  0.22639217763E+02  0.00000000000E+00 0. -1.
<mgrwt>
<rscale>  1 0.30000000E+03</rscale>
<asrwt>0</asrwt>
<pdfrwt beam="1">  1        1 0.10660504E+00 0.30000000E+03</pdfrwt>
<pdfrwt beam="2">0</pdfrwt>
<totfact> 0.31141259E+01</totfact>
</mgrwt>
</event>
<event>
 6    1  0.1839160E-004  0.3000000E+03  0.7818608E-02  0.1093470E+00
          1   -1    0    0  502    0  0.00000000000E+00  0.00000000000E+00  0.94086838558E+02  0.94086838558E+02  0.00000000000E+00 0.  1.
         13   -1    0    0    0    0 -0.00000000000E+00 -0.00000000000E+00 -0.10000000000E+04  0.10000000000E+04  0.00000000000E+00 0.  1.
    9000005    2    1    2  501    0  0.85182148448E+02 -0.51371293052E+02 -0.93257912476E+03  0.99110100573E+03  0.32044090167E+03 0.  0.
         13    1    3    3    0    0 -0.94180596942E+02 -0.70895884252E+01 -0.62655908152E+03  0.63363753814E+03  0.00000000000E+00 0.  1.
          1    1    3    3  501    0  0.17936274539E+03 -0.44281704627E+02 -0.30602004323E+03  0.35746346758E+03  0.00000000000E+00 0.  1.
         21    1    1    2  502  501 -0.85182148448E+02  0.51371293052E+02  0.26665963313E+02  0.10298583283E+03  0.00000000000E+00 0.  1.
<mgrwt>
<rscale>  1 0.30000000E+03</rscale>
<asrwt>0</asrwt>
<pdfrwt beam="1">  1        1 0.34213468E+00 0.30000000E+03</pdfrwt>
<pdfrwt beam="2">0</pdfrwt>
<totfact> 0.21595379E+00</totfact>
</mgrwt>
</event>
<event>
 6    1  0.1839160E-004  0.3000000E+03  0.7818608E-02  0.1093470E+00
          3   -1    0    0  502    0  0.00000000000E+00  0.00000000000E+00  0.28927387764E+02  0.28927387764E+02  0.00000000000E+00 0.  1.
         13   -1    0    0    0    0 -0.00000000000E+00 -0.00000000000E+00 -0.10000000000E+04  0.10000000000E+04  0.00000000000E+00 0.  1.
    9000005    2    1    2  501    0  0.89792992569E+01  0.44962218985E+01 -0.96851294172E+03  0.10185641962E+04  0.31520605903E+03 0.  0.
         13    1    3    3    0    0  0.10833176394E+03  0.49754408479E+02 -0.14439555631E+03  0.18724675945E+03  0.00000000000E+00 0.  1.
          1    1    3    3  501    0 -0.99352464683E+02 -0.45258186581E+02 -0.82411738541E+03  0.83131743674E+03  0.00000000000E+00 0.  1.
         21    1    1    2  502  501 -0.89792992569E+01 -0.44962218985E+01 -0.25596705153E+01  0.10363191577E+02  0.00000000000E+00 0.  1.
<mgrwt>
<rscale>  1 0.30000000E+03</rscale>
<asrwt>0</asrwt>
<pdfrwt beam="1">  1        3 0.10519072E+00 0.30000000E+03</pdfrwt>
<pdfrwt beam="2">0</pdfrwt>
<totfact> 0.34186646E+00</totfact>
</mgrwt>
</event>
<event>
 6    1  0.1839160E-004  0.3000000E+03  0.7818608E-02  0.1093470E+00
          1   -1    0    0  502    0  0.00000000000E+00  0.00000000000E+00  0.29406514652E+02  0.29406514652E+02  0.00000000000E+00 0.  1.
         13   -1    0    0    0    0 -0.00000000000E+00 -0.00000000000E+00 -0.10000000000E+04  0.10000000000E+04  0.00000000000E+00 0.  1.
    9000005    2    1    2  501    0 -0.27994099157E+01  0.18640085842E+02 -0.93355569175E+03  0.98784827058E+03  0.32243245275E+03 0.  0.
         13    1    3    3    0    0  0.90477267143E+02  0.14196712248E+03 -0.48340676904E+03  0.51188172861E+03  0.00000000000E+00 0.  1.
          1    1    3    3  501    0 -0.93276677058E+02 -0.12332703664E+03 -0.45014892272E+03  0.47596654197E+03  0.00000000000E+00 0.  1.
         21    1    1    2  502  501  0.27994099157E+01 -0.18640085842E+02 -0.37037793594E+02  0.41558244072E+02  0.00000000000E+00 0.  1.
<mgrwt>
<rscale>  1 0.30000000E+03</rscale>
<asrwt>0</asrwt>
<pdfrwt beam="1">  1        1 0.10693301E+00 0.30000000E+03</pdfrwt>
<pdfrwt beam="2">0</pdfrwt>
<totfact> 0.30998699E+01</totfact>
</mgrwt>
</event>
<event>
 6    1  0.1839160E-004  0.3000000E+03  0.7818608E-02  0.1093470E+00
          1   -1    0    0  502    0  0.00000000000E+00  0.00000000000E+00  0.30538718476E+02  0.30538718476E+02  0.00000000000E+00 0.  1.
         13   -1    0    0    0    0 -0.00000000000E+00 -0.00000000000E+00 -0.10000000000E+04  0.10000000000E+04  0.00000000000E+00 0.  1.
    9000005    2    1    2  501    0 -0.16659436811E+02 -0.86472945471E+01 -0.93887216390E+03  0.99464990887E+03  0.32786458872E+03 0.  0.
         13    1    3    3    0    0  0.46014345129E+01 -0.79773709011E+01  0.27008302566E+02  0.28535242308E+02  0.00000000000E+00 0.  1.
          3    1    3    3  501    0 -0.21260871324E+02 -0.66992364605E+00 -0.96588046647E+03  0.96611466657E+03  0.00000000000E+00 0.  1.
         21    1    1    2  502  501  0.16659436811E+02  0.86472945471E+01 -0.30589117622E+02  0.35888809603E+02  0.00000000000E+00 0. -1.
<mgrwt>
<rscale>  1 0.30000000E+03</rscale>
<asrwt>0</asrwt>
<pdfrwt beam="1">  1        1 0.11105012E+00 0.30000000E+03</pdfrwt>
<pdfrwt beam="2">0</pdfrwt>
<totfact> 0.29285800E+01</totfact>
</mgrwt>
</event>
<event>
 6    1  0.1839160E-004  0.3000000E+03  0.7818608E-02  0.1093470E+00
          1   -1    0    0  502    0  0.00000000000E+00  0.00000000000E+00  0.34170796733E+02  0.34170796733E+02  0.00000000000E+00 0.  1.
         13   -1    0    0    0    0 -0.00000000000E+00 -0.00000000000E+00 -0.10000000000E+04  0.10000000000E+04  0.00000000000E+00 0.  1.
    9000005    2    1    2  501    0 -0.18443322518E+02 -0.31431931720E+02 -0.88744665422E+03  0.94773037521E+03  0.33061031070E+03 0.  0.
         13    1    3    3    0    0 -0.89926282822E+02  0.12815161976E+03 -0.45946861525E+03  0.48540805761E+03  0.00000000000E+00 0.  1.
          1    1    3    3  501    0  0.71482960304E+02 -0.15958355148E+03 -0.42797803897E+03  0.46232231760E+03  0.00000000000E+00 0.  1.
         21    1    1    2  502  501  0.18443322518E+02  0.31431931720E+02 -0.78382549051E+02  0.86440421521E+02  0.00000000000E+00 0. -1.
<mgrwt>
<rscale>  1 0.30000000E+03</rscale>
<asrwt>0</asrwt>
<pdfrwt beam="1">  1        1 0.12425770E+00 0.30000000E+03</pdfrwt>
<pdfrwt beam="2">0</pdfrwt>
<totfact> 0.24606273E+01</totfact>
</mgrwt>
</event>
<event>
 6    1  0.1839160E-004  0.3000000E+03  0.7818608E-02  0.1093470E+00
          1   -1    0    0  502    0  0.00000000000E+00  0.00000000000E+00  0.54237336052E+02  0.54237336052E+02  0.00000000000E+00 0.  1.
         13   -1    0    0    0    0 -0.00000000000E+00 -0.00000000000E+00 -0.10000000000E+04  0.10000000000E+04  0.00000000000E+00 0.  1.
    9000005    2    1    2  501    0 -0.30806324876E+01  0.62411694144E+02 -0.93103783081E+03  0.99003818829E+03  0.33081635693E+03 0.  0.
         13    1    3    3    0    0 -0.15352625255E+03  0.94913105142E+02 -0.44501893665E+03  0.48022980096E+03  0.00000000000E+00 0.  1.
          1    1    3    3  501    0  0.15044562007E+03 -0.32501410998E+02 -0.48601889416E+03  0.50980838733E+03  0.00000000000E+00 0.  1.
         21    1    1    2  502  501  0.30806324876E+01 -0.62411694144E+02 -0.14724833138E+02  0.64199147763E+02  0.00000000000E+00 0. -1.
<mgrwt>
<rscale>  1 0.30000000E+03</rscale>
<asrwt>0</asrwt>
<pdfrwt beam="1">  1        1 0.19722709E+00 0.30000000E+03</pdfrwt>
<pdfrwt beam="2">0</pdfrwt>
<totfact> 0.10559326E+01</totfact>
</mgrwt>
</event>
<event>
 6    1  0.1839160E-004  0.3000000E+03  0.7818608E-02  0.1093470E+00
          1   -1    0    0  502    0  0.00000000000E+00  0.00000000000E+00  0.35167267730E+02  0.35167267730E+02  0.00000000000E+00 0.  1.
         13   -1    0    0    0    0 -0.00000000000E+00 -0.00000000000E+00 -0.10000000000E+04  0.10000000000E+04  0.00000000000E+00 0.  1.
    9000005    2    1    2  501    0 -0.37760828873E+02  0.19284610930E+02 -0.90818663221E+03  0.96441023933E+03  0.32169298156E+03 0.  0.
         13    1    3    3    0    0 -0.40696848693E+02  0.91681098785E+02 -0.68182279364E+02  0.12128677004E+03  0.00000000000E+00 0.  1.
          3    1    3    3  501    0  0.29360198198E+01 -0.72396487854E+02 -0.84000435284E+03  0.84312346929E+03  0.00000000000E+00 0.  1.
         21    1    1    2  502  501  0.37760828873E+02 -0.19284610930E+02 -0.56646100062E+02  0.70757028401E+02  0.00000000000E+00 0.  1.
<mgrwt>
<rscale>  1 0.30000000E+03</rscale>
<asrwt>0</asrwt>
<pdfrwt beam="1">  1        1 0.12788124E+00 0.30000000E+03</pdfrwt>
<pdfrwt beam="2">0</pdfrwt>
<totfact> 0.23498149E+01</totfact>
</mgrwt>
</event>
<event>
 6    1  0.1839160E-004  0.3000000E+03  0.7818608E-02  0.1093470E+00
          1   -1    0    0  502    0  0.00000000000E+00  0.00000000000E+00  0.87177247631E+02  0.87177247631E+02  0.00000000000E+00 0.  1.
         13   -1    0    0    0    0 -0.00000000000E+00 -0.00000000000E+00 -0.10000000000E+04  0.10000000000E+04  0.00000000000E+00 0.  1.
    9000005    2    1    2  501    0 -0.97259385596E+01  0.44037211823E+01 -0.97183179105E+03  0.10272101459E+04  0.33255024755E+03 0.  0.
         13    1    3    3    0    0 -0.95782728377E+02 -0.98814654285E+02 -0.78554911904E+03  0.79751243588E+03  0.00000000000E+00 0.  1.
          3    1    3    3  501    0  0.86056789817E+02  0.10321837547E+03 -0.18628267201E+03  0.22969771004E+03  0.00000000000E+00 0.  1.
         21    1    1    2  502  501  0.97259385596E+01 -0.44037211823E+01  0.59009038682E+02  0.59967101708E+02  0.00000000000E+00 0.  1.
<mgrwt>
<rscale>  1 0.30000000E+03</rscale>
<asrwt>0</asrwt>
<pdfrwt beam="1">  1        1 0.31700884E+00 0.30000000E+03</pdfrwt>
<pdfrwt beam="2">0</pdfrwt>
<totfact> 0.28794536E+00</totfact>
</mgrwt>
</event>
<event>
 6    1  0.1839160E-004  0.3000000E+03  0.7818608E-02  0.1093470E+00
          1   -1    0    0  502    0  0.00000000000E+00  0.00000000000E+00  0.30303975231E+02  0.30303975231E+02  0.00000000000E+00 0.  1.
         13   -1    0    0    0    0 -0.00000000000E+00 -0.00000000000E+00 -0.10000000000E+04  0.10000000000E+04  0.00000000000E+00 0.  1.
    9000005    2    1    2  501    0  0.69760202498E+00  0.30973723508E+02 -0.86559369653E+03  0.92168927576E+03  0.31511714549E+03 0.  0.
         13    1    3    3    0    0 -0.15107308717E+03  0.36211421088E+02 -0.54901168927E+03  0.57056829533E+03  0.00000000000E+00 0.  1.
          3    1    3    3  501    0  0.15177068920E+03 -0.52376975795E+01 -0.31658200727E+03  0.35112098043E+03  0.00000000000E+00 0.  1.
         21    1    1    2  502  501 -0.69760202498E+00 -0.30973723508E+02 -0.10410232824E+03  0.10861469947E+03  0.00000000000E+00 0.  1.
<mgrwt>
<rscale>  1 0.30000000E+03</rscale>
<asrwt>0</asrwt>
<pdfrwt beam="1">  1        1 0.11019651E+00 0.30000000E+03</pdfrwt>
<pdfrwt beam="2">0</pdfrwt>
<totfact> 0.29629671E+01</totfact>
</mgrwt>
</event>
<event>
 6    1  0.1839160E-004  0.3000000E+03  0.7818608E-02  0.1093470E+00
          1   -1    0    0  502    0  0.00000000000E+00  0.00000000000E+00  0.44935630119E+02  0.44935630119E+02  0.00000000000E+00 0.  1.
         13   -1    0    0    0    0 -0.00000000000E+00 -0.00000000000E+00 -0.10000000000E+04  0.10000000000E+04  0.00000000000E+00 0.  1.
    9000005    2    1    2  501    0 -0.56908018878E+02  0.32171629121E+01 -0.91477849614E+03  0.97513717474E+03  0.33290229770E+03 0.  0.
         13    1    3    3    0    0  0.85796758020E+02  0.54521109615E+02 -0.72557297596E+03  0.73265938779E+03  0.00000000000E+00 0.  1.
          1    1    3    3  501    0 -0.14270477690E+03 -0.51303946703E+02 -0.18920552018E+03  0.24247778695E+03  0.00000000000E+00 0.  1.
         21    1    1    2  502  501  0.56908018878E+02 -0.32171629121E+01 -0.40285873743E+02  0.69798455377E+02  0.00000000000E+00 0. -1.
<mgrwt>
<rscale>  1 0.30000000E+03</rscale>
<asrwt>0</asrwt>
<pdfrwt beam="1">  1        1 0.16340264E+00 0.30000000E+03</pdfrwt>
<pdfrwt beam="2">0</pdfrwt>
<totfact> 0.15393991E+01</totfact>
</mgrwt>
</event>
<event>
 6    1  0.1839160E-004  0.3000000E+03  0.7818608E-02  0.1093470E+00
          1   -1    0    0  502    0  0.00000000000E+00  0.00000000000E+00  0.92973492555E+02  0.92973492555E+02  0.00000000000E+00 0.  1.
         13   -1    0    0    0    0 -0.00000000000E+00 -0.00000000000E+00 -0.10000000000E+04  0.10000000000E+04  0.00000000000E+00 0.  1.
    9000005    2    1    2  501    0 -0.18930650467E+02  0.38829480373E+02 -0.95970820325E+03  0.10248452374E+04  0.35693392556E+03 0.  0.
         13    1    3    3    0    0  0.47317307022E+02  0.18929163160E+03 -0.52644349620E+03  0.56143833502E+03  0.00000000000E+00 0.  1.
          1    1    3    3  501    0 -0.66247957489E+02 -0.15046215123E+03 -0.43326470705E+03  0.46340690241E+03  0.00000000000E+00 0.  1.
         21    1    1    2  502  501  0.18930650467E+02 -0.38829480373E+02  0.52681695809E+02  0.68128255125E+02  0.00000000000E+00 0.  1.
<mgrwt>
<rscale>  1 0.30000000E+03</rscale>
<asrwt>0</asrwt>
<pdfrwt beam="1">  1        1 0.33808614E+00 0.30000000E+03</pdfrwt>
<pdfrwt beam="2">0</pdfrwt>
<totfact> 0.22642843E+00</totfact>
</mgrwt>
</event>
<event>
 6    1  0.1839160E-004  0.3000000E+03  0.7818608E-02  0.1093470E+00
          1   -1    0    0  502    0  0.00000000000E+00  0.00000000000E+00  0.49085138088E+02  0.49085138088E+02  0.00000000000E+00 0.  1.
         13   -1    0    0    0    0 -0.00000000000E+00 -0.00000000000E+00 -0.10000000000E+04  0.10000000000E+04  0.00000000000E+00 0.  1.
    9000005    2    1    2  501    0 -0.61930265851E+02  0.12402615738E+02 -0.91958075502E+03  0.97857975560E+03  0.32863412841E+03 0.  0.
         13    1    3    3    0    0  0.38947886908E+01  0.16640482195E+03 -0.42634794665E+03  0.45768800046E+03  0.00000000000E+00 0.  1.
          1    1    3    3  501    0 -0.65825054541E+02 -0.15400220621E+03 -0.49323280837E+03  0.52089175514E+03  0.00000000000E+00 0.  1.
         21    1    1    2  502  501  0.61930265851E+02 -0.12402615738E+02 -0.31334106892E+02  0.70505382491E+02  0.00000000000E+00 0.  1.
<mgrwt>
<rscale>  1 0.30000000E+03</rscale>
<asrwt>0</asrwt>
<pdfrwt beam="1">  1        1 0.17849179E+00 0.30000000E+03</pdfrwt>
<pdfrwt beam="2">0</pdfrwt>
<totfact> 0.12991009E+01</totfact>
</mgrwt>
</event>
<event>
 6    1  0.1839160E-004  0.3000000E+03  0.7818608E-02  0.1093470E+00
          1   -1    0    0  502    0  0.00000000000E+00  0.00000000000E+00  0.39579079709E+02  0.39579079709E+02  0.00000000000E+00 0.  1.
         13   -1    0    0    0    0 -0.00000000000E+00 -0.00000000000E+00 -0.10000000000E+04  0.10000000000E+04  0.00000000000E+00 0.  1.
    9000005    2    1    2  501    0 -0.15552131187E+02  0.19552612659E+01 -0.96818353459E+03  0.10220876529E+04  0.32716681025E+03 0.  0.
         13    1    3    3    0    0  0.10269141022E+03 -0.92925170110E+02 -0.22984755110E+03  0.26834774029E+03  0.00000000000E+00 0.  1.
          3    1    3    3  501    0 -0.11824354141E+03  0.94880431376E+02 -0.73833598349E+03  0.75373991261E+03  0.00000000000E+00 0.  1.
         21    1    1    2  502  501  0.15552131187E+02 -0.19552612659E+01  0.77626142986E+01  0.17491426809E+02  0.00000000000E+00 0. -1.
<mgrwt>
<rscale>  1 0.30000000E+03</rscale>
<asrwt>0</asrwt>
<pdfrwt beam="1">  1        1 0.14392423E+00 0.30000000E+03</pdfrwt>
<pdfrwt beam="2">0</pdfrwt>
<totfact> 0.19301766E+01</totfact>
</mgrwt>
</event>
<event>
 6    1  0.1839160E-004  0.3000000E+03  0.7818608E-02  0.1093470E+00
          3   -1    0    0  502    0  0.00000000000E+00  0.00000000000E+00  0.40827393035E+02  0.40827393035E+02  0.00000000000E+00 0.  1.
         13   -1    0    0    0    0 -0.00000000000E+00 -0.00000000000E+00 -0.10000000000E+04  0.10000000000E+04  0.00000000000E+00 0.  1.
    9000005    2    1    2  501    0  0.84043010997E+01 -0.74006371675E+01 -0.97135735157E+03  0.10242783837E+04  0.32478562353E+03 0.  0.
         13    1    3    3    0    0 -0.80103817198E+02 -0.13996710800E+03 -0.57159687495E+03  0.59391110472E+03  0.00000000000E+00 0.  1.
          3    1    3    3  501    0  0.88508118298E+02  0.13256647083E+03 -0.39976047661E+03  0.43036727903E+03  0.00000000000E+00 0.  1.
         21    1    1    2  502  501 -0.84043010997E+01  0.74006371675E+01  0.12184744603E+02  0.16549009291E+02  0.00000000000E+00 0. -1.
<mgrwt>
<rscale>  1 0.30000000E+03</rscale>
<asrwt>0</asrwt>
<pdfrwt beam="1">  1        3 0.14846356E+00 0.30000000E+03</pdfrwt>
<pdfrwt beam="2">0</pdfrwt>
<totfact> 0.10388704E+00</totfact>
</mgrwt>
</event>
<event>
 6    1  0.1839160E-004  0.3000000E+03  0.7818608E-02  0.1093470E+00
          1   -1    0    0  502    0  0.00000000000E+00  0.00000000000E+00  0.32088890761E+02  0.32088890761E+02  0.00000000000E+00 0.  1.
         13   -1    0    0    0    0 -0.00000000000E+00 -0.00000000000E+00 -0.10000000000E+04  0.10000000000E+04  0.00000000000E+00 0.  1.
    9000005    2    1    2  501    0  0.20305548925E+02  0.14482944222E+02 -0.93068652335E+03  0.98728107018E+03  0.32851854712E+03 0.  0.
         13    1    3    3    0    0  0.70587370474E+02 -0.68496807202E+02 -0.68995468453E+02  0.12014476324E+03  0.00000000000E+00 0.  1.
          3    1    3    3  501    0 -0.50281821549E+02  0.82979751423E+02 -0.86169105489E+03  0.86713630694E+03  0.00000000000E+00 0.  1.
         21    1    1    2  502  501 -0.20305548925E+02 -0.14482944222E+02 -0.37224585892E+02  0.44807820582E+02  0.00000000000E+00 0. -1.
<mgrwt>
<rscale>  1 0.30000000E+03</rscale>
<asrwt>0</asrwt>
<pdfrwt beam="1">  1        1 0.11668712E+00 0.30000000E+03</pdfrwt>
<pdfrwt beam="2">0</pdfrwt>
<totfact> 0.27150821E+01</totfact>
</mgrwt>
</event>
<event>
 6    1  0.1839160E-004  0.3000000E+03  0.7818608E-02  0.1093470E+00
          1   -1    0    0  502    0  0.00000000000E+00  0.00000000000E+00  0.38918540855E+02  0.38918540855E+02  0.00000000000E+00 0.  1.
         13   -1    0    0    0    0 -0.00000000000E+00 -0.00000000000E+00 -0.10000000000E+04  0.10000000000E+04  0.00000000000E+00 0.  1.
    9000005    2    1    2  501    0  0.12165972491E+02  0.29943825973E+02 -0.94051035462E+03  0.10006064808E+04  0.34001317441E+03 0.  0.
         13    1    3    3    0    0  0.11221398510E+03  0.21828678721E+02 -0.93542587044E+02  0.14771149332E+03  0.00000000000E+00 0.  1.
          1    1    3    3  501    0 -0.10004801261E+03  0.81151472517E+01 -0.84696776757E+03  0.85289498753E+03  0.00000000000E+00 0.  1.
         21    1    1    2  502  501 -0.12165972491E+02 -0.29943825973E+02 -0.20571104526E+02  0.38312060007E+02  0.00000000000E+00 0.  1.
<mgrwt>
<rscale>  1 0.30000000E+03</rscale>
<asrwt>0</asrwt>
<pdfrwt beam="1">  1        1 0.14152227E+00 0.30000000E+03</pdfrwt>
<pdfrwt beam="2">0</pdfrwt>
<totfact> 0.19864675E+01</totfact>
</mgrwt>
</event>
<event>
 6    1  0.1839160E-004  0.3000000E+03  0.7818608E-02  0.1093470E+00
          1   -1    0    0  502    0  0.00000000000E+00  0.00000000000E+00  0.27462636656E+02  0.27462636656E+02  0.00000000000E+00 0.  1.
         13   -1    0    0    0    0 -0.00000000000E+00 -0.00000000000E+00 -0.10000000000E+04  0.10000000000E+04  0.00000000000E+00 0.  1.
    9000005    2    1    2  501    0 -0.14097703202E+02 -0.74720829321E+00 -0.93906174792E+03  0.99113192810E+03  0.31671158638E+03 0.  0.
         13    1    3    3    0    0 -0.24466598038E+02 -0.14414330310E+03 -0.67312695385E+03  0.68882203960E+03  0.00000000000E+00 0.  1.
          3    1    3    3  501    0  0.10368894836E+02  0.14339609481E+03 -0.26593479407E+03  0.30230988850E+03  0.00000000000E+00 0.  1.
         21    1    1    2  502  501  0.14097703202E+02  0.74720829321E+00 -0.33475615428E+02  0.36330708554E+02  0.00000000000E+00 0. -1.
<mgrwt>
<rscale>  1 0.30000000E+03</rscale>
<asrwt>0</asrwt>
<pdfrwt beam="1">  1        1 0.99864344E-01 0.30000000E+03</pdfrwt>
<pdfrwt beam="2">0</pdfrwt>
<totfact> 0.34294936E+01</totfact>
</mgrwt>
</event>
<event>
 6    1  0.1839160E-004  0.3000000E+03  0.7818608E-02  0.1093470E+00
          1   -1    0    0  502    0  0.00000000000E+00  0.00000000000E+00  0.30841549577E+02  0.30841549577E+02  0.00000000000E+00 0.  1.
         13   -1    0    0    0    0 -0.00000000000E+00 -0.00000000000E+00 -0.10000000000E+04  0.10000000000E+04  0.00000000000E+00 0.  1.
    9000005    2    1    2  501    0  0.89562538855E+01  0.11743737715E+02 -0.95825193917E+03  0.10124817607E+04  0.32657986313E+03 0.  0.
         13    1    3    3    0    0 -0.91220485698E+02 -0.99665189708E+02 -0.21239753045E+03  0.25172810330E+03  0.00000000000E+00 0.  1.
          1    1    3    3  501    0  0.10017673958E+03  0.11140892742E+03 -0.74585440873E+03  0.76075365742E+03  0.00000000000E+00 0.  1.
         21    1    1    2  502  501 -0.89562538855E+01 -0.11743737715E+02 -0.10906511249E+02  0.18359788855E+02  0.00000000000E+00 0.  1.
<mgrwt>
<rscale>  1 0.30000000E+03</rscale>
<asrwt>0</asrwt>
<pdfrwt beam="1">  1        1 0.11215133E+00 0.30000000E+03</pdfrwt>
<pdfrwt beam="2">0</pdfrwt>
<totfact> 0.28850465E+01</totfact>
</mgrwt>
</event>
<event>
 6    1  0.1839160E-004  0.3000000E+03  0.7818608E-02  0.1093470E+00
          1   -1    0    0  502    0  0.00000000000E+00  0.00000000000E+00  0.42838057491E+02  0.42838057491E+02  0.00000000000E+00 0.  1.
         13   -1    0    0    0    0 -0.00000000000E+00 -0.00000000000E+00 -0.10000000000E+04  0.10000000000E+04  0.00000000000E+00 0.  1.
    9000005    2    1    2  501    0  0.55839387911E+02 -0.29222103623E+02 -0.66788500205E+03  0.74677536672E+03  0.32807179672E+03 0.  0.
         13    1    3    3    0    0 -0.81818348136E+02  0.26159606118E+02 -0.28658194477E+02  0.90553073911E+02  0.00000000000E+00 0.  1.
          3    1    3    3  501    0  0.13765773605E+03 -0.55381709740E+02 -0.63922680757E+03  0.65622229281E+03  0.00000000000E+00 0.  1.
         21    1    1    2  502  501 -0.55839387911E+02  0.29222103623E+02 -0.28927694046E+03  0.29606269077E+03  0.00000000000E+00 0. -1.
<mgrwt>
<rscale>  1 0.30000000E+03</rscale>
<asrwt>0</asrwt>
<pdfrwt beam="1">  1        1 0.15577508E+00 0.30000000E+03</pdfrwt>
<pdfrwt beam="2">0</pdfrwt>
<totfact> 0.16798887E+01</totfact>
</mgrwt>
</event>
<event>
 6    1  0.1839160E-004  0.3000000E+03  0.7818608E-02  0.1093470E+00
          1   -1    0    0  502    0  0.00000000000E+00  0.00000000000E+00  0.26938639797E+02  0.26938639797E+02  0.00000000000E+00 0.  1.
         13   -1    0    0    0    0 -0.00000000000E+00 -0.00000000000E+00 -0.10000000000E+04  0.10000000000E+04  0.00000000000E+00 0.  1.
    9000005    2    1    2  501    0 -0.11644945467E+02  0.51836987475E+01 -0.95093983395E+03  0.10014075331E+04  0.31363673889E+03 0.  0.
         13    1    3    3    0    0 -0.37569664401E+02 -0.15098319942E+03 -0.46875034397E+03  0.49389704510E+03  0.00000000000E+00 0.  1.
          3    1    3    3  501    0  0.25924718934E+02  0.15616689817E+03 -0.48218948999E+03  0.50751048796E+03  0.00000000000E+00 0.  1.
         21    1    1    2  502  501  0.11644945467E+02 -0.51836987475E+01 -0.22121526249E+02  0.25531106737E+02  0.00000000000E+00 0.  1.
<mgrwt>
<rscale>  1 0.30000000E+03</rscale>
<asrwt>0</asrwt>
<pdfrwt beam="1">  1        1 0.97958897E-01 0.30000000E+03</pdfrwt>
<pdfrwt beam="2">0</pdfrwt>
<totfact> 0.35271311E+01</totfact>
</mgrwt>
</event>
<event>
 6    1  0.1839160E-004  0.3000000E+03  0.7818608E-02  0.1093470E+00
          1   -1    0    0  502    0  0.00000000000E+00  0.00000000000E+00  0.17692072790E+02  0.17692072790E+02  0.00000000000E+00 0.  1.
         13   -1    0    0    0    0 -0.00000000000E+00 -0.00000000000E+00 -0.10000000000E+04  0.10000000000E+04  0.00000000000E+00 0.  1.
    9000005    2    1    2  501    0 -0.13372971798E+02 -0.18113478974E+02 -0.95593650965E+03  0.98301663250E+03  0.22803542443E+03 0.  0.
         13    1    3    3    0    0 -0.11049497784E+02 -0.86592148144E+02 -0.14542011683E+03  0.16960926242E+03  0.00000000000E+00 0.  1.
          1    1    3    3  501    0 -0.23234740136E+01  0.68478669170E+02 -0.81051639282E+03  0.81340737007E+03  0.00000000000E+00 0.  1.
         21    1    1    2  502  501  0.13372971798E+02  0.18113478974E+02 -0.26371417565E+02  0.34675440294E+02  0.00000000000E+00 0.  1.
<mgrwt>
<rscale>  1 0.30000000E+03</rscale>
<asrwt>0</asrwt>
<pdfrwt beam="1">  1        1 0.64334946E-01 0.30000000E+03</pdfrwt>
<pdfrwt beam="2">0</pdfrwt>
<totfact> 0.63180163E+01</totfact>
</mgrwt>
</event>
<event>
 6    1  0.1839160E-004  0.3000000E+03  0.7818608E-02  0.1093470E+00
          1   -1    0    0  502    0  0.00000000000E+00  0.00000000000E+00  0.30908221356E+02  0.30908221356E+02  0.00000000000E+00 0.  1.
         13   -1    0    0    0    0 -0.00000000000E+00 -0.00000000000E+00 -0.10000000000E+04  0.10000000000E+04  0.00000000000E+00 0.  1.
    9000005    2    1    2  501    0 -0.10814361555E+02  0.15065431457E+01 -0.96666549020E+03  0.10197230989E+04  0.32445925547E+03 0.  0.
         13    1    3    3    0    0 -0.15413673565E+03  0.12313239856E+02 -0.29737854610E+03  0.33517719020E+03  0.00000000000E+00 0.  1.
          1    1    3    3  501    0  0.14332237410E+03 -0.10806696710E+02 -0.66928694410E+03  0.68454590872E+03  0.00000000000E+00 0.  1.
         21    1    1    2  502  501  0.10814361555E+02 -0.15065431457E+01 -0.24262884469E+01  0.11185122427E+02  0.00000000000E+00 0.  1.
<mgrwt>
<rscale>  1 0.30000000E+03</rscale>
<asrwt>0</asrwt>
<pdfrwt beam="1">  1        1 0.11239377E+00 0.30000000E+03</pdfrwt>
<pdfrwt beam="2">0</pdfrwt>
<totfact> 0.28755851E+01</totfact>
</mgrwt>
</event>
<event>
 6    1  0.1839160E-004  0.3000000E+03  0.7818608E-02  0.1093470E+00
          1   -1    0    0  502    0  0.00000000000E+00  0.00000000000E+00  0.57663487294E+02  0.57663487294E+02  0.00000000000E+00 0.  1.
         13   -1    0    0    0    0 -0.00000000000E+00 -0.00000000000E+00 -0.10000000000E+04  0.10000000000E+04  0.00000000000E+00 0.  1.
    9000005    2    1    2  501    0  0.48053835883E+02  0.12005224838E+03 -0.72378940350E+03  0.80372539952E+03  0.32462548224E+03 0.  0.
         13    1    3    3    0    0 -0.41515532132E+02  0.19172346144E+03 -0.25851040264E+03  0.32451356419E+03  0.00000000000E+00 0.  1.
          1    1    3    3  501    0  0.89569368015E+02 -0.71671213057E+02 -0.46527900086E+03  0.47921183532E+03  0.00000000000E+00 0.  1.
         21    1    1    2  502  501 -0.48053835883E+02 -0.12005224838E+03 -0.21854710920E+03  0.25393808778E+03  0.00000000000E+00 0.  1.
<mgrwt>
<rscale>  1 0.30000000E+03</rscale>
<asrwt>0</asrwt>
<pdfrwt beam="1">  1        1 0.20968585E+00 0.30000000E+03</pdfrwt>
<pdfrwt beam="2">0</pdfrwt>
<totfact> 0.92166843E+00</totfact>
</mgrwt>
</event>
<event>
 6    1  0.1839160E-004  0.3000000E+03  0.7818608E-02  0.1093470E+00
          1   -1    0    0  502    0  0.00000000000E+00  0.00000000000E+00  0.66753810932E+02  0.66753810932E+02  0.00000000000E+00 0.  1.
         13   -1    0    0    0    0 -0.00000000000E+00 -0.00000000000E+00 -0.10000000000E+04  0.10000000000E+04  0.00000000000E+00 0.  1.
    9000005    2    1    2  501    0 -0.49333091028E+02  0.42450324563E+01 -0.95591255895E+03  0.10122970529E+04  0.32943091659E+03 0.  0.
         13    1    3    3    0    0 -0.13016893931E+03 -0.25131797126E+02 -0.14358241147E+03  0.19542637711E+03  0.00000000000E+00 0.  1.
          1    1    3    3  501    0  0.80835848278E+02  0.29376829582E+02 -0.81233014747E+03  0.81687067580E+03  0.00000000000E+00 0.  1.
         21    1    1    2  502  501  0.49333091028E+02 -0.42450324563E+01  0.22666369878E+02  0.54456758023E+02  0.00000000000E+00 0.  1.
<mgrwt>
<rscale>  1 0.30000000E+03</rscale>
<asrwt>0</asrwt>
<pdfrwt beam="1">  1        1 0.24274164E+00 0.30000000E+03</pdfrwt>
<pdfrwt beam="2">0</pdfrwt>
<totfact> 0.64501721E+00</totfact>
</mgrwt>
</event>
<event>
 6    1  0.1839160E-004  0.3000000E+03  0.7818608E-02  0.1093470E+00
          1   -1    0    0  502    0  0.00000000000E+00  0.00000000000E+00  0.33867930654E+02  0.33867930654E+02  0.00000000000E+00 0.  1.
         13   -1    0    0    0    0 -0.00000000000E+00 -0.00000000000E+00 -0.10000000000E+04  0.10000000000E+04  0.00000000000E+00 0.  1.
    9000005    2    1    2  501    0 -0.22326496603E+02 -0.95755105113E+01 -0.95425844448E+03  0.10068282225E+04  0.32016203370E+03 0.  0.
         13    1    3    3    0    0  0.11064050005E+03  0.92665432016E+02 -0.56156926925E+03  0.57981742532E+03  0.00000000000E+00 0.  1.
          3    1    3    3  501    0 -0.13296699665E+03 -0.10224094253E+03 -0.39268917523E+03  0.42701079713E+03  0.00000000000E+00 0.  1.
         21    1    1    2  502  501  0.22326496603E+02  0.95755105113E+01 -0.11873624870E+02  0.27039708202E+02  0.00000000000E+00 0.  1.
<mgrwt>
<rscale>  1 0.30000000E+03</rscale>
<asrwt>0</asrwt>
<pdfrwt beam="1">  1        1 0.12315637E+00 0.30000000E+03</pdfrwt>
<pdfrwt beam="2">0</pdfrwt>
<totfact> 0.24956238E+01</totfact>
</mgrwt>
</event>
<event>
 6    1  0.1839160E-004  0.3000000E+03  0.7818608E-02  0.1093470E+00
          1   -1    0    0  502    0  0.00000000000E+00  0.00000000000E+00  0.38614494977E+02  0.38614494977E+02  0.00000000000E+00 0.  1.
         13   -1    0    0    0    0 -0.00000000000E+00 -0.00000000000E+00 -0.10000000000E+04  0.10000000000E+04  0.00000000000E+00 0.  1.
    9000005    2    1    2  501    0  0.23386714957E+02  0.22940020747E+02 -0.94788054407E+03  0.10031805147E+04  0.32683395822E+03 0.  0.
         13    1    3    3    0    0  0.16652472814E+02  0.40609432897E+02  0.10079696883E+02  0.45033667186E+02  0.00000000000E+00 0.  1.
          1    1    3    3  501    0  0.67342421430E+01 -0.17669412150E+02 -0.95796024095E+03  0.95814684751E+03  0.00000000000E+00 0.  1.
         21    1    1    2  502  501 -0.23386714957E+02 -0.22940020747E+02 -0.13504960954E+02  0.35433980283E+02  0.00000000000E+00 0.  1.
<mgrwt>
<rscale>  1 0.30000000E+03</rscale>
<asrwt>0</asrwt>
<pdfrwt beam="1">  1        1 0.14041664E+00 0.30000000E+03</pdfrwt>
<pdfrwt beam="2">0</pdfrwt>
<totfact> 0.20130779E+01</totfact>
</mgrwt>
</event>
<event>
 6    1  0.1839160E-004  0.3000000E+03  0.7818608E-02  0.1093470E+00
          1   -1    0    0  502    0  0.00000000000E+00  0.00000000000E+00  0.29192010432E+02  0.29192010432E+02  0.00000000000E+00 0.  1.
         13   -1    0    0    0    0 -0.00000000000E+00 -0.00000000000E+00 -0.10000000000E+04  0.10000000000E+04  0.00000000000E+00 0.  1.
    9000005    2    1    2  501    0  0.53845420719E+01 -0.77692913150E+01 -0.96231927244E+03  0.10164871492E+04  0.32725889929E+03 0.  0.
         13    1    3    3    0    0  0.75971737612E+02 -0.42101775253E+02 -0.48851398458E+02  0.99653015642E+02  0.00000000000E+00 0.  1.
          3    1    3    3  501    0 -0.70587195540E+02  0.34332483938E+02 -0.91346787398E+03  0.91683413354E+03  0.00000000000E+00 0.  1.
         21    1    1    2  502  501 -0.53845420719E+01  0.77692913150E+01 -0.84887171264E+01  0.12704861247E+02  0.00000000000E+00 0. -1.
<mgrwt>
<rscale>  1 0.30000000E+03</rscale>
<asrwt>0</asrwt>
<pdfrwt beam="1">  1        1 0.10615299E+00 0.30000000E+03</pdfrwt>
<pdfrwt beam="2">0</pdfrwt>
<totfact> 0.31339301E+01</totfact>
</mgrwt>
</event>
<event>
 6    1  0.1839160E-004  0.3000000E+03  0.7818608E-02  0.1093470E+00
          3   -1    0    0  502    0  0.00000000000E+00  0.00000000000E+00  0.35004568138E+02  0.35004568138E+02  0.00000000000E+00 0.  1.
         13   -1    0    0    0    0 -0.00000000000E+00 -0.00000000000E+00 -0.10000000000E+04  0.10000000000E+04  0.00000000000E+00 0.  1.
    9000005    2    1    2  501    0 -0.10970108545E+02  0.51115964346E+01 -0.96859004199E+03  0.10223794772E+04  0.32702699310E+03 0.  0.
         13    1    3    3    0    0  0.10803074189E+03 -0.23746589953E+02 -0.83043756434E+03  0.83777150225E+03  0.00000000000E+00 0.  1.
          1    1    3    3  501    0 -0.11900085043E+03  0.28858186387E+02 -0.13815247766E+03  0.18460797493E+03  0.00000000000E+00 0.  1.
         21    1    1    2  502  501  0.10970108545E+02 -0.51115964346E+01  0.35946101325E+01  0.12625090954E+02  0.00000000000E+00 0.  1.
<mgrwt>
<rscale>  1 0.30000000E+03</rscale>
<asrwt>0</asrwt>
<pdfrwt beam="1">  1        3 0.12728961E+00 0.30000000E+03</pdfrwt>
<pdfrwt beam="2">0</pdfrwt>
<totfact> 0.19031175E+00</totfact>
</mgrwt>
</event>
<event>
 6    1  0.1839160E-004  0.3000000E+03  0.7818608E-02  0.1093470E+00
          1   -1    0    0  502    0  0.00000000000E+00  0.00000000000E+00  0.41225877039E+02  0.41225877039E+02  0.00000000000E+00 0.  1.
         13   -1    0    0    0    0 -0.00000000000E+00 -0.00000000000E+00 -0.10000000000E+04  0.10000000000E+04  0.00000000000E+00 0.  1.
    9000005    2    1    2  501    0 -0.12404710156E+02 -0.12489142571E+02 -0.96733370944E+03  0.10216523736E+04  0.32822128440E+03 0.  0.
         13    1    3    3    0    0  0.12853240698E+03 -0.82071534629E+02 -0.30597561797E+03  0.34187336139E+03  0.00000000000E+00 0.  1.
          1    1    3    3  501    0 -0.14093711714E+03  0.69582392057E+02 -0.66135809148E+03  0.67977901220E+03  0.00000000000E+00 0.  1.
         21    1    1    2  502  501  0.12404710156E+02  0.12489142571E+02  0.85595864832E+01  0.19573503442E+02  0.00000000000E+00 0.  1.
<mgrwt>
<rscale>  1 0.30000000E+03</rscale>
<asrwt>0</asrwt>
<pdfrwt beam="1">  1        1 0.14991260E+00 0.30000000E+03</pdfrwt>
<pdfrwt beam="2">0</pdfrwt>
<totfact> 0.17983351E+01</totfact>
</mgrwt>
</event>
<event>
 6    1  0.1839160E-004  0.3000000E+03  0.7818608E-02  0.1093470E+00
          1   -1    0    0  502    0  0.00000000000E+00  0.00000000000E+00  0.42987108560E+02  0.42987108560E+02  0.00000000000E+00 0.  1.
         13   -1    0    0    0    0 -0.00000000000E+00 -0.00000000000E+00 -0.10000000000E+04  0.10000000000E+04  0.00000000000E+00 0.  1.
    9000005    2    1    2  501    0  0.49553664353E+01  0.82875356570E+02 -0.75274729638E+03  0.82249376692E+03  0.32089659398E+03 0.  0.
         13    1    3    3    0    0  0.13256580535E+03  0.17747459197E+02 -0.59306950415E+03  0.60796389844E+03  0.00000000000E+00 0.  1.
          1    1    3    3  501    0 -0.12761043892E+03  0.65127897373E+02 -0.15967779224E+03  0.21452986848E+03  0.00000000000E+00 0.  1.
         21    1    1    2  502  501 -0.49553664353E+01 -0.82875356570E+02 -0.20426559506E+03  0.22049334164E+03  0.00000000000E+00 0.  1.
<mgrwt>
<rscale>  1 0.30000000E+03</rscale>
<asrwt>0</asrwt>
<pdfrwt beam="1">  1        1 0.15631709E+00 0.30000000E+03</pdfrwt>
<pdfrwt beam="2">0</pdfrwt>
<totfact> 0.16694212E+01</totfact>
</mgrwt>
</event>
<event>
 6    1  0.1839160E-004  0.3000000E+03  0.7818608E-02  0.1093470E+00
          3   -1    0    0  502    0  0.00000000000E+00  0.00000000000E+00  0.37223656987E+02  0.37223656987E+02  0.00000000000E+00 0.  1.
         13   -1    0    0    0    0 -0.00000000000E+00 -0.00000000000E+00 -0.10000000000E+04  0.10000000000E+04  0.00000000000E+00 0.  1.
    9000005    2    1    2  501    0 -0.11218856453E+02  0.10505524860E+02 -0.96543527052E+03  0.10216256222E+04  0.33379248292E+03 0.  0.
         13    1    3    3    0    0 -0.15248789650E+03  0.11146110762E+02 -0.73964653939E+03  0.75528391853E+03  0.00000000000E+00 0.  1.
          3    1    3    3  501    0  0.14126904005E+03 -0.64058590230E+00 -0.22578873113E+03  0.26634170370E+03  0.00000000000E+00 0.  1.
         21    1    1    2  502  501  0.11218856453E+02 -0.10505524860E+02  0.26589275043E+01  0.15598034753E+02  0.00000000000E+00 0.  1.
<mgrwt>
<rscale>  1 0.30000000E+03</rscale>
<asrwt>0</asrwt>
<pdfrwt beam="1">  1        3 0.13535904E+00 0.30000000E+03</pdfrwt>
<pdfrwt beam="2">0</pdfrwt>
<totfact> 0.15280840E+00</totfact>
</mgrwt>
</event>
<event>
 6    1  0.1839160E-004  0.3000000E+03  0.7818608E-02  0.1093470E+00
          1   -1    0    0  502    0  0.00000000000E+00  0.00000000000E+00  0.28199918649E+02  0.28199918649E+02  0.00000000000E+00 0.  1.
         13   -1    0    0    0    0 -0.00000000000E+00 -0.00000000000E+00 -0.10000000000E+04  0.10000000000E+04  0.00000000000E+00 0.  1.
    9000005    2    1    2  501    0  0.72306518617E+01  0.61594690840E+01 -0.93440682305E+03  0.98961913130E+03  0.32579087264E+03 0.  0.
         13    1    3    3    0    0 -0.97937845452E+02  0.83610136820E+02 -0.16549282430E+03  0.20969108576E+03  0.00000000000E+00 0.  1.
          3    1    3    3  501    0  0.10516849731E+03 -0.77450667736E+02 -0.76891399875E+03  0.77992804554E+03  0.00000000000E+00 0.  1.
         21    1    1    2  502  501 -0.72306518617E+01 -0.61594690840E+01 -0.37393258305E+02  0.38580787348E+02  0.00000000000E+00 0. -1.
<mgrwt>
<rscale>  1 0.30000000E+03</rscale>
<asrwt>0</asrwt>
<pdfrwt beam="1">  1        1 0.10254537E+00 0.30000000E+03</pdfrwt>
<pdfrwt beam="2">0</pdfrwt>
<totfact> 0.32987161E+01</totfact>
</mgrwt>
</event>
<event>
 6    1  0.1839160E-004  0.3000000E+03  0.7818608E-02  0.1093470E+00
          1   -1    0    0  502    0  0.00000000000E+00  0.00000000000E+00  0.45358283568E+02  0.45358283568E+02  0.00000000000E+00 0.  1.
         13   -1    0    0    0    0 -0.00000000000E+00 -0.00000000000E+00 -0.10000000000E+04  0.10000000000E+04  0.00000000000E+00 0.  1.
    9000005    2    1    2  501    0 -0.12712461529E+02  0.33199550863E+00 -0.97518365273E+03  0.10211986469E+04  0.30282305541E+03 0.  0.
         13    1    3    3    0    0  0.13315038755E+03  0.83477640605E+00 -0.66801621448E+03  0.68115738664E+03  0.00000000000E+00 0.  1.
          1    1    3    3  501    0 -0.14586284908E+03 -0.50278089742E+00 -0.30716743825E+03  0.34004126022E+03  0.00000000000E+00 0.  1.
         21    1    1    2  502  501  0.12712461529E+02 -0.33199550863E+00  0.20541936299E+02  0.24159636712E+02  0.00000000000E+00 0.  1.
<mgrwt>
<rscale>  1 0.30000000E+03</rscale>
<asrwt>0</asrwt>
<pdfrwt beam="1">  1        1 0.16493956E+00 0.30000000E+03</pdfrwt>
<pdfrwt beam="2">0</pdfrwt>
<totfact> 0.15127673E+01</totfact>
</mgrwt>
</event>
<event>
 6    1  0.1839160E-004  0.3000000E+03  0.7818608E-02  0.1093470E+00
          1   -1    0    0  502    0  0.00000000000E+00  0.00000000000E+00  0.50632088662E+02  0.50632088662E+02  0.00000000000E+00 0.  1.
         13   -1    0    0    0    0 -0.00000000000E+00 -0.00000000000E+00 -0.10000000000E+04  0.10000000000E+04  0.00000000000E+00 0.  1.
    9000005    2    1    2  501    0 -0.87059806816E+02  0.28581515011E+02 -0.85965549431E+03  0.92239546857E+03  0.32157350416E+03 0.  0.
         13    1    3    3    0    0  0.87095155595E+02  0.92407185146E+01 -0.66108930463E+02  0.10973307475E+03  0.00000000000E+00 0.  1.
          1    1    3    3  501    0 -0.17415496241E+03  0.19340796496E+02 -0.79354656385E+03  0.81266239383E+03  0.00000000000E+00 0.  1.
         21    1    1    2  502  501  0.87059806816E+02 -0.28581515011E+02 -0.89712417025E+02  0.12823662009E+03  0.00000000000E+00 0.  1.
<mgrwt>
<rscale>  1 0.30000000E+03</rscale>
<asrwt>0</asrwt>
<pdfrwt beam="1">  1        1 0.18411707E+00 0.30000000E+03</pdfrwt>
<pdfrwt beam="2">0</pdfrwt>
<totfact> 0.12203181E+01</totfact>
</mgrwt>
</event>
<event>
 6    1  0.1839160E-004  0.3000000E+03  0.7818608E-02  0.1093470E+00
          1   -1    0    0  502    0  0.00000000000E+00  0.00000000000E+00  0.29150062636E+02  0.29150062636E+02  0.00000000000E+00 0.  1.
         13   -1    0    0    0    0 -0.00000000000E+00 -0.00000000000E+00 -0.10000000000E+04  0.10000000000E+04  0.00000000000E+00 0.  1.
    9000005    2    1    2  501    0  0.91449683676E+01  0.40496942120E+01 -0.96834431648E+03  0.10188394562E+04  0.31661189448E+03 0.  0.
         13    1    3    3    0    0  0.78002884656E+02 -0.79303222615E+02 -0.11997074357E+03  0.16360449396E+03  0.00000000000E+00 0.  1.
          1    1    3    3  501    0 -0.68857916289E+02  0.83352916827E+02 -0.84837357290E+03  0.85523496221E+03  0.00000000000E+00 0.  1.
         21    1    1    2  502  501 -0.91449683676E+01 -0.40496942120E+01 -0.25056208872E+01  0.10310606465E+02  0.00000000000E+00 0.  1.
<mgrwt>
<rscale>  1 0.30000000E+03</rscale>
<asrwt>0</asrwt>
<pdfrwt beam="1">  1        1 0.10600045E+00 0.30000000E+03</pdfrwt>
<pdfrwt beam="2">0</pdfrwt>
<totfact> 0.31406538E+01</totfact>
</mgrwt>
</event>
<event>
 6    1  0.1839160E-004  0.3000000E+03  0.7818608E-02  0.1093470E+00
          1   -1    0    0  502    0  0.00000000000E+00  0.00000000000E+00  0.33323723363E+02  0.33323723363E+02  0.00000000000E+00 0.  1.
         13   -1    0    0    0    0 -0.00000000000E+00 -0.00000000000E+00 -0.10000000000E+04  0.10000000000E+04  0.00000000000E+00 0.  1.
    9000005    2    1    2  501    0  0.29792092431E+02 -0.57729665949E+01 -0.88726112000E+03  0.94830805999E+03  0.33336914324E+03 0.  0.
         13    1    3    3    0    0  0.22637454342E+02  0.16080217771E+03 -0.52457024376E+03  0.54912998037E+03  0.00000000000E+00 0.  1.
          1    1    3    3  501    0  0.71546380887E+01 -0.16657514431E+03 -0.36269087624E+03  0.39917807963E+03  0.00000000000E+00 0.  1.
         21    1    1    2  502  501 -0.29792092431E+02  0.57729665949E+01 -0.79415156635E+02  0.85015663369E+02  0.00000000000E+00 0. -1.
<mgrwt>
<rscale>  1 0.30000000E+03</rscale>
<asrwt>0</asrwt>
<pdfrwt beam="1">  1        1 0.12117743E+00 0.30000000E+03</pdfrwt>
<pdfrwt beam="2">0</pdfrwt>
<totfact> 0.25601566E+01</totfact>
</mgrwt>
</event>
<event>
 6    1  0.1839160E-004  0.3000000E+03  0.7818608E-02  0.1093470E+00
          1   -1    0    0  502    0  0.00000000000E+00  0.00000000000E+00  0.31773808572E+02  0.31773808572E+02  0.00000000000E+00 0.  1.
         13   -1    0    0    0    0 -0.00000000000E+00 -0.00000000000E+00 -0.10000000000E+04  0.10000000000E+04  0.00000000000E+00 0.  1.
    9000005    2    1    2  501    0 -0.10102702861E+02 -0.58335378894E+01 -0.96609359624E+03  0.10199145197E+04  0.32673031097E+03 0.  0.
         13    1    3    3    0    0  0.20120468204E+02 -0.33299773272E+02  0.12195777587E+02  0.40773093231E+02  0.00000000000E+00 0.  1.
          1    1    3    3  501    0 -0.30223171064E+02  0.27466235383E+02 -0.97828937383E+03  0.97914142651E+03  0.00000000000E+00 0.  1.
         21    1    1    2  502  501  0.10102702861E+02  0.58335378894E+01 -0.21325951850E+01  0.11859288833E+02  0.00000000000E+00 0. -1.
<mgrwt>
<rscale>  1 0.30000000E+03</rscale>
<asrwt>0</asrwt>
<pdfrwt beam="1">  1        1 0.11554137E+00 0.30000000E+03</pdfrwt>
<pdfrwt beam="2">0</pdfrwt>
<totfact> 0.27566590E+01</totfact>
</mgrwt>
</event>
<event>
 6    1  0.1839160E-004  0.3000000E+03  0.7818608E-02  0.1093470E+00
          1   -1    0    0  502    0  0.00000000000E+00  0.00000000000E+00  0.35635318232E+02  0.35635318232E+02  0.00000000000E+00 0.  1.
         13   -1    0    0    0    0 -0.00000000000E+00 -0.00000000000E+00 -0.10000000000E+04  0.10000000000E+04  0.00000000000E+00 0.  1.
    9000005    2    1    2  501    0 -0.11304347314E+02 -0.26156796553E+01 -0.97138951194E+03  0.10220714586E+04  0.31764422333E+03 0.  0.
         13    1    3    3    0    0  0.50577701434E+02 -0.16151284043E+02 -0.46921284029E+01  0.53300881114E+02  0.00000000000E+00 0.  1.
          1    1    3    3  501    0 -0.61882048748E+02  0.13535604388E+02 -0.96669738353E+03  0.96877057752E+03  0.00000000000E+00 0.  1.
         21    1    1    2  502  501  0.11304347314E+02  0.26156796553E+01  0.70248301673E+01  0.13563859595E+02  0.00000000000E+00 0.  1.
<mgrwt>
<rscale>  1 0.30000000E+03</rscale>
<asrwt>0</asrwt>
<pdfrwt beam="1">  1        1 0.12958325E+00 0.30000000E+03</pdfrwt>
<pdfrwt beam="2">0</pdfrwt>
<totfact> 0.22999731E+01</totfact>
</mgrwt>
</event>
<event>
 6    1  0.1839160E-004  0.3000000E+03  0.7818608E-02  0.1093470E+00
          1   -1    0    0  502    0  0.00000000000E+00  0.00000000000E+00  0.36467787114E+02  0.36467787114E+02  0.00000000000E+00 0.  1.
         13   -1    0    0    0    0 -0.00000000000E+00 -0.00000000000E+00 -0.10000000000E+04  0.10000000000E+04  0.00000000000E+00 0.  1.
    9000005    2    1    2  501    0 -0.56032463225E+00 -0.10640919120E+02 -0.96253318510E+03  0.10257653958E+04  0.35441638177E+03 0.  0.
         13    1    3    3    0    0 -0.26736609329E+02 -0.27802882964E+01  0.25679144330E+02  0.37175189777E+02  0.00000000000E+00 0.  1.
          1    1    3    3  501    0  0.26176284697E+02 -0.78606308238E+01 -0.98821232943E+03  0.98859020602E+03  0.00000000000E+00 0.  1.
         21    1    1    2  502  501  0.56032463225E+00  0.10640919120E+02 -0.99902778585E+00  0.10702391319E+02  0.00000000000E+00 0.  1.
<mgrwt>
<rscale>  1 0.30000000E+03</rscale>
<asrwt>0</asrwt>
<pdfrwt beam="1">  1        1 0.13261041E+00 0.30000000E+03</pdfrwt>
<pdfrwt beam="2">0</pdfrwt>
<totfact> 0.22146703E+01</totfact>
</mgrwt>
</event>
<event>
 6    1  0.1839160E-004  0.3000000E+03  0.7818608E-02  0.1093470E+00
          1   -1    0    0  502    0  0.00000000000E+00  0.00000000000E+00  0.46014561132E+02  0.46014561132E+02  0.00000000000E+00 0.  1.
         13   -1    0    0    0    0 -0.00000000000E+00 -0.00000000000E+00 -0.10000000000E+04  0.10000000000E+04  0.00000000000E+00 0.  1.
    9000005    2    1    2  501    0 -0.26039505614E+02  0.61887419710E+02 -0.91164998479E+03  0.96663950685E+03  0.31428988666E+03 0.  0.
         13    1    3    3    0    0  0.89056263207E+02 -0.85829734526E+02 -0.24883244068E+03  0.27787649213E+03  0.00000000000E+00 0.  1.
          1    1    3    3  501    0 -0.11509576882E+03  0.14771715424E+03 -0.66281754411E+03  0.68876301471E+03  0.00000000000E+00 0.  1.
         21    1    1    2  502  501  0.26039505614E+02 -0.61887419710E+02 -0.42335454076E+02  0.79375054286E+02  0.00000000000E+00 0.  1.
<mgrwt>
<rscale>  1 0.30000000E+03</rscale>
<asrwt>0</asrwt>
<pdfrwt beam="1">  1        1 0.16732603E+00 0.30000000E+03</pdfrwt>
<pdfrwt beam="2">0</pdfrwt>
<totfact> 0.14724515E+01</totfact>
</mgrwt>
</event>
<event>
 6    1  0.1839160E-004  0.3000000E+03  0.7818608E-02  0.1093470E+00
          1   -1    0    0  502    0  0.00000000000E+00  0.00000000000E+00  0.41987294353E+02  0.41987294353E+02  0.00000000000E+00 0.  1.
         13   -1    0    0    0    0 -0.00000000000E+00 -0.00000000000E+00 -0.10000000000E+04  0.10000000000E+04  0.00000000000E+00 0.  1.
    9000005    2    1    2  501    0 -0.10510586742E+02 -0.54039817296E+01 -0.97088005412E+03  0.10245160577E+04  0.32693332292E+03 0.  0.
         13    1    3    3    0    0  0.15809586096E+03  0.42484020997E+01 -0.45616292982E+03  0.48280116892E+03  0.00000000000E+00 0.  1.
          3    1    3    3  501    0 -0.16860644770E+03 -0.96523838293E+01 -0.51471712430E+03  0.54171488882E+03  0.00000000000E+00 0.  1.
         21    1    1    2  502  501  0.10510586742E+02  0.54039817296E+01  0.12867348468E+02  0.17471236614E+02  0.00000000000E+00 0. -1.
<mgrwt>
<rscale>  1 0.30000000E+03</rscale>
<asrwt>0</asrwt>
<pdfrwt beam="1">  1        1 0.15268139E+00 0.30000000E+03</pdfrwt>
<pdfrwt beam="2">0</pdfrwt>
<totfact> 0.17411690E+01</totfact>
</mgrwt>
</event>
<event>
 6    1  0.1839160E-004  0.3000000E+03  0.7818608E-02  0.1093470E+00
          1   -1    0    0  502    0  0.00000000000E+00  0.00000000000E+00  0.33183931004E+02  0.33183931004E+02  0.00000000000E+00 0.  1.
         13   -1    0    0    0    0 -0.00000000000E+00 -0.00000000000E+00 -0.10000000000E+04  0.10000000000E+04  0.00000000000E+00 0.  1.
    9000005    2    1    2  501    0 -0.85341707696E+01  0.60317008551E+01 -0.96939422018E+03  0.10224200865E+04  0.32482066679E+03 0.  0.
         13    1    3    3    0    0 -0.15201870982E+03  0.69555864883E+02 -0.53785843199E+03  0.56324009032E+03  0.00000000000E+00 0.  1.
          3    1    3    3  501    0  0.14348453905E+03 -0.63524164028E+02 -0.43153578819E+03  0.45917999614E+03  0.00000000000E+00 0.  1.
         21    1    1    2  502  501  0.85341707696E+01 -0.60317008551E+01  0.25781511877E+01  0.10763844549E+02  0.00000000000E+00 0.  1.
<mgrwt>
<rscale>  1 0.30000000E+03</rscale>
<asrwt>0</asrwt>
<pdfrwt beam="1">  1        1 0.12066909E+00 0.30000000E+03</pdfrwt>
<pdfrwt beam="2">0</pdfrwt>
<totfact> 0.25770880E+01</totfact>
</mgrwt>
</event>
<event>
 6    1  0.1839160E-004  0.3000000E+03  0.7818608E-02  0.1093470E+00
          1   -1    0    0  502    0  0.00000000000E+00  0.00000000000E+00  0.42088036785E+02  0.42088036785E+02  0.00000000000E+00 0.  1.
         13   -1    0    0    0    0 -0.00000000000E+00 -0.00000000000E+00 -0.10000000000E+04  0.10000000000E+04  0.00000000000E+00 0.  1.
    9000005    2    1    2  501    0  0.50323066779E+01 -0.17021380058E+02 -0.96588210295E+03  0.10226310427E+04  0.33545634785E+03 0.  0.
         13    1    3    3    0    0 -0.86263658982E+02  0.12011396610E+03 -0.64724810491E+03  0.66392687325E+03  0.00000000000E+00 0.  1.
          3    1    3    3  501    0  0.91295965660E+02 -0.13713534616E+03 -0.31863399804E+03  0.35870416950E+03  0.00000000000E+00 0.  1.
         21    1    1    2  502  501 -0.50323066779E+01  0.17021380058E+02  0.79701397299E+01  0.19456994035E+02  0.00000000000E+00 0. -1.
<mgrwt>
<rscale>  1 0.30000000E+03</rscale>
<asrwt>0</asrwt>
<pdfrwt beam="1">  1        1 0.15304773E+00 0.30000000E+03</pdfrwt>
<pdfrwt beam="2">0</pdfrwt>
<totfact> 0.17337730E+01</totfact>
</mgrwt>
</event>
<event>
 6    1  0.1839160E-004  0.3000000E+03  0.7818608E-02  0.1093470E+00
          1   -1    0    0  502    0  0.00000000000E+00  0.00000000000E+00  0.75520847576E+02  0.75520847576E+02  0.00000000000E+00 0.  1.
         13   -1    0    0    0    0 -0.00000000000E+00 -0.00000000000E+00 -0.10000000000E+04  0.10000000000E+04  0.00000000000E+00 0.  1.
    9000005    2    1    2  501    0  0.14987743136E+03  0.50733069134E+02 -0.79068781258E+03  0.86830788622E+03  0.32207806441E+03 0.  0.
         13    1    3    3    0    0  0.17292488111E+03  0.16566191018E+03 -0.48452326735E+03  0.54047171951E+03  0.00000000000E+00 0.  1.
          3    1    3    3  501    0 -0.23047449751E+02 -0.11492884105E+03 -0.30616454524E+03  0.32783616671E+03  0.00000000000E+00 0.  1.
         21    1    1    2  502  501 -0.14987743136E+03 -0.50733069134E+02 -0.13379133984E+03  0.20721296135E+03  0.00000000000E+00 0. -1.
<mgrwt>
<rscale>  1 0.30000000E+03</rscale>
<asrwt>0</asrwt>
<pdfrwt beam="1">  1        1 0.27462184E+00 0.30000000E+03</pdfrwt>
<pdfrwt beam="2">0</pdfrwt>
<totfact> 0.45748625E+00</totfact>
</mgrwt>
</event>
<event>
 6    1  0.1839160E-004  0.3000000E+03  0.7818608E-02  0.1093470E+00
          1   -1    0    0  502    0  0.00000000000E+00  0.00000000000E+00  0.33127030942E+02  0.33127030942E+02  0.00000000000E+00 0.  1.
         13   -1    0    0    0    0 -0.00000000000E+00 -0.00000000000E+00 -0.10000000000E+04  0.10000000000E+04  0.00000000000E+00 0.  1.
    9000005    2    1    2  501    0 -0.18223245063E+02 -0.62116705898E+01 -0.93096165268E+03  0.99238032363E+03  0.34315949130E+03 0.  0.
         13    1    3    3    0    0  0.12965936503E+03  0.12123930599E+01 -0.73721758716E+03  0.74853376120E+03  0.00000000000E+00 0.  1.
          1    1    3    3  501    0 -0.14788261009E+03 -0.74240636498E+01 -0.19374406552E+03  0.24384656244E+03  0.00000000000E+00 0.  1.
         21    1    1    2  502  501  0.18223245063E+02  0.62116705898E+01 -0.35911316381E+02  0.40746707307E+02  0.00000000000E+00 0. -1.
<mgrwt>
<rscale>  1 0.30000000E+03</rscale>
<asrwt>0</asrwt>
<pdfrwt beam="1">  1        1 0.12046218E+00 0.30000000E+03</pdfrwt>
<pdfrwt beam="2">0</pdfrwt>
<totfact> 0.25840223E+01</totfact>
</mgrwt>
</event>
<event>
 6    1  0.1839160E-004  0.3000000E+03  0.7818608E-02  0.1093470E+00
          1   -1    0    0  502    0  0.00000000000E+00  0.00000000000E+00  0.61623900548E+02  0.61623900548E+02  0.00000000000E+00 0.  1.
         13   -1    0    0    0    0 -0.00000000000E+00 -0.00000000000E+00 -0.10000000000E+04  0.10000000000E+04  0.00000000000E+00 0.  1.
    9000005    2    1    2  501    0 -0.11284489410E+02  0.65520091343E+02 -0.93566889211E+03  0.99508405502E+03  0.33210808305E+03 0.  0.
         13    1    3    3    0    0 -0.16422580321E+03  0.36520840437E+02 -0.33910159728E+03  0.37854164831E+03  0.00000000000E+00 0.  1.
          3    1    3    3  501    0  0.15294131380E+03  0.28999250906E+02 -0.59656729483E+03  0.61654240672E+03  0.00000000000E+00 0.  1.
         21    1    1    2  502  501  0.11284489410E+02 -0.65520091343E+02 -0.27072073405E+01  0.66539845525E+02  0.00000000000E+00 0.  1.
<mgrwt>
<rscale>  1 0.30000000E+03</rscale>
<asrwt>0</asrwt>
<pdfrwt beam="1">  1        1 0.22408738E+00 0.30000000E+03</pdfrwt>
<pdfrwt beam="2">0</pdfrwt>
<totfact> 0.78876398E+00</totfact>
</mgrwt>
</event>
<event>
 6    1  0.1839160E-004  0.3000000E+03  0.7818608E-02  0.1093470E+00
          1   -1    0    0  502    0  0.00000000000E+00  0.00000000000E+00  0.50300324266E+02  0.50300324266E+02  0.00000000000E+00 0.  1.
         13   -1    0    0    0    0 -0.00000000000E+00 -0.00000000000E+00 -0.10000000000E+04  0.10000000000E+04  0.00000000000E+00 0.  1.
    9000005    2    1    2  501    0 -0.32494621734E+02  0.48321205937E+01 -0.96120087794E+03  0.10154933209E+04  0.32594525185E+03 0.  0.
         13    1    3    3    0    0 -0.42377214087E+01 -0.16586722997E+01  0.26741329278E+02  0.27125784194E+02  0.00000000000E+00 0.  1.
          3    1    3    3  501    0 -0.28256900325E+02  0.64907928934E+01 -0.98794220722E+03  0.98836753671E+03  0.00000000000E+00 0.  1.
         21    1    1    2  502  501  0.32494621734E+02 -0.48321205937E+01  0.11501202209E+02  0.34807003366E+02  0.00000000000E+00 0.  1.
<mgrwt>
<rscale>  1 0.30000000E+03</rscale>
<asrwt>0</asrwt>
<pdfrwt beam="1">  1        1 0.18291066E+00 0.30000000E+03</pdfrwt>
<pdfrwt beam="2">0</pdfrwt>
<totfact> 0.12367610E+01</totfact>
</mgrwt>
</event>
<event>
 6    1  0.1839160E-004  0.3000000E+03  0.7818608E-02  0.1093470E+00
          1   -1    0    0  502    0  0.00000000000E+00  0.00000000000E+00  0.29474897061E+02  0.29474897061E+02  0.00000000000E+00 0.  1.
         13   -1    0    0    0    0 -0.00000000000E+00 -0.00000000000E+00 -0.10000000000E+04  0.10000000000E+04  0.00000000000E+00 0.  1.
    9000005    2    1    2  501    0  0.34108623625E+01 -0.13049970970E+02 -0.92390743334E+03  0.98094508310E+03  0.32934233701E+03 0.  0.
         13    1    3    3    0    0 -0.13626807222E+01 -0.10651380052E+03 -0.86240600424E+03  0.86895981653E+03  0.00000000000E+00 0.  1.
          3    1    3    3  501    0  0.47735430847E+01  0.93463829547E+02 -0.61501429106E+02  0.11198526657E+03  0.00000000000E+00 0.  1.
         21    1    1    2  502  501 -0.34108623625E+01  0.13049970970E+02 -0.46617669598E+02  0.48529813961E+02  0.00000000000E+00 0. -1.
<mgrwt>
<rscale>  1 0.30000000E+03</rscale>
<asrwt>0</asrwt>
<pdfrwt beam="1">  1        1 0.10718167E+00 0.30000000E+03</pdfrwt>
<pdfrwt beam="2">0</pdfrwt>
<totfact> 0.30891236E+01</totfact>
</mgrwt>
</event>
<event>
 6    1  0.1839160E-004  0.3000000E+03  0.7818608E-02  0.1093470E+00
          1   -1    0    0  502    0  0.00000000000E+00  0.00000000000E+00  0.29848004281E+02  0.29848004281E+02  0.00000000000E+00 0.  1.
         13   -1    0    0    0    0 -0.00000000000E+00 -0.00000000000E+00 -0.10000000000E+04  0.10000000000E+04  0.00000000000E+00 0.  1.
    9000005    2    1    2  501    0 -0.17152168296E+02  0.83778891525E+01 -0.95049436462E+03  0.10024471217E+04  0.31795645739E+03 0.  0.
         13    1    3    3    0    0  0.96425258458E+02 -0.85226953614E+01 -0.83372787266E+02  0.12775558094E+03  0.00000000000E+00 0.  1.
          3    1    3    3  501    0 -0.11357742675E+03  0.16900584514E+02 -0.86712157735E+03  0.87469154079E+03  0.00000000000E+00 0.  1.
         21    1    1    2  502  501  0.17152168296E+02 -0.83778891525E+01 -0.19657631099E+02  0.27400882546E+02  0.00000000000E+00 0. -1.
<mgrwt>
<rscale>  1 0.30000000E+03</rscale>
<asrwt>0</asrwt>
<pdfrwt beam="1">  1        1 0.10853843E+00 0.30000000E+03</pdfrwt>
<pdfrwt beam="2">0</pdfrwt>
<totfact> 0.30314196E+01</totfact>
</mgrwt>
</event>
<event>
 6    1  0.1839160E-004  0.3000000E+03  0.7818608E-02  0.1093470E+00
          1   -1    0    0  502    0  0.00000000000E+00  0.00000000000E+00  0.29474543233E+02  0.29474543233E+02  0.00000000000E+00 0.  1.
         13   -1    0    0    0    0 -0.00000000000E+00 -0.00000000000E+00 -0.10000000000E+04  0.10000000000E+04  0.00000000000E+00 0.  1.
    9000005    2    1    2  501    0  0.99443639823E+01 -0.10183546838E+02 -0.95584572768E+03  0.10090273075E+04  0.32294342731E+03 0.  0.
         13    1    3    3    0    0 -0.20267589187E+02  0.27485534665E+02 -0.95995741785E+03  0.96056466408E+03  0.00000000000E+00 0.  1.
          3    1    3    3  501    0  0.30211953169E+02 -0.37669081503E+02  0.41116901720E+01  0.48462643465E+02  0.00000000000E+00 0.  1.
         21    1    1    2  502  501 -0.99443639823E+01  0.10183546838E+02 -0.14679729087E+02  0.20447235688E+02  0.00000000000E+00 0.  1.
<mgrwt>
<rscale>  1 0.30000000E+03</rscale>
<asrwt>0</asrwt>
<pdfrwt beam="1">  1        1 0.10718038E+00 0.30000000E+03</pdfrwt>
<pdfrwt beam="2">0</pdfrwt>
<totfact> 0.30891790E+01</totfact>
</mgrwt>
</event>
<event>
 6    1  0.1839160E-004  0.3000000E+03  0.7818608E-02  0.1093470E+00
          3   -1    0    0  502    0  0.00000000000E+00  0.00000000000E+00  0.32417876936E+02  0.32417876936E+02  0.00000000000E+00 0.  1.
         13   -1    0    0    0    0 -0.00000000000E+00 -0.00000000000E+00 -0.10000000000E+04  0.10000000000E+04  0.00000000000E+00 0.  1.
    9000005    2    1    2  501    0 -0.40667912067E+02 -0.86113718043E+02 -0.75499337415E+03  0.79947275964E+03  0.24509640326E+03 0.  0.
         13    1    3    3    0    0 -0.11050837041E+03 -0.95809616159E+02 -0.25047096482E+03  0.29004704221E+03  0.00000000000E+00 0.  1.
          1    1    3    3  501    0  0.69840458339E+02  0.96958981155E+01 -0.50452240933E+03  0.50942571743E+03  0.00000000000E+00 0.  1.
         21    1    1    2  502  501  0.40667912067E+02  0.86113718043E+02 -0.21258874891E+03  0.23294511730E+03  0.00000000000E+00 0.  1.
<mgrwt>
<rscale>  1 0.30000000E+03</rscale>
<asrwt>0</asrwt>
<pdfrwt beam="1">  1        3 0.11788344E+00 0.30000000E+03</pdfrwt>
<pdfrwt beam="2">0</pdfrwt>
<totfact> 0.24472316E+00</totfact>
</mgrwt>
</event>
<event>
 6    1  0.1839160E-004  0.3000000E+03  0.7818608E-02  0.1093470E+00
          1   -1    0    0  502    0  0.00000000000E+00  0.00000000000E+00  0.53341604970E+02  0.53341604970E+02  0.00000000000E+00 0.  1.
         13   -1    0    0    0    0 -0.00000000000E+00 -0.00000000000E+00 -0.10000000000E+04  0.10000000000E+04  0.00000000000E+00 0.  1.
    9000005    2    1    2  501    0 -0.39759772823E+02 -0.21777018569E+02 -0.95196970010E+03  0.10076985547E+04  0.32734536694E+03 0.  0.
         13    1    3    3    0    0 -0.21221837564E+02 -0.15997902840E+03 -0.29662316793E+03  0.33768174317E+03  0.00000000000E+00 0.  1.
          1    1    3    3  501    0 -0.18537935259E+02  0.13820200983E+03 -0.65534653217E+03  0.67001681157E+03  0.00000000000E+00 0.  1.
         21    1    1    2  502  501  0.39759772823E+02  0.21777018569E+02  0.53113050655E+01  0.45643050229E+02  0.00000000000E+00 0.  1.
<mgrwt>
<rscale>  1 0.30000000E+03</rscale>
<asrwt>0</asrwt>
<pdfrwt beam="1">  1        1 0.19396988E+00 0.30000000E+03</pdfrwt>
<pdfrwt beam="2">0</pdfrwt>
<totfact> 0.10944049E+01</totfact>
</mgrwt>
</event>
<event>
 6    1  0.1839160E-004  0.3000000E+03  0.7818608E-02  0.1093470E+00
          1   -1    0    0  502    0  0.00000000000E+00  0.00000000000E+00  0.35444846565E+02  0.35444846565E+02  0.00000000000E+00 0.  1.
         13   -1    0    0    0    0 -0.00000000000E+00 -0.00000000000E+00 -0.10000000000E+04  0.10000000000E+04  0.00000000000E+00 0.  1.
    9000005    2    1    2  501    0  0.10533561076E+02 -0.27215888119E+01 -0.96983691790E+03  0.10233510469E+04  0.32641285957E+03 0.  0.
         13    1    3    3    0    0  0.15029251652E+03  0.73595330382E+02 -0.50124944064E+03  0.52844594324E+03  0.00000000000E+00 0.  1.
          1    1    3    3  501    0 -0.13975895544E+03 -0.76316919194E+02 -0.46858747726E+03  0.49490510366E+03  0.00000000000E+00 0.  1.
         21    1    1    2  502  501 -0.10533561076E+02  0.27215888119E+01  0.52817644679E+01  0.12093799672E+02  0.00000000000E+00 0.  1.
<mgrwt>
<rscale>  1 0.30000000E+03</rscale>
<asrwt>0</asrwt>
<pdfrwt beam="1">  1        1 0.12889062E+00 0.30000000E+03</pdfrwt>
<pdfrwt beam="2">0</pdfrwt>
<totfact> 0.23200896E+01</totfact>
</mgrwt>
</event>
<event>
 6    1  0.1839160E-004  0.3000000E+03  0.7818608E-02  0.1093470E+00
          1   -1    0    0  502    0  0.00000000000E+00  0.00000000000E+00  0.36495494070E+02  0.36495494070E+02  0.00000000000E+00 0.  1.
         13   -1    0    0    0    0 -0.00000000000E+00 -0.00000000000E+00 -0.10000000000E+04  0.10000000000E+04  0.00000000000E+00 0.  1.
    9000005    2    1    2  501    0  0.19495682915E+02  0.89807614207E+01 -0.96199364862E+03  0.10149776313E+04  0.32293509618E+03 0.  0.
         13    1    3    3    0    0 -0.54179547708E+02 -0.97169921596E+02 -0.12202567635E+03  0.16512929099E+03  0.00000000000E+00 0.  1.
          1    1    3    3  501    0  0.73675230623E+02  0.10615068302E+03 -0.83996797227E+03  0.84984834032E+03  0.00000000000E+00 0.  1.
         21    1    1    2  502  501 -0.19495682915E+02 -0.89807614207E+01 -0.15108573100E+01  0.21517862761E+02  0.00000000000E+00 0.  1.
<mgrwt>
<rscale>  1 0.30000000E+03</rscale>
<asrwt>0</asrwt>
<pdfrwt beam="1">  1        1 0.13271117E+00 0.30000000E+03</pdfrwt>
<pdfrwt beam="2">0</pdfrwt>
<totfact> 0.22119031E+01</totfact>
</mgrwt>
</event>
<event>
 6    1  0.1839160E-004  0.3000000E+03  0.7818608E-02  0.1093470E+00
          1   -1    0    0  502    0  0.00000000000E+00  0.00000000000E+00  0.21042327891E+02  0.21042327891E+02  0.00000000000E+00 0.  1.
         13   -1    0    0    0    0 -0.00000000000E+00 -0.00000000000E+00 -0.10000000000E+04  0.10000000000E+04  0.00000000000E+00 0.  1.
    9000005    2    1    2  501    0 -0.83696638059E+01 -0.97150030060E+01 -0.95886872478E+03  0.99720961172E+03  0.27355684195E+03 0.  0.
         13    1    3    3    0    0  0.11731180153E+03 -0.63224001542E+02 -0.38883436618E+03  0.41103709987E+03  0.00000000000E+00 0.  1.
          1    1    3    3  501    0 -0.12568146533E+03  0.53508998536E+02 -0.57003435861E+03  0.58617251185E+03  0.00000000000E+00 0.  1.
         21    1    1    2  502  501  0.83696638059E+01  0.97150030060E+01 -0.20088947325E+02  0.23832716174E+02  0.00000000000E+00 0. -1.
<mgrwt>
<rscale>  1 0.30000000E+03</rscale>
<asrwt>0</asrwt>
<pdfrwt beam="1">  1        1 0.76517717E-01 0.30000000E+03</pdfrwt>
<pdfrwt beam="2">0</pdfrwt>
<totfact> 0.49935087E+01</totfact>
</mgrwt>
</event>
<event>
 6    1  0.1839160E-004  0.3000000E+03  0.7818608E-02  0.1093470E+00
          3   -1    0    0  502    0  0.00000000000E+00  0.00000000000E+00  0.25979341092E+02  0.25979341092E+02  0.00000000000E+00 0.  1.
         13   -1    0    0    0    0 -0.00000000000E+00 -0.00000000000E+00 -0.10000000000E+04  0.10000000000E+04  0.00000000000E+00 0.  1.
    9000005    2    1    2  501    0  0.12432824724E+02  0.82448307782E+01 -0.94984128949E+03  0.99756817655E+03  0.30450162443E+03 0.  0.
         13    1    3    3    0    0 -0.63158214898E+02 -0.11267549049E+03 -0.68205644138E+03  0.69417988699E+03  0.00000000000E+00 0.  1.
          1    1    3    3  501    0  0.75591039622E+02  0.12092032127E+03 -0.26778484811E+03  0.30338828957E+03  0.00000000000E+00 0.  1.
         21    1    1    2  502  501 -0.12432824724E+02 -0.82448307782E+01 -0.24179369415E+02  0.28411164540E+02  0.00000000000E+00 0.  1.
<mgrwt>
<rscale>  1 0.30000000E+03</rscale>
<asrwt>0</asrwt>
<pdfrwt beam="1">  1        3 0.94470530E-01 0.30000000E+03</pdfrwt>
<pdfrwt beam="2">0</pdfrwt>
<totfact> 0.45304476E+00</totfact>
</mgrwt>
</event>
<event>
 6    1  0.1839160E-004  0.3000000E+03  0.7818608E-02  0.1093470E+00
          1   -1    0    0  502    0  0.00000000000E+00  0.00000000000E+00  0.51996537035E+02  0.51996537035E+02  0.00000000000E+00 0.  1.
         13   -1    0    0    0    0 -0.00000000000E+00 -0.00000000000E+00 -0.10000000000E+04  0.10000000000E+04  0.00000000000E+00 0.  1.
    9000005    2    1    2  501    0 -0.12613968416E+02  0.83681925920E+01 -0.97198820783E+03  0.10236344702E+04  0.32068257464E+03 0.  0.
         13    1    3    3    0    0  0.11135369936E+03 -0.65375703930E+02 -0.73457224373E+03  0.74583510932E+03  0.00000000000E+00 0.  1.
          1    1    3    3  501    0 -0.12396766777E+03  0.73743896522E+02 -0.23741596409E+03  0.27779936093E+03  0.00000000000E+00 0.  1.
         21    1    1    2  502  501  0.12613968416E+02 -0.83681925920E+01  0.23984744861E+02  0.28362066788E+02  0.00000000000E+00 0. -1.
<mgrwt>
<rscale>  1 0.30000000E+03</rscale>
<asrwt>0</asrwt>
<pdfrwt beam="1">  1        1 0.18907872E+00 0.30000000E+03</pdfrwt>
<pdfrwt beam="2">0</pdfrwt>
<totfact> 0.11551027E+01</totfact>
</mgrwt>
</event>
<event>
 6    1  0.1839160E-004  0.3000000E+03  0.7818608E-02  0.1093470E+00
          3   -1    0    0  502    0  0.00000000000E+00  0.00000000000E+00  0.25785710949E+02  0.25785710949E+02  0.00000000000E+00 0.  1.
         13   -1    0    0    0    0 -0.00000000000E+00 -0.00000000000E+00 -0.10000000000E+04  0.10000000000E+04  0.00000000000E+00 0.  1.
    9000005    2    1    2  501    0 -0.72440625239E+01  0.78391542762E+01 -0.96025423080E+03  0.10082126632E+04  0.30706783883E+03 0.  0.
         13    1    3    3    0    0 -0.15147025946E+03  0.21208001753E+02 -0.36830932164E+03  0.39880418158E+03  0.00000000000E+00 0.  1.
          1    1    3    3  501    0  0.14422619693E+03 -0.13368847477E+02 -0.59194490916E+03  0.60940848160E+03  0.00000000000E+00 0.  1.
         21    1    1    2  502  501  0.72440625239E+01 -0.78391542762E+01 -0.13960058251E+02  0.17573047772E+02  0.00000000000E+00 0.  1.
<mgrwt>
<rscale>  1 0.30000000E+03</rscale>
<asrwt>0</asrwt>
<pdfrwt beam="1">  1        3 0.93766419E-01 0.30000000E+03</pdfrwt>
<pdfrwt beam="2">0</pdfrwt>
<totfact> 0.46156031E+00</totfact>
</mgrwt>
</event>
<event>
 6    1  0.1839160E-004  0.3000000E+03  0.7818608E-02  0.1093470E+00
          1   -1    0    0  502    0  0.00000000000E+00  0.00000000000E+00  0.57342391745E+02  0.57342391745E+02  0.00000000000E+00 0.  1.
         13   -1    0    0    0    0 -0.00000000000E+00 -0.00000000000E+00 -0.10000000000E+04  0.10000000000E+04  0.00000000000E+00 0.  1.
    9000005    2    1    2  501    0 -0.45812314168E+02  0.44509321789E+02 -0.93567292988E+03  0.99308794764E+03  0.32658841404E+03 0.  0.
         13    1    3    3    0    0 -0.64246932346E+02  0.12880548274E+03 -0.87701835597E+03  0.88875177491E+03  0.00000000000E+00 0.  1.
          1    1    3    3  501    0  0.18434618178E+02 -0.84296160954E+02 -0.58654573909E+02  0.10433617273E+03  0.00000000000E+00 0.  1.
         21    1    1    2  502  501  0.45812314168E+02 -0.44509321789E+02 -0.69846783787E+01  0.64254444108E+02  0.00000000000E+00 0.  1.
<mgrwt>
<rscale>  1 0.30000000E+03</rscale>
<asrwt>0</asrwt>
<pdfrwt beam="1">  1        1 0.20851823E+00 0.30000000E+03</pdfrwt>
<pdfrwt beam="2">0</pdfrwt>
<totfact> 0.93342986E+00</totfact>
</mgrwt>
</event>
<event>
 6    1  0.1839160E-004  0.3000000E+03  0.7818608E-02  0.1093470E+00
          3   -1    0    0  502    0  0.00000000000E+00  0.00000000000E+00  0.28952213827E+02  0.28952213827E+02  0.00000000000E+00 0.  1.
         13   -1    0    0    0    0 -0.00000000000E+00 -0.00000000000E+00 -0.10000000000E+04  0.10000000000E+04  0.00000000000E+00 0.  1.
    9000005    2    1    2  501    0  0.84548065124E+01 -0.77783698473E+01 -0.97167666929E+03  0.10174464638E+04  0.30151247103E+03 0.  0.
         13    1    3    3    0    0  0.72967194187E+02 -0.13758847645E+03 -0.46107121439E+03  0.48666360560E+03  0.00000000000E+00 0.  1.
          3    1    3    3  501    0 -0.64512387675E+02  0.12981010661E+03 -0.51060545490E+03  0.53078285816E+03  0.00000000000E+00 0.  1.
         21    1    1    2  502  501 -0.84548065124E+01  0.77783698473E+01  0.62888311449E+00  0.11505750068E+02  0.00000000000E+00 0. -1.
<mgrwt>
<rscale>  1 0.30000000E+03</rscale>
<asrwt>0</asrwt>
<pdfrwt beam="1">  1        3 0.10528100E+00 0.30000000E+03</pdfrwt>
<pdfrwt beam="2">0</pdfrwt>
<totfact> 0.34105855E+00</totfact>
</mgrwt>
</event>
<event>
 6    1  0.1839160E-004  0.3000000E+03  0.7818608E-02  0.1093470E+00
          1   -1    0    0  502    0  0.00000000000E+00  0.00000000000E+00  0.55228959254E+02  0.55228959254E+02  0.00000000000E+00 0.  1.
         13   -1    0    0    0    0 -0.00000000000E+00 -0.00000000000E+00 -0.10000000000E+04  0.10000000000E+04  0.00000000000E+00 0.  1.
    9000005    2    1    2  501    0 -0.72027564902E+01 -0.91914147823E+02 -0.87392782108E+03  0.93895836089E+03  0.33074593989E+03 0.  0.
         13    1    3    3    0    0 -0.10869909767E+03 -0.14965128129E+03 -0.73281829135E+03  0.75580000527E+03  0.00000000000E+00 0.  1.
          1    1    3    3  501    0  0.10149634118E+03  0.57737133466E+02 -0.14110952973E+03  0.18315835563E+03  0.00000000000E+00 0.  1.
         21    1    1    2  502  501  0.72027564902E+01  0.91914147823E+02 -0.70843219664E+02  0.11627059836E+03  0.00000000000E+00 0.  1.
<mgrwt>
<rscale>  1 0.30000000E+03</rscale>
<asrwt>0</asrwt>
<pdfrwt beam="1">  1        1 0.20083300E+00 0.30000000E+03</pdfrwt>
<pdfrwt beam="2">0</pdfrwt>
<totfact> 0.10150464E+01</totfact>
</mgrwt>
</event>
<event>
 6    1  0.1839160E-004  0.3000000E+03  0.7818608E-02  0.1093470E+00
          1   -1    0    0  502    0  0.00000000000E+00  0.00000000000E+00  0.60244371459E+02  0.60244371459E+02  0.00000000000E+00 0.  1.
         13   -1    0    0    0    0 -0.00000000000E+00 -0.00000000000E+00 -0.10000000000E+04  0.10000000000E+04  0.00000000000E+00 0.  1.
    9000005    2    1    2  501    0 -0.19581101120E+02  0.54502595896E+02 -0.93591165493E+03  0.10022036219E+04  0.35373368707E+03 0.  0.
         13    1    3    3    0    0 -0.16290557614E+03 -0.32402571149E+01 -0.24507034798E+03  0.29429271391E+03  0.00000000000E+00 0.  1.
          1    1    3    3  501    0  0.14332447502E+03  0.57742853011E+02 -0.69084130695E+03  0.70791090795E+03  0.00000000000E+00 0.  1.
         21    1    1    2  502  501  0.19581101120E+02 -0.54502595896E+02 -0.38439736140E+01  0.58040749595E+02  0.00000000000E+00 0. -1.
<mgrwt>
<rscale>  1 0.30000000E+03</rscale>
<asrwt>0</asrwt>
<pdfrwt beam="1">  1        1 0.21907090E+00 0.30000000E+03</pdfrwt>
<pdfrwt beam="2">0</pdfrwt>
<totfact> 0.83263803E+00</totfact>
</mgrwt>
</event>
<event>
 6    1  0.1839160E-004  0.3000000E+03  0.7818608E-02  0.1093470E+00
          1   -1    0    0  502    0  0.00000000000E+00  0.00000000000E+00  0.27124282381E+02  0.27124282381E+02  0.00000000000E+00 0.  1.
         13   -1    0    0    0    0 -0.00000000000E+00 -0.00000000000E+00 -0.10000000000E+04  0.10000000000E+04  0.00000000000E+00 0.  1.
    9000005    2    1    2  501    0 -0.80268106711E+01 -0.59025265875E+01 -0.96983527496E+03  0.10167072866E+04  0.30498192824E+03 0.  0.
         13    1    3    3    0    0 -0.51267733319E+02  0.76040440880E+02 -0.88909205584E+03  0.89380938286E+03  0.00000000000E+00 0.  1.
          3    1    3    3  501    0  0.43240922648E+02 -0.81942967468E+02 -0.80743219115E+02  0.12289790373E+03  0.00000000000E+00 0.  1.
         21    1    1    2  502  501  0.80268106711E+01  0.59025265875E+01 -0.30404426622E+01  0.10416995788E+02  0.00000000000E+00 0.  1.
<mgrwt>
<rscale>  1 0.30000000E+03</rscale>
<asrwt>0</asrwt>
<pdfrwt beam="1">  1        1 0.98633962E-01 0.30000000E+03</pdfrwt>
<pdfrwt beam="2">0</pdfrwt>
<totfact> 0.34920759E+01</totfact>
</mgrwt>
</event>
<event>
 6    1  0.1839160E-004  0.3000000E+03  0.7818608E-02  0.1093470E+00
          1   -1    0    0  502    0  0.00000000000E+00  0.00000000000E+00  0.43327289015E+02  0.43327289015E+02  0.00000000000E+00 0.  1.
         13   -1    0    0    0    0 -0.00000000000E+00 -0.00000000000E+00 -0.10000000000E+04  0.10000000000E+04  0.00000000000E+00 0.  1.
    9000005    2    1    2  501    0  0.31439010451E+02 -0.72818113209E+02 -0.84787534616E+03  0.90868793525E+03  0.31706509120E+03 0.  0.
         13    1    3    3    0    0  0.53519418716E+02  0.77764937676E+02 -0.73889443484E+02  0.11988062216E+03  0.00000000000E+00 0.  1.
          1    1    3    3  501    0 -0.22080408265E+02 -0.15058305088E+03 -0.77398590267E+03  0.78880731309E+03  0.00000000000E+00 0.  1.
         21    1    1    2  502  501 -0.31439010451E+02  0.72818113209E+02 -0.10879736483E+03  0.13463935377E+03  0.00000000000E+00 0.  1.
<mgrwt>
<rscale>  1 0.30000000E+03</rscale>
<asrwt>0</asrwt>
<pdfrwt beam="1">  1        1 0.15755411E+00 0.30000000E+03</pdfrwt>
<pdfrwt beam="2">0</pdfrwt>
<totfact> 0.16458204E+01</totfact>
</mgrwt>
</event>
<event>
 6    1  0.1839160E-004  0.3000000E+03  0.7818608E-02  0.1093470E+00
          1   -1    0    0  502    0  0.00000000000E+00  0.00000000000E+00  0.44642059804E+02  0.44642059804E+02  0.00000000000E+00 0.  1.
         13   -1    0    0    0    0 -0.00000000000E+00 -0.00000000000E+00 -0.10000000000E+04  0.10000000000E+04  0.00000000000E+00 0.  1.
    9000005    2    1    2  501    0 -0.11489698647E+02  0.12770098702E+02 -0.96860988966E+03  0.10229463745E+04  0.32851039278E+03 0.  0.
         13    1    3    3    0    0  0.15306664300E+03  0.43323716861E+02 -0.53524681570E+03  0.55838651072E+03  0.00000000000E+00 0.  1.
          3    1    3    3  501    0 -0.16455634165E+03 -0.30553618159E+02 -0.43336307397E+03  0.46455986378E+03  0.00000000000E+00 0.  1.
         21    1    1    2  502  501  0.11489698647E+02 -0.12770098702E+02  0.13251949469E+02  0.21695685299E+02  0.00000000000E+00 0.  1.
<mgrwt>
<rscale>  1 0.30000000E+03</rscale>
<asrwt>0</asrwt>
<pdfrwt beam="1">  1        1 0.16233511E+00 0.30000000E+03</pdfrwt>
<pdfrwt beam="2">0</pdfrwt>
<totfact> 0.15582143E+01</totfact>
</mgrwt>
</event>
<event>
 6    1  0.1839160E-004  0.3000000E+03  0.7818608E-02  0.1093470E+00
          1   -1    0    0  502    0  0.00000000000E+00  0.00000000000E+00  0.31180800063E+02  0.31180800063E+02  0.00000000000E+00 0.  1.
         13   -1    0    0    0    0 -0.00000000000E+00 -0.00000000000E+00 -0.10000000000E+04  0.10000000000E+04  0.00000000000E+00 0.  1.
    9000005    2    1    2  501    0  0.25708307393E+01  0.10995227025E+02 -0.96629216716E+03  0.10196097118E+04  0.32520133453E+03 0.  0.
         13    1    3    3    0    0 -0.12412121308E+03  0.87444842081E+02 -0.68660138480E+03  0.70318855050E+03  0.00000000000E+00 0.  1.
          3    1    3    3  501    0  0.12669204382E+03 -0.76449615056E+02 -0.27969078235E+03  0.31642116134E+03  0.00000000000E+00 0.  1.
         21    1    1    2  502  501 -0.25708307393E+01 -0.10995227025E+02 -0.25270327797E+01  0.11571088224E+02  0.00000000000E+00 0.  1.
<mgrwt>
<rscale>  1 0.30000000E+03</rscale>
<asrwt>0</asrwt>
<pdfrwt beam="1">  1        1 0.11338497E+00 0.30000000E+03</pdfrwt>
<pdfrwt beam="2">0</pdfrwt>
<totfact> 0.28373625E+01</totfact>
</mgrwt>
</event>
<event>
 6    1  0.1839160E-004  0.3000000E+03  0.7818608E-02  0.1093470E+00
          1   -1    0    0  502    0  0.00000000000E+00  0.00000000000E+00  0.33226760843E+02  0.33226760843E+02  0.00000000000E+00 0.  1.
         13   -1    0    0    0    0 -0.00000000000E+00 -0.00000000000E+00 -0.10000000000E+04  0.10000000000E+04  0.00000000000E+00 0.  1.
    9000005    2    1    2  501    0 -0.15206121716E+02 -0.88337647385E+01 -0.96125822908E+03  0.10147964360E+04  0.32478479343E+03 0.  0.
         13    1    3    3    0    0  0.13429341888E+03 -0.75853756394E+02 -0.57281245470E+03  0.59321380882E+03  0.00000000000E+00 0.  1.
          3    1    3    3  501    0 -0.14949954060E+03  0.67019991656E+02 -0.38844577437E+03  0.42158262719E+03  0.00000000000E+00 0.  1.
         21    1    1    2  502  501  0.15206121716E+02  0.88337647385E+01 -0.55150100805E+01  0.18430324828E+02  0.00000000000E+00 0.  1.
<mgrwt>
<rscale>  1 0.30000000E+03</rscale>
<asrwt>0</asrwt>
<pdfrwt beam="1">  1        1 0.12082484E+00 0.30000000E+03</pdfrwt>
<pdfrwt beam="2">0</pdfrwt>
<totfact> 0.25718847E+01</totfact>
</mgrwt>
</event>
<event>
 6    1  0.1839160E-004  0.3000000E+03  0.7818608E-02  0.1093470E+00
          1   -1    0    0  502    0  0.00000000000E+00  0.00000000000E+00  0.29717003773E+02  0.29717003773E+02  0.00000000000E+00 0.  1.
         13   -1    0    0    0    0 -0.00000000000E+00 -0.00000000000E+00 -0.10000000000E+04  0.10000000000E+04  0.00000000000E+00 0.  1.
    9000005    2    1    2  501    0  0.40190104345E+00  0.92906292742E+01 -0.92278917822E+03  0.98132134214E+03  0.33371429662E+03 0.  0.
         13    1    3    3    0    0  0.16565025878E+03 -0.14158427175E+02 -0.42906448442E+03  0.46014867280E+03  0.00000000000E+00 0.  1.
          3    1    3    3  501    0 -0.16524835774E+03  0.23449056449E+02 -0.49372469381E+03  0.52117266933E+03  0.00000000000E+00 0.  1.
         21    1    1    2  502  501 -0.40190104345E+00 -0.92906292742E+01 -0.47493818004E+02  0.48395661638E+02  0.00000000000E+00 0. -1.
<mgrwt>
<rscale>  1 0.30000000E+03</rscale>
<asrwt>0</asrwt>
<pdfrwt beam="1">  1        1 0.10806206E+00 0.30000000E+03</pdfrwt>
<pdfrwt beam="2">0</pdfrwt>
<totfact> 0.30515028E+01</totfact>
</mgrwt>
</event>
<event>
 6    1  0.1839160E-004  0.3000000E+03  0.7818608E-02  0.1093470E+00
          1   -1    0    0  502    0  0.00000000000E+00  0.00000000000E+00  0.36616702911E+02  0.36616702911E+02  0.00000000000E+00 0.  1.
         13   -1    0    0    0    0 -0.00000000000E+00 -0.00000000000E+00 -0.10000000000E+04  0.10000000000E+04  0.00000000000E+00 0.  1.
    9000005    2    1    2  501    0 -0.74662523331E+00  0.24864070009E+02 -0.95921333069E+03  0.10113943310E+04  0.31970220443E+03 0.  0.
         13    1    3    3    0    0 -0.59818714047E+02  0.20611070885E+02 -0.14608414571E+02  0.64934586852E+02  0.00000000000E+00 0.  1.
          1    1    3    3  501    0  0.59072088814E+02  0.42529991235E+01 -0.94460491612E+03  0.94645974412E+03  0.00000000000E+00 0.  1.
         21    1    1    2  502  501  0.74662523331E+00 -0.24864070009E+02 -0.41699663993E+01  0.25222371942E+02  0.00000000000E+00 0.  1.
<mgrwt>
<rscale>  1 0.30000000E+03</rscale>
<asrwt>0</asrwt>
<pdfrwt beam="1">  1        1 0.13315193E+00 0.30000000E+03</pdfrwt>
<pdfrwt beam="2">0</pdfrwt>
<totfact> 0.21998506E+01</totfact>
</mgrwt>
</event>
<event>
 6    1  0.1839160E-004  0.3000000E+03  0.7818608E-02  0.1093470E+00
          1   -1    0    0  502    0  0.00000000000E+00  0.00000000000E+00  0.55501208492E+02  0.55501208492E+02  0.00000000000E+00 0.  1.
         13   -1    0    0    0    0 -0.00000000000E+00 -0.00000000000E+00 -0.10000000000E+04  0.10000000000E+04  0.00000000000E+00 0.  1.
    9000005    2    1    2  501    0 -0.10986326372E+02  0.39114851866E+02 -0.94902521810E+03  0.10146213902E+04  0.35659084383E+03 0.  0.
         13    1    3    3    0    0  0.10640465342E+03 -0.11064445189E+03 -0.28306402034E+03  0.32200836109E+03  0.00000000000E+00 0.  1.
          3    1    3    3  501    0 -0.11739097979E+03  0.14975930375E+03 -0.66596119777E+03  0.69261302914E+03  0.00000000000E+00 0.  1.
         21    1    1    2  502  501  0.10986326372E+02 -0.39114851866E+02  0.45264265970E+01  0.40879818265E+02  0.00000000000E+00 0.  1.
<mgrwt>
<rscale>  1 0.30000000E+03</rscale>
<asrwt>0</asrwt>
<pdfrwt beam="1">  1        1 0.20182300E+00 0.30000000E+03</pdfrwt>
<pdfrwt beam="2">0</pdfrwt>
<totfact> 0.10041152E+01</totfact>
</mgrwt>
</event>
<event>
 6    1  0.1839160E-004  0.3000000E+03  0.7818608E-02  0.1093470E+00
          1   -1    0    0  502    0  0.00000000000E+00  0.00000000000E+00  0.49462770275E+02  0.49462770275E+02  0.00000000000E+00 0.  1.
         13   -1    0    0    0    0 -0.00000000000E+00 -0.00000000000E+00 -0.10000000000E+04  0.10000000000E+04  0.00000000000E+00 0.  1.
    9000005    2    1    2  501    0  0.45534168613E+01 -0.77363598151E+02 -0.88812289362E+03  0.94995694494E+03  0.32810069056E+03 0.  0.
         13    1    3    3    0    0  0.54523757173E+02 -0.35976221543E+02 -0.61627514898E+01  0.65613322722E+02  0.00000000000E+00 0.  1.
          1    1    3    3  501    0 -0.49970340311E+02 -0.41387376608E+02 -0.88196014213E+03  0.88434362222E+03  0.00000000000E+00 0.  1.
         21    1    1    2  502  501 -0.45534168613E+01  0.77363598151E+02 -0.62414336109E+02  0.99505825337E+02  0.00000000000E+00 0.  1.
<mgrwt>
<rscale>  1 0.30000000E+03</rscale>
<asrwt>0</asrwt>
<pdfrwt beam="1">  1        1 0.17986500E+00 0.30000000E+03</pdfrwt>
<pdfrwt beam="2">0</pdfrwt>
<totfact> 0.12793673E+01</totfact>
</mgrwt>
</event>
<event>
 6    1  0.1839160E-004  0.3000000E+03  0.7818608E-02  0.1093470E+00
          1   -1    0    0  502    0  0.00000000000E+00  0.00000000000E+00  0.39510880336E+02  0.39510880336E+02  0.00000000000E+00 0.  1.
         13   -1    0    0    0    0 -0.00000000000E+00 -0.00000000000E+00 -0.10000000000E+04  0.10000000000E+04  0.00000000000E+00 0.  1.
    9000005    2    1    2  501    0  0.22365316463E+01 -0.71280635432E+02 -0.81627116386E+03  0.87862349787E+03  0.31716668645E+03 0.  0.
         13    1    3    3    0    0  0.31877117458E+02  0.79370080431E+02 -0.63644676204E+03  0.64216839006E+03  0.00000000000E+00 0.  1.
          1    1    3    3  501    0 -0.29640585812E+02 -0.15065071586E+03 -0.17982440182E+03  0.23645510781E+03  0.00000000000E+00 0.  1.
         21    1    1    2  502  501 -0.22365316463E+01  0.71280635432E+02 -0.14421795580E+03  0.16088738247E+03  0.00000000000E+00 0. -1.
<mgrwt>
<rscale>  1 0.30000000E+03</rscale>
<asrwt>0</asrwt>
<pdfrwt beam="1">  1        1 0.14367623E+00 0.30000000E+03</pdfrwt>
<pdfrwt beam="2">0</pdfrwt>
<totfact> 0.19358943E+01</totfact>
</mgrwt>
</event>
<event>
 6    1  0.1839160E-004  0.3000000E+03  0.7818608E-02  0.1093470E+00
          1   -1    0    0  502    0  0.00000000000E+00  0.00000000000E+00  0.27665025311E+02  0.27665025311E+02  0.00000000000E+00 0.  1.
         13   -1    0    0    0    0 -0.00000000000E+00 -0.00000000000E+00 -0.10000000000E+04  0.10000000000E+04  0.00000000000E+00 0.  1.
    9000005    2    1    2  501    0  0.68040708429E+01  0.78464577459E+01 -0.96004137067E+03  0.10115717044E+04  0.31857497925E+03 0.  0.
         13    1    3    3    0    0 -0.89834719321E+02 -0.11229167323E+03 -0.64485319429E+03  0.66069307462E+03  0.00000000000E+00 0.  1.
          3    1    3    3  501    0  0.96638790164E+02  0.12013813098E+03 -0.31518817638E+03  0.35087862975E+03  0.00000000000E+00 0.  1.
         21    1    1    2  502  501 -0.68040708429E+01 -0.78464577459E+01 -0.12293604019E+02  0.16093320943E+02  0.00000000000E+00 0. -1.
<mgrwt>
<rscale>  1 0.30000000E+03</rscale>
<asrwt>0</asrwt>
<pdfrwt beam="1">  1        1 0.10060030E+00 0.30000000E+03</pdfrwt>
<pdfrwt beam="2">0</pdfrwt>
<totfact> 0.33928465E+01</totfact>
</mgrwt>
</event>
<event>
 6    1  0.1839160E-004  0.3000000E+03  0.7818608E-02  0.1093470E+00
          1   -1    0    0  502    0  0.00000000000E+00  0.00000000000E+00  0.27099886873E+02  0.27099886873E+02  0.00000000000E+00 0.  1.
         13   -1    0    0    0    0 -0.00000000000E+00 -0.00000000000E+00 -0.10000000000E+04  0.10000000000E+04  0.00000000000E+00 0.  1.
    9000005    2    1    2  501    0 -0.10165944559E+02 -0.80005489864E+01 -0.96331803759E+03  0.10110010862E+04  0.30655211540E+03 0.  0.
         13    1    3    3    0    0  0.14426943884E+02  0.12678410866E+03 -0.72468269560E+03  0.73583106500E+03  0.00000000000E+00 0.  1.
          1    1    3    3  501    0 -0.24592888443E+02 -0.13478465764E+03 -0.23863534198E+03  0.27517002115E+03  0.00000000000E+00 0.  1.
         21    1    1    2  502  501  0.10165944559E+02  0.80005489864E+01 -0.95820755410E+01  0.16098800717E+02  0.00000000000E+00 0. -1.
<mgrwt>
<rscale>  1 0.30000000E+03</rscale>
<asrwt>0</asrwt>
<pdfrwt beam="1">  1        1 0.98545251E-01 0.30000000E+03</pdfrwt>
<pdfrwt beam="2">0</pdfrwt>
<totfact> 0.34966531E+01</totfact>
</mgrwt>
</event>
<event>
 6    1  0.1839160E-004  0.3000000E+03  0.7818608E-02  0.1093470E+00
          3   -1    0    0  502    0  0.00000000000E+00  0.00000000000E+00  0.31390296788E+02  0.31390296788E+02  0.00000000000E+00 0.  1.
         13   -1    0    0    0    0 -0.00000000000E+00 -0.00000000000E+00 -0.10000000000E+04  0.10000000000E+04  0.00000000000E+00 0.  1.
    9000005    2    1    2  501    0 -0.14949279214E+02 -0.20202984217E+01 -0.96174484430E+03  0.10148165572E+04  0.32353042633E+03 0.  0.
         13    1    3    3    0    0  0.12146843644E+03  0.87214138489E+02 -0.32861579627E+03  0.36103909561E+03  0.00000000000E+00 0.  1.
          1    1    3    3  501    0 -0.13641771565E+03 -0.89234436910E+02 -0.63312904803E+03  0.65377746163E+03  0.00000000000E+00 0.  1.
         21    1    1    2  502  501  0.14949279214E+02  0.20202984217E+01 -0.68648589138E+01  0.16573739549E+02  0.00000000000E+00 0.  1.
<mgrwt>
<rscale>  1 0.30000000E+03</rscale>
<asrwt>0</asrwt>
<pdfrwt beam="1">  1        3 0.11414677E+00 0.30000000E+03</pdfrwt>
<pdfrwt beam="2">0</pdfrwt>
<totfact> 0.27021736E+00</totfact>
</mgrwt>
</event>
<event>
 6    1  0.1839160E-004  0.3000000E+03  0.7818608E-02  0.1093470E+00
          1   -1    0    0  502    0  0.00000000000E+00  0.00000000000E+00  0.29954700975E+02  0.29954700975E+02  0.00000000000E+00 0.  1.
         13   -1    0    0    0    0 -0.00000000000E+00 -0.00000000000E+00 -0.10000000000E+04  0.10000000000E+04  0.00000000000E+00 0.  1.
    9000005    2    1    2  501    0 -0.39895339593E+01  0.15362782882E+02 -0.90997451987E+03  0.96782234235E+03  0.32920286766E+03 0.  0.
         13    1    3    3    0    0 -0.51609663953E+02 -0.14614365745E+03 -0.34338700577E+03  0.37674415956E+03  0.00000000000E+00 0.  1.
          1    1    3    3  501    0  0.47620129993E+02  0.16150644034E+03 -0.56658751410E+03  0.59107818280E+03  0.00000000000E+00 0.  1.
         21    1    1    2  502  501  0.39895339593E+01 -0.15362782882E+02 -0.60070779158E+02  0.62132358620E+02  0.00000000000E+00 0. -1.
<mgrwt>
<rscale>  1 0.30000000E+03</rscale>
<asrwt>0</asrwt>
<pdfrwt beam="1">  1        1 0.10892642E+00 0.30000000E+03</pdfrwt>
<pdfrwt beam="2">0</pdfrwt>
<totfact> 0.30152015E+01</totfact>
</mgrwt>
</event>
<event>
 6    1  0.1839160E-004  0.3000000E+03  0.7818608E-02  0.1093470E+00
          1   -1    0    0  502    0  0.00000000000E+00  0.00000000000E+00  0.39816385482E+02  0.39816385482E+02  0.00000000000E+00 0.  1.
         13   -1    0    0    0    0 -0.00000000000E+00 -0.00000000000E+00 -0.10000000000E+04  0.10000000000E+04  0.00000000000E+00 0.  1.
    9000005    2    1    2  501    0  0.31157847167E+02  0.45254655826E+02 -0.89566913031E+03  0.95507611179E+03  0.32699907185E+03 0.  0.
         13    1    3    3    0    0 -0.85672827992E+02 -0.83308660045E+02 -0.60305378470E+03  0.61477966259E+03  0.00000000000E+00 0.  1.
          3    1    3    3  501    0  0.11683067516E+03  0.12856331587E+03 -0.29261534561E+03  0.34029644919E+03  0.00000000000E+00 0.  1.
         21    1    1    2  502  501 -0.31157847167E+02 -0.45254655826E+02 -0.64514484205E+02  0.84740273697E+02  0.00000000000E+00 0.  1.
<mgrwt>
<rscale>  1 0.30000000E+03</rscale>
<asrwt>0</asrwt>
<pdfrwt beam="1">  1        1 0.14478716E+00 0.30000000E+03</pdfrwt>
<pdfrwt beam="2">0</pdfrwt>
<totfact> 0.19104466E+01</totfact>
</mgrwt>
</event>
<event>
 6    1  0.1839160E-004  0.3000000E+03  0.7818608E-02  0.1093470E+00
          1   -1    0    0  502    0  0.00000000000E+00  0.00000000000E+00  0.33587635479E+02  0.33587635479E+02  0.00000000000E+00 0.  1.
         13   -1    0    0    0    0 -0.00000000000E+00 -0.00000000000E+00 -0.10000000000E+04  0.10000000000E+04  0.00000000000E+00 0.  1.
    9000005    2    1    2  501    0 -0.64880850752E+01 -0.10134907058E+02 -0.96819866696E+03  0.10214220091E+04  0.32519140573E+03 0.  0.
         13    1    3    3    0    0  0.15905955526E+03  0.40782864135E+01 -0.48889050141E+03  0.51413081692E+03  0.00000000000E+00 0.  1.
          1    1    3    3  501    0 -0.16554764033E+03 -0.14213193471E+02 -0.47930816555E+03  0.50729119217E+03  0.00000000000E+00 0.  1.
         21    1    1    2  502  501  0.64880850752E+01  0.10134907058E+02  0.17863024394E+01  0.12165626388E+02  0.00000000000E+00 0. -1.
<mgrwt>
<rscale>  1 0.30000000E+03</rscale>
<asrwt>0</asrwt>
<pdfrwt beam="1">  1        1 0.12213711E+00 0.30000000E+03</pdfrwt>
<pdfrwt beam="2">0</pdfrwt>
<totfact> 0.25285912E+01</totfact>
</mgrwt>
</event>
<event>
 6    1  0.1839160E-004  0.3000000E+03  0.7818608E-02  0.1093470E+00
          1   -1    0    0  502    0  0.00000000000E+00  0.00000000000E+00  0.29033853283E+02  0.29033853283E+02  0.00000000000E+00 0.  1.
         13   -1    0    0    0    0 -0.00000000000E+00 -0.00000000000E+00 -0.10000000000E+04  0.10000000000E+04  0.00000000000E+00 0.  1.
    9000005    2    1    2  501    0 -0.15677819312E+02  0.17623427410E+02 -0.90570349189E+03  0.95963937708E+03  0.31631082753E+03 0.  0.
         13    1    3    3    0    0  0.96010731923E+02  0.11469459382E+03 -0.62119380113E+03  0.63894808010E+03  0.00000000000E+00 0.  1.
          3    1    3    3  501    0 -0.11168855124E+03 -0.97071166413E+02 -0.28450969075E+03  0.32069129698E+03  0.00000000000E+00 0.  1.
         21    1    1    2  502  501  0.15677819312E+02 -0.17623427410E+02 -0.65262654830E+02  0.69394476203E+02  0.00000000000E+00 0. -1.
<mgrwt>
<rscale>  1 0.30000000E+03</rscale>
<asrwt>0</asrwt>
<pdfrwt beam="1">  1        1 0.10557787E+00 0.30000000E+03</pdfrwt>
<pdfrwt beam="2">0</pdfrwt>
<totfact> 0.31593896E+01</totfact>
</mgrwt>
</event>
<event>
 6    1  0.1839160E-004  0.3000000E+03  0.7818608E-02  0.1093470E+00
          1   -1    0    0  502    0  0.00000000000E+00  0.00000000000E+00  0.32311204197E+02  0.32311204197E+02  0.00000000000E+00 0.  1.
         13   -1    0    0    0    0 -0.00000000000E+00 -0.00000000000E+00 -0.10000000000E+04  0.10000000000E+04  0.00000000000E+00 0.  1.
    9000005    2    1    2  501    0 -0.75825623114E+01  0.12796050737E+02 -0.96307562327E+03  0.10167382942E+04  0.32560845895E+03 0.  0.
         13    1    3    3    0    0  0.86683463182E+02  0.12118966722E+03 -0.26481992147E+03  0.30385942315E+03  0.00000000000E+00 0.  1.
          3    1    3    3  501    0 -0.94266025493E+02 -0.10839361648E+03 -0.69825570181E+03  0.71287887103E+03  0.00000000000E+00 0.  1.
         21    1    1    2  502  501  0.75825623114E+01 -0.12796050737E+02 -0.46131725279E+01  0.15572910019E+02  0.00000000000E+00 0.  1.
<mgrwt>
<rscale>  1 0.30000000E+03</rscale>
<asrwt>0</asrwt>
<pdfrwt beam="1">  1        1 0.11749554E+00 0.30000000E+03</pdfrwt>
<pdfrwt beam="2">0</pdfrwt>
<totfact> 0.26862668E+01</totfact>
</mgrwt>
</event>
<event>
 6    1  0.1839160E-004  0.3000000E+03  0.7818608E-02  0.1093470E+00
          1   -1    0    0  502    0  0.00000000000E+00  0.00000000000E+00  0.29232714291E+02  0.29232714291E+02  0.00000000000E+00 0.  1.
         13   -1    0    0    0    0 -0.00000000000E+00 -0.00000000000E+00 -0.10000000000E+04  0.10000000000E+04  0.00000000000E+00 0.  1.
    9000005    2    1    2  501    0  0.99376060979E+01 -0.74031667863E+01 -0.96421474199E+03  0.10152149141E+04  0.31748651974E+03 0.  0.
         13    1    3    3    0    0  0.16223984992E+03  0.26660504087E+01 -0.56417372758E+03  0.58704418200E+03  0.00000000000E+00 0.  1.
          3    1    3    3  501    0 -0.15230224382E+03 -0.10069217195E+02 -0.40004101441E+03  0.42817073209E+03  0.00000000000E+00 0.  1.
         21    1    1    2  502  501 -0.99376060979E+01  0.74031667863E+01 -0.65525437209E+01  0.14017800207E+02  0.00000000000E+00 0.  1.
<mgrwt>
<rscale>  1 0.30000000E+03</rscale>
<asrwt>0</asrwt>
<pdfrwt beam="1">  1        1 0.10630100E+00 0.30000000E+03</pdfrwt>
<pdfrwt beam="2">0</pdfrwt>
<totfact> 0.31274257E+01</totfact>
</mgrwt>
</event>
<event>
 6    1  0.1839160E-004  0.3000000E+03  0.7818608E-02  0.1093470E+00
          1   -1    0    0  502    0  0.00000000000E+00  0.00000000000E+00  0.49933427005E+02  0.49933427005E+02  0.00000000000E+00 0.  1.
         13   -1    0    0    0    0 -0.00000000000E+00 -0.00000000000E+00 -0.10000000000E+04  0.10000000000E+04  0.00000000000E+00 0.  1.
    9000005    2    1    2  501    0 -0.91588324976E+02 -0.33065216806E+02 -0.82560826406E+03  0.89190937663E+03  0.32309689042E+03 0.  0.
         13    1    3    3    0    0  0.24927353354E+02 -0.11097477510E+03 -0.68132671398E+03  0.69075528578E+03  0.00000000000E+00 0.  1.
          1    1    3    3  501    0 -0.11651567833E+03  0.77909558297E+02 -0.14428155008E+03  0.20115409085E+03  0.00000000000E+00 0.  1.
         21    1    1    2  502  501  0.91588324976E+02  0.33065216806E+02 -0.12445830894E+03  0.15802405038E+03  0.00000000000E+00 0.  1.
<mgrwt>
<rscale>  1 0.30000000E+03</rscale>
<asrwt>0</asrwt>
<pdfrwt beam="1">  1        1 0.18157648E+00 0.30000000E+03</pdfrwt>
<pdfrwt beam="2">0</pdfrwt>
<totfact> 0.12552301E+01</totfact>
</mgrwt>
</event>
<event>
 6    1  0.1839160E-004  0.3000000E+03  0.7818608E-02  0.1093470E+00
          3   -1    0    0  502    0  0.00000000000E+00  0.00000000000E+00  0.23373537865E+02  0.23373537865E+02  0.00000000000E+00 0.  1.
         13   -1    0    0    0    0 -0.00000000000E+00 -0.00000000000E+00 -0.10000000000E+04  0.10000000000E+04  0.00000000000E+00 0.  1.
    9000005    2    1    2  501    0 -0.15520536724E+01  0.11479741693E+02 -0.97514987130E+03  0.10116956245E+04  0.26921473178E+03 0.  0.
         13    1    3    3    0    0  0.93077040410E+02  0.52563249145E+02 -0.17602484670E+03  0.20593925626E+03  0.00000000000E+00 0.  1.
          1    1    3    3  501    0 -0.94629094083E+02 -0.41083507451E+02 -0.79912502460E+03  0.80575636825E+03  0.00000000000E+00 0.  1.
         21    1    1    2  502  501  0.15520536724E+01 -0.11479741693E+02 -0.14765908357E+01  0.11677913360E+02  0.00000000000E+00 0.  1.
<mgrwt>
<rscale>  1 0.30000000E+03</rscale>
<asrwt>0</asrwt>
<pdfrwt beam="1">  1        3 0.84994862E-01 0.30000000E+03</pdfrwt>
<pdfrwt beam="2">0</pdfrwt>
<totfact> 0.58399720E+00</totfact>
</mgrwt>
</event>
<event>
 6    1  0.1839160E-004  0.3000000E+03  0.7818608E-02  0.1093470E+00
          1   -1    0    0  502    0  0.00000000000E+00  0.00000000000E+00  0.81868388456E+02  0.81868388456E+02  0.00000000000E+00 0.  1.
         13   -1    0    0    0    0 -0.00000000000E+00 -0.00000000000E+00 -0.10000000000E+04  0.10000000000E+04  0.00000000000E+00 0.  1.
    9000005    2    1    2  501    0  0.91723955732E+01 -0.13070613870E+02 -0.97341612691E+03  0.10243240453E+04  0.31850560422E+03 0.  0.
         13    1    3    3    0    0  0.11606788026E+03  0.85572964359E+02 -0.27071298873E+03  0.30672464414E+03  0.00000000000E+00 0.  1.
          1    1    3    3  501    0 -0.10689548469E+03 -0.98643578229E+02 -0.70270313818E+03  0.71759940118E+03  0.00000000000E+00 0.  1.
         21    1    1    2  502  501 -0.91723955732E+01  0.13070613870E+02  0.55284515363E+02  0.57544343131E+02  0.00000000000E+00 0.  1.
<mgrwt>
<rscale>  1 0.30000000E+03</rscale>
<asrwt>0</asrwt>
<pdfrwt beam="1">  1        1 0.29770386E+00 0.30000000E+03</pdfrwt>
<pdfrwt beam="2">0</pdfrwt>
<totfact> 0.35625781E+00</totfact>
</mgrwt>
</event>
<event>
 6    1  0.1839160E-004  0.3000000E+03  0.7818608E-02  0.1093470E+00
          1   -1    0    0  502    0  0.00000000000E+00  0.00000000000E+00  0.46313530438E+02  0.46313530438E+02  0.00000000000E+00 0.  1.
         13   -1    0    0    0    0 -0.00000000000E+00 -0.00000000000E+00 -0.10000000000E+04  0.10000000000E+04  0.00000000000E+00 0.  1.
    9000005    2    1    2  501    0  0.72810604590E+02  0.60809760601E+02 -0.77767781734E+03  0.84636789587E+03  0.32024461971E+03 0.  0.
         13    1    3    3    0    0 -0.44409636262E+02 -0.71700101511E+02 -0.51212063881E+02  0.98670136498E+02  0.00000000000E+00 0.  1.
          1    1    3    3  501    0  0.11722024085E+03  0.13250986211E+03 -0.72646575346E+03  0.74769775937E+03  0.00000000000E+00 0.  1.
         21    1    1    2  502  501 -0.72810604590E+02 -0.60809760601E+02 -0.17600865222E+03  0.19994563457E+03  0.00000000000E+00 0.  1.
<mgrwt>
<rscale>  1 0.30000000E+03</rscale>
<asrwt>0</asrwt>
<pdfrwt beam="1">  1        1 0.16841319E+00 0.30000000E+03</pdfrwt>
<pdfrwt beam="2">0</pdfrwt>
<totfact> 0.14544912E+01</totfact>
</mgrwt>
</event>
<event>
 6    1  0.1839160E-004  0.3000000E+03  0.7818608E-02  0.1093470E+00
          1   -1    0    0  502    0  0.00000000000E+00  0.00000000000E+00  0.31848501308E+02  0.31848501308E+02  0.00000000000E+00 0.  1.
         13   -1    0    0    0    0 -0.00000000000E+00 -0.00000000000E+00 -0.10000000000E+04  0.10000000000E+04  0.00000000000E+00 0.  1.
    9000005    2    1    2  501    0 -0.26222301315E+00  0.32228166340E+02 -0.89343990024E+03  0.95048176112E+03  0.32271039556E+03 0.  0.
         13    1    3    3    0    0 -0.32822976199E+02 -0.30597802843E+02  0.85840007944E+01  0.45686522903E+02  0.00000000000E+00 0.  1.
          3    1    3    3  501    0  0.32560753186E+02  0.62825969183E+02 -0.90202390104E+03  0.90479523821E+03  0.00000000000E+00 0.  1.
         21    1    1    2  502  501  0.26222301315E+00 -0.32228166340E+02 -0.74711598448E+02  0.81366740191E+02  0.00000000000E+00 0. -1.
<mgrwt>
<rscale>  1 0.30000000E+03</rscale>
<asrwt>0</asrwt>
<pdfrwt beam="1">  1        1 0.11581298E+00 0.30000000E+03</pdfrwt>
<pdfrwt beam="2">0</pdfrwt>
<totfact> 0.27467232E+01</totfact>
</mgrwt>
</event>
<event>
 6    1  0.1839160E-004  0.3000000E+03  0.7818608E-02  0.1093470E+00
          1   -1    0    0  502    0  0.00000000000E+00  0.00000000000E+00  0.35312470841E+02  0.35312470841E+02  0.00000000000E+00 0.  1.
         13   -1    0    0    0    0 -0.00000000000E+00 -0.00000000000E+00 -0.10000000000E+04  0.10000000000E+04  0.00000000000E+00 0.  1.
    9000005    2    1    2  501    0 -0.33111504669E+02 -0.18864819443E+02 -0.89827967301E+03  0.95874709673E+03  0.33292247055E+03 0.  0.
         13    1    3    3    0    0 -0.14848310057E+02  0.57966995219E+02 -0.29182013625E+01  0.59909604785E+02  0.00000000000E+00 0.  1.
          3    1    3    3  501    0 -0.18263194611E+02 -0.76831814662E+02 -0.89536147165E+03  0.89883749195E+03  0.00000000000E+00 0.  1.
         21    1    1    2  502  501  0.33111504669E+02  0.18864819443E+02 -0.66407856147E+02  0.76565374107E+02  0.00000000000E+00 0.  1.
<mgrwt>
<rscale>  1 0.30000000E+03</rscale>
<asrwt>0</asrwt>
<pdfrwt beam="1">  1        1 0.12840926E+00 0.30000000E+03</pdfrwt>
<pdfrwt beam="2">0</pdfrwt>
<totfact> 0.23342046E+01</totfact>
</mgrwt>
</event>
<event>
 6    1  0.1839160E-004  0.3000000E+03  0.7818608E-02  0.1093470E+00
          1   -1    0    0  502    0  0.00000000000E+00  0.00000000000E+00  0.40865178618E+02  0.40865178618E+02  0.00000000000E+00 0.  1.
         13   -1    0    0    0    0 -0.00000000000E+00 -0.00000000000E+00 -0.10000000000E+04  0.10000000000E+04  0.00000000000E+00 0.  1.
    9000005    2    1    2  501    0 -0.28013055968E+02 -0.78559923772E+01 -0.95846218083E+03  0.10117636260E+04  0.32275290060E+03 0.  0.
         13    1    3    3    0    0 -0.14463336779E+03  0.89634819023E+02 -0.45126806108E+03  0.48228215269E+03  0.00000000000E+00 0.  1.
          1    1    3    3  501    0  0.11662031182E+03 -0.97490811401E+02 -0.50719411975E+03  0.52948147328E+03  0.00000000000E+00 0.  1.
         21    1    1    2  502  501  0.28013055968E+02  0.78559923772E+01 -0.67264055098E+00  0.29101552643E+02  0.00000000000E+00 0.  1.
<mgrwt>
<rscale>  1 0.30000000E+03</rscale>
<asrwt>0</asrwt>
<pdfrwt beam="1">  1        1 0.14860096E+00 0.30000000E+03</pdfrwt>
<pdfrwt beam="2">0</pdfrwt>
<totfact> 0.18262240E+01</totfact>
</mgrwt>
</event>
<event>
 6    1  0.1839160E-004  0.3000000E+03  0.7818608E-02  0.1093470E+00
          1   -1    0    0  502    0  0.00000000000E+00  0.00000000000E+00  0.28956944743E+02  0.28956944743E+02  0.00000000000E+00 0.  1.
         13   -1    0    0    0    0 -0.00000000000E+00 -0.00000000000E+00 -0.10000000000E+04  0.10000000000E+04  0.00000000000E+00 0.  1.
    9000005    2    1    2  501    0  0.91865854853E+01  0.10606635858E+02 -0.95546316095E+03  0.10079896563E+04  0.32083703222E+03 0.  0.
         13    1    3    3    0    0 -0.23582005905E+02 -0.43714857726E+02  0.74880133058E+00  0.49675552256E+02  0.00000000000E+00 0.  1.
          3    1    3    3  501    0  0.32768591390E+02  0.54321493583E+02 -0.95621196228E+03  0.95831410407E+03  0.00000000000E+00 0.  1.
         21    1    1    2  502  501 -0.91865854853E+01 -0.10606635858E+02 -0.15579894310E+02  0.20967288422E+02  0.00000000000E+00 0.  1.
<mgrwt>
<rscale>  1 0.30000000E+03</rscale>
<asrwt>0</asrwt>
<pdfrwt beam="1">  1        1 0.10529820E+00 0.30000000E+03</pdfrwt>
<pdfrwt beam="2">0</pdfrwt>
<totfact> 0.31718779E+01</totfact>
</mgrwt>
</event>
<event>
 6    1  0.1839160E-004  0.3000000E+03  0.7818608E-02  0.1093470E+00
          1   -1    0    0  502    0  0.00000000000E+00  0.00000000000E+00  0.89930839639E+02  0.89930839639E+02  0.00000000000E+00 0.  1.
         13   -1    0    0    0    0 -0.00000000000E+00 -0.00000000000E+00 -0.10000000000E+04  0.10000000000E+04  0.00000000000E+00 0.  1.
    9000005    2    1    2  501    0  0.46325388923E+02 -0.54648223065E+02 -0.96134394685E+03  0.10018310458E+04  0.27267341321E+03 0.  0.
         13    1    3    3    0    0  0.10458087969E+03 -0.13833500089E+03 -0.49587363025E+03  0.52532312917E+03  0.00000000000E+00 0.  1.
          3    1    3    3  501    0 -0.58255490770E+02  0.83686777821E+02 -0.46547031660E+03  0.47650791664E+03  0.00000000000E+00 0.  1.
         21    1    1    2  502  501 -0.46325388923E+02  0.54648223065E+02  0.51274786486E+02  0.88099793826E+02  0.00000000000E+00 0.  1.
<mgrwt>
<rscale>  1 0.30000000E+03</rscale>
<asrwt>0</asrwt>
<pdfrwt beam="1">  1        1 0.32702192E+00 0.30000000E+03</pdfrwt>
<pdfrwt beam="2">0</pdfrwt>
<totfact> 0.25722019E+00</totfact>
</mgrwt>
</event>
<event>
 6    1  0.1839160E-004  0.3000000E+03  0.7818608E-02  0.1093470E+00
          1   -1    0    0  502    0  0.00000000000E+00  0.00000000000E+00  0.33731410091E+02  0.33731410091E+02  0.00000000000E+00 0.  1.
         13   -1    0    0    0    0 -0.00000000000E+00 -0.00000000000E+00 -0.10000000000E+04  0.10000000000E+04  0.00000000000E+00 0.  1.
    9000005    2    1    2  501    0 -0.22746651998E+02 -0.27985086013E+02 -0.92690405923E+03  0.98034469365E+03  0.31721287512E+03 0.  0.
         13    1    3    3    0    0  0.28196377044E+02  0.13941347656E+03 -0.36117211479E+03  0.38817064499E+03  0.00000000000E+00 0.  1.
          3    1    3    3  501    0 -0.50943029042E+02 -0.16739856257E+03 -0.56573194444E+03  0.59217404867E+03  0.00000000000E+00 0.  1.
         21    1    1    2  502  501  0.22746651998E+02  0.27985086013E+02 -0.39364530681E+02  0.53386716438E+02  0.00000000000E+00 0.  1.
<mgrwt>
<rscale>  1 0.30000000E+03</rscale>
<asrwt>0</asrwt>
<pdfrwt beam="1">  1        1 0.12265993E+00 0.30000000E+03</pdfrwt>
<pdfrwt beam="2">0</pdfrwt>
<totfact> 0.25116102E+01</totfact>
</mgrwt>
</event>
<event>
 6    1  0.1839160E-004  0.3000000E+03  0.7818608E-02  0.1093470E+00
          1   -1    0    0  502    0  0.00000000000E+00  0.00000000000E+00  0.33901706814E+02  0.33901706814E+02  0.00000000000E+00 0.  1.
         13   -1    0    0    0    0 -0.00000000000E+00 -0.00000000000E+00 -0.10000000000E+04  0.10000000000E+04  0.00000000000E+00 0.  1.
    9000005    2    1    2  501    0  0.63105641571E+01 -0.42829007087E+02 -0.88569284793E+03  0.94258258124E+03  0.31958716264E+03 0.  0.
         13    1    3    3    0    0  0.10983921872E+03  0.93375942344E+02 -0.50577468170E+03  0.52591990761E+03  0.00000000000E+00 0.  1.
          3    1    3    3  501    0 -0.10352865456E+03 -0.13620494943E+03 -0.37991816623E+03  0.41666267363E+03  0.00000000000E+00 0.  1.
         21    1    1    2  502  501 -0.63105641571E+01  0.42829007087E+02 -0.80405445259E+02  0.91319125572E+02  0.00000000000E+00 0. -1.
<mgrwt>
<rscale>  1 0.30000000E+03</rscale>
<asrwt>0</asrwt>
<pdfrwt beam="1">  1        1 0.12327919E+00 0.30000000E+03</pdfrwt>
<pdfrwt beam="2">0</pdfrwt>
<totfact> 0.24916891E+01</totfact>
</mgrwt>
</event>
<event>
 6    1  0.1839160E-004  0.3000000E+03  0.7818608E-02  0.1093470E+00
          1   -1    0    0  502    0  0.00000000000E+00  0.00000000000E+00  0.24115058647E+02  0.24115058647E+02  0.00000000000E+00 0.  1.
         13   -1    0    0    0    0 -0.00000000000E+00 -0.00000000000E+00 -0.10000000000E+04  0.10000000000E+04  0.00000000000E+00 0.  1.
    9000005    2    1    2  501    0  0.13100464909E+02 -0.14290515394E+02 -0.94302396116E+03  0.98596161804E+03  0.28714156772E+03 0.  0.
         13    1    3    3    0    0  0.13798625088E+03 -0.22128163420E+02 -0.30103423297E+03  0.33189075081E+03  0.00000000000E+00 0.  1.
          3    1    3    3  501    0 -0.12488578597E+03  0.78376480263E+01 -0.64198972819E+03  0.65407086723E+03  0.00000000000E+00 0.  1.
         21    1    1    2  502  501 -0.13100464909E+02  0.14290515394E+02 -0.32860980192E+02  0.38153440608E+02  0.00000000000E+00 0.  1.
<mgrwt>
<rscale>  1 0.30000000E+03</rscale>
<asrwt>0</asrwt>
<pdfrwt beam="1">  1        1 0.87691307E-01 0.30000000E+03</pdfrwt>
<pdfrwt beam="2">0</pdfrwt>
<totfact> 0.41321439E+01</totfact>
</mgrwt>
</event>
<event>
 6    1  0.1839160E-004  0.3000000E+03  0.7818608E-02  0.1093470E+00
          1   -1    0    0  502    0  0.00000000000E+00  0.00000000000E+00  0.29842301066E+02  0.29842301066E+02  0.00000000000E+00 0.  1.
         13   -1    0    0    0    0 -0.00000000000E+00 -0.00000000000E+00 -0.10000000000E+04  0.10000000000E+04  0.00000000000E+00 0.  1.
    9000005    2    1    2  501    0  0.18472860308E+02 -0.24067392576E+00 -0.95689914631E+03  0.10071026065E+04  0.31346192638E+03 0.  0.
         13    1    3    3    0    0 -0.84025919418E+02  0.17390400299E+02 -0.86215329034E+03  0.86641276376E+03  0.00000000000E+00 0.  1.
          1    1    3    3  501    0  0.10249877973E+03 -0.17631074225E+02 -0.94745855969E+02  0.14068984273E+03  0.00000000000E+00 0.  1.
         21    1    1    2  502  501 -0.18472860308E+02  0.24067392576E+00 -0.13258552622E+02  0.22739694578E+02  0.00000000000E+00 0.  1.
<mgrwt>
<rscale>  1 0.30000000E+03</rscale>
<asrwt>0</asrwt>
<pdfrwt beam="1">  1        1 0.10851769E+00 0.30000000E+03</pdfrwt>
<pdfrwt beam="2">0</pdfrwt>
<totfact> 0.30322900E+01</totfact>
</mgrwt>
</event>
<event>
 6    1  0.1839160E-004  0.3000000E+03  0.7818608E-02  0.1093470E+00
          1   -1    0    0  502    0  0.00000000000E+00  0.00000000000E+00  0.39954977616E+02  0.39954977616E+02  0.00000000000E+00 0.  1.
         13   -1    0    0    0    0 -0.00000000000E+00 -0.00000000000E+00 -0.10000000000E+04  0.10000000000E+04  0.00000000000E+00 0.  1.
    9000005    2    1    2  501    0 -0.28863522445E+02 -0.59342208062E+02 -0.85417067227E+03  0.91519930200E+03  0.32191244840E+03 0.  0.
         13    1    3    3    0    0  0.80151278968E+02  0.21321143557E+02 -0.71885552942E+03  0.72362427465E+03  0.00000000000E+00 0.  1.
          1    1    3    3  501    0 -0.10901480141E+03 -0.80663351619E+02 -0.13531514285E+03  0.19157502735E+03  0.00000000000E+00 0.  1.
         21    1    1    2  502  501  0.28863522445E+02  0.59342208062E+02 -0.10587435011E+03  0.12475567561E+03  0.00000000000E+00 0.  1.
<mgrwt>
<rscale>  1 0.30000000E+03</rscale>
<asrwt>0</asrwt>
<pdfrwt beam="1">  1        1 0.14529113E+00 0.30000000E+03</pdfrwt>
<pdfrwt beam="2">0</pdfrwt>
<totfact> 0.18990413E+01</totfact>
</mgrwt>
</event>
<event>
 6    1  0.1839160E-004  0.3000000E+03  0.7818608E-02  0.1093470E+00
          1   -1    0    0  502    0  0.00000000000E+00  0.00000000000E+00  0.30325597833E+02  0.30325597833E+02  0.00000000000E+00 0.  1.
         13   -1    0    0    0    0 -0.00000000000E+00 -0.00000000000E+00 -0.10000000000E+04  0.10000000000E+04  0.00000000000E+00 0.  1.
    9000005    2    1    2  501    0  0.75215164453E+01  0.14155570001E+02 -0.94574165295E+03  0.10015205660E+04  0.32917961160E+03 0.  0.
         13    1    3    3    0    0 -0.46295742495E+02  0.12017516775E+03 -0.15332923336E+03  0.20023790980E+03  0.00000000000E+00 0.  1.
          3    1    3    3  501    0  0.53817258940E+02 -0.10601959775E+03 -0.79241241959E+03  0.80128265624E+03  0.00000000000E+00 0.  1.
         21    1    1    2  502  501 -0.75215164453E+01 -0.14155570001E+02 -0.23932749213E+02  0.28805031793E+02  0.00000000000E+00 0. -1.
<mgrwt>
<rscale>  1 0.30000000E+03</rscale>
<asrwt>0</asrwt>
<pdfrwt beam="1">  1        1 0.11027513E+00 0.30000000E+03</pdfrwt>
<pdfrwt beam="2">0</pdfrwt>
<totfact> 0.29597758E+01</totfact>
</mgrwt>
</event>
<event>
 6    1  0.1839160E-004  0.3000000E+03  0.7818608E-02  0.1093470E+00
          1   -1    0    0  502    0  0.00000000000E+00  0.00000000000E+00  0.32931363095E+02  0.32931363095E+02  0.00000000000E+00 0.  1.
         13   -1    0    0    0    0 -0.00000000000E+00 -0.00000000000E+00 -0.10000000000E+04  0.10000000000E+04  0.00000000000E+00 0.  1.
    9000005    2    1    2  501    0  0.66333411739E+01 -0.19337863785E+02 -0.94524895111E+03  0.10030306461E+04  0.33489840724E+03 0.  0.
         13    1    3    3    0    0 -0.42286883078E+02 -0.14515077306E+03 -0.23057870648E+03  0.27572353415E+03  0.00000000000E+00 0.  1.
          1    1    3    3  501    0  0.48920224252E+02  0.12581290928E+03 -0.71467024463E+03  0.72730711192E+03  0.00000000000E+00 0.  1.
         21    1    1    2  502  501 -0.66333411739E+01  0.19337863785E+02 -0.21819685793E+02  0.29900717032E+02  0.00000000000E+00 0. -1.
<mgrwt>
<rscale>  1 0.30000000E+03</rscale>
<asrwt>0</asrwt>
<pdfrwt beam="1">  1        1 0.11975066E+00 0.30000000E+03</pdfrwt>
<pdfrwt beam="2">0</pdfrwt>
<totfact> 0.26080592E+01</totfact>
</mgrwt>
</event>
<event>
 6    1  0.1839160E-004  0.3000000E+03  0.7818608E-02  0.1093470E+00
          1   -1    0    0  502    0  0.00000000000E+00  0.00000000000E+00  0.76255189575E+02  0.76255189575E+02  0.00000000000E+00 0.  1.
         13   -1    0    0    0    0 -0.00000000000E+00 -0.00000000000E+00 -0.10000000000E+04  0.10000000000E+04  0.00000000000E+00 0.  1.
    9000005    2    1    2  501    0 -0.17724460787E+03  0.95515263040E+01 -0.66398073471E+03  0.76163755226E+03  0.32819881518E+03 0.  0.
         13    1    3    3    0    0 -0.64712121263E+02 -0.10489949340E+03 -0.60738817889E+02  0.13740730095E+03  0.00000000000E+00 0.  1.
          1    1    3    3  501    0 -0.11253248661E+03  0.11445101971E+03 -0.60324191682E+03  0.62423025132E+03  0.00000000000E+00 0.  1.
         21    1    1    2  502  501  0.17724460787E+03 -0.95515263040E+01 -0.25976407572E+03  0.31461763731E+03  0.00000000000E+00 0.  1.
<mgrwt>
<rscale>  1 0.30000000E+03</rscale>
<asrwt>0</asrwt>
<pdfrwt beam="1">  1        1 0.27729218E+00 0.30000000E+03</pdfrwt>
<pdfrwt beam="2">0</pdfrwt>
<totfact> 0.44455436E+00</totfact>
</mgrwt>
</event>
<event>
 6    1  0.1839160E-004  0.3000000E+03  0.7818608E-02  0.1093470E+00
          1   -1    0    0  502    0  0.00000000000E+00  0.00000000000E+00  0.52358619823E+02  0.52358619823E+02  0.00000000000E+00 0.  1.
         13   -1    0    0    0    0 -0.00000000000E+00 -0.00000000000E+00 -0.10000000000E+04  0.10000000000E+04  0.00000000000E+00 0.  1.
    9000005    2    1    2  501    0  0.51623882996E+01  0.10847081283E+02 -0.91161567248E+03  0.10143828244E+04  0.44473033474E+03 0.  0.
         13    1    3    3    0    0 -0.98966495240E+02 -0.35029093248E+02 -0.89291992743E+03  0.89907029834E+03  0.00000000000E+00 0.  1.
          1    1    3    3  501    0  0.10412888354E+03  0.45876174531E+02 -0.18695745052E+02  0.11531252603E+03  0.00000000000E+00 0.  1.
         21    1    1    2  502  501 -0.51623882996E+01 -0.10847081283E+02 -0.36025707692E+02  0.37975795450E+02  0.00000000000E+00 0. -1.
<mgrwt>
<rscale>  1 0.30000000E+03</rscale>
<asrwt>0</asrwt>
<pdfrwt beam="1">  1        1 0.19039538E+00 0.30000000E+03</pdfrwt>
<pdfrwt beam="2">0</pdfrwt>
<totfact> 0.11384150E+01</totfact>
</mgrwt>
</event>
<event>
 6    1  0.1839160E-004  0.3000000E+03  0.7818608E-02  0.1093470E+00
          1   -1    0    0  502    0  0.00000000000E+00  0.00000000000E+00  0.28235265315E+02  0.28235265315E+02  0.00000000000E+00 0.  1.
         13   -1    0    0    0    0 -0.00000000000E+00 -0.00000000000E+00 -0.10000000000E+04  0.10000000000E+04  0.00000000000E+00 0.  1.
    9000005    2    1    2  501    0  0.12639342564E+02  0.18603707141E+01 -0.93834547631E+03  0.99245732812E+03  0.32298003230E+03 0.  0.
         13    1    3    3    0    0  0.30302967324E+01 -0.89520643333E+02 -0.56640955061E+02  0.10597795087E+03  0.00000000000E+00 0.  1.
          1    1    3    3  501    0  0.96090458312E+01  0.91381014048E+02 -0.88170452125E+03  0.88647937724E+03  0.00000000000E+00 0.  1.
         21    1    1    2  502  501 -0.12639342564E+02 -0.18603707141E+01 -0.33419258376E+02  0.35777937197E+02  0.00000000000E+00 0.  1.
<mgrwt>
<rscale>  1 0.30000000E+03</rscale>
<asrwt>0</asrwt>
<pdfrwt beam="1">  1        1 0.10267391E+00 0.30000000E+03</pdfrwt>
<pdfrwt beam="2">0</pdfrwt>
<totfact> 0.32926309E+01</totfact>
</mgrwt>
</event>
<event>
 6    1  0.1839160E-004  0.3000000E+03  0.7818608E-02  0.1093470E+00
          1   -1    0    0  502    0  0.00000000000E+00  0.00000000000E+00  0.28499506938E+02  0.28499506938E+02  0.00000000000E+00 0.  1.
         13   -1    0    0    0    0 -0.00000000000E+00 -0.00000000000E+00 -0.10000000000E+04  0.10000000000E+04  0.00000000000E+00 0.  1.
    9000005    2    1    2  501    0 -0.83682109909E+01 -0.49316581659E+01 -0.94458808934E+03  0.99988787151E+03  0.32777240407E+03 0.  0.
         13    1    3    3    0    0 -0.27743890638E+02  0.13234671191E+03 -0.19322741887E+03  0.23584361561E+03  0.00000000000E+00 0.  1.
          1    1    3    3  501    0  0.19375679647E+02 -0.13727837007E+03 -0.75136067047E+03  0.76404425591E+03  0.00000000000E+00 0.  1.
         21    1    1    2  502  501  0.83682109909E+01  0.49316581659E+01 -0.26912403726E+02  0.28611635426E+02  0.00000000000E+00 0. -1.
<mgrwt>
<rscale>  1 0.30000000E+03</rscale>
<asrwt>0</asrwt>
<pdfrwt beam="1">  1        1 0.10363479E+00 0.30000000E+03</pdfrwt>
<pdfrwt beam="2">0</pdfrwt>
<totfact> 0.32476543E+01</totfact>
</mgrwt>
</event>
<event>
 6    1  0.1839160E-004  0.3000000E+03  0.7818608E-02  0.1093470E+00
          1   -1    0    0  502    0  0.00000000000E+00  0.00000000000E+00  0.41228768253E+02  0.41228768253E+02  0.00000000000E+00 0.  1.
         13   -1    0    0    0    0 -0.00000000000E+00 -0.00000000000E+00 -0.10000000000E+04  0.10000000000E+04  0.00000000000E+00 0.  1.
    9000005    2    1    2  501    0  0.16443400846E+02  0.97044587125E+01 -0.96692049638E+03  0.10204688919E+04  0.32566386222E+03 0.  0.
         13    1    3    3    0    0 -0.43450505639E+02 -0.14309573805E+03 -0.32263687111E+03  0.35561058377E+03  0.00000000000E+00 0.  1.
          1    1    3    3  501    0  0.59893906486E+02  0.15280019676E+03 -0.64428362527E+03  0.66485830818E+03  0.00000000000E+00 0.  1.
         21    1    1    2  502  501 -0.16443400846E+02 -0.97044587125E+01  0.81492646330E+01  0.20759876309E+02  0.00000000000E+00 0.  1.
<mgrwt>
<rscale>  1 0.30000000E+03</rscale>
<asrwt>0</asrwt>
<pdfrwt beam="1">  1        1 0.14992311E+00 0.30000000E+03</pdfrwt>
<pdfrwt beam="2">0</pdfrwt>
<totfact> 0.17981137E+01</totfact>
</mgrwt>
</event>
<event>
 6    1  0.1839160E-004  0.3000000E+03  0.7818608E-02  0.1093470E+00
          1   -1    0    0  502    0  0.00000000000E+00  0.00000000000E+00  0.34489348959E+02  0.34489348959E+02  0.00000000000E+00 0.  1.
         13   -1    0    0    0    0 -0.00000000000E+00 -0.00000000000E+00 -0.10000000000E+04  0.10000000000E+04  0.00000000000E+00 0.  1.
    9000005    2    1    2  501    0 -0.29615777771E+02 -0.23289224967E+02 -0.92114086590E+03  0.97628144463E+03  0.32125610035E+03 0.  0.
         13    1    3    3    0    0  0.74300880718E+02 -0.95941742246E+02 -0.76769699277E+03  0.77722848088E+03  0.00000000000E+00 0.  1.
          1    1    3    3  501    0 -0.10391665849E+03  0.72652517279E+02 -0.15344387312E+03  0.19905296375E+03  0.00000000000E+00 0.  1.
         21    1    1    2  502  501  0.29615777771E+02  0.23289224967E+02 -0.44369785145E+02  0.58207904329E+02  0.00000000000E+00 0.  1.
<mgrwt>
<rscale>  1 0.30000000E+03</rscale>
<asrwt>0</asrwt>
<pdfrwt beam="1">  1        1 0.12541608E+00 0.30000000E+03</pdfrwt>
<pdfrwt beam="2">0</pdfrwt>
<totfact> 0.24244931E+01</totfact>
</mgrwt>
</event>
<event>
 6    1  0.1839160E-004  0.3000000E+03  0.7818608E-02  0.1093470E+00
          1   -1    0    0  502    0  0.00000000000E+00  0.00000000000E+00  0.56806561290E+02  0.56806561290E+02  0.00000000000E+00 0.  1.
         13   -1    0    0    0    0 -0.00000000000E+00 -0.00000000000E+00 -0.10000000000E+04  0.10000000000E+04  0.00000000000E+00 0.  1.
    9000005    2    1    2  501    0  0.18830017257E+02 -0.98109582930E+01 -0.97050769687E+03  0.10222104177E+04  0.32027819772E+03 0.  0.
         13    1    3    3    0    0 -0.98580056923E+02 -0.11064749057E+03 -0.64468237406E+03  0.66149547104E+03  0.00000000000E+00 0.  1.
          1    1    3    3  501    0  0.11741007418E+03  0.10083653227E+03 -0.32582532281E+03  0.36071494666E+03  0.00000000000E+00 0.  1.
         21    1    1    2  502  501 -0.18830017257E+02  0.98109582930E+01  0.27314258155E+02  0.34596143587E+02  0.00000000000E+00 0. -1.
<mgrwt>
<rscale>  1 0.30000000E+03</rscale>
<asrwt>0</asrwt>
<pdfrwt beam="1">  1        1 0.20656975E+00 0.30000000E+03</pdfrwt>
<pdfrwt beam="2">0</pdfrwt>
<totfact> 0.95342645E+00</totfact>
</mgrwt>
</event>
<event>
 6    1  0.1839160E-004  0.3000000E+03  0.7818608E-02  0.1093470E+00
          1   -1    0    0  502    0  0.00000000000E+00  0.00000000000E+00  0.30174991591E+02  0.30174991591E+02  0.00000000000E+00 0.  1.
         13   -1    0    0    0    0 -0.00000000000E+00 -0.00000000000E+00 -0.10000000000E+04  0.10000000000E+04  0.00000000000E+00 0.  1.
    9000005    2    1    2  501    0  0.33174297111E+00  0.20778689318E+02 -0.94603315589E+03  0.99858517948E+03  0.31900119850E+03 0.  0.
         13    1    3    3    0    0  0.96132058526E+02  0.77975885127E+02 -0.82395163538E+03  0.83319740085E+03  0.00000000000E+00 0.  1.
          1    1    3    3  501    0 -0.95800315555E+02 -0.57197195809E+02 -0.12208152051E+03  0.16538777863E+03  0.00000000000E+00 0.  1.
         21    1    1    2  502  501 -0.33174297111E+00 -0.20778689318E+02 -0.23791852515E+02  0.31589812111E+02  0.00000000000E+00 0.  1.
<mgrwt>
<rscale>  1 0.30000000E+03</rscale>
<asrwt>0</asrwt>
<pdfrwt beam="1">  1        1 0.10972747E+00 0.30000000E+03</pdfrwt>
<pdfrwt beam="2">0</pdfrwt>
<totfact> 0.29821058E+01</totfact>
</mgrwt>
</event>
<event>
 6    1  0.1839160E-004  0.3000000E+03  0.7818608E-02  0.1093470E+00
          1   -1    0    0  502    0  0.00000000000E+00  0.00000000000E+00  0.55034748204E+02  0.55034748204E+02  0.00000000000E+00 0.  1.
         13   -1    0    0    0    0 -0.00000000000E+00 -0.00000000000E+00 -0.10000000000E+04  0.10000000000E+04  0.00000000000E+00 0.  1.
    9000005    2    1    2  501    0 -0.92485943236E+01 -0.94634519875E+02 -0.87695345288E+03  0.93812951461E+03  0.31937188170E+03 0.  0.
         13    1    3    3    0    0 -0.13635495790E+03  0.83508270082E+01 -0.20356884158E+03  0.24515848775E+03  0.00000000000E+00 0.  1.
          1    1    3    3  501    0  0.12710636357E+03 -0.10298534688E+03 -0.67338461130E+03  0.69297102686E+03  0.00000000000E+00 0.  1.
         21    1    1    2  502  501  0.92485943236E+01  0.94634519875E+02 -0.68011798915E+02  0.11690523359E+03  0.00000000000E+00 0.  1.
<mgrwt>
<rscale>  1 0.30000000E+03</rscale>
<asrwt>0</asrwt>
<pdfrwt beam="1">  1        1 0.20012678E+00 0.30000000E+03</pdfrwt>
<pdfrwt beam="2">0</pdfrwt>
<totfact> 0.10229212E+01</totfact>
</mgrwt>
</event>
<event>
 6    1  0.1839160E-004  0.3000000E+03  0.7818608E-02  0.1093470E+00
          1   -1    0    0  502    0  0.00000000000E+00  0.00000000000E+00  0.32379224972E+02  0.32379224972E+02  0.00000000000E+00 0.  1.
         13   -1    0    0    0    0 -0.00000000000E+00 -0.00000000000E+00 -0.10000000000E+04  0.10000000000E+04  0.00000000000E+00 0.  1.
    9000005    2    1    2  501    0 -0.15125247611E+02 -0.23062582776E+02 -0.93797898887E+03  0.99189106218E+03  0.32137616563E+03 0.  0.
         13    1    3    3    0    0  0.42741659774E+02 -0.99155482536E+01 -0.93112133303E+03  0.93215454964E+03  0.00000000000E+00 0.  1.
          3    1    3    3  501    0 -0.57866907385E+02 -0.13147034523E+02 -0.68576558322E+01  0.59736512541E+02  0.00000000000E+00 0.  1.
         21    1    1    2  502  501  0.15125247611E+02  0.23062582776E+02 -0.29641786161E+02  0.40488162794E+02  0.00000000000E+00 0.  1.
<mgrwt>
<rscale>  1 0.30000000E+03</rscale>
<asrwt>0</asrwt>
<pdfrwt beam="1">  1        1 0.11774288E+00 0.30000000E+03</pdfrwt>
<pdfrwt beam="2">0</pdfrwt>
<totfact> 0.26775342E+01</totfact>
</mgrwt>
</event>
<event>
 6    1  0.1839160E-004  0.3000000E+03  0.7818608E-02  0.1093470E+00
          1   -1    0    0  502    0  0.00000000000E+00  0.00000000000E+00  0.41033962021E+02  0.41033962021E+02  0.00000000000E+00 0.  1.
         13   -1    0    0    0    0 -0.00000000000E+00 -0.00000000000E+00 -0.10000000000E+04  0.10000000000E+04  0.00000000000E+00 0.  1.
    9000005    2    1    2  501    0  0.52054418137E+02 -0.13540560504E+02 -0.63930999566E+03  0.71688431353E+03  0.31986378227E+03 0.  0.
         13    1    3    3    0    0  0.76896175156E+02 -0.15192166743E+03 -0.44954847488E+03  0.48071514024E+03  0.00000000000E+00 0.  1.
          3    1    3    3  501    0 -0.24841757019E+02  0.13838110692E+03 -0.18976152078E+03  0.23616917329E+03  0.00000000000E+00 0.  1.
         21    1    1    2  502  501 -0.52054418137E+02  0.13540560504E+02 -0.31965604232E+03  0.32414964849E+03  0.00000000000E+00 0. -1.
<mgrwt>
<rscale>  1 0.30000000E+03</rscale>
<asrwt>0</asrwt>
<pdfrwt beam="1">  1        1 0.14921472E+00 0.30000000E+03</pdfrwt>
<pdfrwt beam="2">0</pdfrwt>
<totfact> 0.18131074E+01</totfact>
</mgrwt>
</event>
<event>
 6    1  0.1839160E-004  0.3000000E+03  0.7818608E-02  0.1093470E+00
          1   -1    0    0  502    0  0.00000000000E+00  0.00000000000E+00  0.43316642217E+02  0.43316642217E+02  0.00000000000E+00 0.  1.
         13   -1    0    0    0    0 -0.00000000000E+00 -0.00000000000E+00 -0.10000000000E+04  0.10000000000E+04  0.00000000000E+00 0.  1.
    9000005    2    1    2  501    0  0.96647121088E+01 -0.15890094318E+02 -0.96963935275E+03  0.10206503773E+04  0.31808932178E+03 0.  0.
         13    1    3    3    0    0 -0.16584437906E+02  0.10572010252E+03 -0.11533181393E+03  0.15733153200E+03  0.00000000000E+00 0.  1.
          1    1    3    3  501    0  0.26249150015E+02 -0.12161019684E+03 -0.85430753882E+03  0.86331884535E+03  0.00000000000E+00 0.  1.
         21    1    1    2  502  501 -0.96647121088E+01  0.15890094318E+02  0.12955994963E+02  0.22666264868E+02  0.00000000000E+00 0.  1.
<mgrwt>
<rscale>  1 0.30000000E+03</rscale>
<asrwt>0</asrwt>
<pdfrwt beam="1">  1        1 0.15751539E+00 0.30000000E+03</pdfrwt>
<pdfrwt beam="2">0</pdfrwt>
<totfact> 0.16465530E+01</totfact>
</mgrwt>
</event>
<event>
 6    1  0.1839160E-004  0.3000000E+03  0.7818608E-02  0.1093470E+00
          1   -1    0    0  502    0  0.00000000000E+00  0.00000000000E+00  0.29895749053E+02  0.29895749053E+02  0.00000000000E+00 0.  1.
         13   -1    0    0    0    0 -0.00000000000E+00 -0.00000000000E+00 -0.10000000000E+04  0.10000000000E+04  0.00000000000E+00 0.  1.
    9000005    2    1    2  501    0  0.70217638161E+00  0.13869248469E+02 -0.96581068935E+03  0.10153601453E+04  0.31300653018E+03 0.  0.
         13    1    3    3    0    0  0.11017470525E+03  0.54373078833E+02 -0.81722614514E+03  0.82640998885E+03  0.00000000000E+00 0.  1.
          1    1    3    3  501    0 -0.10947252886E+03 -0.40503830365E+02 -0.14858454421E+03  0.18895015647E+03  0.00000000000E+00 0.  1.
         21    1    1    2  502  501 -0.70217638161E+00 -0.13869248469E+02 -0.42935615971E+01  0.14535603735E+02  0.00000000000E+00 0. -1.
<mgrwt>
<rscale>  1 0.30000000E+03</rscale>
<asrwt>0</asrwt>
<pdfrwt beam="1">  1        1 0.10871204E+00 0.30000000E+03</pdfrwt>
<pdfrwt beam="2">0</pdfrwt>
<totfact> 0.30241470E+01</totfact>
</mgrwt>
</event>
<event>
 6    1  0.1839160E-004  0.3000000E+03  0.7818608E-02  0.1093470E+00
          1   -1    0    0  502    0  0.00000000000E+00  0.00000000000E+00  0.36495401383E+02  0.36495401383E+02  0.00000000000E+00 0.  1.
         13   -1    0    0    0    0 -0.00000000000E+00 -0.00000000000E+00 -0.10000000000E+04  0.10000000000E+04  0.00000000000E+00 0.  1.
    9000005    2    1    2  501    0  0.21459629668E+02 -0.81162495931E+01 -0.95002487293E+03  0.10098853992E+04  0.34175264603E+03 0.  0.
         13    1    3    3    0    0  0.11148355145E+03  0.10610612742E+03 -0.73063367032E+03  0.74666769900E+03  0.00000000000E+00 0.  1.
          3    1    3    3  501    0 -0.90023921785E+02 -0.11422237701E+03 -0.21939120261E+03  0.26321770017E+03  0.00000000000E+00 0.  1.
         21    1    1    2  502  501 -0.21459629668E+02  0.81162495931E+01 -0.13479725686E+02  0.26610002208E+02  0.00000000000E+00 0. -1.
<mgrwt>
<rscale>  1 0.30000000E+03</rscale>
<asrwt>0</asrwt>
<pdfrwt beam="1">  1        1 0.13271083E+00 0.30000000E+03</pdfrwt>
<pdfrwt beam="2">0</pdfrwt>
<totfact> 0.22119123E+01</totfact>
</mgrwt>
</event>
<event>
 6    1  0.1839160E-004  0.3000000E+03  0.7818608E-02  0.1093470E+00
          3   -1    0    0  502    0  0.00000000000E+00  0.00000000000E+00  0.28862414781E+02  0.28862414781E+02  0.00000000000E+00 0.  1.
         13   -1    0    0    0    0 -0.00000000000E+00 -0.00000000000E+00 -0.10000000000E+04  0.10000000000E+04  0.00000000000E+00 0.  1.
    9000005    2    1    2  501    0  0.10815153976E+02  0.15943180774E+01 -0.94811708963E+03  0.10033780544E+04  0.32821029089E+03 0.  0.
         13    1    3    3    0    0  0.15192950662E+03  0.52948026058E+01 -0.71392964048E+03  0.72993571051E+03  0.00000000000E+00 0.  1.
          1    1    3    3  501    0 -0.14111435264E+03 -0.37004845284E+01 -0.23418744914E+03  0.27344234391E+03  0.00000000000E+00 0.  1.
         21    1    1    2  502  501 -0.10815153976E+02 -0.15943180774E+01 -0.23020495594E+02  0.25484360361E+02  0.00000000000E+00 0. -1.
<mgrwt>
<rscale>  1 0.30000000E+03</rscale>
<asrwt>0</asrwt>
<pdfrwt beam="1">  1        3 0.10495446E+00 0.30000000E+03</pdfrwt>
<pdfrwt beam="2">0</pdfrwt>
<totfact> 0.34398991E+00</totfact>
</mgrwt>
</event>
<event>
 6    1  0.1839160E-004  0.3000000E+03  0.7818608E-02  0.1093470E+00
          1   -1    0    0  502    0  0.00000000000E+00  0.00000000000E+00  0.26257767332E+02  0.26257767332E+02  0.00000000000E+00 0.  1.
         13   -1    0    0    0    0 -0.00000000000E+00 -0.00000000000E+00 -0.10000000000E+04  0.10000000000E+04  0.00000000000E+00 0.  1.
    9000005    2    1    2  501    0 -0.84109797621E+01 -0.16695226032E+01 -0.95821933469E+03  0.10085238381E+04  0.31442408726E+03 0.  0.
         13    1    3    3    0    0  0.10630939523E+03 -0.10143558725E+03 -0.31506796612E+03  0.34764736321E+03  0.00000000000E+00 0.  1.
          3    1    3    3  501    0 -0.11472037499E+03  0.99766064647E+02 -0.64315136858E+03  0.66087647484E+03  0.00000000000E+00 0.  1.
         21    1    1    2  502  501  0.84109797621E+01  0.16695226032E+01 -0.15522897973E+02  0.17733929282E+02  0.00000000000E+00 0. -1.
<mgrwt>
<rscale>  1 0.30000000E+03</rscale>
<asrwt>0</asrwt>
<pdfrwt beam="1">  1        1 0.95482992E-01 0.30000000E+03</pdfrwt>
<pdfrwt beam="2">0</pdfrwt>
<totfact> 0.36602678E+01</totfact>
</mgrwt>
</event>
<event>
 6    1  0.1839160E-004  0.3000000E+03  0.7818608E-02  0.1093470E+00
          1   -1    0    0  502    0  0.00000000000E+00  0.00000000000E+00  0.50436833635E+02  0.50436833635E+02  0.00000000000E+00 0.  1.
         13   -1    0    0    0    0 -0.00000000000E+00 -0.00000000000E+00 -0.10000000000E+04  0.10000000000E+04  0.00000000000E+00 0.  1.
    9000005    2    1    2  501    0  0.74552070134E+02 -0.25086585940E+01 -0.93604827784E+03  0.97462814851E+03  0.26105429489E+03 0.  0.
         13    1    3    3    0    0  0.23847011558E+02  0.91822499765E+02 -0.12699468424E+03  0.15851719543E+03  0.00000000000E+00 0.  1.
          1    1    3    3  501    0  0.50705058576E+02 -0.94331158359E+02 -0.80905359360E+03  0.81611095307E+03  0.00000000000E+00 0.  1.
         21    1    1    2  502  501 -0.74552070134E+02  0.25086585940E+01 -0.13514888523E+02  0.75808685129E+02  0.00000000000E+00 0.  1.
<mgrwt>
<rscale>  1 0.30000000E+03</rscale>
<asrwt>0</asrwt>
<pdfrwt beam="1">  1        1 0.18340705E+00 0.30000000E+03</pdfrwt>
<pdfrwt beam="2">0</pdfrwt>
<totfact> 0.12299658E+01</totfact>
</mgrwt>
</event>
<event>
 6    1  0.1839160E-004  0.3000000E+03  0.7818608E-02  0.1093470E+00
          1   -1    0    0  502    0  0.00000000000E+00  0.00000000000E+00  0.47804641820E+02  0.47804641820E+02  0.00000000000E+00 0.  1.
         13   -1    0    0    0    0 -0.00000000000E+00 -0.00000000000E+00 -0.10000000000E+04  0.10000000000E+04  0.00000000000E+00 0.  1.
    9000005    2    1    2  501    0  0.29632872542E+02 -0.18704463012E+02 -0.95612545984E+03  0.10125426258E+04  0.33141923621E+03 0.  0.
         13    1    3    3    0    0 -0.37099115452E+02  0.14853787742E+03 -0.42693773866E+03  0.45355890255E+03  0.00000000000E+00 0.  1.
          1    1    3    3  501    0  0.66731987994E+02 -0.16724234043E+03 -0.52918772118E+03  0.55898372329E+03  0.00000000000E+00 0.  1.
         21    1    1    2  502  501 -0.29632872542E+02  0.18704463012E+02  0.39301016581E+01  0.35262015976E+02  0.00000000000E+00 0.  1.
<mgrwt>
<rscale>  1 0.30000000E+03</rscale>
<asrwt>0</asrwt>
<pdfrwt beam="1">  1        1 0.17383543E+00 0.30000000E+03</pdfrwt>
<pdfrwt beam="2">0</pdfrwt>
<totfact> 0.13685125E+01</totfact>
</mgrwt>
</event>
<event>
 6    1  0.1839160E-004  0.3000000E+03  0.7818608E-02  0.1093470E+00
          1   -1    0    0  502    0  0.00000000000E+00  0.00000000000E+00  0.30141663393E+02  0.30141663393E+02  0.00000000000E+00 0.  1.
         13   -1    0    0    0    0 -0.00000000000E+00 -0.00000000000E+00 -0.10000000000E+04  0.10000000000E+04  0.00000000000E+00 0.  1.
    9000005    2    1    2  501    0 -0.17701347780E+01 -0.13686054726E+02 -0.92020098376E+03  0.97860241463E+03  0.33271969275E+03 0.  0.
         13    1    3    3    0    0 -0.79118011418E+02  0.12323574684E+03 -0.64706345024E+03  0.66342883391E+03  0.00000000000E+00 0.  1.
          3    1    3    3  501    0  0.77347876640E+02 -0.13692180157E+03 -0.27313753352E+03  0.31517358072E+03  0.00000000000E+00 0.  1.
         21    1    1    2  502  501  0.17701347780E+01  0.13686054726E+02 -0.49657352850E+02  0.51539248764E+02  0.00000000000E+00 0. -1.
<mgrwt>
<rscale>  1 0.30000000E+03</rscale>
<asrwt>0</asrwt>
<pdfrwt beam="1">  1        1 0.10960628E+00 0.30000000E+03</pdfrwt>
<pdfrwt beam="2">0</pdfrwt>
<totfact> 0.29870796E+01</totfact>
</mgrwt>
</event>
<event>
 6    1  0.1839160E-004  0.3000000E+03  0.7818608E-02  0.1093470E+00
          1   -1    0    0  502    0  0.00000000000E+00  0.00000000000E+00  0.28142926096E+02  0.28142926096E+02  0.00000000000E+00 0.  1.
         13   -1    0    0    0    0 -0.00000000000E+00 -0.00000000000E+00 -0.10000000000E+04  0.10000000000E+04  0.00000000000E+00 0.  1.
    9000005    2    1    2  501    0  0.84525798646E+01  0.55684238727E+01 -0.95669243684E+03  0.10099105464E+04  0.32335188208E+03 0.  0.
         13    1    3    3    0    0 -0.11556744058E+03  0.88684199710E+02 -0.26609709094E+03  0.30336180117E+03  0.00000000000E+00 0.  1.
          1    1    3    3  501    0  0.12402002044E+03 -0.83115775838E+02 -0.69059534590E+03  0.70654874527E+03  0.00000000000E+00 0.  1.
         21    1    1    2  502  501 -0.84525798646E+01 -0.55684238727E+01 -0.15164637065E+02  0.18232379661E+02  0.00000000000E+00 0. -1.
<mgrwt>
<rscale>  1 0.30000000E+03</rscale>
<asrwt>0</asrwt>
<pdfrwt beam="1">  1        1 0.10233813E+00 0.30000000E+03</pdfrwt>
<pdfrwt beam="2">0</pdfrwt>
<totfact> 0.33085623E+01</totfact>
</mgrwt>
</event>
<event>
 6    1  0.1839160E-004  0.3000000E+03  0.7818608E-02  0.1093470E+00
          1   -1    0    0  502    0  0.00000000000E+00  0.00000000000E+00  0.30052719822E+02  0.30052719822E+02  0.00000000000E+00 0.  1.
         13   -1    0    0    0    0 -0.00000000000E+00 -0.00000000000E+00 -0.10000000000E+04  0.10000000000E+04  0.00000000000E+00 0.  1.
    9000005    2    1    2  501    0  0.10486868871E+02 -0.21946166639E+02 -0.93887946735E+03  0.99059619130E+03  0.31495166512E+03 0.  0.
         13    1    3    3    0    0 -0.13984556873E+03 -0.65114529957E+02 -0.55597228289E+03  0.57697648518E+03  0.00000000000E+00 0.  1.
          3    1    3    3  501    0  0.15033243760E+03  0.43168363318E+02 -0.38290718445E+03  0.41361970612E+03  0.00000000000E+00 0.  1.
         21    1    1    2  502  501 -0.10486868871E+02  0.21946166639E+02 -0.31067812829E+02  0.39456528520E+02  0.00000000000E+00 0. -1.
<mgrwt>
<rscale>  1 0.30000000E+03</rscale>
<asrwt>0</asrwt>
<pdfrwt beam="1">  1        1 0.10928285E+00 0.30000000E+03</pdfrwt>
<pdfrwt beam="2">0</pdfrwt>
<totfact> 0.30004113E+01</totfact>
</mgrwt>
</event>
<event>
 6    1  0.1839160E-004  0.3000000E+03  0.7818608E-02  0.1093470E+00
          1   -1    0    0  502    0  0.00000000000E+00  0.00000000000E+00  0.26044347380E+02  0.26044347380E+02  0.00000000000E+00 0.  1.
         13   -1    0    0    0    0 -0.00000000000E+00 -0.00000000000E+00 -0.10000000000E+04  0.10000000000E+04  0.00000000000E+00 0.  1.
    9000005    2    1    2  501    0  0.14115257058E+02 -0.38760786818E+01 -0.91928045092E+03  0.96944362169E+03  0.30745751532E+03 0.  0.
         13    1    3    3    0    0 -0.57966490540E+02 -0.98055596942E+01 -0.12908325975E+02  0.60190430352E+02  0.00000000000E+00 0.  1.
          1    1    3    3  501    0  0.72081747598E+02  0.59294810124E+01 -0.90637212494E+03  0.90925319133E+03  0.00000000000E+00 0.  1.
         21    1    1    2  502  501 -0.14115257058E+02  0.38760786818E+01 -0.54675201704E+02  0.56600725694E+02  0.00000000000E+00 0. -1.
<mgrwt>
<rscale>  1 0.30000000E+03</rscale>
<asrwt>0</asrwt>
<pdfrwt beam="1">  1        1 0.94706917E-01 0.30000000E+03</pdfrwt>
<pdfrwt beam="2">0</pdfrwt>
<totfact> 0.37035401E+01</totfact>
</mgrwt>
</event>
<event>
 6    1  0.1839160E-004  0.3000000E+03  0.7818608E-02  0.1093470E+00
          1   -1    0    0  502    0  0.00000000000E+00  0.00000000000E+00  0.21037397794E+02  0.21037397794E+02  0.00000000000E+00 0.  1.
         13   -1    0    0    0    0 -0.00000000000E+00 -0.00000000000E+00 -0.10000000000E+04  0.10000000000E+04  0.00000000000E+00 0.  1.
    9000005    2    1    2  501    0  0.39516864582E+01  0.24905395447E+02 -0.93940014037E+03  0.97412169749E+03  0.25652400132E+03 0.  0.
         13    1    3    3    0    0 -0.12039925688E+03  0.13297383966E+02 -0.31787147393E+03  0.34016918646E+03  0.00000000000E+00 0.  1.
          3    1    3    3  501    0  0.12435094334E+03  0.11608011482E+02 -0.62152866644E+03  0.63395251103E+03  0.00000000000E+00 0.  1.
         21    1    1    2  502  501 -0.39516864582E+01 -0.24905395447E+02 -0.39562461839E+02  0.46915700304E+02  0.00000000000E+00 0. -1.
<mgrwt>
<rscale>  1 0.30000000E+03</rscale>
<asrwt>0</asrwt>
<pdfrwt beam="1">  1        1 0.76499790E-01 0.30000000E+03</pdfrwt>
<pdfrwt beam="2">0</pdfrwt>
<totfact> 0.49951150E+01</totfact>
</mgrwt>
</event>
<event>
 6    1  0.1839160E-004  0.3000000E+03  0.7818608E-02  0.1093470E+00
          3   -1    0    0  502    0  0.00000000000E+00  0.00000000000E+00  0.33334983125E+02  0.33334983125E+02  0.00000000000E+00 0.  1.
         13   -1    0    0    0    0 -0.00000000000E+00 -0.00000000000E+00 -0.10000000000E+04  0.10000000000E+04  0.00000000000E+00 0.  1.
    9000005    2    1    2  501    0 -0.22650599081E+02  0.22227524360E+02 -0.92624719719E+03  0.98194711854E+03  0.32446750352E+03 0.  0.
         13    1    3    3    0    0  0.72932643304E+02  0.78895853115E+02 -0.82390080909E+03  0.83087680754E+03  0.00000000000E+00 0.  1.
          3    1    3    3  501    0 -0.95583242385E+02 -0.56668328755E+02 -0.10234638810E+03  0.15107031100E+03  0.00000000000E+00 0.  1.
         21    1    1    2  502  501  0.22650599081E+02 -0.22227524360E+02 -0.40417819689E+02  0.51387864582E+02  0.00000000000E+00 0. -1.
<mgrwt>
<rscale>  1 0.30000000E+03</rscale>
<asrwt>0</asrwt>
<pdfrwt beam="1">  1        3 0.12121838E+00 0.30000000E+03</pdfrwt>
<pdfrwt beam="2">0</pdfrwt>
<totfact> 0.22389230E+00</totfact>
</mgrwt>
</event>
<event>
 6    1  0.1839160E-004  0.3000000E+03  0.7818608E-02  0.1093470E+00
          1   -1    0    0  502    0  0.00000000000E+00  0.00000000000E+00  0.30517505043E+02  0.30517505043E+02  0.00000000000E+00 0.  1.
         13   -1    0    0    0    0 -0.00000000000E+00 -0.00000000000E+00 -0.10000000000E+04  0.10000000000E+04  0.00000000000E+00 0.  1.
    9000005    2    1    2  501    0  0.13614967810E+02  0.11899720247E+01 -0.95512160769E+03  0.10106928117E+04  0.33023611374E+03 0.  0.
         13    1    3    3    0    0  0.73264504041E+02 -0.10115667645E+03 -0.14253429268E+03  0.18951618752E+03  0.00000000000E+00 0.  1.
          3    1    3    3  501    0 -0.59649536230E+02  0.10234664848E+03 -0.81258731501E+03  0.82117662420E+03  0.00000000000E+00 0.  1.
         21    1    1    2  502  501 -0.13614967810E+02 -0.11899720247E+01 -0.14360887269E+02  0.19824693315E+02  0.00000000000E+00 0. -1.
<mgrwt>
<rscale>  1 0.30000000E+03</rscale>
<asrwt>0</asrwt>
<pdfrwt beam="1">  1        1 0.11097298E+00 0.30000000E+03</pdfrwt>
<pdfrwt beam="2">0</pdfrwt>
<totfact> 0.29316642E+01</totfact>
</mgrwt>
</event>
<event>
 6    1  0.1839160E-004  0.3000000E+03  0.7818608E-02  0.1093470E+00
          1   -1    0    0  502    0  0.00000000000E+00  0.00000000000E+00  0.40847080032E+02  0.40847080032E+02  0.00000000000E+00 0.  1.
         13   -1    0    0    0    0 -0.00000000000E+00 -0.00000000000E+00 -0.10000000000E+04  0.10000000000E+04  0.00000000000E+00 0.  1.
    9000005    2    1    2  501    0  0.30567606366E+02  0.27136265209E+02 -0.93700781139E+03  0.99435878815E+03  0.33029533075E+03 0.  0.
         13    1    3    3    0    0  0.15048269145E+03 -0.77475340467E+02 -0.56334572591E+03  0.58822264128E+03  0.00000000000E+00 0.  1.
          3    1    3    3  501    0 -0.11991508508E+03  0.10461160568E+03 -0.37366208547E+03  0.40613614687E+03  0.00000000000E+00 0.  1.
         21    1    1    2  502  501 -0.30567606366E+02 -0.27136265209E+02 -0.22145108582E+02  0.46488291887E+02  0.00000000000E+00 0.  1.
<mgrwt>
<rscale>  1 0.30000000E+03</rscale>
<asrwt>0</asrwt>
<pdfrwt beam="1">  1        1 0.14853515E+00 0.30000000E+03</pdfrwt>
<pdfrwt beam="2">0</pdfrwt>
<totfact> 0.18276375E+01</totfact>
</mgrwt>
</event>
<event>
 6    1  0.1839160E-004  0.3000000E+03  0.7818608E-02  0.1093470E+00
          3   -1    0    0  502    0  0.00000000000E+00  0.00000000000E+00  0.26537496230E+02  0.26537496230E+02  0.00000000000E+00 0.  1.
         13   -1    0    0    0    0 -0.00000000000E+00 -0.00000000000E+00 -0.10000000000E+04  0.10000000000E+04  0.00000000000E+00 0.  1.
    9000005    2    1    2  501    0 -0.11915346728E+02  0.16830750484E+00 -0.96746641944E+03  0.10131974497E+04  0.30072544862E+03 0.  0.
         13    1    3    3    0    0 -0.92579898552E+02  0.93943740199E+02 -0.22754527222E+03  0.26300820301E+03  0.00000000000E+00 0.  1.
          1    1    3    3  501    0  0.80664551824E+02 -0.93775432694E+02 -0.73992114722E+03  0.75018924666E+03  0.00000000000E+00 0.  1.
         21    1    1    2  502  501  0.11915346728E+02 -0.16830750484E+00 -0.59960843277E+01  0.13340046564E+02  0.00000000000E+00 0.  1.
<mgrwt>
<rscale>  1 0.30000000E+03</rscale>
<asrwt>0</asrwt>
<pdfrwt beam="1">  1        3 0.96500190E-01 0.30000000E+03</pdfrwt>
<pdfrwt beam="2">0</pdfrwt>
<totfact> 0.42943205E+00</totfact>
</mgrwt>
</event>
<event>
 6    1  0.1839160E-004  0.3000000E+03  0.7818608E-02  0.1093470E+00
          1   -1    0    0  502    0  0.00000000000E+00  0.00000000000E+00  0.48060489759E+02  0.48060489759E+02  0.00000000000E+00 0.  1.
         13   -1    0    0    0    0 -0.00000000000E+00 -0.00000000000E+00 -0.10000000000E+04  0.10000000000E+04  0.00000000000E+00 0.  1.
    9000005    2    1    2  501    0 -0.87872654541E+01 -0.87913110109E+01 -0.96916288349E+03  0.10268202504E+04  0.33901125147E+03 0.  0.
         13    1    3    3    0    0 -0.53956456265E+02 -0.13194913490E+03 -0.80078216388E+03  0.81337196126E+03  0.00000000000E+00 0.  1.
          1    1    3    3  501    0  0.45169190811E+02  0.12315782389E+03 -0.16838071962E+03  0.21344828911E+03  0.00000000000E+00 0.  1.
         21    1    1    2  502  501  0.87872654541E+01  0.87913110109E+01  0.17223373253E+02  0.21240239398E+02  0.00000000000E+00 0.  1.
<mgrwt>
<rscale>  1 0.30000000E+03</rscale>
<asrwt>0</asrwt>
<pdfrwt beam="1">  1        1 0.17476579E+00 0.30000000E+03</pdfrwt>
<pdfrwt beam="2">0</pdfrwt>
<totfact> 0.13543302E+01</totfact>
</mgrwt>
</event>
<event>
 6    1  0.1839160E-004  0.3000000E+03  0.7818608E-02  0.1093470E+00
          1   -1    0    0  502    0  0.00000000000E+00  0.00000000000E+00  0.32703915839E+02  0.32703915839E+02  0.00000000000E+00 0.  1.
         13   -1    0    0    0    0 -0.00000000000E+00 -0.00000000000E+00 -0.10000000000E+04  0.10000000000E+04  0.00000000000E+00 0.  1.
    9000005    2    1    2  501    0 -0.91184285699E+01  0.12654410776E+02 -0.93331858081E+03  0.99531741312E+03  0.34544160103E+03 0.  0.
         13    1    3    3    0    0  0.13254100274E+03 -0.20528717239E+02 -0.16161868708E+03  0.21002177423E+03  0.00000000000E+00 0.  1.
          3    1    3    3  501    0 -0.14165943131E+03  0.33183128015E+02 -0.77169989374E+03  0.78529563889E+03  0.00000000000E+00 0.  1.
         21    1    1    2  502  501  0.91184285699E+01 -0.12654410776E+02 -0.33977503346E+02  0.37386502716E+02  0.00000000000E+00 0. -1.
<mgrwt>
<rscale>  1 0.30000000E+03</rscale>
<asrwt>0</asrwt>
<pdfrwt beam="1">  1        1 0.11892358E+00 0.30000000E+03</pdfrwt>
<pdfrwt beam="2">0</pdfrwt>
<totfact> 0.26363793E+01</totfact>
</mgrwt>
</event>
<event>
 6    1  0.1839160E-004  0.3000000E+03  0.7818608E-02  0.1093470E+00
          1   -1    0    0  502    0  0.00000000000E+00  0.00000000000E+00  0.41383358401E+02  0.41383358401E+02  0.00000000000E+00 0.  1.
         13   -1    0    0    0    0 -0.00000000000E+00 -0.00000000000E+00 -0.10000000000E+04  0.10000000000E+04  0.00000000000E+00 0.  1.
    9000005    2    1    2  501    0 -0.25454664940E+02  0.37045909738E+00 -0.96283162102E+03  0.10155794196E+04  0.32203842912E+03 0.  0.
         13    1    3    3    0    0 -0.16615325085E+02 -0.10914581211E+03 -0.11052442045E+03  0.15621947652E+03  0.00000000000E+00 0.  1.
          3    1    3    3  501    0 -0.88393398549E+01  0.10951627121E+03 -0.85230720057E+03  0.85935994306E+03  0.00000000000E+00 0.  1.
         21    1    1    2  502  501  0.25454664940E+02 -0.37045909738E+00  0.42149794231E+01  0.25803938821E+02  0.00000000000E+00 0.  1.
<mgrwt>
<rscale>  1 0.30000000E+03</rscale>
<asrwt>0</asrwt>
<pdfrwt beam="1">  1        1 0.15048526E+00 0.30000000E+03</pdfrwt>
<pdfrwt beam="2">0</pdfrwt>
<totfact> 0.17863244E+01</totfact>
</mgrwt>
</event>
<event>
 6    1  0.1839160E-004  0.3000000E+03  0.7818608E-02  0.1093470E+00
          1   -1    0    0  502    0  0.00000000000E+00  0.00000000000E+00  0.60516233133E+02  0.60516233133E+02  0.00000000000E+00 0.  1.
         13   -1    0    0    0    0 -0.00000000000E+00 -0.00000000000E+00 -0.10000000000E+04  0.10000000000E+04  0.00000000000E+00 0.  1.
    9000005    2    1    2  501    0  0.17083084561E+03 -0.30926553752E+02 -0.57617329460E+03  0.65785740882E+03  0.26582151039E+03 0.  0.
         13    1    3    3    0    0  0.11164326038E+03 -0.46995366014E+02 -0.58363723168E+03  0.59607482770E+03  0.00000000000E+00 0.  1.
          3    1    3    3  501    0  0.59187585230E+02  0.16068812262E+02  0.74639370795E+01  0.61782581118E+02  0.00000000000E+00 0.  1.
         21    1    1    2  502  501 -0.17083084561E+03  0.30926553752E+02 -0.36331047227E+03  0.40265882432E+03  0.00000000000E+00 0.  1.
<mgrwt>
<rscale>  1 0.30000000E+03</rscale>
<asrwt>0</asrwt>
<pdfrwt beam="1">  1        1 0.22005949E+00 0.30000000E+03</pdfrwt>
<pdfrwt beam="2">0</pdfrwt>
<totfact> 0.82379797E+00</totfact>
</mgrwt>
</event>
<event>
 6    1  0.1839160E-004  0.3000000E+03  0.7818608E-02  0.1093470E+00
          1   -1    0    0  502    0  0.00000000000E+00  0.00000000000E+00  0.27315913680E+02  0.27315913680E+02  0.00000000000E+00 0.  1.
         13   -1    0    0    0    0 -0.00000000000E+00 -0.00000000000E+00 -0.10000000000E+04  0.10000000000E+04  0.00000000000E+00 0.  1.
    9000005    2    1    2  501    0  0.57404572176E+01  0.86051099062E+01 -0.96027352629E+03  0.10111597147E+04  0.31656235176E+03 0.  0.
         13    1    3    3    0    0  0.19830535743E+01  0.42797464462E+02 -0.97339974997E+03  0.97434215176E+03  0.00000000000E+00 0.  1.
          1    1    3    3  501    0  0.37574036433E+01 -0.34192354556E+02  0.13126223673E+02  0.36817562930E+02  0.00000000000E+00 0.  1.
         21    1    1    2  502  501 -0.57404572176E+01 -0.86051099062E+01 -0.12410560026E+02  0.16156198988E+02  0.00000000000E+00 0.  1.
<mgrwt>
<rscale>  1 0.30000000E+03</rscale>
<asrwt>0</asrwt>
<pdfrwt beam="1">  1        1 0.99330805E-01 0.30000000E+03</pdfrwt>
<pdfrwt beam="2">0</pdfrwt>
<totfact> 0.34564269E+01</totfact>
</mgrwt>
</event>
<event>
 6    1  0.1839160E-004  0.3000000E+03  0.7818608E-02  0.1093470E+00
          1   -1    0    0  502    0  0.00000000000E+00  0.00000000000E+00  0.52480786233E+02  0.52480786233E+02  0.00000000000E+00 0.  1.
         13   -1    0    0    0    0 -0.00000000000E+00 -0.00000000000E+00 -0.10000000000E+04  0.10000000000E+04  0.00000000000E+00 0.  1.
    9000005    2    1    2  501    0 -0.19107774189E+01  0.12054566567E+02 -0.95127617770E+03  0.10397105700E+04  0.41943144781E+03 0.  0.
         13    1    3    3    0    0 -0.12479738866E+03 -0.15013229627E+03 -0.62872385483E+03  0.65833713266E+03  0.00000000000E+00 0.  1.
          1    1    3    3  501    0  0.12288661125E+03  0.16218686284E+03 -0.32255232287E+03  0.38137343731E+03  0.00000000000E+00 0.  1.
         21    1    1    2  502  501  0.19107774189E+01 -0.12054566567E+02  0.37569639292E+01  0.12770216264E+02  0.00000000000E+00 0.  1.
<mgrwt>
<rscale>  1 0.30000000E+03</rscale>
<asrwt>0</asrwt>
<pdfrwt beam="1">  1        1 0.19083963E+00 0.30000000E+03</pdfrwt>
<pdfrwt beam="2">0</pdfrwt>
<totfact> 0.11328426E+01</totfact>
</mgrwt>
</event>
<event>
 6    1  0.1839160E-004  0.3000000E+03  0.7818608E-02  0.1093470E+00
          1   -1    0    0  502    0  0.00000000000E+00  0.00000000000E+00  0.41573995358E+02  0.41573995358E+02  0.00000000000E+00 0.  1.
         13   -1    0    0    0    0 -0.00000000000E+00 -0.00000000000E+00 -0.10000000000E+04  0.10000000000E+04  0.00000000000E+00 0.  1.
    9000005    2    1    2  501    0  0.10843263972E+02 -0.10429715172E+01 -0.96271852254E+03  0.10298654569E+04  0.36561898405E+03 0.  0.
         13    1    3    3    0    0  0.34720608280E+02 -0.13558985068E+03 -0.82156991045E+03  0.83340701101E+03  0.00000000000E+00 0.  1.
          1    1    3    3  501    0 -0.23877344308E+02  0.13454687916E+03 -0.14114861209E+03  0.19645844588E+03  0.00000000000E+00 0.  1.
         21    1    1    2  502  501 -0.10843263972E+02  0.10429715172E+01  0.42925178959E+01  0.11708538467E+02  0.00000000000E+00 0.  1.
<mgrwt>
<rscale>  1 0.30000000E+03</rscale>
<asrwt>0</asrwt>
<pdfrwt beam="1">  1        1 0.15117848E+00 0.30000000E+03</pdfrwt>
<pdfrwt beam="2">0</pdfrwt>
<totfact> 0.17719172E+01</totfact>
</mgrwt>
</event>
<event>
 6    1  0.1839160E-004  0.3000000E+03  0.7818608E-02  0.1093470E+00
          1   -1    0    0  502    0  0.00000000000E+00  0.00000000000E+00  0.52652025508E+02  0.52652025508E+02  0.00000000000E+00 0.  1.
         13   -1    0    0    0    0 -0.00000000000E+00 -0.00000000000E+00 -0.10000000000E+04  0.10000000000E+04  0.00000000000E+00 0.  1.
    9000005    2    1    2  501    0  0.47024375857E+02  0.79990648486E+02 -0.83990337204E+03  0.91068675382E+03  0.33956279750E+03 0.  0.
         13    1    3    3    0    0  0.10980240518E+03  0.16435954359E+03 -0.29089176970E+03  0.35169397128E+03  0.00000000000E+00 0.  1.
          3    1    3    3  501    0 -0.62778029324E+02 -0.84368895108E+02 -0.54901160234E+03  0.55899278254E+03  0.00000000000E+00 0.  1.
         21    1    1    2  502  501 -0.47024375857E+02 -0.79990648486E+02 -0.10744460245E+03  0.14196527169E+03  0.00000000000E+00 0.  1.
<mgrwt>
<rscale>  1 0.30000000E+03</rscale>
<asrwt>0</asrwt>
<pdfrwt beam="1">  1        1 0.19146231E+00 0.30000000E+03</pdfrwt>
<pdfrwt beam="2">0</pdfrwt>
<totfact> 0.11250811E+01</totfact>
</mgrwt>
</event>
<event>
 6    1  0.1839160E-004  0.3000000E+03  0.7818608E-02  0.1093470E+00
          1   -1    0    0  502    0  0.00000000000E+00  0.00000000000E+00  0.28309031839E+02  0.28309031839E+02  0.00000000000E+00 0.  1.
         13   -1    0    0    0    0 -0.00000000000E+00 -0.00000000000E+00 -0.10000000000E+04  0.10000000000E+04  0.00000000000E+00 0.  1.
    9000005    2    1    2  501    0 -0.12377569202E+02 -0.99957511631E+01 -0.92882219351E+03  0.98258320653E+03  0.32016553738E+03 0.  0.
         13    1    3    3    0    0 -0.45372789113E+02  0.92826752860E+02 -0.82935874784E+03  0.83576996157E+03  0.00000000000E+00 0.  1.
          3    1    3    3  501    0  0.32995219911E+02 -0.10282250402E+03 -0.99463445672E+02  0.14681324496E+03  0.00000000000E+00 0.  1.
         21    1    1    2  502  501  0.12377569202E+02  0.99957511631E+01 -0.42868774648E+02  0.45725825312E+02  0.00000000000E+00 0.  1.
<mgrwt>
<rscale>  1 0.30000000E+03</rscale>
<asrwt>0</asrwt>
<pdfrwt beam="1">  1        1 0.10294215E+00 0.30000000E+03</pdfrwt>
<pdfrwt beam="2">0</pdfrwt>
<totfact> 0.32799842E+01</totfact>
</mgrwt>
</event>
<event>
 6    1  0.1839160E-004  0.3000000E+03  0.7818608E-02  0.1093470E+00
          1   -1    0    0  502    0  0.00000000000E+00  0.00000000000E+00  0.45752920448E+02  0.45752920448E+02  0.00000000000E+00 0.  1.
         13   -1    0    0    0    0 -0.00000000000E+00 -0.00000000000E+00 -0.10000000000E+04  0.10000000000E+04  0.00000000000E+00 0.  1.
    9000005    2    1    2  501    0  0.92947568638E+01 -0.48390364253E+02 -0.94033494139E+03  0.99455167587E+03  0.32011750049E+03 0.  0.
         13    1    3    3    0    0  0.10654783123E+03 -0.68093764249E+02 -0.85312732240E+03  0.86244734871E+03  0.00000000000E+00 0.  1.
          1    1    3    3  501    0 -0.97253074368E+02  0.19703399995E+02 -0.87207618994E+02  0.13210432717E+03  0.00000000000E+00 0.  1.
         21    1    1    2  502  501 -0.92947568638E+01  0.48390364253E+02 -0.13912138158E+02  0.51201244573E+02  0.00000000000E+00 0. -1.
<mgrwt>
<rscale>  1 0.30000000E+03</rscale>
<asrwt>0</asrwt>
<pdfrwt beam="1">  1        1 0.16637461E+00 0.30000000E+03</pdfrwt>
<pdfrwt beam="2">0</pdfrwt>
<totfact> 0.14883759E+01</totfact>
</mgrwt>
</event>
<event>
 6    1  0.1839160E-004  0.3000000E+03  0.7818608E-02  0.1093470E+00
          1   -1    0    0  502    0  0.00000000000E+00  0.00000000000E+00  0.34050146606E+02  0.34050146606E+02  0.00000000000E+00 0.  1.
         13   -1    0    0    0    0 -0.00000000000E+00 -0.00000000000E+00 -0.10000000000E+04  0.10000000000E+04  0.00000000000E+00 0.  1.
    9000005    2    1    2  501    0 -0.16058123038E+02  0.12894308388E+01 -0.95587504112E+03  0.10150494153E+04  0.34112856131E+03 0.  0.
         13    1    3    3    0    0  0.15966286975E+03  0.22089926823E+02 -0.52721700677E+03  0.55130569476E+03  0.00000000000E+00 0.  1.
          1    1    3    3  501    0 -0.17572099279E+03 -0.20800495984E+02 -0.42865803435E+03  0.46374372055E+03  0.00000000000E+00 0.  1.
         21    1    1    2  502  501  0.16058123038E+02 -0.12894308388E+01 -0.10074812276E+02  0.19000731296E+02  0.00000000000E+00 0.  1.
<mgrwt>
<rscale>  1 0.30000000E+03</rscale>
<asrwt>0</asrwt>
<pdfrwt beam="1">  1        1 0.12381898E+00 0.30000000E+03</pdfrwt>
<pdfrwt beam="2">0</pdfrwt>
<totfact> 0.24744920E+01</totfact>
</mgrwt>
</event>
<event>
 6    1  0.1839160E-004  0.3000000E+03  0.7818608E-02  0.1093470E+00
          1   -1    0    0  502    0  0.00000000000E+00  0.00000000000E+00  0.29482283798E+02  0.29482283798E+02  0.00000000000E+00 0.  1.
         13   -1    0    0    0    0 -0.00000000000E+00 -0.00000000000E+00 -0.10000000000E+04  0.10000000000E+04  0.00000000000E+00 0.  1.
    9000005    2    1    2  501    0 -0.97469672948E+01  0.20145446934E+01 -0.96717511055E+03  0.10189830089E+04  0.32062379218E+03 0.  0.
         13    1    3    3    0    0 -0.32504511320E+01  0.13026361045E+03 -0.18468454750E+03  0.22602556431E+03  0.00000000000E+00 0.  1.
          1    1    3    3  501    0 -0.64965161628E+01 -0.12824906576E+03 -0.78249056305E+03  0.79295744454E+03  0.00000000000E+00 0.  1.
         21    1    1    2  502  501  0.97469672948E+01 -0.20145446934E+01 -0.33426056549E+01  0.10499274943E+02  0.00000000000E+00 0.  1.
<mgrwt>
<rscale>  1 0.30000000E+03</rscale>
<asrwt>0</asrwt>
<pdfrwt beam="1">  1        1 0.10720853E+00 0.30000000E+03</pdfrwt>
<pdfrwt beam="2">0</pdfrwt>
<totfact> 0.30879659E+01</totfact>
</mgrwt>
</event>
<event>
 6    1  0.1839160E-004  0.3000000E+03  0.7818608E-02  0.1093470E+00
          1   -1    0    0  502    0  0.00000000000E+00  0.00000000000E+00  0.31826976812E+02  0.31826976812E+02  0.00000000000E+00 0.  1.
         13   -1    0    0    0    0 -0.00000000000E+00 -0.00000000000E+00 -0.10000000000E+04  0.10000000000E+04  0.00000000000E+00 0.  1.
    9000005    2    1    2  501    0 -0.14576427188E+00 -0.22037784077E+02 -0.93417912729E+03  0.99131438454E+03  0.33094996896E+03 0.  0.
         13    1    3    3    0    0 -0.10456609949E+03 -0.50957810481E+02 -0.11017288883E+03  0.16021495887E+03  0.00000000000E+00 0.  1.
          1    1    3    3  501    0  0.10442033522E+03  0.28920026403E+02 -0.82400623846E+03  0.83109942568E+03  0.00000000000E+00 0.  1.
         21    1    1    2  502  501  0.14576427188E+00  0.22037784077E+02 -0.33993895895E+02  0.40512592269E+02  0.00000000000E+00 0. -1.
<mgrwt>
<rscale>  1 0.30000000E+03</rscale>
<asrwt>0</asrwt>
<pdfrwt beam="1">  1        1 0.11573471E+00 0.30000000E+03</pdfrwt>
<pdfrwt beam="2">0</pdfrwt>
<totfact> 0.27495813E+01</totfact>
</mgrwt>
</event>
<event>
 6    1  0.1839160E-004  0.3000000E+03  0.7818608E-02  0.1093470E+00
          1   -1    0    0  502    0  0.00000000000E+00  0.00000000000E+00  0.31788475551E+02  0.31788475551E+02  0.00000000000E+00 0.  1.
         13   -1    0    0    0    0 -0.00000000000E+00 -0.00000000000E+00 -0.10000000000E+04  0.10000000000E+04  0.00000000000E+00 0.  1.
    9000005    2    1    2  501    0  0.16502865106E+02  0.24896769455E+02 -0.85567585950E+03  0.91535622241E+03  0.32373390877E+03 0.  0.
         13    1    3    3    0    0  0.40431814915E+02 -0.96797892214E+01 -0.86995566454E+03  0.87094849919E+03  0.00000000000E+00 0.  1.
          1    1    3    3  501    0 -0.23928949809E+02  0.34576558677E+02  0.14279805045E+02  0.44407723214E+02  0.00000000000E+00 0.  1.
         21    1    1    2  502  501 -0.16502865106E+02 -0.24896769455E+02 -0.11253566495E+03  0.11643225315E+03  0.00000000000E+00 0.  1.
<mgrwt>
<rscale>  1 0.30000000E+03</rscale>
<asrwt>0</asrwt>
<pdfrwt beam="1">  1        1 0.11559470E+00 0.30000000E+03</pdfrwt>
<pdfrwt beam="2">0</pdfrwt>
<totfact> 0.27547040E+01</totfact>
</mgrwt>
</event>
<event>
 6    1  0.1839160E-004  0.3000000E+03  0.7818608E-02  0.1093470E+00
          1   -1    0    0  502    0  0.00000000000E+00  0.00000000000E+00  0.31847442074E+02  0.31847442074E+02  0.00000000000E+00 0.  1.
         13   -1    0    0    0    0 -0.00000000000E+00 -0.00000000000E+00 -0.10000000000E+04  0.10000000000E+04  0.00000000000E+00 0.  1.
    9000005    2    1    2  501    0  0.25158605316E+01 -0.20268899062E+02 -0.95010704412E+03  0.10045931141E+04  0.32570964346E+03 0.  0.
         13    1    3    3    0    0 -0.26317029934E+02 -0.16997393201E+03 -0.44939779580E+03  0.48118821941E+03  0.00000000000E+00 0.  1.
          1    1    3    3  501    0  0.28832890466E+02  0.14970503295E+03 -0.50070924832E+03  0.52340489471E+03  0.00000000000E+00 0.  1.
         21    1    1    2  502  501 -0.25158605316E+01  0.20268899062E+02 -0.18045513810E+02  0.27254327951E+02  0.00000000000E+00 0.  1.
<mgrwt>
<rscale>  1 0.30000000E+03</rscale>
<asrwt>0</asrwt>
<pdfrwt beam="1">  1        1 0.11580912E+00 0.30000000E+03</pdfrwt>
<pdfrwt beam="2">0</pdfrwt>
<totfact> 0.27468638E+01</totfact>
</mgrwt>
</event>
<event>
 6    1  0.1839160E-004  0.3000000E+03  0.7818608E-02  0.1093470E+00
          1   -1    0    0  502    0  0.00000000000E+00  0.00000000000E+00  0.47599078756E+02  0.47599078756E+02  0.00000000000E+00 0.  1.
         13   -1    0    0    0    0 -0.00000000000E+00 -0.00000000000E+00 -0.10000000000E+04  0.10000000000E+04  0.00000000000E+00 0.  1.
    9000005    2    1    2  501    0  0.42114338627E+02  0.86194399055E+02 -0.79679161884E+03  0.86479495697E+03  0.32216508471E+03 0.  0.
         13    1    3    3    0    0  0.11003828836E+03  0.17492936596E+03 -0.37199077644E+03  0.42554182607E+03  0.00000000000E+00 0.  1.
          3    1    3    3  501    0 -0.67923949735E+02 -0.88734966909E+02 -0.42480084241E+03  0.43925313090E+03  0.00000000000E+00 0.  1.
         21    1    1    2  502  501 -0.42114338627E+02 -0.86194399055E+02 -0.15560930240E+03  0.18280412178E+03  0.00000000000E+00 0.  1.
<mgrwt>
<rscale>  1 0.30000000E+03</rscale>
<asrwt>0</asrwt>
<pdfrwt beam="1">  1        1 0.17308792E+00 0.30000000E+03</pdfrwt>
<pdfrwt beam="2">0</pdfrwt>
<totfact> 0.13800230E+01</totfact>
</mgrwt>
</event>
<event>
 6    1  0.1839160E-004  0.3000000E+03  0.7818608E-02  0.1093470E+00
          1   -1    0    0  502    0  0.00000000000E+00  0.00000000000E+00  0.31295754879E+02  0.31295754879E+02  0.00000000000E+00 0.  1.
         13   -1    0    0    0    0 -0.00000000000E+00 -0.00000000000E+00 -0.10000000000E+04  0.10000000000E+04  0.00000000000E+00 0.  1.
    9000005    2    1    2  501    0 -0.17714201027E+02 -0.77319013108E+01 -0.93530355407E+03  0.99270584197E+03  0.33211229306E+03 0.  0.
         13    1    3    3    0    0 -0.10070668329E+03 -0.63410525611E+02 -0.11220581948E+03  0.16356306656E+03  0.00000000000E+00 0.  1.
          3    1    3    3  501    0  0.82992482266E+02  0.55678624300E+02 -0.82309773459E+03  0.82914277541E+03  0.00000000000E+00 0.  1.
         21    1    1    2  502  501  0.17714201027E+02  0.77319013108E+01 -0.33400691052E+02  0.38589912914E+02  0.00000000000E+00 0.  1.
<mgrwt>
<rscale>  1 0.30000000E+03</rscale>
<asrwt>0</asrwt>
<pdfrwt beam="1">  1        1 0.11380298E+00 0.30000000E+03</pdfrwt>
<pdfrwt beam="2">0</pdfrwt>
<totfact> 0.28214597E+01</totfact>
</mgrwt>
</event>
<event>
 6    1  0.1839160E-004  0.3000000E+03  0.7818608E-02  0.1093470E+00
          1   -1    0    0  502    0  0.00000000000E+00  0.00000000000E+00  0.38613778822E+02  0.38613778822E+02  0.00000000000E+00 0.  1.
         13   -1    0    0    0    0 -0.00000000000E+00 -0.00000000000E+00 -0.10000000000E+04  0.10000000000E+04  0.00000000000E+00 0.  1.
    9000005    2    1    2  501    0 -0.18131022713E+02  0.20574169381E+02 -0.95797119140E+03  0.10109787854E+04  0.32189636631E+03 0.  0.
         13    1    3    3    0    0 -0.13447415006E+03 -0.37712628784E+02 -0.76873917662E+03  0.78132289169E+03  0.00000000000E+00 0.  1.
          1    1    3    3  501    0  0.11634312734E+03  0.58286798165E+02 -0.18923201478E+03  0.22965589376E+03  0.00000000000E+00 0.  1.
         21    1    1    2  502  501  0.18131022713E+02 -0.20574169381E+02 -0.34150297747E+01  0.27634993373E+02  0.00000000000E+00 0.  1.
<mgrwt>
<rscale>  1 0.30000000E+03</rscale>
<asrwt>0</asrwt>
<pdfrwt beam="1">  1        1 0.14041404E+00 0.30000000E+03</pdfrwt>
<pdfrwt beam="2">0</pdfrwt>
<totfact> 0.20131411E+01</totfact>
</mgrwt>
</event>
<event>
 6    1  0.1839160E-004  0.3000000E+03  0.7818608E-02  0.1093470E+00
          1   -1    0    0  502    0  0.00000000000E+00  0.00000000000E+00  0.41297434745E+02  0.41297434745E+02  0.00000000000E+00 0.  1.
         13   -1    0    0    0    0 -0.00000000000E+00 -0.00000000000E+00 -0.10000000000E+04  0.10000000000E+04  0.00000000000E+00 0.  1.
    9000005    2    1    2  501    0 -0.31001878838E+02  0.16583793894E+02 -0.93600698657E+03  0.99944975855E+03  0.34864681590E+03 0.  0.
         13    1    3    3    0    0  0.15098155837E+03 -0.39557445083E+02 -0.49651827212E+03  0.52047153330E+03  0.00000000000E+00 0.  1.
          1    1    3    3  501    0 -0.18198343720E+03  0.56141238976E+02 -0.43948871445E+03  0.47897822524E+03  0.00000000000E+00 0.  1.
         21    1    1    2  502  501  0.31001878838E+02 -0.16583793894E+02 -0.22695578687E+02  0.41847676200E+02  0.00000000000E+00 0.  1.
<mgrwt>
<rscale>  1 0.30000000E+03</rscale>
<asrwt>0</asrwt>
<pdfrwt beam="1">  1        1 0.15017281E+00 0.30000000E+03</pdfrwt>
<pdfrwt beam="2">0</pdfrwt>
<totfact> 0.17928653E+01</totfact>
</mgrwt>
</event>
<event>
 6    1  0.1839160E-004  0.3000000E+03  0.7818608E-02  0.1093470E+00
          3   -1    0    0  502    0  0.00000000000E+00  0.00000000000E+00  0.37861667881E+02  0.37861667881E+02  0.00000000000E+00 0.  1.
         13   -1    0    0    0    0 -0.00000000000E+00 -0.00000000000E+00 -0.10000000000E+04  0.10000000000E+04  0.00000000000E+00 0.  1.
    9000005    2    1    2  501    0 -0.81289424130E+01 -0.58279664875E+02 -0.78160624396E+03  0.84798161654E+03  0.32357673332E+03 0.  0.
         13    1    3    3    0    0 -0.51279758975E+01  0.10259467908E+03 -0.85884274401E+02  0.13389575386E+03  0.00000000000E+00 0.  1.
          1    1    3    3  501    0 -0.30009665155E+01 -0.16087434396E+03 -0.69572196956E+03  0.71408586268E+03  0.00000000000E+00 0.  1.
         21    1    1    2  502  501  0.81289424130E+01  0.58279664875E+02 -0.18053208816E+03  0.18988005134E+03  0.00000000000E+00 0. -1.
<mgrwt>
<rscale>  1 0.30000000E+03</rscale>
<asrwt>0</asrwt>
<pdfrwt beam="1">  1        3 0.13767908E+00 0.30000000E+03</pdfrwt>
<pdfrwt beam="2">0</pdfrwt>
<totfact> 0.14315057E+00</totfact>
</mgrwt>
</event>
<event>
 6    1  0.1839160E-004  0.3000000E+03  0.7818608E-02  0.1093470E+00
          1   -1    0    0  502    0  0.00000000000E+00  0.00000000000E+00  0.25162979530E+02  0.25162979530E+02  0.00000000000E+00 0.  1.
         13   -1    0    0    0    0 -0.00000000000E+00 -0.00000000000E+00 -0.10000000000E+04  0.10000000000E+04  0.00000000000E+00 0.  1.
    9000005    2    1    2  501    0  0.11300424166E+02 -0.27462099310E+01 -0.96025120301E+03  0.10065085611E+04  0.30139984981E+03 0.  0.
         13    1    3    3    0    0 -0.12919327896E+03 -0.26025563797E+01 -0.68920784139E+03  0.70121688889E+03  0.00000000000E+00 0.  1.
          1    1    3    3  501    0  0.14049370312E+03 -0.14365355138E+00 -0.27104336162E+03  0.30529167223E+03  0.00000000000E+00 0.  1.
         21    1    1    2  502  501 -0.11300424166E+02  0.27462099310E+01 -0.14585817459E+02  0.18654418411E+02  0.00000000000E+00 0.  1.
<mgrwt>
<rscale>  1 0.30000000E+03</rscale>
<asrwt>0</asrwt>
<pdfrwt beam="1">  1        1 0.91501937E-01 0.30000000E+03</pdfrwt>
<pdfrwt beam="2">0</pdfrwt>
<totfact> 0.38906014E+01</totfact>
</mgrwt>
</event>
<event>
 6    1  0.1839160E-004  0.3000000E+03  0.7818608E-02  0.1093470E+00
          1   -1    0    0  502    0  0.00000000000E+00  0.00000000000E+00  0.58412946154E+02  0.58412946154E+02  0.00000000000E+00 0.  1.
         13   -1    0    0    0    0 -0.00000000000E+00 -0.00000000000E+00 -0.10000000000E+04  0.10000000000E+04  0.00000000000E+00 0.  1.
    9000005    2    1    2  501    0  0.11617524500E+02 -0.11769922567E+02 -0.96790877108E+03  0.10273270852E+04  0.34391867196E+03 0.  0.
         13    1    3    3    0    0 -0.80374570669E+02 -0.11728225991E+02 -0.32629463552E+02  0.87534591944E+02  0.00000000000E+00 0.  1.
          1    1    3    3  501    0  0.91992095169E+02 -0.41696576214E-01 -0.93527930752E+03  0.93979249326E+03  0.00000000000E+00 0.  1.
         21    1    1    2  502  501 -0.11617524500E+02  0.11769922567E+02  0.26321717231E+02  0.31085860946E+02  0.00000000000E+00 0.  1.
<mgrwt>
<rscale>  1 0.30000000E+03</rscale>
<asrwt>0</asrwt>
<pdfrwt beam="1">  1        1 0.21241116E+00 0.30000000E+03</pdfrwt>
<pdfrwt beam="2">0</pdfrwt>
<totfact> 0.89482797E+00</totfact>
</mgrwt>
</event>
<event>
 6    1  0.1839160E-004  0.3000000E+03  0.7818608E-02  0.1093470E+00
          1   -1    0    0  502    0  0.00000000000E+00  0.00000000000E+00  0.28069510031E+02  0.28069510031E+02  0.00000000000E+00 0.  1.
         13   -1    0    0    0    0 -0.00000000000E+00 -0.00000000000E+00 -0.10000000000E+04  0.10000000000E+04  0.00000000000E+00 0.  1.
    9000005    2    1    2  501    0 -0.38326523177E+02  0.19716254164E+02 -0.88100958310E+03  0.92745010652E+03  0.28658011360E+03 0.  0.
         13    1    3    3    0    0 -0.53194336429E+02  0.11626692896E+03 -0.76579615802E+03  0.77639641410E+03  0.00000000000E+00 0.  1.
          3    1    3    3  501    0  0.14867813252E+02 -0.96550674791E+02 -0.11521342508E+03  0.15105369241E+03  0.00000000000E+00 0.  1.
         21    1    1    2  502  501  0.38326523177E+02 -0.19716254164E+02 -0.90920906871E+02  0.10061940351E+03  0.00000000000E+00 0. -1.
<mgrwt>
<rscale>  1 0.30000000E+03</rscale>
<asrwt>0</asrwt>
<pdfrwt beam="1">  1        1 0.10207116E+00 0.30000000E+03</pdfrwt>
<pdfrwt beam="2">0</pdfrwt>
<totfact> 0.33213094E+01</totfact>
</mgrwt>
</event>
<event>
 6    1  0.1839160E-004  0.3000000E+03  0.7818608E-02  0.1093470E+00
          1   -1    0    0  502    0  0.00000000000E+00  0.00000000000E+00  0.54149703284E+02  0.54149703284E+02  0.00000000000E+00 0.  1.
         13   -1    0    0    0    0 -0.00000000000E+00 -0.00000000000E+00 -0.10000000000E+04  0.10000000000E+04  0.00000000000E+00 0.  1.
    9000005    2    1    2  501    0  0.35660104668E+02  0.15859926518E+02 -0.95943121595E+03  0.10128263237E+04  0.32215791699E+03 0.  0.
         13    1    3    3    0    0  0.86211270091E+02  0.13713587713E+03 -0.73610172497E+03  0.75371372642E+03  0.00000000000E+00 0.  1.
          1    1    3    3  501    0 -0.50551165423E+02 -0.12127595061E+03 -0.22332949098E+03  0.25911259727E+03  0.00000000000E+00 0.  1.
         21    1    1    2  502  501 -0.35660104668E+02 -0.15859926518E+02  0.13580919233E+02  0.41323379597E+02  0.00000000000E+00 0.  1.
<mgrwt>
<rscale>  1 0.30000000E+03</rscale>
<asrwt>0</asrwt>
<pdfrwt beam="1">  1        1 0.19690843E+00 0.30000000E+03</pdfrwt>
<pdfrwt beam="2">0</pdfrwt>
<totfact> 0.10596285E+01</totfact>
</mgrwt>
</event>
<event>
 6    1  0.1839160E-004  0.3000000E+03  0.7818608E-02  0.1093470E+00
          1   -1    0    0  502    0  0.00000000000E+00  0.00000000000E+00  0.35308184165E+02  0.35308184165E+02  0.00000000000E+00 0.  1.
         13   -1    0    0    0    0 -0.00000000000E+00 -0.00000000000E+00 -0.10000000000E+04  0.10000000000E+04  0.00000000000E+00 0.  1.
    9000005    2    1    2  501    0  0.12387994876E+02  0.17671075300E+02 -0.95238071791E+03  0.10104628133E+04  0.33695746909E+03 0.  0.
         13    1    3    3    0    0 -0.16112188285E+03 -0.11016101752E+02 -0.47665936781E+03  0.50327504264E+03  0.00000000000E+00 0.  1.
          3    1    3    3  501    0  0.17350987773E+03  0.28687177052E+02 -0.47572135011E+03  0.50718777070E+03  0.00000000000E+00 0.  1.
         21    1    1    2  502  501 -0.12387994876E+02 -0.17671075300E+02 -0.12311097923E+02  0.24845370824E+02  0.00000000000E+00 0.  1.
<mgrwt>
<rscale>  1 0.30000000E+03</rscale>
<asrwt>0</asrwt>
<pdfrwt beam="1">  1        1 0.12839367E+00 0.30000000E+03</pdfrwt>
<pdfrwt beam="2">0</pdfrwt>
<totfact> 0.23346635E+01</totfact>
</mgrwt>
</event>
<event>
 6    1  0.1839160E-004  0.3000000E+03  0.7818608E-02  0.1093470E+00
          1   -1    0    0  502    0  0.00000000000E+00  0.00000000000E+00  0.31065642925E+02  0.31065642925E+02  0.00000000000E+00 0.  1.
         13   -1    0    0    0    0 -0.00000000000E+00 -0.00000000000E+00 -0.10000000000E+04  0.10000000000E+04  0.00000000000E+00 0.  1.
    9000005    2    1    2  501    0  0.11450128778E+02  0.77270504675E+01 -0.94704106555E+03  0.10051787935E+04  0.33661077576E+03 0.  0.
         13    1    3    3    0    0 -0.14843801605E+03  0.49559968788E+02 -0.31285774745E+03  0.34981424393E+03  0.00000000000E+00 0.  1.
          1    1    3    3  501    0  0.15988814483E+03 -0.41832918320E+02 -0.63418331810E+03  0.65536454960E+03  0.00000000000E+00 0.  1.
         21    1    1    2  502  501 -0.11450128778E+02 -0.77270504675E+01 -0.21893291529E+02  0.25886849401E+02  0.00000000000E+00 0.  1.
<mgrwt>
<rscale>  1 0.30000000E+03</rscale>
<asrwt>0</asrwt>
<pdfrwt beam="1">  1        1 0.11296621E+00 0.30000000E+03</pdfrwt>
<pdfrwt beam="2">0</pdfrwt>
<totfact> 0.28534214E+01</totfact>
</mgrwt>
</event>
<event>
 6    1  0.1839160E-004  0.3000000E+03  0.7818608E-02  0.1093470E+00
          1   -1    0    0  502    0  0.00000000000E+00  0.00000000000E+00  0.30920465330E+02  0.30920465330E+02  0.00000000000E+00 0.  1.
         13   -1    0    0    0    0 -0.00000000000E+00 -0.00000000000E+00 -0.10000000000E+04  0.10000000000E+04  0.00000000000E+00 0.  1.
    9000005    2    1    2  501    0 -0.72551699073E+01 -0.92783155892E+01 -0.96663256084E+03  0.10188908223E+04  0.32190258691E+03 0.  0.
         13    1    3    3    0    0 -0.12231275534E+03 -0.10857229613E+03 -0.39786647760E+03  0.43016983576E+03  0.00000000000E+00 0.  1.
          1    1    3    3  501    0  0.11505758544E+03  0.99293980543E+02 -0.56876608324E+03  0.58872098653E+03  0.00000000000E+00 0.  1.
         21    1    1    2  502  501  0.72551699073E+01  0.92783155892E+01 -0.24469738334E+01  0.12029643033E+02  0.00000000000E+00 0. -1.
<mgrwt>
<rscale>  1 0.30000000E+03</rscale>
<asrwt>0</asrwt>
<pdfrwt beam="1">  1        1 0.11243829E+00 0.30000000E+03</pdfrwt>
<pdfrwt beam="2">0</pdfrwt>
<totfact> 0.28738525E+01</totfact>
</mgrwt>
</event>
<event>
 6    1  0.1839160E-004  0.3000000E+03  0.7818608E-02  0.1093470E+00
          1   -1    0    0  502    0  0.00000000000E+00  0.00000000000E+00  0.32155836052E+02  0.32155836052E+02  0.00000000000E+00 0.  1.
         13   -1    0    0    0    0 -0.00000000000E+00 -0.00000000000E+00 -0.10000000000E+04  0.10000000000E+04  0.00000000000E+00 0.  1.
    9000005    2    1    2  501    0  0.15914556575E+02 -0.26351942898E+02 -0.90243111118E+03  0.95986084676E+03  0.32558138260E+03 0.  0.
         13    1    3    3    0    0 -0.56037644169E+02 -0.14277411178E+03 -0.25055769715E+03  0.29377512515E+03  0.00000000000E+00 0.  1.
          3    1    3    3  501    0  0.71952200744E+02  0.11642216888E+03 -0.65187341404E+03  0.66608572161E+03  0.00000000000E+00 0.  1.
         21    1    1    2  502  501 -0.15914556575E+02  0.26351942898E+02 -0.65413052763E+02  0.72294989296E+02  0.00000000000E+00 0. -1.
<mgrwt>
<rscale>  1 0.30000000E+03</rscale>
<asrwt>0</asrwt>
<pdfrwt beam="1">  1        1 0.11693056E+00 0.30000000E+03</pdfrwt>
<pdfrwt beam="2">0</pdfrwt>
<totfact> 0.27063603E+01</totfact>
</mgrwt>
</event>
<event>
 6    1  0.1839160E-004  0.3000000E+03  0.7818608E-02  0.1093470E+00
          1   -1    0    0  502    0  0.00000000000E+00  0.00000000000E+00  0.33853159571E+02  0.33853159571E+02  0.00000000000E+00 0.  1.
         13   -1    0    0    0    0 -0.00000000000E+00 -0.00000000000E+00 -0.10000000000E+04  0.10000000000E+04  0.00000000000E+00 0.  1.
    9000005    2    1    2  501    0  0.11219144637E+02 -0.54962413192E+01 -0.95885828476E+03  0.10193893800E+04  0.34581703251E+03 0.  0.
         13    1    3    3    0    0  0.20838057740E+02 -0.13679505294E+03 -0.16800342808E+03  0.21765170113E+03  0.00000000000E+00 0.  1.
          3    1    3    3  501    0 -0.96189131035E+01  0.13129881162E+03 -0.79085485668E+03  0.80173767890E+03  0.00000000000E+00 0.  1.
         21    1    1    2  502  501 -0.11219144637E+02  0.54962413192E+01 -0.72885556658E+01  0.14463779544E+02  0.00000000000E+00 0.  1.
<mgrwt>
<rscale>  1 0.30000000E+03</rscale>
<asrwt>0</asrwt>
<pdfrwt beam="1">  1        1 0.12310266E+00 0.30000000E+03</pdfrwt>
<pdfrwt beam="2">0</pdfrwt>
<totfact> 0.24973470E+01</totfact>
</mgrwt>
</event>
<event>
 6    1  0.1839160E-004  0.3000000E+03  0.7818608E-02  0.1093470E+00
          1   -1    0    0  502    0  0.00000000000E+00  0.00000000000E+00  0.53269136995E+02  0.53269136995E+02  0.00000000000E+00 0.  1.
         13   -1    0    0    0    0 -0.00000000000E+00 -0.00000000000E+00 -0.10000000000E+04  0.10000000000E+04  0.00000000000E+00 0.  1.
    9000005    2    1    2  501    0 -0.32042369459E+02  0.13361234722E+02 -0.94416268644E+03  0.10184577658E+04  0.38027333092E+03 0.  0.
         13    1    3    3    0    0  0.48378941970E+02  0.10389293083E+02  0.18209861694E+02  0.52726260059E+02  0.00000000000E+00 0.  1.
          1    1    3    3  501    0 -0.80421311429E+02  0.29719416393E+01 -0.96237254814E+03  0.96573150574E+03  0.00000000000E+00 0.  1.
         21    1    1    2  502  501  0.32042369459E+02 -0.13361234722E+02 -0.25681765640E+01  0.34811371198E+02  0.00000000000E+00 0.  1.
<mgrwt>
<rscale>  1 0.30000000E+03</rscale>
<asrwt>0</asrwt>
<pdfrwt beam="1">  1        1 0.19370636E+00 0.30000000E+03</pdfrwt>
<pdfrwt beam="2">0</pdfrwt>
<totfact> 0.10975851E+01</totfact>
</mgrwt>
</event>
<event>
 6    1  0.1839160E-004  0.3000000E+03  0.7818608E-02  0.1093470E+00
          1   -1    0    0  502    0  0.00000000000E+00  0.00000000000E+00  0.31780926305E+02  0.31780926305E+02  0.00000000000E+00 0.  1.
         13   -1    0    0    0    0 -0.00000000000E+00 -0.00000000000E+00 -0.10000000000E+04  0.10000000000E+04  0.00000000000E+00 0.  1.
    9000005    2    1    2  501    0  0.19739188024E+02  0.38944099951E+02 -0.91845362533E+03  0.96557761584E+03  0.29474869274E+03 0.  0.
         13    1    3    3    0    0  0.14961818465E+03  0.67837055284E+02 -0.47598623117E+03  0.50353784318E+03  0.00000000000E+00 0.  1.
          1    1    3    3  501    0 -0.12987899663E+03 -0.28892955334E+02 -0.44246739416E+03  0.46203977267E+03  0.00000000000E+00 0.  1.
         21    1    1    2  502  501 -0.19739188024E+02 -0.38944099951E+02 -0.49765448367E+02  0.66203310461E+02  0.00000000000E+00 0.  1.
<mgrwt>
<rscale>  1 0.30000000E+03</rscale>
<asrwt>0</asrwt>
<pdfrwt beam="1">  1        1 0.11556725E+00 0.30000000E+03</pdfrwt>
<pdfrwt beam="2">0</pdfrwt>
<totfact> 0.27557100E+01</totfact>
</mgrwt>
</event>
<event>
 6    1  0.1839160E-004  0.3000000E+03  0.7818608E-02  0.1093470E+00
          1   -1    0    0  502    0  0.00000000000E+00  0.00000000000E+00  0.27238666806E+02  0.27238666806E+02  0.00000000000E+00 0.  1.
         13   -1    0    0    0    0 -0.00000000000E+00 -0.00000000000E+00 -0.10000000000E+04  0.10000000000E+04  0.00000000000E+00 0.  1.
    9000005    2    1    2  501    0 -0.36035864384E+00 -0.13205021923E+02 -0.95376362101E+03  0.10040996191E+04  0.31365027941E+03 0.  0.
         13    1    3    3    0    0  0.73240241319E+02 -0.64713810964E+02 -0.88650696325E+03  0.89187813414E+03  0.00000000000E+00 0.  1.
          3    1    3    3  501    0 -0.73600599963E+02  0.51508789041E+02 -0.67256657762E+02  0.11222148492E+03  0.00000000000E+00 0.  1.
         21    1    1    2  502  501  0.36035864384E+00  0.13205021923E+02 -0.18997712184E+02  0.23139047746E+02  0.00000000000E+00 0.  1.
<mgrwt>
<rscale>  1 0.30000000E+03</rscale>
<asrwt>0</asrwt>
<pdfrwt beam="1">  1        1 0.99049906E-01 0.30000000E+03</pdfrwt>
<pdfrwt beam="2">0</pdfrwt>
<totfact> 0.34707321E+01</totfact>
</mgrwt>
</event>
<event>
 6    1  0.1839160E-004  0.3000000E+03  0.7818608E-02  0.1093470E+00
          1   -1    0    0  502    0  0.00000000000E+00  0.00000000000E+00  0.25884802609E+02  0.25884802609E+02  0.00000000000E+00 0.  1.
         13   -1    0    0    0    0 -0.00000000000E+00 -0.00000000000E+00 -0.10000000000E+04  0.10000000000E+04  0.00000000000E+00 0.  1.
    9000005    2    1    2  501    0  0.12664913628E+02  0.12222433508E+02 -0.95786194683E+03  0.10019274223E+04  0.29334154568E+03 0.  0.
         13    1    3    3    0    0 -0.11084638998E+03  0.56447384452E+02 -0.22210567550E+03  0.25456661304E+03  0.00000000000E+00 0.  1.
          3    1    3    3  501    0  0.12351130360E+03 -0.44224950944E+02 -0.73575627133E+03  0.74736080925E+03  0.00000000000E+00 0.  1.
         21    1    1    2  502  501 -0.12664913628E+02 -0.12222433508E+02 -0.16253250557E+02  0.23957380319E+02  0.00000000000E+00 0.  1.
<mgrwt>
<rscale>  1 0.30000000E+03</rscale>
<asrwt>0</asrwt>
<pdfrwt beam="1">  1        1 0.94126753E-01 0.30000000E+03</pdfrwt>
<pdfrwt beam="2">0</pdfrwt>
<totfact> 0.37363894E+01</totfact>
</mgrwt>
</event>
<event>
 6    1  0.1839160E-004  0.3000000E+03  0.7818608E-02  0.1093470E+00
          1   -1    0    0  502    0  0.00000000000E+00  0.00000000000E+00  0.39903523490E+02  0.39903523490E+02  0.00000000000E+00 0.  1.
         13   -1    0    0    0    0 -0.00000000000E+00 -0.00000000000E+00 -0.10000000000E+04  0.10000000000E+04  0.00000000000E+00 0.  1.
    9000005    2    1    2  501    0  0.55628983204E+02  0.23902511362E+02 -0.80227062470E+03  0.87086236483E+03  0.33331245011E+03 0.  0.
         13    1    3    3    0    0 -0.10706557709E+03 -0.63411050338E+02 -0.16066906793E+03  0.20322044309E+03  0.00000000000E+00 0.  1.
          3    1    3    3  501    0  0.16269456029E+03  0.87313561700E+02 -0.64160155677E+03  0.66764192174E+03  0.00000000000E+00 0.  1.
         21    1    1    2  502  501 -0.55628983204E+02 -0.23902511362E+02 -0.15782585181E+03  0.16904115866E+03  0.00000000000E+00 0.  1.
<mgrwt>
<rscale>  1 0.30000000E+03</rscale>
<asrwt>0</asrwt>
<pdfrwt beam="1">  1        1 0.14510403E+00 0.30000000E+03</pdfrwt>
<pdfrwt beam="2">0</pdfrwt>
<totfact> 0.19032657E+01</totfact>
</mgrwt>
</event>
<event>
 6    1  0.1839160E-004  0.3000000E+03  0.7818608E-02  0.1093470E+00
          1   -1    0    0  502    0  0.00000000000E+00  0.00000000000E+00  0.29175148846E+02  0.29175148846E+02  0.00000000000E+00 0.  1.
         13   -1    0    0    0    0 -0.00000000000E+00 -0.00000000000E+00 -0.10000000000E+04  0.10000000000E+04  0.00000000000E+00 0.  1.
    9000005    2    1    2  501    0  0.19915836356E+02 -0.24534173056E+02 -0.94151817413E+03  0.98607703400E+03  0.29136382509E+03 0.  0.
         13    1    3    3    0    0  0.42881209282E+02  0.60061330147E+02 -0.47481476522E+02  0.87753359487E+02  0.00000000000E+00 0.  1.
          1    1    3    3  501    0 -0.22965372926E+02 -0.84595503202E+02 -0.89403669761E+03  0.89832367451E+03  0.00000000000E+00 0.  1.
         21    1    1    2  502  501 -0.19915836356E+02  0.24534173056E+02 -0.29306677023E+02  0.43098114847E+02  0.00000000000E+00 0.  1.
<mgrwt>
<rscale>  1 0.30000000E+03</rscale>
<asrwt>0</asrwt>
<pdfrwt beam="1">  1        1 0.10609167E+00 0.30000000E+03</pdfrwt>
<pdfrwt beam="2">0</pdfrwt>
<totfact> 0.31366303E+01</totfact>
</mgrwt>
</event>
<event>
 6    1  0.1839160E-004  0.3000000E+03  0.7818608E-02  0.1093470E+00
          1   -1    0    0  502    0  0.00000000000E+00  0.00000000000E+00  0.33199190725E+02  0.33199190725E+02  0.00000000000E+00 0.  1.
         13   -1    0    0    0    0 -0.00000000000E+00 -0.00000000000E+00 -0.10000000000E+04  0.10000000000E+04  0.00000000000E+00 0.  1.
    9000005    2    1    2  501    0 -0.76543667578E+01  0.23733772358E+02 -0.96981565395E+03  0.10080800632E+04  0.27397286329E+03 0.  0.
         13    1    3    3    0    0  0.48913988166E+02 -0.10678146918E+03 -0.60928458645E+03  0.62050186760E+03  0.00000000000E+00 0.  1.
          1    1    3    3  501    0 -0.56568354924E+02  0.13051524153E+03 -0.36053106750E+03  0.38757819557E+03  0.00000000000E+00 0.  1.
         21    1    1    2  502  501  0.76543667578E+01 -0.23733772358E+02  0.30148446796E+01  0.25119127557E+02  0.00000000000E+00 0.  1.
<mgrwt>
<rscale>  1 0.30000000E+03</rscale>
<asrwt>0</asrwt>
<pdfrwt beam="1">  1        1 0.12072458E+00 0.30000000E+03</pdfrwt>
<pdfrwt beam="2">0</pdfrwt>
<totfact> 0.25752325E+01</totfact>
</mgrwt>
</event>
<event>
 6    1  0.1839160E-004  0.3000000E+03  0.7818608E-02  0.1093470E+00
          1   -1    0    0  502    0  0.00000000000E+00  0.00000000000E+00  0.28502425548E+02  0.28502425548E+02  0.00000000000E+00 0.  1.
         13   -1    0    0    0    0 -0.00000000000E+00 -0.00000000000E+00 -0.10000000000E+04  0.10000000000E+04  0.00000000000E+00 0.  1.
    9000005    2    1    2  501    0  0.68146118692E+01 -0.87436132092E+01 -0.93160232104E+03  0.98709565133E+03  0.32611662115E+03 0.  0.
         13    1    3    3    0    0 -0.48033319394E+02  0.11672818327E+03 -0.16181572525E+03  0.20522426143E+03  0.00000000000E+00 0.  1.
          1    1    3    3  501    0  0.54847931263E+02 -0.12547179648E+03 -0.76978659579E+03  0.78187138990E+03  0.00000000000E+00 0.  1.
         21    1    1    2  502  501 -0.68146118692E+01  0.87436132092E+01 -0.39895253407E+02  0.41406774220E+02  0.00000000000E+00 0. -1.
<mgrwt>
<rscale>  1 0.30000000E+03</rscale>
<asrwt>0</asrwt>
<pdfrwt beam="1">  1        1 0.10364540E+00 0.30000000E+03</pdfrwt>
<pdfrwt beam="2">0</pdfrwt>
<totfact> 0.32471625E+01</totfact>
</mgrwt>
</event>
<event>
 6    1  0.1839160E-004  0.3000000E+03  0.7818608E-02  0.1093470E+00
          1   -1    0    0  502    0  0.00000000000E+00  0.00000000000E+00  0.57344749904E+02  0.57344749904E+02  0.00000000000E+00 0.  1.
         13   -1    0    0    0    0 -0.00000000000E+00 -0.00000000000E+00 -0.10000000000E+04  0.10000000000E+04  0.00000000000E+00 0.  1.
    9000005    2    1    2  501    0  0.10052686365E+02 -0.11763345055E+02 -0.97701034688E+03  0.10196657708E+04  0.29142689219E+03 0.  0.
         13    1    3    3    0    0 -0.29923423436E+02  0.13529093654E+03 -0.42577987105E+03  0.44775835824E+03  0.00000000000E+00 0.  1.
          3    1    3    3  501    0  0.39976109801E+02 -0.14705428159E+03 -0.55123047582E+03  0.57190741258E+03  0.00000000000E+00 0.  1.
         21    1    1    2  502  501 -0.10052686365E+02  0.11763345055E+02  0.34355096780E+02  0.37678979084E+02  0.00000000000E+00 0.  1.
<mgrwt>
<rscale>  1 0.30000000E+03</rscale>
<asrwt>0</asrwt>
<pdfrwt beam="1">  1        1 0.20852680E+00 0.30000000E+03</pdfrwt>
<pdfrwt beam="2">0</pdfrwt>
<totfact> 0.93334288E+00</totfact>
</mgrwt>
</event>
<event>
 6    1  0.1839160E-004  0.3000000E+03  0.7818608E-02  0.1093470E+00
          1   -1    0    0  502    0  0.00000000000E+00  0.00000000000E+00  0.38178689445E+02  0.38178689445E+02  0.00000000000E+00 0.  1.
         13   -1    0    0    0    0 -0.00000000000E+00 -0.00000000000E+00 -0.10000000000E+04  0.10000000000E+04  0.00000000000E+00 0.  1.
    9000005    2    1    2  501    0 -0.14385654583E+02 -0.16625732750E+02 -0.74817446444E+03  0.82340360500E+03  0.34314006677E+03 0.  0.
         13    1    3    3    0    0 -0.23135184147E+02  0.24756384686E+02  0.29290499663E+02  0.44788935003E+02  0.00000000000E+00 0.  1.
          3    1    3    3  501    0  0.87495295640E+01 -0.41382117435E+02 -0.77746496411E+03  0.77861466999E+03  0.00000000000E+00 0.  1.
         21    1    1    2  502  501  0.14385654583E+02  0.16625732750E+02 -0.21364684611E+03  0.21477508445E+03  0.00000000000E+00 0. -1.
<mgrwt>
<rscale>  1 0.30000000E+03</rscale>
<asrwt>0</asrwt>
<pdfrwt beam="1">  1        1 0.13883189E+00 0.30000000E+03</pdfrwt>
<pdfrwt beam="2">0</pdfrwt>
<totfact> 0.20520167E+01</totfact>
</mgrwt>
</event>
<event>
 6    1  0.1839160E-004  0.3000000E+03  0.7818608E-02  0.1093470E+00
          1   -1    0    0  502    0  0.00000000000E+00  0.00000000000E+00  0.37555417171E+02  0.37555417171E+02  0.00000000000E+00 0.  1.
         13   -1    0    0    0    0 -0.00000000000E+00 -0.00000000000E+00 -0.10000000000E+04  0.10000000000E+04  0.00000000000E+00 0.  1.
    9000005    2    1    2  501    0  0.17299082329E+02  0.72951689602E+01 -0.96117029495E+03  0.10187378310E+04  0.33708449191E+03 0.  0.
         13    1    3    3    0    0 -0.11141901643E+03  0.39158726349E+02 -0.80608739769E+03  0.81469288434E+03  0.00000000000E+00 0.  1.
          3    1    3    3  501    0  0.12871809876E+03 -0.31863557389E+02 -0.15508289726E+03  0.20404494667E+03  0.00000000000E+00 0.  1.
         21    1    1    2  502  501 -0.17299082329E+02 -0.72951689602E+01 -0.12742878793E+01  0.18817586168E+02  0.00000000000E+00 0.  1.
<mgrwt>
<rscale>  1 0.30000000E+03</rscale>
<asrwt>0</asrwt>
<pdfrwt beam="1">  1        1 0.13656544E+00 0.30000000E+03</pdfrwt>
<pdfrwt beam="2">0</pdfrwt>
<totfact> 0.21093948E+01</totfact>
</mgrwt>
</event>
<event>
 6    1  0.1839160E-004  0.3000000E+03  0.7818608E-02  0.1093470E+00
          1   -1    0    0  502    0  0.00000000000E+00  0.00000000000E+00  0.34838313153E+02  0.34838313153E+02  0.00000000000E+00 0.  1.
         13   -1    0    0    0    0 -0.00000000000E+00 -0.00000000000E+00 -0.10000000000E+04  0.10000000000E+04  0.00000000000E+00 0.  1.
    9000005    2    1    2  501    0 -0.14456407056E+02 -0.24050960235E+02 -0.94586484152E+03  0.10007824086E+04  0.32575710985E+03 0.  0.
         13    1    3    3    0    0 -0.11351753312E+03 -0.11855737464E+03 -0.70374943642E+03  0.72263777280E+03  0.00000000000E+00 0.  1.
          3    1    3    3  501    0  0.99061126059E+02  0.94506414406E+02 -0.24211540509E+03  0.27814463583E+03  0.00000000000E+00 0.  1.
         21    1    1    2  502  501  0.14456407056E+02  0.24050960235E+02 -0.19296845332E+02  0.34055904524E+02  0.00000000000E+00 0. -1.
<mgrwt>
<rscale>  1 0.30000000E+03</rscale>
<asrwt>0</asrwt>
<pdfrwt beam="1">  1        1 0.12668504E+00 0.30000000E+03</pdfrwt>
<pdfrwt beam="2">0</pdfrwt>
<totfact> 0.23856790E+01</totfact>
</mgrwt>
</event>
<event>
 6    1  0.1839160E-004  0.3000000E+03  0.7818608E-02  0.1093470E+00
          1   -1    0    0  502    0  0.00000000000E+00  0.00000000000E+00  0.32905241173E+02  0.32905241173E+02  0.00000000000E+00 0.  1.
         13   -1    0    0    0    0 -0.00000000000E+00 -0.00000000000E+00 -0.10000000000E+04  0.10000000000E+04  0.00000000000E+00 0.  1.
    9000005    2    1    2  501    0  0.20113386371E+02  0.15041647656E+02 -0.94020594334E+03  0.99611111292E+03  0.32805385825E+03 0.  0.
         13    1    3    3    0    0  0.42304888936E+02 -0.96848867247E+02 -0.91552772924E+02  0.13982602385E+03  0.00000000000E+00 0.  1.
          1    1    3    3  501    0 -0.22191502565E+02  0.11189051490E+03 -0.84865317042E+03  0.85628508908E+03  0.00000000000E+00 0.  1.
         21    1    1    2  502  501 -0.20113386371E+02 -0.15041647656E+02 -0.26888815482E+02  0.36794128248E+02  0.00000000000E+00 0. -1.
<mgrwt>
<rscale>  1 0.30000000E+03</rscale>
<asrwt>0</asrwt>
<pdfrwt beam="1">  1        1 0.11965567E+00 0.30000000E+03</pdfrwt>
<pdfrwt beam="2">0</pdfrwt>
<totfact> 0.26112909E+01</totfact>
</mgrwt>
</event>
<event>
 6    1  0.1839160E-004  0.3000000E+03  0.7818608E-02  0.1093470E+00
          1   -1    0    0  502    0  0.00000000000E+00  0.00000000000E+00  0.31318300252E+02  0.31318300252E+02  0.00000000000E+00 0.  1.
         13   -1    0    0    0    0 -0.00000000000E+00 -0.00000000000E+00 -0.10000000000E+04  0.10000000000E+04  0.00000000000E+00 0.  1.
    9000005    2    1    2  501    0 -0.15669102583E+02 -0.25099198395E+01 -0.96254414674E+03  0.10143038937E+04  0.31948291641E+03 0.  0.
         13    1    3    3    0    0 -0.78082515080E+02 -0.13295790542E+03 -0.31377388552E+03  0.34961226381E+03  0.00000000000E+00 0.  1.
          3    1    3    3  501    0  0.62413412498E+02  0.13044798558E+03 -0.64877026122E+03  0.66469162989E+03  0.00000000000E+00 0.  1.
         21    1    1    2  502  501  0.15669102583E+02  0.25099198395E+01 -0.61375530061E+01  0.17014406550E+02  0.00000000000E+00 0.  1.
<mgrwt>
<rscale>  1 0.30000000E+03</rscale>
<asrwt>0</asrwt>
<pdfrwt beam="1">  1        1 0.11388497E+00 0.30000000E+03</pdfrwt>
<pdfrwt beam="2">0</pdfrwt>
<totfact> 0.28183557E+01</totfact>
</mgrwt>
</event>
<event>
 6    1  0.1839160E-004  0.3000000E+03  0.7818608E-02  0.1093470E+00
          1   -1    0    0  502    0  0.00000000000E+00  0.00000000000E+00  0.35431599190E+02  0.35431599190E+02  0.00000000000E+00 0.  1.
         13   -1    0    0    0    0 -0.00000000000E+00 -0.00000000000E+00 -0.10000000000E+04  0.10000000000E+04  0.00000000000E+00 0.  1.
    9000005    2    1    2  501    0  0.42200925663E+01 -0.14916282550E+02 -0.96176580883E+03  0.10196785300E+04  0.33839404383E+03 0.  0.
         13    1    3    3    0    0 -0.90291202400E+02  0.52192046283E+02 -0.85735146904E+03  0.86367126408E+03  0.00000000000E+00 0.  1.
          3    1    3    3  501    0  0.94511294966E+02 -0.67108328832E+02 -0.10441433978E+03  0.15600726594E+03  0.00000000000E+00 0.  1.
         21    1    1    2  502  501 -0.42200925663E+01  0.14916282550E+02 -0.28025919847E+01  0.15753069168E+02  0.00000000000E+00 0. -1.
<mgrwt>
<rscale>  1 0.30000000E+03</rscale>
<asrwt>0</asrwt>
<pdfrwt beam="1">  1        1 0.12884245E+00 0.30000000E+03</pdfrwt>
<pdfrwt beam="2">0</pdfrwt>
<totfact> 0.23214972E+01</totfact>
</mgrwt>
</event>
<event>
 6    1  0.1839160E-004  0.3000000E+03  0.7818608E-02  0.1093470E+00
          1   -1    0    0  502    0  0.00000000000E+00  0.00000000000E+00  0.40335238777E+02  0.40335238777E+02  0.00000000000E+00 0.  1.
         13   -1    0    0    0    0 -0.00000000000E+00 -0.00000000000E+00 -0.10000000000E+04  0.10000000000E+04  0.00000000000E+00 0.  1.
    9000005    2    1    2  501    0 -0.23145053738E+01  0.40973848004E+02 -0.93500205377E+03  0.99245557405E+03  0.33023478429E+03 0.  0.
         13    1    3    3    0    0  0.59896351999E+02 -0.52954011106E+02 -0.38201635066E+02  0.88606236783E+02  0.00000000000E+00 0.  1.
          1    1    3    3  501    0 -0.62210857373E+02  0.93927859110E+02 -0.89680041871E+03  0.90384933727E+03  0.00000000000E+00 0.  1.
         21    1    1    2  502  501  0.23145053738E+01 -0.40973848004E+02 -0.24662707451E+02  0.47879664725E+02  0.00000000000E+00 0.  1.
<mgrwt>
<rscale>  1 0.30000000E+03</rscale>
<asrwt>0</asrwt>
<pdfrwt beam="1">  1        1 0.14667390E+00 0.30000000E+03</pdfrwt>
<pdfrwt beam="2">0</pdfrwt>
<totfact> 0.18681851E+01</totfact>
</mgrwt>
</event>
<event>
 6    1  0.1839160E-004  0.3000000E+03  0.7818608E-02  0.1093470E+00
          1   -1    0    0  502    0  0.00000000000E+00  0.00000000000E+00  0.48166764196E+02  0.48166764196E+02  0.00000000000E+00 0.  1.
         13   -1    0    0    0    0 -0.00000000000E+00 -0.00000000000E+00 -0.10000000000E+04  0.10000000000E+04  0.00000000000E+00 0.  1.
    9000005    2    1    2  501    0 -0.35708578668E+02 -0.57031777752E+02 -0.84782108910E+03  0.92428677014E+03  0.36190842499E+03 0.  0.
         13    1    3    3    0    0  0.63750795672E+02 -0.39896869728E+00  0.48802608515E+01  0.63938564816E+02  0.00000000000E+00 0.  1.
          1    1    3    3  501    0 -0.99459374339E+02 -0.56632809055E+02 -0.85270134995E+03  0.86034820533E+03  0.00000000000E+00 0.  1.
         21    1    1    2  502  501  0.35708578668E+02  0.57031777752E+02 -0.10401214671E+03  0.12387999405E+03  0.00000000000E+00 0. -1.
<mgrwt>
<rscale>  1 0.30000000E+03</rscale>
<asrwt>0</asrwt>
<pdfrwt beam="1">  1        1 0.17515224E+00 0.30000000E+03</pdfrwt>
<pdfrwt beam="2">0</pdfrwt>
<totfact> 0.13484856E+01</totfact>
</mgrwt>
</event>
<event>
 6    1  0.1839160E-004  0.3000000E+03  0.7818608E-02  0.1093470E+00
          3   -1    0    0  502    0  0.00000000000E+00  0.00000000000E+00  0.33590267828E+02  0.33590267828E+02  0.00000000000E+00 0.  1.
         13   -1    0    0    0    0 -0.00000000000E+00 -0.00000000000E+00 -0.10000000000E+04  0.10000000000E+04  0.00000000000E+00 0.  1.
    9000005    2    1    2  501    0 -0.88414365855E+01 -0.18899107817E+02 -0.94191012963E+03  0.10014098731E+04  0.33939901953E+03 0.  0.
         13    1    3    3    0    0  0.14303224961E+03  0.46522402946E+02 -0.63729635244E+03  0.65480470313E+03  0.00000000000E+00 0.  1.
          1    1    3    3  501    0 -0.15187368620E+03 -0.65421510763E+02 -0.30461377719E+03  0.34660517002E+03  0.00000000000E+00 0.  1.
         21    1    1    2  502  501  0.88414365855E+01  0.18899107817E+02 -0.24499602545E+02  0.32180394684E+02  0.00000000000E+00 0. -1.
<mgrwt>
<rscale>  1 0.30000000E+03</rscale>
<asrwt>0</asrwt>
<pdfrwt beam="1">  1        3 0.12214669E+00 0.30000000E+03</pdfrwt>
<pdfrwt beam="2">0</pdfrwt>
<totfact> 0.21840320E+00</totfact>
</mgrwt>
</event>
<event>
 6    1  0.1839160E-004  0.3000000E+03  0.7818608E-02  0.1093470E+00
          1   -1    0    0  502    0  0.00000000000E+00  0.00000000000E+00  0.36763951657E+02  0.36763951657E+02  0.00000000000E+00 0.  1.
         13   -1    0    0    0    0 -0.00000000000E+00 -0.00000000000E+00 -0.10000000000E+04  0.10000000000E+04  0.00000000000E+00 0.  1.
    9000005    2    1    2  501    0 -0.96825548384E+01 -0.34718065652E+02 -0.91255889929E+03  0.97457657844E+03  0.34020092097E+03 0.  0.
         13    1    3    3    0    0 -0.16704889678E+03  0.20649859591E+02 -0.36043137925E+03  0.39779709623E+03  0.00000000000E+00 0.  1.
          1    1    3    3  501    0  0.15736634195E+03 -0.55367925243E+02 -0.55212752004E+03  0.57677948222E+03  0.00000000000E+00 0.  1.
         21    1    1    2  502  501  0.96825548384E+01  0.34718065652E+02 -0.50677149053E+02  0.62187373212E+02  0.00000000000E+00 0.  1.
<mgrwt>
<rscale>  1 0.30000000E+03</rscale>
<asrwt>0</asrwt>
<pdfrwt beam="1">  1        1 0.13368738E+00 0.30000000E+03</pdfrwt>
<pdfrwt beam="2">0</pdfrwt>
<totfact> 0.21853252E+01</totfact>
</mgrwt>
</event>
<event>
 6    1  0.1839160E-004  0.3000000E+03  0.7818608E-02  0.1093470E+00
          3   -1    0    0  502    0  0.00000000000E+00  0.00000000000E+00  0.29506199264E+02  0.29506199264E+02  0.00000000000E+00 0.  1.
         13   -1    0    0    0    0 -0.00000000000E+00 -0.00000000000E+00 -0.10000000000E+04  0.10000000000E+04  0.00000000000E+00 0.  1.
    9000005    2    1    2  501    0 -0.84746459528E+01  0.12299430771E+02 -0.95780861799E+03  0.10099100394E+04  0.31984034034E+03 0.  0.
         13    1    3    3    0    0 -0.85245600613E+02  0.78857622085E+02 -0.12382032875E+03  0.16975514954E+03  0.00000000000E+00 0.  1.
          1    1    3    3  501    0  0.76770954661E+02 -0.66558191315E+02 -0.83398828924E+03  0.84015488983E+03  0.00000000000E+00 0.  1.
         21    1    1    2  502  501  0.84746459528E+01 -0.12299430771E+02 -0.12685182749E+02  0.19596159896E+02  0.00000000000E+00 0. -1.
<mgrwt>
<rscale>  1 0.30000000E+03</rscale>
<asrwt>0</asrwt>
<pdfrwt beam="1">  1        3 0.10729550E+00 0.30000000E+03</pdfrwt>
<pdfrwt beam="2">0</pdfrwt>
<totfact> 0.32351669E+00</totfact>
</mgrwt>
</event>
<event>
 6    1  0.1839160E-004  0.3000000E+03  0.7818608E-02  0.1093470E+00
          1   -1    0    0  502    0  0.00000000000E+00  0.00000000000E+00  0.61985086835E+02  0.61985086835E+02  0.00000000000E+00 0.  1.
         13   -1    0    0    0    0 -0.00000000000E+00 -0.00000000000E+00 -0.10000000000E+04  0.10000000000E+04  0.00000000000E+00 0.  1.
    9000005    2    1    2  501    0 -0.10686019384E+02 -0.32303761620E+01 -0.97349443037E+03  0.10247906991E+04  0.31996866188E+03 0.  0.
         13    1    3    3    0    0  0.10658259239E+03 -0.80329084154E+02 -0.21229921330E+03  0.25076596007E+03  0.00000000000E+00 0.  1.
          3    1    3    3  501    0 -0.11726861177E+03  0.77098707993E+02 -0.76119521707E+03  0.77402473900E+03  0.00000000000E+00 0.  1.
         21    1    1    2  502  501  0.10686019384E+02  0.32303761620E+01  0.35479517207E+02  0.37194387771E+02  0.00000000000E+00 0.  1.
<mgrwt>
<rscale>  1 0.30000000E+03</rscale>
<asrwt>0</asrwt>
<pdfrwt beam="1">  1        1 0.22540079E+00 0.30000000E+03</pdfrwt>
<pdfrwt beam="2">0</pdfrwt>
<totfact> 0.77766830E+00</totfact>
</mgrwt>
</event>
<event>
 6    1  0.1839160E-004  0.3000000E+03  0.7818608E-02  0.1093470E+00
          1   -1    0    0  502    0  0.00000000000E+00  0.00000000000E+00  0.34934082418E+02  0.34934082418E+02  0.00000000000E+00 0.  1.
         13   -1    0    0    0    0 -0.00000000000E+00 -0.00000000000E+00 -0.10000000000E+04  0.10000000000E+04  0.00000000000E+00 0.  1.
    9000005    2    1    2  501    0 -0.46402436497E+01 -0.42249865306E+02 -0.91569453771E+03  0.96978720122E+03  0.31651879292E+03 0.  0.
         13    1    3    3    0    0  0.57333820954E+02  0.89905030295E+01 -0.87982370350E+03  0.88173564372E+03  0.00000000000E+00 0.  1.
          1    1    3    3  501    0 -0.61974064603E+02 -0.51240368336E+02 -0.35870834212E+02  0.88051557497E+02  0.00000000000E+00 0.  1.
         21    1    1    2  502  501  0.46402436497E+01  0.42249865306E+02 -0.49371379868E+02  0.65146881196E+02  0.00000000000E+00 0. -1.
<mgrwt>
<rscale>  1 0.30000000E+03</rscale>
<asrwt>0</asrwt>
<pdfrwt beam="1">  1        1 0.12703329E+00 0.30000000E+03</pdfrwt>
<pdfrwt beam="2">0</pdfrwt>
<totfact> 0.23751658E+01</totfact>
</mgrwt>
</event>
<event>
 6    1  0.1839160E-004  0.3000000E+03  0.7818608E-02  0.1093470E+00
          1   -1    0    0  502    0  0.00000000000E+00  0.00000000000E+00  0.47630708223E+02  0.47630708223E+02  0.00000000000E+00 0.  1.
         13   -1    0    0    0    0 -0.00000000000E+00 -0.00000000000E+00 -0.10000000000E+04  0.10000000000E+04  0.00000000000E+00 0.  1.
    9000005    2    1    2  501    0 -0.23857837939E+01  0.11833229030E+02 -0.97150354529E+03  0.10250068949E+04  0.32661028571E+03 0.  0.
         13    1    3    3    0    0  0.14882382841E+01 -0.15487422850E+03 -0.37739658134E+03  0.40794168837E+03  0.00000000000E+00 0.  1.
          1    1    3    3  501    0 -0.38740220780E+01  0.16670745753E+03 -0.59410696395E+03  0.61706520649E+03  0.00000000000E+00 0.  1.
         21    1    1    2  502  501  0.23857837939E+01 -0.11833229030E+02  0.19134253510E+02  0.22623813360E+02  0.00000000000E+00 0.  1.
<mgrwt>
<rscale>  1 0.30000000E+03</rscale>
<asrwt>0</asrwt>
<pdfrwt beam="1">  1        1 0.17320294E+00 0.30000000E+03</pdfrwt>
<pdfrwt beam="2">0</pdfrwt>
<totfact> 0.13782451E+01</totfact>
</mgrwt>
</event>
<event>
 6    1  0.1839160E-004  0.3000000E+03  0.7818608E-02  0.1093470E+00
          1   -1    0    0  502    0  0.00000000000E+00  0.00000000000E+00  0.33986224220E+02  0.33986224220E+02  0.00000000000E+00 0.  1.
         13   -1    0    0    0    0 -0.00000000000E+00 -0.00000000000E+00 -0.10000000000E+04  0.10000000000E+04  0.00000000000E+00 0.  1.
    9000005    2    1    2  501    0  0.22541569762E+01  0.24529652432E+02 -0.95092477586E+03  0.10050991511E+04  0.32459141890E+03 0.  0.
         13    1    3    3    0    0  0.92762392072E+02  0.69579169785E+02 -0.11580072926E+03  0.16387779333E+03  0.00000000000E+00 0.  1.
          1    1    3    3  501    0 -0.90508235095E+02 -0.45049517353E+02 -0.83512404660E+03  0.84122135781E+03  0.00000000000E+00 0.  1.
         21    1    1    2  502  501 -0.22541569762E+01 -0.24529652432E+02 -0.15088999924E+02  0.28887073074E+02  0.00000000000E+00 0.  1.
<mgrwt>
<rscale>  1 0.30000000E+03</rscale>
<asrwt>0</asrwt>
<pdfrwt beam="1">  1        1 0.12358653E+00 0.30000000E+03</pdfrwt>
<pdfrwt beam="2">0</pdfrwt>
<totfact> 0.24818786E+01</totfact>
</mgrwt>
</event>
<event>
 6    1  0.1839160E-004  0.3000000E+03  0.7818608E-02  0.1093470E+00
          1   -1    0    0  502    0  0.00000000000E+00  0.00000000000E+00  0.62497374190E+02  0.62497374190E+02  0.00000000000E+00 0.  1.
         13   -1    0    0    0    0 -0.00000000000E+00 -0.00000000000E+00 -0.10000000000E+04  0.10000000000E+04  0.00000000000E+00 0.  1.
    9000005    2    1    2  501    0  0.98817462521E+02 -0.15621442992E+02 -0.88747330433E+03  0.95064097791E+03  0.32573069031E+03 0.  0.
         13    1    3    3    0    0 -0.11757536355E+03 -0.32705209500E+02 -0.27581651533E+03  0.30160959364E+03  0.00000000000E+00 0.  1.
          3    1    3    3  501    0  0.21639282607E+03  0.17083766507E+02 -0.61165678900E+03  0.64903138428E+03  0.00000000000E+00 0.  1.
         21    1    1    2  502  501 -0.98817462521E+02  0.15621442992E+02 -0.50029321479E+02  0.11185639628E+03  0.00000000000E+00 0.  1.
<mgrwt>
<rscale>  1 0.30000000E+03</rscale>
<asrwt>0</asrwt>
<pdfrwt beam="1">  1        1 0.22726366E+00 0.30000000E+03</pdfrwt>
<pdfrwt beam="2">0</pdfrwt>
<totfact> 0.76220029E+00</totfact>
</mgrwt>
</event>
<event>
 6    1  0.1839160E-004  0.3000000E+03  0.7818608E-02  0.1093470E+00
          1   -1    0    0  502    0  0.00000000000E+00  0.00000000000E+00  0.62463489937E+02  0.62463489937E+02  0.00000000000E+00 0.  1.
         13   -1    0    0    0    0 -0.00000000000E+00 -0.00000000000E+00 -0.10000000000E+04  0.10000000000E+04  0.00000000000E+00 0.  1.
    9000005    2    1    2  501    0  0.66245229083E+02  0.12075151833E+03 -0.76517322907E+03  0.84183153352E+03  0.32283262040E+03 0.  0.
         13    1    3    3    0    0  0.95106718401E+02 -0.93764295908E+02 -0.26192830066E+03  0.29401269659E+03  0.00000000000E+00 0.  1.
          3    1    3    3  501    0 -0.28861489318E+02  0.21451581424E+03 -0.50324492841E+03  0.54781883693E+03  0.00000000000E+00 0.  1.
         21    1    1    2  502  501 -0.66245229083E+02 -0.12075151833E+03 -0.17236328099E+03  0.22063195641E+03  0.00000000000E+00 0.  1.
<mgrwt>
<rscale>  1 0.30000000E+03</rscale>
<asrwt>0</asrwt>
<pdfrwt beam="1">  1        1 0.22714044E+00 0.30000000E+03</pdfrwt>
<pdfrwt beam="2">0</pdfrwt>
<totfact> 0.76321372E+00</totfact>
</mgrwt>
</event>
<event>
 6    1  0.1839160E-004  0.3000000E+03  0.7818608E-02  0.1093470E+00
          1   -1    0    0  502    0  0.00000000000E+00  0.00000000000E+00  0.27851668529E+02  0.27851668529E+02  0.00000000000E+00 0.  1.
         13   -1    0    0    0    0 -0.00000000000E+00 -0.00000000000E+00 -0.10000000000E+04  0.10000000000E+04  0.00000000000E+00 0.  1.
    9000005    2    1    2  501    0  0.27385109677E+01  0.95793790027E+01 -0.96157499180E+03  0.10133237831E+04  0.31952990551E+03 0.  0.
         13    1    3    3    0    0 -0.10894823748E+03 -0.10484559028E+03 -0.58465233634E+03  0.60388796200E+03  0.00000000000E+00 0.  1.
          1    1    3    3  501    0  0.11168674845E+03  0.11442496928E+03 -0.37692265546E+03  0.40943582107E+03  0.00000000000E+00 0.  1.
         21    1    1    2  502  501 -0.27385109677E+01 -0.95793790027E+01 -0.10573339670E+02  0.14527885468E+02  0.00000000000E+00 0.  1.
<mgrwt>
<rscale>  1 0.30000000E+03</rscale>
<asrwt>0</asrwt>
<pdfrwt beam="1">  1        1 0.10127901E+00 0.30000000E+03</pdfrwt>
<pdfrwt beam="2">0</pdfrwt>
<totfact> 0.33595588E+01</totfact>
</mgrwt>
</event>
<event>
 6    1  0.1839160E-004  0.3000000E+03  0.7818608E-02  0.1093470E+00
          1   -1    0    0  502    0  0.00000000000E+00  0.00000000000E+00  0.28186673503E+02  0.28186673503E+02  0.00000000000E+00 0.  1.
         13   -1    0    0    0    0 -0.00000000000E+00 -0.00000000000E+00 -0.10000000000E+04  0.10000000000E+04  0.00000000000E+00 0.  1.
    9000005    2    1    2  501    0  0.11519114213E+02  0.73988540450E+01 -0.94688870081E+03  0.99974954989E+03  0.32048949712E+03 0.  0.
         13    1    3    3    0    0 -0.18424417226E+02  0.15356773690E+03 -0.64120949223E+03  0.65959997111E+03  0.00000000000E+00 0.  1.
          1    1    3    3  501    0  0.29943531439E+02 -0.14616888285E+03 -0.30567920858E+03  0.34014957878E+03  0.00000000000E+00 0.  1.
         21    1    1    2  502  501 -0.11519114213E+02 -0.73988540450E+01 -0.24924625691E+02  0.28437123611E+02  0.00000000000E+00 0.  1.
<mgrwt>
<rscale>  1 0.30000000E+03</rscale>
<asrwt>0</asrwt>
<pdfrwt beam="1">  1        1 0.10249721E+00 0.30000000E+03</pdfrwt>
<pdfrwt beam="2">0</pdfrwt>
<totfact> 0.33010005E+01</totfact>
</mgrwt>
</event>
<event>
 6    1  0.1839160E-004  0.3000000E+03  0.7818608E-02  0.1093470E+00
          1   -1    0    0  502    0  0.00000000000E+00  0.00000000000E+00  0.38463804549E+02  0.38463804549E+02  0.00000000000E+00 0.  1.
         13   -1    0    0    0    0 -0.00000000000E+00 -0.00000000000E+00 -0.10000000000E+04  0.10000000000E+04  0.00000000000E+00 0.  1.
    9000005    2    1    2  501    0  0.85553356135E+01 -0.72724066681E+01 -0.97272413413E+03  0.10226128854E+04  0.31530745407E+03 0.  0.
         13    1    3    3    0    0 -0.10927760985E+03  0.70774748746E+02 -0.21135927999E+03  0.24824062180E+03  0.00000000000E+00 0.  1.
          1    1    3    3  501    0  0.11783294546E+03 -0.78047155414E+02 -0.76136485414E+03  0.77437226359E+03  0.00000000000E+00 0.  1.
         21    1    1    2  502  501 -0.85553356135E+01  0.72724066681E+01  0.11187938677E+02  0.15850919154E+02  0.00000000000E+00 0. -1.
<mgrwt>
<rscale>  1 0.30000000E+03</rscale>
<asrwt>0</asrwt>
<pdfrwt beam="1">  1        1 0.13986868E+00 0.30000000E+03</pdfrwt>
<pdfrwt beam="2">0</pdfrwt>
<totfact> 0.20264345E+01</totfact>
</mgrwt>
</event>
<event>
 6    1  0.1839160E-004  0.3000000E+03  0.7818608E-02  0.1093470E+00
          1   -1    0    0  502    0  0.00000000000E+00  0.00000000000E+00  0.25112272831E+02  0.25112272831E+02  0.00000000000E+00 0.  1.
         13   -1    0    0    0    0 -0.00000000000E+00 -0.00000000000E+00 -0.10000000000E+04  0.10000000000E+04  0.00000000000E+00 0.  1.
    9000005    2    1    2  501    0  0.29461881750E+02  0.11481518029E+02 -0.89368036958E+03  0.93796605858E+03  0.28304751603E+03 0.  0.
         13    1    3    3    0    0  0.24430220145E+01 -0.13214601553E+03 -0.32596067704E+03  0.35173697666E+03  0.00000000000E+00 0.  1.
          3    1    3    3  501    0  0.27018859735E+02  0.14362753356E+03 -0.56771969255E+03  0.58622908191E+03  0.00000000000E+00 0.  1.
         21    1    1    2  502  501 -0.29461881750E+02 -0.11481518029E+02 -0.81207357585E+02  0.87146214252E+02  0.00000000000E+00 0.  1.
<mgrwt>
<rscale>  1 0.30000000E+03</rscale>
<asrwt>0</asrwt>
<pdfrwt beam="1">  1        1 0.91317548E-01 0.30000000E+03</pdfrwt>
<pdfrwt beam="2">0</pdfrwt>
<totfact> 0.39017921E+01</totfact>
</mgrwt>
</event>
<event>
 6    1  0.1839160E-004  0.3000000E+03  0.7818608E-02  0.1093470E+00
          1   -1    0    0  502    0  0.00000000000E+00  0.00000000000E+00  0.43545911060E+02  0.43545911060E+02  0.00000000000E+00 0.  1.
         13   -1    0    0    0    0 -0.00000000000E+00 -0.00000000000E+00 -0.10000000000E+04  0.10000000000E+04  0.00000000000E+00 0.  1.
    9000005    2    1    2  501    0 -0.16360680366E+01 -0.13453434425E+02 -0.97125562257E+03  0.10234771041E+04  0.32246585329E+03 0.  0.
         13    1    3    3    0    0  0.11353961145E+02 -0.13977210134E+03 -0.78888261516E+03  0.80124960733E+03  0.00000000000E+00 0.  1.
          1    1    3    3  501    0 -0.12990029182E+02  0.12631866692E+03 -0.18237300741E+03  0.22222749673E+03  0.00000000000E+00 0.  1.
         21    1    1    2  502  501  0.16360680366E+01  0.13453434425E+02  0.14801533634E+02  0.20068806999E+02  0.00000000000E+00 0.  1.
<mgrwt>
<rscale>  1 0.30000000E+03</rscale>
<asrwt>0</asrwt>
<pdfrwt beam="1">  1        1 0.15834910E+00 0.30000000E+03</pdfrwt>
<pdfrwt beam="2">0</pdfrwt>
<totfact> 0.16308614E+01</totfact>
</mgrwt>
</event>
<event>
 6    1  0.1839160E-004  0.3000000E+03  0.7818608E-02  0.1093470E+00
          1   -1    0    0  502    0  0.00000000000E+00  0.00000000000E+00  0.31228097978E+02  0.31228097978E+02  0.00000000000E+00 0.  1.
         13   -1    0    0    0    0 -0.00000000000E+00 -0.00000000000E+00 -0.10000000000E+04  0.10000000000E+04  0.00000000000E+00 0.  1.
    9000005    2    1    2  501    0 -0.19066498514E+02 -0.61535824244E+01 -0.94246389329E+03  0.99815984635E+03  0.32815162771E+03 0.  0.
         13    1    3    3    0    0  0.49152805572E+01 -0.26188301086E+02 -0.96130227485E+03  0.96167148795E+03  0.00000000000E+00 0.  1.
          1    1    3    3  501    0 -0.23981779072E+02  0.20034718661E+02  0.18838381560E+02  0.36488358405E+02  0.00000000000E+00 0.  1.
         21    1    1    2  502  501  0.19066498514E+02  0.61535824244E+01 -0.26308008729E+02  0.33068251625E+02  0.00000000000E+00 0. -1.
<mgrwt>
<rscale>  1 0.30000000E+03</rscale>
<asrwt>0</asrwt>
<pdfrwt beam="1">  1        1 0.11355696E+00 0.30000000E+03</pdfrwt>
<pdfrwt beam="2">0</pdfrwt>
<totfact> 0.28308040E+01</totfact>
</mgrwt>
</event>
<event>
 6    1  0.1839160E-004  0.3000000E+03  0.7818608E-02  0.1093470E+00
          1   -1    0    0  502    0  0.00000000000E+00  0.00000000000E+00  0.31826730966E+02  0.31826730966E+02  0.00000000000E+00 0.  1.
         13   -1    0    0    0    0 -0.00000000000E+00 -0.00000000000E+00 -0.10000000000E+04  0.10000000000E+04  0.00000000000E+00 0.  1.
    9000005    2    1    2  501    0  0.26549557924E+02  0.75178918750E+01 -0.91993247217E+03  0.97625180671E+03  0.32562315493E+03 0.  0.
         13    1    3    3    0    0 -0.59278332264E+02  0.13317814626E+03 -0.25129055018E+03  0.29051209945E+03  0.00000000000E+00 0.  1.
          1    1    3    3  501    0  0.85827890188E+02 -0.12566025439E+03 -0.66864192199E+03  0.68573970725E+03  0.00000000000E+00 0.  1.
         21    1    1    2  502  501 -0.26549557924E+02 -0.75178918750E+01 -0.48240796864E+02  0.55574924258E+02  0.00000000000E+00 0. -1.
<mgrwt>
<rscale>  1 0.30000000E+03</rscale>
<asrwt>0</asrwt>
<pdfrwt beam="1">  1        1 0.11573381E+00 0.30000000E+03</pdfrwt>
<pdfrwt beam="2">0</pdfrwt>
<totfact> 0.27496140E+01</totfact>
</mgrwt>
</event>
<event>
 6    1  0.1839160E-004  0.3000000E+03  0.7818608E-02  0.1093470E+00
          1   -1    0    0  502    0  0.00000000000E+00  0.00000000000E+00  0.40494536277E+02  0.40494536277E+02  0.00000000000E+00 0.  1.
         13   -1    0    0    0    0 -0.00000000000E+00 -0.00000000000E+00 -0.10000000000E+04  0.10000000000E+04  0.00000000000E+00 0.  1.
    9000005    2    1    2  501    0 -0.47647708856E+02  0.32527328614E+02 -0.84899645844E+03  0.91583270765E+03  0.33856495788E+03 0.  0.
         13    1    3    3    0    0 -0.95952391146E+02 -0.77488878997E+02 -0.75021747703E+03  0.76028787349E+03  0.00000000000E+00 0.  1.
          3    1    3    3  501    0  0.48304682290E+02  0.11001620761E+03 -0.98778981410E+02  0.15554483417E+03  0.00000000000E+00 0.  1.
         21    1    1    2  502  501  0.47647708856E+02 -0.32527328614E+02 -0.11050900529E+03  0.12466182862E+03  0.00000000000E+00 0.  1.
<mgrwt>
<rscale>  1 0.30000000E+03</rscale>
<asrwt>0</asrwt>
<pdfrwt beam="1">  1        1 0.14725317E+00 0.30000000E+03</pdfrwt>
<pdfrwt beam="2">0</pdfrwt>
<totfact> 0.18554460E+01</totfact>
</mgrwt>
</event>
<event>
 6    1  0.1839160E-004  0.3000000E+03  0.7818608E-02  0.1093470E+00
          1   -1    0    0  502    0  0.00000000000E+00  0.00000000000E+00  0.54375239335E+02  0.54375239335E+02  0.00000000000E+00 0.  1.
         13   -1    0    0    0    0 -0.00000000000E+00 -0.00000000000E+00 -0.10000000000E+04  0.10000000000E+04  0.00000000000E+00 0.  1.
    9000005    2    1    2  501    0  0.81886415399E+02 -0.49508212084E+02 -0.86455295287E+03  0.92895958596E+03  0.32612521515E+03 0.  0.
         13    1    3    3    0    0  0.20268317350E+03 -0.38447071869E+02 -0.65624276903E+03  0.68790494842E+03  0.00000000000E+00 0.  1.
          3    1    3    3  501    0 -0.12079675811E+03 -0.11061140215E+02 -0.20831018384E+03  0.24105463755E+03  0.00000000000E+00 0.  1.
         21    1    1    2  502  501 -0.81886415399E+02  0.49508212084E+02 -0.81071807799E+02  0.12541565337E+03  0.00000000000E+00 0.  1.
<mgrwt>
<rscale>  1 0.30000000E+03</rscale>
<asrwt>0</asrwt>
<pdfrwt beam="1">  1        1 0.19772856E+00 0.30000000E+03</pdfrwt>
<pdfrwt beam="2">0</pdfrwt>
<totfact> 0.10501451E+01</totfact>
</mgrwt>
</event>
<event>
 6    1  0.1839160E-004  0.3000000E+03  0.7818608E-02  0.1093470E+00
          1   -1    0    0  502    0  0.00000000000E+00  0.00000000000E+00  0.30734390093E+02  0.30734390093E+02  0.00000000000E+00 0.  1.
         13   -1    0    0    0    0 -0.00000000000E+00 -0.00000000000E+00 -0.10000000000E+04  0.10000000000E+04  0.00000000000E+00 0.  1.
    9000005    2    1    2  501    0  0.45125321948E+01  0.94021030402E+01 -0.96321639384E+03  0.10186780431E+04  0.33137648014E+03 0.  0.
         13    1    3    3    0    0 -0.10227218087E+03  0.13174179708E+03 -0.54875963389E+03  0.57354392671E+03  0.00000000000E+00 0.  1.
          3    1    3    3  501    0  0.10678471306E+03 -0.12233969404E+03 -0.41445675996E+03  0.44513411637E+03  0.00000000000E+00 0.  1.
         21    1    1    2  502  501 -0.45125321948E+01 -0.94021030402E+01 -0.60492160660E+01  0.12056347017E+02  0.00000000000E+00 0.  1.
<mgrwt>
<rscale>  1 0.30000000E+03</rscale>
<asrwt>0</asrwt>
<pdfrwt beam="1">  1        1 0.11176165E+00 0.30000000E+03</pdfrwt>
<pdfrwt beam="2">0</pdfrwt>
<totfact> 0.29003462E+01</totfact>
</mgrwt>
</event>
<event>
 6    1  0.1839160E-004  0.3000000E+03  0.7818608E-02  0.1093470E+00
          1   -1    0    0  502    0  0.00000000000E+00  0.00000000000E+00  0.40652824477E+02  0.40652824477E+02  0.00000000000E+00 0.  1.
         13   -1    0    0    0    0 -0.00000000000E+00 -0.00000000000E+00 -0.10000000000E+04  0.10000000000E+04  0.00000000000E+00 0.  1.
    9000005    2    1    2  501    0 -0.45777202516E+02  0.29213826100E+02 -0.90360238807E+03  0.96282942675E+03  0.32801559320E+03 0.  0.
         13    1    3    3    0    0 -0.98724182764E+01  0.17290838236E+03 -0.36130489194E+03  0.40066943766E+03  0.00000000000E+00 0.  1.
          1    1    3    3  501    0 -0.35904784239E+02 -0.14369455626E+03 -0.54229749613E+03  0.56215998909E+03  0.00000000000E+00 0.  1.
         21    1    1    2  502  501  0.45777202516E+02 -0.29213826100E+02 -0.55744787450E+02  0.77823397724E+02  0.00000000000E+00 0.  1.
<mgrwt>
<rscale>  1 0.30000000E+03</rscale>
<asrwt>0</asrwt>
<pdfrwt beam="1">  1        1 0.14782876E+00 0.30000000E+03</pdfrwt>
<pdfrwt beam="2">0</pdfrwt>
<totfact> 0.18428953E+01</totfact>
</mgrwt>
</event>
<event>
 6    1  0.1839160E-004  0.3000000E+03  0.7818608E-02  0.1093470E+00
          1   -1    0    0  502    0  0.00000000000E+00  0.00000000000E+00  0.31148672532E+02  0.31148672532E+02  0.00000000000E+00 0.  1.
         13   -1    0    0    0    0 -0.00000000000E+00 -0.00000000000E+00 -0.10000000000E+04  0.10000000000E+04  0.00000000000E+00 0.  1.
    9000005    2    1    2  501    0 -0.89909527962E+01  0.10703950314E+02 -0.93959742946E+03  0.99872642194E+03  0.33825393517E+03 0.  0.
         13    1    3    3    0    0  0.12582481467E+03 -0.28272742885E+02 -0.75968472438E+03  0.77055312110E+03  0.00000000000E+00 0.  1.
          1    1    3    3  501    0 -0.13481576747E+03  0.38976693199E+02 -0.17991270508E+03  0.22817330085E+03  0.00000000000E+00 0.  1.
         21    1    1    2  502  501  0.89909527962E+01 -0.10703950314E+02 -0.29253898009E+02  0.32422250589E+02  0.00000000000E+00 0.  1.
<mgrwt>
<rscale>  1 0.30000000E+03</rscale>
<asrwt>0</asrwt>
<pdfrwt beam="1">  1        1 0.11326814E+00 0.30000000E+03</pdfrwt>
<pdfrwt beam="2">0</pdfrwt>
<totfact> 0.28418298E+01</totfact>
</mgrwt>
</event>
<event>
 6    1  0.1839160E-004  0.3000000E+03  0.7818608E-02  0.1093470E+00
          1   -1    0    0  502    0  0.00000000000E+00  0.00000000000E+00  0.34239765707E+02  0.34239765707E+02  0.00000000000E+00 0.  1.
         13   -1    0    0    0    0 -0.00000000000E+00 -0.00000000000E+00 -0.10000000000E+04  0.10000000000E+04  0.00000000000E+00 0.  1.
    9000005    2    1    2  501    0 -0.22505627054E+02 -0.83549580367E+01 -0.95113968942E+03  0.10061316013E+04  0.32719685482E+03 0.  0.
         13    1    3    3    0    0 -0.79513631208E+02 -0.13462716137E+03 -0.27865536182E+03  0.31952417874E+03  0.00000000000E+00 0.  1.
          3    1    3    3  501    0  0.57008004154E+02  0.12627220334E+03 -0.67248432760E+03  0.68660742258E+03  0.00000000000E+00 0.  1.
         21    1    1    2  502  501  0.22505627054E+02  0.83549580367E+01 -0.14620544871E+02  0.28108164387E+02  0.00000000000E+00 0. -1.
<mgrwt>
<rscale>  1 0.30000000E+03</rscale>
<asrwt>0</asrwt>
<pdfrwt beam="1">  1        1 0.12450850E+00 0.30000000E+03</pdfrwt>
<pdfrwt beam="2">0</pdfrwt>
<totfact> 0.24527465E+01</totfact>
</mgrwt>
</event>
<event>
 6    1  0.1839160E-004  0.3000000E+03  0.7818608E-02  0.1093470E+00
          1   -1    0    0  502    0  0.00000000000E+00  0.00000000000E+00  0.40705890177E+02  0.40705890177E+02  0.00000000000E+00 0.  1.
         13   -1    0    0    0    0 -0.00000000000E+00 -0.00000000000E+00 -0.10000000000E+04  0.10000000000E+04  0.00000000000E+00 0.  1.
    9000005    2    1    2  501    0  0.64661875183E+02  0.19481020195E+02 -0.81341632616E+03  0.87995454177E+03  0.32880572935E+03 0.  0.
         13    1    3    3    0    0  0.18066630917E+03  0.76232005335E+02 -0.59197401327E+03  0.62360633920E+03  0.00000000000E+00 0.  1.
          3    1    3    3  501    0 -0.11600443399E+03 -0.56750985139E+02 -0.22144231289E+03  0.25634820257E+03  0.00000000000E+00 0.  1.
         21    1    1    2  502  501 -0.64661875183E+02 -0.19481020195E+02 -0.14587778366E+03  0.16075134841E+03  0.00000000000E+00 0.  1.
<mgrwt>
<rscale>  1 0.30000000E+03</rscale>
<asrwt>0</asrwt>
<pdfrwt beam="1">  1        1 0.14802173E+00 0.30000000E+03</pdfrwt>
<pdfrwt beam="2">0</pdfrwt>
<totfact> 0.18387115E+01</totfact>
</mgrwt>
</event>
<event>
 6    1  0.1839160E-004  0.3000000E+03  0.7818608E-02  0.1093470E+00
          1   -1    0    0  502    0  0.00000000000E+00  0.00000000000E+00  0.48334613943E+02  0.48334613943E+02  0.00000000000E+00 0.  1.
         13   -1    0    0    0    0 -0.00000000000E+00 -0.00000000000E+00 -0.10000000000E+04  0.10000000000E+04  0.00000000000E+00 0.  1.
    9000005    2    1    2  501    0 -0.74731113727E+01  0.54570016017E+02 -0.86360949167E+03  0.94447136454E+03  0.37837953206E+03 0.  0.
         13    1    3    3    0    0 -0.21041462579E+02 -0.48082733396E+02  0.18992789906E+02  0.55815933807E+02  0.00000000000E+00 0.  1.
          1    1    3    3  501    0  0.13568351207E+02  0.10265274941E+03 -0.88260228158E+03  0.88865543073E+03  0.00000000000E+00 0.  1.
         21    1    1    2  502  501  0.74731113727E+01 -0.54570016017E+02 -0.88055894383E+02  0.10386324941E+03  0.00000000000E+00 0.  1.
<mgrwt>
<rscale>  1 0.30000000E+03</rscale>
<asrwt>0</asrwt>
<pdfrwt beam="1">  1        1 0.17576260E+00 0.30000000E+03</pdfrwt>
<pdfrwt beam="2">0</pdfrwt>
<totfact> 0.13393101E+01</totfact>
</mgrwt>
</event>
<event>
 6    1  0.1839160E-004  0.3000000E+03  0.7818608E-02  0.1093470E+00
          1   -1    0    0  502    0  0.00000000000E+00  0.00000000000E+00  0.45501088127E+02  0.45501088127E+02  0.00000000000E+00 0.  1.
         13   -1    0    0    0    0 -0.00000000000E+00 -0.00000000000E+00 -0.10000000000E+04  0.10000000000E+04  0.00000000000E+00 0.  1.
    9000005    2    1    2  501    0 -0.70248178610E+01  0.16624841253E+02 -0.96941971361E+03  0.10220839206E+04  0.32335000558E+03 0.  0.
         13    1    3    3    0    0 -0.26057427097E+02 -0.14312396798E+03 -0.62842448146E+03  0.64504324554E+03  0.00000000000E+00 0.  1.
          1    1    3    3  501    0  0.19032609236E+02  0.15974880924E+03 -0.34099523214E+03  0.37704067501E+03  0.00000000000E+00 0.  1.
         21    1    1    2  502  501  0.70248178610E+01 -0.16624841253E+02  0.14920801735E+02  0.23417167572E+02  0.00000000000E+00 0. -1.
<mgrwt>
<rscale>  1 0.30000000E+03</rscale>
<asrwt>0</asrwt>
<pdfrwt beam="1">  1        1 0.16545885E+00 0.30000000E+03</pdfrwt>
<pdfrwt beam="2">0</pdfrwt>
<totfact> 0.15038887E+01</totfact>
</mgrwt>
</event>
<event>
 6    1  0.1839160E-004  0.3000000E+03  0.7818608E-02  0.1093470E+00
          1   -1    0    0  502    0  0.00000000000E+00  0.00000000000E+00  0.34689709682E+02  0.34689709682E+02  0.00000000000E+00 0.  1.
         13   -1    0    0    0    0 -0.00000000000E+00 -0.00000000000E+00 -0.10000000000E+04  0.10000000000E+04  0.00000000000E+00 0.  1.
    9000005    2    1    2  501    0 -0.10083604777E+02 -0.63583466809E+01 -0.98173419677E+03  0.10143955637E+04  0.25505728552E+03 0.  0.
         13    1    3    3    0    0  0.22542635426E+02 -0.17935711016E+02 -0.97926450040E+03  0.97968812481E+03  0.00000000000E+00 0.  1.
          1    1    3    3  501    0 -0.32626240203E+02  0.11577364336E+02 -0.24696963716E+01  0.34707438899E+02  0.00000000000E+00 0.  1.
         21    1    1    2  502  501  0.10083604777E+02  0.63583466809E+01  0.16423906453E+02  0.20294145978E+02  0.00000000000E+00 0.  1.
<mgrwt>
<rscale>  1 0.30000000E+03</rscale>
<asrwt>0</asrwt>
<pdfrwt beam="1">  1        1 0.12614466E+00 0.30000000E+03</pdfrwt>
<pdfrwt beam="2">0</pdfrwt>
<totfact> 0.24021101E+01</totfact>
</mgrwt>
</event>
<event>
 6    1  0.1839160E-004  0.3000000E+03  0.7818608E-02  0.1093470E+00
          1   -1    0    0  502    0  0.00000000000E+00  0.00000000000E+00  0.32047467786E+02  0.32047467786E+02  0.00000000000E+00 0.  1.
         13   -1    0    0    0    0 -0.00000000000E+00 -0.00000000000E+00 -0.10000000000E+04  0.10000000000E+04  0.00000000000E+00 0.  1.
    9000005    2    1    2  501    0  0.38169982111E+01  0.24928850507E+02 -0.92524988522E+03  0.98245378751E+03  0.32938135562E+03 0.  0.
         13    1    3    3    0    0 -0.13584961730E+03  0.74070740545E+01 -0.18903914726E+03  0.23290724004E+03  0.00000000000E+00 0.  1.
          3    1    3    3  501    0  0.13966661551E+03  0.17521776452E+02 -0.73621073796E+03  0.74954654747E+03  0.00000000000E+00 0.  1.
         21    1    1    2  502  501 -0.38169982111E+01 -0.24928850507E+02 -0.42702646991E+02  0.49593680272E+02  0.00000000000E+00 0.  1.
<mgrwt>
<rscale>  1 0.30000000E+03</rscale>
<asrwt>0</asrwt>
<pdfrwt beam="1">  1        1 0.11653649E+00 0.30000000E+03</pdfrwt>
<pdfrwt beam="2">0</pdfrwt>
<totfact> 0.27204982E+01</totfact>
</mgrwt>
</event>
<event>
 6    1  0.1839160E-004  0.3000000E+03  0.7818608E-02  0.1093470E+00
          1   -1    0    0  502    0  0.00000000000E+00  0.00000000000E+00  0.61534308597E+02  0.61534308597E+02  0.00000000000E+00 0.  1.
         13   -1    0    0    0    0 -0.00000000000E+00 -0.00000000000E+00 -0.10000000000E+04  0.10000000000E+04  0.00000000000E+00 0.  1.
    9000005    2    1    2  501    0  0.92603465556E+01 -0.49284026464E+01 -0.94607789605E+03  0.10485732581E+04  0.45203146904E+03 0.  0.
         13    1    3    3    0    0  0.92033100817E+02 -0.15588220568E+03 -0.80758201054E+03  0.82762192905E+03  0.00000000000E+00 0.  1.
          1    1    3    3  501    0 -0.82772754261E+02  0.15095380303E+03 -0.13849588551E+03  0.22095132903E+03  0.00000000000E+00 0.  1.
         21    1    1    2  502  501 -0.92603465556E+01  0.49284026464E+01  0.76122046451E+01  0.12961050518E+02  0.00000000000E+00 0. -1.
<mgrwt>
<rscale>  1 0.30000000E+03</rscale>
<asrwt>0</asrwt>
<pdfrwt beam="1">  1        1 0.22376159E+00 0.30000000E+03</pdfrwt>
<pdfrwt beam="2">0</pdfrwt>
<totfact> 0.79154085E+00</totfact>
</mgrwt>
</event>
<event>
 6    1  0.1839160E-004  0.3000000E+03  0.7818608E-02  0.1093470E+00
          1   -1    0    0  502    0  0.00000000000E+00  0.00000000000E+00  0.41016192933E+02  0.41016192933E+02  0.00000000000E+00 0.  1.
         13   -1    0    0    0    0 -0.00000000000E+00 -0.00000000000E+00 -0.10000000000E+04  0.10000000000E+04  0.00000000000E+00 0.  1.
    9000005    2    1    2  501    0  0.62393607741E+01  0.15918088488E+02 -0.96826302824E+03  0.10215631955E+04  0.32521647459E+03 0.  0.
         13    1    3    3    0    0  0.12400434227E+03  0.24346802282E+02 -0.83080323582E+03  0.84035936381E+03  0.00000000000E+00 0.  1.
          3    1    3    3  501    0 -0.11776498150E+03 -0.84287137934E+01 -0.13745979242E+03  0.18120383168E+03  0.00000000000E+00 0.  1.
         21    1    1    2  502  501 -0.62393607741E+01 -0.15918088488E+02  0.92792211766E+01  0.19452997446E+02  0.00000000000E+00 0.  1.
<mgrwt>
<rscale>  1 0.30000000E+03</rscale>
<asrwt>0</asrwt>
<pdfrwt beam="1">  1        1 0.14915011E+00 0.30000000E+03</pdfrwt>
<pdfrwt beam="2">0</pdfrwt>
<totfact> 0.18144827E+01</totfact>
</mgrwt>
</event>
<event>
 6    1  0.1839160E-004  0.3000000E+03  0.7818608E-02  0.1093470E+00
          3   -1    0    0  502    0  0.00000000000E+00  0.00000000000E+00  0.30214957258E+02  0.30214957258E+02  0.00000000000E+00 0.  1.
         13   -1    0    0    0    0 -0.00000000000E+00 -0.00000000000E+00 -0.10000000000E+04  0.10000000000E+04  0.00000000000E+00 0.  1.
    9000005    2    1    2  501    0 -0.17282648104E+01  0.14659467132E+02 -0.95690564838E+03  0.10106250192E+04  0.32477164679E+03 0.  0.
         13    1    3    3    0    0 -0.12688213890E+03  0.87293816520E+02 -0.69039114157E+03  0.70736073961E+03  0.00000000000E+00 0.  1.
          1    1    3    3  501    0  0.12515387409E+03 -0.72634349388E+02 -0.26651450681E+03  0.30326427955E+03  0.00000000000E+00 0.  1.
         21    1    1    2  502  501  0.17282648104E+01 -0.14659467132E+02 -0.12879394363E+02  0.19589938106E+02  0.00000000000E+00 0. -1.
<mgrwt>
<rscale>  1 0.30000000E+03</rscale>
<asrwt>0</asrwt>
<pdfrwt beam="1">  1        3 0.10987280E+00 0.30000000E+03</pdfrwt>
<pdfrwt beam="2">0</pdfrwt>
<totfact> 0.30236976E+00</totfact>
</mgrwt>
</event>
<event>
 6    1  0.1839160E-004  0.3000000E+03  0.7818608E-02  0.1093470E+00
          1   -1    0    0  502    0  0.00000000000E+00  0.00000000000E+00  0.37348196795E+02  0.37348196795E+02  0.00000000000E+00 0.  1.
         13   -1    0    0    0    0 -0.00000000000E+00 -0.00000000000E+00 -0.10000000000E+04  0.10000000000E+04  0.00000000000E+00 0.  1.
    9000005    2    1    2  501    0  0.11707976700E+02 -0.33311474082E+02 -0.94766600276E+03  0.99899059991E+03  0.31410927222E+03 0.  0.
         13    1    3    3    0    0  0.12163199013E+03  0.79356859037E+02 -0.60039671086E+03  0.61771195756E+03  0.00000000000E+00 0.  1.
          3    1    3    3  501    0 -0.10992401343E+03 -0.11266833312E+03 -0.34726929190E+03  0.38127864235E+03  0.00000000000E+00 0.  1.
         21    1    1    2  502  501 -0.11707976700E+02  0.33311474082E+02 -0.14985800445E+02  0.38357596886E+02  0.00000000000E+00 0.  1.
<mgrwt>
<rscale>  1 0.30000000E+03</rscale>
<asrwt>0</asrwt>
<pdfrwt beam="1">  1        1 0.13581191E+00 0.30000000E+03</pdfrwt>
<pdfrwt beam="2">0</pdfrwt>
<totfact> 0.21289303E+01</totfact>
</mgrwt>
</event>
<event>
 6    1  0.1839160E-004  0.3000000E+03  0.7818608E-02  0.1093470E+00
          1   -1    0    0  502    0  0.00000000000E+00  0.00000000000E+00  0.61758228873E+02  0.61758228873E+02  0.00000000000E+00 0.  1.
         13   -1    0    0    0    0 -0.00000000000E+00 -0.00000000000E+00 -0.10000000000E+04  0.10000000000E+04  0.00000000000E+00 0.  1.
    9000005    2    1    2  501    0 -0.34146622286E+02 -0.69725024663E+00 -0.96504704592E+03  0.10183416338E+04  0.32332244636E+03 0.  0.
         13    1    3    3    0    0  0.45232237372E+02 -0.10426146707E+03 -0.79957007116E+03  0.80760677777E+03  0.00000000000E+00 0.  1.
          3    1    3    3  501    0 -0.79378859659E+02  0.10356421683E+03 -0.16547697476E+03  0.21073485602E+03  0.00000000000E+00 0.  1.
         21    1    1    2  502  501  0.34146622286E+02  0.69725024663E+00  0.26805274789E+02  0.43416595076E+02  0.00000000000E+00 0.  1.
<mgrwt>
<rscale>  1 0.30000000E+03</rscale>
<asrwt>0</asrwt>
<pdfrwt beam="1">  1        1 0.22457585E+00 0.30000000E+03</pdfrwt>
<pdfrwt beam="2">0</pdfrwt>
<totfact> 0.78461889E+00</totfact>
</mgrwt>
</event>
<event>
 6    1  0.1839160E-004  0.3000000E+03  0.7818608E-02  0.1093470E+00
          1   -1    0    0  502    0  0.00000000000E+00  0.00000000000E+00  0.63986483734E+02  0.63986483734E+02  0.00000000000E+00 0.  1.
         13   -1    0    0    0    0 -0.00000000000E+00 -0.00000000000E+00 -0.10000000000E+04  0.10000000000E+04  0.00000000000E+00 0.  1.
    9000005    2    1    2  501    0  0.12940328311E+02 -0.91298784675E+01 -0.97142875067E+03  0.10251915665E+04  0.32725085720E+03 0.  0.
         13    1    3    3    0    0 -0.72906787176E+02  0.56448865168E+02 -0.87662981142E+03  0.88146565461E+03  0.00000000000E+00 0.  1.
          1    1    3    3  501    0  0.85847115487E+02 -0.65578743636E+02 -0.94798939258E+02  0.14372591186E+03  0.00000000000E+00 0.  1.
         21    1    1    2  502  501 -0.12940328311E+02  0.91298784675E+01  0.35415234408E+02  0.38794917267E+02  0.00000000000E+00 0.  1.
<mgrwt>
<rscale>  1 0.30000000E+03</rscale>
<asrwt>0</asrwt>
<pdfrwt beam="1">  1        1 0.23267861E+00 0.30000000E+03</pdfrwt>
<pdfrwt beam="2">0</pdfrwt>
<totfact> 0.71898392E+00</totfact>
</mgrwt>
</event>
<event>
 6    1  0.1839160E-004  0.3000000E+03  0.7818608E-02  0.1093470E+00
          1   -1    0    0  502    0  0.00000000000E+00  0.00000000000E+00  0.77297897722E+02  0.77297897722E+02  0.00000000000E+00 0.  1.
         13   -1    0    0    0    0 -0.00000000000E+00 -0.00000000000E+00 -0.10000000000E+04  0.10000000000E+04  0.00000000000E+00 0.  1.
    9000005    2    1    2  501    0  0.30731681682E+02 -0.36209560547E+02 -0.96141430815E+03  0.10160263430E+04  0.32517147667E+03 0.  0.
         13    1    3    3    0    0  0.17679988951E+03 -0.43707651176E+02 -0.55236515770E+03  0.58161484432E+03  0.00000000000E+00 0.  1.
          3    1    3    3  501    0 -0.14606820783E+03  0.74980906298E+01 -0.40904915045E+03  0.43441149868E+03  0.00000000000E+00 0.  1.
         21    1    1    2  502  501 -0.30731681682E+02  0.36209560547E+02  0.38712205869E+02  0.61271554715E+02  0.00000000000E+00 0.  1.
<mgrwt>
<rscale>  1 0.30000000E+03</rscale>
<asrwt>0</asrwt>
<pdfrwt beam="1">  1        1 0.28108386E+00 0.30000000E+03</pdfrwt>
<pdfrwt beam="2">0</pdfrwt>
<totfact> 0.42678964E+00</totfact>
</mgrwt>
</event>
<event>
 6    1  0.1839160E-004  0.3000000E+03  0.7818608E-02  0.1093470E+00
          1   -1    0    0  502    0  0.00000000000E+00  0.00000000000E+00  0.26928121779E+02  0.26928121779E+02  0.00000000000E+00 0.  1.
         13   -1    0    0    0    0 -0.00000000000E+00 -0.00000000000E+00 -0.10000000000E+04  0.10000000000E+04  0.00000000000E+00 0.  1.
    9000005    2    1    2  501    0  0.78941456702E+01  0.13186639446E+02 -0.96305004093E+03  0.10085803094E+04  0.29922007656E+03 0.  0.
         13    1    3    3    0    0 -0.11593131793E+03  0.14259500942E+02 -0.77281963168E+03  0.78159681867E+03  0.00000000000E+00 0.  1.
          1    1    3    3  501    0  0.12382546360E+03 -0.10728614962E+01 -0.19023040925E+03  0.22698349075E+03  0.00000000000E+00 0.  1.
         21    1    1    2  502  501 -0.78941456702E+01 -0.13186639446E+02 -0.10021837291E+02  0.18347812361E+02  0.00000000000E+00 0. -1.
<mgrwt>
<rscale>  1 0.30000000E+03</rscale>
<asrwt>0</asrwt>
<pdfrwt beam="1">  1        1 0.97920649E-01 0.30000000E+03</pdfrwt>
<pdfrwt beam="2">0</pdfrwt>
<totfact> 0.35291328E+01</totfact>
</mgrwt>
</event>
<event>
 6    1  0.1839160E-004  0.3000000E+03  0.7818608E-02  0.1093470E+00
          1   -1    0    0  502    0  0.00000000000E+00  0.00000000000E+00  0.46635606780E+02  0.46635606780E+02  0.00000000000E+00 0.  1.
         13   -1    0    0    0    0 -0.00000000000E+00 -0.00000000000E+00 -0.10000000000E+04  0.10000000000E+04  0.00000000000E+00 0.  1.
    9000005    2    1    2  501    0 -0.22438250962E+02 -0.62267812161E+02 -0.90273475260E+03  0.96330424386E+03  0.32961231339E+03 0.  0.
         13    1    3    3    0    0  0.71203947719E+02 -0.17476088112E+03 -0.54689831485E+03  0.57854052107E+03  0.00000000000E+00 0.  1.
          3    1    3    3  501    0 -0.93642198681E+02  0.11249306896E+03 -0.35583643776E+03  0.38476372279E+03  0.00000000000E+00 0.  1.
         21    1    1    2  502  501  0.22438250962E+02  0.62267812161E+02 -0.50629640618E+02  0.83331362923E+02  0.00000000000E+00 0.  1.
<mgrwt>
<rscale>  1 0.30000000E+03</rscale>
<asrwt>0</asrwt>
<pdfrwt beam="1">  1        1 0.16958438E+00 0.30000000E+03</pdfrwt>
<pdfrwt beam="2">0</pdfrwt>
<totfact> 0.14354194E+01</totfact>
</mgrwt>
</event>
<event>
 6    1  0.1839160E-004  0.3000000E+03  0.7818608E-02  0.1093470E+00
          1   -1    0    0  502    0  0.00000000000E+00  0.00000000000E+00  0.31822071001E+02  0.31822071001E+02  0.00000000000E+00 0.  1.
         13   -1    0    0    0    0 -0.00000000000E+00 -0.00000000000E+00 -0.10000000000E+04  0.10000000000E+04  0.00000000000E+00 0.  1.
    9000005    2    1    2  501    0  0.13119108302E+02 -0.81935061118E+01 -0.96024193713E+03  0.10144374654E+04  0.32677140150E+03 0.  0.
         13    1    3    3    0    0 -0.92572015537E+02 -0.14168983653E+02 -0.87088533136E+03  0.87590615852E+03  0.00000000000E+00 0.  1.
          3    1    3    3  501    0  0.10569112384E+03  0.59754775407E+01 -0.89356605769E+02  0.13853130688E+03  0.00000000000E+00 0.  1.
         21    1    1    2  502  501 -0.13119108302E+02  0.81935061118E+01 -0.79359918736E+01  0.17384605606E+02  0.00000000000E+00 0.  1.
<mgrwt>
<rscale>  1 0.30000000E+03</rscale>
<asrwt>0</asrwt>
<pdfrwt beam="1">  1        1 0.11571687E+00 0.30000000E+03</pdfrwt>
<pdfrwt beam="2">0</pdfrwt>
<totfact> 0.27502333E+01</totfact>
</mgrwt>
</event>
<event>
 6    1  0.1839160E-004  0.3000000E+03  0.7818608E-02  0.1093470E+00
          1   -1    0    0  502    0  0.00000000000E+00  0.00000000000E+00  0.30483487587E+02  0.30483487587E+02  0.00000000000E+00 0.  1.
         13   -1    0    0    0    0 -0.00000000000E+00 -0.00000000000E+00 -0.10000000000E+04  0.10000000000E+04  0.00000000000E+00 0.  1.
    9000005    2    1    2  501    0 -0.17685341881E+01 -0.12358187500E+02 -0.96295765638E+03  0.10163813209E+04  0.32494259351E+03 0.  0.
         13    1    3    3    0    0 -0.67968739340E+02  0.91730863177E+02 -0.12459470168E+03  0.16899153965E+03  0.00000000000E+00 0.  1.
          1    1    3    3  501    0  0.66200205152E+02 -0.10408905068E+03 -0.83836295470E+03  0.84738978130E+03  0.00000000000E+00 0.  1.
         21    1    1    2  502  501  0.17685341881E+01  0.12358187500E+02 -0.65588560296E+01  0.14102166638E+02  0.00000000000E+00 0.  1.
<mgrwt>
<rscale>  1 0.30000000E+03</rscale>
<asrwt>0</asrwt>
<pdfrwt beam="1">  1        1 0.11084928E+00 0.30000000E+03</pdfrwt>
<pdfrwt beam="2">0</pdfrwt>
<totfact> 0.29366196E+01</totfact>
</mgrwt>
</event>
<event>
 6    1  0.1839160E-004  0.3000000E+03  0.7818608E-02  0.1093470E+00
          1   -1    0    0  502    0  0.00000000000E+00  0.00000000000E+00  0.29887836610E+02  0.29887836610E+02  0.00000000000E+00 0.  1.
         13   -1    0    0    0    0 -0.00000000000E+00 -0.00000000000E+00 -0.10000000000E+04  0.10000000000E+04  0.00000000000E+00 0.  1.
    9000005    2    1    2  501    0 -0.51369219476E+02 -0.65740359521E+01 -0.89622790627E+03  0.93966091098E+03  0.27758990073E+03 0.  0.
         13    1    3    3    0    0  0.90948552942E+02 -0.77429604814E+02 -0.46383173748E+03  0.47896436577E+03  0.00000000000E+00 0.  1.
          3    1    3    3  501    0 -0.14231777242E+03  0.70855568862E+02 -0.43239616879E+03  0.46069654521E+03  0.00000000000E+00 0.  1.
         21    1    1    2  502  501  0.51369219476E+02  0.65740359521E+01 -0.73884257119E+02  0.90226925629E+02  0.00000000000E+00 0.  1.
<mgrwt>
<rscale>  1 0.30000000E+03</rscale>
<asrwt>0</asrwt>
<pdfrwt beam="1">  1        1 0.10868327E+00 0.30000000E+03</pdfrwt>
<pdfrwt beam="2">0</pdfrwt>
<totfact> 0.30253505E+01</totfact>
</mgrwt>
</event>
<event>
 6    1  0.1839160E-004  0.3000000E+03  0.7818608E-02  0.1093470E+00
          1   -1    0    0  502    0  0.00000000000E+00  0.00000000000E+00  0.26940946936E+02  0.26940946936E+02  0.00000000000E+00 0.  1.
         13   -1    0    0    0    0 -0.00000000000E+00 -0.00000000000E+00 -0.10000000000E+04  0.10000000000E+04  0.00000000000E+00 0.  1.
    9000005    2    1    2  501    0 -0.13685888462E+01 -0.11229976428E+02 -0.96356469462E+03  0.10121717815E+04  0.30968824502E+03 0.  0.
         13    1    3    3    0    0 -0.48458443029E+02  0.13716151501E+03 -0.34706452669E+03  0.37631806705E+03  0.00000000000E+00 0.  1.
          3    1    3    3  501    0  0.47089854183E+02 -0.14839149144E+03 -0.61650016793E+03  0.63585371443E+03  0.00000000000E+00 0.  1.
         21    1    1    2  502  501  0.13685888462E+01  0.11229976428E+02 -0.94943584475E+01  0.14769165458E+02  0.00000000000E+00 0. -1.
<mgrwt>
<rscale>  1 0.30000000E+03</rscale>
<asrwt>0</asrwt>
<pdfrwt beam="1">  1        1 0.97967286E-01 0.30000000E+03</pdfrwt>
<pdfrwt beam="2">0</pdfrwt>
<totfact> 0.35266923E+01</totfact>
</mgrwt>
</event>
<event>
 6    1  0.1839160E-004  0.3000000E+03  0.7818608E-02  0.1093470E+00
          1   -1    0    0  502    0  0.00000000000E+00  0.00000000000E+00  0.28810843216E+02  0.28810843216E+02  0.00000000000E+00 0.  1.
         13   -1    0    0    0    0 -0.00000000000E+00 -0.00000000000E+00 -0.10000000000E+04  0.10000000000E+04  0.00000000000E+00 0.  1.
    9000005    2    1    2  501    0 -0.11983158921E+02 -0.18066672812E+01 -0.96485724112E+03  0.10151377565E+04  0.31529083207E+03 0.  0.
         13    1    3    3    0    0 -0.66918168155E+02 -0.69754609915E+02 -0.90281309304E+03  0.90797314266E+03  0.00000000000E+00 0.  1.
          3    1    3    3  501    0  0.54935009234E+02  0.67947942634E+02 -0.62044148078E+02  0.10716461384E+03  0.00000000000E+00 0.  1.
         21    1    1    2  502  501  0.11983158921E+02  0.18066672812E+01 -0.63319156674E+01  0.13673086719E+02  0.00000000000E+00 0. -1.
<mgrwt>
<rscale>  1 0.30000000E+03</rscale>
<asrwt>0</asrwt>
<pdfrwt beam="1">  1        1 0.10476692E+00 0.30000000E+03</pdfrwt>
<pdfrwt beam="2">0</pdfrwt>
<totfact> 0.31957991E+01</totfact>
</mgrwt>
</event>
<event>
 6    1  0.1839160E-004  0.3000000E+03  0.7818608E-02  0.1093470E+00
          1   -1    0    0  502    0  0.00000000000E+00  0.00000000000E+00  0.66242432135E+02  0.66242432135E+02  0.00000000000E+00 0.  1.
         13   -1    0    0    0    0 -0.00000000000E+00 -0.00000000000E+00 -0.10000000000E+04  0.10000000000E+04  0.00000000000E+00 0.  1.
    9000005    2    1    2  501    0 -0.15500748918E+02  0.21074832087E+02 -0.94468472267E+03  0.10378906337E+04  0.42907262839E+03 0.  0.
         13    1    3    3    0    0 -0.39329854165E+02 -0.15160503801E+03 -0.12645940483E+03  0.20130302047E+03  0.00000000000E+00 0.  1.
          3    1    3    3  501    0  0.23829105247E+02  0.17267987010E+03 -0.81822531784E+03  0.83658761320E+03  0.00000000000E+00 0.  1.
         21    1    1    2  502  501  0.15500748918E+02 -0.21074832087E+02  0.10927154804E+02  0.28351798473E+02  0.00000000000E+00 0.  1.
<mgrwt>
<rscale>  1 0.30000000E+03</rscale>
<asrwt>0</asrwt>
<pdfrwt beam="1">  1        1 0.24088208E+00 0.30000000E+03</pdfrwt>
<pdfrwt beam="2">0</pdfrwt>
<totfact> 0.65808831E+00</totfact>
</mgrwt>
</event>
<event>
 6    1  0.1839160E-004  0.3000000E+03  0.7818608E-02  0.1093470E+00
          1   -1    0    0  502    0  0.00000000000E+00  0.00000000000E+00  0.54479514823E+02  0.54479514823E+02  0.00000000000E+00 0.  1.
         13   -1    0    0    0    0 -0.00000000000E+00 -0.00000000000E+00 -0.10000000000E+04  0.10000000000E+04  0.00000000000E+00 0.  1.
    9000005    2    1    2  501    0 -0.13708706402E+02 -0.81600936082E+01 -0.96424032826E+03  0.10298838184E+04  0.36145089977E+03 0.  0.
         13    1    3    3    0    0 -0.17741319407E+03 -0.62984122139E+02 -0.46661106343E+03  0.50315835041E+03  0.00000000000E+00 0.  1.
          3    1    3    3  501    0  0.16370448767E+03  0.54824028531E+02 -0.49762926483E+03  0.52672546796E+03  0.00000000000E+00 0.  1.
         21    1    1    2  502  501  0.13708706402E+02  0.81600936082E+01  0.18719843081E+02  0.24595696451E+02  0.00000000000E+00 0.  1.
<mgrwt>
<rscale>  1 0.30000000E+03</rscale>
<asrwt>0</asrwt>
<pdfrwt beam="1">  1        1 0.19810774E+00 0.30000000E+03</pdfrwt>
<pdfrwt beam="2">0</pdfrwt>
<totfact> 0.10457908E+01</totfact>
</mgrwt>
</event>
<event>
 6    1  0.1839160E-004  0.3000000E+03  0.7818608E-02  0.1093470E+00
          1   -1    0    0  502    0  0.00000000000E+00  0.00000000000E+00  0.30496831790E+02  0.30496831790E+02  0.00000000000E+00 0.  1.
         13   -1    0    0    0    0 -0.00000000000E+00 -0.00000000000E+00 -0.10000000000E+04  0.10000000000E+04  0.00000000000E+00 0.  1.
    9000005    2    1    2  501    0 -0.62707157323E+01 -0.14236441131E+02 -0.96009116528E+03  0.10123148646E+04  0.32056877780E+03 0.  0.
         13    1    3    3    0    0  0.69635414438E+02 -0.10744537959E+03 -0.16838534449E+03  0.21153539840E+03  0.00000000000E+00 0.  1.
          3    1    3    3  501    0 -0.75906130170E+02  0.93208938455E+02 -0.79170582079E+03  0.80077946619E+03  0.00000000000E+00 0.  1.
         21    1    1    2  502  501  0.62707157323E+01  0.14236441131E+02 -0.94120029289E+01  0.18181967193E+02  0.00000000000E+00 0.  1.
<mgrwt>
<rscale>  1 0.30000000E+03</rscale>
<asrwt>0</asrwt>
<pdfrwt beam="1">  1        1 0.11089780E+00 0.30000000E+03</pdfrwt>
<pdfrwt beam="2">0</pdfrwt>
<totfact> 0.29346743E+01</totfact>
</mgrwt>
</event>
<event>
 6    1  0.1839160E-004  0.3000000E+03  0.7818608E-02  0.1093470E+00
          1   -1    0    0  502    0  0.00000000000E+00  0.00000000000E+00  0.30456605989E+02  0.30456605989E+02  0.00000000000E+00 0.  1.
         13   -1    0    0    0    0 -0.00000000000E+00 -0.00000000000E+00 -0.10000000000E+04  0.10000000000E+04  0.00000000000E+00 0.  1.
    9000005    2    1    2  501    0  0.85434228672E+01  0.74535283331E+01 -0.95800433083E+03  0.10142796119E+04  0.33295988956E+03 0.  0.
         13    1    3    3    0    0 -0.31456939655E+02  0.10383029763E+03 -0.87293063583E+03  0.87964661355E+03  0.00000000000E+00 0.  1.
          1    1    3    3  501    0  0.40000362522E+02 -0.96376769295E+02 -0.85073694995E+02  0.13463299834E+03  0.00000000000E+00 0.  1.
         21    1    1    2  502  501 -0.85434228672E+01 -0.74535283331E+01 -0.11539063185E+02  0.16176994099E+02  0.00000000000E+00 0.  1.
<mgrwt>
<rscale>  1 0.30000000E+03</rscale>
<asrwt>0</asrwt>
<pdfrwt beam="1">  1        1 0.11075153E+00 0.30000000E+03</pdfrwt>
<pdfrwt beam="2">0</pdfrwt>
<totfact> 0.29405439E+01</totfact>
</mgrwt>
</event>
<event>
 6    1  0.1839160E-004  0.3000000E+03  0.7818608E-02  0.1093470E+00
          1   -1    0    0  502    0  0.00000000000E+00  0.00000000000E+00  0.31566815889E+02  0.31566815889E+02  0.00000000000E+00 0.  1.
         13   -1    0    0    0    0 -0.00000000000E+00 -0.00000000000E+00 -0.10000000000E+04  0.10000000000E+04  0.00000000000E+00 0.  1.
    9000005    2    1    2  501    0  0.20607082876E+02  0.22645951303E+02 -0.91504943144E+03  0.97002564248E+03  0.32046340528E+03 0.  0.
         13    1    3    3    0    0  0.83462786088E+02  0.40086873149E+02 -0.55387413293E+02  0.10789235196E+03  0.00000000000E+00 0.  1.
          1    1    3    3  501    0 -0.62855703212E+02 -0.17440921847E+02 -0.85966201814E+03  0.86213329052E+03  0.00000000000E+00 0.  1.
         21    1    1    2  502  501 -0.20607082876E+02 -0.22645951303E+02 -0.53383752675E+02  0.61541173410E+02  0.00000000000E+00 0.  1.
<mgrwt>
<rscale>  1 0.30000000E+03</rscale>
<asrwt>0</asrwt>
<pdfrwt beam="1">  1        1 0.11478866E+00 0.30000000E+03</pdfrwt>
<pdfrwt beam="2">0</pdfrwt>
<totfact> 0.27844574E+01</totfact>
</mgrwt>
</event>
<event>
 6    1  0.1839160E-004  0.3000000E+03  0.7818608E-02  0.1093470E+00
          1   -1    0    0  502    0  0.00000000000E+00  0.00000000000E+00  0.48892535260E+02  0.48892535260E+02  0.00000000000E+00 0.  1.
         13   -1    0    0    0    0 -0.00000000000E+00 -0.00000000000E+00 -0.10000000000E+04  0.10000000000E+04  0.00000000000E+00 0.  1.
    9000005    2    1    2  501    0  0.15938382388E+02  0.39689434323E+01 -0.96904177009E+03  0.10245733278E+04  0.33232328724E+03 0.  0.
         13    1    3    3    0    0  0.12214482937E+03  0.12269789955E+03 -0.48295203640E+03  0.51304658985E+03  0.00000000000E+00 0.  1.
          1    1    3    3  501    0 -0.10620644698E+03 -0.11872895611E+03 -0.48608973369E+03  0.51152673791E+03  0.00000000000E+00 0.  1.
         21    1    1    2  502  501 -0.15938382388E+02 -0.39689434323E+01  0.17934305347E+02  0.24319207499E+02  0.00000000000E+00 0.  1.
<mgrwt>
<rscale>  1 0.30000000E+03</rscale>
<asrwt>0</asrwt>
<pdfrwt beam="1">  1        1 0.17779141E+00 0.30000000E+03</pdfrwt>
<pdfrwt beam="2">0</pdfrwt>
<totfact> 0.13092931E+01</totfact>
</mgrwt>
</event>
<event>
 6    1  0.1839160E-004  0.3000000E+03  0.7818608E-02  0.1093470E+00
          1   -1    0    0  502    0  0.00000000000E+00  0.00000000000E+00  0.36549950833E+02  0.36549950833E+02  0.00000000000E+00 0.  1.
         13   -1    0    0    0    0 -0.00000000000E+00 -0.00000000000E+00 -0.10000000000E+04  0.10000000000E+04  0.00000000000E+00 0.  1.
    9000005    2    1    2  501    0  0.20107041631E+02 -0.21009628074E+02 -0.91493607373E+03  0.97998756574E+03  0.34988842849E+03 0.  0.
         13    1    3    3    0    0  0.16789396523E+03 -0.83922841321E+02 -0.43118643315E+03  0.47026924946E+03  0.00000000000E+00 0.  1.
          3    1    3    3  501    0 -0.14778692360E+03  0.62913213247E+02 -0.48374964058E+03  0.50971831628E+03  0.00000000000E+00 0.  1.
         21    1    1    2  502  501 -0.20107041631E+02  0.21009628074E+02 -0.48513975433E+02  0.56562385092E+02  0.00000000000E+00 0.  1.
<mgrwt>
<rscale>  1 0.30000000E+03</rscale>
<asrwt>0</asrwt>
<pdfrwt beam="1">  1        1 0.13290919E+00 0.30000000E+03</pdfrwt>
<pdfrwt beam="2">0</pdfrwt>
<totfact> 0.22064774E+01</totfact>
</mgrwt>
</event>
<event>
 6    1  0.1839160E-004  0.3000000E+03  0.7818608E-02  0.1093470E+00
          1   -1    0    0  502    0  0.00000000000E+00  0.00000000000E+00  0.31123640356E+02  0.31123640356E+02  0.00000000000E+00 0.  1.
         13   -1    0    0    0    0 -0.00000000000E+00 -0.00000000000E+00 -0.10000000000E+04  0.10000000000E+04  0.00000000000E+00 0.  1.
    9000005    2    1    2  501    0  0.13449225214E+01  0.31761075109E+02 -0.88716652359E+03  0.94344769145E+03  0.31940339888E+03 0.  0.
         13    1    3    3    0    0 -0.10600712070E+03  0.41755099093E+02 -0.10843125939E+03  0.15728425208E+03  0.00000000000E+00 0.  1.
          1    1    3    3  501    0  0.10735204322E+03 -0.99940239838E+01 -0.77873526420E+03  0.78616343937E+03  0.00000000000E+00 0.  1.
         21    1    1    2  502  501 -0.13449225214E+01 -0.31761075109E+02 -0.81709836055E+02  0.87675948907E+02  0.00000000000E+00 0. -1.
<mgrwt>
<rscale>  1 0.30000000E+03</rscale>
<asrwt>0</asrwt>
<pdfrwt beam="1">  1        1 0.11317711E+00 0.30000000E+03</pdfrwt>
<pdfrwt beam="2">0</pdfrwt>
<totfact> 0.28453174E+01</totfact>
</mgrwt>
</event>
<event>
 6    1  0.1839160E-004  0.3000000E+03  0.7818608E-02  0.1093470E+00
          1   -1    0    0  502    0  0.00000000000E+00  0.00000000000E+00  0.58004443092E+02  0.58004443092E+02  0.00000000000E+00 0.  1.
         13   -1    0    0    0    0 -0.00000000000E+00 -0.00000000000E+00 -0.10000000000E+04  0.10000000000E+04  0.00000000000E+00 0.  1.
    9000005    2    1    2  501    0  0.37168721716E+02  0.12364864068E+02 -0.96434089919E+03  0.10129076798E+04  0.30739907974E+03 0.  0.
         13    1    3    3    0    0  0.13532369656E+03 -0.78293105298E+02 -0.69346077521E+03  0.71086578194E+03  0.00000000000E+00 0.  1.
          3    1    3    3  501    0 -0.98154974845E+02  0.90657969366E+02 -0.27088012398E+03  0.30204189786E+03  0.00000000000E+00 0.  1.
         21    1    1    2  502  501 -0.37168721716E+02 -0.12364864068E+02  0.22345342278E+02  0.45096763286E+02  0.00000000000E+00 0.  1.
<mgrwt>
<rscale>  1 0.30000000E+03</rscale>
<asrwt>0</asrwt>
<pdfrwt beam="1">  1        1 0.21092569E+00 0.30000000E+03</pdfrwt>
<pdfrwt beam="2">0</pdfrwt>
<totfact> 0.90935367E+00</totfact>
</mgrwt>
</event>
<event>
 6    1  0.1839160E-004  0.3000000E+03  0.7818608E-02  0.1093470E+00
          3   -1    0    0  502    0  0.00000000000E+00  0.00000000000E+00  0.29983745445E+02  0.29983745445E+02  0.00000000000E+00 0.  1.
         13   -1    0    0    0    0 -0.00000000000E+00 -0.00000000000E+00 -0.10000000000E+04  0.10000000000E+04  0.00000000000E+00 0.  1.
    9000005    2    1    2  501    0  0.10488250976E+02 -0.48025353370E+01 -0.96488610132E+03  0.10173589196E+04  0.32230562376E+03 0.  0.
         13    1    3    3    0    0 -0.12989543825E+03  0.30100923410E+02 -0.72556900429E+03  0.73771896441E+03  0.00000000000E+00 0.  1.
          1    1    3    3  501    0  0.14038368922E+03 -0.34903458747E+02 -0.23931709704E+03  0.27963995524E+03  0.00000000000E+00 0.  1.
         21    1    1    2  502  501 -0.10488250976E+02  0.48025353370E+01 -0.51301532332E+01  0.12624825797E+02  0.00000000000E+00 0. -1.
<mgrwt>
<rscale>  1 0.30000000E+03</rscale>
<asrwt>0</asrwt>
<pdfrwt beam="1">  1        3 0.10903203E+00 0.30000000E+03</pdfrwt>
<pdfrwt beam="2">0</pdfrwt>
<totfact> 0.30911435E+00</totfact>
</mgrwt>
</event>
<event>
 6    1  0.1839160E-004  0.3000000E+03  0.7818608E-02  0.1093470E+00
          1   -1    0    0  502    0  0.00000000000E+00  0.00000000000E+00  0.34940145241E+02  0.34940145241E+02  0.00000000000E+00 0.  1.
         13   -1    0    0    0    0 -0.00000000000E+00 -0.00000000000E+00 -0.10000000000E+04  0.10000000000E+04  0.00000000000E+00 0.  1.
    9000005    2    1    2  501    0 -0.78149065253E+01 -0.12802894103E+02 -0.96794340545E+03  0.10196659276E+04  0.32027984764E+03 0.  0.
         13    1    3    3    0    0 -0.31762860538E+02  0.92339154057E+02 -0.82945211824E+02  0.12812223400E+03  0.00000000000E+00 0.  1.
          3    1    3    3  501    0  0.23947954013E+02 -0.10514204816E+03 -0.88499819362E+03  0.89154369355E+03  0.00000000000E+00 0.  1.
         21    1    1    2  502  501  0.78149065253E+01  0.12802894103E+02  0.28835506879E+01  0.15274217688E+02  0.00000000000E+00 0.  1.
<mgrwt>
<rscale>  1 0.30000000E+03</rscale>
<asrwt>0</asrwt>
<pdfrwt beam="1">  1        1 0.12705534E+00 0.30000000E+03</pdfrwt>
<pdfrwt beam="2">0</pdfrwt>
<totfact> 0.23745023E+01</totfact>
</mgrwt>
</event>
<event>
 6    1  0.1839160E-004  0.3000000E+03  0.7818608E-02  0.1093470E+00
          1   -1    0    0  502    0  0.00000000000E+00  0.00000000000E+00  0.31818256799E+02  0.31818256799E+02  0.00000000000E+00 0.  1.
         13   -1    0    0    0    0 -0.00000000000E+00 -0.00000000000E+00 -0.10000000000E+04  0.10000000000E+04  0.00000000000E+00 0.  1.
    9000005    2    1    2  501    0 -0.86303730594E+01 -0.17996682812E+02 -0.92652745076E+03  0.98562903717E+03  0.33557878057E+03 0.  0.
         13    1    3    3    0    0 -0.29631231347E+02  0.15656597804E+03 -0.47866185340E+03  0.50448794362E+03  0.00000000000E+00 0.  1.
          1    1    3    3  501    0  0.21000858288E+02 -0.17456266085E+03 -0.44786559736E+03  0.48114109355E+03  0.00000000000E+00 0.  1.
         21    1    1    2  502  501  0.86303730594E+01  0.17996682812E+02 -0.41654292439E+02  0.46189219630E+02  0.00000000000E+00 0. -1.
<mgrwt>
<rscale>  1 0.30000000E+03</rscale>
<asrwt>0</asrwt>
<pdfrwt beam="1">  1        1 0.11570300E+00 0.30000000E+03</pdfrwt>
<pdfrwt beam="2">0</pdfrwt>
<totfact> 0.27507404E+01</totfact>
</mgrwt>
</event>
<event>
 6    1  0.1839160E-004  0.3000000E+03  0.7818608E-02  0.1093470E+00
          1   -1    0    0  502    0  0.00000000000E+00  0.00000000000E+00  0.33029234244E+02  0.33029234244E+02  0.00000000000E+00 0.  1.
         13   -1    0    0    0    0 -0.00000000000E+00 -0.00000000000E+00 -0.10000000000E+04  0.10000000000E+04  0.00000000000E+00 0.  1.
    9000005    2    1    2  501    0 -0.31288137395E+01  0.97861456564E+01 -0.96763876549E+03  0.10227333931E+04  0.33098829988E+03 0.  0.
         13    1    3    3    0    0 -0.14497528647E+03  0.66269691381E+02 -0.32210630099E+03  0.35939111678E+03  0.00000000000E+00 0.  1.
          3    1    3    3  501    0  0.14184647273E+03 -0.56483545725E+02 -0.64553246451E+03  0.66334227627E+03  0.00000000000E+00 0.  1.
         21    1    1    2  502  501  0.31288137395E+01 -0.97861456564E+01  0.66799973683E+00  0.10295841193E+02  0.00000000000E+00 0.  1.
<mgrwt>
<rscale>  1 0.30000000E+03</rscale>
<asrwt>0</asrwt>
<pdfrwt beam="1">  1        1 0.12010656E+00 0.30000000E+03</pdfrwt>
<pdfrwt beam="2">0</pdfrwt>
<totfact> 0.25959990E+01</totfact>
</mgrwt>
</event>
<event>
 6    1  0.1839160E-004  0.3000000E+03  0.7818608E-02  0.1093470E+00
          1   -1    0    0  502    0  0.00000000000E+00  0.00000000000E+00  0.33830157056E+02  0.33830157056E+02  0.00000000000E+00 0.  1.
         13   -1    0    0    0    0 -0.00000000000E+00 -0.00000000000E+00 -0.10000000000E+04  0.10000000000E+04  0.00000000000E+00 0.  1.
    9000005    2    1    2  501    0  0.27981115619E+02  0.12031465725E+01 -0.94423206082E+03  0.99825408817E+03  0.32272689611E+03 0.  0.
         13    1    3    3    0    0  0.88429745078E+02  0.82899587614E+02 -0.13014454679E+03  0.17784758784E+03  0.00000000000E+00 0.  1.
          1    1    3    3  501    0 -0.60448629459E+02 -0.81696441041E+02 -0.81408751403E+03  0.82040650033E+03  0.00000000000E+00 0.  1.
         21    1    1    2  502  501 -0.27981115619E+02 -0.12031465725E+01 -0.21937782120E+02  0.35576068885E+02  0.00000000000E+00 0.  1.
<mgrwt>
<rscale>  1 0.30000000E+03</rscale>
<asrwt>0</asrwt>
<pdfrwt beam="1">  1        1 0.12301901E+00 0.30000000E+03</pdfrwt>
<pdfrwt beam="2">0</pdfrwt>
<totfact> 0.25000337E+01</totfact>
</mgrwt>
</event>
<event>
 6    1  0.1839160E-004  0.3000000E+03  0.7818608E-02  0.1093470E+00
          1   -1    0    0  502    0  0.00000000000E+00  0.00000000000E+00  0.57852565997E+02  0.57852565997E+02  0.00000000000E+00 0.  1.
         13   -1    0    0    0    0 -0.00000000000E+00 -0.00000000000E+00 -0.10000000000E+04  0.10000000000E+04  0.00000000000E+00 0.  1.
    9000005    2    1    2  501    0  0.15746046663E+02 -0.14438518579E+02 -0.96826314516E+03  0.10241118017E+04  0.33288895347E+03 0.  0.
         13    1    3    3    0    0 -0.15438958822E+03  0.23798273366E+02 -0.38979510234E+03  0.41993180944E+03  0.00000000000E+00 0.  1.
          1    1    3    3  501    0  0.17013563488E+03 -0.38236791945E+02 -0.57846804282E+03  0.60417999229E+03  0.00000000000E+00 0.  1.
         21    1    1    2  502  501 -0.15746046663E+02  0.14438518579E+02  0.26115711160E+02  0.33740764272E+02  0.00000000000E+00 0.  1.
<mgrwt>
<rscale>  1 0.30000000E+03</rscale>
<asrwt>0</asrwt>
<pdfrwt beam="1">  1        1 0.21037341E+00 0.30000000E+03</pdfrwt>
<pdfrwt beam="2">0</pdfrwt>
<totfact> 0.91481755E+00</totfact>
</mgrwt>
</event>
<event>
 6    1  0.1839160E-004  0.3000000E+03  0.7818608E-02  0.1093470E+00
          1   -1    0    0  502    0  0.00000000000E+00  0.00000000000E+00  0.49390616692E+02  0.49390616692E+02  0.00000000000E+00 0.  1.
         13   -1    0    0    0    0 -0.00000000000E+00 -0.00000000000E+00 -0.10000000000E+04  0.10000000000E+04  0.00000000000E+00 0.  1.
    9000005    2    1    2  501    0 -0.94765697367E+02  0.34947772747E-01 -0.81492161433E+03  0.88388620809E+03  0.32890280132E+03 0.  0.
         13    1    3    3    0    0 -0.24552790892E+02  0.10569083853E+03 -0.71285438149E+03  0.72106501933E+03  0.00000000000E+00 0.  1.
          1    1    3    3  501    0 -0.70212906475E+02 -0.10565589076E+03 -0.10206723285E+03  0.16282118876E+03  0.00000000000E+00 0.  1.
         21    1    1    2  502  501  0.94765697367E+02 -0.34947772747E-01 -0.13568776897E+03  0.16550440861E+03  0.00000000000E+00 0.  1.
<mgrwt>
<rscale>  1 0.30000000E+03</rscale>
<asrwt>0</asrwt>
<pdfrwt beam="1">  1        1 0.17960262E+00 0.30000000E+03</pdfrwt>
<pdfrwt beam="2">0</pdfrwt>
<totfact> 0.12831123E+01</totfact>
</mgrwt>
</event>
<event>
 6    1  0.1839160E-004  0.3000000E+03  0.7818608E-02  0.1093470E+00
          1   -1    0    0  502    0  0.00000000000E+00  0.00000000000E+00  0.37828337757E+02  0.37828337757E+02  0.00000000000E+00 0.  1.
         13   -1    0    0    0    0 -0.00000000000E+00 -0.00000000000E+00 -0.10000000000E+04  0.10000000000E+04  0.00000000000E+00 0.  1.
    9000005    2    1    2  501    0  0.23671457001E+02 -0.70561974856E+01 -0.96216186937E+03  0.10131275707E+04  0.31632559769E+03 0.  0.
         13    1    3    3    0    0 -0.76685761093E+02  0.11669408326E+03 -0.28361918627E+03  0.31612981170E+03  0.00000000000E+00 0.  1.
          1    1    3    3  501    0  0.10035721809E+03 -0.12375028074E+03 -0.67854268310E+03  0.69699775896E+03  0.00000000000E+00 0.  1.
         21    1    1    2  502  501 -0.23671457001E+02  0.70561974856E+01 -0.97928734192E-02  0.24700767102E+02  0.00000000000E+00 0.  1.
<mgrwt>
<rscale>  1 0.30000000E+03</rscale>
<asrwt>0</asrwt>
<pdfrwt beam="1">  1        1 0.13755788E+00 0.30000000E+03</pdfrwt>
<pdfrwt beam="2">0</pdfrwt>
<totfact> 0.20840202E+01</totfact>
</mgrwt>
</event>
<event>
 6    1  0.1839160E-004  0.3000000E+03  0.7818608E-02  0.1093470E+00
          1   -1    0    0  502    0  0.00000000000E+00  0.00000000000E+00  0.30123690443E+02  0.30123690443E+02  0.00000000000E+00 0.  1.
         13   -1    0    0    0    0 -0.00000000000E+00 -0.00000000000E+00 -0.10000000000E+04  0.10000000000E+04  0.00000000000E+00 0.  1.
    9000005    2    1    2  501    0 -0.11228252920E+02 -0.12719551632E+01 -0.96658932835E+03  0.10183552675E+04  0.32035110361E+03 0.  0.
         13    1    3    3    0    0 -0.26875230740E+02 -0.11893291685E+03 -0.82333920130E+03  0.83231890351E+03  0.00000000000E+00 0.  1.
          3    1    3    3  501    0  0.15646977820E+02  0.11766096169E+03 -0.14325012705E+03  0.18603636397E+03  0.00000000000E+00 0.  1.
         21    1    1    2  502  501  0.11228252920E+02  0.12719551632E+01 -0.32869812034E+01  0.11768422962E+02  0.00000000000E+00 0. -1.
<mgrwt>
<rscale>  1 0.30000000E+03</rscale>
<asrwt>0</asrwt>
<pdfrwt beam="1">  1        1 0.10954092E+00 0.30000000E+03</pdfrwt>
<pdfrwt beam="2">0</pdfrwt>
<totfact> 0.29897668E+01</totfact>
</mgrwt>
</event>
<event>
 6    1  0.1839160E-004  0.3000000E+03  0.7818608E-02  0.1093470E+00
          1   -1    0    0  502    0  0.00000000000E+00  0.00000000000E+00  0.45429763404E+02  0.45429763404E+02  0.00000000000E+00 0.  1.
         13   -1    0    0    0    0 -0.00000000000E+00 -0.00000000000E+00 -0.10000000000E+04  0.10000000000E+04  0.00000000000E+00 0.  1.
    9000005    2    1    2  501    0 -0.97812066320E+01 -0.27347845325E+02 -0.96057068972E+03  0.10157720143E+04  0.32901847721E+03 0.  0.
         13    1    3    3    0    0 -0.12131787929E+03  0.83297327037E+02 -0.66449139902E+03  0.68059186881E+03  0.00000000000E+00 0.  1.
          1    1    3    3  501    0  0.11153667266E+03 -0.11064517236E+03 -0.29607929070E+03  0.33518014544E+03  0.00000000000E+00 0.  1.
         21    1    1    2  502  501  0.97812066320E+01  0.27347845325E+02  0.60004531223E+01  0.29657749152E+02  0.00000000000E+00 0.  1.
<mgrwt>
<rscale>  1 0.30000000E+03</rscale>
<asrwt>0</asrwt>
<pdfrwt beam="1">  1        1 0.16519949E+00 0.30000000E+03</pdfrwt>
<pdfrwt beam="2">0</pdfrwt>
<totfact> 0.15083157E+01</totfact>
</mgrwt>
</event>
<event>
 6    1  0.1839160E-004  0.3000000E+03  0.7818608E-02  0.1093470E+00
          1   -1    0    0  502    0  0.00000000000E+00  0.00000000000E+00  0.29222306299E+02  0.29222306299E+02  0.00000000000E+00 0.  1.
         13   -1    0    0    0    0 -0.00000000000E+00 -0.00000000000E+00 -0.10000000000E+04  0.10000000000E+04  0.00000000000E+00 0.  1.
    9000005    2    1    2  501    0  0.51240699283E+00 -0.10990884326E+02 -0.96594003108E+03  0.10172029436E+04  0.31865439398E+03 0.  0.
         13    1    3    3    0    0  0.37210681275E+02 -0.15708719253E+03 -0.60321031975E+03  0.62443871654E+03  0.00000000000E+00 0.  1.
          3    1    3    3  501    0 -0.36698274282E+02  0.14609630821E+03 -0.36272971133E+03  0.39276422710E+03  0.00000000000E+00 0.  1.
         21    1    1    2  502  501 -0.51240699283E+00  0.10990884326E+02 -0.48376626205E+01  0.12019362663E+02  0.00000000000E+00 0. -1.
<mgrwt>
<rscale>  1 0.30000000E+03</rscale>
<asrwt>0</asrwt>
<pdfrwt beam="1">  1        1 0.10626316E+00 0.30000000E+03</pdfrwt>
<pdfrwt beam="2">0</pdfrwt>
<totfact> 0.31290870E+01</totfact>
</mgrwt>
</event>
<event>
 6    1  0.1839160E-004  0.3000000E+03  0.7818608E-02  0.1093470E+00
          1   -1    0    0  502    0  0.00000000000E+00  0.00000000000E+00  0.30117673355E+02  0.30117673355E+02  0.00000000000E+00 0.  1.
         13   -1    0    0    0    0 -0.00000000000E+00 -0.00000000000E+00 -0.10000000000E+04  0.10000000000E+04  0.00000000000E+00 0.  1.
    9000005    2    1    2  501    0 -0.80703022111E+01  0.20655398329E+02 -0.93092542502E+03  0.98529116956E+03  0.32200119039E+03 0.  0.
         13    1    3    3    0    0  0.13010927169E+03  0.33711137289E+02 -0.72240572056E+03  0.73480261870E+03  0.00000000000E+00 0.  1.
          1    1    3    3  501    0 -0.13817957390E+03 -0.13055738961E+02 -0.20851970446E+03  0.25048855086E+03  0.00000000000E+00 0.  1.
         21    1    1    2  502  501  0.80703022111E+01 -0.20655398329E+02 -0.38956901626E+02  0.44826503791E+02  0.00000000000E+00 0.  1.
<mgrwt>
<rscale>  1 0.30000000E+03</rscale>
<asrwt>0</asrwt>
<pdfrwt beam="1">  1        1 0.10951904E+00 0.30000000E+03</pdfrwt>
<pdfrwt beam="2">0</pdfrwt>
<totfact> 0.29906672E+01</totfact>
</mgrwt>
</event>
<event>
 6    1  0.1839160E-004  0.3000000E+03  0.7818608E-02  0.1093470E+00
          1   -1    0    0  502    0  0.00000000000E+00  0.00000000000E+00  0.38388542124E+02  0.38388542124E+02  0.00000000000E+00 0.  1.
         13   -1    0    0    0    0 -0.00000000000E+00 -0.00000000000E+00 -0.10000000000E+04  0.10000000000E+04  0.00000000000E+00 0.  1.
    9000005    2    1    2  501    0  0.86780180315E+01 -0.25879666200E+02 -0.95742415421E+03  0.10107733537E+04  0.32288805549E+03 0.  0.
         13    1    3    3    0    0  0.40079923553E+02  0.91002345546E+02 -0.82657527672E+03  0.83253499341E+03  0.00000000000E+00 0.  1.
          3    1    3    3  501    0 -0.31401905521E+02 -0.11688201175E+03 -0.13084887749E+03  0.17823836029E+03  0.00000000000E+00 0.  1.
         21    1    1    2  502  501 -0.86780180315E+01  0.25879666200E+02 -0.41873036704E+01  0.27615188423E+02  0.00000000000E+00 0.  1.
<mgrwt>
<rscale>  1 0.30000000E+03</rscale>
<asrwt>0</asrwt>
<pdfrwt beam="1">  1        1 0.13959499E+00 0.30000000E+03</pdfrwt>
<pdfrwt beam="2">0</pdfrwt>
<totfact> 0.20331478E+01</totfact>
</mgrwt>
</event>
<event>
 6    1  0.1839160E-004  0.3000000E+03  0.7818608E-02  0.1093470E+00
          1   -1    0    0  502    0  0.00000000000E+00  0.00000000000E+00  0.37531943500E+02  0.37531943500E+02  0.00000000000E+00 0.  1.
         13   -1    0    0    0    0 -0.00000000000E+00 -0.00000000000E+00 -0.10000000000E+04  0.10000000000E+04  0.00000000000E+00 0.  1.
    9000005    2    1    2  501    0  0.83842721125E+00  0.11374992692E+02 -0.96551014141E+03  0.10257273808E+04  0.34608775366E+03 0.  0.
         13    1    3    3    0    0  0.91118334376E+02  0.71802119029E+02 -0.99220486329E+02  0.15265254686E+03  0.00000000000E+00 0.  1.
          3    1    3    3  501    0 -0.90279907165E+02 -0.60427126336E+02 -0.86628965508E+03  0.87307483398E+03  0.00000000000E+00 0.  1.
         21    1    1    2  502  501 -0.83842721125E+00 -0.11374992692E+02  0.30420849067E+01  0.11804562657E+02  0.00000000000E+00 0. -1.
<mgrwt>
<rscale>  1 0.30000000E+03</rscale>
<asrwt>0</asrwt>
<pdfrwt beam="1">  1        1 0.13648008E+00 0.30000000E+03</pdfrwt>
<pdfrwt beam="2">0</pdfrwt>
<totfact> 0.21115957E+01</totfact>
</mgrwt>
</event>
<event>
 6    1  0.1839160E-004  0.3000000E+03  0.7818608E-02  0.1093470E+00
          1   -1    0    0  502    0  0.00000000000E+00  0.00000000000E+00  0.29087813065E+02  0.29087813065E+02  0.00000000000E+00 0.  1.
         13   -1    0    0    0    0 -0.00000000000E+00 -0.00000000000E+00 -0.10000000000E+04  0.10000000000E+04  0.00000000000E+00 0.  1.
    9000005    2    1    2  501    0 -0.40750175504E+01  0.96348280414E+01 -0.95160289401E+03  0.10071268369E+04  0.32961638628E+03 0.  0.
         13    1    3    3    0    0  0.32785722545E+01 -0.12316105708E+02  0.26154956734E+02  0.29094969627E+02  0.00000000000E+00 0.  1.
          1    1    3    3  501    0 -0.73535898049E+01  0.21950933749E+02 -0.97775785074E+03  0.97803186730E+03  0.00000000000E+00 0.  1.
         21    1    1    2  502  501  0.40750175504E+01 -0.96348280414E+01 -0.19309292928E+02  0.21960976135E+02  0.00000000000E+00 0. -1.
<mgrwt>
<rscale>  1 0.30000000E+03</rscale>
<asrwt>0</asrwt>
<pdfrwt beam="1">  1        1 0.10577409E+00 0.30000000E+03</pdfrwt>
<pdfrwt beam="2">0</pdfrwt>
<totfact> 0.31506699E+01</totfact>
</mgrwt>
</event>
<event>
 6    1  0.1839160E-004  0.3000000E+03  0.7818608E-02  0.1093470E+00
          1   -1    0    0  502    0  0.00000000000E+00  0.00000000000E+00  0.30957479869E+02  0.30957479869E+02  0.00000000000E+00 0.  1.
         13   -1    0    0    0    0 -0.00000000000E+00 -0.00000000000E+00 -0.10000000000E+04  0.10000000000E+04  0.00000000000E+00 0.  1.
    9000005    2    1    2  501    0 -0.68243624338E+01 -0.81798916329E+01 -0.96890669893E+03  0.10203037952E+04  0.31957183967E+03 0.  0.
         13    1    3    3    0    0 -0.10944648085E+03 -0.61995159126E+02 -0.82969670201E+03  0.83917730502E+03  0.00000000000E+00 0.  1.
          1    1    3    3  501    0  0.10262211841E+03  0.53815267493E+02 -0.13920999692E+03  0.18112649018E+03  0.00000000000E+00 0.  1.
         21    1    1    2  502  501  0.68243624338E+01  0.81798916329E+01 -0.13582120174E+00  0.10653684675E+02  0.00000000000E+00 0. -1.
<mgrwt>
<rscale>  1 0.30000000E+03</rscale>
<asrwt>0</asrwt>
<pdfrwt beam="1">  1        1 0.11257289E+00 0.30000000E+03</pdfrwt>
<pdfrwt beam="2">0</pdfrwt>
<totfact> 0.28686235E+01</totfact>
</mgrwt>
</event>
<event>
 6    1  0.1839160E-004  0.3000000E+03  0.7818608E-02  0.1093470E+00
          1   -1    0    0  502    0  0.00000000000E+00  0.00000000000E+00  0.29725776241E+02  0.29725776241E+02  0.00000000000E+00 0.  1.
         13   -1    0    0    0    0 -0.00000000000E+00 -0.00000000000E+00 -0.10000000000E+04  0.10000000000E+04  0.00000000000E+00 0.  1.
    9000005    2    1    2  501    0 -0.51721466068E+01  0.82910620725E+01 -0.95890946797E+03  0.10147374313E+04  0.33179691657E+03 0.  0.
         13    1    3    3    0    0 -0.80721158050E+02  0.12919258287E+03 -0.25919596249E+03  0.30064792664E+03  0.00000000000E+00 0.  1.
          1    1    3    3  501    0  0.75549011443E+02 -0.12090152080E+03 -0.69971350548E+03  0.71408950463E+03  0.00000000000E+00 0.  1.
         21    1    1    2  502  501  0.51721466068E+01 -0.82910620725E+01 -0.11364755789E+02  0.14988344970E+02  0.00000000000E+00 0. -1.
<mgrwt>
<rscale>  1 0.30000000E+03</rscale>
<asrwt>0</asrwt>
<pdfrwt beam="1">  1        1 0.10809396E+00 0.30000000E+03</pdfrwt>
<pdfrwt beam="2">0</pdfrwt>
<totfact> 0.30501520E+01</totfact>
</mgrwt>
</event>
<event>
 6    1  0.1839160E-004  0.3000000E+03  0.7818608E-02  0.1093470E+00
          1   -1    0    0  502    0  0.00000000000E+00  0.00000000000E+00  0.30935330837E+02  0.30935330837E+02  0.00000000000E+00 0.  1.
         13   -1    0    0    0    0 -0.00000000000E+00 -0.00000000000E+00 -0.10000000000E+04  0.10000000000E+04  0.00000000000E+00 0.  1.
    9000005    2    1    2  501    0  0.49859058441E+01 -0.10511646721E+02 -0.97289168736E+03  0.10186878804E+04  0.30178039761E+03 0.  0.
         13    1    3    3    0    0  0.39509149375E+02  0.26881113219E+02 -0.34497900148E+01  0.47911044482E+02  0.00000000000E+00 0.  1.
          1    1    3    3  501    0 -0.34523243531E+02 -0.37392759940E+02 -0.96944189734E+03  0.97077683592E+03  0.00000000000E+00 0.  1.
         21    1    1    2  502  501 -0.49859058441E+01  0.10511646721E+02  0.38270181945E+01  0.12247450434E+02  0.00000000000E+00 0.  1.
<mgrwt>
<rscale>  1 0.30000000E+03</rscale>
<asrwt>0</asrwt>
<pdfrwt beam="1">  1        1 0.11249235E+00 0.30000000E+03</pdfrwt>
<pdfrwt beam="2">0</pdfrwt>
<totfact> 0.28717508E+01</totfact>
</mgrwt>
</event>
<event>
 6    1  0.1839160E-004  0.3000000E+03  0.7818608E-02  0.1093470E+00
          1   -1    0    0  502    0  0.00000000000E+00  0.00000000000E+00  0.84721808724E+02  0.84721808724E+02  0.00000000000E+00 0.  1.
         13   -1    0    0    0    0 -0.00000000000E+00 -0.00000000000E+00 -0.10000000000E+04  0.10000000000E+04  0.00000000000E+00 0.  1.
    9000005    2    1    2  501    0  0.69976713950E+02 -0.10555224456E+03 -0.89097756825E+03  0.95577012356E+03  0.32189669949E+03 0.  0.
         13    1    3    3    0    0 -0.67668406826E+02  0.33333741681E+01 -0.67075132994E+03  0.67416427618E+03  0.00000000000E+00 0.  1.
          3    1    3    3  501    0  0.13764512078E+03 -0.10888561873E+03 -0.22022623831E+03  0.28160584738E+03  0.00000000000E+00 0.  1.
         21    1    1    2  502  501 -0.69976713950E+02  0.10555224456E+03 -0.24300623024E+02  0.12895168516E+03  0.00000000000E+00 0.  1.
<mgrwt>
<rscale>  1 0.30000000E+03</rscale>
<asrwt>0</asrwt>
<pdfrwt beam="1">  1        1 0.30807995E+00 0.30000000E+03</pdfrwt>
<pdfrwt beam="2">0</pdfrwt>
<totfact> 0.31795825E+00</totfact>
</mgrwt>
</event>
<event>
 6    1  0.1839160E-004  0.3000000E+03  0.7818608E-02  0.1093470E+00
          1   -1    0    0  502    0  0.00000000000E+00  0.00000000000E+00  0.30339945449E+02  0.30339945449E+02  0.00000000000E+00 0.  1.
         13   -1    0    0    0    0 -0.00000000000E+00 -0.00000000000E+00 -0.10000000000E+04  0.10000000000E+04  0.00000000000E+00 0.  1.
    9000005    2    1    2  501    0  0.61839516383E+01 -0.92033773059E+01 -0.96161773280E+03  0.10166424146E+04  0.32974261441E+03 0.  0.
         13    1    3    3    0    0 -0.15800856119E+03  0.29893736474E+02 -0.49207339592E+03  0.51768384933E+03  0.00000000000E+00 0.  1.
          3    1    3    3  501    0  0.16419251283E+03 -0.39097113779E+02 -0.46954433688E+03  0.49895856528E+03  0.00000000000E+00 0.  1.
         21    1    1    2  502  501 -0.61839516383E+01  0.92033773059E+01 -0.80423217551E+01  0.13697530833E+02  0.00000000000E+00 0. -1.
<mgrwt>
<rscale>  1 0.30000000E+03</rscale>
<asrwt>0</asrwt>
<pdfrwt beam="1">  1        1 0.11032731E+00 0.30000000E+03</pdfrwt>
<pdfrwt beam="2">0</pdfrwt>
<totfact> 0.29576609E+01</totfact>
</mgrwt>
</event>
<event>
 6    1  0.1839160E-004  0.3000000E+03  0.7818608E-02  0.1093470E+00
          1   -1    0    0  502    0  0.00000000000E+00  0.00000000000E+00  0.77219101294E+02  0.77219101294E+02  0.00000000000E+00 0.  1.
         13   -1    0    0    0    0 -0.00000000000E+00 -0.00000000000E+00 -0.10000000000E+04  0.10000000000E+04  0.00000000000E+00 0.  1.
    9000005    2    1    2  501    0 -0.64137438024E+02 -0.15654007262E+02 -0.92916983052E+03  0.10108905452E+04  0.39266329290E+03 0.  0.
         13    1    3    3    0    0 -0.15126243985E+03 -0.11872979448E+03 -0.80448284694E+03  0.82714553788E+03  0.00000000000E+00 0.  1.
          1    1    3    3  501    0  0.87125001827E+02  0.10307578722E+03 -0.12468698357E+03  0.18374500735E+03  0.00000000000E+00 0.  1.
         21    1    1    2  502  501  0.64137438024E+02  0.15654007262E+02  0.63889318125E+01  0.66328556063E+02  0.00000000000E+00 0.  1.
<mgrwt>
<rscale>  1 0.30000000E+03</rscale>
<asrwt>0</asrwt>
<pdfrwt beam="1">  1        1 0.28079732E+00 0.30000000E+03</pdfrwt>
<pdfrwt beam="2">0</pdfrwt>
<totfact> 0.42810948E+00</totfact>
</mgrwt>
</event>
<event>
 6    1  0.1839160E-004  0.3000000E+03  0.7818608E-02  0.1093470E+00
          1   -1    0    0  502    0  0.00000000000E+00  0.00000000000E+00  0.52430798569E+02  0.52430798569E+02  0.00000000000E+00 0.  1.
         13   -1    0    0    0    0 -0.00000000000E+00 -0.00000000000E+00 -0.10000000000E+04  0.10000000000E+04  0.00000000000E+00 0.  1.
    9000005    2    1    2  501    0 -0.52590500723E+02  0.23040751140E+02 -0.93639573811E+03  0.99393735225E+03  0.32829536224E+03 0.  0.
         13    1    3    3    0    0 -0.14387823907E+03  0.16380172612E+02 -0.17537808322E+03  0.22743511120E+03  0.00000000000E+00 0.  1.
          3    1    3    3  501    0  0.91287738349E+02  0.66605785273E+01 -0.76101765490E+03  0.76650224106E+03  0.00000000000E+00 0.  1.
         21    1    1    2  502  501  0.52590500723E+02 -0.23040751140E+02 -0.11173463319E+02  0.58493446316E+02  0.00000000000E+00 0.  1.
<mgrwt>
<rscale>  1 0.30000000E+03</rscale>
<asrwt>0</asrwt>
<pdfrwt beam="1">  1        1 0.19065785E+00 0.30000000E+03</pdfrwt>
<pdfrwt beam="2">0</pdfrwt>
<totfact> 0.11351191E+01</totfact>
</mgrwt>
</event>
<event>
 6    1  0.1839160E-004  0.3000000E+03  0.7818608E-02  0.1093470E+00
          1   -1    0    0  502    0  0.00000000000E+00  0.00000000000E+00  0.39381017743E+02  0.39381017743E+02  0.00000000000E+00 0.  1.
         13   -1    0    0    0    0 -0.00000000000E+00 -0.00000000000E+00 -0.10000000000E+04  0.10000000000E+04  0.00000000000E+00 0.  1.
    9000005    2    1    2  501    0 -0.16145190141E+02  0.30529850912E+02 -0.94887689319E+03  0.10029034134E+04  0.32288567523E+03 0.  0.
         13    1    3    3    0    0 -0.13228801134E+03  0.59144889700E+02 -0.79450833057E+03  0.80761483596E+03  0.00000000000E+00 0.  1.
          3    1    3    3  501    0  0.11614282120E+03 -0.28615038789E+02 -0.15436856262E+03  0.19528857746E+03  0.00000000000E+00 0.  1.
         21    1    1    2  502  501  0.16145190141E+02 -0.30529850912E+02 -0.11742089069E+02  0.36477604322E+02  0.00000000000E+00 0.  1.
<mgrwt>
<rscale>  1 0.30000000E+03</rscale>
<asrwt>0</asrwt>
<pdfrwt beam="1">  1        1 0.14320400E+00 0.30000000E+03</pdfrwt>
<pdfrwt beam="2">0</pdfrwt>
<totfact> 0.19468410E+01</totfact>
</mgrwt>
</event>
<event>
 6    1  0.1839160E-004  0.3000000E+03  0.7818608E-02  0.1093470E+00
          1   -1    0    0  502    0  0.00000000000E+00  0.00000000000E+00  0.46713936475E+02  0.46713936475E+02  0.00000000000E+00 0.  1.
         13   -1    0    0    0    0 -0.00000000000E+00 -0.00000000000E+00 -0.10000000000E+04  0.10000000000E+04  0.00000000000E+00 0.  1.
    9000005    2    1    2  501    0  0.90057126302E+02  0.17339366003E+02 -0.69491636354E+03  0.77255004118E+03  0.32482899225E+03 0.  0.
         13    1    3    3    0    0 -0.66381925211E-01  0.16261369770E+03 -0.28002613732E+03  0.32381762872E+03  0.00000000000E+00 0.  1.
          3    1    3    3  501    0  0.90123508228E+02 -0.14527433169E+03 -0.41489022622E+03  0.44873241247E+03  0.00000000000E+00 0.  1.
         21    1    1    2  502  501 -0.90057126302E+02 -0.17339366003E+02 -0.25836969998E+03  0.27416389529E+03  0.00000000000E+00 0.  1.
<mgrwt>
<rscale>  1 0.30000000E+03</rscale>
<asrwt>0</asrwt>
<pdfrwt beam="1">  1        1 0.16986922E+00 0.30000000E+03</pdfrwt>
<pdfrwt beam="2">0</pdfrwt>
<totfact> 0.14308238E+01</totfact>
</mgrwt>
</event>
<event>
 6    1  0.1839160E-004  0.3000000E+03  0.7818608E-02  0.1093470E+00
          1   -1    0    0  502    0  0.00000000000E+00  0.00000000000E+00  0.39891947482E+02  0.39891947482E+02  0.00000000000E+00 0.  1.
         13   -1    0    0    0    0 -0.00000000000E+00 -0.00000000000E+00 -0.10000000000E+04  0.10000000000E+04  0.00000000000E+00 0.  1.
    9000005    2    1    2  501    0  0.12380593074E+02 -0.35240095224E+02 -0.94501133905E+03  0.99960480122E+03  0.32367913788E+03 0.  0.
         13    1    3    3    0    0 -0.12940653570E+03 -0.10606309926E+03 -0.48012747745E+03  0.50844648401E+03  0.00000000000E+00 0.  1.
          1    1    3    3  501    0  0.14178712877E+03  0.70823004033E+02 -0.46488386160E+03  0.49115831721E+03  0.00000000000E+00 0.  1.
         21    1    1    2  502  501 -0.12380593074E+02  0.35240095224E+02 -0.15096713467E+02  0.40287146260E+02  0.00000000000E+00 0.  1.
<mgrwt>
<rscale>  1 0.30000000E+03</rscale>
<asrwt>0</asrwt>
<pdfrwt beam="1">  1        1 0.14506193E+00 0.30000000E+03</pdfrwt>
<pdfrwt beam="2">0</pdfrwt>
<totfact> 0.19042177E+01</totfact>
</mgrwt>
</event>
<event>
 6    1  0.1839160E-004  0.3000000E+03  0.7818608E-02  0.1093470E+00
          3   -1    0    0  502    0  0.00000000000E+00  0.00000000000E+00  0.30404254551E+02  0.30404254551E+02  0.00000000000E+00 0.  1.
         13   -1    0    0    0    0 -0.00000000000E+00 -0.00000000000E+00 -0.10000000000E+04  0.10000000000E+04  0.00000000000E+00 0.  1.
    9000005    2    1    2  501    0  0.24531939447E+02 -0.49489262390E+01 -0.90988945408E+03  0.96566516935E+03  0.32246564580E+03 0.  0.
         13    1    3    3    0    0  0.50520624285E+02  0.11403940981E+03 -0.14554725683E+03  0.19168026617E+03  0.00000000000E+00 0.  1.
          1    1    3    3  501    0 -0.25988684838E+02 -0.11898833604E+03 -0.76434219725E+03  0.77398490318E+03  0.00000000000E+00 0.  1.
         21    1    1    2  502  501 -0.24531939447E+02  0.49489262390E+01 -0.59706291370E+02  0.64739085204E+02  0.00000000000E+00 0.  1.
<mgrwt>
<rscale>  1 0.30000000E+03</rscale>
<asrwt>0</asrwt>
<pdfrwt beam="1">  1        3 0.11056116E+00 0.30000000E+03</pdfrwt>
<pdfrwt beam="2">0</pdfrwt>
<totfact> 0.29695534E+00</totfact>
</mgrwt>
</event>
<event>
 6    1  0.1839160E-004  0.3000000E+03  0.7818608E-02  0.1093470E+00
          1   -1    0    0  502    0  0.00000000000E+00  0.00000000000E+00  0.40788350426E+02  0.40788350426E+02  0.00000000000E+00 0.  1.
         13   -1    0    0    0    0 -0.00000000000E+00 -0.00000000000E+00 -0.10000000000E+04  0.10000000000E+04  0.00000000000E+00 0.  1.
    9000005    2    1    2  501    0  0.22011940071E+02  0.21621248288E+02 -0.95715032561E+03  0.10098650107E+04  0.32052861050E+03 0.  0.
         13    1    3    3    0    0  0.11415997222E+03  0.10946869184E+03 -0.75175402528E+03  0.76821221565E+03  0.00000000000E+00 0.  1.
          3    1    3    3  501    0 -0.92148032148E+02 -0.87847443554E+02 -0.20539630032E+03  0.24165279505E+03  0.00000000000E+00 0.  1.
         21    1    1    2  502  501 -0.22011940071E+02 -0.21621248288E+02 -0.20613239673E+01  0.30923339724E+02  0.00000000000E+00 0.  1.
<mgrwt>
<rscale>  1 0.30000000E+03</rscale>
<asrwt>0</asrwt>
<pdfrwt beam="1">  1        1 0.14832159E+00 0.30000000E+03</pdfrwt>
<pdfrwt beam="2">0</pdfrwt>
<totfact> 0.18322337E+01</totfact>
</mgrwt>
</event>
<event>
 6    1  0.1839160E-004  0.3000000E+03  0.7818608E-02  0.1093470E+00
          1   -1    0    0  502    0  0.00000000000E+00  0.00000000000E+00  0.39363355902E+02  0.39363355902E+02  0.00000000000E+00 0.  1.
         13   -1    0    0    0    0 -0.00000000000E+00 -0.00000000000E+00 -0.10000000000E+04  0.10000000000E+04  0.00000000000E+00 0.  1.
    9000005    2    1    2  501    0  0.39173793849E+02  0.77331962333E-01 -0.94135224861E+03  0.99570009888E+03  0.32208700507E+03 0.  0.
         13    1    3    3    0    0  0.16649515676E+03 -0.26963970993E+02 -0.32953548920E+03  0.37019093938E+03  0.00000000000E+00 0.  1.
          3    1    3    3  501    0 -0.12732136291E+03  0.27041302956E+02 -0.61181675941E+03  0.62550915949E+03  0.00000000000E+00 0.  1.
         21    1    1    2  502  501 -0.39173793849E+02 -0.77331962333E-01 -0.19284395486E+02  0.43663257024E+02  0.00000000000E+00 0.  1.
<mgrwt>
<rscale>  1 0.30000000E+03</rscale>
<asrwt>0</asrwt>
<pdfrwt beam="1">  1        1 0.14313978E+00 0.30000000E+03</pdfrwt>
<pdfrwt beam="2">0</pdfrwt>
<totfact> 0.19483359E+01</totfact>
</mgrwt>
</event>
<event>
 6    1  0.1839160E-004  0.3000000E+03  0.7818608E-02  0.1093470E+00
          1   -1    0    0  502    0  0.00000000000E+00  0.00000000000E+00  0.34038087406E+02  0.34038087406E+02  0.00000000000E+00 0.  1.
         13   -1    0    0    0    0 -0.00000000000E+00 -0.00000000000E+00 -0.10000000000E+04  0.10000000000E+04  0.00000000000E+00 0.  1.
    9000005    2    1    2  501    0 -0.12654564499E+02 -0.14331505234E+01 -0.97195064337E+03  0.10199648213E+04  0.30899513199E+03 0.  0.
         13    1    3    3    0    0  0.41715372707E+01  0.29286178564E+02  0.14463986350E+02  0.32928542014E+02  0.00000000000E+00 0.  1.
          1    1    3    3  501    0 -0.16826101770E+02 -0.30719329087E+02 -0.98641462971E+03  0.98703627927E+03  0.00000000000E+00 0.  1.
         21    1    1    2  502  501  0.12654564499E+02  0.14331505234E+01  0.59887307714E+01  0.14073266122E+02  0.00000000000E+00 0.  1.
<mgrwt>
<rscale>  1 0.30000000E+03</rscale>
<asrwt>0</asrwt>
<pdfrwt beam="1">  1        1 0.12377512E+00 0.30000000E+03</pdfrwt>
<pdfrwt beam="2">0</pdfrwt>
<totfact> 0.24758833E+01</totfact>
</mgrwt>
</event>
<event>
 6    1  0.1839160E-004  0.3000000E+03  0.7818608E-02  0.1093470E+00
          1   -1    0    0  502    0  0.00000000000E+00  0.00000000000E+00  0.55709747213E+02  0.55709747213E+02  0.00000000000E+00 0.  1.
         13   -1    0    0    0    0 -0.00000000000E+00 -0.00000000000E+00 -0.10000000000E+04  0.10000000000E+04  0.00000000000E+00 0.  1.
    9000005    2    1    2  501    0  0.59936671784E+02 -0.44969899980E+02 -0.87958883704E+03  0.95670990010E+03  0.36878532261E+03 0.  0.
         13    1    3    3    0    0  0.42920169512E+02 -0.18214013122E+03 -0.72756108542E+03  0.75124050834E+03  0.00000000000E+00 0.  1.
          3    1    3    3  501    0  0.17016502272E+02  0.13717023124E+03 -0.15202775162E+03  0.20546939176E+03  0.00000000000E+00 0.  1.
         21    1    1    2  502  501 -0.59936671784E+02  0.44969899980E+02 -0.64701415745E+02  0.98999847112E+02  0.00000000000E+00 0.  1.
<mgrwt>
<rscale>  1 0.30000000E+03</rscale>
<asrwt>0</asrwt>
<pdfrwt beam="1">  1        1 0.20258133E+00 0.30000000E+03</pdfrwt>
<pdfrwt beam="2">0</pdfrwt>
<totfact> 0.99582668E+00</totfact>
</mgrwt>
</event>
<event>
 6    1  0.1839160E-004  0.3000000E+03  0.7818608E-02  0.1093470E+00
          1   -1    0    0  502    0  0.00000000000E+00  0.00000000000E+00  0.28240417430E+02  0.28240417430E+02  0.00000000000E+00 0.  1.
         13   -1    0    0    0    0 -0.00000000000E+00 -0.00000000000E+00 -0.10000000000E+04  0.10000000000E+04  0.00000000000E+00 0.  1.
    9000005    2    1    2  501    0 -0.49905281221E+01 -0.11187248111E+02 -0.94815959268E+03  0.10016505808E+04  0.32271847307E+03 0.  0.
         13    1    3    3    0    0  0.70301229284E+02  0.12821458176E+03 -0.62321094568E+03  0.64013523933E+03  0.00000000000E+00 0.  1.
          1    1    3    3  501    0 -0.75291757406E+02 -0.13940182987E+03 -0.32494864700E+03  0.36151534143E+03  0.00000000000E+00 0.  1.
         21    1    1    2  502  501  0.49905281221E+01  0.11187248111E+02 -0.23599989889E+02  0.26589836667E+02  0.00000000000E+00 0.  1.
<mgrwt>
<rscale>  1 0.30000000E+03</rscale>
<asrwt>0</asrwt>
<pdfrwt beam="1">  1        1 0.10269264E+00 0.30000000E+03</pdfrwt>
<pdfrwt beam="2">0</pdfrwt>
<totfact> 0.32917453E+01</totfact>
</mgrwt>
</event>
<event>
 6    1  0.1839160E-004  0.3000000E+03  0.7818608E-02  0.1093470E+00
          1   -1    0    0  502    0  0.00000000000E+00  0.00000000000E+00  0.65525793951E+02  0.65525793951E+02  0.00000000000E+00 0.  1.
         13   -1    0    0    0    0 -0.00000000000E+00 -0.00000000000E+00 -0.10000000000E+04  0.10000000000E+04  0.00000000000E+00 0.  1.
    9000005    2    1    2  501    0  0.79800426944E+01 -0.13195227417E+02 -0.97063562396E+03  0.10262136679E+04  0.33278098293E+03 0.  0.
         13    1    3    3    0    0  0.96423498954E+02  0.89725666024E+01 -0.66458866952E+02  0.11745117751E+03  0.00000000000E+00 0.  1.
          3    1    3    3  501    0 -0.88443456260E+02 -0.22167794020E+02 -0.90417675701E+03  0.90876249040E+03  0.00000000000E+00 0.  1.
         21    1    1    2  502  501 -0.79800426944E+01  0.13195227417E+02  0.36161417914E+02  0.39312126037E+02  0.00000000000E+00 0.  1.
<mgrwt>
<rscale>  1 0.30000000E+03</rscale>
<asrwt>0</asrwt>
<pdfrwt beam="1">  1        1 0.23827612E+00 0.30000000E+03</pdfrwt>
<pdfrwt beam="2">0</pdfrwt>
<totfact> 0.67686543E+00</totfact>
</mgrwt>
</event>
<event>
 6    1  0.1839160E-004  0.3000000E+03  0.7818608E-02  0.1093470E+00
          1   -1    0    0  502    0  0.00000000000E+00  0.00000000000E+00  0.37661558247E+02  0.37661558247E+02  0.00000000000E+00 0.  1.
         13   -1    0    0    0    0 -0.00000000000E+00 -0.00000000000E+00 -0.10000000000E+04  0.10000000000E+04  0.00000000000E+00 0.  1.
    9000005    2    1    2  501    0 -0.19845738554E+02 -0.14859946798E+02 -0.90332362331E+03  0.97365046426E+03  0.36247342905E+03 0.  0.
         13    1    3    3    0    0  0.12916909995E+03 -0.46199797013E+02 -0.14274346410E+03  0.19797670108E+03  0.00000000000E+00 0.  1.
          1    1    3    3  501    0 -0.14901483851E+03  0.31339850216E+02 -0.76058015921E+03  0.77567376318E+03  0.00000000000E+00 0.  1.
         21    1    1    2  502  501  0.19845738554E+02  0.14859946798E+02 -0.59014818441E+02  0.64011093986E+02  0.00000000000E+00 0. -1.
<mgrwt>
<rscale>  1 0.30000000E+03</rscale>
<asrwt>0</asrwt>
<pdfrwt beam="1">  1        1 0.13695141E+00 0.30000000E+03</pdfrwt>
<pdfrwt beam="2">0</pdfrwt>
<totfact> 0.20994796E+01</totfact>
</mgrwt>
</event>
<event>
 6    1  0.1839160E-004  0.3000000E+03  0.7818608E-02  0.1093470E+00
          1   -1    0    0  502    0  0.00000000000E+00  0.00000000000E+00  0.32940437830E+02  0.32940437830E+02  0.00000000000E+00 0.  1.
         13   -1    0    0    0    0 -0.00000000000E+00 -0.00000000000E+00 -0.10000000000E+04  0.10000000000E+04  0.00000000000E+00 0.  1.
    9000005    2    1    2  501    0 -0.23706715357E+02 -0.74809476170E+01 -0.91031465528E+03  0.97098918773E+03  0.33694103067E+03 0.  0.
         13    1    3    3    0    0  0.20171050408E+02 -0.13117859695E+03 -0.15368819138E+03  0.20306342788E+03  0.00000000000E+00 0.  1.
          3    1    3    3  501    0 -0.43877765765E+02  0.12369764933E+03 -0.75662646390E+03  0.76792575986E+03  0.00000000000E+00 0.  1.
         21    1    1    2  502  501  0.23706715357E+02  0.74809476170E+01 -0.56744906892E+02  0.61951250096E+02  0.00000000000E+00 0.  1.
<mgrwt>
<rscale>  1 0.30000000E+03</rscale>
<asrwt>0</asrwt>
<pdfrwt beam="1">  1        1 0.11978366E+00 0.30000000E+03</pdfrwt>
<pdfrwt beam="2">0</pdfrwt>
<totfact> 0.26069378E+01</totfact>
</mgrwt>
</event>
<event>
 6    1  0.1839160E-004  0.3000000E+03  0.7818608E-02  0.1093470E+00
          1   -1    0    0  502    0  0.00000000000E+00  0.00000000000E+00  0.32343468989E+02  0.32343468989E+02  0.00000000000E+00 0.  1.
         13   -1    0    0    0    0 -0.00000000000E+00 -0.00000000000E+00 -0.10000000000E+04  0.10000000000E+04  0.00000000000E+00 0.  1.
    9000005    2    1    2  501    0 -0.58754949220E+01 -0.22149156225E+02 -0.92284817106E+03  0.98201558722E+03  0.33493396386E+03 0.  0.
         13    1    3    3    0    0 -0.44487339904E+02  0.15141537874E+03 -0.42236369128E+03  0.45088449523E+03  0.00000000000E+00 0.  1.
          1    1    3    3  501    0  0.38611844982E+02 -0.17356453497E+03 -0.50048447979E+03  0.53113109199E+03  0.00000000000E+00 0.  1.
         21    1    1    2  502  501  0.58754949220E+01  0.22149156225E+02 -0.44808359948E+02  0.50327881768E+02  0.00000000000E+00 0.  1.
<mgrwt>
<rscale>  1 0.30000000E+03</rscale>
<asrwt>0</asrwt>
<pdfrwt beam="1">  1        1 0.11761286E+00 0.30000000E+03</pdfrwt>
<pdfrwt beam="2">0</pdfrwt>
<totfact> 0.26821197E+01</totfact>
</mgrwt>
</event>
<event>
 6    1  0.1839160E-004  0.3000000E+03  0.7818608E-02  0.1093470E+00
          1   -1    0    0  502    0  0.00000000000E+00  0.00000000000E+00  0.33597116701E+02  0.33597116701E+02  0.00000000000E+00 0.  1.
         13   -1    0    0    0    0 -0.00000000000E+00 -0.00000000000E+00 -0.10000000000E+04  0.10000000000E+04  0.00000000000E+00 0.  1.
    9000005    2    1    2  501    0 -0.27500959028E+02 -0.27295737194E+02 -0.90646986553E+03  0.96222957061E+03  0.32046336674E+03 0.  0.
         13    1    3    3    0    0 -0.16023396677E+03  0.10519283648E+01 -0.29329179429E+03  0.33420967559E+03  0.00000000000E+00 0.  1.
          1    1    3    3  501    0  0.13273300775E+03 -0.28347665559E+02 -0.61317807124E+03  0.62801989501E+03  0.00000000000E+00 0.  1.
         21    1    1    2  502  501  0.27500959028E+02  0.27295737194E+02 -0.59933017771E+02  0.71367546095E+02  0.00000000000E+00 0.  1.
<mgrwt>
<rscale>  1 0.30000000E+03</rscale>
<asrwt>0</asrwt>
<pdfrwt beam="1">  1        1 0.12217159E+00 0.30000000E+03</pdfrwt>
<pdfrwt beam="2">0</pdfrwt>
<totfact> 0.25274668E+01</totfact>
</mgrwt>
</event>
<event>
 6    1  0.1839160E-004  0.3000000E+03  0.7818608E-02  0.1093470E+00
          1   -1    0    0  502    0  0.00000000000E+00  0.00000000000E+00  0.53673524151E+02  0.53673524151E+02  0.00000000000E+00 0.  1.
         13   -1    0    0    0    0 -0.00000000000E+00 -0.00000000000E+00 -0.10000000000E+04  0.10000000000E+04  0.00000000000E+00 0.  1.
    9000005    2    1    2  501    0  0.95939458102E+02  0.28025467991E+02 -0.84376458700E+03  0.91046476910E+03  0.32713546282E+03 0.  0.
         13    1    3    3    0    0 -0.11798434033E+03  0.46939954496E+02 -0.29451475813E+03  0.32072200836E+03  0.00000000000E+00 0.  1.
          3    1    3    3  501    0  0.21392379844E+03 -0.18914486505E+02 -0.54924982887E+03  0.58974276074E+03  0.00000000000E+00 0.  1.
         21    1    1    2  502  501 -0.95939458102E+02 -0.28025467991E+02 -0.10256188885E+03  0.14320875505E+03  0.00000000000E+00 0.  1.
<mgrwt>
<rscale>  1 0.30000000E+03</rscale>
<asrwt>0</asrwt>
<pdfrwt beam="1">  1        1 0.19517686E+00 0.30000000E+03</pdfrwt>
<pdfrwt beam="2">0</pdfrwt>
<totfact> 0.10799684E+01</totfact>
</mgrwt>
</event>
<event>
 6    1  0.1839160E-004  0.3000000E+03  0.7818608E-02  0.1093470E+00
          1   -1    0    0  502    0  0.00000000000E+00  0.00000000000E+00  0.24875777223E+02  0.24875777223E+02  0.00000000000E+00 0.  1.
         13   -1    0    0    0    0 -0.00000000000E+00 -0.00000000000E+00 -0.10000000000E+04  0.10000000000E+04  0.00000000000E+00 0.  1.
    9000005    2    1    2  501    0 -0.10190045046E+01 -0.20661155496E+02 -0.95250116404E+03  0.99422085098E+03  0.28423355062E+03 0.  0.
         13    1    3    3    0    0 -0.89677896668E+02 -0.11864388114E+03 -0.41945831106E+03  0.44504356011E+03  0.00000000000E+00 0.  1.
          3    1    3    3  501    0  0.88658892163E+02  0.97982725642E+02 -0.53304285298E+03  0.54917729086E+03  0.00000000000E+00 0.  1.
         21    1    1    2  502  501  0.10190045046E+01  0.20661155496E+02 -0.22623058733E+02  0.30654926244E+02  0.00000000000E+00 0.  1.
<mgrwt>
<rscale>  1 0.30000000E+03</rscale>
<asrwt>0</asrwt>
<pdfrwt beam="1">  1        1 0.90457562E-01 0.30000000E+03</pdfrwt>
<pdfrwt beam="2">0</pdfrwt>
<totfact> 0.39546315E+01</totfact>
</mgrwt>
</event>
<event>
 6    1  0.1839160E-004  0.3000000E+03  0.7818608E-02  0.1093470E+00
          1   -1    0    0  502    0  0.00000000000E+00  0.00000000000E+00  0.42321416828E+02  0.42321416828E+02  0.00000000000E+00 0.  1.
         13   -1    0    0    0    0 -0.00000000000E+00 -0.00000000000E+00 -0.10000000000E+04  0.10000000000E+04  0.00000000000E+00 0.  1.
    9000005    2    1    2  501    0 -0.14901725824E+02  0.71756982241E+01 -0.94153989756E+03  0.10192127767E+04  0.38990223558E+03 0.  0.
         13    1    3    3    0    0  0.41509579988E+02 -0.84105859668E+02 -0.25893459105E+02  0.97300113493E+02  0.00000000000E+00 0.  1.
          3    1    3    3  501    0 -0.56411305812E+02  0.91281557892E+02 -0.91564643846E+03  0.92191266316E+03  0.00000000000E+00 0.  1.
         21    1    1    2  502  501  0.14901725824E+02 -0.71756982241E+01 -0.16138685612E+02  0.23108640177E+02  0.00000000000E+00 0.  1.
<mgrwt>
<rscale>  1 0.30000000E+03</rscale>
<asrwt>0</asrwt>
<pdfrwt beam="1">  1        1 0.15389639E+00 0.30000000E+03</pdfrwt>
<pdfrwt beam="2">0</pdfrwt>
<totfact> 0.17167855E+01</totfact>
</mgrwt>
</event>
<event>
 6    1  0.1839160E-004  0.3000000E+03  0.7818608E-02  0.1093470E+00
          1   -1    0    0  502    0  0.00000000000E+00  0.00000000000E+00  0.29846168543E+02  0.29846168543E+02  0.00000000000E+00 0.  1.
         13   -1    0    0    0    0 -0.00000000000E+00 -0.00000000000E+00 -0.10000000000E+04  0.10000000000E+04  0.00000000000E+00 0.  1.
    9000005    2    1    2  501    0  0.10162909087E+02  0.66250538801E-01 -0.95949134808E+03  0.10151160069E+04  0.33126057917E+03 0.  0.
         13    1    3    3    0    0  0.16455693175E+03  0.23971021490E+00 -0.35607611018E+03  0.39226169516E+03  0.00000000000E+00 0.  1.
          3    1    3    3  501    0 -0.15439402267E+03 -0.17345967609E+00 -0.60341523791E+03  0.62285431175E+03  0.00000000000E+00 0.  1.
         21    1    1    2  502  501 -0.10162909087E+02 -0.66250538801E-01 -0.10662483373E+02  0.14730161640E+02  0.00000000000E+00 0. -1.
<mgrwt>
<rscale>  1 0.30000000E+03</rscale>
<asrwt>0</asrwt>
<pdfrwt beam="1">  1        1 0.10853175E+00 0.30000000E+03</pdfrwt>
<pdfrwt beam="2">0</pdfrwt>
<totfact> 0.30316997E+01</totfact>
</mgrwt>
</event>
<event>
 6    1  0.1839160E-004  0.3000000E+03  0.7818608E-02  0.1093470E+00
          1   -1    0    0  502    0  0.00000000000E+00  0.00000000000E+00  0.34646662139E+02  0.34646662139E+02  0.00000000000E+00 0.  1.
         13   -1    0    0    0    0 -0.00000000000E+00 -0.00000000000E+00 -0.10000000000E+04  0.10000000000E+04  0.00000000000E+00 0.  1.
    9000005    2    1    2  501    0 -0.52929885764E+01  0.38741512708E+02 -0.88891712697E+03  0.94878971792E+03  0.32939239469E+03 0.  0.
         13    1    3    3    0    0 -0.49100717854E+02 -0.84012821628E+02 -0.75741261788E+03  0.76363794328E+03  0.00000000000E+00 0.  1.
          3    1    3    3  501    0  0.43807729278E+02  0.12275433434E+03 -0.13150450909E+03  0.18515177465E+03  0.00000000000E+00 0.  1.
         21    1    1    2  502  501  0.52929885764E+01 -0.38741512708E+02 -0.76436210889E+02  0.85856944215E+02  0.00000000000E+00 0.  1.
<mgrwt>
<rscale>  1 0.30000000E+03</rscale>
<asrwt>0</asrwt>
<pdfrwt beam="1">  1        1 0.12598813E+00 0.30000000E+03</pdfrwt>
<pdfrwt beam="2">0</pdfrwt>
<totfact> 0.24068968E+01</totfact>
</mgrwt>
</event>
<event>
 6    1  0.1839160E-004  0.3000000E+03  0.7818608E-02  0.1093470E+00
          1   -1    0    0  502    0  0.00000000000E+00  0.00000000000E+00  0.51897290719E+02  0.51897290719E+02  0.00000000000E+00 0.  1.
         13   -1    0    0    0    0 -0.00000000000E+00 -0.00000000000E+00 -0.10000000000E+04  0.10000000000E+04  0.00000000000E+00 0.  1.
    9000005    2    1    2  501    0 -0.48343234945E+02 -0.38114199962E+02 -0.93351438715E+03  0.98863134612E+03  0.31961393415E+03 0.  0.
         13    1    3    3    0    0 -0.80903115725E+02  0.91674174061E+02 -0.75867022430E+03  0.76845948336E+03  0.00000000000E+00 0.  1.
          1    1    3    3  501    0  0.32559880780E+02 -0.12978837402E+03 -0.17484416285E+03  0.22017186276E+03  0.00000000000E+00 0.  1.
         21    1    1    2  502  501  0.48343234945E+02  0.38114199962E+02 -0.14588322130E+02  0.63265944601E+02  0.00000000000E+00 0.  1.
<mgrwt>
<rscale>  1 0.30000000E+03</rscale>
<asrwt>0</asrwt>
<pdfrwt beam="1">  1        1 0.18871782E+00 0.30000000E+03</pdfrwt>
<pdfrwt beam="2">0</pdfrwt>
<totfact> 0.11597218E+01</totfact>
</mgrwt>
</event>
<event>
 6    1  0.1839160E-004  0.3000000E+03  0.7818608E-02  0.1093470E+00
          1   -1    0    0  502    0  0.00000000000E+00  0.00000000000E+00  0.41573401150E+02  0.41573401150E+02  0.00000000000E+00 0.  1.
         13   -1    0    0    0    0 -0.00000000000E+00 -0.00000000000E+00 -0.10000000000E+04  0.10000000000E+04  0.00000000000E+00 0.  1.
    9000005    2    1    2  501    0  0.20590056643E+02 -0.24589762097E+02 -0.95294835936E+03  0.10090369917E+04  0.33017641975E+03 0.  0.
         13    1    3    3    0    0 -0.77465719718E+02  0.12833641769E+03 -0.44666045320E+03  0.47114406957E+03  0.00000000000E+00 0.  1.
          3    1    3    3  501    0  0.98055776361E+02 -0.15292617979E+03 -0.50628790616E+03  0.53789292212E+03  0.00000000000E+00 0.  1.
         21    1    1    2  502  501 -0.20590056643E+02  0.24589762097E+02 -0.54782394873E+01  0.32536409458E+02  0.00000000000E+00 0. -1.
<mgrwt>
<rscale>  1 0.30000000E+03</rscale>
<asrwt>0</asrwt>
<pdfrwt beam="1">  1        1 0.15117632E+00 0.30000000E+03</pdfrwt>
<pdfrwt beam="2">0</pdfrwt>
<totfact> 0.17719619E+01</totfact>
</mgrwt>
</event>
<event>
 6    1  0.1839160E-004  0.3000000E+03  0.7818608E-02  0.1093470E+00
          1   -1    0    0  502    0  0.00000000000E+00  0.00000000000E+00  0.36058129946E+02  0.36058129946E+02  0.00000000000E+00 0.  1.
         13   -1    0    0    0    0 -0.00000000000E+00 -0.00000000000E+00 -0.10000000000E+04  0.10000000000E+04  0.00000000000E+00 0.  1.
    9000005    2    1    2  501    0  0.54873794563E+01  0.10034219199E+02 -0.97094050595E+03  0.10226500058E+04  0.32086877601E+03 0.  0.
         13    1    3    3    0    0  0.47966058440E+02  0.15552638001E+03 -0.39779161424E+03  0.42979921591E+03  0.00000000000E+00 0.  1.
          1    1    3    3  501    0 -0.42478678983E+02 -0.14549216081E+03 -0.57314889171E+03  0.59285078990E+03  0.00000000000E+00 0.  1.
         21    1    1    2  502  501 -0.54873794563E+01 -0.10034219199E+02  0.69986358949E+01  0.13408124128E+02  0.00000000000E+00 0.  1.
<mgrwt>
<rscale>  1 0.30000000E+03</rscale>
<asrwt>0</asrwt>
<pdfrwt beam="1">  1        1 0.13112075E+00 0.30000000E+03</pdfrwt>
<pdfrwt beam="2">0</pdfrwt>
<totfact> 0.22561213E+01</totfact>
</mgrwt>
</event>
<event>
 6    1  0.1839160E-004  0.3000000E+03  0.7818608E-02  0.1093470E+00
          1   -1    0    0  502    0  0.00000000000E+00  0.00000000000E+00  0.35016186030E+02  0.35016186030E+02  0.00000000000E+00 0.  1.
         13   -1    0    0    0    0 -0.00000000000E+00 -0.00000000000E+00 -0.10000000000E+04  0.10000000000E+04  0.00000000000E+00 0.  1.
    9000005    2    1    2  501    0  0.13622509346E+02  0.37341582285E+01 -0.96977261764E+03  0.10201014504E+04  0.31614636240E+03 0.  0.
         13    1    3    3    0    0 -0.18910771174E+02 -0.51776982361E+02 -0.74422216538E+01  0.55622475960E+02  0.00000000000E+00 0.  1.
          3    1    3    3  501    0  0.32533280520E+02  0.55511140590E+02 -0.96233039599E+03  0.96447897443E+03  0.00000000000E+00 0.  1.
         21    1    1    2  502  501 -0.13622509346E+02 -0.37341582285E+01  0.47888036745E+01  0.14914735640E+02  0.00000000000E+00 0. -1.
<mgrwt>
<rscale>  1 0.30000000E+03</rscale>
<asrwt>0</asrwt>
<pdfrwt beam="1">  1        1 0.12733185E+00 0.30000000E+03</pdfrwt>
<pdfrwt beam="2">0</pdfrwt>
<totfact> 0.23662000E+01</totfact>
</mgrwt>
</event>
<event>
 6    1  0.1839160E-004  0.3000000E+03  0.7818608E-02  0.1093470E+00
          3   -1    0    0  502    0  0.00000000000E+00  0.00000000000E+00  0.26970826592E+02  0.26970826592E+02  0.00000000000E+00 0.  1.
         13   -1    0    0    0    0 -0.00000000000E+00 -0.00000000000E+00 -0.10000000000E+04  0.10000000000E+04  0.00000000000E+00 0.  1.
    9000005    2    1    2  501    0  0.22942586585E+01 -0.14058342409E+02 -0.95742238314E+03  0.10058409303E+04  0.30798613078E+03 0.  0.
         13    1    3    3    0    0 -0.10580071079E+03 -0.91541222090E+02 -0.25424395117E+03  0.29019574851E+03  0.00000000000E+00 0.  1.
          3    1    3    3  501    0  0.10809496945E+03  0.77482879681E+02 -0.70317843197E+03  0.71564518181E+03  0.00000000000E+00 0.  1.
         21    1    1    2  502  501 -0.22942586585E+01  0.14058342409E+02 -0.15606790272E+02  0.21129896277E+02  0.00000000000E+00 0.  1.
<mgrwt>
<rscale>  1 0.30000000E+03</rscale>
<asrwt>0</asrwt>
<pdfrwt beam="1">  1        3 0.98075940E-01 0.30000000E+03</pdfrwt>
<pdfrwt beam="2">0</pdfrwt>
<totfact> 0.41200070E+00</totfact>
</mgrwt>
</event>
<event>
 6    1  0.1839160E-004  0.3000000E+03  0.7818608E-02  0.1093470E+00
          1   -1    0    0  502    0  0.00000000000E+00  0.00000000000E+00  0.43430021540E+02  0.43430021540E+02  0.00000000000E+00 0.  1.
         13   -1    0    0    0    0 -0.00000000000E+00 -0.00000000000E+00 -0.10000000000E+04  0.10000000000E+04  0.00000000000E+00 0.  1.
    9000005    2    1    2  501    0  0.24301144355E+02  0.13841694473E+01 -0.96077174686E+03  0.10187294871E+04  0.33783865508E+03 0.  0.
         13    1    3    3    0    0 -0.66808998594E+02 -0.14752134219E+03 -0.52054785458E+03  0.54515691099E+03  0.00000000000E+00 0.  1.
          1    1    3    3  501    0  0.91110142949E+02  0.14890551164E+03 -0.44022389228E+03  0.47357257615E+03  0.00000000000E+00 0.  1.
         21    1    1    2  502  501 -0.24301144355E+02 -0.13841694473E+01  0.42017683976E+01  0.24700534401E+02  0.00000000000E+00 0. -1.
<mgrwt>
<rscale>  1 0.30000000E+03</rscale>
<asrwt>0</asrwt>
<pdfrwt beam="1">  1        1 0.15792768E+00 0.30000000E+03</pdfrwt>
<pdfrwt beam="2">0</pdfrwt>
<totfact> 0.16387710E+01</totfact>
</mgrwt>
</event>
<event>
 6    1  0.1839160E-004  0.3000000E+03  0.7818608E-02  0.1093470E+00
          1   -1    0    0  502    0  0.00000000000E+00  0.00000000000E+00  0.29987318184E+02  0.29987318184E+02  0.00000000000E+00 0.  1.
         13   -1    0    0    0    0 -0.00000000000E+00 -0.00000000000E+00 -0.10000000000E+04  0.10000000000E+04  0.00000000000E+00 0.  1.
    9000005    2    1    2  501    0 -0.11512191326E+02 -0.20150381173E+02 -0.90810863187E+03  0.96387620104E+03  0.32226925891E+03 0.  0.
         13    1    3    3    0    0 -0.16594375854E+01  0.16174725054E+02 -0.92318729601E+03  0.92333047117E+03  0.00000000000E+00 0.  1.
          1    1    3    3  501    0 -0.98527537410E+01 -0.36325106227E+02  0.15078664142E+02  0.40545729873E+02  0.00000000000E+00 0.  1.
         21    1    1    2  502  501  0.11512191326E+02  0.20150381173E+02 -0.61904049944E+02  0.66111117144E+02  0.00000000000E+00 0.  1.
<mgrwt>
<rscale>  1 0.30000000E+03</rscale>
<asrwt>0</asrwt>
<pdfrwt beam="1">  1        1 0.10904502E+00 0.30000000E+03</pdfrwt>
<pdfrwt beam="2">0</pdfrwt>
<totfact> 0.30102683E+01</totfact>
</mgrwt>
</event>
<event>
 6    1  0.1839160E-004  0.3000000E+03  0.7818608E-02  0.1093470E+00
          1   -1    0    0  502    0  0.00000000000E+00  0.00000000000E+00  0.28377176343E+02  0.28377176343E+02  0.00000000000E+00 0.  1.
         13   -1    0    0    0    0 -0.00000000000E+00 -0.00000000000E+00 -0.10000000000E+04  0.10000000000E+04  0.00000000000E+00 0.  1.
    9000005    2    1    2  501    0  0.34008418918E+01  0.14554700332E+02 -0.94615699270E+03  0.99884899364E+03  0.31978563482E+03 0.  0.
         13    1    3    3    0    0  0.67809971474E+02 -0.22265303022E+02 -0.91597925846E+03  0.91875564645E+03  0.00000000000E+00 0.  1.
          3    1    3    3  501    0 -0.64409129582E+02  0.36820003354E+02 -0.30177734234E+02  0.80093347189E+02  0.00000000000E+00 0.  1.
         21    1    1    2  502  501 -0.34008418918E+01 -0.14554700332E+02 -0.25465830962E+02  0.29528182706E+02  0.00000000000E+00 0. -1.
<mgrwt>
<rscale>  1 0.30000000E+03</rscale>
<asrwt>0</asrwt>
<pdfrwt beam="1">  1        1 0.10318995E+00 0.30000000E+03</pdfrwt>
<pdfrwt beam="2">0</pdfrwt>
<totfact> 0.32683642E+01</totfact>
</mgrwt>
</event>
<event>
 6    1  0.1839160E-004  0.3000000E+03  0.7818608E-02  0.1093470E+00
          1   -1    0    0  502    0  0.00000000000E+00  0.00000000000E+00  0.30935620204E+02  0.30935620204E+02  0.00000000000E+00 0.  1.
         13   -1    0    0    0    0 -0.00000000000E+00 -0.00000000000E+00 -0.10000000000E+04  0.10000000000E+04  0.00000000000E+00 0.  1.
    9000005    2    1    2  501    0 -0.10140133088E+02  0.64982114967E+01 -0.96149522268E+03  0.10167109518E+04  0.33027722783E+03 0.  0.
         13    1    3    3    0    0 -0.10071126809E+03  0.13351922473E+03 -0.60256406162E+03  0.62534277900E+03  0.00000000000E+00 0.  1.
          3    1    3    3  501    0  0.90571135003E+02 -0.12702101324E+03 -0.35893116107E+03  0.39136817281E+03  0.00000000000E+00 0.  1.
         21    1    1    2  502  501  0.10140133088E+02 -0.64982114967E+01 -0.75691571118E+01  0.14224668399E+02  0.00000000000E+00 0. -1.
<mgrwt>
<rscale>  1 0.30000000E+03</rscale>
<asrwt>0</asrwt>
<pdfrwt beam="1">  1        1 0.11249340E+00 0.30000000E+03</pdfrwt>
<pdfrwt beam="2">0</pdfrwt>
<totfact> 0.28717099E+01</totfact>
</mgrwt>
</event>
<event>
 6    1  0.1839160E-004  0.3000000E+03  0.7818608E-02  0.1093470E+00
          3   -1    0    0  502    0  0.00000000000E+00  0.00000000000E+00  0.29816672404E+02  0.29816672404E+02  0.00000000000E+00 0.  1.
         13   -1    0    0    0    0 -0.00000000000E+00 -0.00000000000E+00 -0.10000000000E+04  0.10000000000E+04  0.00000000000E+00 0.  1.
    9000005    2    1    2  501    0  0.25004477277E+02 -0.11185462753E+01 -0.91774184041E+03  0.97170828568E+03  0.31834011966E+03 0.  0.
         13    1    3    3    0    0 -0.10200059347E+03  0.46754798388E+02 -0.73797648050E+03  0.74645791443E+03  0.00000000000E+00 0.  1.
          3    1    3    3  501    0  0.12700507075E+03 -0.47873344663E+02 -0.17976535991E+03  0.22525037125E+03  0.00000000000E+00 0.  1.
         21    1    1    2  502  501 -0.25004477277E+02  0.11185462753E+01 -0.52441487186E+02  0.58108386726E+02  0.00000000000E+00 0.  1.
<mgrwt>
<rscale>  1 0.30000000E+03</rscale>
<asrwt>0</asrwt>
<pdfrwt beam="1">  1        3 0.10842449E+00 0.30000000E+03</pdfrwt>
<pdfrwt beam="2">0</pdfrwt>
<totfact> 0.31407973E+00</totfact>
</mgrwt>
</event>
<event>
 6    1  0.1839160E-004  0.3000000E+03  0.7818608E-02  0.1093470E+00
          1   -1    0    0  502    0  0.00000000000E+00  0.00000000000E+00  0.36211066402E+02  0.36211066402E+02  0.00000000000E+00 0.  1.
         13   -1    0    0    0    0 -0.00000000000E+00 -0.00000000000E+00 -0.10000000000E+04  0.10000000000E+04  0.00000000000E+00 0.  1.
    9000005    2    1    2  501    0  0.26369476906E+02 -0.21728105279E+02 -0.94204685409E+03  0.99571195662E+03  0.32065957868E+03 0.  0.
         13    1    3    3    0    0  0.69970769639E+02 -0.15789126998E+03 -0.61479886272E+03  0.63859470977E+03  0.00000000000E+00 0.  1.
          1    1    3    3  501    0 -0.43601292733E+02  0.13616316470E+03 -0.32724799137E+03  0.35711724686E+03  0.00000000000E+00 0.  1.
         21    1    1    2  502  501 -0.26369476906E+02  0.21728105279E+02 -0.21742079512E+02  0.40499109778E+02  0.00000000000E+00 0.  1.
<mgrwt>
<rscale>  1 0.30000000E+03</rscale>
<asrwt>0</asrwt>
<pdfrwt beam="1">  1        1 0.13167688E+00 0.30000000E+03</pdfrwt>
<pdfrwt beam="2">0</pdfrwt>
<totfact> 0.22405284E+01</totfact>
</mgrwt>
</event>
<event>
 6    1  0.1839160E-004  0.3000000E+03  0.7818608E-02  0.1093470E+00
          1   -1    0    0  502    0  0.00000000000E+00  0.00000000000E+00  0.39856675438E+02  0.39856675438E+02  0.00000000000E+00 0.  1.
         13   -1    0    0    0    0 -0.00000000000E+00 -0.00000000000E+00 -0.10000000000E+04  0.10000000000E+04  0.00000000000E+00 0.  1.
    9000005    2    1    2  501    0 -0.93101067806E+01  0.16680924195E+02 -0.95989116702E+03  0.10207518356E+04  0.34666745754E+03 0.  0.
         13    1    3    3    0    0 -0.22804657456E+02 -0.15917423953E+03 -0.33742253274E+03  0.37377861968E+03  0.00000000000E+00 0.  1.
          3    1    3    3  501    0  0.13494550676E+02  0.17585516372E+03 -0.62246863428E+03  0.64697321596E+03  0.00000000000E+00 0.  1.
         21    1    1    2  502  501  0.93101067806E+01 -0.16680924195E+02 -0.25215754287E+00  0.19104839797E+02  0.00000000000E+00 0.  1.
<mgrwt>
<rscale>  1 0.30000000E+03</rscale>
<asrwt>0</asrwt>
<pdfrwt beam="1">  1        1 0.14493367E+00 0.30000000E+03</pdfrwt>
<pdfrwt beam="2">0</pdfrwt>
<totfact> 0.19071221E+01</totfact>
</mgrwt>
</event>
<event>
 6    1  0.1839160E-004  0.3000000E+03  0.7818608E-02  0.1093470E+00
          1   -1    0    0  502    0  0.00000000000E+00  0.00000000000E+00  0.35937240100E+02  0.35937240100E+02  0.00000000000E+00 0.  1.
         13   -1    0    0    0    0 -0.00000000000E+00 -0.00000000000E+00 -0.10000000000E+04  0.10000000000E+04  0.00000000000E+00 0.  1.
    9000005    2    1    2  501    0 -0.12347295155E+02 -0.70484397152E-01 -0.96265770748E+03  0.10235100587E+04  0.34743419202E+03 0.  0.
         13    1    3    3    0    0  0.40518877443E+02  0.34932325183E+02  0.50422745061E+01  0.53735196139E+02  0.00000000000E+00 0.  1.
          3    1    3    3  501    0 -0.52866172598E+02 -0.35002809580E+02 -0.96769998199E+03  0.96977486254E+03  0.00000000000E+00 0.  1.
         21    1    1    2  502  501  0.12347295155E+02  0.70484397152E-01 -0.14050524202E+01  0.12427181418E+02  0.00000000000E+00 0.  1.
<mgrwt>
<rscale>  1 0.30000000E+03</rscale>
<asrwt>0</asrwt>
<pdfrwt beam="1">  1        1 0.13068115E+00 0.30000000E+03</pdfrwt>
<pdfrwt beam="2">0</pdfrwt>
<totfact> 0.22685473E+01</totfact>
</mgrwt>
</event>
<event>
 6    1  0.1839160E-004  0.3000000E+03  0.7818608E-02  0.1093470E+00
          1   -1    0    0  502    0  0.00000000000E+00  0.00000000000E+00  0.16416901061E+02  0.16416901061E+02  0.00000000000E+00 0.  1.
         13   -1    0    0    0    0 -0.00000000000E+00 -0.00000000000E+00 -0.10000000000E+04  0.10000000000E+04  0.00000000000E+00 0.  1.
    9000005    2    1    2  501    0  0.11384615755E+02  0.45730131235E+01 -0.97101273833E+03  0.99885171132E+03  0.23385568472E+03 0.  0.
         13    1    3    3    0    0 -0.36256185636E+02 -0.73726109717E+02 -0.13648026888E+03  0.15930133095E+03  0.00000000000E+00 0.  1.
          3    1    3    3  501    0  0.47640801391E+02  0.78299122841E+02 -0.83453246945E+03  0.83955038036E+03  0.00000000000E+00 0.  1.
         21    1    1    2  502  501 -0.11384615755E+02 -0.45730131235E+01 -0.12570360610E+02  0.17565189745E+02  0.00000000000E+00 0. -1.
<mgrwt>
<rscale>  1 0.30000000E+03</rscale>
<asrwt>0</asrwt>
<pdfrwt beam="1">  1        1 0.59697948E-01 0.30000000E+03</pdfrwt>
<pdfrwt beam="2">0</pdfrwt>
<totfact> 0.69810417E+01</totfact>
</mgrwt>
</event>
<event>
 6    1  0.1839160E-004  0.3000000E+03  0.7818608E-02  0.1093470E+00
          1   -1    0    0  502    0  0.00000000000E+00  0.00000000000E+00  0.34039142774E+02  0.34039142774E+02  0.00000000000E+00 0.  1.
         13   -1    0    0    0    0 -0.00000000000E+00 -0.00000000000E+00 -0.10000000000E+04  0.10000000000E+04  0.00000000000E+00 0.  1.
    9000005    2    1    2  501    0 -0.13568104232E+02  0.35283640985E+02 -0.91581515482E+03  0.97124089246E+03  0.32118911034E+03 0.  0.
         13    1    3    3    0    0 -0.94054172404E+02 -0.11572520383E+03 -0.35949465169E+03  0.38919778357E+03  0.00000000000E+00 0.  1.
          1    1    3    3  501    0  0.80486068171E+02  0.15100884482E+03 -0.55632050314E+03  0.58204310888E+03  0.00000000000E+00 0.  1.
         21    1    1    2  502  501  0.13568104232E+02 -0.35283640985E+02 -0.50145702402E+02  0.62798250319E+02  0.00000000000E+00 0. -1.
<mgrwt>
<rscale>  1 0.30000000E+03</rscale>
<asrwt>0</asrwt>
<pdfrwt beam="1">  1        1 0.12377896E+00 0.30000000E+03</pdfrwt>
<pdfrwt beam="2">0</pdfrwt>
<totfact> 0.24757615E+01</totfact>
</mgrwt>
</event>
<event>
 6    1  0.1839160E-004  0.3000000E+03  0.7818608E-02  0.1093470E+00
          1   -1    0    0  502    0  0.00000000000E+00  0.00000000000E+00  0.28331669117E+02  0.28331669117E+02  0.00000000000E+00 0.  1.
         13   -1    0    0    0    0 -0.00000000000E+00 -0.00000000000E+00 -0.10000000000E+04  0.10000000000E+04  0.00000000000E+00 0.  1.
    9000005    2    1    2  501    0 -0.13585284219E+02  0.20668073523E+02 -0.95181210594E+03  0.99661418373E+03  0.29441775928E+03 0.  0.
         13    1    3    3    0    0  0.13962772417E+03 -0.68140875168E+01 -0.45246141755E+03  0.47356485039E+03  0.00000000000E+00 0.  1.
          3    1    3    3  501    0 -0.15321300839E+03  0.27482161040E+02 -0.49935068839E+03  0.52304933334E+03  0.00000000000E+00 0.  1.
         21    1    1    2  502  501  0.13585284219E+02 -0.20668073523E+02 -0.19856224938E+02  0.31717485387E+02  0.00000000000E+00 0.  1.
<mgrwt>
<rscale>  1 0.30000000E+03</rscale>
<asrwt>0</asrwt>
<pdfrwt beam="1">  1        1 0.10302447E+00 0.30000000E+03</pdfrwt>
<pdfrwt beam="2">0</pdfrwt>
<totfact> 0.32761174E+01</totfact>
</mgrwt>
</event>
<event>
 6    1  0.1839160E-004  0.3000000E+03  0.7818608E-02  0.1093470E+00
          1   -1    0    0  502    0  0.00000000000E+00  0.00000000000E+00  0.42577655572E+02  0.42577655572E+02  0.00000000000E+00 0.  1.
         13   -1    0    0    0    0 -0.00000000000E+00 -0.00000000000E+00 -0.10000000000E+04  0.10000000000E+04  0.00000000000E+00 0.  1.
    9000005    2    1    2  501    0  0.21603480465E+02  0.16576195075E+00 -0.96806608994E+03  0.10184939025E+04  0.31577070321E+03 0.  0.
         13    1    3    3    0    0 -0.69188438866E+02 -0.12497668220E+03 -0.29324817188E+03  0.32619120386E+03  0.00000000000E+00 0.  1.
          1    1    3    3  501    0  0.90791919331E+02  0.12514244416E+03 -0.67481791807E+03  0.69230269860E+03  0.00000000000E+00 0.  1.
         21    1    1    2  502  501 -0.21603480465E+02 -0.16576195075E+00  0.10643745515E+02  0.24083753109E+02  0.00000000000E+00 0. -1.
<mgrwt>
<rscale>  1 0.30000000E+03</rscale>
<asrwt>0</asrwt>
<pdfrwt beam="1">  1        1 0.15482816E+00 0.30000000E+03</pdfrwt>
<pdfrwt beam="2">0</pdfrwt>
<totfact> 0.16983653E+01</totfact>
</mgrwt>
</event>
<event>
 6    1  0.1839160E-004  0.3000000E+03  0.7818608E-02  0.1093470E+00
          1   -1    0    0  502    0  0.00000000000E+00  0.00000000000E+00  0.33809082828E+02  0.33809082828E+02  0.00000000000E+00 0.  1.
         13   -1    0    0    0    0 -0.00000000000E+00 -0.00000000000E+00 -0.10000000000E+04  0.10000000000E+04  0.00000000000E+00 0.  1.
    9000005    2    1    2  501    0 -0.36361843169E+01 -0.19787165781E+02 -0.93535755807E+03  0.99699264900E+03  0.34452260733E+03 0.  0.
         13    1    3    3    0    0 -0.26313668217E+02 -0.18038312401E+03 -0.46486267535E+03  0.49932733502E+03  0.00000000000E+00 0.  1.
          1    1    3    3  501    0  0.22677483900E+02  0.16059595823E+03 -0.47049488272E+03  0.49766531398E+03  0.00000000000E+00 0.  1.
         21    1    1    2  502  501  0.36361843169E+01  0.19787165781E+02 -0.30833359106E+02  0.36816433828E+02  0.00000000000E+00 0. -1.
<mgrwt>
<rscale>  1 0.30000000E+03</rscale>
<asrwt>0</asrwt>
<pdfrwt beam="1">  1        1 0.12294238E+00 0.30000000E+03</pdfrwt>
<pdfrwt beam="2">0</pdfrwt>
<totfact> 0.25024985E+01</totfact>
</mgrwt>
</event>
<event>
 6    1  0.1839160E-004  0.3000000E+03  0.7818608E-02  0.1093470E+00
          1   -1    0    0  502    0  0.00000000000E+00  0.00000000000E+00  0.30611456406E+02  0.30611456406E+02  0.00000000000E+00 0.  1.
         13   -1    0    0    0    0 -0.00000000000E+00 -0.00000000000E+00 -0.10000000000E+04  0.10000000000E+04  0.00000000000E+00 0.  1.
    9000005    2    1    2  501    0 -0.12616723120E+02  0.79739253050E+01 -0.95836335043E+03  0.10120555929E+04  0.32492067714E+03 0.  0.
         13    1    3    3    0    0  0.41762732981E+02  0.73028042972E+02 -0.46233840931E+02  0.95993692364E+02  0.00000000000E+00 0.  1.
          1    1    3    3  501    0 -0.54379456101E+02 -0.65054117667E+02 -0.91212950950E+03  0.91606190051E+03  0.00000000000E+00 0.  1.
         21    1    1    2  502  501  0.12616723120E+02 -0.79739253050E+01 -0.11025193164E+02  0.18555863531E+02  0.00000000000E+00 0.  1.
<mgrwt>
<rscale>  1 0.30000000E+03</rscale>
<asrwt>0</asrwt>
<pdfrwt beam="1">  1        1 0.11131462E+00 0.30000000E+03</pdfrwt>
<pdfrwt beam="2">0</pdfrwt>
<totfact> 0.29180393E+01</totfact>
</mgrwt>
</event>
<event>
 6    1  0.1839160E-004  0.3000000E+03  0.7818608E-02  0.1093470E+00
          1   -1    0    0  502    0  0.00000000000E+00  0.00000000000E+00  0.89788095868E+02  0.89788095868E+02  0.00000000000E+00 0.  1.
         13   -1    0    0    0    0 -0.00000000000E+00 -0.00000000000E+00 -0.10000000000E+04  0.10000000000E+04  0.00000000000E+00 0.  1.
    9000005    2    1    2  501    0  0.23994776564E+02 -0.68702180465E+02 -0.95191873324E+03  0.10059120057E+04  0.31688160197E+03 0.  0.
         13    1    3    3    0    0 -0.29781218354E+02 -0.18830903930E+03 -0.49147808128E+03  0.52716024094E+03  0.00000000000E+00 0.  1.
          1    1    3    3  501    0  0.53775994918E+02  0.11960685883E+03 -0.46044065196E+03  0.47875176479E+03  0.00000000000E+00 0.  1.
         21    1    1    2  502  501 -0.23994776564E+02  0.68702180465E+02  0.41706829110E+02  0.83876090141E+02  0.00000000000E+00 0.  1.
<mgrwt>
<rscale>  1 0.30000000E+03</rscale>
<asrwt>0</asrwt>
<pdfrwt beam="1">  1        1 0.32650286E+00 0.30000000E+03</pdfrwt>
<pdfrwt beam="2">0</pdfrwt>
<totfact> 0.25874216E+00</totfact>
</mgrwt>
</event>
<event>
 6    1  0.1839160E-004  0.3000000E+03  0.7818608E-02  0.1093470E+00
          1   -1    0    0  502    0  0.00000000000E+00  0.00000000000E+00  0.47172443055E+02  0.47172443055E+02  0.00000000000E+00 0.  1.
         13   -1    0    0    0    0 -0.00000000000E+00 -0.00000000000E+00 -0.10000000000E+04  0.10000000000E+04  0.00000000000E+00 0.  1.
    9000005    2    1    2  501    0 -0.68010725685E+01  0.62102095274E+02 -0.90013651285E+03  0.96544563623E+03  0.34341900054E+03 0.  0.
         13    1    3    3    0    0 -0.32079767417E+02 -0.24550470724E+02 -0.86903476266E+03  0.86997313510E+03  0.00000000000E+00 0.  1.
          3    1    3    3  501    0  0.25278694848E+02  0.86652565998E+02 -0.31101750192E+02  0.95472501132E+02  0.00000000000E+00 0.  1.
         21    1    1    2  502  501  0.68010725685E+01 -0.62102095274E+02 -0.52691044098E+02  0.81726806824E+02  0.00000000000E+00 0.  1.
<mgrwt>
<rscale>  1 0.30000000E+03</rscale>
<asrwt>0</asrwt>
<pdfrwt beam="1">  1        1 0.17153652E+00 0.30000000E+03</pdfrwt>
<pdfrwt beam="2">0</pdfrwt>
<totfact> 0.14042525E+01</totfact>
</mgrwt>
</event>
<event>
 6    1  0.1839160E-004  0.3000000E+03  0.7818608E-02  0.1093470E+00
          3   -1    0    0  502    0  0.00000000000E+00  0.00000000000E+00  0.40894662249E+02  0.40894662249E+02  0.00000000000E+00 0.  1.
         13   -1    0    0    0    0 -0.00000000000E+00 -0.00000000000E+00 -0.10000000000E+04  0.10000000000E+04  0.00000000000E+00 0.  1.
    9000005    2    1    2  501    0 -0.43184687058E+02 -0.22059304862E+02 -0.92581275830E+03  0.98207352682E+03  0.32401792930E+03 0.  0.
         13    1    3    3    0    0  0.42284615947E+02 -0.87789100549E+02 -0.71192075606E+02  0.12067819418E+03  0.00000000000E+00 0.  1.
          1    1    3    3  501    0 -0.85469303004E+02  0.65729795688E+02 -0.85462068270E+03  0.86139533264E+03  0.00000000000E+00 0.  1.
         21    1    1    2  502  501  0.43184687058E+02  0.22059304862E+02 -0.33292579449E+02  0.58821135433E+02  0.00000000000E+00 0. -1.
<mgrwt>
<rscale>  1 0.30000000E+03</rscale>
<asrwt>0</asrwt>
<pdfrwt beam="1">  1        3 0.14870818E+00 0.30000000E+03</pdfrwt>
<pdfrwt beam="2">0</pdfrwt>
<totfact> 0.10309956E+00</totfact>
</mgrwt>
</event>
<event>
 6    1  0.1839160E-004  0.3000000E+03  0.7818608E-02  0.1093470E+00
          1   -1    0    0  502    0  0.00000000000E+00  0.00000000000E+00  0.62923449508E+02  0.62923449508E+02  0.00000000000E+00 0.  1.
         13   -1    0    0    0    0 -0.00000000000E+00 -0.00000000000E+00 -0.10000000000E+04  0.10000000000E+04  0.00000000000E+00 0.  1.
    9000005    2    1    2  501    0  0.28726693502E+02 -0.27358354509E+02 -0.96068125575E+03  0.10167619440E+04  0.33063979362E+03 0.  0.
         13    1    3    3    0    0  0.70717085656E+02 -0.11199641526E+03 -0.88729753075E+03  0.89712931694E+03  0.00000000000E+00 0.  1.
          3    1    3    3  501    0 -0.41990392153E+02  0.84638060754E+02 -0.73383725000E+02  0.11963262706E+03  0.00000000000E+00 0.  1.
         21    1    1    2  502  501 -0.28726693502E+02  0.27358354509E+02  0.23604705258E+02  0.46161505514E+02  0.00000000000E+00 0.  1.
<mgrwt>
<rscale>  1 0.30000000E+03</rscale>
<asrwt>0</asrwt>
<pdfrwt beam="1">  1        1 0.22881303E+00 0.30000000E+03</pdfrwt>
<pdfrwt beam="2">0</pdfrwt>
<totfact> 0.74957251E+00</totfact>
</mgrwt>
</event>
<event>
 6    1  0.1839160E-004  0.3000000E+03  0.7818608E-02  0.1093470E+00
          1   -1    0    0  502    0  0.00000000000E+00  0.00000000000E+00  0.37645869939E+02  0.37645869939E+02  0.00000000000E+00 0.  1.
         13   -1    0    0    0    0 -0.00000000000E+00 -0.00000000000E+00 -0.10000000000E+04  0.10000000000E+04  0.00000000000E+00 0.  1.
    9000005    2    1    2  501    0 -0.34553527529E+02 -0.17666809088E+02 -0.92904185096E+03  0.98650126761E+03  0.32948433614E+03 0.  0.
         13    1    3    3    0    0 -0.13451468514E+03 -0.14304182850E+02 -0.84529865218E+03  0.85605409966E+03  0.00000000000E+00 0.  1.
          3    1    3    3  501    0  0.99961157608E+02 -0.33626262380E+01 -0.83743198773E+02  0.13044716795E+03  0.00000000000E+00 0.  1.
         21    1    1    2  502  501  0.34553527529E+02  0.17666809088E+02 -0.33312279103E+02  0.51144602326E+02  0.00000000000E+00 0.  1.
<mgrwt>
<rscale>  1 0.30000000E+03</rscale>
<asrwt>0</asrwt>
<pdfrwt beam="1">  1        1 0.13689436E+00 0.30000000E+03</pdfrwt>
<pdfrwt beam="2">0</pdfrwt>
<totfact> 0.21009413E+01</totfact>
</mgrwt>
</event>
<event>
 6    1  0.1839160E-004  0.3000000E+03  0.7818608E-02  0.1093470E+00
          1   -1    0    0  502    0  0.00000000000E+00  0.00000000000E+00  0.44573626626E+02  0.44573626626E+02  0.00000000000E+00 0.  1.
         13   -1    0    0    0    0 -0.00000000000E+00 -0.00000000000E+00 -0.10000000000E+04  0.10000000000E+04  0.00000000000E+00 0.  1.
    9000005    2    1    2  501    0  0.12537413934E+02 -0.37175624544E+02 -0.94489939944E+03  0.10039530532E+04  0.33696831317E+03 0.  0.
         13    1    3    3    0    0  0.50034842125E+02  0.19511579196E+02  0.28399976882E+01  0.53779668427E+02  0.00000000000E+00 0.  1.
          1    1    3    3  501    0 -0.37497428191E+02 -0.56687203740E+02 -0.94773939713E+03  0.95017338473E+03  0.00000000000E+00 0.  1.
         21    1    1    2  502  501 -0.12537413934E+02  0.37175624544E+02 -0.10526973934E+02  0.40620573464E+02  0.00000000000E+00 0.  1.
<mgrwt>
<rscale>  1 0.30000000E+03</rscale>
<asrwt>0</asrwt>
<pdfrwt beam="1">  1        1 0.16208626E+00 0.30000000E+03</pdfrwt>
<pdfrwt beam="2">0</pdfrwt>
<totfact> 0.15626383E+01</totfact>
</mgrwt>
</event>
<event>
 6    1  0.1839160E-004  0.3000000E+03  0.7818608E-02  0.1093470E+00
          1   -1    0    0  502    0  0.00000000000E+00  0.00000000000E+00  0.27050459343E+02  0.27050459343E+02  0.00000000000E+00 0.  1.
         13   -1    0    0    0    0 -0.00000000000E+00 -0.00000000000E+00 -0.10000000000E+04  0.10000000000E+04  0.00000000000E+00 0.  1.
    9000005    2    1    2  501    0 -0.98983496706E+01 -0.33684358540E+01 -0.94270260685E+03  0.99504732369E+03  0.31831061521E+03 0.  0.
         13    1    3    3    0    0 -0.10026644216E+03 -0.11839075816E+03 -0.64437297208E+03  0.66278673658E+03  0.00000000000E+00 0.  1.
          3    1    3    3  501    0  0.90368092491E+02  0.11502232231E+03 -0.29832963477E+03  0.33226058712E+03  0.00000000000E+00 0.  1.
         21    1    1    2  502  501  0.98983496706E+01  0.33684358540E+01 -0.30246933812E+02  0.32003135648E+02  0.00000000000E+00 0.  1.
<mgrwt>
<rscale>  1 0.30000000E+03</rscale>
<asrwt>0</asrwt>
<pdfrwt beam="1">  1        1 0.98365514E-01 0.30000000E+03</pdfrwt>
<pdfrwt beam="2">0</pdfrwt>
<totfact> 0.35059541E+01</totfact>
</mgrwt>
</event>
<event>
 6    1  0.1839160E-004  0.3000000E+03  0.7818608E-02  0.1093470E+00
          1   -1    0    0  502    0  0.00000000000E+00  0.00000000000E+00  0.28835730969E+02  0.28835730969E+02  0.00000000000E+00 0.  1.
         13   -1    0    0    0    0 -0.00000000000E+00 -0.00000000000E+00 -0.10000000000E+04  0.10000000000E+04  0.00000000000E+00 0.  1.
    9000005    2    1    2  501    0  0.34924200032E+01 -0.10043078769E+02 -0.96065595224E+03  0.10138863112E+04  0.32402551305E+03 0.  0.
         13    1    3    3    0    0  0.60703302559E+01  0.15688803674E+03 -0.44596969174E+03  0.47279982120E+03  0.00000000000E+00 0.  1.
          3    1    3    3  501    0 -0.25779102527E+01 -0.16693111551E+03 -0.51468626050E+03  0.54108649003E+03  0.00000000000E+00 0.  1.
         21    1    1    2  502  501 -0.34924200032E+01  0.10043078769E+02 -0.10508316795E+02  0.14949419738E+02  0.00000000000E+00 0. -1.
<mgrwt>
<rscale>  1 0.30000000E+03</rscale>
<asrwt>0</asrwt>
<pdfrwt beam="1">  1        1 0.10485742E+00 0.30000000E+03</pdfrwt>
<pdfrwt beam="2">0</pdfrwt>
<totfact> 0.31917059E+01</totfact>
</mgrwt>
</event>
<event>
 6    1  0.1839160E-004  0.3000000E+03  0.7818608E-02  0.1093470E+00
          1   -1    0    0  502    0  0.00000000000E+00  0.00000000000E+00  0.29606605058E+02  0.29606605058E+02  0.00000000000E+00 0.  1.
         13   -1    0    0    0    0 -0.00000000000E+00 -0.00000000000E+00 -0.10000000000E+04  0.10000000000E+04  0.00000000000E+00 0.  1.
    9000005    2    1    2  501    0  0.10059189084E+02 -0.39454343097E+00 -0.96000796549E+03  0.10151428540E+04  0.32984599026E+03 0.  0.
         13    1    3    3    0    0  0.91182319516E+02  0.14021675992E+03 -0.51238112444E+03  0.53898921310E+03  0.00000000000E+00 0.  1.
          3    1    3    3  501    0 -0.81123130432E+02 -0.14061130335E+03 -0.44762684105E+03  0.47615364091E+03  0.00000000000E+00 0.  1.
         21    1    1    2  502  501 -0.10059189084E+02  0.39454343097E+00 -0.10385429455E+02  0.14463751053E+02  0.00000000000E+00 0. -1.
<mgrwt>
<rscale>  1 0.30000000E+03</rscale>
<asrwt>0</asrwt>
<pdfrwt beam="1">  1        1 0.10766061E+00 0.30000000E+03</pdfrwt>
<pdfrwt beam="2">0</pdfrwt>
<totfact> 0.30685757E+01</totfact>
</mgrwt>
</event>
<event>
 6    1  0.1839160E-004  0.3000000E+03  0.7818608E-02  0.1093470E+00
          1   -1    0    0  502    0  0.00000000000E+00  0.00000000000E+00  0.30691289431E+02  0.30691289431E+02  0.00000000000E+00 0.  1.
         13   -1    0    0    0    0 -0.00000000000E+00 -0.00000000000E+00 -0.10000000000E+04  0.10000000000E+04  0.00000000000E+00 0.  1.
    9000005    2    1    2  501    0 -0.81400777994E+01 -0.12262841415E+02 -0.95700544242E+03  0.10115077404E+04  0.32721835818E+03 0.  0.
         13    1    3    3    0    0 -0.10743263848E+03 -0.38070475669E+02 -0.11030214060E+03  0.15861177494E+03  0.00000000000E+00 0.  1.
          1    1    3    3  501    0  0.99292560681E+02  0.25807634254E+02 -0.84670330182E+03  0.85289596546E+03  0.00000000000E+00 0.  1.
         21    1    1    2  502  501  0.81400777994E+01  0.12262841415E+02 -0.12303268152E+02  0.19183549030E+02  0.00000000000E+00 0.  1.
<mgrwt>
<rscale>  1 0.30000000E+03</rscale>
<asrwt>0</asrwt>
<pdfrwt beam="1">  1        1 0.11160492E+00 0.30000000E+03</pdfrwt>
<pdfrwt beam="2">0</pdfrwt>
<totfact> 0.29065321E+01</totfact>
</mgrwt>
</event>
<event>
 6    1  0.1839160E-004  0.3000000E+03  0.7818608E-02  0.1093470E+00
          1   -1    0    0  502    0  0.00000000000E+00  0.00000000000E+00  0.24449827705E+02  0.24449827705E+02  0.00000000000E+00 0.  1.
         13   -1    0    0    0    0 -0.00000000000E+00 -0.00000000000E+00 -0.10000000000E+04  0.10000000000E+04  0.00000000000E+00 0.  1.
    9000005    2    1    2  501    0  0.43861754494E+00  0.17028641485E+02 -0.93547962422E+03  0.98090886034E+03  0.29456730631E+03 0.  0.
         13    1    3    3    0    0 -0.56536398988E+02  0.74382166819E+02 -0.84118112575E+02  0.12571765196E+03  0.00000000000E+00 0.  1.
          3    1    3    3  501    0  0.56975016533E+02 -0.57353525334E+02 -0.85136151165E+03  0.85519120838E+03  0.00000000000E+00 0.  1.
         21    1    1    2  502  501 -0.43861754494E+00 -0.17028641485E+02 -0.40070548073E+02  0.43540967364E+02  0.00000000000E+00 0.  1.
<mgrwt>
<rscale>  1 0.30000000E+03</rscale>
<asrwt>0</asrwt>
<pdfrwt beam="1">  1        1 0.88908652E-01 0.30000000E+03</pdfrwt>
<pdfrwt beam="2">0</pdfrwt>
<totfact> 0.40525651E+01</totfact>
</mgrwt>
</event>
<event>
 6    1  0.1839160E-004  0.3000000E+03  0.7818608E-02  0.1093470E+00
          3   -1    0    0  502    0  0.00000000000E+00  0.00000000000E+00  0.29218534092E+02  0.29218534092E+02  0.00000000000E+00 0.  1.
         13   -1    0    0    0    0 -0.00000000000E+00 -0.00000000000E+00 -0.10000000000E+04  0.10000000000E+04  0.00000000000E+00 0.  1.
    9000005    2    1    2  501    0 -0.13117587109E+02 -0.82586112811E+01 -0.94770052763E+03  0.10014155583E+04  0.32319739256E+03 0.  0.
         13    1    3    3    0    0  0.97378439873E+02  0.82863692131E+02 -0.18193729099E+03  0.22237385160E+03  0.00000000000E+00 0.  1.
          1    1    3    3  501    0 -0.11049602698E+03 -0.91122303412E+02 -0.76576323664E+03  0.77904170668E+03  0.00000000000E+00 0.  1.
         21    1    1    2  502  501  0.13117587109E+02  0.82586112811E+01 -0.23080938276E+02  0.27802975803E+02  0.00000000000E+00 0. -1.
<mgrwt>
<rscale>  1 0.30000000E+03</rscale>
<asrwt>0</asrwt>
<pdfrwt beam="1">  1        3 0.10624944E+00 0.30000000E+03</pdfrwt>
<pdfrwt beam="2">0</pdfrwt>
<totfact> 0.33251061E+00</totfact>
</mgrwt>
</event>
<event>
 6    1  0.1839160E-004  0.3000000E+03  0.7818608E-02  0.1093470E+00
          3   -1    0    0  502    0  0.00000000000E+00  0.00000000000E+00  0.31688878934E+02  0.31688878934E+02  0.00000000000E+00 0.  1.
         13   -1    0    0    0    0 -0.00000000000E+00 -0.00000000000E+00 -0.10000000000E+04  0.10000000000E+04  0.00000000000E+00 0.  1.
    9000005    2    1    2  501    0 -0.19287933666E+02  0.17894350252E+02 -0.94996328054E+03  0.99961279114E+03  0.31000526718E+03 0.  0.
         13    1    3    3    0    0  0.97580637988E+02 -0.25039615928E+02 -0.79248074894E+03  0.79885837337E+03  0.00000000000E+00 0.  1.
          1    1    3    3  501    0 -0.11686857165E+03  0.42933966180E+02 -0.15748253161E+03  0.20075441777E+03  0.00000000000E+00 0.  1.
         21    1    1    2  502  501  0.19287933666E+02 -0.17894350252E+02 -0.18347840522E+02  0.32076087789E+02  0.00000000000E+00 0.  1.
<mgrwt>
<rscale>  1 0.30000000E+03</rscale>
<asrwt>0</asrwt>
<pdfrwt beam="1">  1        3 0.11523253E+00 0.30000000E+03</pdfrwt>
<pdfrwt beam="2">0</pdfrwt>
<totfact> 0.26256782E+00</totfact>
</mgrwt>
</event>
<event>
 6    1  0.1839160E-004  0.3000000E+03  0.7818608E-02  0.1093470E+00
          3   -1    0    0  502    0  0.00000000000E+00  0.00000000000E+00  0.41979419496E+02  0.41979419496E+02  0.00000000000E+00 0.  1.
         13   -1    0    0    0    0 -0.00000000000E+00 -0.00000000000E+00 -0.10000000000E+04  0.10000000000E+04  0.00000000000E+00 0.  1.
    9000005    2    1    2  501    0  0.30188321783E+02 -0.53547115868E+00 -0.95207053556E+03  0.10112056557E+04  0.33939203290E+03 0.  0.
         13    1    3    3    0    0 -0.11012547234E+02  0.12963766077E+03 -0.15427988029E+03  0.20181546211E+03  0.00000000000E+00 0.  1.
          3    1    3    3  501    0  0.41200869017E+02 -0.13017313193E+03 -0.79779065528E+03  0.80939019362E+03  0.00000000000E+00 0.  1.
         21    1    1    2  502  501 -0.30188321783E+02  0.53547115868E+00 -0.59500449409E+01  0.30773763764E+02  0.00000000000E+00 0. -1.
<mgrwt>
<rscale>  1 0.30000000E+03</rscale>
<asrwt>0</asrwt>
<pdfrwt beam="1">  1        3 0.15265276E+00 0.30000000E+03</pdfrwt>
<pdfrwt beam="2">0</pdfrwt>
<totfact> 0.90886510E-01</totfact>
</mgrwt>
</event>
<event>
 6    1  0.1839160E-004  0.3000000E+03  0.7818608E-02  0.1093470E+00
          1   -1    0    0  502    0  0.00000000000E+00  0.00000000000E+00  0.34018428085E+02  0.34018428085E+02  0.00000000000E+00 0.  1.
         13   -1    0    0    0    0 -0.00000000000E+00 -0.00000000000E+00 -0.10000000000E+04  0.10000000000E+04  0.00000000000E+00 0.  1.
    9000005    2    1    2  501    0 -0.10653675062E+02  0.14817812534E+02 -0.96021429404E+03  0.10148786827E+04  0.32807648757E+03 0.  0.
         13    1    3    3    0    0 -0.32347916937E+02 -0.13096746341E+03 -0.72393603715E+03  0.73639816003E+03  0.00000000000E+00 0.  1.
          1    1    3    3  501    0  0.21694241874E+02  0.14578527594E+03 -0.23627825688E+03  0.27848052264E+03  0.00000000000E+00 0.  1.
         21    1    1    2  502  501  0.10653675062E+02 -0.14817812534E+02 -0.57672778772E+01  0.19139745420E+02  0.00000000000E+00 0. -1.
<mgrwt>
<rscale>  1 0.30000000E+03</rscale>
<asrwt>0</asrwt>
<pdfrwt beam="1">  1        1 0.12370364E+00 0.30000000E+03</pdfrwt>
<pdfrwt beam="2">0</pdfrwt>
<totfact> 0.24781537E+01</totfact>
</mgrwt>
</event>
<event>
 6    1  0.1839160E-004  0.3000000E+03  0.7818608E-02  0.1093470E+00
          1   -1    0    0  502    0  0.00000000000E+00  0.00000000000E+00  0.31781768769E+02  0.31781768769E+02  0.00000000000E+00 0.  1.
         13   -1    0    0    0    0 -0.00000000000E+00 -0.00000000000E+00 -0.10000000000E+04  0.10000000000E+04  0.00000000000E+00 0.  1.
    9000005    2    1    2  501    0 -0.20721780360E+02 -0.15367213129E+02 -0.92177907175E+03  0.97865796098E+03  0.32776394563E+03 0.  0.
         13    1    3    3    0    0 -0.11155175189E+03 -0.11022706043E+03 -0.25730998028E+03  0.30133407400E+03  0.00000000000E+00 0.  1.
          3    1    3    3  501    0  0.90829971532E+02  0.94859847298E+02 -0.66446909147E+03  0.67732388698E+03  0.00000000000E+00 0.  1.
         21    1    1    2  502  501  0.20721780360E+02  0.15367213129E+02 -0.46439159480E+02  0.53123807788E+02  0.00000000000E+00 0. -1.
<mgrwt>
<rscale>  1 0.30000000E+03</rscale>
<asrwt>0</asrwt>
<pdfrwt beam="1">  1        1 0.11557031E+00 0.30000000E+03</pdfrwt>
<pdfrwt beam="2">0</pdfrwt>
<totfact> 0.27555977E+01</totfact>
</mgrwt>
</event>
<event>
 6    1  0.1839160E-004  0.3000000E+03  0.7818608E-02  0.1093470E+00
          1   -1    0    0  502    0  0.00000000000E+00  0.00000000000E+00  0.28440669903E+02  0.28440669903E+02  0.00000000000E+00 0.  1.
         13   -1    0    0    0    0 -0.00000000000E+00 -0.00000000000E+00 -0.10000000000E+04  0.10000000000E+04  0.00000000000E+00 0.  1.
    9000005    2    1    2  501    0  0.64755336257E+01 -0.82858085090E+01 -0.96623201411E+03  0.10166522241E+04  0.31601717130E+03 0.  0.
         13    1    3    3    0    0  0.75956537904E+01 -0.10276356193E+03 -0.88807066068E+03  0.89402882614E+03  0.00000000000E+00 0.  1.
          1    1    3    3  501    0 -0.11201201647E+01  0.94477753421E+02 -0.78161353430E+02  0.12262339797E+03  0.00000000000E+00 0.  1.
         21    1    1    2  502  501 -0.64755336257E+01  0.82858085090E+01 -0.53273159874E+01  0.11788445785E+02  0.00000000000E+00 0. -1.
<mgrwt>
<rscale>  1 0.30000000E+03</rscale>
<asrwt>0</asrwt>
<pdfrwt beam="1">  1        1 0.10342084E+00 0.30000000E+03</pdfrwt>
<pdfrwt beam="2">0</pdfrwt>
<totfact> 0.32575911E+01</totfact>
</mgrwt>
</event>
<event>
 6    1  0.1839160E-004  0.3000000E+03  0.7818608E-02  0.1093470E+00
          3   -1    0    0  502    0  0.00000000000E+00  0.00000000000E+00  0.11076432940E+02  0.11076432940E+02  0.00000000000E+00 0.  1.
         13   -1    0    0    0    0 -0.00000000000E+00 -0.00000000000E+00 -0.10000000000E+04  0.10000000000E+04  0.00000000000E+00 0.  1.
    9000005    2    1    2  501    0  0.11659866473E+02  0.35034406196E+01 -0.96970943677E+03  0.98832979835E+03  0.19055490539E+03 0.  0.
         13    1    3    3    0    0 -0.37546935258E+02  0.86555074362E+02 -0.49179793445E+03  0.50076617455E+03  0.00000000000E+00 0.  1.
          1    1    3    3  501    0  0.49206801731E+02 -0.83051633743E+02 -0.47791150232E+03  0.48756362380E+03  0.00000000000E+00 0.  1.
         21    1    1    2  502  501 -0.11659866473E+02 -0.35034406196E+01 -0.19214130293E+02  0.22746634592E+02  0.00000000000E+00 0. -1.
<mgrwt>
<rscale>  1 0.30000000E+03</rscale>
<asrwt>0</asrwt>
<pdfrwt beam="1">  1        3 0.40278023E-01 0.30000000E+03</pdfrwt>
<pdfrwt beam="2">0</pdfrwt>
<totfact> 0.26563288E+01</totfact>
</mgrwt>
</event>
<event>
 6    1  0.1839160E-004  0.3000000E+03  0.7818608E-02  0.1093470E+00
          1   -1    0    0  502    0  0.00000000000E+00  0.00000000000E+00  0.32998622385E+02  0.32998622385E+02  0.00000000000E+00 0.  1.
         13   -1    0    0    0    0 -0.00000000000E+00 -0.00000000000E+00 -0.10000000000E+04  0.10000000000E+04  0.00000000000E+00 0.  1.
    9000005    2    1    2  501    0  0.13428246581E+02 -0.19853871623E+02 -0.93988654000E+03  0.99680872817E+03  0.33115923428E+03 0.  0.
         13    1    3    3    0    0  0.59310912207E+02  0.14418848047E+03 -0.54235702133E+03  0.56432193010E+03  0.00000000000E+00 0.  1.
          1    1    3    3  501    0 -0.45882665626E+02 -0.16404235210E+03 -0.39752951867E+03  0.43248679807E+03  0.00000000000E+00 0.  1.
         21    1    1    2  502  501 -0.13428246581E+02  0.19853871623E+02 -0.27114837616E+02  0.36189894219E+02  0.00000000000E+00 0.  1.
<mgrwt>
<rscale>  1 0.30000000E+03</rscale>
<asrwt>0</asrwt>
<pdfrwt beam="1">  1        1 0.11999524E+00 0.30000000E+03</pdfrwt>
<pdfrwt beam="2">0</pdfrwt>
<totfact> 0.25997631E+01</totfact>
</mgrwt>
</event>
<event>
 6    1  0.1839160E-004  0.3000000E+03  0.7818608E-02  0.1093470E+00
          3   -1    0    0  502    0  0.00000000000E+00  0.00000000000E+00  0.31951750501E+02  0.31951750501E+02  0.00000000000E+00 0.  1.
         13   -1    0    0    0    0 -0.00000000000E+00 -0.00000000000E+00 -0.10000000000E+04  0.10000000000E+04  0.00000000000E+00 0.  1.
    9000005    2    1    2  501    0 -0.12749322018E+02 -0.22011900819E+02 -0.94503276034E+03  0.99764749813E+03  0.31869506337E+03 0.  0.
         13    1    3    3    0    0 -0.14317279748E+03  0.18061654262E+02 -0.24415820322E+03  0.28361576383E+03  0.00000000000E+00 0.  1.
          1    1    3    3  501    0  0.13042347546E+03 -0.40073555080E+02 -0.70087455713E+03  0.71403173431E+03  0.00000000000E+00 0.  1.
         21    1    1    2  502  501  0.12749322018E+02  0.22011900819E+02 -0.23015489155E+02  0.34304252369E+02  0.00000000000E+00 0.  1.
<mgrwt>
<rscale>  1 0.30000000E+03</rscale>
<asrwt>0</asrwt>
<pdfrwt beam="1">  1        3 0.11618843E+00 0.30000000E+03</pdfrwt>
<pdfrwt beam="2">0</pdfrwt>
<totfact> 0.25599842E+00</totfact>
</mgrwt>
</event>
<event>
 6    1  0.1839160E-004  0.3000000E+03  0.7818608E-02  0.1093470E+00
          3   -1    0    0  502    0  0.00000000000E+00  0.00000000000E+00  0.54831074729E+02  0.54831074729E+02  0.00000000000E+00 0.  1.
         13   -1    0    0    0    0 -0.00000000000E+00 -0.00000000000E+00 -0.10000000000E+04  0.10000000000E+04  0.00000000000E+00 0.  1.
    9000005    2    1    2  501    0 -0.20917891449E+02 -0.18811396387E+00 -0.96716816040E+03  0.10244738694E+04  0.33718669162E+03 0.  0.
         13    1    3    3    0    0 -0.66856365682E+02 -0.15397953587E+03 -0.37347496603E+03  0.40946675243E+03  0.00000000000E+00 0.  1.
          3    1    3    3  501    0  0.45938474233E+02  0.15379142190E+03 -0.59369319438E+03  0.61500711696E+03  0.00000000000E+00 0.  1.
         21    1    1    2  502  501  0.20917891449E+02  0.18811396387E+00  0.21999235131E+02  0.30357205337E+02  0.00000000000E+00 0.  1.
<mgrwt>
<rscale>  1 0.30000000E+03</rscale>
<asrwt>0</asrwt>
<pdfrwt beam="1">  1        3 0.19938615E+00 0.30000000E+03</pdfrwt>
<pdfrwt beam="2">0</pdfrwt>
<totfact> 0.12213902E-01</totfact>
</mgrwt>
</event>
<event>
 6    1  0.1839160E-004  0.3000000E+03  0.7818608E-02  0.1093470E+00
          1   -1    0    0  502    0  0.00000000000E+00  0.00000000000E+00  0.43698255576E+02  0.43698255576E+02  0.00000000000E+00 0.  1.
         13   -1    0    0    0    0 -0.00000000000E+00 -0.00000000000E+00 -0.10000000000E+04  0.10000000000E+04  0.00000000000E+00 0.  1.
    9000005    2    1    2  501    0  0.38936631434E+02  0.18683780965E+02 -0.92513670291E+03  0.99044034770E+03  0.35103990991E+03 0.  0.
         13    1    3    3    0    0  0.14579105323E+03  0.13066215544E+03 -0.58101776469E+03  0.61311440446E+03  0.00000000000E+00 0.  1.
          3    1    3    3  501    0 -0.10685442179E+03 -0.11197837447E+03 -0.34411893822E+03  0.37732594324E+03  0.00000000000E+00 0.  1.
         21    1    1    2  502  501 -0.38936631434E+02 -0.18683780965E+02 -0.31165041517E+02  0.53257907876E+02  0.00000000000E+00 0. -1.
<mgrwt>
<rscale>  1 0.30000000E+03</rscale>
<asrwt>0</asrwt>
<pdfrwt beam="1">  1        1 0.15890308E+00 0.30000000E+03</pdfrwt>
<pdfrwt beam="2">0</pdfrwt>
<totfact> 0.16205320E+01</totfact>
</mgrwt>
</event>
<event>
 6    1  0.1839160E-004  0.3000000E+03  0.7818608E-02  0.1093470E+00
          1   -1    0    0  502    0  0.00000000000E+00  0.00000000000E+00  0.21899920074E+02  0.21899920074E+02  0.00000000000E+00 0.  1.
         13   -1    0    0    0    0 -0.00000000000E+00 -0.00000000000E+00 -0.10000000000E+04  0.10000000000E+04  0.00000000000E+00 0.  1.
    9000005    2    1    2  501    0  0.19483394103E+02 -0.49905430397E+02 -0.94206249723E+03  0.95733319493E+03  0.16166305330E+03 0.  0.
         13    1    3    3    0    0  0.43457659901E+02 -0.62428729805E+02 -0.18826797709E+03  0.20305355379E+03  0.00000000000E+00 0.  1.
          1    1    3    3  501    0 -0.23974265798E+02  0.12523299409E+02 -0.75379452014E+03  0.75427964115E+03  0.00000000000E+00 0.  1.
         21    1    1    2  502  501 -0.19483394103E+02  0.49905430397E+02 -0.36037582696E+02  0.64566725141E+02  0.00000000000E+00 0.  1.
<mgrwt>
<rscale>  1 0.30000000E+03</rscale>
<asrwt>0</asrwt>
<pdfrwt beam="1">  1        1 0.79636241E-01 0.30000000E+03</pdfrwt>
<pdfrwt beam="2">0</pdfrwt>
<totfact> 0.47262552E+01</totfact>
</mgrwt>
</event>
<event>
 6    1  0.1839160E-004  0.3000000E+03  0.7818608E-02  0.1093470E+00
          1   -1    0    0  502    0  0.00000000000E+00  0.00000000000E+00  0.31595635591E+02  0.31595635591E+02  0.00000000000E+00 0.  1.
         13   -1    0    0    0    0 -0.00000000000E+00 -0.00000000000E+00 -0.10000000000E+04  0.10000000000E+04  0.00000000000E+00 0.  1.
    9000005    2    1    2  501    0  0.14925160070E+02  0.10066725581E+02 -0.95640368595E+03  0.10099596551E+04  0.32401604146E+03 0.  0.
         13    1    3    3    0    0 -0.19833038941E+02  0.34190843075E+02  0.11473396253E+02  0.41158255617E+02  0.00000000000E+00 0.  1.
          3    1    3    3  501    0  0.34758199011E+02 -0.24124117494E+02 -0.96787708220E+03  0.96880139951E+03  0.00000000000E+00 0.  1.
         21    1    1    2  502  501 -0.14925160070E+02 -0.10066725581E+02 -0.12000678459E+02  0.21635980461E+02  0.00000000000E+00 0. -1.
<mgrwt>
<rscale>  1 0.30000000E+03</rscale>
<asrwt>0</asrwt>
<pdfrwt beam="1">  1        1 0.11489346E+00 0.30000000E+03</pdfrwt>
<pdfrwt beam="2">0</pdfrwt>
<totfact> 0.27805635E+01</totfact>
</mgrwt>
</event>
<event>
 6    1  0.1839160E-004  0.3000000E+03  0.7818608E-02  0.1093470E+00
          1   -1    0    0  502    0  0.00000000000E+00  0.00000000000E+00  0.31477471843E+02  0.31477471843E+02  0.00000000000E+00 0.  1.
         13   -1    0    0    0    0 -0.00000000000E+00 -0.00000000000E+00 -0.10000000000E+04  0.10000000000E+04  0.00000000000E+00 0.  1.
    9000005    2    1    2  501    0  0.70222016581E+01  0.79304085665E+01 -0.88065793099E+03  0.94297668014E+03  0.33694869814E+03 0.  0.
         13    1    3    3    0    0  0.14680797270E+02  0.12196383810E+03 -0.11317561935E+03  0.16703120794E+03  0.00000000000E+00 0.  1.
          1    1    3    3  501    0 -0.76585956120E+01 -0.11403342954E+03 -0.76748231164E+03  0.77594547219E+03  0.00000000000E+00 0.  1.
         21    1    1    2  502  501 -0.70222016581E+01 -0.79304085665E+01 -0.87864597172E+02  0.88500791704E+02  0.00000000000E+00 0. -1.
<mgrwt>
<rscale>  1 0.30000000E+03</rscale>
<asrwt>0</asrwt>
<pdfrwt beam="1">  1        1 0.11446378E+00 0.30000000E+03</pdfrwt>
<pdfrwt beam="2">0</pdfrwt>
<totfact> 0.27965777E+01</totfact>
</mgrwt>
</event>
<event>
 6    1  0.1839160E-004  0.3000000E+03  0.7818608E-02  0.1093470E+00
          1   -1    0    0  502    0  0.00000000000E+00  0.00000000000E+00  0.30596813159E+02  0.30596813159E+02  0.00000000000E+00 0.  1.
         13   -1    0    0    0    0 -0.00000000000E+00 -0.00000000000E+00 -0.10000000000E+04  0.10000000000E+04  0.00000000000E+00 0.  1.
    9000005    2    1    2  501    0 -0.14227089265E+01 -0.13915392953E+02 -0.96307084669E+03  0.10152423091E+04  0.32096078930E+03 0.  0.
         13    1    3    3    0    0 -0.12758442940E+03  0.47736325224E+02 -0.21804864586E+03  0.25710261635E+03  0.00000000000E+00 0.  1.
          3    1    3    3  501    0  0.12616172047E+03 -0.61651718177E+02 -0.74502220083E+03  0.75813969280E+03  0.00000000000E+00 0.  1.
         21    1    1    2  502  501  0.14227089265E+01  0.13915392953E+02 -0.63323401475E+01  0.15354504012E+02  0.00000000000E+00 0. -1.
<mgrwt>
<rscale>  1 0.30000000E+03</rscale>
<asrwt>0</asrwt>
<pdfrwt beam="1">  1        1 0.11126137E+00 0.30000000E+03</pdfrwt>
<pdfrwt beam="2">0</pdfrwt>
<totfact> 0.29201570E+01</totfact>
</mgrwt>
</event>
<event>
 6    1  0.1839160E-004  0.3000000E+03  0.7818608E-02  0.1093470E+00
          3   -1    0    0  502    0  0.00000000000E+00  0.00000000000E+00  0.32048533844E+02  0.32048533844E+02  0.00000000000E+00 0.  1.
         13   -1    0    0    0    0 -0.00000000000E+00 -0.00000000000E+00 -0.10000000000E+04  0.10000000000E+04  0.00000000000E+00 0.  1.
    9000005    2    1    2  501    0  0.13152377578E+02  0.99540220025E+01 -0.95762951640E+03  0.10125906245E+04  0.32865394342E+03 0.  0.
         13    1    3    3    0    0  0.15426863895E+03 -0.47854523396E+02 -0.34004027424E+03  0.37645219680E+03  0.00000000000E+00 0.  1.
          3    1    3    3  501    0 -0.14111626137E+03  0.57808545398E+02 -0.61758924216E+03  0.63613842768E+03  0.00000000000E+00 0.  1.
         21    1    1    2  502  501 -0.13152377578E+02 -0.99540220025E+01 -0.10321949760E+02  0.19457909364E+02  0.00000000000E+00 0.  1.
<mgrwt>
<rscale>  1 0.30000000E+03</rscale>
<asrwt>0</asrwt>
<pdfrwt beam="1">  1        3 0.11654037E+00 0.30000000E+03</pdfrwt>
<pdfrwt beam="2">0</pdfrwt>
<totfact> 0.25361825E+00</totfact>
</mgrwt>
</event>
<event>
 6    1  0.1839160E-004  0.3000000E+03  0.7818608E-02  0.1093470E+00
          1   -1    0    0  502    0  0.00000000000E+00  0.00000000000E+00  0.56920947758E+02  0.56920947758E+02  0.00000000000E+00 0.  1.
         13   -1    0    0    0    0 -0.00000000000E+00 -0.00000000000E+00 -0.10000000000E+04  0.10000000000E+04  0.00000000000E+00 0.  1.
    9000005    2    1    2  501    0  0.33761383879E+02 -0.18441107049E+02 -0.96185326950E+03  0.10141146783E+04  0.31904069215E+03 0.  0.
         13    1    3    3    0    0  0.65531284235E+01 -0.71627161950E+02 -0.95060655476E+03  0.95332377279E+03  0.00000000000E+00 0.  1.
          3    1    3    3  501    0  0.27208255455E+02  0.53186054900E+02 -0.11246714738E+02  0.60790905514E+02  0.00000000000E+00 0.  1.
         21    1    1    2  502  501 -0.33761383879E+02  0.18441107049E+02  0.18774217257E+02  0.42806269450E+02  0.00000000000E+00 0. -1.
<mgrwt>
<rscale>  1 0.30000000E+03</rscale>
<asrwt>0</asrwt>
<pdfrwt beam="1">  1        1 0.20698570E+00 0.30000000E+03</pdfrwt>
<pdfrwt beam="2">0</pdfrwt>
<totfact> 0.94911857E+00</totfact>
</mgrwt>
</event>
<event>
 6    1  0.1839160E-004  0.3000000E+03  0.7818608E-02  0.1093470E+00
          1   -1    0    0  502    0  0.00000000000E+00  0.00000000000E+00  0.41814547712E+02  0.41814547712E+02  0.00000000000E+00 0.  1.
         13   -1    0    0    0    0 -0.00000000000E+00 -0.00000000000E+00 -0.10000000000E+04  0.10000000000E+04  0.00000000000E+00 0.  1.
    9000005    2    1    2  501    0 -0.14770519410E+01 -0.13467870515E+02 -0.96761400935E+03  0.10253080972E+04  0.33881596475E+03 0.  0.
         13    1    3    3    0    0 -0.16494249069E+03 -0.68940713674E+01 -0.35985894604E+03  0.39591920198E+03  0.00000000000E+00 0.  1.
          3    1    3    3  501    0  0.16346543875E+03 -0.65737991475E+01 -0.60775506331E+03  0.62938889526E+03  0.00000000000E+00 0.  1.
         21    1    1    2  502  501  0.14770519410E+01  0.13467870515E+02  0.94285570634E+01  0.16506450465E+02  0.00000000000E+00 0. -1.
<mgrwt>
<rscale>  1 0.30000000E+03</rscale>
<asrwt>0</asrwt>
<pdfrwt beam="1">  1        1 0.15205322E+00 0.30000000E+03</pdfrwt>
<pdfrwt beam="2">0</pdfrwt>
<totfact> 0.17539408E+01</totfact>
</mgrwt>
</event>
<event>
 6    1  0.1839160E-004  0.3000000E+03  0.7818608E-02  0.1093470E+00
          1   -1    0    0  502    0  0.00000000000E+00  0.00000000000E+00  0.40786749185E+02  0.40786749185E+02  0.00000000000E+00 0.  1.
         13   -1    0    0    0    0 -0.00000000000E+00 -0.00000000000E+00 -0.10000000000E+04  0.10000000000E+04  0.00000000000E+00 0.  1.
    9000005    2    1    2  501    0 -0.10776313105E+02 -0.12825231188E+02 -0.96684193998E+03  0.10223798924E+04  0.33195887088E+03 0.  0.
         13    1    3    3    0    0 -0.23033552546E+02 -0.16336487201E+03 -0.66097668073E+03  0.68125531074E+03  0.00000000000E+00 0.  1.
          1    1    3    3  501    0  0.12257239441E+02  0.15053964082E+03 -0.30586525925E+03  0.34112458164E+03  0.00000000000E+00 0.  1.
         21    1    1    2  502  501  0.10776313105E+02  0.12825231188E+02  0.76286891643E+01  0.18406856808E+02  0.00000000000E+00 0.  1.
<mgrwt>
<rscale>  1 0.30000000E+03</rscale>
<asrwt>0</asrwt>
<pdfrwt beam="1">  1        1 0.14831576E+00 0.30000000E+03</pdfrwt>
<pdfrwt beam="2">0</pdfrwt>
<totfact> 0.18323592E+01</totfact>
</mgrwt>
</event>
<event>
 6    1  0.1839160E-004  0.3000000E+03  0.7818608E-02  0.1093470E+00
          1   -1    0    0  502    0  0.00000000000E+00  0.00000000000E+00  0.32158567533E+02  0.32158567533E+02  0.00000000000E+00 0.  1.
         13   -1    0    0    0    0 -0.00000000000E+00 -0.00000000000E+00 -0.10000000000E+04  0.10000000000E+04  0.00000000000E+00 0.  1.
    9000005    2    1    2  501    0  0.11855167864E+02  0.61972636708E+01 -0.97015840777E+03  0.10185821373E+04  0.31003755139E+03 0.  0.
         13    1    3    3    0    0 -0.69517938395E+02 -0.66618706754E+02 -0.90396328425E+02  0.13206926986E+03  0.00000000000E+00 0.  1.
          3    1    3    3  501    0  0.81373106259E+02  0.72815970425E+02 -0.87976207934E+03  0.88651286749E+03  0.00000000000E+00 0.  1.
         21    1    1    2  502  501 -0.11855167864E+02 -0.61972636708E+01  0.23169753006E+01  0.13576430187E+02  0.00000000000E+00 0.  1.
<mgrwt>
<rscale>  1 0.30000000E+03</rscale>
<asrwt>0</asrwt>
<pdfrwt beam="1">  1        1 0.11694049E+00 0.30000000E+03</pdfrwt>
<pdfrwt beam="2">0</pdfrwt>
<totfact> 0.27060053E+01</totfact>
</mgrwt>
</event>
<event>
 6    1  0.1839160E-004  0.3000000E+03  0.7818608E-02  0.1093470E+00
          1   -1    0    0  502    0  0.00000000000E+00  0.00000000000E+00  0.25969703667E+02  0.25969703667E+02  0.00000000000E+00 0.  1.
         13   -1    0    0    0    0 -0.00000000000E+00 -0.00000000000E+00 -0.10000000000E+04  0.10000000000E+04  0.00000000000E+00 0.  1.
    9000005    2    1    2  501    0  0.15103478156E+01  0.24838022499E+02 -0.94706211216E+03  0.98927513364E+03  0.28481474194E+03 0.  0.
         13    1    3    3    0    0  0.67216301732E+02  0.95453473303E+02 -0.16986436726E+03  0.20611477397E+03  0.00000000000E+00 0.  1.
          1    1    3    3  501    0 -0.65705953916E+02 -0.70615450804E+02 -0.77719774490E+03  0.78316035966E+03  0.00000000000E+00 0.  1.
         21    1    1    2  502  501 -0.15103478156E+01 -0.24838022499E+02 -0.26968184169E+02  0.36694570029E+02  0.00000000000E+00 0. -1.
<mgrwt>
<rscale>  1 0.30000000E+03</rscale>
<asrwt>0</asrwt>
<pdfrwt beam="1">  1        1 0.94435485E-01 0.30000000E+03</pdfrwt>
<pdfrwt beam="2">0</pdfrwt>
<totfact> 0.37188549E+01</totfact>
</mgrwt>
</event>
<event>
 6    1  0.1839160E-004  0.3000000E+03  0.7818608E-02  0.1093470E+00
          1   -1    0    0  502    0  0.00000000000E+00  0.00000000000E+00  0.36813312421E+02  0.36813312421E+02  0.00000000000E+00 0.  1.
         13   -1    0    0    0    0 -0.00000000000E+00 -0.00000000000E+00 -0.10000000000E+04  0.10000000000E+04  0.00000000000E+00 0.  1.
    9000005    2    1    2  501    0 -0.50379415288E+01 -0.20063635724E+02 -0.96660380148E+03  0.10158465053E+04  0.31175837273E+03 0.  0.
         13    1    3    3    0    0  0.37661967603E+02 -0.40890523490E+02 -0.96674090551E+03  0.96833797669E+03  0.00000000000E+00 0.  1.
          1    1    3    3  501    0 -0.42699909132E+02  0.20826887766E+02  0.13710402643E+00  0.47508528617E+02  0.00000000000E+00 0.  1.
         21    1    1    2  502  501  0.50379415288E+01  0.20063635724E+02  0.34171138992E+01  0.20966807118E+02  0.00000000000E+00 0.  1.
<mgrwt>
<rscale>  1 0.30000000E+03</rscale>
<asrwt>0</asrwt>
<pdfrwt beam="1">  1        1 0.13386687E+00 0.30000000E+03</pdfrwt>
<pdfrwt beam="2">0</pdfrwt>
<totfact> 0.21804844E+01</totfact>
</mgrwt>
</event>
<event>
 6    1  0.1839160E-004  0.3000000E+03  0.7818608E-02  0.1093470E+00
          1   -1    0    0  502    0  0.00000000000E+00  0.00000000000E+00  0.30936385650E+02  0.30936385650E+02  0.00000000000E+00 0.  1.
         13   -1    0    0    0    0 -0.00000000000E+00 -0.00000000000E+00 -0.10000000000E+04  0.10000000000E+04  0.00000000000E+00 0.  1.
    9000005    2    1    2  501    0 -0.15713093963E+01 -0.22618760781E+02 -0.91443812225E+03  0.97179230953E+03  0.32812975496E+03 0.  0.
         13    1    3    3    0    0  0.16310303834E+03 -0.17066634009E+02 -0.47085196038E+03  0.49859346135E+03  0.00000000000E+00 0.  1.
          1    1    3    3  501    0 -0.16467434774E+03 -0.55521267714E+01 -0.44358616187E+03  0.47319884818E+03  0.00000000000E+00 0.  1.
         21    1    1    2  502  501  0.15713093963E+01  0.22618760781E+02 -0.54625492099E+02  0.59144076115E+02  0.00000000000E+00 0.  1.
<mgrwt>
<rscale>  1 0.30000000E+03</rscale>
<asrwt>0</asrwt>
<pdfrwt beam="1">  1        1 0.11249619E+00 0.30000000E+03</pdfrwt>
<pdfrwt beam="2">0</pdfrwt>
<totfact> 0.28716018E+01</totfact>
</mgrwt>
</event>
<event>
 6    1  0.1839160E-004  0.3000000E+03  0.7818608E-02  0.1093470E+00
          1   -1    0    0  502    0  0.00000000000E+00  0.00000000000E+00  0.46022168941E+02  0.46022168941E+02  0.00000000000E+00 0.  1.
         13   -1    0    0    0    0 -0.00000000000E+00 -0.00000000000E+00 -0.10000000000E+04  0.10000000000E+04  0.00000000000E+00 0.  1.
    9000005    2    1    2  501    0 -0.45399010054E+02  0.10965951722E+02 -0.84375744400E+03  0.92631479267E+03  0.37940894638E+03 0.  0.
         13    1    3    3    0    0 -0.12585136891E+03  0.15932878600E+03 -0.35147272899E+03  0.40590307751E+03  0.00000000000E+00 0.  1.
          3    1    3    3  501    0  0.80452358859E+02 -0.14836283428E+03 -0.49228471501E+03  0.52041171516E+03  0.00000000000E+00 0.  1.
         21    1    1    2  502  501  0.45399010054E+02 -0.10965951722E+02 -0.11022038706E+03  0.11970737627E+03  0.00000000000E+00 0. -1.
<mgrwt>
<rscale>  1 0.30000000E+03</rscale>
<asrwt>0</asrwt>
<pdfrwt beam="1">  1        1 0.16735369E+00 0.30000000E+03</pdfrwt>
<pdfrwt beam="2">0</pdfrwt>
<totfact> 0.14719913E+01</totfact>
</mgrwt>
</event>
<event>
 6    1  0.1839160E-004  0.3000000E+03  0.7818608E-02  0.1093470E+00
          1   -1    0    0  502    0  0.00000000000E+00  0.00000000000E+00  0.26902900719E+02  0.26902900719E+02  0.00000000000E+00 0.  1.
         13   -1    0    0    0    0 -0.00000000000E+00 -0.00000000000E+00 -0.10000000000E+04  0.10000000000E+04  0.00000000000E+00 0.  1.
    9000005    2    1    2  501    0 -0.52283345157E+01  0.75104931538E+01 -0.94256825074E+03  0.99503201146E+03  0.31870057033E+03 0.  0.
         13    1    3    3    0    0  0.80453853453E+02 -0.13224638420E+03 -0.47050935367E+03  0.49531906945E+03  0.00000000000E+00 0.  1.
          3    1    3    3  501    0 -0.85682187969E+02  0.13975687736E+03 -0.47205889707E+03  0.49971294200E+03  0.00000000000E+00 0.  1.
         21    1    1    2  502  501  0.52283345157E+01 -0.75104931538E+01 -0.30528848541E+02  0.31870889263E+02  0.00000000000E+00 0. -1.
<mgrwt>
<rscale>  1 0.30000000E+03</rscale>
<asrwt>0</asrwt>
<pdfrwt beam="1">  1        1 0.97828936E-01 0.30000000E+03</pdfrwt>
<pdfrwt beam="2">0</pdfrwt>
<totfact> 0.35339395E+01</totfact>
</mgrwt>
</event>
<event>
 6    1  0.1839160E-004  0.3000000E+03  0.7818608E-02  0.1093470E+00
          1   -1    0    0  502    0  0.00000000000E+00  0.00000000000E+00  0.30852111321E+02  0.30852111321E+02  0.00000000000E+00 0.  1.
         13   -1    0    0    0    0 -0.00000000000E+00 -0.00000000000E+00 -0.10000000000E+04  0.10000000000E+04  0.00000000000E+00 0.  1.
    9000005    2    1    2  501    0  0.15997761862E+02  0.45806763616E+00 -0.96195524130E+03  0.10133058186E+04  0.31807964036E+03 0.  0.
         13    1    3    3    0    0  0.12525548199E+03 -0.88432310081E+02 -0.30440688246E+03  0.34084125238E+03  0.00000000000E+00 0.  1.
          3    1    3    3  501    0 -0.10925772013E+03  0.88890377718E+02 -0.65754835885E+03  0.67246456626E+03  0.00000000000E+00 0.  1.
         21    1    1    2  502  501 -0.15997761862E+02 -0.45806763616E+00 -0.71926473755E+01  0.17546292680E+02  0.00000000000E+00 0.  1.
<mgrwt>
<rscale>  1 0.30000000E+03</rscale>
<asrwt>0</asrwt>
<pdfrwt beam="1">  1        1 0.11218973E+00 0.30000000E+03</pdfrwt>
<pdfrwt beam="2">0</pdfrwt>
<totfact> 0.28835447E+01</totfact>
</mgrwt>
</event>
<event>
 6    1  0.1839160E-004  0.3000000E+03  0.7818608E-02  0.1093470E+00
          1   -1    0    0  502    0  0.00000000000E+00  0.00000000000E+00  0.23687954402E+02  0.23687954402E+02  0.00000000000E+00 0.  1.
         13   -1    0    0    0    0 -0.00000000000E+00 -0.00000000000E+00 -0.10000000000E+04  0.10000000000E+04  0.00000000000E+00 0.  1.
    9000005    2    1    2  501    0 -0.19279991293E+02 -0.23312615192E+02 -0.91467653985E+03  0.95502842003E+03  0.27300350624E+03 0.  0.
         13    1    3    3    0    0 -0.12555404162E+03 -0.82976381168E+02 -0.56595059217E+03  0.58561845085E+03  0.00000000000E+00 0.  1.
          1    1    3    3  501    0  0.10627405033E+03  0.59663765976E+02 -0.34872594768E+03  0.36940996918E+03  0.00000000000E+00 0.  1.
         21    1    1    2  502  501  0.19279991293E+02  0.23312615192E+02 -0.61635505749E+02  0.68659534372E+02  0.00000000000E+00 0.  1.
<mgrwt>
<rscale>  1 0.30000000E+03</rscale>
<asrwt>0</asrwt>
<pdfrwt beam="1">  1        1 0.86138198E-01 0.30000000E+03</pdfrwt>
<pdfrwt beam="2">0</pdfrwt>
<totfact> 0.42372348E+01</totfact>
</mgrwt>
</event>
<event>
 6    1  0.1839160E-004  0.3000000E+03  0.7818608E-02  0.1093470E+00
          1   -1    0    0  502    0  0.00000000000E+00  0.00000000000E+00  0.38048441901E+02  0.38048441901E+02  0.00000000000E+00 0.  1.
         13   -1    0    0    0    0 -0.00000000000E+00 -0.00000000000E+00 -0.10000000000E+04  0.10000000000E+04  0.00000000000E+00 0.  1.
    9000005    2    1    2  501    0  0.47037964956E+01 -0.22006726278E+02 -0.95493879438E+03  0.10144772612E+04  0.34168639255E+03 0.  0.
         13    1    3    3    0    0  0.75875594972E+02  0.33580458143E+02 -0.34897254602E+02  0.90014284757E+02  0.00000000000E+00 0.  1.
          3    1    3    3  501    0 -0.71171798477E+02 -0.55587184421E+02 -0.92004153977E+03  0.92446297648E+03  0.00000000000E+00 0.  1.
         21    1    1    2  502  501 -0.47037964956E+01  0.22006726278E+02 -0.70127637234E+01  0.23571180666E+02  0.00000000000E+00 0. -1.
<mgrwt>
<rscale>  1 0.30000000E+03</rscale>
<asrwt>0</asrwt>
<pdfrwt beam="1">  1        1 0.13835826E+00 0.30000000E+03</pdfrwt>
<pdfrwt beam="2">0</pdfrwt>
<totfact> 0.20638405E+01</totfact>
</mgrwt>
</event>
<event>
 6    1  0.1839160E-004  0.3000000E+03  0.7818608E-02  0.1093470E+00
          1   -1    0    0  502    0  0.00000000000E+00  0.00000000000E+00  0.32197761469E+02  0.32197761469E+02  0.00000000000E+00 0.  1.
         13   -1    0    0    0    0 -0.00000000000E+00 -0.00000000000E+00 -0.10000000000E+04  0.10000000000E+04  0.00000000000E+00 0.  1.
    9000005    2    1    2  501    0 -0.24420481241E+02 -0.24820409591E+01 -0.90290929748E+03  0.96281754650E+03  0.33342151691E+03 0.  0.
         13    1    3    3    0    0  0.12204422293E+03 -0.42058503076E+02 -0.16512276072E+03  0.20959302503E+03  0.00000000000E+00 0.  1.
          1    1    3    3  501    0 -0.14646470417E+03  0.39576462117E+02 -0.73778653676E+03  0.75322452147E+03  0.00000000000E+00 0.  1.
         21    1    1    2  502  501  0.24420481241E+02  0.24820409591E+01 -0.64892941050E+02  0.69380214971E+02  0.00000000000E+00 0.  1.
<mgrwt>
<rscale>  1 0.30000000E+03</rscale>
<asrwt>0</asrwt>
<pdfrwt beam="1">  1        1 0.11708302E+00 0.30000000E+03</pdfrwt>
<pdfrwt beam="2">0</pdfrwt>
<totfact> 0.27009179E+01</totfact>
</mgrwt>
</event>
<event>
 6    1  0.1839160E-004  0.3000000E+03  0.7818608E-02  0.1093470E+00
          1   -1    0    0  502    0  0.00000000000E+00  0.00000000000E+00  0.59157699456E+02  0.59157699456E+02  0.00000000000E+00 0.  1.
         13   -1    0    0    0    0 -0.00000000000E+00 -0.00000000000E+00 -0.10000000000E+04  0.10000000000E+04  0.00000000000E+00 0.  1.
    9000005    2    1    2  501    0  0.26643894209E+01  0.31129925766E+02 -0.95919468195E+03  0.10229226177E+04  0.35403399920E+03 0.  0.
         13    1    3    3    0    0  0.67627720465E+02  0.12612689520E+03 -0.15670015381E+03  0.21221790799E+03  0.00000000000E+00 0.  1.
          1    1    3    3  501    0 -0.64963331044E+02 -0.94996969435E+02 -0.80249452814E+03  0.81070470967E+03  0.00000000000E+00 0.  1.
         21    1    1    2  502  501 -0.26643894209E+01 -0.31129925766E+02  0.18352381411E+02  0.36235081794E+02  0.00000000000E+00 0. -1.
<mgrwt>
<rscale>  1 0.30000000E+03</rscale>
<asrwt>0</asrwt>
<pdfrwt beam="1">  1        1 0.21511936E+00 0.30000000E+03</pdfrwt>
<pdfrwt beam="2">0</pdfrwt>
<totfact> 0.86897115E+00</totfact>
</mgrwt>
</event>
<event>
 6    1  0.1839160E-004  0.3000000E+03  0.7818608E-02  0.1093470E+00
          1   -1    0    0  502    0  0.00000000000E+00  0.00000000000E+00  0.24902038072E+02  0.24902038072E+02  0.00000000000E+00 0.  1.
         13   -1    0    0    0    0 -0.00000000000E+00 -0.00000000000E+00 -0.10000000000E+04  0.10000000000E+04  0.00000000000E+00 0.  1.
    9000005    2    1    2  501    0 -0.68817672596E+01 -0.19169140777E+02 -0.94415617399E+03  0.98785869967E+03  0.28986050949E+03 0.  0.
         13    1    3    3    0    0  0.13447854891E+03  0.34891876624E+02 -0.47430193567E+03  0.49423096762E+03  0.00000000000E+00 0.  1.
          1    1    3    3  501    0 -0.14136031617E+03 -0.54061017401E+02 -0.46985423832E+03  0.49362773205E+03  0.00000000000E+00 0.  1.
         21    1    1    2  502  501  0.68817672596E+01  0.19169140777E+02 -0.30941787939E+02  0.37043338397E+02  0.00000000000E+00 0. -1.
<mgrwt>
<rscale>  1 0.30000000E+03</rscale>
<asrwt>0</asrwt>
<pdfrwt beam="1">  1        1 0.90553057E-01 0.30000000E+03</pdfrwt>
<pdfrwt beam="2">0</pdfrwt>
<totfact> 0.39487111E+01</totfact>
</mgrwt>
</event>
<event>
 6    1  0.1839160E-004  0.3000000E+03  0.7818608E-02  0.1093470E+00
          1   -1    0    0  502    0  0.00000000000E+00  0.00000000000E+00  0.49051242092E+02  0.49051242092E+02  0.00000000000E+00 0.  1.
         13   -1    0    0    0    0 -0.00000000000E+00 -0.00000000000E+00 -0.10000000000E+04  0.10000000000E+04  0.00000000000E+00 0.  1.
    9000005    2    1    2  501    0  0.34341523350E+02  0.30710621619E+02 -0.93294214734E+03  0.99958690615E+03  0.35590792370E+03 0.  0.
         13    1    3    3    0    0  0.95692400325E+02  0.53246409932E+02 -0.61301694484E+02  0.12549945576E+03  0.00000000000E+00 0.  1.
          1    1    3    3  501    0 -0.61350876975E+02 -0.22535788312E+02 -0.87164045286E+03  0.87408745039E+03  0.00000000000E+00 0.  1.
         21    1    1    2  502  501 -0.34341523350E+02 -0.30710621619E+02 -0.18006610565E+02  0.49464335943E+02  0.00000000000E+00 0.  1.
<mgrwt>
<rscale>  1 0.30000000E+03</rscale>
<asrwt>0</asrwt>
<pdfrwt beam="1">  1        1 0.17836853E+00 0.30000000E+03</pdfrwt>
<pdfrwt beam="2">0</pdfrwt>
<totfact> 0.13008883E+01</totfact>
</mgrwt>
</event>
<event>
 6    1  0.1839160E-004  0.3000000E+03  0.7818608E-02  0.1093470E+00
          1   -1    0    0  502    0  0.00000000000E+00  0.00000000000E+00  0.28195762947E+02  0.28195762947E+02  0.00000000000E+00 0.  1.
         13   -1    0    0    0    0 -0.00000000000E+00 -0.00000000000E+00 -0.10000000000E+04  0.10000000000E+04  0.00000000000E+00 0.  1.
    9000005    2    1    2  501    0 -0.10788934857E+02  0.12627815406E+01 -0.97360542604E+03  0.10171848586E+04  0.29434591087E+03 0.  0.
         13    1    3    3    0    0  0.11199826294E+03 -0.68116296180E+02 -0.27706625899E+03  0.30651126011E+03  0.00000000000E+00 0.  1.
          3    1    3    3  501    0 -0.12278719780E+03  0.69379077721E+02 -0.69653916705E+03  0.71067359850E+03  0.00000000000E+00 0.  1.
         21    1    1    2  502  501  0.10788934857E+02 -0.12627815406E+01  0.18011889836E+01  0.11010904337E+02  0.00000000000E+00 0. -1.
<mgrwt>
<rscale>  1 0.30000000E+03</rscale>
<asrwt>0</asrwt>
<pdfrwt beam="1">  1        1 0.10253026E+00 0.30000000E+03</pdfrwt>
<pdfrwt beam="2">0</pdfrwt>
<totfact> 0.32994326E+01</totfact>
</mgrwt>
</event>
<event>
 6    1  0.1839160E-004  0.3000000E+03  0.7818608E-02  0.1093470E+00
          1   -1    0    0  502    0  0.00000000000E+00  0.00000000000E+00  0.32379975412E+02  0.32379975412E+02  0.00000000000E+00 0.  1.
         13   -1    0    0    0    0 -0.00000000000E+00 -0.00000000000E+00 -0.10000000000E+04  0.10000000000E+04  0.00000000000E+00 0.  1.
    9000005    2    1    2  501    0  0.17567583449E+02 -0.17072499313E+02 -0.94104257080E+03  0.99623511034E+03  0.32607236129E+03 0.  0.
         13    1    3    3    0    0  0.16300435779E+03  0.33727609621E+02 -0.58662288772E+03  0.60978224367E+03  0.00000000000E+00 0.  1.
          3    1    3    3  501    0 -0.14543677434E+03 -0.50800108934E+02 -0.35441968309E+03  0.38645286667E+03  0.00000000000E+00 0.  1.
         21    1    1    2  502  501 -0.17567583449E+02  0.17072499313E+02 -0.26577453786E+02  0.36144865068E+02  0.00000000000E+00 0.  1.
<mgrwt>
<rscale>  1 0.30000000E+03</rscale>
<asrwt>0</asrwt>
<pdfrwt beam="1">  1        1 0.11774561E+00 0.30000000E+03</pdfrwt>
<pdfrwt beam="2">0</pdfrwt>
<totfact> 0.26774381E+01</totfact>
</mgrwt>
</event>
<event>
 6    1  0.1839160E-004  0.3000000E+03  0.7818608E-02  0.1093470E+00
          1   -1    0    0  502    0  0.00000000000E+00  0.00000000000E+00  0.47205161811E+02  0.47205161811E+02  0.00000000000E+00 0.  1.
         13   -1    0    0    0    0 -0.00000000000E+00 -0.00000000000E+00 -0.10000000000E+04  0.10000000000E+04  0.00000000000E+00 0.  1.
    9000005    2    1    2  501    0 -0.12956529725E+02  0.43544411835E+01 -0.97118039672E+03  0.10242953040E+04  0.32527322991E+03 0.  0.
         13    1    3    3    0    0  0.17414423772E+01 -0.14507884372E+03 -0.69452765440E+03  0.70952065949E+03  0.00000000000E+00 0.  1.
          1    1    3    3  501    0 -0.14697972102E+02  0.14943328490E+03 -0.27665274231E+03  0.31477464455E+03  0.00000000000E+00 0.  1.
         21    1    1    2  502  501  0.12956529725E+02 -0.43544411835E+01  0.18385558529E+02  0.22909857768E+02  0.00000000000E+00 0.  1.
<mgrwt>
<rscale>  1 0.30000000E+03</rscale>
<asrwt>0</asrwt>
<pdfrwt beam="1">  1        1 0.17165550E+00 0.30000000E+03</pdfrwt>
<pdfrwt beam="2">0</pdfrwt>
<totfact> 0.14023776E+01</totfact>
</mgrwt>
</event>
<event>
 6    1  0.1839160E-004  0.3000000E+03  0.7818608E-02  0.1093470E+00
          1   -1    0    0  502    0  0.00000000000E+00  0.00000000000E+00  0.38908669440E+02  0.38908669440E+02  0.00000000000E+00 0.  1.
         13   -1    0    0    0    0 -0.00000000000E+00 -0.00000000000E+00 -0.10000000000E+04  0.10000000000E+04  0.00000000000E+00 0.  1.
    9000005    2    1    2  501    0 -0.29028971128E+02  0.28814987896E+02 -0.88058495081E+03  0.94860771777E+03  0.35036232949E+03 0.  0.
         13    1    3    3    0    0 -0.14500186839E+03  0.12354882210E+03 -0.36507046216E+03  0.41178428287E+03  0.00000000000E+00 0.  1.
          1    1    3    3  501    0  0.11597289727E+03 -0.94733834208E+02 -0.51551448865E+03  0.53682343489E+03  0.00000000000E+00 0.  1.
         21    1    1    2  502  501  0.29028971128E+02 -0.28814987896E+02 -0.80506379754E+02  0.90300951674E+02  0.00000000000E+00 0.  1.
<mgrwt>
<rscale>  1 0.30000000E+03</rscale>
<asrwt>0</asrwt>
<pdfrwt beam="1">  1        1 0.14148637E+00 0.30000000E+03</pdfrwt>
<pdfrwt beam="2">0</pdfrwt>
<totfact> 0.19873244E+01</totfact>
</mgrwt>
</event>
<event>
 6    1  0.1839160E-004  0.3000000E+03  0.7818608E-02  0.1093470E+00
          1   -1    0    0  502    0  0.00000000000E+00  0.00000000000E+00  0.39595830396E+02  0.39595830396E+02  0.00000000000E+00 0.  1.
         13   -1    0    0    0    0 -0.00000000000E+00 -0.00000000000E+00 -0.10000000000E+04  0.10000000000E+04  0.00000000000E+00 0.  1.
    9000005    2    1    2  501    0 -0.24867439600E+02 -0.45913080385E+00 -0.96360474326E+03  0.10145190677E+04  0.31637989384E+03 0.  0.
         13    1    3    3    0    0  0.63336996716E+02 -0.22404925330E+02 -0.25248265778E+02  0.71770681736E+02  0.00000000000E+00 0.  1.
          1    1    3    3  501    0 -0.88204436315E+02  0.21945794526E+02 -0.93835647749E+03  0.94274838601E+03  0.00000000000E+00 0.  1.
         21    1    1    2  502  501  0.24867439600E+02  0.45913080385E+00  0.32005736598E+01  0.25076762652E+02  0.00000000000E+00 0.  1.
<mgrwt>
<rscale>  1 0.30000000E+03</rscale>
<asrwt>0</asrwt>
<pdfrwt beam="1">  1        1 0.14398514E+00 0.30000000E+03</pdfrwt>
<pdfrwt beam="2">0</pdfrwt>
<totfact> 0.19287755E+01</totfact>
</mgrwt>
</event>
<event>
 6    1  0.1839160E-004  0.3000000E+03  0.7818608E-02  0.1093470E+00
          1   -1    0    0  502    0  0.00000000000E+00  0.00000000000E+00  0.37873840538E+02  0.37873840538E+02  0.00000000000E+00 0.  1.
         13   -1    0    0    0    0 -0.00000000000E+00 -0.00000000000E+00 -0.10000000000E+04  0.10000000000E+04  0.00000000000E+00 0.  1.
    9000005    2    1    2  501    0  0.30087011781E+02  0.14775415427E+02 -0.94147747400E+03  0.99850495193E+03  0.33092108395E+03 0.  0.
         13    1    3    3    0    0 -0.39120442515E+01  0.26592348322E+01 -0.95856102214E+03  0.95857269353E+03  0.00000000000E+00 0.  1.
          1    1    3    3  501    0  0.33999056033E+02  0.12116180595E+02  0.17083548143E+02  0.39932258395E+02  0.00000000000E+00 0.  1.
         21    1    1    2  502  501 -0.30087011781E+02 -0.14775415427E+02 -0.20648685462E+02  0.39368888609E+02  0.00000000000E+00 0.  1.
<mgrwt>
<rscale>  1 0.30000000E+03</rscale>
<asrwt>0</asrwt>
<pdfrwt beam="1">  1        1 0.13772335E+00 0.30000000E+03</pdfrwt>
<pdfrwt beam="2">0</pdfrwt>
<totfact> 0.20798278E+01</totfact>
</mgrwt>
</event>
<event>
 6    1  0.1839160E-004  0.3000000E+03  0.7818608E-02  0.1093470E+00
          1   -1    0    0  502    0  0.00000000000E+00  0.00000000000E+00  0.25114022438E+02  0.25114022438E+02  0.00000000000E+00 0.  1.
         13   -1    0    0    0    0 -0.00000000000E+00 -0.00000000000E+00 -0.10000000000E+04  0.10000000000E+04  0.00000000000E+00 0.  1.
    9000005    2    1    2  501    0 -0.52701297908E+01 -0.13871559733E+02 -0.94801949663E+03  0.99442196752E+03  0.29985644742E+03 0.  0.
         13    1    3    3    0    0 -0.89210121309E+02 -0.17484664123E+02 -0.88433622994E+03  0.88899647176E+03  0.00000000000E+00 0.  1.
          1    1    3    3  501    0  0.83939991519E+02  0.36131043907E+01 -0.63683266695E+02  0.10542549576E+03  0.00000000000E+00 0.  1.
         21    1    1    2  502  501  0.52701297908E+01  0.13871559733E+02 -0.26866480929E+02  0.30692054915E+02  0.00000000000E+00 0.  1.
<mgrwt>
<rscale>  1 0.30000000E+03</rscale>
<asrwt>0</asrwt>
<pdfrwt beam="1">  1        1 0.91323911E-01 0.30000000E+03</pdfrwt>
<pdfrwt beam="2">0</pdfrwt>
<totfact> 0.39014052E+01</totfact>
</mgrwt>
</event>
<event>
 6    1  0.1839160E-004  0.3000000E+03  0.7818608E-02  0.1093470E+00
          1   -1    0    0  502    0  0.00000000000E+00  0.00000000000E+00  0.40205116016E+02  0.40205116016E+02  0.00000000000E+00 0.  1.
         13   -1    0    0    0    0 -0.00000000000E+00 -0.00000000000E+00 -0.10000000000E+04  0.10000000000E+04  0.00000000000E+00 0.  1.
    9000005    2    1    2  501    0  0.11355453147E+02 -0.25788303201E+02 -0.94266445939E+03  0.10072288466E+04  0.35369433628E+03 0.  0.
         13    1    3    3    0    0  0.69003350785E+02 -0.38980012502E+02 -0.18771218780E+02  0.81444842984E+02  0.00000000000E+00 0.  1.
          3    1    3    3  501    0 -0.57647897638E+02  0.13191709301E+02 -0.92389324061E+03  0.92578400361E+03  0.00000000000E+00 0.  1.
         21    1    1    2  502  501 -0.11355453147E+02  0.25788303201E+02 -0.17130424595E+02  0.32976269422E+02  0.00000000000E+00 0.  1.
<mgrwt>
<rscale>  1 0.30000000E+03</rscale>
<asrwt>0</asrwt>
<pdfrwt beam="1">  1        1 0.14620073E+00 0.30000000E+03</pdfrwt>
<pdfrwt beam="2">0</pdfrwt>
<totfact> 0.18786725E+01</totfact>
</mgrwt>
</event>
<event>
 6    1  0.1839160E-004  0.3000000E+03  0.7818608E-02  0.1093470E+00
          1   -1    0    0  502    0  0.00000000000E+00  0.00000000000E+00  0.27613125870E+02  0.27613125870E+02  0.00000000000E+00 0.  1.
         13   -1    0    0    0    0 -0.00000000000E+00 -0.00000000000E+00 -0.10000000000E+04  0.10000000000E+04  0.00000000000E+00 0.  1.
    9000005    2    1    2  501    0 -0.24700266604E+01 -0.10567330309E+02 -0.94040508606E+03  0.99384029256E+03  0.32130831258E+03 0.  0.
         13    1    3    3    0    0 -0.43678151055E+02  0.10606047871E+03 -0.79371322307E+03  0.80195840697E+03  0.00000000000E+00 0.  1.
          1    1    3    3  501    0  0.41208124394E+02 -0.11662780902E+03 -0.14669186299E+03  0.19188188560E+03  0.00000000000E+00 0.  1.
         21    1    1    2  502  501  0.24700266604E+01  0.10567330309E+02 -0.31981788070E+02  0.33772833309E+02  0.00000000000E+00 0. -1.
<mgrwt>
<rscale>  1 0.30000000E+03</rscale>
<asrwt>0</asrwt>
<pdfrwt beam="1">  1        1 0.10041158E+00 0.30000000E+03</pdfrwt>
<pdfrwt beam="2">0</pdfrwt>
<totfact> 0.34021889E+01</totfact>
</mgrwt>
</event>
<event>
 6    1  0.1839160E-004  0.3000000E+03  0.7818608E-02  0.1093470E+00
          1   -1    0    0  502    0  0.00000000000E+00  0.00000000000E+00  0.33268905808E+02  0.33268905808E+02  0.00000000000E+00 0.  1.
         13   -1    0    0    0    0 -0.00000000000E+00 -0.00000000000E+00 -0.10000000000E+04  0.10000000000E+04  0.00000000000E+00 0.  1.
    9000005    2    1    2  501    0 -0.22001142947E+02  0.17485563726E+01 -0.96401291441E+03  0.10110316344E+04  0.30393578069E+03 0.  0.
         13    1    3    3    0    0 -0.37786592032E+02 -0.13757577009E+03 -0.67357238656E+03  0.68851628811E+03  0.00000000000E+00 0.  1.
          1    1    3    3  501    0  0.15785449085E+02  0.13932432647E+03 -0.29044052785E+03  0.32251534625E+03  0.00000000000E+00 0.  1.
         21    1    1    2  502  501  0.22001142947E+02 -0.17485563726E+01 -0.27181797847E+01  0.22237271453E+02  0.00000000000E+00 0.  1.
<mgrwt>
<rscale>  1 0.30000000E+03</rscale>
<asrwt>0</asrwt>
<pdfrwt beam="1">  1        1 0.12097809E+00 0.30000000E+03</pdfrwt>
<pdfrwt beam="2">0</pdfrwt>
<totfact> 0.25667783E+01</totfact>
</mgrwt>
</event>
<event>
 6    1  0.1839160E-004  0.3000000E+03  0.7818608E-02  0.1093470E+00
          1   -1    0    0  502    0  0.00000000000E+00  0.00000000000E+00  0.29415031308E+02  0.29415031308E+02  0.00000000000E+00 0.  1.
         13   -1    0    0    0    0 -0.00000000000E+00 -0.00000000000E+00 -0.10000000000E+04  0.10000000000E+04  0.00000000000E+00 0.  1.
    9000005    2    1    2  501    0 -0.18560400909E+02  0.22400610480E+02 -0.90808065454E+03  0.96047255442E+03  0.31152973665E+03 0.  0.
         13    1    3    3    0    0  0.55714476105E+01  0.16659079403E+03 -0.48661460263E+03  0.51437078570E+03  0.00000000000E+00 0.  1.
          1    1    3    3  501    0 -0.24131848520E+02 -0.14419018355E+03 -0.42146605190E+03  0.44610176872E+03  0.00000000000E+00 0.  1.
         21    1    1    2  502  501  0.18560400909E+02 -0.22400610480E+02 -0.62504314157E+02  0.68942476892E+02  0.00000000000E+00 0. -1.
<mgrwt>
<rscale>  1 0.30000000E+03</rscale>
<asrwt>0</asrwt>
<pdfrwt beam="1">  1        1 0.10696398E+00 0.30000000E+03</pdfrwt>
<pdfrwt beam="2">0</pdfrwt>
<totfact> 0.30985286E+01</totfact>
</mgrwt>
</event>
<event>
 6    1  0.1839160E-004  0.3000000E+03  0.7818608E-02  0.1093470E+00
          1   -1    0    0  502    0  0.00000000000E+00  0.00000000000E+00  0.48929404172E+02  0.48929404172E+02  0.00000000000E+00 0.  1.
         13   -1    0    0    0    0 -0.00000000000E+00 -0.00000000000E+00 -0.10000000000E+04  0.10000000000E+04  0.00000000000E+00 0.  1.
    9000005    2    1    2  501    0  0.21451874905E+02  0.28870071714E+02 -0.95780573046E+03  0.10123366998E+04  0.32579151678E+03 0.  0.
         13    1    3    3    0    0  0.98339514628E+02  0.14628370342E+03 -0.65974527691E+03  0.68288609038E+03  0.00000000000E+00 0.  1.
          3    1    3    3  501    0 -0.76887639722E+02 -0.11741363171E+03 -0.29806045354E+03  0.32945060938E+03  0.00000000000E+00 0.  1.
         21    1    1    2  502  501 -0.21451874905E+02 -0.28870071714E+02  0.67351346298E+01  0.36592704412E+02  0.00000000000E+00 0.  1.
<mgrwt>
<rscale>  1 0.30000000E+03</rscale>
<asrwt>0</asrwt>
<pdfrwt beam="1">  1        1 0.17792548E+00 0.30000000E+03</pdfrwt>
<pdfrwt beam="2">0</pdfrwt>
<totfact> 0.13073353E+01</totfact>
</mgrwt>
</event>
<event>
 6    1  0.1839160E-004  0.3000000E+03  0.7818608E-02  0.1093470E+00
          1   -1    0    0  502    0  0.00000000000E+00  0.00000000000E+00  0.52324130980E+02  0.52324130980E+02  0.00000000000E+00 0.  1.
         13   -1    0    0    0    0 -0.00000000000E+00 -0.00000000000E+00 -0.10000000000E+04  0.10000000000E+04  0.00000000000E+00 0.  1.
    9000005    2    1    2  501    0  0.13282153402E+02  0.48045346778E+02 -0.95023368734E+03  0.10024110728E+04  0.31527627139E+03 0.  0.
         13    1    3    3    0    0 -0.11265591021E+02  0.24066444865E+02 -0.96477537067E+03  0.96514124519E+03  0.00000000000E+00 0.  1.
          1    1    3    3  501    0  0.24547744423E+02  0.23978901913E+02  0.14541683334E+02  0.37269827574E+02  0.00000000000E+00 0.  1.
         21    1    1    2  502  501 -0.13282153402E+02 -0.48045346778E+02  0.25578183181E+01  0.49913058216E+02  0.00000000000E+00 0.  1.
<mgrwt>
<rscale>  1 0.30000000E+03</rscale>
<asrwt>0</asrwt>
<pdfrwt beam="1">  1        1 0.19026997E+00 0.30000000E+03</pdfrwt>
<pdfrwt beam="2">0</pdfrwt>
<totfact> 0.11399934E+01</totfact>
</mgrwt>
</event>
<event>
 6    1  0.1839160E-004  0.3000000E+03  0.7818608E-02  0.1093470E+00
          1   -1    0    0  502    0  0.00000000000E+00  0.00000000000E+00  0.32312732109E+02  0.32312732109E+02  0.00000000000E+00 0.  1.
         13   -1    0    0    0    0 -0.00000000000E+00 -0.00000000000E+00 -0.10000000000E+04  0.10000000000E+04  0.00000000000E+00 0.  1.
    9000005    2    1    2  501    0 -0.68163333966E+01 -0.37154700699E+02 -0.88755828488E+03  0.94372611854E+03  0.31848444793E+03 0.  0.
         13    1    3    3    0    0 -0.60532142355E+02 -0.16235874005E+03 -0.37044902205E+03  0.40897063301E+03  0.00000000000E+00 0.  1.
          3    1    3    3  501    0  0.53715808958E+02  0.12520403935E+03 -0.51710926283E+03  0.53475548553E+03  0.00000000000E+00 0.  1.
         21    1    1    2  502  501  0.68163333966E+01  0.37154700699E+02 -0.80128983010E+02  0.88586613567E+02  0.00000000000E+00 0.  1.
<mgrwt>
<rscale>  1 0.30000000E+03</rscale>
<asrwt>0</asrwt>
<pdfrwt beam="1">  1        1 0.11750109E+00 0.30000000E+03</pdfrwt>
<pdfrwt beam="2">0</pdfrwt>
<totfact> 0.26860702E+01</totfact>
</mgrwt>
</event>
<event>
 6    1  0.1839160E-004  0.3000000E+03  0.7818608E-02  0.1093470E+00
          1   -1    0    0  502    0  0.00000000000E+00  0.00000000000E+00  0.27540640814E+02  0.27540640814E+02  0.00000000000E+00 0.  1.
         13   -1    0    0    0    0 -0.00000000000E+00 -0.00000000000E+00 -0.10000000000E+04  0.10000000000E+04  0.00000000000E+00 0.  1.
    9000005    2    1    2  501    0 -0.64230677095E+01 -0.93878525951E+01 -0.92924907988E+03  0.98285825264E+03  0.31996422417E+03 0.  0.
         13    1    3    3    0    0 -0.10713289643E+03  0.11248016415E+03 -0.56096488658E+03  0.58207460759E+03  0.00000000000E+00 0.  1.
          1    1    3    3  501    0  0.10070982872E+03 -0.12186801674E+03 -0.36828419330E+03  0.40078364505E+03  0.00000000000E+00 0.  1.
         21    1    1    2  502  501  0.64230677095E+01  0.93878525951E+01 -0.43210279308E+02  0.44682388175E+02  0.00000000000E+00 0. -1.
<mgrwt>
<rscale>  1 0.30000000E+03</rscale>
<asrwt>0</asrwt>
<pdfrwt beam="1">  1        1 0.10014800E+00 0.30000000E+03</pdfrwt>
<pdfrwt beam="2">0</pdfrwt>
<totfact> 0.34153005E+01</totfact>
</mgrwt>
</event>
<event>
 6    1  0.1839160E-004  0.3000000E+03  0.7818608E-02  0.1093470E+00
          1   -1    0    0  502    0  0.00000000000E+00  0.00000000000E+00  0.29527364007E+02  0.29527364007E+02  0.00000000000E+00 0.  1.
         13   -1    0    0    0    0 -0.00000000000E+00 -0.00000000000E+00 -0.10000000000E+04  0.10000000000E+04  0.00000000000E+00 0.  1.
    9000005    2    1    2  501    0 -0.28324565444E+02 -0.11543402420E+02 -0.94342121612E+03  0.98869465085E+03  0.29417340198E+03 0.  0.
         13    1    3    3    0    0 -0.34938116222E+02 -0.33729556851E+02 -0.37166079771E+01  0.48704908842E+02  0.00000000000E+00 0.  1.
          3    1    3    3  501    0  0.66135507779E+01  0.22186154430E+02 -0.93970460815E+03  0.93998974201E+03  0.00000000000E+00 0.  1.
         21    1    1    2  502  501  0.28324565444E+02  0.11543402420E+02 -0.27051419869E+02  0.40832713159E+02  0.00000000000E+00 0. -1.
<mgrwt>
<rscale>  1 0.30000000E+03</rscale>
<asrwt>0</asrwt>
<pdfrwt beam="1">  1        1 0.10737246E+00 0.30000000E+03</pdfrwt>
<pdfrwt beam="2">0</pdfrwt>
<totfact> 0.30809146E+01</totfact>
</mgrwt>
</event>
<event>
 6    1  0.1839160E-004  0.3000000E+03  0.7818608E-02  0.1093470E+00
          1   -1    0    0  502    0  0.00000000000E+00  0.00000000000E+00  0.30955009165E+02  0.30955009165E+02  0.00000000000E+00 0.  1.
         13   -1    0    0    0    0 -0.00000000000E+00 -0.00000000000E+00 -0.10000000000E+04  0.10000000000E+04  0.00000000000E+00 0.  1.
    9000005    2    1    2  501    0 -0.16726848680E+02  0.13147347967E+01 -0.95341498349E+03  0.10080243937E+04  0.32685093182E+03 0.  0.
         13    1    3    3    0    0  0.15421128681E+03 -0.71105827320E+01 -0.40027280677E+03  0.42901049079E+03  0.00000000000E+00 0.  1.
          1    1    3    3  501    0 -0.17093813549E+03  0.84253175287E+01 -0.55314217672E+03  0.57901390294E+03  0.00000000000E+00 0.  1.
         21    1    1    2  502  501  0.16726848680E+02 -0.13147347967E+01 -0.15630007348E+02  0.22930615431E+02  0.00000000000E+00 0.  1.
<mgrwt>
<rscale>  1 0.30000000E+03</rscale>
<asrwt>0</asrwt>
<pdfrwt beam="1">  1        1 0.11256391E+00 0.30000000E+03</pdfrwt>
<pdfrwt beam="2">0</pdfrwt>
<totfact> 0.28689721E+01</totfact>
</mgrwt>
</event>
<event>
 6    1  0.1839160E-004  0.3000000E+03  0.7818608E-02  0.1093470E+00
          1   -1    0    0  502    0  0.00000000000E+00  0.00000000000E+00  0.48896824109E+02  0.48896824109E+02  0.00000000000E+00 0.  1.
         13   -1    0    0    0    0 -0.00000000000E+00 -0.00000000000E+00 -0.10000000000E+04  0.10000000000E+04  0.00000000000E+00 0.  1.
    9000005    2    1    2  501    0  0.59697043005E+02 -0.48242639149E+02 -0.90056769296E+03  0.95700055536E+03  0.31454221366E+03 0.  0.
         13    1    3    3    0    0  0.15313976063E+03  0.46834608387E+02 -0.68559064880E+03  0.70404531428E+03  0.00000000000E+00 0.  1.
          3    1    3    3  501    0 -0.93442717620E+02 -0.95077247537E+02 -0.21497704416E+03  0.25295524108E+03  0.00000000000E+00 0.  1.
         21    1    1    2  502  501 -0.59697043005E+02  0.48242639149E+02 -0.50535482928E+02  0.91896268751E+02  0.00000000000E+00 0.  1.
<mgrwt>
<rscale>  1 0.30000000E+03</rscale>
<asrwt>0</asrwt>
<pdfrwt beam="1">  1        1 0.17780701E+00 0.30000000E+03</pdfrwt>
<pdfrwt beam="2">0</pdfrwt>
<totfact> 0.13090652E+01</totfact>
</mgrwt>
</event>
<event>
 6    1  0.1839160E-004  0.3000000E+03  0.7818608E-02  0.1093470E+00
          1   -1    0    0  502    0  0.00000000000E+00  0.00000000000E+00  0.40377285945E+02  0.40377285945E+02  0.00000000000E+00 0.  1.
         13   -1    0    0    0    0 -0.00000000000E+00 -0.00000000000E+00 -0.10000000000E+04  0.10000000000E+04  0.00000000000E+00 0.  1.
    9000005    2    1    2  501    0 -0.48960907312E+02  0.94886715045E+01 -0.84591117201E+03  0.91620997895E+03  0.34840753331E+03 0.  0.
         13    1    3    3    0    0  0.51587805961E+02 -0.25421107488E+02 -0.79700145445E+03  0.79907374680E+03  0.00000000000E+00 0.  1.
          3    1    3    3  501    0 -0.10054871327E+03  0.34909778993E+02 -0.48909717555E+02  0.11713623215E+03  0.00000000000E+00 0.  1.
         21    1    1    2  502  501  0.48960907312E+02 -0.94886715045E+01 -0.11371154205E+03  0.12416730700E+03  0.00000000000E+00 0.  1.
<mgrwt>
<rscale>  1 0.30000000E+03</rscale>
<asrwt>0</asrwt>
<pdfrwt beam="1">  1        1 0.14682680E+00 0.30000000E+03</pdfrwt>
<pdfrwt beam="2">0</pdfrwt>
<totfact> 0.18648119E+01</totfact>
</mgrwt>
</event>
<event>
 6    1  0.1839160E-004  0.3000000E+03  0.7818608E-02  0.1093470E+00
          1   -1    0    0  502    0  0.00000000000E+00  0.00000000000E+00  0.30667060454E+02  0.30667060454E+02  0.00000000000E+00 0.  1.
         13   -1    0    0    0    0 -0.00000000000E+00 -0.00000000000E+00 -0.10000000000E+04  0.10000000000E+04  0.00000000000E+00 0.  1.
    9000005    2    1    2  501    0  0.14461945661E+02 -0.62642943980E+01 -0.91052127675E+03  0.96978027258E+03  0.33343124091E+03 0.  0.
         13    1    3    3    0    0 -0.21361746734E+02  0.12044782177E+03 -0.76003666175E+03  0.76981798445E+03  0.00000000000E+00 0.  1.
          1    1    3    3  501    0  0.35823692395E+02 -0.12671211616E+03 -0.15048461500E+03  0.19996228812E+03  0.00000000000E+00 0.  1.
         21    1    1    2  502  501 -0.14461945661E+02  0.62642943980E+01 -0.58811662799E+02  0.60886787876E+02  0.00000000000E+00 0.  1.
<mgrwt>
<rscale>  1 0.30000000E+03</rscale>
<asrwt>0</asrwt>
<pdfrwt beam="1">  1        1 0.11151682E+00 0.30000000E+03</pdfrwt>
<pdfrwt beam="2">0</pdfrwt>
<totfact> 0.29100177E+01</totfact>
</mgrwt>
</event>
<event>
 6    1  0.1839160E-004  0.3000000E+03  0.7818608E-02  0.1093470E+00
          1   -1    0    0  502    0  0.00000000000E+00  0.00000000000E+00  0.33258136375E+02  0.33258136375E+02  0.00000000000E+00 0.  1.
         13   -1    0    0    0    0 -0.00000000000E+00 -0.00000000000E+00 -0.10000000000E+04  0.10000000000E+04  0.00000000000E+00 0.  1.
    9000005    2    1    2  501    0 -0.90280733005E+01  0.28263939187E+02 -0.94448846616E+03  0.99616945799E+03  0.31530107826E+03 0.  0.
         13    1    3    3    0    0 -0.44325702626E+02  0.13817489531E+03 -0.79053454687E+03  0.80374245838E+03  0.00000000000E+00 0.  1.
          3    1    3    3  501    0  0.35297629326E+02 -0.10991095613E+03 -0.15395391929E+03  0.19242699960E+03  0.00000000000E+00 0.  1.
         21    1    1    2  502  501  0.90280733005E+01 -0.28263939187E+02 -0.22253397465E+02  0.37088678388E+02  0.00000000000E+00 0.  1.
<mgrwt>
<rscale>  1 0.30000000E+03</rscale>
<asrwt>0</asrwt>
<pdfrwt beam="1">  1        1 0.12093893E+00 0.30000000E+03</pdfrwt>
<pdfrwt beam="2">0</pdfrwt>
<totfact> 0.25680819E+01</totfact>
</mgrwt>
</event>
<event>
 6    1  0.1839160E-004  0.3000000E+03  0.7818608E-02  0.1093470E+00
          1   -1    0    0  502    0  0.00000000000E+00  0.00000000000E+00  0.29625784890E+02  0.29625784890E+02  0.00000000000E+00 0.  1.
         13   -1    0    0    0    0 -0.00000000000E+00 -0.00000000000E+00 -0.10000000000E+04  0.10000000000E+04  0.00000000000E+00 0.  1.
    9000005    2    1    2  501    0  0.55378652718E+01 -0.10178694809E+02 -0.96498645314E+03  0.10168468272E+04  0.32038155616E+03 0.  0.
         13    1    3    3    0    0 -0.26507384294E+02 -0.13380730968E+03 -0.20520663275E+03  0.24640779142E+03  0.00000000000E+00 0.  1.
          3    1    3    3  501    0  0.32045249566E+02  0.12362861488E+03 -0.75977982039E+03  0.77043903581E+03  0.00000000000E+00 0.  1.
         21    1    1    2  502  501 -0.55378652718E+01  0.10178694809E+02 -0.53877619714E+01  0.12778957659E+02  0.00000000000E+00 0.  1.
<mgrwt>
<rscale>  1 0.30000000E+03</rscale>
<asrwt>0</asrwt>
<pdfrwt beam="1">  1        1 0.10773035E+00 0.30000000E+03</pdfrwt>
<pdfrwt beam="2">0</pdfrwt>
<totfact> 0.30655998E+01</totfact>
</mgrwt>
</event>
<event>
 6    1  0.1839160E-004  0.3000000E+03  0.7818608E-02  0.1093470E+00
          1   -1    0    0  502    0  0.00000000000E+00  0.00000000000E+00  0.26259434965E+02  0.26259434965E+02  0.00000000000E+00 0.  1.
         13   -1    0    0    0    0 -0.00000000000E+00 -0.00000000000E+00 -0.10000000000E+04  0.10000000000E+04  0.00000000000E+00 0.  1.
    9000005    2    1    2  501    0  0.10865953458E+02 -0.68180714671E+01 -0.93488574074E+03  0.98534180534E+03  0.31100252422E+03 0.  0.
         13    1    3    3    0    0 -0.51251102736E+02  0.87884329636E+02 -0.81151845358E+03  0.81787073027E+03  0.00000000000E+00 0.  1.
          3    1    3    3  501    0  0.62117056194E+02 -0.94702401103E+02 -0.12336728715E+03  0.16747107507E+03  0.00000000000E+00 0.  1.
         21    1    1    2  502  501 -0.10865953458E+02  0.68180714671E+01 -0.38854824299E+02  0.40917629628E+02  0.00000000000E+00 0.  1.
<mgrwt>
<rscale>  1 0.30000000E+03</rscale>
<asrwt>0</asrwt>
<pdfrwt beam="1">  1        1 0.95489056E-01 0.30000000E+03</pdfrwt>
<pdfrwt beam="2">0</pdfrwt>
<totfact> 0.36599326E+01</totfact>
</mgrwt>
</event>
<event>
 6    1  0.1839160E-004  0.3000000E+03  0.7818608E-02  0.1093470E+00
          1   -1    0    0  502    0  0.00000000000E+00  0.00000000000E+00  0.32793417344E+02  0.32793417344E+02  0.00000000000E+00 0.  1.
         13   -1    0    0    0    0 -0.00000000000E+00 -0.00000000000E+00 -0.10000000000E+04  0.10000000000E+04  0.00000000000E+00 0.  1.
    9000005    2    1    2  501    0  0.14297412895E+02 -0.17778077238E+02 -0.95515612716E+03  0.10069924576E+04  0.31810392386E+03 0.  0.
         13    1    3    3    0    0  0.14728311794E+03 -0.64733188020E+02 -0.66763126050E+03  0.68674172908E+03  0.00000000000E+00 0.  1.
          3    1    3    3  501    0 -0.13298570504E+03  0.46955110782E+02 -0.28752486666E+03  0.32025072853E+03  0.00000000000E+00 0.  1.
         21    1    1    2  502  501 -0.14297412895E+02  0.17778077238E+02 -0.12050455492E+02  0.25800959736E+02  0.00000000000E+00 0. -1.
<mgrwt>
<rscale>  1 0.30000000E+03</rscale>
<asrwt>0</asrwt>
<pdfrwt beam="1">  1        1 0.11924904E+00 0.30000000E+03</pdfrwt>
<pdfrwt beam="2">0</pdfrwt>
<totfact> 0.26251860E+01</totfact>
</mgrwt>
</event>
<event>
 6    1  0.1839160E-004  0.3000000E+03  0.7818608E-02  0.1093470E+00
          1   -1    0    0  502    0  0.00000000000E+00  0.00000000000E+00  0.40145750158E+02  0.40145750158E+02  0.00000000000E+00 0.  1.
         13   -1    0    0    0    0 -0.00000000000E+00 -0.00000000000E+00 -0.10000000000E+04  0.10000000000E+04  0.00000000000E+00 0.  1.
    9000005    2    1    2  501    0 -0.24659672940E+02 -0.21642919100E+02 -0.95297567956E+03  0.10066221742E+04  0.32256633475E+03 0.  0.
         13    1    3    3    0    0  0.10334456466E+03 -0.11912759884E+03 -0.37853616427E+03  0.41007451947E+03  0.00000000000E+00 0.  1.
          1    1    3    3  501    0 -0.12800423760E+03  0.97484679744E+02 -0.57443951529E+03  0.59654765472E+03  0.00000000000E+00 0.  1.
         21    1    1    2  502  501  0.24659672940E+02  0.21642919100E+02 -0.68785702787E+01  0.33523575969E+02  0.00000000000E+00 0.  1.
<mgrwt>
<rscale>  1 0.30000000E+03</rscale>
<asrwt>0</asrwt>
<pdfrwt beam="1">  1        1 0.14598485E+00 0.30000000E+03</pdfrwt>
<pdfrwt beam="2">0</pdfrwt>
<totfact> 0.18834817E+01</totfact>
</mgrwt>
</event>
<event>
 6    1  0.1839160E-004  0.3000000E+03  0.7818608E-02  0.1093470E+00
          1   -1    0    0  502    0  0.00000000000E+00  0.00000000000E+00  0.30049082148E+02  0.30049082148E+02  0.00000000000E+00 0.  1.
         13   -1    0    0    0    0 -0.00000000000E+00 -0.00000000000E+00 -0.10000000000E+04  0.10000000000E+04  0.00000000000E+00 0.  1.
    9000005    2    1    2  501    0 -0.14452181800E+02 -0.65875208204E+01 -0.95954928502E+03  0.10110634309E+04  0.31821717403E+03 0.  0.
         13    1    3    3    0    0  0.73600285252E+02 -0.13808759419E+03 -0.39849234700E+03  0.42811369550E+03  0.00000000000E+00 0.  1.
          1    1    3    3  501    0 -0.88052467052E+02  0.13150007337E+03 -0.56105693802E+03  0.58294973536E+03  0.00000000000E+00 0.  1.
         21    1    1    2  502  501  0.14452181800E+02  0.65875208204E+01 -0.10401632834E+02  0.18985651291E+02  0.00000000000E+00 0.  1.
<mgrwt>
<rscale>  1 0.30000000E+03</rscale>
<asrwt>0</asrwt>
<pdfrwt beam="1">  1        1 0.10926962E+00 0.30000000E+03</pdfrwt>
<pdfrwt beam="2">0</pdfrwt>
<totfact> 0.30009583E+01</totfact>
</mgrwt>
</event>
<event>
 6    1  0.1839160E-004  0.3000000E+03  0.7818608E-02  0.1093470E+00
          1   -1    0    0  502    0  0.00000000000E+00  0.00000000000E+00  0.29445350034E+02  0.29445350034E+02  0.00000000000E+00 0.  1.
         13   -1    0    0    0    0 -0.00000000000E+00 -0.00000000000E+00 -0.10000000000E+04  0.10000000000E+04  0.00000000000E+00 0.  1.
    9000005    2    1    2  501    0  0.77471387425E+01 -0.12449025000E+02 -0.95475692060E+03  0.10078915885E+04  0.32259832671E+03 0.  0.
         13    1    3    3    0    0  0.46640846422E+02 -0.45358136358E+02 -0.95472912293E+03  0.95694327275E+03  0.00000000000E+00 0.  1.
          1    1    3    3  501    0 -0.38893707680E+02  0.32909111357E+02 -0.27797670416E-01  0.50948315773E+02  0.00000000000E+00 0.  1.
         21    1    1    2  502  501 -0.77471387425E+01  0.12449025000E+02 -0.15797729361E+02  0.21553761508E+02  0.00000000000E+00 0. -1.
<mgrwt>
<rscale>  1 0.30000000E+03</rscale>
<asrwt>0</asrwt>
<pdfrwt beam="1">  1        1 0.10707423E+00 0.30000000E+03</pdfrwt>
<pdfrwt beam="2">0</pdfrwt>
<totfact> 0.30937603E+01</totfact>
</mgrwt>
</event>
<event>
 6    1  0.1839160E-004  0.3000000E+03  0.7818608E-02  0.1093470E+00
          1   -1    0    0  502    0  0.00000000000E+00  0.00000000000E+00  0.33749290823E+02  0.33749290823E+02  0.00000000000E+00 0.  1.
         13   -1    0    0    0    0 -0.00000000000E+00 -0.00000000000E+00 -0.10000000000E+04  0.10000000000E+04  0.00000000000E+00 0.  1.
    9000005    2    1    2  501    0  0.12822604310E+02 -0.15591105354E+02 -0.95974373874E+03  0.10125398021E+04  0.32205792188E+03 0.  0.
         13    1    3    3    0    0 -0.81739282700E+02 -0.74181010384E+02 -0.84697262231E+03  0.85413509211E+03  0.00000000000E+00 0.  1.
          3    1    3    3  501    0  0.94561887009E+02  0.58589905030E+02 -0.11277111643E+03  0.15840470999E+03  0.00000000000E+00 0.  1.
         21    1    1    2  502  501 -0.12822604310E+02  0.15591105354E+02 -0.65069704381E+01  0.21209488719E+02  0.00000000000E+00 0. -1.
<mgrwt>
<rscale>  1 0.30000000E+03</rscale>
<asrwt>0</asrwt>
<pdfrwt beam="1">  1        1 0.12272495E+00 0.30000000E+03</pdfrwt>
<pdfrwt beam="2">0</pdfrwt>
<totfact> 0.25095088E+01</totfact>
</mgrwt>
</event>
<event>
 6    1  0.1839160E-004  0.3000000E+03  0.7818608E-02  0.1093470E+00
          1   -1    0    0  502    0  0.00000000000E+00  0.00000000000E+00  0.28653669873E+02  0.28653669873E+02  0.00000000000E+00 0.  1.
         13   -1    0    0    0    0 -0.00000000000E+00 -0.00000000000E+00 -0.10000000000E+04  0.10000000000E+04  0.00000000000E+00 0.  1.
    9000005    2    1    2  501    0 -0.28492648559E+01 -0.11775439041E+02 -0.93846795459E+03  0.99361416570E+03  0.32619047995E+03 0.  0.
         13    1    3    3    0    0  0.20860993936E+02  0.12669857533E+03 -0.17346979661E+03  0.21582279859E+03  0.00000000000E+00 0.  1.
          1    1    3    3  501    0 -0.23710258791E+02 -0.13847401437E+03 -0.76499815798E+03  0.77779136710E+03  0.00000000000E+00 0.  1.
         21    1    1    2  502  501  0.28492648559E+01  0.11775439041E+02 -0.32878375541E+02  0.35039504178E+02  0.00000000000E+00 0.  1.
<mgrwt>
<rscale>  1 0.30000000E+03</rscale>
<asrwt>0</asrwt>
<pdfrwt beam="1">  1        1 0.10419538E+00 0.30000000E+03</pdfrwt>
<pdfrwt beam="2">0</pdfrwt>
<totfact> 0.32218260E+01</totfact>
</mgrwt>
</event>
<event>
 6    1  0.1839160E-004  0.3000000E+03  0.7818608E-02  0.1093470E+00
          1   -1    0    0  502    0  0.00000000000E+00  0.00000000000E+00  0.29586279301E+02  0.29586279301E+02  0.00000000000E+00 0.  1.
         13   -1    0    0    0    0 -0.00000000000E+00 -0.00000000000E+00 -0.10000000000E+04  0.10000000000E+04  0.00000000000E+00 0.  1.
    9000005    2    1    2  501    0  0.72411989847E+01 -0.18288865938E+02 -0.93579835708E+03  0.98977245032E+03  0.32178256744E+03 0.  0.
         13    1    3    3    0    0 -0.84009221194E+02 -0.14254512261E+03 -0.54874603385E+03  0.57314821023E+03  0.00000000000E+00 0.  1.
          1    1    3    3  501    0  0.91250420179E+02  0.12425625668E+03 -0.38705232324E+03  0.41662424009E+03  0.00000000000E+00 0.  1.
         21    1    1    2  502  501 -0.72411989847E+01  0.18288865938E+02 -0.34615363616E+02  0.39813828983E+02  0.00000000000E+00 0.  1.
<mgrwt>
<rscale>  1 0.30000000E+03</rscale>
<asrwt>0</asrwt>
<pdfrwt beam="1">  1        1 0.10758670E+00 0.30000000E+03</pdfrwt>
<pdfrwt beam="2">0</pdfrwt>
<totfact> 0.30717339E+01</totfact>
</mgrwt>
</event>
<event>
 6    1  0.1839160E-004  0.3000000E+03  0.7818608E-02  0.1093470E+00
          1   -1    0    0  502    0  0.00000000000E+00  0.00000000000E+00  0.33058528714E+02  0.33058528714E+02  0.00000000000E+00 0.  1.
         13   -1    0    0    0    0 -0.00000000000E+00 -0.00000000000E+00 -0.10000000000E+04  0.10000000000E+04  0.00000000000E+00 0.  1.
    9000005    2    1    2  501    0 -0.24043033322E+02 -0.97792386112E+01 -0.94502094432E+03  0.99908485565E+03  0.32315980972E+03 0.  0.
         13    1    3    3    0    0  0.85855662420E+02 -0.60456218164E+02 -0.81392128513E+03  0.82066680661E+03  0.00000000000E+00 0.  1.
          3    1    3    3  501    0 -0.10989869574E+03  0.50676979553E+02 -0.13109965919E+03  0.17841804904E+03  0.00000000000E+00 0.  1.
         21    1    1    2  502  501  0.24043033322E+02  0.97792386112E+01 -0.21920526963E+02  0.33973673064E+02  0.00000000000E+00 0.  1.
<mgrwt>
<rscale>  1 0.30000000E+03</rscale>
<asrwt>0</asrwt>
<pdfrwt beam="1">  1        1 0.12021309E+00 0.30000000E+03</pdfrwt>
<pdfrwt beam="2">0</pdfrwt>
<totfact> 0.25924036E+01</totfact>
</mgrwt>
</event>
<event>
 6    1  0.1839160E-004  0.3000000E+03  0.7818608E-02  0.1093470E+00
          1   -1    0    0  502    0  0.00000000000E+00  0.00000000000E+00  0.39874639232E+02  0.39874639232E+02  0.00000000000E+00 0.  1.
         13   -1    0    0    0    0 -0.00000000000E+00 -0.00000000000E+00 -0.10000000000E+04  0.10000000000E+04  0.00000000000E+00 0.  1.
    9000005    2    1    2  501    0 -0.31174430133E+02 -0.16546432468E+02 -0.94768170018E+03  0.10024517290E+04  0.32490496239E+03 0.  0.
         13    1    3    3    0    0 -0.14914981881E+03  0.64809142406E+02 -0.67606005065E+03  0.69534386132E+03  0.00000000000E+00 0.  1.
          3    1    3    3  501    0  0.11797538867E+03 -0.81355574873E+02 -0.27162164953E+03  0.30710786768E+03  0.00000000000E+00 0.  1.
         21    1    1    2  502  501  0.31174430133E+02  0.16546432468E+02 -0.12443660584E+02  0.37422910232E+02  0.00000000000E+00 0.  1.
<mgrwt>
<rscale>  1 0.30000000E+03</rscale>
<asrwt>0</asrwt>
<pdfrwt beam="1">  1        1 0.14499899E+00 0.30000000E+03</pdfrwt>
<pdfrwt beam="2">0</pdfrwt>
<totfact> 0.19056422E+01</totfact>
</mgrwt>
</event>
<event>
 6    1  0.1839160E-004  0.3000000E+03  0.7818608E-02  0.1093470E+00
          1   -1    0    0  502    0  0.00000000000E+00  0.00000000000E+00  0.30787918457E+02  0.30787918457E+02  0.00000000000E+00 0.  1.
         13   -1    0    0    0    0 -0.00000000000E+00 -0.00000000000E+00 -0.10000000000E+04  0.10000000000E+04  0.00000000000E+00 0.  1.
    9000005    2    1    2  501    0  0.87875897567E+01 -0.81598344233E+01 -0.96424889842E+03  0.10178095588E+04  0.32560183558E+03 0.  0.
         13    1    3    3    0    0 -0.96804213231E+02 -0.96793962719E+02 -0.20738631823E+03  0.24849388706E+03  0.00000000000E+00 0.  1.
          1    1    3    3  501    0  0.10559180299E+03  0.88634128295E+02 -0.75686258019E+03  0.76931567178E+03  0.00000000000E+00 0.  1.
         21    1    1    2  502  501 -0.87875897567E+01  0.81598344233E+01 -0.49631831234E+01  0.12978359614E+02  0.00000000000E+00 0.  1.
<mgrwt>
<rscale>  1 0.30000000E+03</rscale>
<asrwt>0</asrwt>
<pdfrwt beam="1">  1        1 0.11195630E+00 0.30000000E+03</pdfrwt>
<pdfrwt beam="2">0</pdfrwt>
<totfact> 0.28926894E+01</totfact>
</mgrwt>
</event>
<event>
 6    1  0.1839160E-004  0.3000000E+03  0.7818608E-02  0.1093470E+00
          3   -1    0    0  502    0  0.00000000000E+00  0.00000000000E+00  0.31112040425E+02  0.31112040425E+02  0.00000000000E+00 0.  1.
         13   -1    0    0    0    0 -0.00000000000E+00 -0.00000000000E+00 -0.10000000000E+04  0.10000000000E+04  0.00000000000E+00 0.  1.
    9000005    2    1    2  501    0 -0.75730296798E+01 -0.58742686040E+01 -0.96335509442E+03  0.10200454056E+04  0.33518313453E+03 0.  0.
         13    1    3    3    0    0 -0.16424623921E+03 -0.50217263382E+02 -0.52834563790E+03  0.55556072010E+03  0.00000000000E+00 0.  1.
          1    1    3    3  501    0  0.15667320953E+03  0.44342994778E+02 -0.43500945652E+03  0.46448468547E+03  0.00000000000E+00 0.  1.
         21    1    1    2  502  501  0.75730296798E+01  0.58742686040E+01 -0.55328651585E+01  0.11066634856E+02  0.00000000000E+00 0. -1.
<mgrwt>
<rscale>  1 0.30000000E+03</rscale>
<asrwt>0</asrwt>
<pdfrwt beam="1">  1        3 0.11313493E+00 0.30000000E+03</pdfrwt>
<pdfrwt beam="2">0</pdfrwt>
<totfact> 0.27752847E+00</totfact>
</mgrwt>
</event>
<event>
 6    1  0.1839160E-004  0.3000000E+03  0.7818608E-02  0.1093470E+00
          1   -1    0    0  502    0  0.00000000000E+00  0.00000000000E+00  0.32907222853E+02  0.32907222853E+02  0.00000000000E+00 0.  1.
         13   -1    0    0    0    0 -0.00000000000E+00 -0.00000000000E+00 -0.10000000000E+04  0.10000000000E+04  0.00000000000E+00 0.  1.
    9000005    2    1    2  501    0 -0.13468852993E+02  0.18935194353E+02 -0.95435507741E+03  0.10064081553E+04  0.31862801148E+03 0.  0.
         13    1    3    3    0    0  0.14422934690E+03  0.46843453722E+02 -0.57441466447E+03  0.59409479077E+03  0.00000000000E+00 0.  1.
          3    1    3    3  501    0 -0.15769819989E+03 -0.27908259369E+02 -0.37994041294E+03  0.41231336454E+03  0.00000000000E+00 0.  1.
         21    1    1    2  502  501  0.13468852993E+02 -0.18935194353E+02 -0.12737699733E+02  0.26499067543E+02  0.00000000000E+00 0.  1.
<mgrwt>
<rscale>  1 0.30000000E+03</rscale>
<asrwt>0</asrwt>
<pdfrwt beam="1">  1        1 0.11966288E+00 0.30000000E+03</pdfrwt>
<pdfrwt beam="2">0</pdfrwt>
<totfact> 0.26110455E+01</totfact>
</mgrwt>
</event>
<event>
 6    1  0.1839160E-004  0.3000000E+03  0.7818608E-02  0.1093470E+00
          3   -1    0    0  502    0  0.00000000000E+00  0.00000000000E+00  0.34570958279E+02  0.34570958279E+02  0.00000000000E+00 0.  1.
         13   -1    0    0    0    0 -0.00000000000E+00 -0.00000000000E+00 -0.10000000000E+04  0.10000000000E+04  0.00000000000E+00 0.  1.
    9000005    2    1    2  501    0  0.87646997558E+01  0.88265448085E+01 -0.97051029972E+03  0.10211341790E+04  0.31728542635E+03 0.  0.
         13    1    3    3    0    0  0.13286687657E+03  0.86939695190E+02 -0.36356797783E+03  0.39672886459E+03  0.00000000000E+00 0.  1.
          1    1    3    3  501    0 -0.12410217681E+03 -0.78113150381E+02 -0.60694232188E+03  0.62440531440E+03  0.00000000000E+00 0.  1.
         21    1    1    2  502  501 -0.87646997558E+01 -0.88265448085E+01  0.50812579967E+01  0.13436779298E+02  0.00000000000E+00 0.  1.
<mgrwt>
<rscale>  1 0.30000000E+03</rscale>
<asrwt>0</asrwt>
<pdfrwt beam="1">  1        3 0.12571284E+00 0.30000000E+03</pdfrwt>
<pdfrwt beam="2">0</pdfrwt>
<totfact> 0.19851949E+00</totfact>
</mgrwt>
</event>
<event>
 6    1  0.1839160E-004  0.3000000E+03  0.7818608E-02  0.1093470E+00
          1   -1    0    0  502    0  0.00000000000E+00  0.00000000000E+00  0.49341934100E+02  0.49341934100E+02  0.00000000000E+00 0.  1.
         13   -1    0    0    0    0 -0.00000000000E+00 -0.00000000000E+00 -0.10000000000E+04  0.10000000000E+04  0.00000000000E+00 0.  1.
    9000005    2    1    2  501    0  0.26990195727E+02  0.86547935996E+01 -0.96455668261E+03  0.10177737909E+04  0.32355914358E+03 0.  0.
         13    1    3    3    0    0 -0.98057489640E+02 -0.89063612990E+02 -0.22259284529E+03  0.25902735996E+03  0.00000000000E+00 0.  1.
          3    1    3    3  501    0  0.12504768537E+03  0.97718406590E+02 -0.74196383732E+03  0.75874643096E+03  0.00000000000E+00 0.  1.
         21    1    1    2  502  501 -0.26990195727E+02 -0.86547935996E+01  0.13898616708E+02  0.31568143183E+02  0.00000000000E+00 0.  1.
<mgrwt>
<rscale>  1 0.30000000E+03</rscale>
<asrwt>0</asrwt>
<pdfrwt beam="1">  1        1 0.17942559E+00 0.30000000E+03</pdfrwt>
<pdfrwt beam="2">0</pdfrwt>
<totfact> 0.12856459E+01</totfact>
</mgrwt>
</event>
<event>
 6    1  0.1839160E-004  0.3000000E+03  0.7818608E-02  0.1093470E+00
          1   -1    0    0  502    0  0.00000000000E+00  0.00000000000E+00  0.30823968908E+02  0.30823968908E+02  0.00000000000E+00 0.  1.
         13   -1    0    0    0    0 -0.00000000000E+00 -0.00000000000E+00 -0.10000000000E+04  0.10000000000E+04  0.00000000000E+00 0.  1.
    9000005    2    1    2  501    0  0.22199359047E+02 -0.13444625515E+02 -0.93905587325E+03  0.99106477618E+03  0.31576872552E+03 0.  0.
         13    1    3    3    0    0  0.13185823936E+03 -0.10345923641E+03 -0.61260496113E+03  0.63511829393E+03  0.00000000000E+00 0.  1.
          3    1    3    3  501    0 -0.10965888031E+03  0.90014610897E+02 -0.32645091212E+03  0.35594648225E+03  0.00000000000E+00 0.  1.
         21    1    1    2  502  501 -0.22199359047E+02  0.13444625515E+02 -0.30120157846E+02  0.39759192724E+02  0.00000000000E+00 0. -1.
<mgrwt>
<rscale>  1 0.30000000E+03</rscale>
<asrwt>0</asrwt>
<pdfrwt beam="1">  1        1 0.11208740E+00 0.30000000E+03</pdfrwt>
<pdfrwt beam="2">0</pdfrwt>
<totfact> 0.28875487E+01</totfact>
</mgrwt>
</event>
<event>
 6    1  0.1839160E-004  0.3000000E+03  0.7818608E-02  0.1093470E+00
          1   -1    0    0  502    0  0.00000000000E+00  0.00000000000E+00  0.26298221554E+02  0.26298221554E+02  0.00000000000E+00 0.  1.
         13   -1    0    0    0    0 -0.00000000000E+00 -0.00000000000E+00 -0.10000000000E+04  0.10000000000E+04  0.00000000000E+00 0.  1.
    9000005    2    1    2  501    0  0.18229699046E+02  0.97531926886E+01 -0.91754090211E+03  0.96645266427E+03  0.30285639922E+03 0.  0.
         13    1    3    3    0    0 -0.74503067428E+02 -0.65595300230E+02 -0.77104399738E+03  0.77740741980E+03  0.00000000000E+00 0.  1.
          1    1    3    3  501    0  0.92732766474E+02  0.75348492918E+02 -0.14649690473E+03  0.18904524447E+03  0.00000000000E+00 0.  1.
         21    1    1    2  502  501 -0.18229699046E+02 -0.97531926886E+01 -0.56160876340E+02  0.59845557280E+02  0.00000000000E+00 0.  1.
<mgrwt>
<rscale>  1 0.30000000E+03</rscale>
<asrwt>0</asrwt>
<pdfrwt beam="1">  1        1 0.95630098E-01 0.30000000E+03</pdfrwt>
<pdfrwt beam="2">0</pdfrwt>
<totfact> 0.36521504E+01</totfact>
</mgrwt>
</event>
<event>
 6    1  0.1839160E-004  0.3000000E+03  0.7818608E-02  0.1093470E+00
          3   -1    0    0  502    0  0.00000000000E+00  0.00000000000E+00  0.29788236395E+02  0.29788236395E+02  0.00000000000E+00 0.  1.
         13   -1    0    0    0    0 -0.00000000000E+00 -0.00000000000E+00 -0.10000000000E+04  0.10000000000E+04  0.00000000000E+00 0.  1.
    9000005    2    1    2  501    0 -0.11740205589E+02  0.19746938071E+02 -0.92329714952E+03  0.97755074980E+03  0.32031245393E+03 0.  0.
         13    1    3    3    0    0 -0.11663447041E+03  0.10960613122E+03 -0.67199496804E+03  0.69079254538E+03  0.00000000000E+00 0.  1.
          3    1    3    3  501    0  0.10489426482E+03 -0.89859193150E+02 -0.25130218148E+03  0.28675820442E+03  0.00000000000E+00 0.  1.
         21    1    1    2  502  501  0.11740205589E+02 -0.19746938071E+02 -0.46914614089E+02  0.52237486593E+02  0.00000000000E+00 0. -1.
<mgrwt>
<rscale>  1 0.30000000E+03</rscale>
<asrwt>0</asrwt>
<pdfrwt beam="1">  1        3 0.10832109E+00 0.30000000E+03</pdfrwt>
<pdfrwt beam="2">0</pdfrwt>
<totfact> 0.31493263E+00</totfact>
</mgrwt>
</event>
<event>
 6    1  0.1839160E-004  0.3000000E+03  0.7818608E-02  0.1093470E+00
          1   -1    0    0  502    0  0.00000000000E+00  0.00000000000E+00  0.31336559755E+02  0.31336559755E+02  0.00000000000E+00 0.  1.
         13   -1    0    0    0    0 -0.00000000000E+00 -0.00000000000E+00 -0.10000000000E+04  0.10000000000E+04  0.00000000000E+00 0.  1.
    9000005    2    1    2  501    0 -0.71474490051E+01  0.15330033822E+02 -0.94351040160E+03  0.10010253190E+04  0.33399657984E+03 0.  0.
         13    1    3    3    0    0  0.46555176917E+01  0.38619478625E+02  0.15343649589E+02  0.41815852938E+02  0.00000000000E+00 0.  1.
          1    1    3    3  501    0 -0.11802966697E+02 -0.23289444803E+02 -0.95885405119E+03  0.95920946604E+03  0.00000000000E+00 0.  1.
         21    1    1    2  502  501  0.71474490051E+01 -0.15330033822E+02 -0.25153038646E+02  0.30311240777E+02  0.00000000000E+00 0.  1.
<mgrwt>
<rscale>  1 0.30000000E+03</rscale>
<asrwt>0</asrwt>
<pdfrwt beam="1">  1        1 0.11395137E+00 0.30000000E+03</pdfrwt>
<pdfrwt beam="2">0</pdfrwt>
<totfact> 0.28158452E+01</totfact>
</mgrwt>
</event>
<event>
 6    1  0.1839160E-004  0.3000000E+03  0.7818608E-02  0.1093470E+00
          1   -1    0    0  502    0  0.00000000000E+00  0.00000000000E+00  0.41722590962E+02  0.41722590962E+02  0.00000000000E+00 0.  1.
         13   -1    0    0    0    0 -0.00000000000E+00 -0.00000000000E+00 -0.10000000000E+04  0.10000000000E+04  0.00000000000E+00 0.  1.
    9000005    2    1    2  501    0  0.14167141895E+01 -0.13416066586E+02 -0.96154066854E+03  0.10278428653E+04  0.36293043491E+03 0.  0.
         13    1    3    3    0    0  0.11097980666E+03  0.12244181063E+03 -0.28786395992E+03  0.33192495221E+03  0.00000000000E+00 0.  1.
          3    1    3    3  501    0 -0.10956309247E+03 -0.13585787722E+03 -0.67367670862E+03  0.69591791310E+03  0.00000000000E+00 0.  1.
         21    1    1    2  502  501 -0.14167141895E+01  0.13416066586E+02  0.32632595002E+01  0.13879725657E+02  0.00000000000E+00 0. -1.
<mgrwt>
<rscale>  1 0.30000000E+03</rscale>
<asrwt>0</asrwt>
<pdfrwt beam="1">  1        1 0.15171883E+00 0.30000000E+03</pdfrwt>
<pdfrwt beam="2">0</pdfrwt>
<totfact> 0.17607862E+01</totfact>
</mgrwt>
</event>
<event>
 6    1  0.1839160E-004  0.3000000E+03  0.7818608E-02  0.1093470E+00
          1   -1    0    0  502    0  0.00000000000E+00  0.00000000000E+00  0.48793109508E+02  0.48793109508E+02  0.00000000000E+00 0.  1.
         13   -1    0    0    0    0 -0.00000000000E+00 -0.00000000000E+00 -0.10000000000E+04  0.10000000000E+04  0.00000000000E+00 0.  1.
    9000005    2    1    2  501    0  0.12568477009E+02 -0.33297545352E+02 -0.95964359447E+03  0.10122161890E+04  0.31999858076E+03 0.  0.
         13    1    3    3    0    0 -0.83450004539E+02 -0.67369241648E+01 -0.50799010805E+02  0.97927671797E+02  0.00000000000E+00 0.  1.
          3    1    3    3  501    0  0.96018481549E+02 -0.26560621187E+02 -0.90884458367E+03  0.91428851719E+03  0.00000000000E+00 0.  1.
         21    1    1    2  502  501 -0.12568477009E+02  0.33297545352E+02  0.84367039827E+01  0.36576920522E+02  0.00000000000E+00 0.  1.
<mgrwt>
<rscale>  1 0.30000000E+03</rscale>
<asrwt>0</asrwt>
<pdfrwt beam="1">  1        1 0.17742986E+00 0.30000000E+03</pdfrwt>
<pdfrwt beam="2">0</pdfrwt>
<totfact> 0.13145885E+01</totfact>
</mgrwt>
</event>
<event>
 6    1  0.1839160E-004  0.3000000E+03  0.7818608E-02  0.1093470E+00
          1   -1    0    0  502    0  0.00000000000E+00  0.00000000000E+00  0.33332446425E+02  0.33332446425E+02  0.00000000000E+00 0.  1.
         13   -1    0    0    0    0 -0.00000000000E+00 -0.00000000000E+00 -0.10000000000E+04  0.10000000000E+04  0.00000000000E+00 0.  1.
    9000005    2    1    2  501    0 -0.21404932949E+02  0.46195915225E+01 -0.95139613332E+03  0.10066354792E+04  0.32814764022E+03 0.  0.
         13    1    3    3    0    0 -0.85519846337E+02 -0.25166232259E+02 -0.49488307752E+02  0.10196114931E+03  0.00000000000E+00 0.  1.
          1    1    3    3  501    0  0.64114913388E+02  0.29785823781E+02 -0.90190782557E+03  0.90467432993E+03  0.00000000000E+00 0.  1.
         21    1    1    2  502  501  0.21404932949E+02 -0.46195915225E+01 -0.15271420255E+02  0.26696967187E+02  0.00000000000E+00 0.  1.
<mgrwt>
<rscale>  1 0.30000000E+03</rscale>
<asrwt>0</asrwt>
<pdfrwt beam="1">  1        1 0.12120915E+00 0.30000000E+03</pdfrwt>
<pdfrwt beam="2">0</pdfrwt>
<totfact> 0.25591049E+01</totfact>
</mgrwt>
</event>
<event>
 6    1  0.1839160E-004  0.3000000E+03  0.7818608E-02  0.1093470E+00
          1   -1    0    0  502    0  0.00000000000E+00  0.00000000000E+00  0.45935999682E+02  0.45935999682E+02  0.00000000000E+00 0.  1.
         13   -1    0    0    0    0 -0.00000000000E+00 -0.00000000000E+00 -0.10000000000E+04  0.10000000000E+04  0.00000000000E+00 0.  1.
    9000005    2    1    2  501    0 -0.40094534535E+02 -0.58864961374E+02 -0.88845657493E+03  0.94910114210E+03  0.32613683787E+03 0.  0.
         13    1    3    3    0    0 -0.17587877442E+03  0.14698967797E+02 -0.53560876660E+03  0.56393807622E+03  0.00000000000E+00 0.  1.
          3    1    3    3  501    0  0.13578423989E+03 -0.73563929171E+02 -0.35284780833E+03  0.38516306588E+03  0.00000000000E+00 0.  1.
         21    1    1    2  502  501  0.40094534535E+02  0.58864961374E+02 -0.65607425387E+02  0.96834857582E+02  0.00000000000E+00 0.  1.
<mgrwt>
<rscale>  1 0.30000000E+03</rscale>
<asrwt>0</asrwt>
<pdfrwt beam="1">  1        1 0.16704035E+00 0.30000000E+03</pdfrwt>
<pdfrwt beam="2">0</pdfrwt>
<totfact> 0.14772126E+01</totfact>
</mgrwt>
</event>
<event>
 6    1  0.1839160E-004  0.3000000E+03  0.7818608E-02  0.1093470E+00
          1   -1    0    0  502    0  0.00000000000E+00  0.00000000000E+00  0.28648672029E+02  0.28648672029E+02  0.00000000000E+00 0.  1.
         13   -1    0    0    0    0 -0.00000000000E+00 -0.00000000000E+00 -0.10000000000E+04  0.10000000000E+04  0.00000000000E+00 0.  1.
    9000005    2    1    2  501    0 -0.27567272392E+02 -0.96311811858E+01 -0.91943532228E+03  0.96908370074E+03  0.30481009337E+03 0.  0.
         13    1    3    3    0    0 -0.12779219536E+03 -0.75629266637E+02 -0.72916088218E+03  0.74412782724E+03  0.00000000000E+00 0.  1.
          1    1    3    3  501    0  0.10022492297E+03  0.65998085451E+02 -0.19027444010E+03  0.22495587350E+03  0.00000000000E+00 0.  1.
         21    1    1    2  502  501  0.27567272392E+02  0.96311811858E+01 -0.51916005690E+02  0.59564971291E+02  0.00000000000E+00 0. -1.
<mgrwt>
<rscale>  1 0.30000000E+03</rscale>
<asrwt>0</asrwt>
<pdfrwt beam="1">  1        1 0.10417721E+00 0.30000000E+03</pdfrwt>
<pdfrwt beam="2">0</pdfrwt>
<totfact> 0.32226586E+01</totfact>
</mgrwt>
</event>
<event>
 6    1  0.1839160E-004  0.3000000E+03  0.7818608E-02  0.1093470E+00
          1   -1    0    0  502    0  0.00000000000E+00  0.00000000000E+00  0.75825560299E+02  0.75825560299E+02  0.00000000000E+00 0.  1.
         13   -1    0    0    0    0 -0.00000000000E+00 -0.00000000000E+00 -0.10000000000E+04  0.10000000000E+04  0.00000000000E+00 0.  1.
    9000005    2    1    2  501    0 -0.40040269929E+02  0.12919460413E+03 -0.39479164313E+03  0.52943685776E+03  0.32580435221E+03 0.  0.
         13    1    3    3    0    0 -0.41249641755E+02 -0.79028936996E+02 -0.71797851211E+01  0.89435200799E+02  0.00000000000E+00 0.  1.
          3    1    3    3  501    0  0.12093718254E+01  0.20822354113E+03 -0.38761185800E+03  0.44000165696E+03  0.00000000000E+00 0.  1.
         21    1    1    2  502  501  0.40040269929E+02 -0.12919460413E+03 -0.52938279658E+03  0.54638870254E+03  0.00000000000E+00 0.  1.
<mgrwt>
<rscale>  1 0.30000000E+03</rscale>
<asrwt>0</asrwt>
<pdfrwt beam="1">  1        1 0.27572989E+00 0.30000000E+03</pdfrwt>
<pdfrwt beam="2">0</pdfrwt>
<totfact> 0.45207507E+00</totfact>
</mgrwt>
</event>
<event>
 6    1  0.1839160E-004  0.3000000E+03  0.7818608E-02  0.1093470E+00
          1   -1    0    0  502    0  0.00000000000E+00  0.00000000000E+00  0.33940388939E+02  0.33940388939E+02  0.00000000000E+00 0.  1.
         13   -1    0    0    0    0 -0.00000000000E+00 -0.00000000000E+00 -0.10000000000E+04  0.10000000000E+04  0.00000000000E+00 0.  1.
    9000005    2    1    2  501    0  0.40155982697E+00 -0.10247849631E+02 -0.95901497598E+03  0.10214982607E+04  0.35163019315E+03 0.  0.
         13    1    3    3    0    0  0.46867356010E+02 -0.47298829297E+02 -0.62470307288E+01  0.66878649098E+02  0.00000000000E+00 0.  1.
          1    1    3    3  501    0 -0.46465796183E+02  0.37050979666E+02 -0.95276794525E+03  0.95461961157E+03  0.00000000000E+00 0.  1.
         21    1    1    2  502  501 -0.40155982697E+00  0.10247849631E+02 -0.70446350851E+01  0.12442128268E+02  0.00000000000E+00 0. -1.
<mgrwt>
<rscale>  1 0.30000000E+03</rscale>
<asrwt>0</asrwt>
<pdfrwt beam="1">  1        1 0.12341986E+00 0.30000000E+03</pdfrwt>
<pdfrwt beam="2">0</pdfrwt>
<totfact> 0.24871928E+01</totfact>
</mgrwt>
</event>
<event>
 6    1  0.1839160E-004  0.3000000E+03  0.7818608E-02  0.1093470E+00
          1   -1    0    0  502    0  0.00000000000E+00  0.00000000000E+00  0.32522308387E+02  0.32522308387E+02  0.00000000000E+00 0.  1.
         13   -1    0    0    0    0 -0.00000000000E+00 -0.00000000000E+00 -0.10000000000E+04  0.10000000000E+04  0.00000000000E+00 0.  1.
    9000005    2    1    2  501    0 -0.62266293045E+01  0.10079726537E+02 -0.96980668490E+03  0.10204477066E+04  0.31725091637E+03 0.  0.
         13    1    3    3    0    0  0.99541577027E+02 -0.82891785582E+02 -0.73751603260E+03  0.74880536324E+03  0.00000000000E+00 0.  1.
          1    1    3    3  501    0 -0.10576820633E+03  0.92971512118E+02 -0.23229065231E+03  0.27164234332E+03  0.00000000000E+00 0.  1.
         21    1    1    2  502  501  0.62266293045E+01 -0.10079726537E+02  0.23289932909E+01  0.12074601828E+02  0.00000000000E+00 0.  1.
<mgrwt>
<rscale>  1 0.30000000E+03</rscale>
<asrwt>0</asrwt>
<pdfrwt beam="1">  1        1 0.11826319E+00 0.30000000E+03</pdfrwt>
<pdfrwt beam="2">0</pdfrwt>
<totfact> 0.26592912E+01</totfact>
</mgrwt>
</event>
<event>
 6    1  0.1839160E-004  0.3000000E+03  0.7818608E-02  0.1093470E+00
          1   -1    0    0  502    0  0.00000000000E+00  0.00000000000E+00  0.36231620332E+02  0.36231620332E+02  0.00000000000E+00 0.  1.
         13   -1    0    0    0    0 -0.00000000000E+00 -0.00000000000E+00 -0.10000000000E+04  0.10000000000E+04  0.00000000000E+00 0.  1.
    9000005    2    1    2  501    0  0.45376475833E+02  0.26771760926E+01 -0.90660964805E+03  0.96320208911E+03  0.32210404948E+03 0.  0.
         13    1    3    3    0    0  0.76994560192E+02  0.99457026121E+02 -0.13350275058E+03  0.18341986468E+03  0.00000000000E+00 0.  1.
          3    1    3    3  501    0 -0.31618084359E+02 -0.96779850028E+02 -0.77310689747E+03  0.77978222443E+03  0.00000000000E+00 0.  1.
         21    1    1    2  502  501 -0.45376475833E+02 -0.26771760926E+01 -0.57158731616E+02  0.73029531224E+02  0.00000000000E+00 0.  1.
<mgrwt>
<rscale>  1 0.30000000E+03</rscale>
<asrwt>0</asrwt>
<pdfrwt beam="1">  1        1 0.13175162E+00 0.30000000E+03</pdfrwt>
<pdfrwt beam="2">0</pdfrwt>
<totfact> 0.22384436E+01</totfact>
</mgrwt>
</event>
<event>
 6    1  0.1839160E-004  0.3000000E+03  0.7818608E-02  0.1093470E+00
          1   -1    0    0  502    0  0.00000000000E+00  0.00000000000E+00  0.39821035134E+02  0.39821035134E+02  0.00000000000E+00 0.  1.
         13   -1    0    0    0    0 -0.00000000000E+00 -0.00000000000E+00 -0.10000000000E+04  0.10000000000E+04  0.00000000000E+00 0.  1.
    9000005    2    1    2  501    0  0.70580433902E+02  0.78268597721E+01 -0.88291388833E+03  0.93487938737E+03  0.29903123137E+03 0.  0.
         13    1    3    3    0    0  0.94244701060E+02 -0.13330980762E+03 -0.50755840489E+03  0.53316892526E+03  0.00000000000E+00 0.  1.
          3    1    3    3  501    0 -0.23664267157E+02  0.14113666739E+03 -0.37535548343E+03  0.40171046211E+03  0.00000000000E+00 0.  1.
         21    1    1    2  502  501 -0.70580433902E+02 -0.78268597721E+01 -0.77265076538E+02  0.10494164777E+03  0.00000000000E+00 0. -1.
<mgrwt>
<rscale>  1 0.30000000E+03</rscale>
<asrwt>0</asrwt>
<pdfrwt beam="1">  1        1 0.14480407E+00 0.30000000E+03</pdfrwt>
<pdfrwt beam="2">0</pdfrwt>
<totfact> 0.19100626E+01</totfact>
</mgrwt>
</event>
<event>
 6    1  0.1839160E-004  0.3000000E+03  0.7818608E-02  0.1093470E+00
          1   -1    0    0  502    0  0.00000000000E+00  0.00000000000E+00  0.32879472027E+02  0.32879472027E+02  0.00000000000E+00 0.  1.
         13   -1    0    0    0    0 -0.00000000000E+00 -0.00000000000E+00 -0.10000000000E+04  0.10000000000E+04  0.00000000000E+00 0.  1.
    9000005    2    1    2  501    0 -0.80988488048E+01  0.28529458639E+01 -0.93506709572E+03  0.99969584397E+03  0.35350753357E+03 0.  0.
         13    1    3    3    0    0  0.56808836431E+02 -0.79484480074E+02 -0.52477109150E+02  0.11090028609E+03  0.00000000000E+00 0.  1.
          3    1    3    3  501    0 -0.64907685236E+02  0.82337425938E+02 -0.88258998657E+03  0.88879555788E+03  0.00000000000E+00 0.  1.
         21    1    1    2  502  501  0.80988488048E+01 -0.28529458639E+01 -0.32053432253E+02  0.33183628061E+02  0.00000000000E+00 0.  1.
<mgrwt>
<rscale>  1 0.30000000E+03</rscale>
<asrwt>0</asrwt>
<pdfrwt beam="1">  1        1 0.11956197E+00 0.30000000E+03</pdfrwt>
<pdfrwt beam="2">0</pdfrwt>
<totfact> 0.26144841E+01</totfact>
</mgrwt>
</event>
<event>
 6    1  0.1839160E-004  0.3000000E+03  0.7818608E-02  0.1093470E+00
          1   -1    0    0  502    0  0.00000000000E+00  0.00000000000E+00  0.26088478557E+02  0.26088478557E+02  0.00000000000E+00 0.  1.
         13   -1    0    0    0    0 -0.00000000000E+00 -0.00000000000E+00 -0.10000000000E+04  0.10000000000E+04  0.00000000000E+00 0.  1.
    9000005    2    1    2  501    0 -0.57817543436E+01 -0.15326641167E+02 -0.94391705344E+03  0.99191242373E+03  0.30437233442E+03 0.  0.
         13    1    3    3    0    0  0.85109632947E+01  0.14075572657E+03 -0.34216143823E+03  0.37007980338E+03  0.00000000000E+00 0.  1.
          3    1    3    3  501    0 -0.14292717638E+02 -0.15608236774E+03 -0.60175561522E+03  0.62183262036E+03  0.00000000000E+00 0.  1.
         21    1    1    2  502  501  0.57817543436E+01  0.15326641167E+02 -0.29994468001E+02  0.34176054825E+02  0.00000000000E+00 0. -1.
<mgrwt>
<rscale>  1 0.30000000E+03</rscale>
<asrwt>0</asrwt>
<pdfrwt beam="1">  1        1 0.94867395E-01 0.30000000E+03</pdfrwt>
<pdfrwt beam="2">0</pdfrwt>
<totfact> 0.36945299E+01</totfact>
</mgrwt>
</event>
<event>
 6    1  0.1839160E-004  0.3000000E+03  0.7818608E-02  0.1093470E+00
          1   -1    0    0  502    0  0.00000000000E+00  0.00000000000E+00  0.41851655695E+02  0.41851655695E+02  0.00000000000E+00 0.  1.
         13   -1    0    0    0    0 -0.00000000000E+00 -0.00000000000E+00 -0.10000000000E+04  0.10000000000E+04  0.00000000000E+00 0.  1.
    9000005    2    1    2  501    0 -0.14253485565E+02  0.17040159474E+02 -0.96172602449E+03  0.10193499073E+04  0.33714056181E+03 0.  0.
         13    1    3    3    0    0 -0.15645843509E+03  0.72508539186E+02 -0.36932371633E+03  0.40759874585E+03  0.00000000000E+00 0.  1.
          1    1    3    3  501    0  0.14220494953E+03 -0.55468379712E+02 -0.59240230816E+03  0.61175116145E+03  0.00000000000E+00 0.  1.
         21    1    1    2  502  501  0.14253485565E+02 -0.17040159474E+02  0.35776801898E+01  0.22501748403E+02  0.00000000000E+00 0.  1.
<mgrwt>
<rscale>  1 0.30000000E+03</rscale>
<asrwt>0</asrwt>
<pdfrwt beam="1">  1        1 0.15218816E+00 0.30000000E+03</pdfrwt>
<pdfrwt beam="2">0</pdfrwt>
<totfact> 0.17511876E+01</totfact>
</mgrwt>
</event>
<event>
 6    1  0.1839160E-004  0.3000000E+03  0.7818608E-02  0.1093470E+00
          1   -1    0    0  502    0  0.00000000000E+00  0.00000000000E+00  0.31362688664E+02  0.31362688664E+02  0.00000000000E+00 0.  1.
         13   -1    0    0    0    0 -0.00000000000E+00 -0.00000000000E+00 -0.10000000000E+04  0.10000000000E+04  0.00000000000E+00 0.  1.
    9000005    2    1    2  501    0  0.17186524732E+01 -0.10941246734E+02 -0.94977308406E+03  0.10094875037E+04  0.34186758296E+03 0.  0.
         13    1    3    3    0    0 -0.16176603942E+03 -0.44143539718E+02 -0.58147406841E+03  0.60516856812E+03  0.00000000000E+00 0.  1.
          3    1    3    3  501    0  0.16348469189E+03  0.33202292984E+02 -0.36829901565E+03  0.40431893558E+03  0.00000000000E+00 0.  1.
         21    1    1    2  502  501 -0.17186524732E+01  0.10941246734E+02 -0.18864227272E+02  0.21875184959E+02  0.00000000000E+00 0.  1.
<mgrwt>
<rscale>  1 0.30000000E+03</rscale>
<asrwt>0</asrwt>
<pdfrwt beam="1">  1        1 0.11404638E+00 0.30000000E+03</pdfrwt>
<pdfrwt beam="2">0</pdfrwt>
<totfact> 0.28122584E+01</totfact>
</mgrwt>
</event>
<event>
 6    1  0.1839160E-004  0.3000000E+03  0.7818608E-02  0.1093470E+00
          1   -1    0    0  502    0  0.00000000000E+00  0.00000000000E+00  0.81285515324E+02  0.81285515324E+02  0.00000000000E+00 0.  1.
         13   -1    0    0    0    0 -0.00000000000E+00 -0.00000000000E+00 -0.10000000000E+04  0.10000000000E+04  0.00000000000E+00 0.  1.
    9000005    2    1    2  501    0 -0.79809331979E+02 -0.52522449713E+00 -0.94088140691E+03  0.99845328867E+03  0.32447086533E+03 0.  0.
         13    1    3    3    0    0  0.19243879457E+02 -0.12913328143E+03 -0.19203198753E+03  0.23221114423E+03  0.00000000000E+00 0.  1.
          1    1    3    3  501    0 -0.99053211436E+02  0.12860805694E+03 -0.74884941938E+03  0.76624214443E+03  0.00000000000E+00 0.  1.
         21    1    1    2  502  501  0.79809331979E+02  0.52522449713E+00  0.22166922232E+02  0.82832226657E+02  0.00000000000E+00 0.  1.
<mgrwt>
<rscale>  1 0.30000000E+03</rscale>
<asrwt>0</asrwt>
<pdfrwt beam="1">  1        1 0.29558432E+00 0.30000000E+03</pdfrwt>
<pdfrwt beam="2">0</pdfrwt>
<totfact> 0.36458665E+00</totfact>
</mgrwt>
</event>
<event>
 6    1  0.1839160E-004  0.3000000E+03  0.7818608E-02  0.1093470E+00
          1   -1    0    0  502    0  0.00000000000E+00  0.00000000000E+00  0.38910937353E+02  0.38910937353E+02  0.00000000000E+00 0.  1.
         13   -1    0    0    0    0 -0.00000000000E+00 -0.00000000000E+00 -0.10000000000E+04  0.10000000000E+04  0.00000000000E+00 0.  1.
    9000005    2    1    2  501    0  0.11014021695E+02 -0.17755306569E+01 -0.96319455634E+03  0.10275577754E+04  0.35778033373E+03 0.  0.
         13    1    3    3    0    0  0.71388485889E+02  0.16709213532E+02 -0.96160596549E+03  0.96439698600E+03  0.00000000000E+00 0.  1.
          1    1    3    3  501    0 -0.60374464195E+02 -0.18484744189E+02 -0.15885908451E+01  0.63160789382E+02  0.00000000000E+00 0.  1.
         21    1    1    2  502  501 -0.11014021695E+02  0.17755306569E+01  0.21054936936E+01  0.11353161969E+02  0.00000000000E+00 0.  1.
<mgrwt>
<rscale>  1 0.30000000E+03</rscale>
<asrwt>0</asrwt>
<pdfrwt beam="1">  1        1 0.14149462E+00 0.30000000E+03</pdfrwt>
<pdfrwt beam="2">0</pdfrwt>
<totfact> 0.19871275E+01</totfact>
</mgrwt>
</event>
<event>
 6    1  0.1839160E-004  0.3000000E+03  0.7818608E-02  0.1093470E+00
          3   -1    0    0  502    0  0.00000000000E+00  0.00000000000E+00  0.34718698951E+02  0.34718698951E+02  0.00000000000E+00 0.  1.
         13   -1    0    0    0    0 -0.00000000000E+00 -0.00000000000E+00 -0.10000000000E+04  0.10000000000E+04  0.00000000000E+00 0.  1.
    9000005    2    1    2  501    0 -0.10969942189E+02  0.78925804795E+01 -0.96734801155E+03  0.10210474243E+04  0.32648588755E+03 0.  0.
         13    1    3    3    0    0 -0.67284416970E+02  0.81252736159E+02 -0.90117523392E+03  0.90732904843E+03  0.00000000000E+00 0.  1.
          3    1    3    3  501    0  0.56314474781E+02 -0.73360155680E+02 -0.66172777632E+02  0.11371837587E+03  0.00000000000E+00 0.  1.
         21    1    1    2  502  501  0.10969942189E+02 -0.78925804795E+01  0.20667105005E+01  0.13671274650E+02  0.00000000000E+00 0. -1.
<mgrwt>
<rscale>  1 0.30000000E+03</rscale>
<asrwt>0</asrwt>
<pdfrwt beam="1">  1        3 0.12625008E+00 0.30000000E+03</pdfrwt>
<pdfrwt beam="2">0</pdfrwt>
<totfact> 0.19568501E+00</totfact>
</mgrwt>
</event>
<event>
 6    1  0.1839160E-004  0.3000000E+03  0.7818608E-02  0.1093470E+00
          1   -1    0    0  502    0  0.00000000000E+00  0.00000000000E+00  0.35299362207E+02  0.35299362207E+02  0.00000000000E+00 0.  1.
         13   -1    0    0    0    0 -0.00000000000E+00 -0.00000000000E+00 -0.10000000000E+04  0.10000000000E+04  0.00000000000E+00 0.  1.
    9000005    2    1    2  501    0  0.51604854977E+01 -0.87017455089E+01 -0.96961000064E+03  0.10240542375E+04  0.32930407997E+03 0.  0.
         13    1    3    3    0    0 -0.11272497349E+03  0.87776250956E+02 -0.24507110766E+03  0.28367488026E+03  0.00000000000E+00 0.  1.
          1    1    3    3  501    0  0.11788545899E+03 -0.96477996465E+02 -0.72453889297E+03  0.74037935727E+03  0.00000000000E+00 0.  1.
         21    1    1    2  502  501 -0.51604854977E+01  0.87017455089E+01  0.49093628425E+01  0.11245124677E+02  0.00000000000E+00 0.  1.
<mgrwt>
<rscale>  1 0.30000000E+03</rscale>
<asrwt>0</asrwt>
<pdfrwt beam="1">  1        1 0.12836159E+00 0.30000000E+03</pdfrwt>
<pdfrwt beam="2">0</pdfrwt>
<totfact> 0.23356083E+01</totfact>
</mgrwt>
</event>
<event>
 6    1  0.1839160E-004  0.3000000E+03  0.7818608E-02  0.1093470E+00
          1   -1    0    0  502    0  0.00000000000E+00  0.00000000000E+00  0.40365950195E+02  0.40365950195E+02  0.00000000000E+00 0.  1.
         13   -1    0    0    0    0 -0.00000000000E+00 -0.00000000000E+00 -0.10000000000E+04  0.10000000000E+04  0.00000000000E+00 0.  1.
    9000005    2    1    2  501    0  0.10864114799E+01  0.15308465761E+02 -0.96884486084E+03  0.10224671107E+04  0.32640940361E+03 0.  0.
         13    1    3    3    0    0  0.36555399756E+02  0.98718128009E+02 -0.88667783221E+02  0.13763553985E+03  0.00000000000E+00 0.  1.
          3    1    3    3  501    0 -0.35468988276E+02 -0.83409662248E+02 -0.88017707762E+03  0.88483157089E+03  0.00000000000E+00 0.  1.
         21    1    1    2  502  501 -0.10864114799E+01 -0.15308465761E+02  0.92108110323E+01  0.17898839452E+02  0.00000000000E+00 0.  1.
<mgrwt>
<rscale>  1 0.30000000E+03</rscale>
<asrwt>0</asrwt>
<pdfrwt beam="1">  1        1 0.14678558E+00 0.30000000E+03</pdfrwt>
<pdfrwt beam="2">0</pdfrwt>
<totfact> 0.18657206E+01</totfact>
</mgrwt>
</event>
<event>
 6    1  0.1839160E-004  0.3000000E+03  0.7818608E-02  0.1093470E+00
          1   -1    0    0  502    0  0.00000000000E+00  0.00000000000E+00  0.30647030724E+02  0.30647030724E+02  0.00000000000E+00 0.  1.
         13   -1    0    0    0    0 -0.00000000000E+00 -0.00000000000E+00 -0.10000000000E+04  0.10000000000E+04  0.00000000000E+00 0.  1.
    9000005    2    1    2  501    0 -0.19486355660E+02 -0.13972541536E+02 -0.88599489437E+03  0.94390881178E+03  0.32465665268E+03 0.  0.
         13    1    3    3    0    0  0.19209067163E+02 -0.44299450840E+02  0.76720256439E+01  0.48890587883E+02  0.00000000000E+00 0.  1.
          3    1    3    3  501    0 -0.38695422824E+02  0.30326909304E+02 -0.89366692002E+03  0.89501822390E+03  0.00000000000E+00 0.  1.
         21    1    1    2  502  501  0.19486355660E+02  0.13972541536E+02 -0.83358074904E+02  0.86738218944E+02  0.00000000000E+00 0.  1.
<mgrwt>
<rscale>  1 0.30000000E+03</rscale>
<asrwt>0</asrwt>
<pdfrwt beam="1">  1        1 0.11144398E+00 0.30000000E+03</pdfrwt>
<pdfrwt beam="2">0</pdfrwt>
<totfact> 0.29129037E+01</totfact>
</mgrwt>
</event>
<event>
 6    1  0.1839160E-004  0.3000000E+03  0.7818608E-02  0.1093470E+00
          1   -1    0    0  502    0  0.00000000000E+00  0.00000000000E+00  0.49958936389E+02  0.49958936389E+02  0.00000000000E+00 0.  1.
         13   -1    0    0    0    0 -0.00000000000E+00 -0.00000000000E+00 -0.10000000000E+04  0.10000000000E+04  0.00000000000E+00 0.  1.
    9000005    2    1    2  501    0  0.12399395506E+02 -0.28487212589E+01 -0.97190253498E+03  0.10246649815E+04  0.32431763235E+03 0.  0.
         13    1    3    3    0    0  0.14414384779E+03  0.88354295945E+01 -0.23379466892E+03  0.27480076581E+03  0.00000000000E+00 0.  1.
          3    1    3    3  501    0 -0.13174445228E+03 -0.11684150853E+02 -0.73810786606E+03  0.74986421573E+03  0.00000000000E+00 0.  1.
         21    1    1    2  502  501 -0.12399395506E+02  0.28487212589E+01  0.21861471371E+02  0.25293954856E+02  0.00000000000E+00 0.  1.
<mgrwt>
<rscale>  1 0.30000000E+03</rscale>
<asrwt>0</asrwt>
<pdfrwt beam="1">  1        1 0.18166924E+00 0.30000000E+03</pdfrwt>
<pdfrwt beam="2">0</pdfrwt>
<totfact> 0.12539362E+01</totfact>
</mgrwt>
</event>
<event>
 6    1  0.1839160E-004  0.3000000E+03  0.7818608E-02  0.1093470E+00
          1   -1    0    0  502    0  0.00000000000E+00  0.00000000000E+00  0.32037680005E+02  0.32037680005E+02  0.00000000000E+00 0.  1.
         13   -1    0    0    0    0 -0.00000000000E+00 -0.00000000000E+00 -0.10000000000E+04  0.10000000000E+04  0.00000000000E+00 0.  1.
    9000005    2    1    2  501    0  0.25638884342E+02 -0.59422140204E+01 -0.93015368468E+03  0.98597082422E+03  0.32597534690E+03 0.  0.
         13    1    3    3    0    0  0.10747642896E+03 -0.88298215785E+02 -0.79812139760E+03  0.81015154323E+03  0.00000000000E+00 0.  1.
          3    1    3    3  501    0 -0.81837544616E+02  0.82356001764E+02 -0.13203228708E+03  0.17581928099E+03  0.00000000000E+00 0.  1.
         21    1    1    2  502  501 -0.25638884342E+02  0.59422140204E+01 -0.37808635318E+02  0.46066855790E+02  0.00000000000E+00 0. -1.
<mgrwt>
<rscale>  1 0.30000000E+03</rscale>
<asrwt>0</asrwt>
<pdfrwt beam="1">  1        1 0.11650090E+00 0.30000000E+03</pdfrwt>
<pdfrwt beam="2">0</pdfrwt>
<totfact> 0.27217802E+01</totfact>
</mgrwt>
</event>
<event>
 6    1  0.1839160E-004  0.3000000E+03  0.7818608E-02  0.1093470E+00
          1   -1    0    0  502    0  0.00000000000E+00  0.00000000000E+00  0.33650690860E+02  0.33650690860E+02  0.00000000000E+00 0.  1.
         13   -1    0    0    0    0 -0.00000000000E+00 -0.00000000000E+00 -0.10000000000E+04  0.10000000000E+04  0.00000000000E+00 0.  1.
    9000005    2    1    2  501    0 -0.29219925736E+02  0.26691396863E+01 -0.93561471700E+03  0.99115900319E+03  0.32582256303E+03 0.  0.
         13    1    3    3    0    0 -0.42388715090E+02 -0.41485767996E+02 -0.51288488683E+01  0.59532992567E+02  0.00000000000E+00 0.  1.
          1    1    3    3  501    0  0.13168789354E+02  0.44154907683E+02 -0.93048586813E+03  0.93162601062E+03  0.00000000000E+00 0.  1.
         21    1    1    2  502  501  0.29219925736E+02 -0.26691396863E+01 -0.30734592145E+02  0.42491687669E+02  0.00000000000E+00 0.  1.
<mgrwt>
<rscale>  1 0.30000000E+03</rscale>
<asrwt>0</asrwt>
<pdfrwt beam="1">  1        1 0.12236641E+00 0.30000000E+03</pdfrwt>
<pdfrwt beam="2">0</pdfrwt>
<totfact> 0.25211254E+01</totfact>
</mgrwt>
</event>
<event>
 6    1  0.1839160E-004  0.3000000E+03  0.7818608E-02  0.1093470E+00
          3   -1    0    0  502    0  0.00000000000E+00  0.00000000000E+00  0.30742716502E+02  0.30742716502E+02  0.00000000000E+00 0.  1.
         13   -1    0    0    0    0 -0.00000000000E+00 -0.00000000000E+00 -0.10000000000E+04  0.10000000000E+04  0.00000000000E+00 0.  1.
    9000005    2    1    2  501    0 -0.14895905966E+02  0.24137394340E+02 -0.93516117175E+03  0.98639131679E+03  0.31246905586E+03 0.  0.
         13    1    3    3    0    0  0.10756444289E+03 -0.58193226533E+02 -0.68596793860E+03  0.69678445288E+03  0.00000000000E+00 0.  1.
          1    1    3    3  501    0 -0.12246034886E+03  0.82330620873E+02 -0.24919323315E+03  0.28960686391E+03  0.00000000000E+00 0.  1.
         21    1    1    2  502  501  0.14895905966E+02 -0.24137394340E+02 -0.34096111752E+02  0.44351399715E+02  0.00000000000E+00 0. -1.
<mgrwt>
<rscale>  1 0.30000000E+03</rscale>
<asrwt>0</asrwt>
<pdfrwt beam="1">  1        3 0.11179193E+00 0.30000000E+03</pdfrwt>
<pdfrwt beam="2">0</pdfrwt>
<totfact> 0.28750924E+00</totfact>
</mgrwt>
</event>
<event>
 6    1  0.1839160E-004  0.3000000E+03  0.7818608E-02  0.1093470E+00
          1   -1    0    0  502    0  0.00000000000E+00  0.00000000000E+00  0.30639429769E+02  0.30639429769E+02  0.00000000000E+00 0.  1.
         13   -1    0    0    0    0 -0.00000000000E+00 -0.00000000000E+00 -0.10000000000E+04  0.10000000000E+04  0.00000000000E+00 0.  1.
    9000005    2    1    2  501    0  0.13980531433E+02  0.36830948615E+01 -0.96603281744E+03  0.10158038514E+04  0.31373402701E+03 0.  0.
         13    1    3    3    0    0  0.36432231620E+02  0.15594985758E+03 -0.49546342868E+03  0.52070305812E+03  0.00000000000E+00 0.  1.
          3    1    3    3  501    0 -0.22451700187E+02 -0.15226676271E+03 -0.47056938876E+03  0.49510079328E+03  0.00000000000E+00 0.  1.
         21    1    1    2  502  501 -0.13980531433E+02 -0.36830948615E+01 -0.33277527945E+01  0.14835578369E+02  0.00000000000E+00 0.  1.
<mgrwt>
<rscale>  1 0.30000000E+03</rscale>
<asrwt>0</asrwt>
<pdfrwt beam="1">  1        1 0.11141634E+00 0.30000000E+03</pdfrwt>
<pdfrwt beam="2">0</pdfrwt>
<totfact> 0.29139999E+01</totfact>
</mgrwt>
</event>
<event>
 6    1  0.1839160E-004  0.3000000E+03  0.7818608E-02  0.1093470E+00
          1   -1    0    0  502    0  0.00000000000E+00  0.00000000000E+00  0.42374898123E+02  0.42374898123E+02  0.00000000000E+00 0.  1.
         13   -1    0    0    0    0 -0.00000000000E+00 -0.00000000000E+00 -0.10000000000E+04  0.10000000000E+04  0.00000000000E+00 0.  1.
    9000005    2    1    2  501    0 -0.46080449722E+02  0.24449077377E+02 -0.91519875874E+03  0.97513532775E+03  0.33253416999E+03 0.  0.
         13    1    3    3    0    0  0.12440242790E+03 -0.45903186875E+02 -0.55311531184E+03  0.56878784694E+03  0.00000000000E+00 0.  1.
          1    1    3    3  501    0 -0.17048287763E+03  0.70352264252E+02 -0.36208344690E+03  0.40634748082E+03  0.00000000000E+00 0.  1.
         21    1    1    2  502  501  0.46080449722E+02 -0.24449077377E+02 -0.42426343141E+02  0.67239570370E+02  0.00000000000E+00 0. -1.
<mgrwt>
<rscale>  1 0.30000000E+03</rscale>
<asrwt>0</asrwt>
<pdfrwt beam="1">  1        1 0.15409086E+00 0.30000000E+03</pdfrwt>
<pdfrwt beam="2">0</pdfrwt>
<totfact> 0.17129210E+01</totfact>
</mgrwt>
</event>
<event>
 6    1  0.1839160E-004  0.3000000E+03  0.7818608E-02  0.1093470E+00
          1   -1    0    0  502    0  0.00000000000E+00  0.00000000000E+00  0.23750398151E+02  0.23750398151E+02  0.00000000000E+00 0.  1.
         13   -1    0    0    0    0 -0.00000000000E+00 -0.00000000000E+00 -0.10000000000E+04  0.10000000000E+04  0.00000000000E+00 0.  1.
    9000005    2    1    2  501    0  0.36142229324E+01 -0.81503923698E+01 -0.95541843175E+03  0.10010914231E+04  0.29879786839E+03 0.  0.
         13    1    3    3    0    0 -0.66831466689E+02 -0.60653254557E+01 -0.30879135177E+02  0.73869845688E+02  0.00000000000E+00 0.  1.
          1    1    3    3  501    0  0.70445689621E+02 -0.20850669141E+01 -0.92453929657E+03  0.92722157740E+03  0.00000000000E+00 0.  1.
         21    1    1    2  502  501 -0.36142229324E+01  0.81503923698E+01 -0.20831170100E+02  0.22658975063E+02  0.00000000000E+00 0. -1.
<mgrwt>
<rscale>  1 0.30000000E+03</rscale>
<asrwt>0</asrwt>
<pdfrwt beam="1">  1        1 0.86365266E-01 0.30000000E+03</pdfrwt>
<pdfrwt beam="2">0</pdfrwt>
<totfact> 0.42216125E+01</totfact>
</mgrwt>
</event>
<event>
 6    1  0.1839160E-004  0.3000000E+03  0.7818608E-02  0.1093470E+00
          1   -1    0    0  502    0  0.00000000000E+00  0.00000000000E+00  0.58327006488E+02  0.58327006488E+02  0.00000000000E+00 0.  1.
         13   -1    0    0    0    0 -0.00000000000E+00 -0.00000000000E+00 -0.10000000000E+04  0.10000000000E+04  0.00000000000E+00 0.  1.
    9000005    2    1    2  501    0 -0.43632986424E+02 -0.34158055591E+02 -0.94932396966E+03  0.10023882212E+04  0.31701030949E+03 0.  0.
         13    1    3    3    0    0 -0.17393597054E+03  0.59079930300E+01 -0.39667766582E+03  0.43317640378E+03  0.00000000000E+00 0.  1.
          1    1    3    3  501    0  0.13030298412E+03 -0.40066048621E+02 -0.55264630383E+03  0.56921181740E+03  0.00000000000E+00 0.  1.
         21    1    1    2  502  501  0.43632986424E+02  0.34158055591E+02  0.76509761460E+01  0.55938785311E+02  0.00000000000E+00 0.  1.
<mgrwt>
<rscale>  1 0.30000000E+03</rscale>
<asrwt>0</asrwt>
<pdfrwt beam="1">  1        1 0.21209865E+00 0.30000000E+03</pdfrwt>
<pdfrwt beam="2">0</pdfrwt>
<totfact> 0.89786337E+00</totfact>
</mgrwt>
</event>
<event>
 6    1  0.1839160E-004  0.3000000E+03  0.7818608E-02  0.1093470E+00
          1   -1    0    0  502    0  0.00000000000E+00  0.00000000000E+00  0.48840623744E+02  0.48840623744E+02  0.00000000000E+00 0.  1.
         13   -1    0    0    0    0 -0.00000000000E+00 -0.00000000000E+00 -0.10000000000E+04  0.10000000000E+04  0.00000000000E+00 0.  1.
    9000005    2    1    2  501    0  0.52448191621E+02 -0.61520736820E+02 -0.73248701298E+03  0.81570286120E+03  0.34971176663E+03 0.  0.
         13    1    3    3    0    0 -0.55138745122E+02 -0.10699665602E+03 -0.67476205375E+03  0.68541403166E+03  0.00000000000E+00 0.  1.
          1    1    3    3  501    0  0.10758693674E+03  0.45475919199E+02 -0.57724959224E+02  0.13028882954E+03  0.00000000000E+00 0.  1.
         21    1    1    2  502  501 -0.52448191621E+02  0.61520736820E+02 -0.21867236328E+03  0.23313776255E+03  0.00000000000E+00 0. -1.
<mgrwt>
<rscale>  1 0.30000000E+03</rscale>
<asrwt>0</asrwt>
<pdfrwt beam="1">  1        1 0.17760264E+00 0.30000000E+03</pdfrwt>
<pdfrwt beam="2">0</pdfrwt>
<totfact> 0.13120550E+01</totfact>
</mgrwt>
</event>
<event>
 6    1  0.1839160E-004  0.3000000E+03  0.7818608E-02  0.1093470E+00
          1   -1    0    0  502    0  0.00000000000E+00  0.00000000000E+00  0.29513483027E+02  0.29513483027E+02  0.00000000000E+00 0.  1.
         13   -1    0    0    0    0 -0.00000000000E+00 -0.00000000000E+00 -0.10000000000E+04  0.10000000000E+04  0.00000000000E+00 0.  1.
    9000005    2    1    2  501    0  0.79281253768E+01  0.74026864957E+01 -0.96562470464E+03  0.10176268452E+04  0.32096054423E+03 0.  0.
         13    1    3    3    0    0  0.13556485164E+01  0.38186440350E+02 -0.98158899927E+03  0.98233243126E+03  0.00000000000E+00 0.  1.
          1    1    3    3  501    0  0.65724768604E+01 -0.30783753854E+02  0.15964294632E+02  0.35294413956E+02  0.00000000000E+00 0.  1.
         21    1    1    2  502  501 -0.79281253768E+01 -0.74026864957E+01 -0.48618123345E+01  0.11886637814E+02  0.00000000000E+00 0.  1.
<mgrwt>
<rscale>  1 0.30000000E+03</rscale>
<asrwt>0</asrwt>
<pdfrwt beam="1">  1        1 0.10732198E+00 0.30000000E+03</pdfrwt>
<pdfrwt beam="2">0</pdfrwt>
<totfact> 0.30830834E+01</totfact>
</mgrwt>
</event>
<event>
 6    1  0.1839160E-004  0.3000000E+03  0.7818608E-02  0.1093470E+00
          1   -1    0    0  502    0  0.00000000000E+00  0.00000000000E+00  0.85285971962E+02  0.85285971962E+02  0.00000000000E+00 0.  1.
         13   -1    0    0    0    0 -0.00000000000E+00 -0.00000000000E+00 -0.10000000000E+04  0.10000000000E+04  0.00000000000E+00 0.  1.
    9000005    2    1    2  501    0 -0.11695017407E+02  0.99656867567E+00 -0.97657695085E+03  0.10223194110E+04  0.30215338913E+03 0.  0.
         13    1    3    3    0    0  0.54894516884E+02 -0.13536427149E+03 -0.56766165282E+03  0.58615411460E+03  0.00000000000E+00 0.  1.
          1    1    3    3  501    0 -0.66589534291E+02  0.13636084017E+03 -0.40891529803E+03  0.43616529639E+03  0.00000000000E+00 0.  1.
         21    1    1    2  502  501  0.11695017407E+02 -0.99656867567E+00  0.61862922817E+02  0.62966560972E+02  0.00000000000E+00 0.  1.
<mgrwt>
<rscale>  1 0.30000000E+03</rscale>
<asrwt>0</asrwt>
<pdfrwt beam="1">  1        1 0.31013146E+00 0.30000000E+03</pdfrwt>
<pdfrwt beam="2">0</pdfrwt>
<totfact> 0.31083150E+00</totfact>
</mgrwt>
</event>
<event>
 6    1  0.1839160E-004  0.3000000E+03  0.7818608E-02  0.1093470E+00
          1   -1    0    0  502    0  0.00000000000E+00  0.00000000000E+00  0.34662099564E+02  0.34662099564E+02  0.00000000000E+00 0.  1.
         13   -1    0    0    0    0 -0.00000000000E+00 -0.00000000000E+00 -0.10000000000E+04  0.10000000000E+04  0.00000000000E+00 0.  1.
    9000005    2    1    2  501    0 -0.14681057796E+02  0.14261019332E+02 -0.96138821426E+03  0.10138171925E+04  0.32115275357E+03 0.  0.
         13    1    3    3    0    0 -0.10521216251E+03 -0.99084821175E+02 -0.25889637045E+03  0.29650418473E+03  0.00000000000E+00 0.  1.
          3    1    3    3  501    0  0.90531104713E+02  0.11334584051E+03 -0.70249184380E+03  0.71731300775E+03  0.00000000000E+00 0.  1.
         21    1    1    2  502  501  0.14681057796E+02 -0.14261019332E+02 -0.39496861804E+01  0.20844907084E+02  0.00000000000E+00 0. -1.
<mgrwt>
<rscale>  1 0.30000000E+03</rscale>
<asrwt>0</asrwt>
<pdfrwt beam="1">  1        1 0.12604426E+00 0.30000000E+03</pdfrwt>
<pdfrwt beam="2">0</pdfrwt>
<totfact> 0.24051789E+01</totfact>
</mgrwt>
</event>
<event>
 6    1  0.1839160E-004  0.3000000E+03  0.7818608E-02  0.1093470E+00
          1   -1    0    0  502    0  0.00000000000E+00  0.00000000000E+00  0.31765905827E+02  0.31765905827E+02  0.00000000000E+00 0.  1.
         13   -1    0    0    0    0 -0.00000000000E+00 -0.00000000000E+00 -0.10000000000E+04  0.10000000000E+04  0.00000000000E+00 0.  1.
    9000005    2    1    2  501    0  0.17350434970E+01 -0.10207830660E+02 -0.96910403143E+03  0.10213751901E+04  0.32239330795E+03 0.  0.
         13    1    3    3    0    0 -0.72583679716E+02 -0.58245552026E+02 -0.91048454014E+03  0.91522840468E+03  0.00000000000E+00 0.  1.
          1    1    3    3  501    0  0.74318723213E+02  0.48037721367E+02 -0.58619491288E+02  0.10614678541E+03  0.00000000000E+00 0.  1.
         21    1    1    2  502  501 -0.17350434970E+01  0.10207830660E+02  0.86993725744E+00  0.10390715738E+02  0.00000000000E+00 0. -1.
<mgrwt>
<rscale>  1 0.30000000E+03</rscale>
<asrwt>0</asrwt>
<pdfrwt beam="1">  1        1 0.11551263E+00 0.30000000E+03</pdfrwt>
<pdfrwt beam="2">0</pdfrwt>
<totfact> 0.27577132E+01</totfact>
</mgrwt>
</event>
<event>
 6    1  0.1839160E-004  0.3000000E+03  0.7818608E-02  0.1093470E+00
          1   -1    0    0  502    0  0.00000000000E+00  0.00000000000E+00  0.42326372237E+02  0.42326372237E+02  0.00000000000E+00 0.  1.
         13   -1    0    0    0    0 -0.00000000000E+00 -0.00000000000E+00 -0.10000000000E+04  0.10000000000E+04  0.00000000000E+00 0.  1.
    9000005    2    1    2  501    0 -0.11564187771E+02  0.13144129972E+00 -0.97060748411E+03  0.10249760882E+04  0.32918588289E+03 0.  0.
         13    1    3    3    0    0 -0.11130737731E+03 -0.85386719849E+02 -0.20643298513E+03  0.24958926563E+03  0.00000000000E+00 0.  1.
          3    1    3    3  501    0  0.99743189538E+02  0.85518161149E+02 -0.76417449898E+03  0.77538682259E+03  0.00000000000E+00 0.  1.
         21    1    1    2  502  501  0.11564187771E+02 -0.13144129972E+00  0.12933856346E+02  0.17350284020E+02  0.00000000000E+00 0.  1.
<mgrwt>
<rscale>  1 0.30000000E+03</rscale>
<asrwt>0</asrwt>
<pdfrwt beam="1">  1        1 0.15391441E+00 0.30000000E+03</pdfrwt>
<pdfrwt beam="2">0</pdfrwt>
<totfact> 0.17164270E+01</totfact>
</mgrwt>
</event>
<event>
 6    1  0.1839160E-004  0.3000000E+03  0.7818608E-02  0.1093470E+00
          1   -1    0    0  502    0  0.00000000000E+00  0.00000000000E+00  0.38006896788E+02  0.38006896788E+02  0.00000000000E+00 0.  1.
         13   -1    0    0    0    0 -0.00000000000E+00 -0.00000000000E+00 -0.10000000000E+04  0.10000000000E+04  0.00000000000E+00 0.  1.
    9000005    2    1    2  501    0  0.19362089495E+02  0.25826575672E+02 -0.94397409017E+03  0.10010395145E+04  0.33158878781E+03 0.  0.
         13    1    3    3    0    0  0.10871114410E+03 -0.80864863481E+02 -0.75098148674E+03  0.76310578062E+03  0.00000000000E+00 0.  1.
          1    1    3    3  501    0 -0.89349054606E+02  0.10669143915E+03 -0.19299260344E+03  0.23793373390E+03  0.00000000000E+00 0.  1.
         21    1    1    2  502  501 -0.19362089495E+02 -0.25826575672E+02 -0.18019013038E+02  0.36967382264E+02  0.00000000000E+00 0.  1.
<mgrwt>
<rscale>  1 0.30000000E+03</rscale>
<asrwt>0</asrwt>
<pdfrwt beam="1">  1        1 0.13820719E+00 0.30000000E+03</pdfrwt>
<pdfrwt beam="2">0</pdfrwt>
<totfact> 0.20676303E+01</totfact>
</mgrwt>
</event>
<event>
 6    1  0.1839160E-004  0.3000000E+03  0.7818608E-02  0.1093470E+00
          1   -1    0    0  502    0  0.00000000000E+00  0.00000000000E+00  0.53217502237E+02  0.53217502237E+02  0.00000000000E+00 0.  1.
         13   -1    0    0    0    0 -0.00000000000E+00 -0.00000000000E+00 -0.10000000000E+04  0.10000000000E+04  0.00000000000E+00 0.  1.
    9000005    2    1    2  501    0 -0.63545757259E+02  0.52769986501E+02 -0.89903041990E+03  0.95780788175E+03  0.31987107981E+03 0.  0.
         13    1    3    3    0    0  0.58762669869E+02  0.98528959263E+02 -0.75388302055E+03  0.76256187674E+03  0.00000000000E+00 0.  1.
          3    1    3    3  501    0 -0.12230842713E+03 -0.45758972762E+02 -0.14514739934E+03  0.19524600501E+03  0.00000000000E+00 0.  1.
         21    1    1    2  502  501  0.63545757259E+02 -0.52769986501E+02 -0.47752077867E+02  0.95409620487E+02  0.00000000000E+00 0.  1.
<mgrwt>
<rscale>  1 0.30000000E+03</rscale>
<asrwt>0</asrwt>
<pdfrwt beam="1">  1        1 0.19351860E+00 0.30000000E+03</pdfrwt>
<pdfrwt beam="2">0</pdfrwt>
<totfact> 0.10998574E+01</totfact>
</mgrwt>
</event>
<event>
 6    1  0.1839160E-004  0.3000000E+03  0.7818608E-02  0.1093470E+00
          1   -1    0    0  502    0  0.00000000000E+00  0.00000000000E+00  0.45466002598E+02  0.45466002598E+02  0.00000000000E+00 0.  1.
         13   -1    0    0    0    0 -0.00000000000E+00 -0.00000000000E+00 -0.10000000000E+04  0.10000000000E+04  0.00000000000E+00 0.  1.
    9000005    2    1    2  501    0 -0.42325834052E+02 -0.61957994991E+02 -0.90550111814E+03  0.95583067128E+03  0.29673174390E+03 0.  0.
         13    1    3    3    0    0 -0.14672032224E+03  0.43112407758E+02 -0.54605511626E+03  0.56706412570E+03  0.00000000000E+00 0.  1.
          1    1    3    3  501    0  0.10439448819E+03 -0.10507040275E+03 -0.35944600188E+03  0.38876654558E+03  0.00000000000E+00 0.  1.
         21    1    1    2  502  501  0.42325834052E+02  0.61957994991E+02 -0.49032879261E+02  0.89635331316E+02  0.00000000000E+00 0. -1.
<mgrwt>
<rscale>  1 0.30000000E+03</rscale>
<asrwt>0</asrwt>
<pdfrwt beam="1">  1        1 0.16533127E+00 0.30000000E+03</pdfrwt>
<pdfrwt beam="2">0</pdfrwt>
<totfact> 0.15060645E+01</totfact>
</mgrwt>
</event>
<event>
 6    1  0.1839160E-004  0.3000000E+03  0.7818608E-02  0.1093470E+00
          1   -1    0    0  502    0  0.00000000000E+00  0.00000000000E+00  0.32337930183E+02  0.32337930183E+02  0.00000000000E+00 0.  1.
         13   -1    0    0    0    0 -0.00000000000E+00 -0.00000000000E+00 -0.10000000000E+04  0.10000000000E+04  0.00000000000E+00 0.  1.
    9000005    2    1    2  501    0  0.48365005433E+01  0.41972399994E+02 -0.95794479783E+03  0.98898473568E+03  0.24217245429E+03 0.  0.
         13    1    3    3    0    0 -0.57445622935E+02  0.12755321831E+03 -0.53179297088E+03  0.54988506706E+03  0.00000000000E+00 0.  1.
          1    1    3    3  501    0  0.62282123479E+02 -0.85580818320E+02 -0.42615182696E+03  0.43909966863E+03  0.00000000000E+00 0.  1.
         21    1    1    2  502  501 -0.48365005433E+01 -0.41972399994E+02 -0.97172719836E+01  0.43353194502E+02  0.00000000000E+00 0.  1.
<mgrwt>
<rscale>  1 0.30000000E+03</rscale>
<asrwt>0</asrwt>
<pdfrwt beam="1">  1        1 0.11759272E+00 0.30000000E+03</pdfrwt>
<pdfrwt beam="2">0</pdfrwt>
<totfact> 0.26828310E+01</totfact>
</mgrwt>
</event>
<event>
 6    1  0.1839160E-004  0.3000000E+03  0.7818608E-02  0.1093470E+00
          1   -1    0    0  502    0  0.00000000000E+00  0.00000000000E+00  0.40955419587E+02  0.40955419587E+02  0.00000000000E+00 0.  1.
         13   -1    0    0    0    0 -0.00000000000E+00 -0.00000000000E+00 -0.10000000000E+04  0.10000000000E+04  0.00000000000E+00 0.  1.
    9000005    2    1    2  501    0  0.14648477946E+02  0.17794078143E+02 -0.95952887368E+03  0.10179024011E+04  0.33896671155E+03 0.  0.
         13    1    3    3    0    0 -0.13445198286E+03  0.51865657920E+02 -0.71578392511E+03  0.73014656721E+03  0.00000000000E+00 0.  1.
          3    1    3    3  501    0  0.14910046081E+03 -0.34071579777E+02 -0.24374494857E+03  0.28775583385E+03  0.00000000000E+00 0.  1.
         21    1    1    2  502  501 -0.14648477946E+02 -0.17794078143E+02  0.48429326805E+00  0.23053018524E+02  0.00000000000E+00 0.  1.
<mgrwt>
<rscale>  1 0.30000000E+03</rscale>
<asrwt>0</asrwt>
<pdfrwt beam="1">  1        1 0.14892911E+00 0.30000000E+03</pdfrwt>
<pdfrwt beam="2">0</pdfrwt>
<totfact> 0.18191965E+01</totfact>
</mgrwt>
</event>
<event>
 6    1  0.1839160E-004  0.3000000E+03  0.7818608E-02  0.1093470E+00
          1   -1    0    0  502    0  0.00000000000E+00  0.00000000000E+00  0.42562504920E+02  0.42562504920E+02  0.00000000000E+00 0.  1.
         13   -1    0    0    0    0 -0.00000000000E+00 -0.00000000000E+00 -0.10000000000E+04  0.10000000000E+04  0.00000000000E+00 0.  1.
    9000005    2    1    2  501    0 -0.19238129303E+01 -0.54247472117E+02 -0.92526629450E+03  0.97946357122E+03  0.31667756839E+03 0.  0.
         13    1    3    3    0    0 -0.12183209222E+03 -0.10092080471E+03 -0.72020309727E+03  0.73737410372E+03  0.00000000000E+00 0.  1.
          1    1    3    3  501    0  0.11990827929E+03  0.46673332592E+02 -0.20506319723E+03  0.24208946750E+03  0.00000000000E+00 0.  1.
         21    1    1    2  502  501  0.19238129303E+01  0.54247472117E+02 -0.32171200579E+02  0.63098933699E+02  0.00000000000E+00 0. -1.
<mgrwt>
<rscale>  1 0.30000000E+03</rscale>
<asrwt>0</asrwt>
<pdfrwt beam="1">  1        1 0.15477307E+00 0.30000000E+03</pdfrwt>
<pdfrwt beam="2">0</pdfrwt>
<totfact> 0.16994478E+01</totfact>
</mgrwt>
</event>
<event>
 6    1  0.1839160E-004  0.3000000E+03  0.7818608E-02  0.1093470E+00
          1   -1    0    0  502    0  0.00000000000E+00  0.00000000000E+00  0.28834918734E+02  0.28834918734E+02  0.00000000000E+00 0.  1.
         13   -1    0    0    0    0 -0.00000000000E+00 -0.00000000000E+00 -0.10000000000E+04  0.10000000000E+04  0.00000000000E+00 0.  1.
    9000005    2    1    2  501    0  0.62813335162E+00 -0.10658728983E+02 -0.95044672950E+03  0.10055271270E+04  0.32805763897E+03 0.  0.
         13    1    3    3    0    0 -0.13537786499E+03  0.39427322238E+02 -0.22341241664E+03  0.26418703219E+03  0.00000000000E+00 0.  1.
          3    1    3    3  501    0  0.13600599834E+03 -0.50086051221E+02 -0.72703431287E+03  0.74134009483E+03  0.00000000000E+00 0.  1.
         21    1    1    2  502  501 -0.62813335162E+00  0.10658728983E+02 -0.20718351761E+02  0.23307791718E+02  0.00000000000E+00 0.  1.
<mgrwt>
<rscale>  1 0.30000000E+03</rscale>
<asrwt>0</asrwt>
<pdfrwt beam="1">  1        1 0.10485447E+00 0.30000000E+03</pdfrwt>
<pdfrwt beam="2">0</pdfrwt>
<totfact> 0.31918393E+01</totfact>
</mgrwt>
</event>
<event>
 6    1  0.1839160E-004  0.3000000E+03  0.7818608E-02  0.1093470E+00
          1   -1    0    0  502    0  0.00000000000E+00  0.00000000000E+00  0.77394244103E+02  0.77394244103E+02  0.00000000000E+00 0.  1.
         13   -1    0    0    0    0 -0.00000000000E+00 -0.00000000000E+00 -0.10000000000E+04  0.10000000000E+04  0.00000000000E+00 0.  1.
    9000005    2    1    2  501    0  0.66910954724E+02 -0.62532981543E+02 -0.92920014368E+03  0.98557411781E+03  0.31552493568E+03 0.  0.
         13    1    3    3    0    0  0.11937774860E+03  0.74939195023E+02 -0.69377196747E+03  0.70794524693E+03  0.00000000000E+00 0.  1.
          1    1    3    3  501    0 -0.52466793872E+02 -0.13747217657E+03 -0.23542817621E+03  0.27762887087E+03  0.00000000000E+00 0.  1.
         21    1    1    2  502  501 -0.66910954724E+02  0.62532981543E+02  0.65943877821E+01  0.91820126295E+02  0.00000000000E+00 0.  1.
<mgrwt>
<rscale>  1 0.30000000E+03</rscale>
<asrwt>0</asrwt>
<pdfrwt beam="1">  1        1 0.28143421E+00 0.30000000E+03</pdfrwt>
<pdfrwt beam="2">0</pdfrwt>
<totfact> 0.42518059E+00</totfact>
</mgrwt>
</event>
<event>
 6    1  0.1839160E-004  0.3000000E+03  0.7818608E-02  0.1093470E+00
          1   -1    0    0  502    0  0.00000000000E+00  0.00000000000E+00  0.48971411254E+02  0.48971411254E+02  0.00000000000E+00 0.  1.
         13   -1    0    0    0    0 -0.00000000000E+00 -0.00000000000E+00 -0.10000000000E+04  0.10000000000E+04  0.00000000000E+00 0.  1.
    9000005    2    1    2  501    0  0.43777566917E+01 -0.27118539935E+02 -0.96526389400E+03  0.10180323764E+04  0.32233670966E+03 0.  0.
         13    1    3    3    0    0  0.11004451524E+03 -0.44898207911E+01 -0.10892432877E+03  0.15490146295E+03  0.00000000000E+00 0.  1.
          1    1    3    3  501    0 -0.10566675855E+03 -0.22628719144E+02 -0.85633956523E+03  0.86313091346E+03  0.00000000000E+00 0.  1.
         21    1    1    2  502  501 -0.43777566917E+01  0.27118539935E+02  0.14235305250E+02  0.30939034850E+02  0.00000000000E+00 0.  1.
<mgrwt>
<rscale>  1 0.30000000E+03</rscale>
<asrwt>0</asrwt>
<pdfrwt beam="1">  1        1 0.17807823E+00 0.30000000E+03</pdfrwt>
<pdfrwt beam="2">0</pdfrwt>
<totfact> 0.13051086E+01</totfact>
</mgrwt>
</event>
<event>
 6    1  0.1839160E-004  0.3000000E+03  0.7818608E-02  0.1093470E+00
          3   -1    0    0  502    0  0.00000000000E+00  0.00000000000E+00  0.32129361903E+02  0.32129361903E+02  0.00000000000E+00 0.  1.
         13   -1    0    0    0    0 -0.00000000000E+00 -0.00000000000E+00 -0.10000000000E+04  0.10000000000E+04  0.00000000000E+00 0.  1.
    9000005    2    1    2  501    0  0.12734164575E+02 -0.76202982111E+01 -0.95743613359E+03  0.10139880616E+04  0.33356800098E+03 0.  0.
         13    1    3    3    0    0 -0.10609489393E+03  0.97605172768E+02 -0.67296103846E+03  0.68822921730E+03  0.00000000000E+00 0.  1.
          3    1    3    3  501    0  0.11882905851E+03 -0.10522547098E+03 -0.28447509513E+03  0.32575884430E+03  0.00000000000E+00 0.  1.
         21    1    1    2  502  501 -0.12734164575E+02  0.76202982111E+01 -0.10434504509E+02  0.18141300301E+02  0.00000000000E+00 0.  1.
<mgrwt>
<rscale>  1 0.30000000E+03</rscale>
<asrwt>0</asrwt>
<pdfrwt beam="1">  1        3 0.11683429E+00 0.30000000E+03</pdfrwt>
<pdfrwt beam="2">0</pdfrwt>
<totfact> 0.25164623E+00</totfact>
</mgrwt>
</event>
<event>
 6    1  0.1839160E-004  0.3000000E+03  0.7818608E-02  0.1093470E+00
          1   -1    0    0  502    0  0.00000000000E+00  0.00000000000E+00  0.41557523460E+02  0.41557523460E+02  0.00000000000E+00 0.  1.
         13   -1    0    0    0    0 -0.00000000000E+00 -0.00000000000E+00 -0.10000000000E+04  0.10000000000E+04  0.00000000000E+00 0.  1.
    9000005    2    1    2  501    0 -0.55541616502E+02 -0.14897182413E+02 -0.90901345441E+03  0.96572860130E+03  0.32096646844E+03 0.  0.
         13    1    3    3    0    0  0.59383153917E+02 -0.14244882831E+03 -0.43934364045E+03  0.46566174640E+03  0.00000000000E+00 0.  1.
          1    1    3    3  501    0 -0.11492477042E+03  0.12755164589E+03 -0.46966981395E+03  0.50006685490E+03  0.00000000000E+00 0.  1.
         21    1    1    2  502  501  0.55541616502E+02  0.14897182413E+02 -0.49429022134E+02  0.75828922164E+02  0.00000000000E+00 0.  1.
<mgrwt>
<rscale>  1 0.30000000E+03</rscale>
<asrwt>0</asrwt>
<pdfrwt beam="1">  1        1 0.15111859E+00 0.30000000E+03</pdfrwt>
<pdfrwt beam="2">0</pdfrwt>
<totfact> 0.17731564E+01</totfact>
</mgrwt>
</event>
<event>
 6    1  0.1839160E-004  0.3000000E+03  0.7818608E-02  0.1093470E+00
          1   -1    0    0  502    0  0.00000000000E+00  0.00000000000E+00  0.20891358440E+02  0.20891358440E+02  0.00000000000E+00 0.  1.
         13   -1    0    0    0    0 -0.00000000000E+00 -0.00000000000E+00 -0.10000000000E+04  0.10000000000E+04  0.00000000000E+00 0.  1.
    9000005    2    1    2  501    0  0.10893089738E+02 -0.16014890151E+01 -0.96050777745E+03  0.99927617126E+03  0.27542049985E+03 0.  0.
         13    1    3    3    0    0  0.99997005072E+02 -0.48723706644E+02 -0.17522277325E+03  0.20754859883E+03  0.00000000000E+00 0.  1.
          3    1    3    3  501    0 -0.89103915334E+02  0.47122217629E+02 -0.78528500420E+03  0.79172757243E+03  0.00000000000E+00 0.  1.
         21    1    1    2  502  501 -0.10893089738E+02  0.16014890151E+01 -0.18600864114E+02  0.21615187182E+02  0.00000000000E+00 0. -1.
<mgrwt>
<rscale>  1 0.30000000E+03</rscale>
<asrwt>0</asrwt>
<pdfrwt beam="1">  1        1 0.75968736E-01 0.30000000E+03</pdfrwt>
<pdfrwt beam="2">0</pdfrwt>
<totfact> 0.50430800E+01</totfact>
</mgrwt>
</event>
<event>
 6    1  0.1839160E-004  0.3000000E+03  0.7818608E-02  0.1093470E+00
          1   -1    0    0  502    0  0.00000000000E+00  0.00000000000E+00  0.28890688952E+02  0.28890688952E+02  0.00000000000E+00 0.  1.
         13   -1    0    0    0    0 -0.00000000000E+00 -0.00000000000E+00 -0.10000000000E+04  0.10000000000E+04  0.00000000000E+00 0.  1.
    9000005    2    1    2  501    0 -0.10032025536E+02 -0.67800879598E+01 -0.94756545781E+03  0.10024157167E+04  0.32681854472E+03 0.  0.
         13    1    3    3    0    0  0.14369960425E+03 -0.71154036413E+02 -0.45830684537E+03  0.48554880050E+03  0.00000000000E+00 0.  1.
          1    1    3    3  501    0 -0.15373162979E+03  0.64373948453E+02 -0.48925861245E+03  0.51686691623E+03  0.00000000000E+00 0.  1.
         21    1    1    2  502  501  0.10032025536E+02  0.67800879598E+01 -0.23543853233E+02  0.26474972222E+02  0.00000000000E+00 0.  1.
<mgrwt>
<rscale>  1 0.30000000E+03</rscale>
<asrwt>0</asrwt>
<pdfrwt beam="1">  1        1 0.10505727E+00 0.30000000E+03</pdfrwt>
<pdfrwt beam="2">0</pdfrwt>
<totfact> 0.31826938E+01</totfact>
</mgrwt>
</event>
<event>
 6    1  0.1839160E-004  0.3000000E+03  0.7818608E-02  0.1093470E+00
          1   -1    0    0  502    0  0.00000000000E+00  0.00000000000E+00  0.37066912059E+02  0.37066912059E+02  0.00000000000E+00 0.  1.
         13   -1    0    0    0    0 -0.00000000000E+00 -0.00000000000E+00 -0.10000000000E+04  0.10000000000E+04  0.00000000000E+00 0.  1.
    9000005    2    1    2  501    0 -0.30047342307E+01 -0.11492663251E+02 -0.97161697138E+03  0.10223523082E+04  0.31784208845E+03 0.  0.
         13    1    3    3    0    0  0.61218861062E+02 -0.13965176139E+03 -0.68645936760E+03  0.70319046266E+03  0.00000000000E+00 0.  1.
          1    1    3    3  501    0 -0.64223595293E+02  0.12815909814E+03 -0.28515760378E+03  0.31916184550E+03  0.00000000000E+00 0.  1.
         21    1    1    2  502  501  0.30047342307E+01  0.11492663251E+02  0.86838834369E+01  0.14714603901E+02  0.00000000000E+00 0. -1.
<mgrwt>
<rscale>  1 0.30000000E+03</rscale>
<asrwt>0</asrwt>
<pdfrwt beam="1">  1        1 0.13478906E+00 0.30000000E+03</pdfrwt>
<pdfrwt beam="2">0</pdfrwt>
<totfact> 0.21558369E+01</totfact>
</mgrwt>
</event>
<event>
 6    1  0.1839160E-004  0.3000000E+03  0.7818608E-02  0.1093470E+00
          1   -1    0    0  502    0  0.00000000000E+00  0.00000000000E+00  0.39583194500E+02  0.39583194500E+02  0.00000000000E+00 0.  1.
         13   -1    0    0    0    0 -0.00000000000E+00 -0.00000000000E+00 -0.10000000000E+04  0.10000000000E+04  0.00000000000E+00 0.  1.
    9000005    2    1    2  501    0  0.16145635223E+02 -0.16935129967E+02 -0.96328192971E+03  0.10160101357E+04  0.32220651701E+03 0.  0.
         13    1    3    3    0    0 -0.97238634168E+02 -0.11742213572E+03 -0.65503185716E+03  0.67253999422E+03  0.00000000000E+00 0.  1.
          3    1    3    3  501    0  0.11338426939E+03  0.10048700575E+03 -0.30825007255E+03  0.34347014149E+03  0.00000000000E+00 0.  1.
         21    1    1    2  502  501 -0.16145635223E+02  0.16935129967E+02  0.28651242108E+01  0.23573058785E+02  0.00000000000E+00 0.  1.
<mgrwt>
<rscale>  1 0.30000000E+03</rscale>
<asrwt>0</asrwt>
<pdfrwt beam="1">  1        1 0.14393919E+00 0.30000000E+03</pdfrwt>
<pdfrwt beam="2">0</pdfrwt>
<totfact> 0.19298323E+01</totfact>
</mgrwt>
</event>
<event>
 6    1  0.1839160E-004  0.3000000E+03  0.7818608E-02  0.1093470E+00
          1   -1    0    0  502    0  0.00000000000E+00  0.00000000000E+00  0.94242056406E+01  0.94242056406E+01  0.00000000000E+00 0.  1.
         13   -1    0    0    0    0 -0.00000000000E+00 -0.00000000000E+00 -0.10000000000E+04  0.10000000000E+04  0.00000000000E+00 0.  1.
    9000005    2    1    2  501    0 -0.11489265129E+01  0.12326757136E+02 -0.95678804821E+03  0.97343975395E+03  0.17885277856E+03 0.  0.
         13    1    3    3    0    0  0.68231505551E+02 -0.50786383333E+02 -0.42144329055E+03  0.42994097528E+03  0.00000000000E+00 0.  1.
          3    1    3    3  501    0 -0.69380432064E+02  0.63113140469E+02 -0.53534475767E+03  0.54349877867E+03  0.00000000000E+00 0.  1.
         21    1    1    2  502  501  0.11489265129E+01 -0.12326757136E+02 -0.33787746146E+02  0.35984451688E+02  0.00000000000E+00 0. -1.
<mgrwt>
<rscale>  1 0.30000000E+03</rscale>
<asrwt>0</asrwt>
<pdfrwt beam="1">  1        1 0.34269911E-01 0.30000000E+03</pdfrwt>
<pdfrwt beam="2">0</pdfrwt>
<totfact> 0.14465440E+02</totfact>
</mgrwt>
</event>
<event>
 6    1  0.1839160E-004  0.3000000E+03  0.7818608E-02  0.1093470E+00
          1   -1    0    0  502    0  0.00000000000E+00  0.00000000000E+00  0.33923159145E+02  0.33923159145E+02  0.00000000000E+00 0.  1.
         13   -1    0    0    0    0 -0.00000000000E+00 -0.00000000000E+00 -0.10000000000E+04  0.10000000000E+04  0.00000000000E+00 0.  1.
    9000005    2    1    2  501    0  0.30811651277E+02 -0.31175128884E+01 -0.94437668642E+03  0.99610816948E+03  0.31531743166E+03 0.  0.
         13    1    3    3    0    0  0.18418563835E+02 -0.12854824011E+03 -0.77042448171E+03  0.78129237520E+03  0.00000000000E+00 0.  1.
          1    1    3    3  501    0  0.12393087442E+02  0.12543072722E+03 -0.17395220471E+03  0.21481579428E+03  0.00000000000E+00 0.  1.
         21    1    1    2  502  501 -0.30811651277E+02  0.31175128884E+01 -0.21700154434E+02  0.37814989667E+02  0.00000000000E+00 0. -1.
<mgrwt>
<rscale>  1 0.30000000E+03</rscale>
<asrwt>0</asrwt>
<pdfrwt beam="1">  1        1 0.12335720E+00 0.30000000E+03</pdfrwt>
<pdfrwt beam="2">0</pdfrwt>
<totfact> 0.24891942E+01</totfact>
</mgrwt>
</event>
<event>
 6    1  0.1839160E-004  0.3000000E+03  0.7818608E-02  0.1093470E+00
          1   -1    0    0  502    0  0.00000000000E+00  0.00000000000E+00  0.34601294247E+02  0.34601294247E+02  0.00000000000E+00 0.  1.
         13   -1    0    0    0    0 -0.00000000000E+00 -0.00000000000E+00 -0.10000000000E+04  0.10000000000E+04  0.00000000000E+00 0.  1.
    9000005    2    1    2  501    0  0.82581550092E+01 -0.47062492011E+01 -0.95649020298E+03  0.10215741178E+04  0.35867788301E+03 0.  0.
         13    1    3    3    0    0  0.32074193652E+01 -0.16622474346E+03 -0.27640260915E+03  0.32255132185E+03  0.00000000000E+00 0.  1.
          3    1    3    3  501    0  0.50507356440E+01  0.16151849426E+03 -0.68008759383E+03  0.69902279591E+03  0.00000000000E+00 0.  1.
         21    1    1    2  502  501 -0.82581550092E+01  0.47062492011E+01 -0.89085027734E+01  0.13027176492E+02  0.00000000000E+00 0. -1.
<mgrwt>
<rscale>  1 0.30000000E+03</rscale>
<asrwt>0</asrwt>
<pdfrwt beam="1">  1        1 0.12582315E+00 0.30000000E+03</pdfrwt>
<pdfrwt beam="2">0</pdfrwt>
<totfact> 0.24119547E+01</totfact>
</mgrwt>
</event>
<event>
 6    1  0.1839160E-004  0.3000000E+03  0.7818608E-02  0.1093470E+00
          1   -1    0    0  502    0  0.00000000000E+00  0.00000000000E+00  0.32087754556E+02  0.32087754556E+02  0.00000000000E+00 0.  1.
         13   -1    0    0    0    0 -0.00000000000E+00 -0.00000000000E+00 -0.10000000000E+04  0.10000000000E+04  0.00000000000E+00 0.  1.
    9000005    2    1    2  501    0  0.20260662982E+02  0.52110201514E+01 -0.92793013676E+03  0.98696327992E+03  0.33556598163E+03 0.  0.
         13    1    3    3    0    0 -0.11419131442E+03  0.10365112709E+03 -0.30024591380E+03  0.33753639980E+03  0.00000000000E+00 0.  1.
          1    1    3    3  501    0  0.13445197740E+03 -0.98440106938E+02 -0.62768422295E+03  0.64942688012E+03  0.00000000000E+00 0.  1.
         21    1    1    2  502  501 -0.20260662982E+02 -0.52110201514E+01 -0.39982108689E+02  0.45124474631E+02  0.00000000000E+00 0. -1.
<mgrwt>
<rscale>  1 0.30000000E+03</rscale>
<asrwt>0</asrwt>
<pdfrwt beam="1">  1        1 0.11668299E+00 0.30000000E+03</pdfrwt>
<pdfrwt beam="2">0</pdfrwt>
<totfact> 0.27152305E+01</totfact>
</mgrwt>
</event>
<event>
 6    1  0.1839160E-004  0.3000000E+03  0.7818608E-02  0.1093470E+00
          1   -1    0    0  502    0  0.00000000000E+00  0.00000000000E+00  0.27246783449E+02  0.27246783449E+02  0.00000000000E+00 0.  1.
         13   -1    0    0    0    0 -0.00000000000E+00 -0.00000000000E+00 -0.10000000000E+04  0.10000000000E+04  0.00000000000E+00 0.  1.
    9000005    2    1    2  501    0  0.55910303436E+01  0.96192881747E+01 -0.96809108008E+03  0.10151833742E+04  0.30540653837E+03 0.  0.
         13    1    3    3    0    0  0.11619207827E+03  0.10720984220E+03 -0.50525012116E+03  0.52940743690E+03  0.00000000000E+00 0.  1.
          1    1    3    3  501    0 -0.11060104793E+03 -0.97590554029E+02 -0.46284095892E+03  0.48577593733E+03  0.00000000000E+00 0.  1.
         21    1    1    2  502  501 -0.55910303436E+01 -0.96192881747E+01 -0.46621364747E+01  0.12063409211E+02  0.00000000000E+00 0.  1.
<mgrwt>
<rscale>  1 0.30000000E+03</rscale>
<asrwt>0</asrwt>
<pdfrwt beam="1">  1        1 0.99079421E-01 0.30000000E+03</pdfrwt>
<pdfrwt beam="2">0</pdfrwt>
<totfact> 0.34692249E+01</totfact>
</mgrwt>
</event>
<event>
 6    1  0.1839160E-004  0.3000000E+03  0.7818608E-02  0.1093470E+00
          1   -1    0    0  502    0  0.00000000000E+00  0.00000000000E+00  0.64557450744E+02  0.64557450744E+02  0.00000000000E+00 0.  1.
         13   -1    0    0    0    0 -0.00000000000E+00 -0.00000000000E+00 -0.10000000000E+04  0.10000000000E+04  0.00000000000E+00 0.  1.
    9000005    2    1    2  501    0  0.97554898102E+01 -0.19114558895E+02 -0.97177242684E+03  0.10223627123E+04  0.31689640275E+03 0.  0.
         13    1    3    3    0    0 -0.69447939085E+02 -0.11613095721E+03 -0.79072063860E+03  0.80221477410E+03  0.00000000000E+00 0.  1.
          3    1    3    3  501    0  0.79203428895E+02  0.97016398313E+02 -0.18105178824E+03  0.22014793825E+03  0.00000000000E+00 0.  1.
         21    1    1    2  502  501 -0.97554898102E+01  0.19114558895E+02  0.36329877586E+02  0.42194738399E+02  0.00000000000E+00 0.  1.
<mgrwt>
<rscale>  1 0.30000000E+03</rscale>
<asrwt>0</asrwt>
<pdfrwt beam="1">  1        1 0.23475486E+00 0.30000000E+03</pdfrwt>
<pdfrwt beam="2">0</pdfrwt>
<totfact> 0.70307807E+00</totfact>
</mgrwt>
</event>
<event>
 6    1  0.1839160E-004  0.3000000E+03  0.7818608E-02  0.1093470E+00
          1   -1    0    0  502    0  0.00000000000E+00  0.00000000000E+00  0.62878820792E+02  0.62878820792E+02  0.00000000000E+00 0.  1.
         13   -1    0    0    0    0 -0.00000000000E+00 -0.00000000000E+00 -0.10000000000E+04  0.10000000000E+04  0.00000000000E+00 0.  1.
    9000005    2    1    2  501    0  0.13767823365E+02 -0.24489582725E+02 -0.96774634000E+03  0.10213193081E+04  0.32522431932E+03 0.  0.
         13    1    3    3    0    0  0.14890830031E+03  0.26617175418E+02 -0.70909477176E+03  0.72505003363E+03  0.00000000000E+00 0.  1.
          3    1    3    3  501    0 -0.13514047695E+03 -0.51106758143E+02 -0.25865156824E+03  0.29626927446E+03  0.00000000000E+00 0.  1.
         21    1    1    2  502  501 -0.13767823365E+02  0.24489582725E+02  0.30625160792E+02  0.41559512699E+02  0.00000000000E+00 0.  1.
<mgrwt>
<rscale>  1 0.30000000E+03</rscale>
<asrwt>0</asrwt>
<pdfrwt beam="1">  1        1 0.22865074E+00 0.30000000E+03</pdfrwt>
<pdfrwt beam="2">0</pdfrwt>
<totfact> 0.75088520E+00</totfact>
</mgrwt>
</event>
<event>
 6    1  0.1839160E-004  0.3000000E+03  0.7818608E-02  0.1093470E+00
          1   -1    0    0  502    0  0.00000000000E+00  0.00000000000E+00  0.41345254658E+02  0.41345254658E+02  0.00000000000E+00 0.  1.
         13   -1    0    0    0    0 -0.00000000000E+00 -0.00000000000E+00 -0.10000000000E+04  0.10000000000E+04  0.00000000000E+00 0.  1.
    9000005    2    1    2  501    0  0.30889170159E+02  0.12121476554E+02 -0.94463935929E+03  0.10053243986E+04  0.34239240093E+03 0.  0.
         13    1    3    3    0    0 -0.96057681358E+02 -0.12399911858E+03 -0.47066142915E+03  0.49610990763E+03  0.00000000000E+00 0.  1.
          3    1    3    3  501    0  0.12694685152E+03  0.13612059513E+03 -0.47397793014E+03  0.50921449095E+03  0.00000000000E+00 0.  1.
         21    1    1    2  502  501 -0.30889170159E+02 -0.12121476554E+02 -0.14015386048E+02  0.36020856084E+02  0.00000000000E+00 0. -1.
<mgrwt>
<rscale>  1 0.30000000E+03</rscale>
<asrwt>0</asrwt>
<pdfrwt beam="1">  1        1 0.15034670E+00 0.30000000E+03</pdfrwt>
<pdfrwt beam="2">0</pdfrwt>
<totfact> 0.17892214E+01</totfact>
</mgrwt>
</event>
<event>
 6    1  0.1839160E-004  0.3000000E+03  0.7818608E-02  0.1093470E+00
          1   -1    0    0  502    0  0.00000000000E+00  0.00000000000E+00  0.20282470646E+02  0.20282470646E+02  0.00000000000E+00 0.  1.
         13   -1    0    0    0    0 -0.00000000000E+00 -0.00000000000E+00 -0.10000000000E+04  0.10000000000E+04  0.00000000000E+00 0.  1.
    9000005    2    1    2  501    0  0.60177998986E+01  0.87777407189E+01 -0.94520481923E+03  0.98416613352E+03  0.27396635818E+03 0.  0.
         13    1    3    3    0    0  0.12930614269E+03  0.63063706535E+01 -0.67291460923E+03  0.68525463892E+03  0.00000000000E+00 0.  1.
          1    1    3    3  501    0 -0.12328834279E+03  0.24713700654E+01 -0.27229021001E+03  0.29891149460E+03  0.00000000000E+00 0.  1.
         21    1    1    2  502  501 -0.60177998986E+01 -0.87777407189E+01 -0.34512710122E+02  0.36116337131E+02  0.00000000000E+00 0.  1.
<mgrwt>
<rscale>  1 0.30000000E+03</rscale>
<asrwt>0</asrwt>
<pdfrwt beam="1">  1        1 0.73754594E-01 0.30000000E+03</pdfrwt>
<pdfrwt beam="2">0</pdfrwt>
<totfact> 0.52513687E+01</totfact>
</mgrwt>
</event>
<event>
 6    1  0.1839160E-004  0.3000000E+03  0.7818608E-02  0.1093470E+00
          1   -1    0    0  502    0  0.00000000000E+00  0.00000000000E+00  0.29419511442E+02  0.29419511442E+02  0.00000000000E+00 0.  1.
         13   -1    0    0    0    0 -0.00000000000E+00 -0.00000000000E+00 -0.10000000000E+04  0.10000000000E+04  0.00000000000E+00 0.  1.
    9000005    2    1    2  501    0  0.16839878449E+02 -0.18331620901E+02 -0.93093914550E+03  0.98261068844E+03  0.31345883715E+03 0.  0.
         13    1    3    3    0    0  0.26115329098E+02 -0.85074696821E+02 -0.56141448704E+02  0.10522156013E+03  0.00000000000E+00 0.  1.
          1    1    3    3  501    0 -0.92754506488E+01  0.66743075920E+02 -0.87479769679E+03  0.87738912832E+03  0.00000000000E+00 0.  1.
         21    1    1    2  502  501 -0.16839878449E+02  0.18331620901E+02 -0.39641343059E+02  0.46808822999E+02  0.00000000000E+00 0.  1.
<mgrwt>
<rscale>  1 0.30000000E+03</rscale>
<asrwt>0</asrwt>
<pdfrwt beam="1">  1        1 0.10698027E+00 0.30000000E+03</pdfrwt>
<pdfrwt beam="2">0</pdfrwt>
<totfact> 0.30978233E+01</totfact>
</mgrwt>
</event>
<event>
 6    1  0.1839160E-004  0.3000000E+03  0.7818608E-02  0.1093470E+00
          1   -1    0    0  502    0  0.00000000000E+00  0.00000000000E+00  0.37489709134E+02  0.37489709134E+02  0.00000000000E+00 0.  1.
         13   -1    0    0    0    0 -0.00000000000E+00 -0.00000000000E+00 -0.10000000000E+04  0.10000000000E+04  0.00000000000E+00 0.  1.
    9000005    2    1    2  501    0  0.84024021368E+01  0.77358701461E+01 -0.96966298814E+03  0.10240136145E+04  0.32897891734E+03 0.  0.
         13    1    3    3    0    0  0.42953935288E+02  0.11603405580E+03 -0.85002062065E+03  0.85897846201E+03  0.00000000000E+00 0.  1.
          3    1    3    3  501    0 -0.34551533151E+02 -0.10829818565E+03 -0.11964236749E+03  0.16503515249E+03  0.00000000000E+00 0.  1.
         21    1    1    2  502  501 -0.84024021368E+01 -0.77358701461E+01  0.71526972689E+01  0.13476094642E+02  0.00000000000E+00 0. -1.
<mgrwt>
<rscale>  1 0.30000000E+03</rscale>
<asrwt>0</asrwt>
<pdfrwt beam="1">  1        1 0.13632650E+00 0.30000000E+03</pdfrwt>
<pdfrwt beam="2">0</pdfrwt>
<totfact> 0.21155633E+01</totfact>
</mgrwt>
</event>
<event>
 6    1  0.1839160E-004  0.3000000E+03  0.7818608E-02  0.1093470E+00
          1   -1    0    0  502    0  0.00000000000E+00  0.00000000000E+00  0.27831709481E+02  0.27831709481E+02  0.00000000000E+00 0.  1.
         13   -1    0    0    0    0 -0.00000000000E+00 -0.00000000000E+00 -0.10000000000E+04  0.10000000000E+04  0.00000000000E+00 0.  1.
    9000005    2    1    2  501    0  0.61389958568E+01 -0.14096059758E+02 -0.95064443272E+03  0.10013805729E+04  0.31432758102E+03 0.  0.
         13    1    3    3    0    0  0.22973206661E+02 -0.88727506275E+02 -0.64820147508E+02  0.11225858594E+03  0.00000000000E+00 0.  1.
          1    1    3    3  501    0 -0.16834210805E+02  0.74631446517E+02 -0.88582428521E+03  0.88912198698E+03  0.00000000000E+00 0.  1.
         21    1    1    2  502  501 -0.61389958568E+01  0.14096059758E+02 -0.21523857801E+02  0.26451136563E+02  0.00000000000E+00 0. -1.
<mgrwt>
<rscale>  1 0.30000000E+03</rscale>
<asrwt>0</asrwt>
<pdfrwt beam="1">  1        1 0.10120643E+00 0.30000000E+03</pdfrwt>
<pdfrwt beam="2">0</pdfrwt>
<totfact> 0.33630955E+01</totfact>
</mgrwt>
</event>
<event>
 6    1  0.1839160E-004  0.3000000E+03  0.7818608E-02  0.1093470E+00
          1   -1    0    0  502    0  0.00000000000E+00  0.00000000000E+00  0.35497768735E+02  0.35497768735E+02  0.00000000000E+00 0.  1.
         13   -1    0    0    0    0 -0.00000000000E+00 -0.00000000000E+00 -0.10000000000E+04  0.10000000000E+04  0.00000000000E+00 0.  1.
    9000005    2    1    2  501    0  0.33788956666E+02 -0.21765400780E+02 -0.88289142476E+03  0.94452661945E+03  0.33319339830E+03 0.  0.
         13    1    3    3    0    0 -0.54885874505E+02  0.13847884420E+03 -0.46468547445E+03  0.48797688436E+03  0.00000000000E+00 0.  1.
          3    1    3    3  501    0  0.88674831171E+02 -0.16024424498E+03 -0.41820595031E+03  0.45654973508E+03  0.00000000000E+00 0.  1.
         21    1    1    2  502  501 -0.33788956666E+02  0.21765400780E+02 -0.81610806509E+02  0.90971149288E+02  0.00000000000E+00 0.  1.
<mgrwt>
<rscale>  1 0.30000000E+03</rscale>
<asrwt>0</asrwt>
<pdfrwt beam="1">  1        1 0.12908307E+00 0.30000000E+03</pdfrwt>
<pdfrwt beam="2">0</pdfrwt>
<totfact> 0.23144775E+01</totfact>
</mgrwt>
</event>
<event>
 6    1  0.1839160E-004  0.3000000E+03  0.7818608E-02  0.1093470E+00
          1   -1    0    0  502    0  0.00000000000E+00  0.00000000000E+00  0.46479435427E+02  0.46479435427E+02  0.00000000000E+00 0.  1.
         13   -1    0    0    0    0 -0.00000000000E+00 -0.00000000000E+00 -0.10000000000E+04  0.10000000000E+04  0.00000000000E+00 0.  1.
    9000005    2    1    2  501    0  0.47900002262E+02 -0.55252272476E+02 -0.87897654729E+03  0.94205705112E+03  0.33094484897E+03 0.  0.
         13    1    3    3    0    0 -0.96930121527E+02  0.79397727780E+02 -0.48911723389E+03  0.50491099822E+03  0.00000000000E+00 0.  1.
          3    1    3    3  501    0  0.14483012379E+03 -0.13465000026E+03 -0.38985931340E+03  0.43714605290E+03  0.00000000000E+00 0.  1.
         21    1    1    2  502  501 -0.47900002262E+02  0.55252272476E+02 -0.74544017284E+02  0.10442238430E+03  0.00000000000E+00 0. -1.
<mgrwt>
<rscale>  1 0.30000000E+03</rscale>
<asrwt>0</asrwt>
<pdfrwt beam="1">  1        1 0.16901649E+00 0.30000000E+03</pdfrwt>
<pdfrwt beam="2">0</pdfrwt>
<totfact> 0.14446317E+01</totfact>
</mgrwt>
</event>
<event>
 6    1  0.1839160E-004  0.3000000E+03  0.7818608E-02  0.1093470E+00
          1   -1    0    0  502    0  0.00000000000E+00  0.00000000000E+00  0.44981548969E+02  0.44981548969E+02  0.00000000000E+00 0.  1.
         13   -1    0    0    0    0 -0.00000000000E+00 -0.00000000000E+00 -0.10000000000E+04  0.10000000000E+04  0.00000000000E+00 0.  1.
    9000005    2    1    2  501    0  0.28923232051E+02 -0.61340745415E+02 -0.91239197699E+03  0.96488000910E+03  0.30648828997E+03 0.  0.
         13    1    3    3    0    0 -0.88023354105E+02  0.13599624245E+02 -0.76155585754E+02  0.11718674792E+03  0.00000000000E+00 0.  1.
          1    1    3    3  501    0  0.11694658616E+03 -0.74940369660E+02 -0.83623639123E+03  0.84769326117E+03  0.00000000000E+00 0.  1.
         21    1    1    2  502  501 -0.28923232051E+02  0.61340745415E+02 -0.42626474046E+02  0.80101539872E+02  0.00000000000E+00 0. -1.
<mgrwt>
<rscale>  1 0.30000000E+03</rscale>
<asrwt>0</asrwt>
<pdfrwt beam="1">  1        1 0.16356961E+00 0.30000000E+03</pdfrwt>
<pdfrwt beam="2">0</pdfrwt>
<totfact> 0.15364798E+01</totfact>
</mgrwt>
</event>
<event>
 6    1  0.1839160E-004  0.3000000E+03  0.7818608E-02  0.1093470E+00
          1   -1    0    0  502    0  0.00000000000E+00  0.00000000000E+00  0.26548669554E+02  0.26548669554E+02  0.00000000000E+00 0.  1.
         13   -1    0    0    0    0 -0.00000000000E+00 -0.00000000000E+00 -0.10000000000E+04  0.10000000000E+04  0.00000000000E+00 0.  1.
    9000005    2    1    2  501    0  0.10429762108E+02 -0.13206027075E+02 -0.94699356648E+03  0.99519277118E+03  0.30549739404E+03 0.  0.
         13    1    3    3    0    0 -0.63617850406E+02 -0.21300384391E+02 -0.27208505412E+02  0.72396408973E+02  0.00000000000E+00 0.  1.
          1    1    3    3  501    0  0.74047612514E+02  0.80943573159E+01 -0.91978506107E+03  0.92279636220E+03  0.00000000000E+00 0.  1.
         21    1    1    2  502  501 -0.10429762108E+02  0.13206027075E+02 -0.26457763969E+02  0.31355898376E+02  0.00000000000E+00 0.  1.
<mgrwt>
<rscale>  1 0.30000000E+03</rscale>
<asrwt>0</asrwt>
<pdfrwt beam="1">  1        1 0.96540820E-01 0.30000000E+03</pdfrwt>
<pdfrwt beam="2">0</pdfrwt>
<totfact> 0.36024876E+01</totfact>
</mgrwt>
</event>
<event>
 6    1  0.1839160E-004  0.3000000E+03  0.7818608E-02  0.1093470E+00
          1   -1    0    0  502    0  0.00000000000E+00  0.00000000000E+00  0.34454104090E+02  0.34454104090E+02  0.00000000000E+00 0.  1.
         13   -1    0    0    0    0 -0.00000000000E+00 -0.00000000000E+00 -0.10000000000E+04  0.10000000000E+04  0.00000000000E+00 0.  1.
    9000005    2    1    2  501    0  0.18085247644E+02 -0.36577026060E+02 -0.87670973175E+03  0.93669511943E+03  0.32728097716E+03 0.  0.
         13    1    3    3    0    0  0.17052333984E+03 -0.46061443363E+02 -0.44576588056E+03  0.47948627328E+03  0.00000000000E+00 0.  1.
          1    1    3    3  501    0 -0.15243809219E+03  0.94844173026E+01 -0.43094385119E+03  0.45720884615E+03  0.00000000000E+00 0.  1.
         21    1    1    2  502  501 -0.18085247644E+02  0.36577026060E+02 -0.88836164162E+02  0.97758984655E+02  0.00000000000E+00 0. -1.
<mgrwt>
<rscale>  1 0.30000000E+03</rscale>
<asrwt>0</asrwt>
<pdfrwt beam="1">  1        1 0.12528792E+00 0.30000000E+03</pdfrwt>
<pdfrwt beam="2">0</pdfrwt>
<totfact> 0.24284578E+01</totfact>
</mgrwt>
</event>
<event>
 6    1  0.1839160E-004  0.3000000E+03  0.7818608E-02  0.1093470E+00
          1   -1    0    0  502    0  0.00000000000E+00  0.00000000000E+00  0.49831455606E+02  0.49831455606E+02  0.00000000000E+00 0.  1.
         13   -1    0    0    0    0 -0.00000000000E+00 -0.00000000000E+00 -0.10000000000E+04  0.10000000000E+04  0.00000000000E+00 0.  1.
    9000005    2    1    2  501    0 -0.21943537858E+02 -0.75488900354E+02 -0.89300172024E+03  0.95262991902E+03  0.32229116857E+03 0.  0.
         13    1    3    3    0    0  0.93904475334E+02  0.69311252360E+01 -0.69720338107E+02  0.11716235117E+03  0.00000000000E+00 0.  1.
          3    1    3    3  501    0 -0.11584801319E+03 -0.82420025590E+02 -0.82328138213E+03  0.83546756785E+03  0.00000000000E+00 0.  1.
         21    1    1    2  502  501  0.21943537858E+02  0.75488900354E+02 -0.57166824158E+02  0.97201536586E+02  0.00000000000E+00 0.  1.
<mgrwt>
<rscale>  1 0.30000000E+03</rscale>
<asrwt>0</asrwt>
<pdfrwt beam="1">  1        1 0.18120568E+00 0.30000000E+03</pdfrwt>
<pdfrwt beam="2">0</pdfrwt>
<totfact> 0.12604169E+01</totfact>
</mgrwt>
</event>
<event>
 6    1  0.1839160E-004  0.3000000E+03  0.7818608E-02  0.1093470E+00
          3   -1    0    0  502    0  0.00000000000E+00  0.00000000000E+00  0.31877399963E+02  0.31877399963E+02  0.00000000000E+00 0.  1.
         13   -1    0    0    0    0 -0.00000000000E+00 -0.00000000000E+00 -0.10000000000E+04  0.10000000000E+04  0.00000000000E+00 0.  1.
    9000005    2    1    2  501    0 -0.97067136746E+01 -0.95592754072E+01 -0.97715454681E+03  0.10155318777E+04  0.27620352309E+03 0.  0.
         13    1    3    3    0    0  0.94167088820E+02 -0.92519775371E+02 -0.63247036097E+03  0.64610069414E+03  0.00000000000E+00 0.  1.
          3    1    3    3  501    0 -0.10387380249E+03  0.82960499964E+02 -0.34468418584E+03  0.36943118353E+03  0.00000000000E+00 0.  1.
         21    1    1    2  502  501  0.97067136746E+01  0.95592754072E+01  0.90319467726E+01  0.16345522297E+02  0.00000000000E+00 0. -1.
<mgrwt>
<rscale>  1 0.30000000E+03</rscale>
<asrwt>0</asrwt>
<pdfrwt beam="1">  1        3 0.11591806E+00 0.30000000E+03</pdfrwt>
<pdfrwt beam="2">0</pdfrwt>
<totfact> 0.25784094E+00</totfact>
</mgrwt>
</event>
<event>
 6    1  0.1839160E-004  0.3000000E+03  0.7818608E-02  0.1093470E+00
          1   -1    0    0  502    0  0.00000000000E+00  0.00000000000E+00  0.32276118674E+02  0.32276118674E+02  0.00000000000E+00 0.  1.
         13   -1    0    0    0    0 -0.00000000000E+00 -0.00000000000E+00 -0.10000000000E+04  0.10000000000E+04  0.00000000000E+00 0.  1.
    9000005    2    1    2  501    0  0.12013391172E+02  0.69403789118E+01 -0.96646539752E+03  0.10183450667E+04  0.32059135968E+03 0.  0.
         13    1    3    3    0    0 -0.67325517251E+02 -0.13697240151E+03 -0.54524237759E+03  0.56620086044E+03  0.00000000000E+00 0.  1.
          3    1    3    3  501    0  0.79338908423E+02  0.14391278042E+03 -0.42122301993E+03  0.45214420628E+03  0.00000000000E+00 0.  1.
         21    1    1    2  502  501 -0.12013391172E+02 -0.69403789118E+01 -0.12584838098E+01  0.13931051948E+02  0.00000000000E+00 0.  1.
<mgrwt>
<rscale>  1 0.30000000E+03</rscale>
<asrwt>0</asrwt>
<pdfrwt beam="1">  1        1 0.11736795E+00 0.30000000E+03</pdfrwt>
<pdfrwt beam="2">0</pdfrwt>
<totfact> 0.26907864E+01</totfact>
</mgrwt>
</event>
<event>
 6    1  0.1839160E-004  0.3000000E+03  0.7818608E-02  0.1093470E+00
          1   -1    0    0  502    0  0.00000000000E+00  0.00000000000E+00  0.29767116734E+02  0.29767116734E+02  0.00000000000E+00 0.  1.
         13   -1    0    0    0    0 -0.00000000000E+00 -0.00000000000E+00 -0.10000000000E+04  0.10000000000E+04  0.00000000000E+00 0.  1.
    9000005    2    1    2  501    0  0.12838502089E+01  0.99683569090E+01 -0.97117997344E+03  0.10196719005E+04  0.31054665909E+03 0.  0.
         13    1    3    3    0    0 -0.60567852927E+02 -0.58576931895E+02 -0.89777701583E+03  0.90172240291E+03  0.00000000000E+00 0.  1.
          3    1    3    3  501    0  0.61851703136E+02  0.68545288804E+02 -0.73402957605E+02  0.11794949760E+03  0.00000000000E+00 0.  1.
         21    1    1    2  502  501 -0.12838502089E+01 -0.99683569090E+01  0.94709017144E+00  0.10095216224E+02  0.00000000000E+00 0.  1.
<mgrwt>
<rscale>  1 0.30000000E+03</rscale>
<asrwt>0</asrwt>
<pdfrwt beam="1">  1        1 0.10824429E+00 0.30000000E+03</pdfrwt>
<pdfrwt beam="2">0</pdfrwt>
<totfact> 0.30437978E+01</totfact>
</mgrwt>
</event>
<event>
 6    1  0.1839160E-004  0.3000000E+03  0.7818608E-02  0.1093470E+00
          1   -1    0    0  502    0  0.00000000000E+00  0.00000000000E+00  0.46091965144E+02  0.46091965144E+02  0.00000000000E+00 0.  1.
         13   -1    0    0    0    0 -0.00000000000E+00 -0.00000000000E+00 -0.10000000000E+04  0.10000000000E+04  0.00000000000E+00 0.  1.
    9000005    2    1    2  501    0 -0.13742429236E+02 -0.17435530075E+01 -0.96971366419E+03  0.10250750135E+04  0.33202755670E+03 0.  0.
         13    1    3    3    0    0  0.99714902781E+02  0.10594785426E+03 -0.68438577204E+03  0.69967985152E+03  0.00000000000E+00 0.  1.
          1    1    3    3  501    0 -0.11345733202E+03 -0.10769140726E+03 -0.28532789216E+03  0.32539516196E+03  0.00000000000E+00 0.  1.
         21    1    1    2  502  501  0.13742429236E+02  0.17435530075E+01  0.15805629336E+02  0.21016951661E+02  0.00000000000E+00 0.  1.
<mgrwt>
<rscale>  1 0.30000000E+03</rscale>
<asrwt>0</asrwt>
<pdfrwt beam="1">  1        1 0.16760750E+00 0.30000000E+03</pdfrwt>
<pdfrwt beam="2">0</pdfrwt>
<totfact> 0.14677775E+01</totfact>
</mgrwt>
</event>
<event>
 6    1  0.1839160E-004  0.3000000E+03  0.7818608E-02  0.1093470E+00
          3   -1    0    0  502    0  0.00000000000E+00  0.00000000000E+00  0.31462503058E+02  0.31462503058E+02  0.00000000000E+00 0.  1.
         13   -1    0    0    0    0 -0.00000000000E+00 -0.00000000000E+00 -0.10000000000E+04  0.10000000000E+04  0.00000000000E+00 0.  1.
    9000005    2    1    2  501    0 -0.81174671769E+01  0.15663415334E+02 -0.95024585138E+03  0.10060495113E+04  0.32993515309E+03 0.  0.
         13    1    3    3    0    0  0.13316232188E+03  0.96544249192E+02 -0.54665288890E+03  0.57086108377E+03  0.00000000000E+00 0.  1.
          3    1    3    3  501    0 -0.14127978906E+03 -0.80880833857E+02 -0.40359296248E+03  0.43518842752E+03  0.00000000000E+00 0.  1.
         21    1    1    2  502  501  0.81174671769E+01 -0.15663415334E+02 -0.18291645558E+02  0.25412991767E+02  0.00000000000E+00 0. -1.
<mgrwt>
<rscale>  1 0.30000000E+03</rscale>
<asrwt>0</asrwt>
<pdfrwt beam="1">  1        3 0.11440934E+00 0.30000000E+03</pdfrwt>
<pdfrwt beam="2">0</pdfrwt>
<totfact> 0.26834901E+00</totfact>
</mgrwt>
</event>
<event>
 6    1  0.1839160E-004  0.3000000E+03  0.7818608E-02  0.1093470E+00
          1   -1    0    0  502    0  0.00000000000E+00  0.00000000000E+00  0.35978399996E+02  0.35978399996E+02  0.00000000000E+00 0.  1.
         13   -1    0    0    0    0 -0.00000000000E+00 -0.00000000000E+00 -0.10000000000E+04  0.10000000000E+04  0.00000000000E+00 0.  1.
    9000005    2    1    2  501    0 -0.24249825629E+02 -0.19807519474E+02 -0.94741000490E+03  0.10005335560E+04  0.32015822263E+03 0.  0.
         13    1    3    3    0    0 -0.10248098695E+02  0.12806586255E+02 -0.96201399447E+03  0.96215381189E+03  0.00000000000E+00 0.  1.
          3    1    3    3  501    0 -0.14001726935E+02 -0.32614105729E+02  0.14603989574E+02  0.38379744152E+02  0.00000000000E+00 0.  1.
         21    1    1    2  502  501  0.24249825629E+02  0.19807519474E+02 -0.16611595105E+02  0.35444843951E+02  0.00000000000E+00 0.  1.
<mgrwt>
<rscale>  1 0.30000000E+03</rscale>
<asrwt>0</asrwt>
<pdfrwt beam="1">  1        1 0.13083082E+00 0.30000000E+03</pdfrwt>
<pdfrwt beam="2">0</pdfrwt>
<totfact> 0.22643065E+01</totfact>
</mgrwt>
</event>
<event>
 6    1  0.1839160E-004  0.3000000E+03  0.7818608E-02  0.1093470E+00
          1   -1    0    0  502    0  0.00000000000E+00  0.00000000000E+00  0.50822243701E+02  0.50822243701E+02  0.00000000000E+00 0.  1.
         13   -1    0    0    0    0 -0.00000000000E+00 -0.00000000000E+00 -0.10000000000E+04  0.10000000000E+04  0.00000000000E+00 0.  1.
    9000005    2    1    2  501    0 -0.13315734630E+02 -0.16458278442E+02 -0.96861688854E+03  0.10220809219E+04  0.32554961276E+03 0.  0.
         13    1    3    3    0    0 -0.14513416928E+03  0.37282533049E+02 -0.26705588337E+03  0.30622338122E+03  0.00000000000E+00 0.  1.
          1    1    3    3  501    0  0.13181843465E+03 -0.53740811491E+02 -0.70156100517E+03  0.71585754065E+03  0.00000000000E+00 0.  1.
         21    1    1    2  502  501  0.13315734630E+02  0.16458278442E+02  0.19439132244E+02  0.28741321828E+02  0.00000000000E+00 0.  1.
<mgrwt>
<rscale>  1 0.30000000E+03</rscale>
<asrwt>0</asrwt>
<pdfrwt beam="1">  1        1 0.18480855E+00 0.30000000E+03</pdfrwt>
<pdfrwt beam="2">0</pdfrwt>
<totfact> 0.12110027E+01</totfact>
</mgrwt>
</event>
<event>
 6    1  0.1839160E-004  0.3000000E+03  0.7818608E-02  0.1093470E+00
          1   -1    0    0  502    0  0.00000000000E+00  0.00000000000E+00  0.29099498804E+02  0.29099498804E+02  0.00000000000E+00 0.  1.
         13   -1    0    0    0    0 -0.00000000000E+00 -0.00000000000E+00 -0.10000000000E+04  0.10000000000E+04  0.00000000000E+00 0.  1.
    9000005    2    1    2  501    0  0.39715147730E+01 -0.91254920930E+01 -0.97051923630E+03  0.10191399356E+04  0.31086906062E+03 0.  0.
         13    1    3    3    0    0  0.82416886578E+02  0.42693759773E+01 -0.92252062176E+03  0.92620465792E+03  0.00000000000E+00 0.  1.
          1    1    3    3  501    0 -0.78445371805E+02 -0.13394868070E+02 -0.47998614532E+02  0.92935277722E+02  0.00000000000E+00 0.  1.
         21    1    1    2  502  501 -0.39715147730E+01  0.91254920930E+01 -0.38126489846E+00  0.99595631658E+01  0.00000000000E+00 0. -1.
<mgrwt>
<rscale>  1 0.30000000E+03</rscale>
<asrwt>0</asrwt>
<pdfrwt beam="1">  1        1 0.10581658E+00 0.30000000E+03</pdfrwt>
<pdfrwt beam="2">0</pdfrwt>
<totfact> 0.31487862E+01</totfact>
</mgrwt>
</event>
<event>
 6    1  0.1839160E-004  0.3000000E+03  0.7818608E-02  0.1093470E+00
          1   -1    0    0  502    0  0.00000000000E+00  0.00000000000E+00  0.99278024683E+02  0.99278024683E+02  0.00000000000E+00 0.  1.
         13   -1    0    0    0    0 -0.00000000000E+00 -0.00000000000E+00 -0.10000000000E+04  0.10000000000E+04  0.00000000000E+00 0.  1.
    9000005    2    1    2  501    0 -0.65884259850E+01  0.11594898749E+02 -0.95614346596E+03  0.10422745980E+04  0.41466632491E+03 0.  0.
         13    1    3    3    0    0  0.55132720170E+02  0.20109210347E+03 -0.58430188120E+03  0.62039208512E+03  0.00000000000E+00 0.  1.
          3    1    3    3  501    0 -0.61721146155E+02 -0.18949720472E+03 -0.37184158476E+03  0.42188251283E+03  0.00000000000E+00 0.  1.
         21    1    1    2  502  501  0.65884259850E+01 -0.11594898749E+02  0.55421490641E+02  0.57003426728E+02  0.00000000000E+00 0.  1.
<mgrwt>
<rscale>  1 0.30000000E+03</rscale>
<asrwt>0</asrwt>
<pdfrwt beam="1">  1        1 0.36101176E+00 0.30000000E+03</pdfrwt>
<pdfrwt beam="2">0</pdfrwt>
<totfact> 0.17247587E+00</totfact>
</mgrwt>
</event>
<event>
 6    1  0.1839160E-004  0.3000000E+03  0.7818608E-02  0.1093470E+00
          1   -1    0    0  502    0  0.00000000000E+00  0.00000000000E+00  0.30086077217E+02  0.30086077217E+02  0.00000000000E+00 0.  1.
         13   -1    0    0    0    0 -0.00000000000E+00 -0.00000000000E+00 -0.10000000000E+04  0.10000000000E+04  0.00000000000E+00 0.  1.
    9000005    2    1    2  501    0 -0.13284636441E+02  0.15599931379E+02 -0.82356414220E+03  0.88230888784E+03  0.31589751157E+03 0.  0.
         13    1    3    3    0    0 -0.16359551474E+03 -0.36863767169E+01 -0.46857967569E+03  0.49633052928E+03  0.00000000000E+00 0.  1.
          3    1    3    3  501    0  0.15031087830E+03  0.19286308096E+02 -0.35498446651E+03  0.38597835856E+03  0.00000000000E+00 0.  1.
         21    1    1    2  502  501  0.13284636441E+02 -0.15599931379E+02 -0.14634978058E+03  0.14777718938E+03  0.00000000000E+00 0. -1.
<mgrwt>
<rscale>  1 0.30000000E+03</rscale>
<asrwt>0</asrwt>
<pdfrwt beam="1">  1        1 0.10940415E+00 0.30000000E+03</pdfrwt>
<pdfrwt beam="2">0</pdfrwt>
<totfact> 0.29954015E+01</totfact>
</mgrwt>
</event>
<event>
 6    1  0.1839160E-004  0.3000000E+03  0.7818608E-02  0.1093470E+00
          1   -1    0    0  502    0  0.00000000000E+00  0.00000000000E+00  0.58360762390E+02  0.58360762390E+02  0.00000000000E+00 0.  1.
         13   -1    0    0    0    0 -0.00000000000E+00 -0.00000000000E+00 -0.10000000000E+04  0.10000000000E+04  0.00000000000E+00 0.  1.
    9000005    2    1    2  501    0 -0.41558703632E+02  0.80796456960E+01 -0.95789300627E+03  0.10130111040E+04  0.32686400657E+03 0.  0.
         13    1    3    3    0    0 -0.16932945121E+03 -0.55945641769E+02 -0.64172544679E+03  0.66604348727E+03  0.00000000000E+00 0.  1.
          1    1    3    3  501    0  0.12777074758E+03  0.64025287465E+02 -0.31616755949E+03  0.34696761671E+03  0.00000000000E+00 0.  1.
         21    1    1    2  502  501  0.41558703632E+02 -0.80796456960E+01  0.16253768665E+02  0.45349658411E+02  0.00000000000E+00 0.  1.
<mgrwt>
<rscale>  1 0.30000000E+03</rscale>
<asrwt>0</asrwt>
<pdfrwt beam="1">  1        1 0.21222140E+00 0.30000000E+03</pdfrwt>
<pdfrwt beam="2">0</pdfrwt>
<totfact> 0.89666981E+00</totfact>
</mgrwt>
</event>
<event>
 6    1  0.1839160E-004  0.3000000E+03  0.7818608E-02  0.1093470E+00
          1   -1    0    0  502    0  0.00000000000E+00  0.00000000000E+00  0.31972451949E+02  0.31972451949E+02  0.00000000000E+00 0.  1.
         13   -1    0    0    0    0 -0.00000000000E+00 -0.00000000000E+00 -0.10000000000E+04  0.10000000000E+04  0.00000000000E+00 0.  1.
    9000005    2    1    2  501    0 -0.13834511863E+01  0.12160518315E+02 -0.97160034091E+03  0.10192226680E+04  0.30766513011E+03 0.  0.
         13    1    3    3    0    0 -0.65526643750E+02 -0.11436370072E+03 -0.70516481379E+03  0.71737731473E+03  0.00000000000E+00 0.  1.
          1    1    3    3  501    0  0.64143192564E+02  0.12652421903E+03 -0.26643552712E+03  0.30184535323E+03  0.00000000000E+00 0.  1.
         21    1    1    2  502  501  0.13834511863E+01 -0.12160518315E+02  0.35727928621E+01  0.12749783987E+02  0.00000000000E+00 0. -1.
<mgrwt>
<rscale>  1 0.30000000E+03</rscale>
<asrwt>0</asrwt>
<pdfrwt beam="1">  1        1 0.11626371E+00 0.30000000E+03</pdfrwt>
<pdfrwt beam="2">0</pdfrwt>
<totfact> 0.27303448E+01</totfact>
</mgrwt>
</event>
<event>
 6    1  0.1839160E-004  0.3000000E+03  0.7818608E-02  0.1093470E+00
          1   -1    0    0  502    0  0.00000000000E+00  0.00000000000E+00  0.28743004536E+02  0.28743004536E+02  0.00000000000E+00 0.  1.
         13   -1    0    0    0    0 -0.00000000000E+00 -0.00000000000E+00 -0.10000000000E+04  0.10000000000E+04  0.00000000000E+00 0.  1.
    9000005    2    1    2  501    0 -0.20134906904E+02  0.15830883520E+02 -0.93752455269E+03  0.98638844109E+03  0.30553860390E+03 0.  0.
         13    1    3    3    0    0 -0.65121492487E+02 -0.47093707139E+02 -0.48211082496E+02  0.93717311694E+02  0.00000000000E+00 0.  1.
          1    1    3    3  501    0  0.44986585583E+02  0.62924590659E+02 -0.88931347019E+03  0.89267112940E+03  0.00000000000E+00 0.  1.
         21    1    1    2  502  501  0.20134906904E+02 -0.15830883520E+02 -0.33732442775E+02  0.42354563445E+02  0.00000000000E+00 0. -1.
<mgrwt>
<rscale>  1 0.30000000E+03</rscale>
<asrwt>0</asrwt>
<pdfrwt beam="1">  1        1 0.10452024E+00 0.30000000E+03</pdfrwt>
<pdfrwt beam="2">0</pdfrwt>
<totfact> 0.32069952E+01</totfact>
</mgrwt>
</event>
<event>
 6    1  0.1839160E-004  0.3000000E+03  0.7818608E-02  0.1093470E+00
          1   -1    0    0  502    0  0.00000000000E+00  0.00000000000E+00  0.50076543091E+02  0.50076543091E+02  0.00000000000E+00 0.  1.
         13   -1    0    0    0    0 -0.00000000000E+00 -0.00000000000E+00 -0.10000000000E+04  0.10000000000E+04  0.00000000000E+00 0.  1.
    9000005    2    1    2  501    0  0.54822239165E+02  0.27012457193E+02 -0.93180991527E+03  0.98633290701E+03  0.31756532319E+03 0.  0.
         13    1    3    3    0    0  0.11751486623E+03  0.14473701012E+03 -0.61367948007E+03  0.64137434478E+03  0.00000000000E+00 0.  1.
          3    1    3    3  501    0 -0.62692627069E+02 -0.11772455293E+03 -0.31813043520E+03  0.34495856222E+03  0.00000000000E+00 0.  1.
         21    1    1    2  502  501 -0.54822239165E+02 -0.27012457193E+02 -0.18113541639E+02  0.63743636085E+02  0.00000000000E+00 0.  1.
<mgrwt>
<rscale>  1 0.30000000E+03</rscale>
<asrwt>0</asrwt>
<pdfrwt beam="1">  1        1 0.18209690E+00 0.30000000E+03</pdfrwt>
<pdfrwt beam="2">0</pdfrwt>
<totfact> 0.12479900E+01</totfact>
</mgrwt>
</event>
<event>
 6    1  0.1839160E-004  0.3000000E+03  0.7818608E-02  0.1093470E+00
          1   -1    0    0  502    0  0.00000000000E+00  0.00000000000E+00  0.30165166304E+02  0.30165166304E+02  0.00000000000E+00 0.  1.
         13   -1    0    0    0    0 -0.00000000000E+00 -0.00000000000E+00 -0.10000000000E+04  0.10000000000E+04  0.00000000000E+00 0.  1.
    9000005    2    1    2  501    0  0.39748719705E+01 -0.16647763166E+02 -0.90097708069E+03  0.95921209889E+03  0.32868708997E+03 0.  0.
         13    1    3    3    0    0  0.12266207593E+03  0.42842991101E+02 -0.73633707244E+03  0.74771237184E+03  0.00000000000E+00 0.  1.
          1    1    3    3  501    0 -0.11868720396E+03 -0.59490754267E+02 -0.16464000825E+03  0.21149972706E+03  0.00000000000E+00 0.  1.
         21    1    1    2  502  501 -0.39748719705E+01  0.16647763166E+02 -0.68857753008E+02  0.70953067410E+02  0.00000000000E+00 0. -1.
<mgrwt>
<rscale>  1 0.30000000E+03</rscale>
<asrwt>0</asrwt>
<pdfrwt beam="1">  1        1 0.10969175E+00 0.30000000E+03</pdfrwt>
<pdfrwt beam="2">0</pdfrwt>
<totfact> 0.29835709E+01</totfact>
</mgrwt>
</event>
<event>
 6    1  0.1839160E-004  0.3000000E+03  0.7818608E-02  0.1093470E+00
          1   -1    0    0  502    0  0.00000000000E+00  0.00000000000E+00  0.47017036596E+02  0.47017036596E+02  0.00000000000E+00 0.  1.
         13   -1    0    0    0    0 -0.00000000000E+00 -0.00000000000E+00 -0.10000000000E+04  0.10000000000E+04  0.00000000000E+00 0.  1.
    9000005    2    1    2  501    0 -0.33046687377E+02 -0.25484828074E+02 -0.95116793786E+03  0.10052455831E+04  0.32257817090E+03 0.  0.
         13    1    3    3    0    0 -0.21851418492E+02  0.84674230821E+02 -0.57307450549E+02  0.10455311446E+03  0.00000000000E+00 0.  1.
          3    1    3    3  501    0 -0.11195268885E+02 -0.11015905890E+03 -0.89386048731E+03  0.90069246865E+03  0.00000000000E+00 0.  1.
         21    1    1    2  502  501  0.33046687377E+02  0.25484828074E+02 -0.18150255415E+01  0.41771453485E+02  0.00000000000E+00 0. -1.
<mgrwt>
<rscale>  1 0.30000000E+03</rscale>
<asrwt>0</asrwt>
<pdfrwt beam="1">  1        1 0.17097140E+00 0.30000000E+03</pdfrwt>
<pdfrwt beam="2">0</pdfrwt>
<totfact> 0.14131961E+01</totfact>
</mgrwt>
</event>
<event>
 6    1  0.1839160E-004  0.3000000E+03  0.7818608E-02  0.1093470E+00
          1   -1    0    0  502    0  0.00000000000E+00  0.00000000000E+00  0.40868815292E+02  0.40868815292E+02  0.00000000000E+00 0.  1.
         13   -1    0    0    0    0 -0.00000000000E+00 -0.00000000000E+00 -0.10000000000E+04  0.10000000000E+04  0.00000000000E+00 0.  1.
    9000005    2    1    2  501    0 -0.18645033986E+02 -0.25266570461E+02 -0.95294520744E+03  0.10088640783E+04  0.32972128111E+03 0.  0.
         13    1    3    3    0    0 -0.11487625718E+03  0.82441748262E+02 -0.72754304296E+03  0.74115590511E+03  0.00000000000E+00 0.  1.
          3    1    3    3  501    0  0.96231223191E+02 -0.10770831872E+03 -0.22540216448E+03  0.26770817319E+03  0.00000000000E+00 0.  1.
         21    1    1    2  502  501  0.18645033986E+02  0.25266570461E+02 -0.61859772636E+01  0.32004736992E+02  0.00000000000E+00 0.  1.
<mgrwt>
<rscale>  1 0.30000000E+03</rscale>
<asrwt>0</asrwt>
<pdfrwt beam="1">  1        1 0.14861419E+00 0.30000000E+03</pdfrwt>
<pdfrwt beam="2">0</pdfrwt>
<totfact> 0.18259402E+01</totfact>
</mgrwt>
</event>
<event>
 6    1  0.1839160E-004  0.3000000E+03  0.7818608E-02  0.1093470E+00
          1   -1    0    0  502    0  0.00000000000E+00  0.00000000000E+00  0.71020853606E+02  0.71020853606E+02  0.00000000000E+00 0.  1.
         13   -1    0    0    0    0 -0.00000000000E+00 -0.00000000000E+00 -0.10000000000E+04  0.10000000000E+04  0.00000000000E+00 0.  1.
    9000005    2    1    2  501    0  0.30763486464E+01  0.95506811872E+01 -0.97377589489E+03  0.10251141209E+04  0.32018555242E+03 0.  0.
         13    1    3    3    0    0 -0.54953039491E+02  0.64640256028E+02 -0.51239936127E+02  0.99114733027E+02  0.00000000000E+00 0.  1.
          3    1    3    3  501    0  0.58029388137E+02 -0.55089574841E+02 -0.92253595876E+03  0.92599938788E+03  0.00000000000E+00 0.  1.
         21    1    1    2  502  501 -0.30763486464E+01 -0.95506811872E+01  0.44796748491E+02  0.45906732703E+02  0.00000000000E+00 0.  1.
<mgrwt>
<rscale>  1 0.30000000E+03</rscale>
<asrwt>0</asrwt>
<pdfrwt beam="1">  1        1 0.25825819E+00 0.30000000E+03</pdfrwt>
<pdfrwt beam="2">0</pdfrwt>
<totfact> 0.54599884E+00</totfact>
</mgrwt>
</event>
<event>
 6    1  0.1839160E-004  0.3000000E+03  0.7818608E-02  0.1093470E+00
          1   -1    0    0  502    0  0.00000000000E+00  0.00000000000E+00  0.30340779836E+02  0.30340779836E+02  0.00000000000E+00 0.  1.
         13   -1    0    0    0    0 -0.00000000000E+00 -0.00000000000E+00 -0.10000000000E+04  0.10000000000E+04  0.00000000000E+00 0.  1.
    9000005    2    1    2  501    0 -0.39267028460E+01 -0.12992296400E+02 -0.94978400588E+03  0.10062733142E+04  0.33213266358E+03 0.  0.
         13    1    3    3    0    0  0.38079153871E+02 -0.79652601219E+02 -0.46924540576E+02  0.99982355187E+02  0.00000000000E+00 0.  1.
          1    1    3    3  501    0 -0.42005856717E+02  0.66660304819E+02 -0.90285946530E+03  0.90629095898E+03  0.00000000000E+00 0.  1.
         21    1    1    2  502  501  0.39267028460E+01  0.12992296400E+02 -0.19875214287E+02  0.24067465673E+02  0.00000000000E+00 0.  1.
<mgrwt>
<rscale>  1 0.30000000E+03</rscale>
<asrwt>0</asrwt>
<pdfrwt beam="1">  1        1 0.11033034E+00 0.30000000E+03</pdfrwt>
<pdfrwt beam="2">0</pdfrwt>
<totfact> 0.29575380E+01</totfact>
</mgrwt>
</event>
<event>
 6    1  0.1839160E-004  0.3000000E+03  0.7818608E-02  0.1093470E+00
          1   -1    0    0  502    0  0.00000000000E+00  0.00000000000E+00  0.39266532111E+02  0.39266532111E+02  0.00000000000E+00 0.  1.
         13   -1    0    0    0    0 -0.00000000000E+00 -0.00000000000E+00 -0.10000000000E+04  0.10000000000E+04  0.00000000000E+00 0.  1.
    9000005    2    1    2  501    0  0.14864930286E+02 -0.19128438182E+02 -0.97484918062E+03  0.10112287603E+04  0.26770472073E+03 0.  0.
         13    1    3    3    0    0 -0.50649822467E+02  0.57708405942E+02 -0.80684437997E+02  0.11138062294E+03  0.00000000000E+00 0.  1.
          3    1    3    3  501    0  0.65514752753E+02 -0.76836844125E+02 -0.89416474262E+03  0.89984813740E+03  0.00000000000E+00 0.  1.
         21    1    1    2  502  501 -0.14864930286E+02  0.19128438182E+02  0.14115712728E+02  0.28037771765E+02  0.00000000000E+00 0.  1.
<mgrwt>
<rscale>  1 0.30000000E+03</rscale>
<asrwt>0</asrwt>
<pdfrwt beam="1">  1        1 0.14278769E+00 0.30000000E+03</pdfrwt>
<pdfrwt beam="2">0</pdfrwt>
<totfact> 0.19565566E+01</totfact>
</mgrwt>
</event>
<event>
 6    1  0.1839160E-004  0.3000000E+03  0.7818608E-02  0.1093470E+00
          1   -1    0    0  502    0  0.00000000000E+00  0.00000000000E+00  0.30911114850E+02  0.30911114850E+02  0.00000000000E+00 0.  1.
         13   -1    0    0    0    0 -0.00000000000E+00 -0.00000000000E+00 -0.10000000000E+04  0.10000000000E+04  0.00000000000E+00 0.  1.
    9000005    2    1    2  501    0  0.79821658331E+01 -0.13146426535E+02 -0.95610697735E+03  0.10107846787E+04  0.32757986972E+03 0.  0.
         13    1    3    3    0    0 -0.23955572485E+02 -0.16488879052E+03 -0.59274163430E+03  0.61571489158E+03  0.00000000000E+00 0.  1.
          3    1    3    3  501    0  0.31937738318E+02  0.15174236398E+03 -0.36336534306E+03  0.39506978712E+03  0.00000000000E+00 0.  1.
         21    1    1    2  502  501 -0.79821658331E+01  0.13146426535E+02 -0.12981907796E+02  0.20126436149E+02  0.00000000000E+00 0. -1.
<mgrwt>
<rscale>  1 0.30000000E+03</rscale>
<asrwt>0</asrwt>
<pdfrwt beam="1">  1        1 0.11240429E+00 0.30000000E+03</pdfrwt>
<pdfrwt beam="2">0</pdfrwt>
<totfact> 0.28751755E+01</totfact>
</mgrwt>
</event>
<event>
 6    1  0.1839160E-004  0.3000000E+03  0.7818608E-02  0.1093470E+00
          1   -1    0    0  502    0  0.00000000000E+00  0.00000000000E+00  0.80530296356E+02  0.80530296356E+02  0.00000000000E+00 0.  1.
         13   -1    0    0    0    0 -0.00000000000E+00 -0.00000000000E+00 -0.10000000000E+04  0.10000000000E+04  0.00000000000E+00 0.  1.
    9000005    2    1    2  501    0  0.31110761539E+02  0.49674442632E+02 -0.95740504230E+03  0.10107125361E+04  0.31855923434E+03 0.  0.
         13    1    3    3    0    0 -0.11039856770E+03  0.92237968387E+02 -0.69338651193E+03  0.70815290827E+03  0.00000000000E+00 0.  1.
          3    1    3    3  501    0  0.14150932924E+03 -0.42563525755E+02 -0.26401853037E+03  0.30255962778E+03  0.00000000000E+00 0.  1.
         21    1    1    2  502  501 -0.31110761539E+02 -0.49674442632E+02  0.37935338656E+02  0.69817760299E+02  0.00000000000E+00 0.  1.
<mgrwt>
<rscale>  1 0.30000000E+03</rscale>
<asrwt>0</asrwt>
<pdfrwt beam="1">  1        1 0.29283806E+00 0.30000000E+03</pdfrwt>
<pdfrwt beam="2">0</pdfrwt>
<totfact> 0.37566292E+00</totfact>
</mgrwt>
</event>
<event>
 6    1  0.1839160E-004  0.3000000E+03  0.7818608E-02  0.1093470E+00
          1   -1    0    0  502    0  0.00000000000E+00  0.00000000000E+00  0.35635978456E+02  0.35635978456E+02  0.00000000000E+00 0.  1.
         13   -1    0    0    0    0 -0.00000000000E+00 -0.00000000000E+00 -0.10000000000E+04  0.10000000000E+04  0.00000000000E+00 0.  1.
    9000005    2    1    2  501    0  0.34723617161E+02  0.14695222263E+02 -0.92606886465E+03  0.98189401918E+03  0.32417687096E+03 0.  0.
         13    1    3    3    0    0 -0.56086671722E+02 -0.48836953996E+02 -0.83539782504E+03  0.83870154936E+03  0.00000000000E+00 0.  1.
          1    1    3    3  501    0  0.90810288883E+02  0.63532176259E+02 -0.90671039618E+02  0.14319246982E+03  0.00000000000E+00 0.  1.
         21    1    1    2  502  501 -0.34723617161E+02 -0.14695222263E+02 -0.38295156889E+02  0.53741959280E+02  0.00000000000E+00 0.  1.
<mgrwt>
<rscale>  1 0.30000000E+03</rscale>
<asrwt>0</asrwt>
<pdfrwt beam="1">  1        1 0.12958565E+00 0.30000000E+03</pdfrwt>
<pdfrwt beam="2">0</pdfrwt>
<totfact> 0.22999038E+01</totfact>
</mgrwt>
</event>
<event>
 6    1  0.1839160E-004  0.3000000E+03  0.7818608E-02  0.1093470E+00
          1   -1    0    0  502    0  0.00000000000E+00  0.00000000000E+00  0.88050353028E+02  0.88050353028E+02  0.00000000000E+00 0.  1.
         13   -1    0    0    0    0 -0.00000000000E+00 -0.00000000000E+00 -0.10000000000E+04  0.10000000000E+04  0.00000000000E+00 0.  1.
    9000005    2    1    2  501    0 -0.16624680722E+02  0.43360960275E+02 -0.96314561986E+03  0.10189303087E+04  0.32926119737E+03 0.  0.
         13    1    3    3    0    0 -0.13490325599E+03  0.96244028429E+02 -0.76095102885E+03  0.77878640832E+03  0.00000000000E+00 0.  1.
          1    1    3    3  501    0  0.11827857527E+03 -0.52883068153E+02 -0.20219459101E+03  0.24014390040E+03  0.00000000000E+00 0.  1.
         21    1    1    2  502  501  0.16624680722E+02 -0.43360960275E+02  0.51195972887E+02  0.69120044307E+02  0.00000000000E+00 0.  1.
<mgrwt>
<rscale>  1 0.30000000E+03</rscale>
<asrwt>0</asrwt>
<pdfrwt beam="1">  1        1 0.32018378E+00 0.30000000E+03</pdfrwt>
<pdfrwt beam="2">0</pdfrwt>
<totfact> 0.27788228E+00</totfact>
</mgrwt>
</event>
<event>
 6    1  0.1839160E-004  0.3000000E+03  0.7818608E-02  0.1093470E+00
          1   -1    0    0  502    0  0.00000000000E+00  0.00000000000E+00  0.37331338804E+02  0.37331338804E+02  0.00000000000E+00 0.  1.
         13   -1    0    0    0    0 -0.00000000000E+00 -0.00000000000E+00 -0.10000000000E+04  0.10000000000E+04  0.00000000000E+00 0.  1.
    9000005    2    1    2  501    0  0.24362958867E+02 -0.21699457692E+02 -0.94644135749E+03  0.10008930950E+04  0.32399278409E+03 0.  0.
         13    1    3    3    0    0 -0.12946292942E+03 -0.86645981022E+02 -0.52340794055E+03  0.54609893641E+03  0.00000000000E+00 0.  1.
          1    1    3    3  501    0  0.15382588829E+03  0.64946523330E+02 -0.42303341694E+03  0.45479415855E+03  0.00000000000E+00 0.  1.
         21    1    1    2  502  501 -0.24362958867E+02  0.21699457692E+02 -0.16227303704E+02  0.36438243843E+02  0.00000000000E+00 0.  1.
<mgrwt>
<rscale>  1 0.30000000E+03</rscale>
<asrwt>0</asrwt>
<pdfrwt beam="1">  1        1 0.13575061E+00 0.30000000E+03</pdfrwt>
<pdfrwt beam="2">0</pdfrwt>
<totfact> 0.21305302E+01</totfact>
</mgrwt>
</event>
<event>
 6    1  0.1839160E-004  0.3000000E+03  0.7818608E-02  0.1093470E+00
          1   -1    0    0  502    0  0.00000000000E+00  0.00000000000E+00  0.77439508584E+02  0.77439508584E+02  0.00000000000E+00 0.  1.
         13   -1    0    0    0    0 -0.00000000000E+00 -0.00000000000E+00 -0.10000000000E+04  0.10000000000E+04  0.00000000000E+00 0.  1.
    9000005    2    1    2  501    0 -0.45027590228E+02 -0.10678409633E+03 -0.76157117719E+03  0.87907649185E+03  0.42350264875E+03 0.  0.
         13    1    3    3    0    0 -0.17722686666E+03 -0.17218795137E+03 -0.27067397863E+03  0.36650028046E+03  0.00000000000E+00 0.  1.
          1    1    3    3  501    0  0.13219927643E+03  0.65403855045E+02 -0.49089719855E+03  0.51257621140E+03  0.00000000000E+00 0.  1.
         21    1    1    2  502  501  0.45027590228E+02  0.10678409633E+03 -0.16098931423E+03  0.19836301673E+03  0.00000000000E+00 0.  1.
<mgrwt>
<rscale>  1 0.30000000E+03</rscale>
<asrwt>0</asrwt>
<pdfrwt beam="1">  1        1 0.28159881E+00 0.30000000E+03</pdfrwt>
<pdfrwt beam="2">0</pdfrwt>
<totfact> 0.42442643E+00</totfact>
</mgrwt>
</event>
<event>
 6    1  0.1839160E-004  0.3000000E+03  0.7818608E-02  0.1093470E+00
          1   -1    0    0  502    0  0.00000000000E+00  0.00000000000E+00  0.38855032474E+02  0.38855032474E+02  0.00000000000E+00 0.  1.
         13   -1    0    0    0    0 -0.00000000000E+00 -0.00000000000E+00 -0.10000000000E+04  0.10000000000E+04  0.00000000000E+00 0.  1.
    9000005    2    1    2  501    0  0.57293845728E+01  0.11459031209E+02 -0.96894639993E+03  0.10238551128E+04  0.33054202567E+03 0.  0.
         13    1    3    3    0    0 -0.39785378244E+02 -0.15265814077E+02  0.97677765238E+01  0.43718770107E+02  0.00000000000E+00 0.  1.
          3    1    3    3  501    0  0.45514762816E+02  0.26724845287E+02 -0.97871417646E+03  0.98013634265E+03  0.00000000000E+00 0.  1.
         21    1    1    2  502  501 -0.57293845728E+01 -0.11459031209E+02  0.78014324076E+01  0.14999919715E+02  0.00000000000E+00 0.  1.
<mgrwt>
<rscale>  1 0.30000000E+03</rscale>
<asrwt>0</asrwt>
<pdfrwt beam="1">  1        1 0.14129133E+00 0.30000000E+03</pdfrwt>
<pdfrwt beam="2">0</pdfrwt>
<totfact> 0.19919887E+01</totfact>
</mgrwt>
</event>
<event>
 6    1  0.1839160E-004  0.3000000E+03  0.7818608E-02  0.1093470E+00
          1   -1    0    0  502    0  0.00000000000E+00  0.00000000000E+00  0.51972308270E+02  0.51972308270E+02  0.00000000000E+00 0.  1.
         13   -1    0    0    0    0 -0.00000000000E+00 -0.00000000000E+00 -0.10000000000E+04  0.10000000000E+04  0.00000000000E+00 0.  1.
    9000005    2    1    2  501    0  0.34996343867E+02  0.40648084411E+01 -0.96793872100E+03  0.10115036063E+04  0.29153543732E+03 0.  0.
         13    1    3    3    0    0  0.11731236425E+03 -0.35503547049E+02 -0.86601688428E+03  0.87464732122E+03  0.00000000000E+00 0.  1.
          3    1    3    3  501    0 -0.82316020383E+02  0.39568355490E+02 -0.10192183672E+03  0.13685628509E+03  0.00000000000E+00 0.  1.
         21    1    1    2  502  501 -0.34996343867E+02 -0.40648084411E+01  0.19911029272E+02  0.40468701961E+02  0.00000000000E+00 0.  1.
<mgrwt>
<rscale>  1 0.30000000E+03</rscale>
<asrwt>0</asrwt>
<pdfrwt beam="1">  1        1 0.18899061E+00 0.30000000E+03</pdfrwt>
<pdfrwt beam="2">0</pdfrwt>
<totfact> 0.11562285E+01</totfact>
</mgrwt>
</event>
<event>
 6    1  0.1839160E-004  0.3000000E+03  0.7818608E-02  0.1093470E+00
          1   -1    0    0  502    0  0.00000000000E+00  0.00000000000E+00  0.25954886381E+02  0.25954886381E+02  0.00000000000E+00 0.  1.
         13   -1    0    0    0    0 -0.00000000000E+00 -0.00000000000E+00 -0.10000000000E+04  0.10000000000E+04  0.00000000000E+00 0.  1.
    9000005    2    1    2  501    0  0.10390140531E+02  0.27638838633E+01 -0.96205356624E+03  0.10098492575E+04  0.30681079578E+03 0.  0.
         13    1    3    3    0    0  0.93297134636E+02  0.24794062050E+01 -0.77202995173E+02  0.12112309957E+03  0.00000000000E+00 0.  1.
          1    1    3    3  501    0 -0.82906994106E+02  0.28447765836E+00 -0.88485057107E+03  0.88872615789E+03  0.00000000000E+00 0.  1.
         21    1    1    2  502  501 -0.10390140531E+02 -0.27638838633E+01 -0.11991547375E+02  0.16105628914E+02  0.00000000000E+00 0.  1.
<mgrwt>
<rscale>  1 0.30000000E+03</rscale>
<asrwt>0</asrwt>
<pdfrwt beam="1">  1        1 0.94381604E-01 0.30000000E+03</pdfrwt>
<pdfrwt beam="2">0</pdfrwt>
<totfact> 0.37219062E+01</totfact>
</mgrwt>
</event>
<event>
 6    1  0.1839160E-004  0.3000000E+03  0.7818608E-02  0.1093470E+00
          1   -1    0    0  502    0  0.00000000000E+00  0.00000000000E+00  0.30890440520E+02  0.30890440520E+02  0.00000000000E+00 0.  1.
         13   -1    0    0    0    0 -0.00000000000E+00 -0.00000000000E+00 -0.10000000000E+04  0.10000000000E+04  0.00000000000E+00 0.  1.
    9000005    2    1    2  501    0  0.16068284472E+02  0.11189574374E+02 -0.96184304078E+03  0.10100050716E+04  0.30754644078E+03 0.  0.
         13    1    3    3    0    0 -0.75722382804E+01  0.13092127193E+03 -0.20480636762E+03  0.24319409215E+03  0.00000000000E+00 0.  1.
          1    1    3    3  501    0  0.23640522753E+02 -0.11973169756E+03 -0.75703667316E+03  0.76681097946E+03  0.00000000000E+00 0.  1.
         21    1    1    2  502  501 -0.16068284472E+02 -0.11189574374E+02 -0.72665187020E+01  0.20885368913E+02  0.00000000000E+00 0.  1.
<mgrwt>
<rscale>  1 0.30000000E+03</rscale>
<asrwt>0</asrwt>
<pdfrwt beam="1">  1        1 0.11232911E+00 0.30000000E+03</pdfrwt>
<pdfrwt beam="2">0</pdfrwt>
<totfact> 0.28781040E+01</totfact>
</mgrwt>
</event>
<event>
 6    1  0.1839160E-004  0.3000000E+03  0.7818608E-02  0.1093470E+00
          1   -1    0    0  502    0  0.00000000000E+00  0.00000000000E+00  0.42705267913E+02  0.42705267913E+02  0.00000000000E+00 0.  1.
         13   -1    0    0    0    0 -0.00000000000E+00 -0.00000000000E+00 -0.10000000000E+04  0.10000000000E+04  0.00000000000E+00 0.  1.
    9000005    2    1    2  501    0  0.27938592565E+01  0.16821358712E+02 -0.96795402572E+03  0.10225959591E+04  0.32935806655E+03 0.  0.
         13    1    3    3    0    0 -0.21390539723E+02  0.17133241395E+03 -0.47350875949E+03  0.50400684179E+03  0.00000000000E+00 0.  1.
          1    1    3    3  501    0  0.24184398980E+02 -0.15451105523E+03 -0.49444526623E+03  0.51858911736E+03  0.00000000000E+00 0.  1.
         21    1    1    2  502  501 -0.27938592565E+01 -0.16821358712E+02  0.10659293629E+02  0.20109308768E+02  0.00000000000E+00 0.  1.
<mgrwt>
<rscale>  1 0.30000000E+03</rscale>
<asrwt>0</asrwt>
<pdfrwt beam="1">  1        1 0.15529221E+00 0.30000000E+03</pdfrwt>
<pdfrwt beam="2">0</pdfrwt>
<totfact> 0.16892804E+01</totfact>
</mgrwt>
</event>
<event>
 6    1  0.1839160E-004  0.3000000E+03  0.7818608E-02  0.1093470E+00
          1   -1    0    0  502    0  0.00000000000E+00  0.00000000000E+00  0.31076238384E+02  0.31076238384E+02  0.00000000000E+00 0.  1.
         13   -1    0    0    0    0 -0.00000000000E+00 -0.00000000000E+00 -0.10000000000E+04  0.10000000000E+04  0.00000000000E+00 0.  1.
    9000005    2    1    2  501    0  0.12090007212E+02  0.33576418560E+02 -0.87224597793E+03  0.92802218453E+03  0.31486280315E+03 0.  0.
         13    1    3    3    0    0 -0.83943857858E+01  0.11011913281E+03 -0.83172635245E+03  0.83902646828E+03  0.00000000000E+00 0.  1.
          3    1    3    3  501    0  0.20484392998E+02 -0.76542714247E+02 -0.40519625480E+02  0.88995716244E+02  0.00000000000E+00 0.  1.
         21    1    1    2  502  501 -0.12090007212E+02 -0.33576418560E+02 -0.96677783687E+02  0.10305405386E+03  0.00000000000E+00 0.  1.
<mgrwt>
<rscale>  1 0.30000000E+03</rscale>
<asrwt>0</asrwt>
<pdfrwt beam="1">  1        1 0.11300474E+00 0.30000000E+03</pdfrwt>
<pdfrwt beam="2">0</pdfrwt>
<totfact> 0.28519385E+01</totfact>
</mgrwt>
</event>
<event>
 6    1  0.1839160E-004  0.3000000E+03  0.7818608E-02  0.1093470E+00
          1   -1    0    0  502    0  0.00000000000E+00  0.00000000000E+00  0.29047970442E+02  0.29047970442E+02  0.00000000000E+00 0.  1.
         13   -1    0    0    0    0 -0.00000000000E+00 -0.00000000000E+00 -0.10000000000E+04  0.10000000000E+04  0.00000000000E+00 0.  1.
    9000005    2    1    2  501    0  0.97745093131E+01  0.68082152185E+01 -0.96225468442E+03  0.10142988471E+04  0.32050925216E+03 0.  0.
         13    1    3    3    0    0  0.45150231635E+02  0.14189700460E+02 -0.97487332699E+03  0.97602146221E+03  0.00000000000E+00 0.  1.
          3    1    3    3  501    0 -0.35375722322E+02 -0.73814852417E+01  0.12618642569E+02  0.38277384895E+02  0.00000000000E+00 0.  1.
         21    1    1    2  502  501 -0.97745093131E+01 -0.68082152185E+01 -0.86973451339E+01  0.14749123335E+02  0.00000000000E+00 0.  1.
<mgrwt>
<rscale>  1 0.30000000E+03</rscale>
<asrwt>0</asrwt>
<pdfrwt beam="1">  1        1 0.10562921E+00 0.30000000E+03</pdfrwt>
<pdfrwt beam="2">0</pdfrwt>
<totfact> 0.31571049E+01</totfact>
</mgrwt>
</event>
<event>
 6    1  0.1839160E-004  0.3000000E+03  0.7818608E-02  0.1093470E+00
          1   -1    0    0  502    0  0.00000000000E+00  0.00000000000E+00  0.31320720811E+02  0.31320720811E+02  0.00000000000E+00 0.  1.
         13   -1    0    0    0    0 -0.00000000000E+00 -0.00000000000E+00 -0.10000000000E+04  0.10000000000E+04  0.00000000000E+00 0.  1.
    9000005    2    1    2  501    0 -0.19144933057E+02 -0.41192413566E+01 -0.92335878067E+03  0.98195024180E+03  0.33354361474E+03 0.  0.
         13    1    3    3    0    0 -0.61966046884E+02  0.60074372010E+02 -0.39821773407E+02  0.95049959369E+02  0.00000000000E+00 0.  1.
          3    1    3    3  501    0  0.42821113826E+02 -0.64193613367E+02 -0.88353700726E+03  0.88690028244E+03  0.00000000000E+00 0.  1.
         21    1    1    2  502  501  0.19144933057E+02  0.41192413566E+01 -0.45320498522E+02  0.49370479007E+02  0.00000000000E+00 0.  1.
<mgrwt>
<rscale>  1 0.30000000E+03</rscale>
<asrwt>0</asrwt>
<pdfrwt beam="1">  1        1 0.11389377E+00 0.30000000E+03</pdfrwt>
<pdfrwt beam="2">0</pdfrwt>
<totfact> 0.28180227E+01</totfact>
</mgrwt>
</event>
<event>
 6    1  0.1839160E-004  0.3000000E+03  0.7818608E-02  0.1093470E+00
          1   -1    0    0  502    0  0.00000000000E+00  0.00000000000E+00  0.30654601499E+02  0.30654601499E+02  0.00000000000E+00 0.  1.
         13   -1    0    0    0    0 -0.00000000000E+00 -0.00000000000E+00 -0.10000000000E+04  0.10000000000E+04  0.00000000000E+00 0.  1.
    9000005    2    1    2  501    0  0.76857590657E+01  0.13399747593E+02 -0.95958431977E+03  0.10123815945E+04  0.32229769149E+03 0.  0.
         13    1    3    3    0    0 -0.36859192465E+02  0.39819966288E+02 -0.95905440583E+03  0.96058814438E+03  0.00000000000E+00 0.  1.
          3    1    3    3  501    0  0.44544951531E+02 -0.26420218695E+02 -0.52991393776E+00  0.51793450084E+02  0.00000000000E+00 0.  1.
         21    1    1    2  502  501 -0.76857590657E+01 -0.13399747593E+02 -0.97610787297E+01  0.18273007031E+02  0.00000000000E+00 0.  1.
<mgrwt>
<rscale>  1 0.30000000E+03</rscale>
<asrwt>0</asrwt>
<pdfrwt beam="1">  1        1 0.11147151E+00 0.30000000E+03</pdfrwt>
<pdfrwt beam="2">0</pdfrwt>
<totfact> 0.29118124E+01</totfact>
</mgrwt>
</event>
<event>
 6    1  0.1839160E-004  0.3000000E+03  0.7818608E-02  0.1093470E+00
          1   -1    0    0  502    0  0.00000000000E+00  0.00000000000E+00  0.28505942918E+02  0.28505942918E+02  0.00000000000E+00 0.  1.
         13   -1    0    0    0    0 -0.00000000000E+00 -0.00000000000E+00 -0.10000000000E+04  0.10000000000E+04  0.00000000000E+00 0.  1.
    9000005    2    1    2  501    0 -0.19743381951E+02  0.23488734424E+01 -0.95697746716E+03  0.10038878658E+04  0.30263782999E+03 0.  0.
         13    1    3    3    0    0 -0.14373636028E+03 -0.43573903931E+02 -0.32223305214E+03  0.35551788459E+03  0.00000000000E+00 0.  1.
          3    1    3    3  501    0  0.12399297833E+03  0.45922777373E+02 -0.63474441501E+03  0.64836998122E+03  0.00000000000E+00 0.  1.
         21    1    1    2  502  501  0.19743381951E+02 -0.23488734424E+01 -0.14516589926E+02  0.24618077106E+02  0.00000000000E+00 0.  1.
<mgrwt>
<rscale>  1 0.30000000E+03</rscale>
<asrwt>0</asrwt>
<pdfrwt beam="1">  1        1 0.10365819E+00 0.30000000E+03</pdfrwt>
<pdfrwt beam="2">0</pdfrwt>
<totfact> 0.32465700E+01</totfact>
</mgrwt>
</event>
<event>
 6    1  0.1839160E-004  0.3000000E+03  0.7818608E-02  0.1093470E+00
          1   -1    0    0  502    0  0.00000000000E+00  0.00000000000E+00  0.53546454553E+02  0.53546454553E+02  0.00000000000E+00 0.  1.
         13   -1    0    0    0    0 -0.00000000000E+00 -0.00000000000E+00 -0.10000000000E+04  0.10000000000E+04  0.00000000000E+00 0.  1.
    9000005    2    1    2  501    0  0.58115184198E+01 -0.10391420404E+02 -0.97142928146E+03  0.10258780113E+04  0.32955893214E+03 0.  0.
         13    1    3    3    0    0 -0.45626712157E+02 -0.69747752603E+02 -0.42356773839E+02  0.93491401453E+02  0.00000000000E+00 0.  1.
          1    1    3    3  501    0  0.51438230577E+02  0.59356332200E+02 -0.92907250762E+03  0.93238660981E+03  0.00000000000E+00 0.  1.
         21    1    1    2  502  501 -0.58115184198E+01  0.10391420404E+02  0.24975736017E+02  0.27668443287E+02  0.00000000000E+00 0. -1.
<mgrwt>
<rscale>  1 0.30000000E+03</rscale>
<asrwt>0</asrwt>
<pdfrwt beam="1">  1        1 0.19471479E+00 0.30000000E+03</pdfrwt>
<pdfrwt beam="2">0</pdfrwt>
<totfact> 0.10854700E+01</totfact>
</mgrwt>
</event>
<event>
 6    1  0.1839160E-004  0.3000000E+03  0.7818608E-02  0.1093470E+00
          1   -1    0    0  502    0  0.00000000000E+00  0.00000000000E+00  0.93731322433E+02  0.93731322433E+02  0.00000000000E+00 0.  1.
         13   -1    0    0    0    0 -0.00000000000E+00 -0.00000000000E+00 -0.10000000000E+04  0.10000000000E+04  0.00000000000E+00 0.  1.
    9000005    2    1    2  501    0  0.44370977732E+02 -0.14650025813E+03 -0.85372544069E+03  0.93189220158E+03  0.34080029048E+03 0.  0.
         13    1    3    3    0    0 -0.13346040610E+03 -0.68092646136E+02 -0.55994911103E+03  0.57964756136E+03  0.00000000000E+00 0.  1.
          1    1    3    3  501    0  0.17783138383E+03 -0.78407611992E+02 -0.29377632966E+03  0.35224464022E+03  0.00000000000E+00 0.  1.
         21    1    1    2  502  501 -0.44370977732E+02  0.14650025813E+03 -0.52543236878E+02  0.16183912085E+03  0.00000000000E+00 0.  1.
<mgrwt>
<rscale>  1 0.30000000E+03</rscale>
<asrwt>0</asrwt>
<pdfrwt beam="1">  1        1 0.34084189E+00 0.30000000E+03</pdfrwt>
<pdfrwt beam="2">0</pdfrwt>
<totfact> 0.21924866E+00</totfact>
</mgrwt>
</event>
<event>
 6    1  0.1839160E-004  0.3000000E+03  0.7818608E-02  0.1093470E+00
          1   -1    0    0  502    0  0.00000000000E+00  0.00000000000E+00  0.29386623495E+02  0.29386623495E+02  0.00000000000E+00 0.  1.
         13   -1    0    0    0    0 -0.00000000000E+00 -0.00000000000E+00 -0.10000000000E+04  0.10000000000E+04  0.00000000000E+00 0.  1.
    9000005    2    1    2  501    0  0.28065840279E+02 -0.19775779563E+02 -0.93190254420E+03  0.97764397778E+03  0.29354151759E+03 0.  0.
         13    1    3    3    0    0 -0.39531972642E+02  0.91347286823E+02 -0.12241669754E+03  0.15777500280E+03  0.00000000000E+00 0.  1.
          3    1    3    3  501    0  0.67597812920E+02 -0.11112306639E+03 -0.80948584666E+03  0.81986897498E+03  0.00000000000E+00 0.  1.
         21    1    1    2  502  501 -0.28065840279E+02  0.19775779563E+02 -0.38710832301E+02  0.51742645712E+02  0.00000000000E+00 0.  1.
<mgrwt>
<rscale>  1 0.30000000E+03</rscale>
<asrwt>0</asrwt>
<pdfrwt beam="1">  1        1 0.10686067E+00 0.30000000E+03</pdfrwt>
<pdfrwt beam="2">0</pdfrwt>
<totfact> 0.31030059E+01</totfact>
</mgrwt>
</event>
<event>
 6    1  0.1839160E-004  0.3000000E+03  0.7818608E-02  0.1093470E+00
          1   -1    0    0  502    0  0.00000000000E+00  0.00000000000E+00  0.29204221021E+02  0.29204221021E+02  0.00000000000E+00 0.  1.
         13   -1    0    0    0    0 -0.00000000000E+00 -0.00000000000E+00 -0.10000000000E+04  0.10000000000E+04  0.00000000000E+00 0.  1.
    9000005    2    1    2  501    0  0.73028398762E+01 -0.17642743814E+02 -0.94722272790E+03  0.99886799487E+03  0.31645185583E+03 0.  0.
         13    1    3    3    0    0  0.30263466074E+02 -0.11800600369E+02  0.15403708448E+02  0.35950045645E+02  0.00000000000E+00 0.  1.
          3    1    3    3  501    0 -0.22960626198E+02 -0.58421434449E+01 -0.96262643634E+03  0.96291794923E+03  0.00000000000E+00 0.  1.
         21    1    1    2  502  501 -0.73028398762E+01  0.17642743814E+02 -0.23573051084E+02  0.30336226149E+02  0.00000000000E+00 0. -1.
<mgrwt>
<rscale>  1 0.30000000E+03</rscale>
<asrwt>0</asrwt>
<pdfrwt beam="1">  1        1 0.10619739E+00 0.30000000E+03</pdfrwt>
<pdfrwt beam="2">0</pdfrwt>
<totfact> 0.31319769E+01</totfact>
</mgrwt>
</event>
<event>
 6    1  0.1839160E-004  0.3000000E+03  0.7818608E-02  0.1093470E+00
          1   -1    0    0  502    0  0.00000000000E+00  0.00000000000E+00  0.60409645536E+02  0.60409645536E+02  0.00000000000E+00 0.  1.
         13   -1    0    0    0    0 -0.00000000000E+00 -0.00000000000E+00 -0.10000000000E+04  0.10000000000E+04  0.00000000000E+00 0.  1.
    9000005    2    1    2  501    0  0.87815469579E+01 -0.24144758983E+02 -0.96835180969E+03  0.10218440357E+04  0.32526899800E+03 0.  0.
         13    1    3    3    0    0  0.12121995801E+03  0.91086355798E+02 -0.61705476165E+03  0.63541134811E+03  0.00000000000E+00 0.  1.
          3    1    3    3  501    0 -0.11243841105E+03 -0.11523111478E+03 -0.35129704804E+03  0.38643268761E+03  0.00000000000E+00 0.  1.
         21    1    1    2  502  501 -0.87815469579E+01  0.24144758983E+02  0.28761455228E+02  0.38565609812E+02  0.00000000000E+00 0.  1.
<mgrwt>
<rscale>  1 0.30000000E+03</rscale>
<asrwt>0</asrwt>
<pdfrwt beam="1">  1        1 0.21967190E+00 0.30000000E+03</pdfrwt>
<pdfrwt beam="2">0</pdfrwt>
<totfact> 0.82725219E+00</totfact>
</mgrwt>
</event>
<event>
 6    1  0.1839160E-004  0.3000000E+03  0.7818608E-02  0.1093470E+00
          1   -1    0    0  502    0  0.00000000000E+00  0.00000000000E+00  0.62121659816E+02  0.62121659816E+02  0.00000000000E+00 0.  1.
         13   -1    0    0    0    0 -0.00000000000E+00 -0.00000000000E+00 -0.10000000000E+04  0.10000000000E+04  0.00000000000E+00 0.  1.
    9000005    2    1    2  501    0 -0.30722814941E+02  0.40161623474E+02 -0.95214771917E+03  0.10095815558E+04  0.33183247467E+03 0.  0.
         13    1    3    3    0    0 -0.13576845313E+03  0.11382406038E+03 -0.33214183620E+03  0.37644015320E+03  0.00000000000E+00 0.  1.
          1    1    3    3  501    0  0.10504563819E+03 -0.73662436910E+02 -0.62000588297E+03  0.63314140256E+03  0.00000000000E+00 0.  1.
         21    1    1    2  502  501  0.30722814941E+02 -0.40161623474E+02  0.14269378984E+02  0.52540104060E+02  0.00000000000E+00 0.  1.
<mgrwt>
<rscale>  1 0.30000000E+03</rscale>
<asrwt>0</asrwt>
<pdfrwt beam="1">  1        1 0.22589742E+00 0.30000000E+03</pdfrwt>
<pdfrwt beam="2">0</pdfrwt>
<totfact> 0.77351389E+00</totfact>
</mgrwt>
</event>
<event>
 6    1  0.1839160E-004  0.3000000E+03  0.7818608E-02  0.1093470E+00
          1   -1    0    0  502    0  0.00000000000E+00  0.00000000000E+00  0.31734611243E+02  0.31734611243E+02  0.00000000000E+00 0.  1.
         13   -1    0    0    0    0 -0.00000000000E+00 -0.00000000000E+00 -0.10000000000E+04  0.10000000000E+04  0.00000000000E+00 0.  1.
    9000005    2    1    2  501    0  0.10572970113E+02  0.57807967168E+01 -0.96863032611E+03  0.10196789700E+04  0.31836345236E+03 0.  0.
         13    1    3    3    0    0  0.13206160699E+03  0.32876308029E+02 -0.79193011889E+03  0.80353869408E+03  0.00000000000E+00 0.  1.
          3    1    3    3  501    0 -0.12148863688E+03 -0.27095511312E+02 -0.17670020722E+03  0.21614027587E+03  0.00000000000E+00 0.  1.
         21    1    1    2  502  501 -0.10572970113E+02 -0.57807967168E+01  0.36493735175E+00  0.12055641292E+02  0.00000000000E+00 0.  1.
<mgrwt>
<rscale>  1 0.30000000E+03</rscale>
<asrwt>0</asrwt>
<pdfrwt beam="1">  1        1 0.11539883E+00 0.30000000E+03</pdfrwt>
<pdfrwt beam="2">0</pdfrwt>
<totfact> 0.27618931E+01</totfact>
</mgrwt>
</event>
<event>
 6    1  0.1839160E-004  0.3000000E+03  0.7818608E-02  0.1093470E+00
          1   -1    0    0  502    0  0.00000000000E+00  0.00000000000E+00  0.43284143598E+02  0.43284143598E+02  0.00000000000E+00 0.  1.
         13   -1    0    0    0    0 -0.00000000000E+00 -0.00000000000E+00 -0.10000000000E+04  0.10000000000E+04  0.00000000000E+00 0.  1.
    9000005    2    1    2  501    0  0.47228707921E+02  0.17980890016E+02 -0.93975744523E+03  0.98997888150E+03  0.30718116266E+03 0.  0.
         13    1    3    3    0    0  0.43754423332E+02 -0.68581742853E+01  0.52857304645E+01  0.44602949030E+02  0.00000000000E+00 0.  1.
          3    1    3    3  501    0  0.34742845895E+01  0.24839064301E+02 -0.94504317570E+03  0.94537593247E+03  0.00000000000E+00 0.  1.
         21    1    1    2  502  501 -0.47228707921E+02 -0.17980890016E+02 -0.16958411171E+02  0.53305262096E+02  0.00000000000E+00 0.  1.
<mgrwt>
<rscale>  1 0.30000000E+03</rscale>
<asrwt>0</asrwt>
<pdfrwt beam="1">  1        1 0.15739722E+00 0.30000000E+03</pdfrwt>
<pdfrwt beam="2">0</pdfrwt>
<totfact> 0.16487917E+01</totfact>
</mgrwt>
</event>
<event>
 6    1  0.1839160E-004  0.3000000E+03  0.7818608E-02  0.1093470E+00
          1   -1    0    0  502    0  0.00000000000E+00  0.00000000000E+00  0.32281158139E+02  0.32281158139E+02  0.00000000000E+00 0.  1.
         13   -1    0    0    0    0 -0.00000000000E+00 -0.00000000000E+00 -0.10000000000E+04  0.10000000000E+04  0.00000000000E+00 0.  1.
    9000005    2    1    2  501    0 -0.10364835797E+02 -0.36001730029E+01 -0.96730581860E+03  0.10213011010E+04  0.32749809331E+03 0.  0.
         13    1    3    3    0    0 -0.99314637068E+01  0.41510502821E+02  0.92755757293E+01  0.43678279738E+02  0.00000000000E+00 0.  1.
          3    1    3    3  501    0 -0.43337208974E+00 -0.45110675823E+02 -0.97658139433E+03  0.97762282125E+03  0.00000000000E+00 0.  1.
         21    1    1    2  502  501  0.10364835797E+02  0.36001730029E+01 -0.41302325974E+00  0.10980057147E+02  0.00000000000E+00 0. -1.
<mgrwt>
<rscale>  1 0.30000000E+03</rscale>
<asrwt>0</asrwt>
<pdfrwt beam="1">  1        1 0.11738628E+00 0.30000000E+03</pdfrwt>
<pdfrwt beam="2">0</pdfrwt>
<totfact> 0.26901366E+01</totfact>
</mgrwt>
</event>
<event>
 6    1  0.1839160E-004  0.3000000E+03  0.7818608E-02  0.1093470E+00
          1   -1    0    0  502    0  0.00000000000E+00  0.00000000000E+00  0.42449266948E+02  0.42449266948E+02  0.00000000000E+00 0.  1.
         13   -1    0    0    0    0 -0.00000000000E+00 -0.00000000000E+00 -0.10000000000E+04  0.10000000000E+04  0.00000000000E+00 0.  1.
    9000005    2    1    2  501    0  0.21061023342E+01  0.42662266697E+02 -0.94709955178E+03  0.99847504886E+03  0.31325765361E+03 0.  0.
         13    1    3    3    0    0 -0.13597507676E+03  0.97413007344E+02 -0.47816543824E+03  0.50657743912E+03  0.00000000000E+00 0.  1.
          3    1    3    3  501    0  0.13808117910E+03 -0.54750740647E+02 -0.46893411354E+03  0.49189760973E+03  0.00000000000E+00 0.  1.
         21    1    1    2  502  501 -0.21061023342E+01 -0.42662266697E+02 -0.10451181275E+02  0.43974218092E+02  0.00000000000E+00 0.  1.
<mgrwt>
<rscale>  1 0.30000000E+03</rscale>
<asrwt>0</asrwt>
<pdfrwt beam="1">  1        1 0.15436130E+00 0.30000000E+03</pdfrwt>
<pdfrwt beam="2">0</pdfrwt>
<totfact> 0.17075648E+01</totfact>
</mgrwt>
</event>
<event>
 6    1  0.1839160E-004  0.3000000E+03  0.7818608E-02  0.1093470E+00
          1   -1    0    0  502    0  0.00000000000E+00  0.00000000000E+00  0.33192953363E+02  0.33192953363E+02  0.00000000000E+00 0.  1.
         13   -1    0    0    0    0 -0.00000000000E+00 -0.00000000000E+00 -0.10000000000E+04  0.10000000000E+04  0.00000000000E+00 0.  1.
    9000005    2    1    2  501    0  0.15662579214E+02 -0.80331169184E+00 -0.96632160106E+03  0.10175022760E+04  0.31825694554E+03 0.  0.
         13    1    3    3    0    0  0.36597777533E+02 -0.14540767042E+03 -0.30043335667E+03  0.33577222896E+03  0.00000000000E+00 0.  1.
          3    1    3    3  501    0 -0.20935198319E+02  0.14460435873E+03 -0.66588824438E+03  0.68173004709E+03  0.00000000000E+00 0.  1.
         21    1    1    2  502  501 -0.15662579214E+02  0.80331169184E+00 -0.48544557952E+00  0.15690677318E+02  0.00000000000E+00 0.  1.
<mgrwt>
<rscale>  1 0.30000000E+03</rscale>
<asrwt>0</asrwt>
<pdfrwt beam="1">  1        1 0.12070190E+00 0.30000000E+03</pdfrwt>
<pdfrwt beam="2">0</pdfrwt>
<totfact> 0.25759907E+01</totfact>
</mgrwt>
</event>
<event>
 6    1  0.1839160E-004  0.3000000E+03  0.7818608E-02  0.1093470E+00
          1   -1    0    0  502    0  0.00000000000E+00  0.00000000000E+00  0.36297782645E+02  0.36297782645E+02  0.00000000000E+00 0.  1.
         13   -1    0    0    0    0 -0.00000000000E+00 -0.00000000000E+00 -0.10000000000E+04  0.10000000000E+04  0.00000000000E+00 0.  1.
    9000005    2    1    2  501    0  0.11126522848E+02 -0.20909928648E+02 -0.92975788021E+03  0.99490644719E+03  0.35331020112E+03 0.  0.
         13    1    3    3    0    0 -0.57632224591E+02  0.84149372776E+02 -0.64699524187E+02  0.12078335432E+03  0.00000000000E+00 0.  1.
          1    1    3    3  501    0  0.68758747439E+02 -0.10505930142E+03 -0.86505835602E+03  0.87412309287E+03  0.00000000000E+00 0.  1.
         21    1    1    2  502  501 -0.11126522848E+02  0.20909928648E+02 -0.33944337143E+02  0.41391335456E+02  0.00000000000E+00 0.  1.
<mgrwt>
<rscale>  1 0.30000000E+03</rscale>
<asrwt>0</asrwt>
<pdfrwt beam="1">  1        1 0.13199222E+00 0.30000000E+03</pdfrwt>
<pdfrwt beam="2">0</pdfrwt>
<totfact> 0.22317498E+01</totfact>
</mgrwt>
</event>
<event>
 6    1  0.1839160E-004  0.3000000E+03  0.7818608E-02  0.1093470E+00
          1   -1    0    0  502    0  0.00000000000E+00  0.00000000000E+00  0.51087133408E+02  0.51087133408E+02  0.00000000000E+00 0.  1.
         13   -1    0    0    0    0 -0.00000000000E+00 -0.00000000000E+00 -0.10000000000E+04  0.10000000000E+04  0.00000000000E+00 0.  1.
    9000005    2    1    2  501    0  0.48836616031E+01  0.17896382783E+02 -0.96968535013E+03  0.10232370573E+04  0.32615987873E+03 0.  0.
         13    1    3    3    0    0 -0.38974376566E+01  0.83158148419E+02 -0.42048634551E+02  0.93266045999E+02  0.00000000000E+00 0.  1.
          1    1    3    3  501    0  0.87810992596E+01 -0.65261765636E+02 -0.92763671558E+03  0.92997101129E+03  0.00000000000E+00 0.  1.
         21    1    1    2  502  501 -0.48836616031E+01 -0.17896382783E+02  0.20772483536E+02  0.27850076116E+02  0.00000000000E+00 0. -1.
<mgrwt>
<rscale>  1 0.30000000E+03</rscale>
<asrwt>0</asrwt>
<pdfrwt beam="1">  1        1 0.18577179E+00 0.30000000E+03</pdfrwt>
<pdfrwt beam="2">0</pdfrwt>
<totfact> 0.11981546E+01</totfact>
</mgrwt>
</event>
<event>
 6    1  0.1839160E-004  0.3000000E+03  0.7818608E-02  0.1093470E+00
          1   -1    0    0  502    0  0.00000000000E+00  0.00000000000E+00  0.34106960726E+02  0.34106960726E+02  0.00000000000E+00 0.  1.
         13   -1    0    0    0    0 -0.00000000000E+00 -0.00000000000E+00 -0.10000000000E+04  0.10000000000E+04  0.00000000000E+00 0.  1.
    9000005    2    1    2  501    0 -0.23552086287E+01  0.19564704172E+02 -0.96030571798E+03  0.10136242164E+04  0.32381886199E+03 0.  0.
         13    1    3    3    0    0  0.52829381472E+02  0.13809643849E+03 -0.76119600865E+03  0.77542306740E+03  0.00000000000E+00 0.  1.
          1    1    3    3  501    0 -0.55184590100E+02 -0.11853173431E+03 -0.19910970932E+03  0.23820114897E+03  0.00000000000E+00 0.  1.
         21    1    1    2  502  501  0.23552086287E+01 -0.19564704172E+02 -0.55873212993E+01  0.20482744355E+02  0.00000000000E+00 0.  1.
<mgrwt>
<rscale>  1 0.30000000E+03</rscale>
<asrwt>0</asrwt>
<pdfrwt beam="1">  1        1 0.12402557E+00 0.30000000E+03</pdfrwt>
<pdfrwt beam="2">0</pdfrwt>
<totfact> 0.24679506E+01</totfact>
</mgrwt>
</event>
<event>
 6    1  0.1839160E-004  0.3000000E+03  0.7818608E-02  0.1093470E+00
          1   -1    0    0  502    0  0.00000000000E+00  0.00000000000E+00  0.48631273988E+02  0.48631273988E+02  0.00000000000E+00 0.  1.
         13   -1    0    0    0    0 -0.00000000000E+00 -0.00000000000E+00 -0.10000000000E+04  0.10000000000E+04  0.00000000000E+00 0.  1.
    9000005    2    1    2  501    0  0.73740317174E+02  0.59324259652E+02 -0.63650774397E+03  0.71985408473E+03  0.32263104782E+03 0.  0.
         13    1    3    3    0    0 -0.66171999931E+02 -0.14432229820E+02 -0.51751500338E+03  0.52192796587E+03  0.00000000000E+00 0.  1.
          3    1    3    3  501    0  0.13991231710E+03  0.73756489471E+02 -0.11899274059E+03  0.19792611887E+03  0.00000000000E+00 0.  1.
         21    1    1    2  502  501 -0.73740317174E+02 -0.59324259652E+02 -0.31486098205E+03  0.32877718926E+03  0.00000000000E+00 0. -1.
<mgrwt>
<rscale>  1 0.30000000E+03</rscale>
<asrwt>0</asrwt>
<pdfrwt beam="1">  1        1 0.17684137E+00 0.30000000E+03</pdfrwt>
<pdfrwt beam="2">0</pdfrwt>
<totfact> 0.13232576E+01</totfact>
</mgrwt>
</event>
<event>
 6    1  0.1839160E-004  0.3000000E+03  0.7818608E-02  0.1093470E+00
          1   -1    0    0  502    0  0.00000000000E+00  0.00000000000E+00  0.34440366590E+02  0.34440366590E+02  0.00000000000E+00 0.  1.
         13   -1    0    0    0    0 -0.00000000000E+00 -0.00000000000E+00 -0.10000000000E+04  0.10000000000E+04  0.00000000000E+00 0.  1.
    9000005    2    1    2  501    0  0.31164082942E+01 -0.13632819553E+02 -0.96571094364E+03  0.10204550649E+04  0.32944703211E+03 0.  0.
         13    1    3    3    0    0 -0.13146464808E+03 -0.10378383813E+03 -0.51136008444E+03  0.53809216192E+03  0.00000000000E+00 0.  1.
          1    1    3    3  501    0  0.13458105638E+03  0.90151018578E+02 -0.45435085920E+03  0.48236290295E+03  0.00000000000E+00 0.  1.
         21    1    1    2  502  501 -0.31164082942E+01  0.13632819553E+02  0.15131023124E+00  0.13985301727E+02  0.00000000000E+00 0. -1.
<mgrwt>
<rscale>  1 0.30000000E+03</rscale>
<asrwt>0</asrwt>
<pdfrwt beam="1">  1        1 0.12523796E+00 0.30000000E+03</pdfrwt>
<pdfrwt beam="2">0</pdfrwt>
<totfact> 0.24300053E+01</totfact>
</mgrwt>
</event>
<event>
 6    1  0.1839160E-004  0.3000000E+03  0.7818608E-02  0.1093470E+00
          1   -1    0    0  502    0  0.00000000000E+00  0.00000000000E+00  0.39412875559E+02  0.39412875559E+02  0.00000000000E+00 0.  1.
         13   -1    0    0    0    0 -0.00000000000E+00 -0.00000000000E+00 -0.10000000000E+04  0.10000000000E+04  0.00000000000E+00 0.  1.
    9000005    2    1    2  501    0 -0.25104354487E+02 -0.15351353708E+02 -0.95913567960E+03  0.10099510466E+04  0.31495074523E+03 0.  0.
         13    1    3    3    0    0  0.15496053064E+02 -0.16003568980E+03 -0.40353660967E+03  0.43438847247E+03  0.00000000000E+00 0.  1.
          1    1    3    3  501    0 -0.40600407551E+02  0.14468433609E+03 -0.55559906993E+03  0.57556257410E+03  0.00000000000E+00 0.  1.
         21    1    1    2  502  501  0.25104354487E+02  0.15351353708E+02 -0.14514448398E+01  0.29461828983E+02  0.00000000000E+00 0.  1.
<mgrwt>
<rscale>  1 0.30000000E+03</rscale>
<asrwt>0</asrwt>
<pdfrwt beam="1">  1        1 0.14331985E+00 0.30000000E+03</pdfrwt>
<pdfrwt beam="2">0</pdfrwt>
<totfact> 0.19441483E+01</totfact>
</mgrwt>
</event>
<event>
 6    1  0.1839160E-004  0.3000000E+03  0.7818608E-02  0.1093470E+00
          1   -1    0    0  502    0  0.00000000000E+00  0.00000000000E+00  0.40478726480E+02  0.40478726480E+02  0.00000000000E+00 0.  1.
         13   -1    0    0    0    0 -0.00000000000E+00 -0.00000000000E+00 -0.10000000000E+04  0.10000000000E+04  0.00000000000E+00 0.  1.
    9000005    2    1    2  501    0 -0.41887589337E+01  0.10905824947E+02 -0.96803434665E+03  0.10260234460E+04  0.33984869098E+03 0.  0.
         13    1    3    3    0    0  0.10376804601E+03  0.11812115267E+03 -0.70348875382E+03  0.72084453306E+03  0.00000000000E+00 0.  1.
          3    1    3    3  501    0 -0.10795680494E+03 -0.10721532772E+03 -0.26454559283E+03  0.30517891296E+03  0.00000000000E+00 0.  1.
         21    1    1    2  502  501  0.41887589337E+01 -0.10905824947E+02  0.85130731296E+01  0.14455280464E+02  0.00000000000E+00 0. -1.
<mgrwt>
<rscale>  1 0.30000000E+03</rscale>
<asrwt>0</asrwt>
<pdfrwt beam="1">  1        1 0.14719568E+00 0.30000000E+03</pdfrwt>
<pdfrwt beam="2">0</pdfrwt>
<totfact> 0.18567055E+01</totfact>
</mgrwt>
</event>
<event>
 6    1  0.1839160E-004  0.3000000E+03  0.7818608E-02  0.1093470E+00
          1   -1    0    0  502    0  0.00000000000E+00  0.00000000000E+00  0.66024994103E+02  0.66024994103E+02  0.00000000000E+00 0.  1.
         13   -1    0    0    0    0 -0.00000000000E+00 -0.00000000000E+00 -0.10000000000E+04  0.10000000000E+04  0.00000000000E+00 0.  1.
    9000005    2    1    2  501    0 -0.12067216274E+03 -0.81698620731E+02 -0.77698111158E+03  0.85182060959E+03  0.31727317517E+03 0.  0.
         13    1    3    3    0    0 -0.53208300767E+02  0.49437246753E+02 -0.13059904431E+02  0.73795160686E+02  0.00000000000E+00 0.  1.
          1    1    3    3  501    0 -0.67463861975E+02 -0.13113586748E+03 -0.76392120715E+03  0.77802544891E+03  0.00000000000E+00 0.  1.
         21    1    1    2  502  501  0.12067216274E+03  0.81698620731E+02 -0.15699389432E+03  0.21420438451E+03  0.00000000000E+00 0.  1.
<mgrwt>
<rscale>  1 0.30000000E+03</rscale>
<asrwt>0</asrwt>
<pdfrwt beam="1">  1        1 0.24009139E+00 0.30000000E+03</pdfrwt>
<pdfrwt beam="2">0</pdfrwt>
<totfact> 0.66372909E+00</totfact>
</mgrwt>
</event>
<event>
 6    1  0.1839160E-004  0.3000000E+03  0.7818608E-02  0.1093470E+00
          1   -1    0    0  502    0  0.00000000000E+00  0.00000000000E+00  0.36498147439E+02  0.36498147439E+02  0.00000000000E+00 0.  1.
         13   -1    0    0    0    0 -0.00000000000E+00 -0.00000000000E+00 -0.10000000000E+04  0.10000000000E+04  0.00000000000E+00 0.  1.
    9000005    2    1    2  501    0  0.19811503528E+01 -0.14303193036E+02 -0.96639476273E+03  0.10217714636E+04  0.33149597298E+03 0.  0.
         13    1    3    3    0    0  0.12426715999E+03  0.56402278857E+01 -0.14483940130E+03  0.19092561743E+03  0.00000000000E+00 0.  1.
          3    1    3    3  501    0 -0.12228600964E+03 -0.19943420922E+02 -0.82155536143E+03  0.83084584616E+03  0.00000000000E+00 0.  1.
         21    1    1    2  502  501 -0.19811503528E+01  0.14303193036E+02  0.28929101691E+01  0.14726683843E+02  0.00000000000E+00 0. -1.
<mgrwt>
<rscale>  1 0.30000000E+03</rscale>
<asrwt>0</asrwt>
<pdfrwt beam="1">  1        1 0.13272082E+00 0.30000000E+03</pdfrwt>
<pdfrwt beam="2">0</pdfrwt>
<totfact> 0.22116383E+01</totfact>
</mgrwt>
</event>
<event>
 6    1  0.1839160E-004  0.3000000E+03  0.7818608E-02  0.1093470E+00
          1   -1    0    0  502    0  0.00000000000E+00  0.00000000000E+00  0.48740643622E+02  0.48740643622E+02  0.00000000000E+00 0.  1.
         13   -1    0    0    0    0 -0.00000000000E+00 -0.00000000000E+00 -0.10000000000E+04  0.10000000000E+04  0.00000000000E+00 0.  1.
    9000005    2    1    2  501    0  0.28252955468E+02 -0.18557274246E+02 -0.96007341292E+03  0.10138080011E+04  0.32391835854E+03 0.  0.
         13    1    3    3    0    0  0.13590281390E+03 -0.69853825695E+02 -0.24417522638E+03  0.28804630351E+03  0.00000000000E+00 0.  1.
          1    1    3    3  501    0 -0.10764985843E+03  0.51296551448E+02 -0.71589818654E+03  0.72576169760E+03  0.00000000000E+00 0.  1.
         21    1    1    2  502  501 -0.28252955468E+02  0.18557274246E+02  0.88140565406E+01  0.34932642512E+02  0.00000000000E+00 0. -1.
<mgrwt>
<rscale>  1 0.30000000E+03</rscale>
<asrwt>0</asrwt>
<pdfrwt beam="1">  1        1 0.17723908E+00 0.30000000E+03</pdfrwt>
<pdfrwt beam="2">0</pdfrwt>
<totfact> 0.13173922E+01</totfact>
</mgrwt>
</event>
<event>
 6    1  0.1839160E-004  0.3000000E+03  0.7818608E-02  0.1093470E+00
          1   -1    0    0  502    0  0.00000000000E+00  0.00000000000E+00  0.31628497238E+02  0.31628497238E+02  0.00000000000E+00 0.  1.
         13   -1    0    0    0    0 -0.00000000000E+00 -0.00000000000E+00 -0.10000000000E+04  0.10000000000E+04  0.00000000000E+00 0.  1.
    9000005    2    1    2  501    0  0.50340820909E+01 -0.18075334630E+02 -0.93597055494E+03  0.99418679422E+03  0.33468558738E+03 0.  0.
         13    1    3    3    0    0 -0.75304076965E+02 -0.14721351639E+03 -0.32596463359E+03  0.36550713504E+03  0.00000000000E+00 0.  1.
          3    1    3    3  501    0  0.80338159056E+02  0.12913818176E+03 -0.61000592135E+03  0.62867965918E+03  0.00000000000E+00 0.  1.
         21    1    1    2  502  501 -0.50340820909E+01  0.18075334630E+02 -0.32400947827E+02  0.37441703013E+02  0.00000000000E+00 0. -1.
<mgrwt>
<rscale>  1 0.30000000E+03</rscale>
<asrwt>0</asrwt>
<pdfrwt beam="1">  1        1 0.11501296E+00 0.30000000E+03</pdfrwt>
<pdfrwt beam="2">0</pdfrwt>
<totfact> 0.27761329E+01</totfact>
</mgrwt>
</event>
<event>
 6    1  0.1839160E-004  0.3000000E+03  0.7818608E-02  0.1093470E+00
          1   -1    0    0  502    0  0.00000000000E+00  0.00000000000E+00  0.28365496009E+02  0.28365496009E+02  0.00000000000E+00 0.  1.
         13   -1    0    0    0    0 -0.00000000000E+00 -0.00000000000E+00 -0.10000000000E+04  0.10000000000E+04  0.00000000000E+00 0.  1.
    9000005    2    1    2  501    0 -0.51670801250E+01 -0.85062839124E+01 -0.96803029816E+03  0.10177803232E+04  0.31415771934E+03 0.  0.
         13    1    3    3    0    0 -0.56697065619E+01 -0.15990227033E+03 -0.56627339918E+03  0.58844408761E+03  0.00000000000E+00 0.  1.
          1    1    3    3  501    0  0.50262643693E+00  0.15139598642E+03 -0.40175689898E+03  0.42933623562E+03  0.00000000000E+00 0.  1.
         21    1    1    2  502  501  0.51670801250E+01  0.85062839124E+01 -0.36042058317E+01  0.10585172776E+02  0.00000000000E+00 0.  1.
<mgrwt>
<rscale>  1 0.30000000E+03</rscale>
<asrwt>0</asrwt>
<pdfrwt beam="1">  1        1 0.10314748E+00 0.30000000E+03</pdfrwt>
<pdfrwt beam="2">0</pdfrwt>
<totfact> 0.32703517E+01</totfact>
</mgrwt>
</event>
<event>
 6    1  0.1839160E-004  0.3000000E+03  0.7818608E-02  0.1093470E+00
          1   -1    0    0  502    0  0.00000000000E+00  0.00000000000E+00  0.37978109281E+02  0.37978109281E+02  0.00000000000E+00 0.  1.
         13   -1    0    0    0    0 -0.00000000000E+00 -0.00000000000E+00 -0.10000000000E+04  0.10000000000E+04  0.00000000000E+00 0.  1.
    9000005    2    1    2  501    0 -0.14680874464E+02 -0.64366695981E+01 -0.96839134934E+03  0.10207290863E+04  0.32225626971E+03 0.  0.
         13    1    3    3    0    0  0.52407507030E+02  0.81124843739E+02 -0.86226917037E+03  0.86766117190E+03  0.00000000000E+00 0.  1.
          3    1    3    3  501    0 -0.67088381493E+02 -0.87561513337E+02 -0.10612217897E+03  0.15306791440E+03  0.00000000000E+00 0.  1.
         21    1    1    2  502  501  0.14680874464E+02  0.64366695981E+01  0.63694586185E+01  0.17249022976E+02  0.00000000000E+00 0.  1.
<mgrwt>
<rscale>  1 0.30000000E+03</rscale>
<asrwt>0</asrwt>
<pdfrwt beam="1">  1        1 0.13810251E+00 0.30000000E+03</pdfrwt>
<pdfrwt beam="2">0</pdfrwt>
<totfact> 0.20702615E+01</totfact>
</mgrwt>
</event>
<event>
 6    1  0.1839160E-004  0.3000000E+03  0.7818608E-02  0.1093470E+00
          1   -1    0    0  502    0  0.00000000000E+00  0.00000000000E+00  0.29987271896E+02  0.29987271896E+02  0.00000000000E+00 0.  1.
         13   -1    0    0    0    0 -0.00000000000E+00 -0.00000000000E+00 -0.10000000000E+04  0.10000000000E+04  0.00000000000E+00 0.  1.
    9000005    2    1    2  501    0 -0.11038614799E+02  0.18917710885E+02 -0.91547105155E+03  0.97121206213E+03  0.32355199365E+03 0.  0.
         13    1    3    3    0    0  0.34876518779E+02  0.16092966593E+03 -0.60052036654E+03  0.62268727269E+03  0.00000000000E+00 0.  1.
          1    1    3    3  501    0 -0.45915133579E+02 -0.14201195504E+03 -0.31495068501E+03  0.34852478944E+03  0.00000000000E+00 0.  1.
         21    1    1    2  502  501  0.11038614799E+02 -0.18917710885E+02 -0.54541676550E+02  0.58775209764E+02  0.00000000000E+00 0.  1.
<mgrwt>
<rscale>  1 0.30000000E+03</rscale>
<asrwt>0</asrwt>
<pdfrwt beam="1">  1        1 0.10904486E+00 0.30000000E+03</pdfrwt>
<pdfrwt beam="2">0</pdfrwt>
<totfact> 0.30102753E+01</totfact>
</mgrwt>
</event>
<event>
 6    1  0.1839160E-004  0.3000000E+03  0.7818608E-02  0.1093470E+00
          1   -1    0    0  502    0  0.00000000000E+00  0.00000000000E+00  0.42846961994E+02  0.42846961994E+02  0.00000000000E+00 0.  1.
         13   -1    0    0    0    0 -0.00000000000E+00 -0.00000000000E+00 -0.10000000000E+04  0.10000000000E+04  0.00000000000E+00 0.  1.
    9000005    2    1    2  501    0  0.28582985651E+02  0.43045968765E+02 -0.92670919177E+03  0.98287388246E+03  0.32339016715E+03 0.  0.
         13    1    3    3    0    0  0.14150743704E+03 -0.46679993363E+02 -0.68819279309E+03  0.70413968570E+03  0.00000000000E+00 0.  1.
          1    1    3    3  501    0 -0.11292445139E+03  0.89725962128E+02 -0.23851639868E+03  0.27873419676E+03  0.00000000000E+00 0.  1.
         21    1    1    2  502  501 -0.28582985651E+02 -0.43045968765E+02 -0.30443846238E+02  0.59973079539E+02  0.00000000000E+00 0.  1.
<mgrwt>
<rscale>  1 0.30000000E+03</rscale>
<asrwt>0</asrwt>
<pdfrwt beam="1">  1        1 0.15580746E+00 0.30000000E+03</pdfrwt>
<pdfrwt beam="2">0</pdfrwt>
<totfact> 0.16792612E+01</totfact>
</mgrwt>
</event>
<event>
 6    1  0.1839160E-004  0.3000000E+03  0.7818608E-02  0.1093470E+00
          1   -1    0    0  502    0  0.00000000000E+00  0.00000000000E+00  0.30038862989E+02  0.30038862989E+02  0.00000000000E+00 0.  1.
         13   -1    0    0    0    0 -0.00000000000E+00 -0.00000000000E+00 -0.10000000000E+04  0.10000000000E+04  0.00000000000E+00 0.  1.
    9000005    2    1    2  501    0  0.78813620185E+01 -0.60489962781E+01 -0.96273082851E+03  0.10177513252E+04  0.32995212625E+03 0.  0.
         13    1    3    3    0    0  0.10908825897E+03 -0.12932723053E+03 -0.44847727681E+03  0.47933041695E+03  0.00000000000E+00 0.  1.
          1    1    3    3  501    0 -0.10120689695E+03  0.12327823425E+03 -0.51425355170E+03  0.53842090827E+03  0.00000000000E+00 0.  1.
         21    1    1    2  502  501 -0.78813620185E+01  0.60489962781E+01 -0.72303085051E+01  0.12287537765E+02  0.00000000000E+00 0.  1.
<mgrwt>
<rscale>  1 0.30000000E+03</rscale>
<asrwt>0</asrwt>
<pdfrwt beam="1">  1        1 0.10923246E+00 0.30000000E+03</pdfrwt>
<pdfrwt beam="2">0</pdfrwt>
<totfact> 0.30024959E+01</totfact>
</mgrwt>
</event>
<event>
 6    1  0.1839160E-004  0.3000000E+03  0.7818608E-02  0.1093470E+00
          1   -1    0    0  502    0  0.00000000000E+00  0.00000000000E+00  0.33315219837E+02  0.33315219837E+02  0.00000000000E+00 0.  1.
         13   -1    0    0    0    0 -0.00000000000E+00 -0.00000000000E+00 -0.10000000000E+04  0.10000000000E+04  0.00000000000E+00 0.  1.
    9000005    2    1    2  501    0 -0.10933701223E+02  0.13549732914E+00 -0.95031420962E+03  0.10136286823E+04  0.35245771989E+03 0.  0.
         13    1    3    3    0    0  0.20536961678E+02 -0.17002279158E+03 -0.36333583827E+03  0.40167455461E+03  0.00000000000E+00 0.  1.
          1    1    3    3  501    0 -0.31470662901E+02  0.17015828891E+03 -0.58697837135E+03  0.61195412764E+03  0.00000000000E+00 0.  1.
         21    1    1    2  502  501  0.10933701223E+02 -0.13549732914E+00 -0.16370570544E+02  0.19686537581E+02  0.00000000000E+00 0. -1.
<mgrwt>
<rscale>  1 0.30000000E+03</rscale>
<asrwt>0</asrwt>
<pdfrwt beam="1">  1        1 0.12114651E+00 0.30000000E+03</pdfrwt>
<pdfrwt beam="2">0</pdfrwt>
<totfact> 0.25611823E+01</totfact>
</mgrwt>
</event>
<event>
 6    1  0.1839160E-004  0.3000000E+03  0.7818608E-02  0.1093470E+00
          1   -1    0    0  502    0  0.00000000000E+00  0.00000000000E+00  0.35546227704E+02  0.35546227704E+02  0.00000000000E+00 0.  1.
         13   -1    0    0    0    0 -0.00000000000E+00 -0.00000000000E+00 -0.10000000000E+04  0.10000000000E+04  0.00000000000E+00 0.  1.
    9000005    2    1    2  501    0 -0.12555915341E+02  0.73585190228E+01 -0.96451981425E+03  0.10209927685E+04  0.33453843203E+03 0.  0.
         13    1    3    3    0    0 -0.11854909193E+03  0.20623743811E+01 -0.11604022041E+03  0.16590199920E+03  0.00000000000E+00 0.  1.
          1    1    3    3  501    0  0.10599317659E+03  0.52961446417E+01 -0.84847959384E+03  0.85509076933E+03  0.00000000000E+00 0.  1.
         21    1    1    2  502  501  0.12555915341E+02 -0.73585190228E+01  0.66041954403E-01  0.14553459170E+02  0.00000000000E+00 0.  1.
<mgrwt>
<rscale>  1 0.30000000E+03</rscale>
<asrwt>0</asrwt>
<pdfrwt beam="1">  1        1 0.12925928E+00 0.30000000E+03</pdfrwt>
<pdfrwt beam="2">0</pdfrwt>
<totfact> 0.23093541E+01</totfact>
</mgrwt>
</event>
<event>
 6    1  0.1839160E-004  0.3000000E+03  0.7818608E-02  0.1093470E+00
          1   -1    0    0  502    0  0.00000000000E+00  0.00000000000E+00  0.31931452491E+02  0.31931452491E+02  0.00000000000E+00 0.  1.
         13   -1    0    0    0    0 -0.00000000000E+00 -0.00000000000E+00 -0.10000000000E+04  0.10000000000E+04  0.00000000000E+00 0.  1.
    9000005    2    1    2  501    0 -0.75000761432E+01 -0.22904854444E+02 -0.91527580341E+03  0.97389734762E+03  0.33191168085E+03 0.  0.
         13    1    3    3    0    0  0.62425524462E+02 -0.14549482020E+03 -0.26677231590E+03  0.31021469556E+03  0.00000000000E+00 0.  1.
          3    1    3    3  501    0 -0.69925600605E+02  0.12258996576E+03 -0.64850348751E+03  0.66368265205E+03  0.00000000000E+00 0.  1.
         21    1    1    2  502  501  0.75000761432E+01  0.22904854444E+02 -0.52792744096E+02  0.58034104873E+02  0.00000000000E+00 0. -1.
<mgrwt>
<rscale>  1 0.30000000E+03</rscale>
<asrwt>0</asrwt>
<pdfrwt beam="1">  1        1 0.11611462E+00 0.30000000E+03</pdfrwt>
<pdfrwt beam="2">0</pdfrwt>
<totfact> 0.27357473E+01</totfact>
</mgrwt>
</event>
<event>
 6    1  0.1839160E-004  0.3000000E+03  0.7818608E-02  0.1093470E+00
          1   -1    0    0  502    0  0.00000000000E+00  0.00000000000E+00  0.27061121001E+02  0.27061121001E+02  0.00000000000E+00 0.  1.
         13   -1    0    0    0    0 -0.00000000000E+00 -0.00000000000E+00 -0.10000000000E+04  0.10000000000E+04  0.00000000000E+00 0.  1.
    9000005    2    1    2  501    0  0.98784266900E+00 -0.10762577782E+02 -0.95103492263E+03  0.10026358837E+04  0.31732393900E+03 0.  0.
         13    1    3    3    0    0  0.37127549035E+02  0.49272669445E+02 -0.92625878542E+03  0.92831114849E+03  0.00000000000E+00 0.  1.
          1    1    3    3  501    0 -0.36139706366E+02 -0.60035247227E+02 -0.24776137217E+02  0.74324735191E+02  0.00000000000E+00 0.  1.
         21    1    1    2  502  501 -0.98784266900E+00  0.10762577782E+02 -0.21903956365E+02  0.24425237319E+02  0.00000000000E+00 0.  1.
<mgrwt>
<rscale>  1 0.30000000E+03</rscale>
<asrwt>0</asrwt>
<pdfrwt beam="1">  1        1 0.98404284E-01 0.30000000E+03</pdfrwt>
<pdfrwt beam="2">0</pdfrwt>
<totfact> 0.35039447E+01</totfact>
</mgrwt>
</event>
<event>
 6    1  0.1839160E-004  0.3000000E+03  0.7818608E-02  0.1093470E+00
          1   -1    0    0  502    0  0.00000000000E+00  0.00000000000E+00  0.30255330716E+02  0.30255330716E+02  0.00000000000E+00 0.  1.
         13   -1    0    0    0    0 -0.00000000000E+00 -0.00000000000E+00 -0.10000000000E+04  0.10000000000E+04  0.00000000000E+00 0.  1.
    9000005    2    1    2  501    0  0.18844760395E+02  0.13923144854E+02 -0.95316013622E+03  0.10015494830E+04  0.30665639180E+03 0.  0.
         13    1    3    3    0    0 -0.14188493769E+03  0.32396991027E+02 -0.47057105376E+03  0.49256270383E+03  0.00000000000E+00 0.  1.
          1    1    3    3  501    0  0.16072969809E+03 -0.18473846172E+02 -0.48258908247E+03  0.50898677915E+03  0.00000000000E+00 0.  1.
         21    1    1    2  502  501 -0.18844760395E+02 -0.13923144854E+02 -0.16584533060E+02  0.28705847728E+02  0.00000000000E+00 0. -1.
<mgrwt>
<rscale>  1 0.30000000E+03</rscale>
<asrwt>0</asrwt>
<pdfrwt beam="1">  1        1 0.11001962E+00 0.30000000E+03</pdfrwt>
<pdfrwt beam="2">0</pdfrwt>
<totfact> 0.29701645E+01</totfact>
</mgrwt>
</event>
<event>
 6    1  0.1839160E-004  0.3000000E+03  0.7818608E-02  0.1093470E+00
          1   -1    0    0  502    0  0.00000000000E+00  0.00000000000E+00  0.82722157101E+02  0.82722157101E+02  0.00000000000E+00 0.  1.
         13   -1    0    0    0    0 -0.00000000000E+00 -0.00000000000E+00 -0.10000000000E+04  0.10000000000E+04  0.00000000000E+00 0.  1.
    9000005    2    1    2  501    0 -0.29337540684E+02 -0.28536956977E+02 -0.93323754987E+03  0.10387931069E+04  0.45440482525E+03 0.  0.
         13    1    3    3    0    0  0.15371468382E+02 -0.21859352276E+03 -0.27176202876E+03  0.34910458391E+03  0.00000000000E+00 0.  1.
          1    1    3    3  501    0 -0.44709009067E+02  0.19005656578E+03 -0.66147552111E+03  0.68968852297E+03  0.00000000000E+00 0.  1.
         21    1    1    2  502  501  0.29337540684E+02  0.28536956977E+02  0.15959706969E+02  0.43929050222E+02  0.00000000000E+00 0.  1.
<mgrwt>
<rscale>  1 0.30000000E+03</rscale>
<asrwt>0</asrwt>
<pdfrwt beam="1">  1        1 0.30080848E+00 0.30000000E+03</pdfrwt>
<pdfrwt beam="2">0</pdfrwt>
<totfact> 0.34438338E+00</totfact>
</mgrwt>
</event>
<event>
 6    1  0.1839160E-004  0.3000000E+03  0.7818608E-02  0.1093470E+00
          1   -1    0    0  502    0  0.00000000000E+00  0.00000000000E+00  0.30484150378E+02  0.30484150378E+02  0.00000000000E+00 0.  1.
         13   -1    0    0    0    0 -0.00000000000E+00 -0.00000000000E+00 -0.10000000000E+04  0.10000000000E+04  0.00000000000E+00 0.  1.
    9000005    2    1    2  501    0  0.89254312860E+01 -0.19006846084E+02 -0.93886026338E+03  0.99332653353E+03  0.32372532268E+03 0.  0.
         13    1    3    3    0    0  0.84006407660E+02 -0.14307487260E+03 -0.63977190035E+03  0.66093538276E+03  0.00000000000E+00 0.  1.
          1    1    3    3  501    0 -0.75080976374E+02  0.12406802652E+03 -0.29908836303E+03  0.33239115078E+03  0.00000000000E+00 0.  1.
         21    1    1    2  502  501 -0.89254312860E+01  0.19006846084E+02 -0.30655586244E+02  0.37157616846E+02  0.00000000000E+00 0.  1.
<mgrwt>
<rscale>  1 0.30000000E+03</rscale>
<asrwt>0</asrwt>
<pdfrwt beam="1">  1        1 0.11085169E+00 0.30000000E+03</pdfrwt>
<pdfrwt beam="2">0</pdfrwt>
<totfact> 0.29365229E+01</totfact>
</mgrwt>
</event>
<event>
 6    1  0.1839160E-004  0.3000000E+03  0.7818608E-02  0.1093470E+00
          1   -1    0    0  502    0  0.00000000000E+00  0.00000000000E+00  0.45044679703E+02  0.45044679703E+02  0.00000000000E+00 0.  1.
         13   -1    0    0    0    0 -0.00000000000E+00 -0.00000000000E+00 -0.10000000000E+04  0.10000000000E+04  0.00000000000E+00 0.  1.
    9000005    2    1    2  501    0 -0.13065014813E+02  0.47065714473E+01 -0.96961503574E+03  0.10248517680E+04  0.33162476140E+03 0.  0.
         13    1    3    3    0    0 -0.87682492052E+02 -0.51130141904E+02 -0.90679996904E+03  0.91246298263E+03  0.00000000000E+00 0.  1.
          1    1    3    3  501    0  0.74617477238E+02  0.55836713352E+02 -0.62815066700E+02  0.11238878535E+03  0.00000000000E+00 0.  1.
         21    1    1    2  502  501  0.13065014813E+02 -0.47065714473E+01  0.14659715445E+02  0.20192911721E+02  0.00000000000E+00 0.  1.
<mgrwt>
<rscale>  1 0.30000000E+03</rscale>
<asrwt>0</asrwt>
<pdfrwt beam="1">  1        1 0.16379918E+00 0.30000000E+03</pdfrwt>
<pdfrwt beam="2">0</pdfrwt>
<totfact> 0.15324766E+01</totfact>
</mgrwt>
</event>
<event>
 6    1  0.1839160E-004  0.3000000E+03  0.7818608E-02  0.1093470E+00
          1   -1    0    0  502    0  0.00000000000E+00  0.00000000000E+00  0.30661339193E+02  0.30661339193E+02  0.00000000000E+00 0.  1.
         13   -1    0    0    0    0 -0.00000000000E+00 -0.00000000000E+00 -0.10000000000E+04  0.10000000000E+04  0.00000000000E+00 0.  1.
    9000005    2    1    2  501    0 -0.21228794092E+02  0.42561075084E+01 -0.91270594344E+03  0.97003097694E+03  0.32780967176E+03 0.  0.
         13    1    3    3    0    0  0.16221611463E+02 -0.13225878536E+03 -0.71238972824E+03  0.72474454250E+03  0.00000000000E+00 0.  1.
          1    1    3    3  501    0 -0.37450405556E+02  0.13651489287E+03 -0.20031621519E+03  0.24528643444E+03  0.00000000000E+00 0.  1.
         21    1    1    2  502  501  0.21228794092E+02 -0.42561075084E+01 -0.56632717370E+02  0.60630362249E+02  0.00000000000E+00 0.  1.
<mgrwt>
<rscale>  1 0.30000000E+03</rscale>
<asrwt>0</asrwt>
<pdfrwt beam="1">  1        1 0.11149601E+00 0.30000000E+03</pdfrwt>
<pdfrwt beam="2">0</pdfrwt>
<totfact> 0.29108417E+01</totfact>
</mgrwt>
</event>
<event>
 6    1  0.1839160E-004  0.3000000E+03  0.7818608E-02  0.1093470E+00
          1   -1    0    0  502    0  0.00000000000E+00  0.00000000000E+00  0.33135428998E+02  0.33135428998E+02  0.00000000000E+00 0.  1.
         13   -1    0    0    0    0 -0.00000000000E+00 -0.00000000000E+00 -0.10000000000E+04  0.10000000000E+04  0.00000000000E+00 0.  1.
    9000005    2    1    2  501    0  0.13964856899E+02 -0.65810661188E+01 -0.96666066133E+03  0.10176962179E+04  0.31785913571E+03 0.  0.
         13    1    3    3    0    0 -0.12014458766E+03 -0.56328561789E+02 -0.21579866751E+03  0.25333119373E+03  0.00000000000E+00 0.  1.
          3    1    3    3  501    0  0.13410944456E+03  0.49747495671E+02 -0.75086199382E+03  0.76436502420E+03  0.00000000000E+00 0.  1.
         21    1    1    2  502  501 -0.13964856899E+02  0.65810661188E+01 -0.20390967245E+00  0.15439211075E+02  0.00000000000E+00 0.  1.
<mgrwt>
<rscale>  1 0.30000000E+03</rscale>
<asrwt>0</asrwt>
<pdfrwt beam="1">  1        1 0.12049272E+00 0.30000000E+03</pdfrwt>
<pdfrwt beam="2">0</pdfrwt>
<totfact> 0.25829973E+01</totfact>
</mgrwt>
</event>
<event>
 6    1  0.1839160E-004  0.3000000E+03  0.7818608E-02  0.1093470E+00
          1   -1    0    0  502    0  0.00000000000E+00  0.00000000000E+00  0.44856967385E+02  0.44856967385E+02  0.00000000000E+00 0.  1.
         13   -1    0    0    0    0 -0.00000000000E+00 -0.00000000000E+00 -0.10000000000E+04  0.10000000000E+04  0.00000000000E+00 0.  1.
    9000005    2    1    2  501    0  0.24358943178E+02  0.92913609369E+00 -0.95140159900E+03  0.10201948561E+04  0.36747560526E+03 0.  0.
         13    1    3    3    0    0  0.18738351606E+01  0.17107741567E+03 -0.28830494106E+03  0.33524727060E+03  0.00000000000E+00 0.  1.
          1    1    3    3  501    0  0.22485108017E+02 -0.17014827957E+03 -0.66309665795E+03  0.68494758551E+03  0.00000000000E+00 0.  1.
         21    1    1    2  502  501 -0.24358943178E+02 -0.92913609369E+00 -0.37414336105E+01  0.24662111266E+02  0.00000000000E+00 0.  1.
<mgrwt>
<rscale>  1 0.30000000E+03</rscale>
<asrwt>0</asrwt>
<pdfrwt beam="1">  1        1 0.16311659E+00 0.30000000E+03</pdfrwt>
<pdfrwt beam="2">0</pdfrwt>
<totfact> 0.15444148E+01</totfact>
</mgrwt>
</event>
<event>
 6    1  0.1839160E-004  0.3000000E+03  0.7818608E-02  0.1093470E+00
          1   -1    0    0  502    0  0.00000000000E+00  0.00000000000E+00  0.57002148210E+02  0.57002148210E+02  0.00000000000E+00 0.  1.
         13   -1    0    0    0    0 -0.00000000000E+00 -0.00000000000E+00 -0.10000000000E+04  0.10000000000E+04  0.00000000000E+00 0.  1.
    9000005    2    1    2  501    0  0.69068582187E+02  0.63183886075E+02 -0.89965625284E+03  0.95384611734E+03  0.30278436186E+03 0.  0.
         13    1    3    3    0    0 -0.47589655381E+02  0.15804609750E+03 -0.51702659370E+03  0.54273367579E+03  0.00000000000E+00 0.  1.
          3    1    3    3  501    0  0.11665823757E+03 -0.94862211428E+02 -0.38262965914E+03  0.41111244156E+03  0.00000000000E+00 0.  1.
         21    1    1    2  502  501 -0.69068582187E+02 -0.63183886075E+02 -0.43341598948E+02  0.10315603087E+03  0.00000000000E+00 0.  1.
<mgrwt>
<rscale>  1 0.30000000E+03</rscale>
<asrwt>0</asrwt>
<pdfrwt beam="1">  1        1 0.20728098E+00 0.30000000E+03</pdfrwt>
<pdfrwt beam="2">0</pdfrwt>
<totfact> 0.94607343E+00</totfact>
</mgrwt>
</event>
<event>
 6    1  0.1839160E-004  0.3000000E+03  0.7818608E-02  0.1093470E+00
          1   -1    0    0  502    0  0.00000000000E+00  0.00000000000E+00  0.75159539403E+02  0.75159539403E+02  0.00000000000E+00 0.  1.
         13   -1    0    0    0    0 -0.00000000000E+00 -0.00000000000E+00 -0.10000000000E+04  0.10000000000E+04  0.00000000000E+00 0.  1.
    9000005    2    1    2  501    0 -0.13639623162E+01 -0.11601136801E+02 -0.97157507533E+03  0.10269872343E+04  0.33257811952E+03 0.  0.
         13    1    3    3    0    0 -0.81229520013E+02 -0.15137872087E+03 -0.49971046710E+03  0.52841678908E+03  0.00000000000E+00 0.  1.
          1    1    3    3  501    0  0.79865557697E+02  0.13977758407E+03 -0.47186460823E+03  0.49857044518E+03  0.00000000000E+00 0.  1.
         21    1    1    2  502  501  0.13639623162E+01  0.11601136801E+02  0.46734614730E+02  0.48172305137E+02  0.00000000000E+00 0.  1.
<mgrwt>
<rscale>  1 0.30000000E+03</rscale>
<asrwt>0</asrwt>
<pdfrwt beam="1">  1        1 0.27330799E+00 0.30000000E+03</pdfrwt>
<pdfrwt beam="2">0</pdfrwt>
<totfact> 0.46398962E+00</totfact>
</mgrwt>
</event>
<event>
 6    1  0.1839160E-004  0.3000000E+03  0.7818608E-02  0.1093470E+00
          1   -1    0    0  502    0  0.00000000000E+00  0.00000000000E+00  0.28273439025E+02  0.28273439025E+02  0.00000000000E+00 0.  1.
         13   -1    0    0    0    0 -0.00000000000E+00 -0.00000000000E+00 -0.10000000000E+04  0.10000000000E+04  0.00000000000E+00 0.  1.
    9000005    2    1    2  501    0 -0.53203213546E+01 -0.91305783191E+01 -0.95488525984E+03  0.10083912182E+04  0.32393721038E+03 0.  0.
         13    1    3    3    0    0 -0.14024030934E+03 -0.57433519556E+02 -0.69776238430E+03  0.71402962017E+03  0.00000000000E+00 0.  1.
          3    1    3    3  501    0  0.13491998798E+03  0.48302941237E+02 -0.25712287554E+03  0.29436159807E+03  0.00000000000E+00 0.  1.
         21    1    1    2  502  501  0.53203213546E+01  0.91305783191E+01 -0.16841301134E+02  0.19882220793E+02  0.00000000000E+00 0.  1.
<mgrwt>
<rscale>  1 0.30000000E+03</rscale>
<asrwt>0</asrwt>
<pdfrwt beam="1">  1        1 0.10281272E+00 0.30000000E+03</pdfrwt>
<pdfrwt beam="2">0</pdfrwt>
<totfact> 0.32860775E+01</totfact>
</mgrwt>
</event>
<event>
 6    1  0.1839160E-004  0.3000000E+03  0.7818608E-02  0.1093470E+00
          1   -1    0    0  502    0  0.00000000000E+00  0.00000000000E+00  0.39046329687E+02  0.39046329687E+02  0.00000000000E+00 0.  1.
         13   -1    0    0    0    0 -0.00000000000E+00 -0.00000000000E+00 -0.10000000000E+04  0.10000000000E+04  0.00000000000E+00 0.  1.
    9000005    2    1    2  501    0 -0.17457577313E+02  0.17952887108E+02 -0.95674644393E+03  0.10136539309E+04  0.33392133885E+03 0.  0.
         13    1    3    3    0    0 -0.72623563384E+02 -0.21765506304E+02 -0.94077652870E+03  0.94382646508E+03  0.00000000000E+00 0.  1.
          1    1    3    3  501    0  0.55165986071E+02  0.39718393411E+02 -0.15969915231E+02  0.69827465849E+02  0.00000000000E+00 0.  1.
         21    1    1    2  502  501  0.17457577313E+02 -0.17952887108E+02 -0.42072263814E+01  0.25392398763E+02  0.00000000000E+00 0.  1.
<mgrwt>
<rscale>  1 0.30000000E+03</rscale>
<asrwt>0</asrwt>
<pdfrwt beam="1">  1        1 0.14198695E+00 0.30000000E+03</pdfrwt>
<pdfrwt beam="2">0</pdfrwt>
<totfact> 0.19754168E+01</totfact>
</mgrwt>
</event>
<event>
 6    1  0.1839160E-004  0.3000000E+03  0.7818608E-02  0.1093470E+00
          1   -1    0    0  502    0  0.00000000000E+00  0.00000000000E+00  0.36522683297E+02  0.36522683297E+02  0.00000000000E+00 0.  1.
         13   -1    0    0    0    0 -0.00000000000E+00 -0.00000000000E+00 -0.10000000000E+04  0.10000000000E+04  0.00000000000E+00 0.  1.
    9000005    2    1    2  501    0  0.73792456206E+01 -0.11022411315E+02 -0.96728356273E+03  0.10227228889E+04  0.33188653166E+03 0.  0.
         13    1    3    3    0    0  0.59773941100E+02 -0.66249773074E+02 -0.93628443155E+03  0.94052671053E+03  0.00000000000E+00 0.  1.
          3    1    3    3  501    0 -0.52394695479E+02  0.55227361759E+02 -0.30999131182E+02  0.82196178349E+02  0.00000000000E+00 0.  1.
         21    1    1    2  502  501 -0.73792456206E+01  0.11022411315E+02  0.38062460255E+01  0.13799794417E+02  0.00000000000E+00 0.  1.
<mgrwt>
<rscale>  1 0.30000000E+03</rscale>
<asrwt>0</asrwt>
<pdfrwt beam="1">  1        1 0.13281004E+00 0.30000000E+03</pdfrwt>
<pdfrwt beam="2">0</pdfrwt>
<totfact> 0.22091919E+01</totfact>
</mgrwt>
</event>
<event>
 6    1  0.1839160E-004  0.3000000E+03  0.7818608E-02  0.1093470E+00
          1   -1    0    0  502    0  0.00000000000E+00  0.00000000000E+00  0.40390687614E+02  0.40390687614E+02  0.00000000000E+00 0.  1.
         13   -1    0    0    0    0 -0.00000000000E+00 -0.00000000000E+00 -0.10000000000E+04  0.10000000000E+04  0.00000000000E+00 0.  1.
    9000005    2    1    2  501    0  0.16552761078E+02 -0.24331222528E+02 -0.95556138687E+03  0.10106856714E+04  0.32790541311E+03 0.  0.
         13    1    3    3    0    0  0.14087967413E+03 -0.10170666168E+03 -0.39920912460E+03  0.43538402908E+03  0.00000000000E+00 0.  1.
          1    1    3    3  501    0 -0.12432691305E+03  0.77375439150E+02 -0.55635226227E+03  0.57530164230E+03  0.00000000000E+00 0.  1.
         21    1    1    2  502  501 -0.16552761078E+02  0.24331222528E+02 -0.40479255140E+01  0.29705016242E+02  0.00000000000E+00 0.  1.
<mgrwt>
<rscale>  1 0.30000000E+03</rscale>
<asrwt>0</asrwt>
<pdfrwt beam="1">  1        1 0.14687554E+00 0.30000000E+03</pdfrwt>
<pdfrwt beam="2">0</pdfrwt>
<totfact> 0.18637384E+01</totfact>
</mgrwt>
</event>
<event>
 6    1  0.1839160E-004  0.3000000E+03  0.7818608E-02  0.1093470E+00
          1   -1    0    0  502    0  0.00000000000E+00  0.00000000000E+00  0.26792162238E+02  0.26792162238E+02  0.00000000000E+00 0.  1.
         13   -1    0    0    0    0 -0.00000000000E+00 -0.00000000000E+00 -0.10000000000E+04  0.10000000000E+04  0.00000000000E+00 0.  1.
    9000005    2    1    2  501    0 -0.10585606604E+02  0.51088020393E+01 -0.96001079998E+03  0.10091196771E+04  0.31074689326E+03 0.  0.
         13    1    3    3    0    0 -0.13349274607E+03  0.66310942724E+02 -0.69330192748E+03  0.70914386201E+03  0.00000000000E+00 0.  1.
          1    1    3    3  501    0  0.12290713947E+03 -0.61202140685E+02 -0.26670887249E+03  0.29997581506E+03  0.00000000000E+00 0.  1.
         21    1    1    2  502  501  0.10585606604E+02 -0.51088020393E+01 -0.13197037785E+02  0.17672485160E+02  0.00000000000E+00 0.  1.
<mgrwt>
<rscale>  1 0.30000000E+03</rscale>
<asrwt>0</asrwt>
<pdfrwt beam="1">  1        1 0.97426250E-01 0.30000000E+03</pdfrwt>
<pdfrwt beam="2">0</pdfrwt>
<totfact> 0.35551595E+01</totfact>
</mgrwt>
</event>
<event>
 6    1  0.1839160E-004  0.3000000E+03  0.7818608E-02  0.1093470E+00
          1   -1    0    0  502    0  0.00000000000E+00  0.00000000000E+00  0.27823486617E+02  0.27823486617E+02  0.00000000000E+00 0.  1.
         13   -1    0    0    0    0 -0.00000000000E+00 -0.00000000000E+00 -0.10000000000E+04  0.10000000000E+04  0.00000000000E+00 0.  1.
    9000005    2    1    2  501    0  0.11504535830E+01 -0.94217374541E+01 -0.96102052982E+03  0.10131760073E+04  0.32074143858E+03 0.  0.
         13    1    3    3    0    0 -0.40104107185E+02 -0.11857803778E+03 -0.15729952614E+03  0.20102793681E+03  0.00000000000E+00 0.  1.
          3    1    3    3  501    0  0.41254560768E+02  0.10915630033E+03 -0.80372100368E+03  0.81214807052E+03  0.00000000000E+00 0.  1.
         21    1    1    2  502  501 -0.11504535830E+01  0.94217374541E+01 -0.11155983565E+02  0.14647479285E+02  0.00000000000E+00 0.  1.
<mgrwt>
<rscale>  1 0.30000000E+03</rscale>
<asrwt>0</asrwt>
<pdfrwt beam="1">  1        1 0.10117653E+00 0.30000000E+03</pdfrwt>
<pdfrwt beam="2">0</pdfrwt>
<totfact> 0.33645542E+01</totfact>
</mgrwt>
</event>
